                         Program Version 4.2.1 -  RELEASE  -
|  1> ! wB97X-D3 SP def2-SVP
|  2> %pal
|  3> nprocs 24
|  4> end
|  5>
|  6> * xyz 0 1
|  7> S 	 -109.862 	 53.9323 	 -94.4456
|  8> C 	 -110.507 	 54.6521 	 -95.9293
|  9> C 	 -111.746 	 55.2171 	 -95.7352
| 10> C 	 -112.143 	 55.2366 	 -94.3788
| 11> C 	 -111.23 	 54.6184 	 -93.5334
| 12> H 	 -113.042 	 55.5862 	 -93.8978
| 13> C 	 -112.562 	 55.8721 	 -96.8766
| 14> H 	 -112.128 	 55.5447 	 -97.8007
| 15> H 	 -112.261 	 56.9459 	 -96.9558
| 16> C 	 -114.076 	 55.8571 	 -96.8488
| 17> H 	 -114.374 	 54.8649 	 -96.5
| 18> H 	 -114.396 	 56.5312 	 -95.9871
| 19> C 	 -114.906 	 56.3949 	 -98.094
| 20> H 	 -114.439 	 56.1793 	 -99.0764
| 21> H 	 -115.819 	 55.8379 	 -98.2077
| 22> H 	 -115.135 	 57.4755 	 -97.9326
| 23> S 	 -109.942 	 54.5745 	 -91.1098
| 24> C 	 -110.763 	 53.9853 	 -89.7347
| 25> C 	 -112.074 	 53.6616 	 -89.9777
| 26> C 	 -112.456 	 53.8952 	 -91.3358
| 27> C 	 -111.377 	 54.3045 	 -92.1103
| 28> H 	 -112.632 	 53.3699 	 -89.1222
| 29> C 	 -113.908 	 53.8003 	 -91.7814
| 30> H 	 -114.133 	 52.7256 	 -91.6695
| 31> H 	 -113.939 	 53.9841 	 -92.8828
| 32> C 	 -114.911 	 54.5706 	 -90.8931
| 33> H 	 -114.421 	 55.5717 	 -90.8947
| 34> H 	 -114.915 	 54.2767 	 -89.8777
| 35> C 	 -116.293 	 54.6959 	 -91.5119
| 36> H 	 -116.062 	 55.1621 	 -92.4597
| 37> H 	 -116.993 	 55.41 	 -91.117
| 38> H 	 -116.796 	 53.7563 	 -91.7199
| 39> H 	 -110.014 	 54.7161 	 -96.8709
| 40> H 	 -110.27 	 53.7328 	 -88.7934
| 41> *
| 42>
| 43>                          ****END OF INPUT****

CARTESIAN COORDINATES (ANGSTROEM)
---------------------------------
  S    -109.862000   53.932300  -94.445600
  C    -110.507000   54.652100  -95.929300
  C    -111.746000   55.217100  -95.735200
  C    -112.143000   55.236600  -94.378800
  C    -111.230000   54.618400  -93.533400
  H    -113.042000   55.586200  -93.897800
  C    -112.562000   55.872100  -96.876600
  H    -112.128000   55.544700  -97.800700
  H    -112.261000   56.945900  -96.955800
  C    -114.076000   55.857100  -96.848800
  H    -114.374000   54.864900  -96.500000
  H    -114.396000   56.531200  -95.987100
  C    -114.906000   56.394900  -98.094000
  H    -114.439000   56.179300  -99.076400
  H    -115.819000   55.837900  -98.207700
  H    -115.135000   57.475500  -97.932600
  S    -109.942000   54.574500  -91.109800
  C    -110.763000   53.985300  -89.734700
  C    -112.074000   53.661600  -89.977700
  C    -112.456000   53.895200  -91.335800
  C    -111.377000   54.304500  -92.110300
  H    -112.632000   53.369900  -89.122200
  C    -113.908000   53.800300  -91.781400
  H    -114.133000   52.725600  -91.669500
  H    -113.939000   53.984100  -92.882800
  C    -114.911000   54.570600  -90.893100
  H    -114.421000   55.571700  -90.894700
  H    -114.915000   54.276700  -89.877700
  C    -116.293000   54.695900  -91.511900
  H    -116.062000   55.162100  -92.459700
  H    -116.993000   55.410000  -91.117000
  H    -116.796000   53.756300  -91.719900
  H    -110.014000   54.716100  -96.870900
  H    -110.270000   53.732800  -88.793400

 Total Charge           Charge          ....    0
 Multiplicity           Mult            ....    1
 Number of Electrons    NEL             ....  134
 Basis Dimension        Dim             ....  322

ORBITAL ENERGIES
----------------

  NO   OCC          E(Eh)            E(eV)
   0   2.0000     -88.967472     -2420.9280
   1   2.0000     -88.964162     -2420.8379
   2   2.0000     -10.331789      -281.1423
   3   2.0000     -10.326848      -281.0078
   4   2.0000     -10.313420      -280.6424
   5   2.0000     -10.312431      -280.6155
   6   2.0000     -10.307174      -280.4725
   7   2.0000     -10.304237      -280.3925
   8   2.0000     -10.297208      -280.2013
   9   2.0000     -10.297183      -280.2006
  10   2.0000     -10.294071      -280.1159
  11   2.0000     -10.293550      -280.1017
  12   2.0000     -10.290482      -280.0183
  13   2.0000     -10.289985      -280.0047
  14   2.0000     -10.289957      -280.0040
  15   2.0000     -10.277304      -279.6596
  16   2.0000      -8.081283      -219.9029
  17   2.0000      -8.079592      -219.8569
  18   2.0000      -6.039872      -164.3533
  19   2.0000      -6.037957      -164.3012
  20   2.0000      -6.035973      -164.2472
  21   2.0000      -6.034060      -164.1951
  22   2.0000      -6.031943      -164.1375
  23   2.0000      -6.030404      -164.0956
  24   2.0000      -1.006120       -27.3779
  25   2.0000      -0.983592       -26.7649
  26   2.0000      -0.912578       -24.8325
  27   2.0000      -0.904565       -24.6145
  28   2.0000      -0.868355       -23.6291
  29   2.0000      -0.855782       -23.2870
  30   2.0000      -0.843141       -22.9430
  31   2.0000      -0.816398       -22.2153
  32   2.0000      -0.786176       -21.3929
  33   2.0000      -0.774641       -21.0790
  34   2.0000      -0.713625       -19.4187
  35   2.0000      -0.703302       -19.1378
  36   2.0000      -0.690144       -18.7798
  37   2.0000      -0.658218       -17.9110
  38   2.0000      -0.642978       -17.4963
  39   2.0000      -0.620698       -16.8900
  40   2.0000      -0.594536       -16.1782
  41   2.0000      -0.570240       -15.5170
  42   2.0000      -0.567472       -15.4417
  43   2.0000      -0.557924       -15.1819
  44   2.0000      -0.527277       -14.3479
  45   2.0000      -0.523590       -14.2476
  46   2.0000      -0.516155       -14.0453
  47   2.0000      -0.509307       -13.8589
  48   2.0000      -0.508665       -13.8415
  49   2.0000      -0.496054       -13.4983
  50   2.0000      -0.492677       -13.4064
  51   2.0000      -0.482033       -13.1168
  52   2.0000      -0.475655       -12.9432
  53   2.0000      -0.468291       -12.7428
  54   2.0000      -0.457853       -12.4588
  55   2.0000      -0.452806       -12.3215
  56   2.0000      -0.446726       -12.1560
  57   2.0000      -0.434041       -11.8108
  58   2.0000      -0.432574       -11.7709
  59   2.0000      -0.427857       -11.6426
  60   2.0000      -0.424185       -11.5426
  61   2.0000      -0.414614       -11.2822
  62   2.0000      -0.411746       -11.2042
  63   2.0000      -0.345418        -9.3993
  64   2.0000      -0.333285        -9.0691
  65   2.0000      -0.330470        -8.9925
  66   2.0000      -0.290077        -7.8934
  67   0.0000       0.026329         0.7165
  68   0.0000       0.074212         2.0194
  69   0.0000       0.108254         2.9457
  70   0.0000       0.115872         3.1530
  71   0.0000       0.123624         3.3640

MULLIKEN ATOMIC CHARGES
-----------------------
   0 S :    0.110177
   1 C :   -0.109771
   2 C :   -0.072345
   3 C :    0.016281
   4 C :   -0.137554
   5 H :    0.008552
   6 C :    0.091647
   7 H :   -0.002579
   8 H :    0.034853
   9 C :   -0.117567
  10 H :    0.030349
  11 H :    0.037875
  12 C :   -0.050742
  13 H :    0.036457
  14 H :    0.033149
  15 H :    0.053783
  16 S :    0.110021
  17 C :   -0.090529
  18 C :   -0.044085
  19 C :   -0.021249
  20 C :   -0.180282
  21 H :    0.009186
  22 C :    0.050822
  23 H :    0.031450
  24 H :    0.025094
  25 C :   -0.071891
  26 H :    0.033308
  27 H :    0.027391
  28 C :   -0.017489
  29 H :    0.010509
  30 H :    0.034038
  31 H :    0.035003
  32 H :    0.034692
  33 H :    0.061445
Sum of atomic charges:    0.0000000

LOEWDIN ATOMIC CHARGES
----------------------
   0 S :    0.387662
   1 C :   -0.187580
   2 C :   -0.058350
   3 C :   -0.067855
   4 C :   -0.177810
   5 H :    0.029454
   6 C :   -0.039317
   7 H :    0.021410
   8 H :    0.037267
   9 C :   -0.050914
  10 H :    0.020502
  11 H :    0.030383
  12 C :   -0.068217
  13 H :    0.028821
  14 H :    0.028477
  15 H :    0.034374
  16 S :    0.413294
  17 C :   -0.193597
  18 C :   -0.074063
  19 C :   -0.049858
  20 C :   -0.201689
  21 H :    0.028476
  22 C :   -0.035815
  23 H :    0.034230
  24 H :    0.032677
  25 C :   -0.038247
  26 H :    0.031355
  27 H :    0.016035
  28 C :   -0.066294
  29 H :    0.026502
  30 H :    0.027055
  31 H :    0.025399
  32 H :    0.023984
  33 H :    0.032249

  Mayer bond orders larger than 0.100000
B(  0-S ,  1-C ) :   1.1258 B(  0-S ,  4-C ) :   1.1496 B(  1-C ,  2-C ) :   1.6292
B(  1-C ,  4-C ) :   0.1030 B(  1-C , 32-H ) :   0.9686 B(  2-C ,  3-C ) :   1.2196
B(  2-C ,  6-C ) :   1.0189 B(  3-C ,  4-C ) :   1.5862 B(  3-C ,  5-H ) :   0.9949
B(  4-C , 20-C ) :   1.0336 B(  6-C ,  7-H ) :   0.9348 B(  6-C ,  8-H ) :   0.9350
B(  6-C ,  9-C ) :   1.0562 B(  9-C , 10-H ) :   0.9682 B(  9-C , 11-H ) :   0.9521
B(  9-C , 12-C ) :   1.0625 B( 12-C , 13-H ) :   0.9786 B( 12-C , 14-H ) :   0.9756
B( 12-C , 15-H ) :   0.9795 B( 16-S , 17-C ) :   1.1642 B( 16-S , 20-C ) :   1.1412
B( 17-C , 18-C ) :   1.6257 B( 17-C , 33-H ) :   0.9607 B( 18-C , 19-C ) :   1.2171
B( 18-C , 21-H ) :   0.9977 B( 19-C , 20-C ) :   1.5952 B( 19-C , 22-C ) :   1.0428
B( 22-C , 23-H ) :   0.9183 B( 22-C , 24-H ) :   0.9402 B( 22-C , 25-C ) :   1.0469
B( 25-C , 26-H ) :   0.9603 B( 25-C , 27-H ) :   0.9519 B( 25-C , 28-C ) :   1.0798
B( 28-C , 29-H ) :   0.9706 B( 28-C , 30-H ) :   0.9737 B( 28-C , 31-H ) :   0.9758

Dispersion correction           -0.013755437
FINAL SINGLE POINT ENERGY     -1339.872524216041

DIPOLE MOMENT
-------------
                                X             Y             Z
Electronic contribution:     30.74047      -7.20682      10.91711
Nuclear contribution   :    -31.45625       7.32880     -10.99353
                        -----------------------------------------
Total Dipole Moment    :     -0.71578       0.12198      -0.07643
                        -----------------------------------------
Magnitude (a.u.)       :      0.73011
Magnitude (Debye)      :      1.85579

Rotational constants in cm-1:     0.016338     0.009217     0.006137
Rotational constants in MHz :   489.814369   276.307442   183.989389

                             ****ORCA TERMINATED NORMALLY****
TOTAL RUN TIME: 0 days 0 hours 0 minutes 21 seconds 361 msec
