                         Program Version 4.2.1 -  RELEASE  -
|  1> ! wB97X-D3 SP def2-SVP
|  2> %pal
|  3> nprocs 24
|  4> end
|  5>
|  6> * xyz 0 1
|  7> S 	 -134.535 	 26.6465 	 -15.8271
|  8> C 	 -135.015 	 25.9717 	 -17.3675
|  9> C 	 -135.793 	 26.8778 	 -18.0485
| 10> C 	 -136.154 	 28.0186 	 -17.2817
| 11> C 	 -135.587 	 28.0381 	 -16.0112
| 12> H 	 -136.663 	 28.8922 	 -17.5804
| 13> C 	 -136.301 	 26.7669 	 -19.4678
| 14> H 	 -135.439 	 26.3833 	 -20.0286
| 15> H 	 -136.356 	 27.8224 	 -19.7588
| 16> C 	 -137.706 	 26.0927 	 -19.5738
| 17> H 	 -137.582 	 25.2069 	 -18.9772
| 18> H 	 -138.364 	 26.7614 	 -19.0235
| 19> C 	 -138.232 	 25.7732 	 -20.9786
| 20> H 	 -139.179 	 25.2155 	 -20.8739
| 21> H 	 -138.35 	 26.6968 	 -21.5963
| 22> H 	 -137.534 	 25.1448 	 -21.4578
| 23> S 	 -136.913 	 28.8488 	 -13.7536
| 24> C 	 -136.323 	 30.2399 	 -12.8149
| 25> C 	 -135.343 	 30.9221 	 -13.5224
| 26> C 	 -134.895 	 30.242 	 -14.7062
| 27> C 	 -135.619 	 29.0697 	 -14.9726
| 28> H 	 -135.068 	 31.886 	 -13.085
| 29> C 	 -133.813 	 30.7759 	 -15.5669
| 30> H 	 -133.597 	 30.1164 	 -16.3893
| 31> H 	 -132.9 	 30.7271 	 -14.9806
| 32> C 	 -133.992 	 32.2518 	 -15.927
| 33> H 	 -134.193 	 32.8351 	 -15.0698
| 34> H 	 -134.976 	 32.3759 	 -16.3239
| 35> C 	 -132.838 	 32.8889 	 -16.7196
| 36> H 	 -132.83 	 32.5765 	 -17.7949
| 37> H 	 -131.903 	 32.6297 	 -16.3271
| 38> H 	 -132.922 	 33.9548 	 -16.6699
| 39> H 	 -134.382 	 25.3236 	 -17.9445
| 40> H 	 -136.81 	 30.5484 	 -11.9107
| 41> *
| 42>
| 43>                          ****END OF INPUT****

CARTESIAN COORDINATES (ANGSTROEM)
---------------------------------
  S    -134.535000   26.646500  -15.827100
  C    -135.015000   25.971700  -17.367500
  C    -135.793000   26.877800  -18.048500
  C    -136.154000   28.018600  -17.281700
  C    -135.587000   28.038100  -16.011200
  H    -136.663000   28.892200  -17.580400
  C    -136.301000   26.766900  -19.467800
  H    -135.439000   26.383300  -20.028600
  H    -136.356000   27.822400  -19.758800
  C    -137.706000   26.092700  -19.573800
  H    -137.582000   25.206900  -18.977200
  H    -138.364000   26.761400  -19.023500
  C    -138.232000   25.773200  -20.978600
  H    -139.179000   25.215500  -20.873900
  H    -138.350000   26.696800  -21.596300
  H    -137.534000   25.144800  -21.457800
  S    -136.913000   28.848800  -13.753600
  C    -136.323000   30.239900  -12.814900
  C    -135.343000   30.922100  -13.522400
  C    -134.895000   30.242000  -14.706200
  C    -135.619000   29.069700  -14.972600
  H    -135.068000   31.886000  -13.085000
  C    -133.813000   30.775900  -15.566900
  H    -133.597000   30.116400  -16.389300
  H    -132.900000   30.727100  -14.980600
  C    -133.992000   32.251800  -15.927000
  H    -134.193000   32.835100  -15.069800
  H    -134.976000   32.375900  -16.323900
  C    -132.838000   32.888900  -16.719600
  H    -132.830000   32.576500  -17.794900
  H    -131.903000   32.629700  -16.327100
  H    -132.922000   33.954800  -16.669900
  H    -134.382000   25.323600  -17.944500
  H    -136.810000   30.548400  -11.910700

 Total Charge           Charge          ....    0
 Multiplicity           Mult            ....    1
 Number of Electrons    NEL             ....  134
 Basis Dimension        Dim             ....  322

ORBITAL ENERGIES
----------------

  NO   OCC          E(Eh)            E(eV)
   0   2.0000     -88.963202     -2420.8118
   1   2.0000     -88.960995     -2420.7517
   2   2.0000     -10.331015      -281.1212
   3   2.0000     -10.330736      -281.1136
   4   2.0000     -10.321196      -280.8540
   5   2.0000     -10.310177      -280.5542
   6   2.0000     -10.309225      -280.5283
   7   2.0000     -10.299045      -280.2513
   8   2.0000     -10.298942      -280.2485
   9   2.0000     -10.291410      -280.0435
  10   2.0000     -10.291289      -280.0402
  11   2.0000     -10.287007      -279.9237
  12   2.0000     -10.285841      -279.8919
  13   2.0000     -10.280707      -279.7523
  14   2.0000     -10.280583      -279.7489
  15   2.0000     -10.277502      -279.6650
  16   2.0000      -8.077919      -219.8114
  17   2.0000      -8.075019      -219.7324
  18   2.0000      -6.036411      -164.2591
  19   2.0000      -6.033560      -164.1815
  20   2.0000      -6.032280      -164.1467
  21   2.0000      -6.029602      -164.0738
  22   2.0000      -6.028828      -164.0527
  23   2.0000      -6.025799      -163.9703
  24   2.0000      -1.002671       -27.2841
  25   2.0000      -0.980516       -26.6812
  26   2.0000      -0.912486       -24.8300
  27   2.0000      -0.908484       -24.7211
  28   2.0000      -0.868526       -23.6338
  29   2.0000      -0.849182       -23.1074
  30   2.0000      -0.848229       -23.0815
  31   2.0000      -0.815907       -22.2020
  32   2.0000      -0.783366       -21.3165
  33   2.0000      -0.771571       -20.9955
  34   2.0000      -0.715992       -19.4831
  35   2.0000      -0.704182       -19.1618
  36   2.0000      -0.699997       -19.0479
  37   2.0000      -0.657047       -17.8792
  38   2.0000      -0.645042       -17.5525
  39   2.0000      -0.616495       -16.7757
  40   2.0000      -0.598001       -16.2724
  41   2.0000      -0.568772       -15.4771
  42   2.0000      -0.561592       -15.2817
  43   2.0000      -0.553670       -15.0661
  44   2.0000      -0.535175       -14.5628
  45   2.0000      -0.526290       -14.3211
  46   2.0000      -0.514939       -14.0122
  47   2.0000      -0.511656       -13.9229
  48   2.0000      -0.507155       -13.8004
  49   2.0000      -0.504704       -13.7337
  50   2.0000      -0.488860       -13.3026
  51   2.0000      -0.476910       -12.9774
  52   2.0000      -0.473833       -12.8936
  53   2.0000      -0.464880       -12.6500
  54   2.0000      -0.458463       -12.4754
  55   2.0000      -0.452736       -12.3196
  56   2.0000      -0.447508       -12.1773
  57   2.0000      -0.438832       -11.9412
  58   2.0000      -0.434830       -11.8323
  59   2.0000      -0.424075       -11.5397
  60   2.0000      -0.419668       -11.4197
  61   2.0000      -0.414681       -11.2840
  62   2.0000      -0.411346       -11.1933
  63   2.0000      -0.333433        -9.0732
  64   2.0000      -0.327430        -8.9098
  65   2.0000      -0.318065        -8.6550
  66   2.0000      -0.313494        -8.5306
  67   0.0000       0.041409         1.1268
  68   0.0000       0.045597         1.2408
  69   0.0000       0.110769         3.0142
  70   0.0000       0.117130         3.1873
  71   0.0000       0.128526         3.4974

MULLIKEN ATOMIC CHARGES
-----------------------
   0 S :    0.107251
   1 C :   -0.084509
   2 C :   -0.158366
   3 C :    0.075717
   4 C :   -0.182900
   5 H :   -0.002681
   6 C :    0.056332
   7 H :    0.021486
   8 H :    0.015548
   9 C :   -0.055924
  10 H :    0.027243
  11 H :    0.025781
  12 C :   -0.017269
  13 H :    0.045044
  14 H :    0.039149
  15 H :    0.021512
  16 S :    0.091978
  17 C :   -0.092866
  18 C :   -0.056751
  19 C :    0.001267
  20 C :   -0.194006
  21 H :    0.032302
  22 C :    0.124978
  23 H :    0.019315
  24 H :    0.020858
  25 C :   -0.089314
  26 H :    0.005632
  27 H :    0.012466
  28 C :   -0.001837
  29 H :    0.039331
  30 H :    0.014225
  31 H :    0.028551
  32 H :    0.053598
  33 H :    0.056860
Sum of atomic charges:    0.0000000

LOEWDIN ATOMIC CHARGES
----------------------
   0 S :    0.410898
   1 C :   -0.210400
   2 C :   -0.061147
   3 C :   -0.057634
   4 C :   -0.197370
   5 H :    0.026619
   6 C :   -0.035792
   7 H :    0.027622
   8 H :    0.027903
   9 C :   -0.035110
  10 H :    0.023619
  11 H :    0.025397
  12 C :   -0.062427
  13 H :    0.033645
  14 H :    0.030896
  15 H :    0.018655
  16 S :    0.377476
  17 C :   -0.164887
  18 C :   -0.077536
  19 C :   -0.045758
  20 C :   -0.196806
  21 H :    0.036101
  22 C :   -0.029724
  23 H :    0.028618
  24 H :    0.033776
  25 C :   -0.041714
  26 H :    0.018287
  27 H :    0.022067
  28 C :   -0.055302
  29 H :    0.032152
  30 H :    0.017382
  31 H :    0.025998
  32 H :    0.028975
  33 H :    0.025522

  Mayer bond orders larger than 0.100000
B(  0-S ,  1-C ) :   1.1396 B(  0-S ,  4-C ) :   1.1691 B(  1-C ,  2-C ) :   1.6146
B(  1-C ,  4-C ) :   0.1006 B(  1-C , 32-H ) :   0.9573 B(  2-C ,  3-C ) :   1.2444
B(  2-C ,  6-C ) :   1.0207 B(  3-C ,  4-C ) :   1.5768 B(  3-C ,  5-H ) :   1.0006
B(  4-C , 20-C ) :   1.0037 B(  6-C ,  7-H ) :   0.9396 B(  6-C ,  8-H ) :   0.9384
B(  6-C ,  9-C ) :   1.0443 B(  9-C , 10-H ) :   0.9588 B(  9-C , 11-H ) :   0.9535
B(  9-C , 12-C ) :   1.0820 B( 12-C , 13-H ) :   0.9728 B( 12-C , 14-H ) :   0.9744
B( 12-C , 15-H ) :   0.9747 B( 16-S , 17-C ) :   1.1545 B( 16-S , 20-C ) :   1.1352
B( 17-C , 18-C ) :   1.6260 B( 17-C , 20-C ) :   0.1034 B( 17-C , 33-H ) :   0.9693
B( 18-C , 19-C ) :   1.1965 B( 18-C , 21-H ) :   0.9880 B( 19-C , 20-C ) :   1.6060
B( 19-C , 22-C ) :   1.0646 B( 22-C , 23-H ) :   0.9328 B( 22-C , 24-H ) :   0.9170
B( 22-C , 25-C ) :   1.0524 B( 25-C , 26-H ) :   0.9484 B( 25-C , 27-H ) :   0.9521
B( 25-C , 28-C ) :   1.0818 B( 28-C , 29-H ) :   0.9756 B( 28-C , 30-H ) :   0.9726
B( 28-C , 31-H ) :   0.9741

Dispersion correction           -0.013612894
FINAL SINGLE POINT ENERGY     -1339.872240223352

DIPOLE MOMENT
-------------
                                X             Y             Z
Electronic contribution:     -1.27515      -9.24978      21.79484
Nuclear contribution   :      1.42964       9.83612     -22.24247
                        -----------------------------------------
Total Dipole Moment    :      0.15448       0.58633      -0.44763
                        -----------------------------------------
Magnitude (a.u.)       :      0.75368
Magnitude (Debye)      :      1.91569

Rotational constants in cm-1:     0.018694     0.007247     0.006295
Rotational constants in MHz :   560.424750   217.268194   188.732220

                             ****ORCA TERMINATED NORMALLY****
TOTAL RUN TIME: 0 days 0 hours 0 minutes 20 seconds 779 msec
