                         Program Version 4.2.1 -  RELEASE  -
|  1> ! wB97X-D3 SP def2-SVP
|  2> %pal
|  3> nprocs 24
|  4> end
|  5>
|  6> * xyz 0 1
|  7> S 	 -104.198 	 -3.49624 	 -106.209
|  8> C 	 -104.789 	 -2.74394 	 -104.734
|  9> C 	 -103.836 	 -1.89487 	 -104.211
| 10> C 	 -102.801 	 -1.67569 	 -105.18
| 11> C 	 -103.053 	 -2.22358 	 -106.446
| 12> H 	 -101.94 	 -1.05791 	 -105.058
| 13> C 	 -103.833 	 -1.31659 	 -102.821
| 14> H 	 -102.835 	 -1.39836 	 -102.464
| 15> H 	 -104.403 	 -1.88703 	 -102.112
| 16> C 	 -104.261 	 0.137988 	 -102.775
| 17> H 	 -103.836 	 0.602861 	 -103.649
| 18> H 	 -105.35 	 0.0818652 	 -102.804
| 19> C 	 -103.84 	 0.877695 	 -101.549
| 20> H 	 -104.139 	 0.374082 	 -100.637
| 21> H 	 -102.76 	 1.00885 	 -101.496
| 22> H 	 -104.242 	 1.84572 	 -101.699
| 23> S 	 -102.153 	 -3.31118 	 -108.758
| 24> C 	 -101.392 	 -2.42458 	 -109.973
| 25> C 	 -101.165 	 -1.16579 	 -109.578
| 26> C 	 -101.782 	 -0.858177 	 -108.304
| 27> C 	 -102.354 	 -1.98612 	 -107.68
| 28> H 	 -100.771 	 -0.495962 	 -110.351
| 29> C 	 -101.834 	 0.568439 	 -107.744
| 30> H 	 -101.112 	 1.09638 	 -108.266
| 31> H 	 -101.601 	 0.534985 	 -106.661
| 32> C 	 -103.222 	 1.24973 	 -107.868
| 33> H 	 -103.998 	 0.592712 	 -107.41
| 34> H 	 -103.431 	 1.4535 	 -108.923
| 35> C 	 -103.308 	 2.54969 	 -107.09
| 36> H 	 -104.279 	 2.98582 	 -107.158
| 37> H 	 -102.62 	 3.31433 	 -107.323
| 38> H 	 -103.068 	 2.53002 	 -105.985
| 39> H 	 -105.622 	 -3.20845 	 -104.242
| 40> H 	 -101.119 	 -2.73396 	 -110.986
| 41> *
| 42>
| 43>                          ****END OF INPUT****

CARTESIAN COORDINATES (ANGSTROEM)
---------------------------------
  S    -104.198000   -3.496240  -106.209000
  C    -104.789000   -2.743940  -104.734000
  C    -103.836000   -1.894870  -104.211000
  C    -102.801000   -1.675690  -105.180000
  C    -103.053000   -2.223580  -106.446000
  H    -101.940000   -1.057910  -105.058000
  C    -103.833000   -1.316590  -102.821000
  H    -102.835000   -1.398360  -102.464000
  H    -104.403000   -1.887030  -102.112000
  C    -104.261000    0.137988  -102.775000
  H    -103.836000    0.602861  -103.649000
  H    -105.350000    0.081865  -102.804000
  C    -103.840000    0.877695  -101.549000
  H    -104.139000    0.374082  -100.637000
  H    -102.760000    1.008850  -101.496000
  H    -104.242000    1.845720  -101.699000
  S    -102.153000   -3.311180  -108.758000
  C    -101.392000   -2.424580  -109.973000
  C    -101.165000   -1.165790  -109.578000
  C    -101.782000   -0.858177  -108.304000
  C    -102.354000   -1.986120  -107.680000
  H    -100.771000   -0.495962  -110.351000
  C    -101.834000    0.568439  -107.744000
  H    -101.112000    1.096380  -108.266000
  H    -101.601000    0.534985  -106.661000
  C    -103.222000    1.249730  -107.868000
  H    -103.998000    0.592712  -107.410000
  H    -103.431000    1.453500  -108.923000
  C    -103.308000    2.549690  -107.090000
  H    -104.279000    2.985820  -107.158000
  H    -102.620000    3.314330  -107.323000
  H    -103.068000    2.530020  -105.985000
  H    -105.622000   -3.208450  -104.242000
  H    -101.119000   -2.733960  -110.986000

 Total Charge           Charge          ....    0
 Multiplicity           Mult            ....    1
 Number of Electrons    NEL             ....  134
 Basis Dimension        Dim             ....  322

ORBITAL ENERGIES
----------------

  NO   OCC          E(Eh)            E(eV)
   0   2.0000     -88.961529     -2420.7663
   1   2.0000     -88.960567     -2420.7401
   2   2.0000     -10.331368      -281.1308
   3   2.0000     -10.326515      -280.9987
   4   2.0000     -10.312331      -280.6128
   5   2.0000     -10.310178      -280.5542
   6   2.0000     -10.308284      -280.5027
   7   2.0000     -10.303811      -280.3809
   8   2.0000     -10.294618      -280.1308
   9   2.0000     -10.290809      -280.0271
  10   2.0000     -10.287818      -279.9458
  11   2.0000     -10.287744      -279.9438
  12   2.0000     -10.284295      -279.8499
  13   2.0000     -10.279698      -279.7248
  14   2.0000     -10.272760      -279.5360
  15   2.0000     -10.271797      -279.5098
  16   2.0000      -8.078301      -219.8217
  17   2.0000      -8.076151      -219.7632
  18   2.0000      -6.036723      -164.2676
  19   2.0000      -6.034606      -164.2100
  20   2.0000      -6.032371      -164.1492
  21   2.0000      -6.030943      -164.1103
  22   2.0000      -6.029180      -164.0623
  23   2.0000      -6.026503      -163.9895
  24   2.0000      -1.015910       -27.6443
  25   2.0000      -0.992188       -26.9988
  26   2.0000      -0.922000       -25.0889
  27   2.0000      -0.907094       -24.6833
  28   2.0000      -0.878900       -23.9161
  29   2.0000      -0.851824       -23.1793
  30   2.0000      -0.846498       -23.0344
  31   2.0000      -0.819377       -22.2964
  32   2.0000      -0.786702       -21.4073
  33   2.0000      -0.774403       -21.0726
  34   2.0000      -0.710828       -19.3426
  35   2.0000      -0.698185       -18.9986
  36   2.0000      -0.693403       -18.8684
  37   2.0000      -0.663272       -18.0485
  38   2.0000      -0.641075       -17.4445
  39   2.0000      -0.626699       -17.0534
  40   2.0000      -0.592843       -16.1321
  41   2.0000      -0.574912       -15.6442
  42   2.0000      -0.570402       -15.5214
  43   2.0000      -0.564388       -15.3578
  44   2.0000      -0.536787       -14.6067
  45   2.0000      -0.526002       -14.3132
  46   2.0000      -0.520792       -14.1715
  47   2.0000      -0.512057       -13.9338
  48   2.0000      -0.507367       -13.8062
  49   2.0000      -0.506047       -13.7702
  50   2.0000      -0.498929       -13.5765
  51   2.0000      -0.488224       -13.2853
  52   2.0000      -0.474869       -12.9219
  53   2.0000      -0.464302       -12.6343
  54   2.0000      -0.460994       -12.5443
  55   2.0000      -0.448016       -12.1911
  56   2.0000      -0.438982       -11.9453
  57   2.0000      -0.435645       -11.8545
  58   2.0000      -0.431821       -11.7505
  59   2.0000      -0.425936       -11.5903
  60   2.0000      -0.423764       -11.5312
  61   2.0000      -0.419517       -11.4156
  62   2.0000      -0.407779       -11.0962
  63   2.0000      -0.359325        -9.7777
  64   2.0000      -0.330515        -8.9938
  65   2.0000      -0.321538        -8.7495
  66   2.0000      -0.283418        -7.7122
  67   0.0000       0.015249         0.4149
  68   0.0000       0.079512         2.1636
  69   0.0000       0.102681         2.7941
  70   0.0000       0.122334         3.3289
  71   0.0000       0.135011         3.6738

MULLIKEN ATOMIC CHARGES
-----------------------
   0 S :    0.092422
   1 C :   -0.116782
   2 C :   -0.072885
   3 C :    0.012734
   4 C :   -0.130630
   5 H :    0.004430
   6 C :    0.099042
   7 H :    0.007680
   8 H :    0.010460
   9 C :   -0.084911
  10 H :    0.026796
  11 H :    0.028699
  12 C :   -0.007383
  13 H :    0.030006
  14 H :    0.022426
  15 H :    0.029280
  16 S :    0.099540
  17 C :   -0.078828
  18 C :   -0.048896
  19 C :   -0.077302
  20 C :   -0.127875
  21 H :    0.025798
  22 C :    0.101088
  23 H :   -0.001063
  24 H :    0.017128
  25 C :   -0.059386
  26 H :    0.050615
  27 H :    0.032807
  28 C :   -0.046468
  29 H :    0.029894
  30 H :    0.008178
  31 H :    0.021410
  32 H :    0.044239
  33 H :    0.057737
Sum of atomic charges:    0.0000000

LOEWDIN ATOMIC CHARGES
----------------------
   0 S :    0.397815
   1 C :   -0.184930
   2 C :   -0.056735
   3 C :   -0.060700
   4 C :   -0.193473
   5 H :    0.022255
   6 C :   -0.028987
   7 H :    0.026208
   8 H :    0.024950
   9 C :   -0.037348
  10 H :    0.022233
  11 H :    0.026230
  12 C :   -0.058791
  13 H :    0.024601
  14 H :    0.023748
  15 H :    0.026288
  16 S :    0.438033
  17 C :   -0.203967
  18 C :   -0.086600
  19 C :   -0.051614
  20 C :   -0.209331
  21 H :    0.036885
  22 C :   -0.025557
  23 H :    0.017780
  24 H :    0.029621
  25 C :   -0.034647
  26 H :    0.035012
  27 H :    0.026814
  28 C :   -0.074853
  29 H :    0.024314
  30 H :    0.015858
  31 H :    0.028616
  32 H :    0.021784
  33 H :    0.038487

  Mayer bond orders larger than 0.100000
B(  0-S ,  1-C ) :   1.1345 B(  0-S ,  4-C ) :   1.1526 B(  1-C ,  2-C ) :   1.5911
B(  1-C ,  4-C ) :   0.1045 B(  1-C , 32-H ) :   0.9782 B(  2-C ,  3-C ) :   1.2340
B(  2-C ,  6-C ) :   1.0321 B(  3-C ,  4-C ) :   1.5312 B(  3-C ,  5-H ) :   1.0026
B(  4-C , 20-C ) :   1.1015 B(  6-C ,  7-H ) :   0.9349 B(  6-C ,  8-H ) :   0.9363
B(  6-C ,  9-C ) :   1.0619 B(  9-C , 10-H ) :   0.9579 B(  9-C , 11-H ) :   0.9517
B(  9-C , 12-C ) :   1.0972 B( 12-C , 13-H ) :   0.9713 B( 12-C , 14-H ) :   0.9715
B( 12-C , 15-H ) :   0.9700 B( 16-S , 17-C ) :   1.1743 B( 16-S , 20-C ) :   1.1411
B( 17-C , 18-C ) :   1.6181 B( 17-C , 33-H ) :   0.9606 B( 18-C , 19-C ) :   1.2555
B( 18-C , 21-H ) :   0.9850 B( 19-C , 20-C ) :   1.5570 B( 19-C , 22-C ) :   1.0512
B( 22-C , 23-H ) :   0.9246 B( 22-C , 24-H ) :   0.9379 B( 22-C , 25-C ) :   1.0694
B( 25-C , 26-H ) :   0.9568 B( 25-C , 27-H ) :   0.9519 B( 25-C , 28-C ) :   1.0834
B( 28-C , 29-H ) :   0.9735 B( 28-C , 30-H ) :   0.9700 B( 28-C , 31-H ) :   0.9693

Dispersion correction           -0.014347711
FINAL SINGLE POINT ENERGY     -1339.864153629516

DIPOLE MOMENT
-------------
                                X             Y             Z
Electronic contribution:      2.49165     -27.95533     -17.19670
Nuclear contribution   :     -2.38237      28.57612      17.43479
                        -----------------------------------------
Total Dipole Moment    :      0.10928       0.62079       0.23810
                        -----------------------------------------
Magnitude (a.u.)       :      0.67380
Magnitude (Debye)      :      1.71267

Rotational constants in cm-1:     0.018959     0.009314     0.006749
Rotational constants in MHz :   568.385357   279.224341   202.334806

                             ****ORCA TERMINATED NORMALLY****
TOTAL RUN TIME: 0 days 0 hours 0 minutes 22 seconds 215 msec
