                         Program Version 4.2.1 -  RELEASE  -
|  1> ! wB97X-D3 SP def2-SVP
|  2> %pal
|  3> nprocs 24
|  4> end
|  5>
|  6> * xyz 0 1
|  7> S 	 -146.169 	 30.4943 	 -14.0759
|  8> C 	 -145.74 	 29.7032 	 -15.6412
|  9> C 	 -146.804 	 29.3091 	 -16.3788
| 10> C 	 -148.027 	 29.6758 	 -15.6591
| 11> C 	 -147.885 	 30.345 	 -14.4862
| 12> H 	 -149.082 	 29.624 	 -15.9042
| 13> C 	 -146.735 	 28.4927 	 -17.6502
| 14> H 	 -145.784 	 28.8159 	 -18.1192
| 15> H 	 -147.388 	 28.8166 	 -18.4202
| 16> C 	 -147.028 	 27.0067 	 -17.4799
| 17> H 	 -146.296 	 26.6272 	 -16.7489
| 18> H 	 -148.053 	 26.8526 	 -17.0549
| 19> C 	 -146.838 	 26.1903 	 -18.7365
| 20> H 	 -147.514 	 26.5183 	 -19.5327
| 21> H 	 -145.796 	 26.0753 	 -18.9422
| 22> H 	 -147.114 	 25.1355 	 -18.6232
| 23> S 	 -150.392 	 31.4531 	 -14.2078
| 24> C 	 -151.294 	 31.5891 	 -12.6611
| 25> C 	 -150.535 	 30.8732 	 -11.7917
| 26> C 	 -149.28 	 30.3136 	 -12.238
| 27> C 	 -148.966 	 30.635 	 -13.5716
| 28> H 	 -150.947 	 30.8451 	 -10.7522
| 29> C 	 -148.382 	 29.4385 	 -11.4229
| 30> H 	 -148.674 	 29.5204 	 -10.3682
| 31> H 	 -147.385 	 29.9238 	 -11.4137
| 32> C 	 -148.27 	 27.9422 	 -11.9205
| 33> H 	 -147.453 	 27.494 	 -11.29
| 34> H 	 -147.923 	 27.7846 	 -12.9328
| 35> C 	 -149.576 	 27.1808 	 -11.626
| 36> H 	 -150.525 	 27.7404 	 -11.8614
| 37> H 	 -149.714 	 26.8782 	 -10.6044
| 38> H 	 -149.495 	 26.3297 	 -12.2356
| 39> H 	 -144.739 	 29.389 	 -16.0021
| 40> H 	 -152.058 	 32.2469 	 -12.31
| 41> *
| 42>
| 43>                          ****END OF INPUT****

CARTESIAN COORDINATES (ANGSTROEM)
---------------------------------
  S    -146.169000   30.494300  -14.075900
  C    -145.740000   29.703200  -15.641200
  C    -146.804000   29.309100  -16.378800
  C    -148.027000   29.675800  -15.659100
  C    -147.885000   30.345000  -14.486200
  H    -149.082000   29.624000  -15.904200
  C    -146.735000   28.492700  -17.650200
  H    -145.784000   28.815900  -18.119200
  H    -147.388000   28.816600  -18.420200
  C    -147.028000   27.006700  -17.479900
  H    -146.296000   26.627200  -16.748900
  H    -148.053000   26.852600  -17.054900
  C    -146.838000   26.190300  -18.736500
  H    -147.514000   26.518300  -19.532700
  H    -145.796000   26.075300  -18.942200
  H    -147.114000   25.135500  -18.623200
  S    -150.392000   31.453100  -14.207800
  C    -151.294000   31.589100  -12.661100
  C    -150.535000   30.873200  -11.791700
  C    -149.280000   30.313600  -12.238000
  C    -148.966000   30.635000  -13.571600
  H    -150.947000   30.845100  -10.752200
  C    -148.382000   29.438500  -11.422900
  H    -148.674000   29.520400  -10.368200
  H    -147.385000   29.923800  -11.413700
  C    -148.270000   27.942200  -11.920500
  H    -147.453000   27.494000  -11.290000
  H    -147.923000   27.784600  -12.932800
  C    -149.576000   27.180800  -11.626000
  H    -150.525000   27.740400  -11.861400
  H    -149.714000   26.878200  -10.604400
  H    -149.495000   26.329700  -12.235600
  H    -144.739000   29.389000  -16.002100
  H    -152.058000   32.246900  -12.310000

 Total Charge           Charge          ....    0
 Multiplicity           Mult            ....    1
 Number of Electrons    NEL             ....  134
 Basis Dimension        Dim             ....  322

ORBITAL ENERGIES
----------------

  NO   OCC          E(Eh)            E(eV)
   0   2.0000     -88.970856     -2421.0201
   1   2.0000     -88.960904     -2420.7493
   2   2.0000     -10.332448      -281.1602
   3   2.0000     -10.331948      -281.1466
   4   2.0000     -10.321841      -280.8716
   5   2.0000     -10.318008      -280.7673
   6   2.0000     -10.308230      -280.5012
   7   2.0000     -10.305666      -280.4314
   8   2.0000     -10.297168      -280.2002
   9   2.0000     -10.296394      -280.1791
  10   2.0000     -10.294841      -280.1369
  11   2.0000     -10.292666      -280.0777
  12   2.0000     -10.290895      -280.0295
  13   2.0000     -10.288843      -279.9736
  14   2.0000     -10.278886      -279.7027
  15   2.0000     -10.269285      -279.4414
  16   2.0000      -8.084035      -219.9778
  17   2.0000      -8.074709      -219.7240
  18   2.0000      -6.042874      -164.4350
  19   2.0000      -6.038940      -164.3279
  20   2.0000      -6.034345      -164.2029
  21   2.0000      -6.033481      -164.1794
  22   2.0000      -6.029155      -164.0616
  23   2.0000      -6.025364      -163.9585
  24   2.0000      -1.005315       -27.3560
  25   2.0000      -0.981320       -26.7031
  26   2.0000      -0.918322       -24.9888
  27   2.0000      -0.899602       -24.4794
  28   2.0000      -0.878750       -23.9120
  29   2.0000      -0.849740       -23.1226
  30   2.0000      -0.839745       -22.8506
  31   2.0000      -0.819197       -22.2915
  32   2.0000      -0.787568       -21.4308
  33   2.0000      -0.768635       -20.9156
  34   2.0000      -0.715349       -19.4656
  35   2.0000      -0.700167       -19.0525
  36   2.0000      -0.690675       -18.7942
  37   2.0000      -0.664072       -18.0703
  38   2.0000      -0.636056       -17.3080
  39   2.0000      -0.613290       -16.6885
  40   2.0000      -0.586302       -15.9541
  41   2.0000      -0.580855       -15.8059
  42   2.0000      -0.567294       -15.4369
  43   2.0000      -0.547401       -14.8955
  44   2.0000      -0.543129       -14.7793
  45   2.0000      -0.525098       -14.2886
  46   2.0000      -0.519511       -14.1366
  47   2.0000      -0.516003       -14.0411
  48   2.0000      -0.509981       -13.8773
  49   2.0000      -0.500864       -13.6292
  50   2.0000      -0.485267       -13.2048
  51   2.0000      -0.479468       -13.0470
  52   2.0000      -0.471793       -12.8381
  53   2.0000      -0.467505       -12.7215
  54   2.0000      -0.455823       -12.4036
  55   2.0000      -0.448064       -12.1924
  56   2.0000      -0.439875       -11.9696
  57   2.0000      -0.430448       -11.7131
  58   2.0000      -0.428675       -11.6648
  59   2.0000      -0.422353       -11.4928
  60   2.0000      -0.418342       -11.3837
  61   2.0000      -0.414424       -11.2770
  62   2.0000      -0.400114       -10.8876
  63   2.0000      -0.354720        -9.6524
  64   2.0000      -0.334034        -9.0895
  65   2.0000      -0.324187        -8.8216
  66   2.0000      -0.294938        -8.0257
  67   0.0000       0.024220         0.6591
  68   0.0000       0.065249         1.7755
  69   0.0000       0.104751         2.8504
  70   0.0000       0.115078         3.1314
  71   0.0000       0.131418         3.5761

MULLIKEN ATOMIC CHARGES
-----------------------
   0 S :    0.101874
   1 C :   -0.121845
   2 C :   -0.061469
   3 C :    0.014451
   4 C :   -0.139832
   5 H :    0.013166
   6 C :    0.082383
   7 H :    0.018642
   8 H :    0.009789
   9 C :   -0.083294
  10 H :    0.026115
  11 H :    0.043675
  12 C :   -0.029312
  13 H :    0.035786
  14 H :    0.029502
  15 H :    0.025804
  16 S :    0.067493
  17 C :   -0.077596
  18 C :   -0.063862
  19 C :   -0.045348
  20 C :   -0.143211
  21 H :    0.032652
  22 C :    0.049145
  23 H :    0.014832
  24 H :    0.032307
  25 C :   -0.069542
  26 H :    0.032938
  27 H :    0.043939
  28 C :   -0.039267
  29 H :    0.042929
  30 H :    0.024341
  31 H :    0.021932
  32 H :    0.051672
  33 H :    0.059212
Sum of atomic charges:   -0.0000000

LOEWDIN ATOMIC CHARGES
----------------------
   0 S :    0.373140
   1 C :   -0.176733
   2 C :   -0.058646
   3 C :   -0.058598
   4 C :   -0.188352
   5 H :    0.027398
   6 C :   -0.036555
   7 H :    0.035162
   8 H :    0.026199
   9 C :   -0.041911
  10 H :    0.025237
  11 H :    0.031974
  12 C :   -0.068756
  13 H :    0.027355
  14 H :    0.025256
  15 H :    0.030273
  16 S :    0.382152
  17 C :   -0.180072
  18 C :   -0.080314
  19 C :   -0.067986
  20 C :   -0.181755
  21 H :    0.036395
  22 C :   -0.042694
  23 H :    0.029919
  24 H :    0.029144
  25 C :   -0.034358
  26 H :    0.031165
  27 H :    0.024766
  28 C :   -0.066606
  29 H :    0.032162
  30 H :    0.021213
  31 H :    0.019852
  32 H :    0.036583
  33 H :    0.037992

  Mayer bond orders larger than 0.100000
B(  0-S ,  1-C ) :   1.1091 B(  0-S ,  4-C ) :   1.0974 B(  1-C ,  2-C ) :   1.6914
B(  1-C , 32-H ) :   0.9532 B(  2-C ,  3-C ) :   1.1615 B(  2-C ,  6-C ) :   1.0324
B(  3-C ,  4-C ) :   1.6583 B(  3-C ,  5-H ) :   0.9839 B(  4-C , 20-C ) :   1.0394
B(  6-C ,  7-H ) :   0.9373 B(  6-C ,  8-H ) :   0.9303 B(  6-C ,  9-C ) :   1.0509
B(  9-C , 10-H ) :   0.9556 B(  9-C , 11-H ) :   0.9534 B(  9-C , 12-C ) :   1.0955
B( 12-C , 13-H ) :   0.9714 B( 12-C , 14-H ) :   0.9737 B( 12-C , 15-H ) :   0.9689
B( 16-S , 17-C ) :   1.1308 B( 16-S , 20-C ) :   1.1379 B( 17-C , 18-C ) :   1.6292
B( 17-C , 20-C ) :   0.1043 B( 17-C , 33-H ) :   0.9679 B( 18-C , 19-C ) :   1.2399
B( 18-C , 21-H ) :   0.9765 B( 19-C , 20-C ) :   1.5543 B( 19-C , 22-C ) :   1.0524
B( 22-C , 23-H ) :   0.9338 B( 22-C , 24-H ) :   0.9336 B( 22-C , 25-C ) :   1.0578
B( 25-C , 26-H ) :   0.9536 B( 25-C , 27-H ) :   0.9658 B( 25-C , 28-C ) :   1.0611
B( 28-C , 29-H ) :   0.9787 B( 28-C , 30-H ) :   0.9760 B( 28-C , 31-H ) :   0.9752

Dispersion correction           -0.014856360
FINAL SINGLE POINT ENERGY     -1339.856280640156

DIPOLE MOMENT
-------------
                                X             Y             Z
Electronic contribution:     -2.18348      23.59281       4.79232
Nuclear contribution   :      2.24850     -24.18429      -4.80735
                        -----------------------------------------
Total Dipole Moment    :      0.06502      -0.59147      -0.01504
                        -----------------------------------------
Magnitude (a.u.)       :      0.59522
Magnitude (Debye)      :      1.51294

Rotational constants in cm-1:     0.019808     0.007939     0.007526
Rotational constants in MHz :   593.827489   237.996054   225.616440

                             ****ORCA TERMINATED NORMALLY****
TOTAL RUN TIME: 0 days 0 hours 0 minutes 20 seconds 677 msec
