                         Program Version 4.2.1 -  RELEASE  -
|  1> ! wB97X-D3 SP def2-SVP
|  2> %pal
|  3> nprocs 24
|  4> end
|  5>
|  6> * xyz 0 1
|  7> S 	 -35.1314 	 -2.3512 	 -4.91519
|  8> C 	 -33.5158 	 -1.96154 	 -4.38059
|  9> C 	 -32.626 	 -1.87274 	 -5.50595
| 10> C 	 -33.322 	 -2.10786 	 -6.72533
| 11> C 	 -34.6299 	 -2.50651 	 -6.60195
| 12> H 	 -32.9167 	 -2.09418 	 -7.69747
| 13> C 	 -31.1015 	 -1.6094 	 -5.42404
| 14> H 	 -30.8238 	 -2.38016 	 -6.17231
| 15> H 	 -30.532 	 -1.93263 	 -4.54487
| 16> C 	 -30.5327 	 -0.25084 	 -5.89768
| 17> H 	 -31.1905 	 0.0923469 	 -6.78306
| 18> H 	 -30.5533 	 0.522754 	 -5.11215
| 19> C 	 -29.0699 	 -0.40312 	 -6.39061
| 20> H 	 -28.6153 	 0.559475 	 -6.49797
| 21> H 	 -28.5342 	 -0.868235 	 -5.57393
| 22> H 	 -28.9258 	 -0.951382 	 -7.30597
| 23> S 	 -37.1931 	 -2.33066 	 -7.61748
| 24> C 	 -37.5695 	 -3.33095 	 -9.09317
| 25> C 	 -36.5411 	 -4.08907 	 -9.46366
| 26> C 	 -35.3688 	 -3.90792 	 -8.63887
| 27> C 	 -35.5609 	 -2.94693 	 -7.6282
| 28> H 	 -36.5503 	 -4.77118 	 -10.2573
| 29> C 	 -34.0154 	 -4.48583 	 -9.00204
| 30> H 	 -34.1656 	 -5.50565 	 -9.35737
| 31> H 	 -33.408 	 -4.59607 	 -8.12749
| 32> C 	 -33.2214 	 -3.80168 	 -10.0368
| 33> H 	 -33.1517 	 -2.73331 	 -9.80599
| 34> H 	 -33.835 	 -3.82629 	 -10.9599
| 35> C 	 -31.9109 	 -4.48872 	 -10.3427
| 36> H 	 -31.4703 	 -3.94041 	 -11.1332
| 37> H 	 -32.0776 	 -5.47252 	 -10.8023
| 38> H 	 -31.16 	 -4.5502 	 -9.55317
| 39> H 	 -33.1771 	 -1.72486 	 -3.38954
| 40> H 	 -38.4122 	 -3.23409 	 -9.71937
| 41> *
| 42>
| 43>                          ****END OF INPUT****

CARTESIAN COORDINATES (ANGSTROEM)
---------------------------------
  S    -35.131400   -2.351200   -4.915190
  C    -33.515800   -1.961540   -4.380590
  C    -32.626000   -1.872740   -5.505950
  C    -33.322000   -2.107860   -6.725330
  C    -34.629900   -2.506510   -6.601950
  H    -32.916700   -2.094180   -7.697470
  C    -31.101500   -1.609400   -5.424040
  H    -30.823800   -2.380160   -6.172310
  H    -30.532000   -1.932630   -4.544870
  C    -30.532700   -0.250840   -5.897680
  H    -31.190500    0.092347   -6.783060
  H    -30.553300    0.522754   -5.112150
  C    -29.069900   -0.403120   -6.390610
  H    -28.615300    0.559475   -6.497970
  H    -28.534200   -0.868235   -5.573930
  H    -28.925800   -0.951382   -7.305970
  S    -37.193100   -2.330660   -7.617480
  C    -37.569500   -3.330950   -9.093170
  C    -36.541100   -4.089070   -9.463660
  C    -35.368800   -3.907920   -8.638870
  C    -35.560900   -2.946930   -7.628200
  H    -36.550300   -4.771180  -10.257300
  C    -34.015400   -4.485830   -9.002040
  H    -34.165600   -5.505650   -9.357370
  H    -33.408000   -4.596070   -8.127490
  C    -33.221400   -3.801680  -10.036800
  H    -33.151700   -2.733310   -9.805990
  H    -33.835000   -3.826290  -10.959900
  C    -31.910900   -4.488720  -10.342700
  H    -31.470300   -3.940410  -11.133200
  H    -32.077600   -5.472520  -10.802300
  H    -31.160000   -4.550200   -9.553170
  H    -33.177100   -1.724860   -3.389540
  H    -38.412200   -3.234090   -9.719370

 Total Charge           Charge          ....    0
 Multiplicity           Mult            ....    1
 Number of Electrons    NEL             ....  134
 Basis Dimension        Dim             ....  322

ORBITAL ENERGIES
----------------

  NO   OCC          E(Eh)            E(eV)
   0   2.0000     -88.967216     -2420.9210
   1   2.0000     -88.967174     -2420.9199
   2   2.0000     -10.330056      -281.0951
   3   2.0000     -10.329775      -281.0875
   4   2.0000     -10.317831      -280.7625
   5   2.0000     -10.316720      -280.7322
   6   2.0000     -10.310314      -280.5579
   7   2.0000     -10.304586      -280.4020
   8   2.0000     -10.298750      -280.2432
   9   2.0000     -10.297560      -280.2109
  10   2.0000     -10.291874      -280.0561
  11   2.0000     -10.291056      -280.0339
  12   2.0000     -10.285521      -279.8832
  13   2.0000     -10.282596      -279.8037
  14   2.0000     -10.278476      -279.6915
  15   2.0000     -10.276607      -279.6407
  16   2.0000      -8.081447      -219.9074
  17   2.0000      -8.081081      -219.8974
  18   2.0000      -6.039980      -164.3562
  19   2.0000      -6.039806      -164.3515
  20   2.0000      -6.035948      -164.2465
  21   2.0000      -6.035821      -164.2430
  22   2.0000      -6.032287      -164.1469
  23   2.0000      -6.031540      -164.1265
  24   2.0000      -1.003933       -27.3184
  25   2.0000      -0.979735       -26.6600
  26   2.0000      -0.920313       -25.0430
  27   2.0000      -0.906013       -24.6539
  28   2.0000      -0.873492       -23.7689
  29   2.0000      -0.852915       -23.2090
  30   2.0000      -0.846286       -23.0286
  31   2.0000      -0.820335       -22.3224
  32   2.0000      -0.783559       -21.3217
  33   2.0000      -0.770852       -20.9760
  34   2.0000      -0.707310       -19.2469
  35   2.0000      -0.697662       -18.9843
  36   2.0000      -0.696083       -18.9414
  37   2.0000      -0.666986       -18.1496
  38   2.0000      -0.645421       -17.5628
  39   2.0000      -0.622904       -16.9501
  40   2.0000      -0.602472       -16.3941
  41   2.0000      -0.574341       -15.6286
  42   2.0000      -0.565445       -15.3865
  43   2.0000      -0.559015       -15.2116
  44   2.0000      -0.527390       -14.3510
  45   2.0000      -0.526485       -14.3264
  46   2.0000      -0.517982       -14.0950
  47   2.0000      -0.511482       -13.9181
  48   2.0000      -0.506349       -13.7784
  49   2.0000      -0.501269       -13.6402
  50   2.0000      -0.496176       -13.5016
  51   2.0000      -0.481733       -13.1086
  52   2.0000      -0.471287       -12.8244
  53   2.0000      -0.466701       -12.6996
  54   2.0000      -0.462184       -12.5767
  55   2.0000      -0.455930       -12.4065
  56   2.0000      -0.444602       -12.0982
  57   2.0000      -0.438481       -11.9317
  58   2.0000      -0.435875       -11.8608
  59   2.0000      -0.423778       -11.5316
  60   2.0000      -0.422124       -11.4866
  61   2.0000      -0.414845       -11.2885
  62   2.0000      -0.408128       -11.1057
  63   2.0000      -0.355471        -9.6729
  64   2.0000      -0.334119        -9.0918
  65   2.0000      -0.326713        -8.8903
  66   2.0000      -0.287929        -7.8349
  67   0.0000       0.027014         0.7351
  68   0.0000       0.068999         1.8776
  69   0.0000       0.101041         2.7495
  70   0.0000       0.117306         3.1921
  71   0.0000       0.128878         3.5070

MULLIKEN ATOMIC CHARGES
-----------------------
   0 S :    0.112459
   1 C :   -0.100591
   2 C :   -0.084386
   3 C :    0.044985
   4 C :   -0.135896
   5 H :   -0.025651
   6 C :    0.029550
   7 H :    0.028938
   8 H :    0.029494
   9 C :   -0.090821
  10 H :    0.040924
  11 H :    0.040080
  12 C :   -0.040480
  13 H :    0.027428
  14 H :    0.022851
  15 H :    0.037707
  16 S :    0.095165
  17 C :   -0.058706
  18 C :    0.007586
  19 C :   -0.038947
  20 C :   -0.153999
  21 H :   -0.000662
  22 C :    0.062788
  23 H :    0.006414
  24 H :    0.018665
  25 C :   -0.076908
  26 H :    0.029154
  27 H :    0.015961
  28 C :   -0.012771
  29 H :    0.020145
  30 H :    0.029605
  31 H :    0.035754
  32 H :    0.042537
  33 H :    0.041629
Sum of atomic charges:   -0.0000000

LOEWDIN ATOMIC CHARGES
----------------------
   0 S :    0.403933
   1 C :   -0.199881
   2 C :   -0.058984
   3 C :   -0.062628
   4 C :   -0.184912
   5 H :    0.021849
   6 C :   -0.043756
   7 H :    0.037463
   8 H :    0.030283
   9 C :   -0.043058
  10 H :    0.031123
  11 H :    0.025527
  12 C :   -0.062902
  13 H :    0.024084
  14 H :    0.023259
  15 H :    0.023617
  16 S :    0.374906
  17 C :   -0.151527
  18 C :   -0.056607
  19 C :   -0.048951
  20 C :   -0.196591
  21 H :    0.025637
  22 C :   -0.039488
  23 H :    0.028341
  24 H :    0.025274
  25 C :   -0.044349
  26 H :    0.019877
  27 H :    0.027195
  28 C :   -0.060528
  29 H :    0.024871
  30 H :    0.030174
  31 H :    0.025287
  32 H :    0.026919
  33 H :    0.024544

  Mayer bond orders larger than 0.100000
B(  0-S ,  1-C ) :   1.1503 B(  0-S ,  4-C ) :   1.1433 B(  1-C ,  2-C ) :   1.5796
B(  1-C ,  4-C ) :   0.1043 B(  1-C , 32-H ) :   0.9729 B(  2-C ,  3-C ) :   1.2549
B(  2-C ,  6-C ) :   1.0001 B(  3-C ,  4-C ) :   1.5658 B(  3-C ,  5-H ) :   0.9977
B(  4-C , 20-C ) :   1.0544 B(  6-C ,  7-H ) :   0.9462 B(  6-C ,  8-H ) :   0.9493
B(  6-C ,  9-C ) :   1.0508 B(  9-C , 10-H ) :   0.9585 B(  9-C , 11-H ) :   0.9581
B(  9-C , 12-C ) :   1.0730 B( 12-C , 13-H ) :   0.9739 B( 12-C , 14-H ) :   0.9747
B( 12-C , 15-H ) :   0.9774 B( 16-S , 17-C ) :   1.1112 B( 16-S , 20-C ) :   1.1300
B( 17-C , 18-C ) :   1.6554 B( 17-C , 33-H ) :   0.9678 B( 18-C , 19-C ) :   1.2157
B( 18-C , 21-H ) :   0.9949 B( 19-C , 20-C ) :   1.5972 B( 19-C , 22-C ) :   1.0650
B( 22-C , 23-H ) :   0.9217 B( 22-C , 24-H ) :   0.9255 B( 22-C , 25-C ) :   1.0755
B( 25-C , 26-H ) :   0.9462 B( 25-C , 27-H ) :   0.9429 B( 25-C , 28-C ) :   1.0879
B( 28-C , 29-H ) :   0.9686 B( 28-C , 30-H ) :   0.9687 B( 28-C , 31-H ) :   0.9745

Dispersion correction           -0.014122151
FINAL SINGLE POINT ENERGY     -1339.874811256392

DIPOLE MOMENT
-------------
                                X             Y             Z
Electronic contribution:    -31.38306       0.42581      11.53705
Nuclear contribution   :     32.07048      -0.55908     -12.06488
                        -----------------------------------------
Total Dipole Moment    :      0.68742      -0.13327      -0.52783
                        -----------------------------------------
Magnitude (a.u.)       :      0.87688
Magnitude (Debye)      :      2.22885

Rotational constants in cm-1:     0.017431     0.009116     0.006496
Rotational constants in MHz :   522.576746   273.304257   194.731255

                             ****ORCA TERMINATED NORMALLY****
TOTAL RUN TIME: 0 days 0 hours 0 minutes 21 seconds 717 msec
