                         Program Version 4.2.1 -  RELEASE  -
|  1> ! wB97X-D3 SP def2-SVP
|  2> %pal
|  3> nprocs 24
|  4> end
|  5>
|  6> * xyz 0 1
|  7> S 	 -38.8153 	 -12.107 	 12.6254
|  8> C 	 -40.4914 	 -12.2352 	 13.1865
|  9> C 	 -40.4092 	 -12.7245 	 14.487
| 10> C 	 -39.1707 	 -13.4203 	 14.7333
| 11> C 	 -38.1222 	 -13.0715 	 13.8984
| 12> H 	 -39.0513 	 -14.1101 	 15.5783
| 13> C 	 -41.5666 	 -12.821 	 15.4633
| 14> H 	 -41.7095 	 -13.7947 	 15.8724
| 15> H 	 -42.509 	 -12.7148 	 14.8531
| 16> C 	 -41.5219 	 -11.869 	 16.6819
| 17> H 	 -42.4216 	 -11.9933 	 17.295
| 18> H 	 -40.625 	 -12.2967 	 17.2941
| 19> C 	 -41.3853 	 -10.4253 	 16.3119
| 20> H 	 -42.3605 	 -10.0143 	 16.0438
| 21> H 	 -41.0553 	 -9.78038 	 17.1309
| 22> H 	 -40.7603 	 -10.166 	 15.4875
| 23> S 	 -36.4801 	 -15.2177 	 14.5598
| 24> C 	 -34.7756 	 -15.133 	 14.3042
| 25> C 	 -34.5112 	 -14.0528 	 13.5487
| 26> C 	 -35.5741 	 -13.1045 	 13.3952
| 27> C 	 -36.7536 	 -13.5948 	 13.8824
| 28> H 	 -33.4997 	 -13.8475 	 13.2526
| 29> C 	 -35.3751 	 -11.7914 	 12.6649
| 30> H 	 -36.0956 	 -11.1529 	 13.2281
| 31> H 	 -35.8345 	 -11.8439 	 11.6642
| 32> C 	 -33.9354 	 -11.2013 	 12.6825
| 33> H 	 -33.2752 	 -11.7768 	 12.052
| 34> H 	 -33.5245 	 -11.3251 	 13.7061
| 35> C 	 -33.9251 	 -9.78367 	 12.1987
| 36> H 	 -34.0658 	 -9.58369 	 11.169
| 37> H 	 -32.8732 	 -9.48902 	 12.3192
| 38> H 	 -34.5701 	 -9.21354 	 12.8112
| 39> H 	 -41.292 	 -11.6272 	 12.7983
| 40> H 	 -33.9931 	 -15.9078 	 14.2714
| 41> *
| 42>
| 43>                          ****END OF INPUT****

CARTESIAN COORDINATES (ANGSTROEM)
---------------------------------
  S    -38.815300  -12.107000   12.625400
  C    -40.491400  -12.235200   13.186500
  C    -40.409200  -12.724500   14.487000
  C    -39.170700  -13.420300   14.733300
  C    -38.122200  -13.071500   13.898400
  H    -39.051300  -14.110100   15.578300
  C    -41.566600  -12.821000   15.463300
  H    -41.709500  -13.794700   15.872400
  H    -42.509000  -12.714800   14.853100
  C    -41.521900  -11.869000   16.681900
  H    -42.421600  -11.993300   17.295000
  H    -40.625000  -12.296700   17.294100
  C    -41.385300  -10.425300   16.311900
  H    -42.360500  -10.014300   16.043800
  H    -41.055300   -9.780380   17.130900
  H    -40.760300  -10.166000   15.487500
  S    -36.480100  -15.217700   14.559800
  C    -34.775600  -15.133000   14.304200
  C    -34.511200  -14.052800   13.548700
  C    -35.574100  -13.104500   13.395200
  C    -36.753600  -13.594800   13.882400
  H    -33.499700  -13.847500   13.252600
  C    -35.375100  -11.791400   12.664900
  H    -36.095600  -11.152900   13.228100
  H    -35.834500  -11.843900   11.664200
  C    -33.935400  -11.201300   12.682500
  H    -33.275200  -11.776800   12.052000
  H    -33.524500  -11.325100   13.706100
  C    -33.925100   -9.783670   12.198700
  H    -34.065800   -9.583690   11.169000
  H    -32.873200   -9.489020   12.319200
  H    -34.570100   -9.213540   12.811200
  H    -41.292000  -11.627200   12.798300
  H    -33.993100  -15.907800   14.271400

 Total Charge           Charge          ....    0
 Multiplicity           Mult            ....    1
 Number of Electrons    NEL             ....  134
 Basis Dimension        Dim             ....  322

ORBITAL ENERGIES
----------------

  NO   OCC          E(Eh)            E(eV)
   0   2.0000     -88.965521     -2420.8749
   1   2.0000     -88.964386     -2420.8440
   2   2.0000     -10.335376      -281.2399
   3   2.0000     -10.329708      -281.0856
   4   2.0000     -10.319515      -280.8083
   5   2.0000     -10.312755      -280.6243
   6   2.0000     -10.307285      -280.4755
   7   2.0000     -10.300146      -280.2812
   8   2.0000     -10.296443      -280.1805
   9   2.0000     -10.295071      -280.1431
  10   2.0000     -10.294453      -280.1263
  11   2.0000     -10.292548      -280.0745
  12   2.0000     -10.289750      -279.9983
  13   2.0000     -10.285383      -279.8795
  14   2.0000     -10.270933      -279.4863
  15   2.0000     -10.270320      -279.4696
  16   2.0000      -8.079698      -219.8598
  17   2.0000      -8.078951      -219.8394
  18   2.0000      -6.038449      -164.3146
  19   2.0000      -6.037688      -164.2938
  20   2.0000      -6.034153      -164.1976
  21   2.0000      -6.033557      -164.1814
  22   2.0000      -6.030338      -164.0938
  23   2.0000      -6.029383      -164.0678
  24   2.0000      -1.009764       -27.4771
  25   2.0000      -0.988787       -26.9063
  26   2.0000      -0.912363       -24.8267
  27   2.0000      -0.910472       -24.7752
  28   2.0000      -0.874225       -23.7889
  29   2.0000      -0.855551       -23.2807
  30   2.0000      -0.842706       -22.9312
  31   2.0000      -0.816854       -22.2277
  32   2.0000      -0.784844       -21.3567
  33   2.0000      -0.775666       -21.1069
  34   2.0000      -0.710324       -19.3289
  35   2.0000      -0.706411       -19.2224
  36   2.0000      -0.692172       -18.8350
  37   2.0000      -0.658071       -17.9070
  38   2.0000      -0.631824       -17.1928
  39   2.0000      -0.615163       -16.7394
  40   2.0000      -0.594714       -16.1830
  41   2.0000      -0.573676       -15.6105
  42   2.0000      -0.572619       -15.5818
  43   2.0000      -0.550592       -14.9824
  44   2.0000      -0.545808       -14.8522
  45   2.0000      -0.528974       -14.3941
  46   2.0000      -0.520257       -14.1569
  47   2.0000      -0.515499       -14.0275
  48   2.0000      -0.509981       -13.8773
  49   2.0000      -0.497654       -13.5419
  50   2.0000      -0.488993       -13.3062
  51   2.0000      -0.480750       -13.0819
  52   2.0000      -0.476369       -12.9627
  53   2.0000      -0.464007       -12.6263
  54   2.0000      -0.458202       -12.4683
  55   2.0000      -0.450646       -12.2627
  56   2.0000      -0.445698       -12.1281
  57   2.0000      -0.434596       -11.8259
  58   2.0000      -0.427476       -11.6322
  59   2.0000      -0.424791       -11.5592
  60   2.0000      -0.414663       -11.2836
  61   2.0000      -0.409076       -11.1315
  62   2.0000      -0.406899       -11.0723
  63   2.0000      -0.362072        -9.8525
  64   2.0000      -0.328568        -8.9408
  65   2.0000      -0.325981        -8.8704
  66   2.0000      -0.291453        -7.9308
  67   0.0000       0.021140         0.5752
  68   0.0000       0.075911         2.0656
  69   0.0000       0.102422         2.7870
  70   0.0000       0.124441         3.3862
  71   0.0000       0.128349         3.4926

MULLIKEN ATOMIC CHARGES
-----------------------
   0 S :    0.075845
   1 C :   -0.093057
   2 C :   -0.105903
   3 C :   -0.026783
   4 C :   -0.105401
   5 H :    0.026414
   6 C :    0.040032
   7 H :    0.021871
   8 H :    0.019764
   9 C :   -0.080858
  10 H :    0.038721
  11 H :    0.041172
  12 C :   -0.039053
  13 H :    0.017324
  14 H :    0.032290
  15 H :    0.032877
  16 S :    0.092314
  17 C :   -0.058886
  18 C :   -0.059655
  19 C :   -0.067988
  20 C :   -0.110539
  21 H :    0.012000
  22 C :    0.033511
  23 H :    0.027915
  24 H :    0.051972
  25 C :   -0.099208
  26 H :    0.028886
  27 H :    0.040369
  28 C :    0.009521
  29 H :    0.027314
  30 H :    0.022793
  31 H :    0.025995
  32 H :    0.061857
  33 H :    0.066575
Sum of atomic charges:   -0.0000000

LOEWDIN ATOMIC CHARGES
----------------------
   0 S :    0.402489
   1 C :   -0.189803
   2 C :   -0.057950
   3 C :   -0.073449
   4 C :   -0.190314
   5 H :    0.029526
   6 C :   -0.038629
   7 H :    0.027115
   8 H :    0.030581
   9 C :   -0.043964
  10 H :    0.028639
  11 H :    0.032606
  12 C :   -0.072854
  13 H :    0.025904
  14 H :    0.029521
  15 H :    0.022290
  16 S :    0.402176
  17 C :   -0.200541
  18 C :   -0.074071
  19 C :   -0.061252
  20 C :   -0.182601
  21 H :    0.025188
  22 C :   -0.042972
  23 H :    0.031081
  24 H :    0.034884
  25 C :   -0.040217
  26 H :    0.020741
  27 H :    0.031124
  28 C :   -0.055836
  29 H :    0.022983
  30 H :    0.032151
  31 H :    0.020967
  32 H :    0.029607
  33 H :    0.044879

  Mayer bond orders larger than 0.100000
B(  0-S ,  1-C ) :   1.1279 B(  0-S ,  4-C ) :   1.1416 B(  1-C ,  2-C ) :   1.5965
B(  1-C ,  4-C ) :   0.1001 B(  1-C , 32-H ) :   0.9645 B(  2-C ,  3-C ) :   1.2418
B(  2-C ,  6-C ) :   1.0315 B(  3-C ,  4-C ) :   1.5583 B(  3-C ,  5-H ) :   0.9848
B(  4-C , 20-C ) :   1.0644 B(  6-C ,  7-H ) :   0.9450 B(  6-C ,  8-H ) :   0.9456
B(  6-C ,  9-C ) :   1.0656 B(  9-C , 10-H ) :   0.9559 B(  9-C , 11-H ) :   0.9552
B(  9-C , 12-C ) :   1.0744 B( 12-C , 13-H ) :   0.9714 B( 12-C , 14-H ) :   0.9718
B( 12-C , 15-H ) :   0.9762 B( 16-S , 17-C ) :   1.1385 B( 16-S , 20-C ) :   1.1242
B( 17-C , 18-C ) :   1.6453 B( 17-C , 33-H ) :   0.9516 B( 18-C , 19-C ) :   1.2398
B( 18-C , 21-H ) :   0.9792 B( 19-C , 20-C ) :   1.6052 B( 19-C , 22-C ) :   1.0313
B( 22-C , 23-H ) :   0.9299 B( 22-C , 24-H ) :   0.9316 B( 22-C , 25-C ) :   1.0671
B( 25-C , 26-H ) :   0.9441 B( 25-C , 27-H ) :   0.9580 B( 25-C , 28-C ) :   1.0940
B( 28-C , 29-H ) :   0.9719 B( 28-C , 30-H ) :   0.9683 B( 28-C , 31-H ) :   0.9745

Dispersion correction           -0.013843835
FINAL SINGLE POINT ENERGY     -1339.867367498222

DIPOLE MOMENT
-------------
                                X             Y             Z
Electronic contribution:      1.33181     -17.47593      -4.77502
Nuclear contribution   :     -1.25400      17.76173       4.81943
                        -----------------------------------------
Total Dipole Moment    :      0.07780       0.28580       0.04440
                        -----------------------------------------
Magnitude (a.u.)       :      0.29951
Magnitude (Debye)      :      0.76129

Rotational constants in cm-1:     0.019993     0.007868     0.006445
Rotational constants in MHz :   599.368613   235.886796   193.214682

                             ****ORCA TERMINATED NORMALLY****
TOTAL RUN TIME: 0 days 0 hours 0 minutes 21 seconds 83 msec
