                         Program Version 4.2.1 -  RELEASE  -
|  1> ! wB97X-D3 SP def2-SVP
|  2> %pal
|  3> nprocs 24
|  4> end
|  5>
|  6> * xyz 0 1
|  7> S 	 -46.0291 	 28.0253 	 25.8799
|  8> C 	 -47.0984 	 27.5007 	 27.1118
|  9> C 	 -46.7219 	 26.233 	 27.5996
| 10> C 	 -45.8369 	 25.6465 	 26.6808
| 11> C 	 -45.4135 	 26.3469 	 25.6163
| 12> H 	 -45.3961 	 24.6208 	 26.9707
| 13> C 	 -47.3163 	 25.5975 	 28.8666
| 14> H 	 -47.4383 	 24.559 	 28.7043
| 15> H 	 -48.3147 	 25.9191 	 28.9933
| 16> C 	 -46.4533 	 25.8255 	 30.1775
| 17> H 	 -45.3746 	 25.682 	 30.1193
| 18> H 	 -46.428 	 26.8614 	 30.3601
| 19> C 	 -47.0687 	 25.282 	 31.4783
| 20> H 	 -48.005 	 25.826 	 31.4887
| 21> H 	 -47.2987 	 24.2862 	 31.4279
| 22> H 	 -46.4495 	 25.516 	 32.3573
| 23> S 	 -42.9101 	 27.2299 	 24.7702
| 24> C 	 -41.8473 	 26.2254 	 23.8408
| 25> C 	 -42.5069 	 25.0774 	 23.5098
| 26> C 	 -43.8616 	 24.9542 	 23.9872
| 27> C 	 -44.24 	 26.0569 	 24.7863
| 28> H 	 -42.0937 	 24.3194 	 22.869
| 29> C 	 -44.6429 	 23.6579 	 23.989
| 30> H 	 -45.7308 	 24.0245 	 23.8367
| 31> H 	 -44.5051 	 23.1575 	 24.9987
| 32> C 	 -44.3792 	 22.6323 	 22.8275
| 33> H 	 -43.2831 	 22.4903 	 22.7181
| 34> H 	 -44.6772 	 23.0245 	 21.8635
| 35> C 	 -45.2163 	 21.3039 	 23.1039
| 36> H 	 -45.0543 	 20.4444 	 22.4744
| 37> H 	 -46.2669 	 21.5249 	 23.0978
| 38> H 	 -44.9082 	 20.923 	 24.0826
| 39> H 	 -47.7567 	 28.2303 	 27.6304
| 40> H 	 -40.915 	 26.4432 	 23.4846
| 41> *
| 42>
| 43>                          ****END OF INPUT****

CARTESIAN COORDINATES (ANGSTROEM)
---------------------------------
  S    -46.029100   28.025300   25.879900
  C    -47.098400   27.500700   27.111800
  C    -46.721900   26.233000   27.599600
  C    -45.836900   25.646500   26.680800
  C    -45.413500   26.346900   25.616300
  H    -45.396100   24.620800   26.970700
  C    -47.316300   25.597500   28.866600
  H    -47.438300   24.559000   28.704300
  H    -48.314700   25.919100   28.993300
  C    -46.453300   25.825500   30.177500
  H    -45.374600   25.682000   30.119300
  H    -46.428000   26.861400   30.360100
  C    -47.068700   25.282000   31.478300
  H    -48.005000   25.826000   31.488700
  H    -47.298700   24.286200   31.427900
  H    -46.449500   25.516000   32.357300
  S    -42.910100   27.229900   24.770200
  C    -41.847300   26.225400   23.840800
  C    -42.506900   25.077400   23.509800
  C    -43.861600   24.954200   23.987200
  C    -44.240000   26.056900   24.786300
  H    -42.093700   24.319400   22.869000
  C    -44.642900   23.657900   23.989000
  H    -45.730800   24.024500   23.836700
  H    -44.505100   23.157500   24.998700
  C    -44.379200   22.632300   22.827500
  H    -43.283100   22.490300   22.718100
  H    -44.677200   23.024500   21.863500
  C    -45.216300   21.303900   23.103900
  H    -45.054300   20.444400   22.474400
  H    -46.266900   21.524900   23.097800
  H    -44.908200   20.923000   24.082600
  H    -47.756700   28.230300   27.630400
  H    -40.915000   26.443200   23.484600

 Total Charge           Charge          ....    0
 Multiplicity           Mult            ....    1
 Number of Electrons    NEL             ....  134
 Basis Dimension        Dim             ....  322

ORBITAL ENERGIES
----------------

  NO   OCC          E(Eh)            E(eV)
   0   2.0000     -88.966188     -2420.8931
   1   2.0000     -88.962865     -2420.8026
   2   2.0000     -10.332019      -281.1485
   3   2.0000     -10.331868      -281.1444
   4   2.0000     -10.321733      -280.8686
   5   2.0000     -10.309780      -280.5434
   6   2.0000     -10.305720      -280.4329
   7   2.0000     -10.303816      -280.3811
   8   2.0000     -10.303462      -280.3715
   9   2.0000     -10.299469      -280.2628
  10   2.0000     -10.296449      -280.1806
  11   2.0000     -10.295838      -280.1640
  12   2.0000     -10.289900      -280.0024
  13   2.0000     -10.285129      -279.8726
  14   2.0000     -10.280766      -279.7539
  15   2.0000     -10.274171      -279.5744
  16   2.0000      -8.080942      -219.8936
  17   2.0000      -8.077477      -219.7993
  18   2.0000      -6.039383      -164.3400
  19   2.0000      -6.036137      -164.2516
  20   2.0000      -6.035656      -164.2385
  21   2.0000      -6.031809      -164.1339
  22   2.0000      -6.031529      -164.1262
  23   2.0000      -6.028281      -164.0379
  24   2.0000      -1.007673       -27.4202
  25   2.0000      -0.985494       -26.8167
  26   2.0000      -0.908003       -24.7080
  27   2.0000      -0.898913       -24.4607
  28   2.0000      -0.872814       -23.7505
  29   2.0000      -0.853345       -23.2207
  30   2.0000      -0.841866       -22.9084
  31   2.0000      -0.819797       -22.3078
  32   2.0000      -0.780759       -21.2455
  33   2.0000      -0.767504       -20.8848
  34   2.0000      -0.711060       -19.3489
  35   2.0000      -0.706241       -19.2178
  36   2.0000      -0.701739       -19.0953
  37   2.0000      -0.650901       -17.7119
  38   2.0000      -0.644706       -17.5434
  39   2.0000      -0.622257       -16.9325
  40   2.0000      -0.595727       -16.2106
  41   2.0000      -0.566701       -15.4207
  42   2.0000      -0.562191       -15.2980
  43   2.0000      -0.558520       -15.1981
  44   2.0000      -0.532929       -14.5017
  45   2.0000      -0.524423       -14.2703
  46   2.0000      -0.520280       -14.1575
  47   2.0000      -0.509829       -13.8731
  48   2.0000      -0.506956       -13.7950
  49   2.0000      -0.497377       -13.5343
  50   2.0000      -0.495017       -13.4701
  51   2.0000      -0.472977       -12.8703
  52   2.0000      -0.467934       -12.7331
  53   2.0000      -0.466226       -12.6867
  54   2.0000      -0.462233       -12.5780
  55   2.0000      -0.449739       -12.2380
  56   2.0000      -0.446017       -12.1367
  57   2.0000      -0.442966       -12.0537
  58   2.0000      -0.431035       -11.7291
  59   2.0000      -0.424866       -11.5612
  60   2.0000      -0.417119       -11.3504
  61   2.0000      -0.415231       -11.2990
  62   2.0000      -0.411832       -11.2065
  63   2.0000      -0.356789        -9.7087
  64   2.0000      -0.329785        -8.9739
  65   2.0000      -0.324586        -8.8324
  66   2.0000      -0.290596        -7.9075
  67   0.0000       0.023967         0.6522
  68   0.0000       0.062640         1.7045
  69   0.0000       0.108999         2.9660
  70   0.0000       0.123525         3.3613
  71   0.0000       0.133567         3.6345

MULLIKEN ATOMIC CHARGES
-----------------------
   0 S :    0.095026
   1 C :   -0.120885
   2 C :   -0.112594
   3 C :    0.002778
   4 C :   -0.119989
   5 H :    0.041066
   6 C :    0.106380
   7 H :    0.013472
   8 H :    0.009688
   9 C :   -0.079697
  10 H :    0.026102
  11 H :    0.007197
  12 C :   -0.011755
  13 H :    0.019875
  14 H :    0.015320
  15 H :    0.045812
  16 S :    0.093884
  17 C :   -0.034939
  18 C :   -0.042127
  19 C :   -0.023260
  20 C :   -0.151540
  21 H :    0.013434
  22 C :   -0.034587
  23 H :    0.056137
  24 H :    0.063134
  25 C :   -0.087643
  26 H :    0.035189
  27 H :    0.031610
  28 C :   -0.036230
  29 H :    0.032139
  30 H :    0.035562
  31 H :    0.022236
  32 H :    0.069462
  33 H :    0.019744
Sum of atomic charges:   -0.0000000

LOEWDIN ATOMIC CHARGES
----------------------
   0 S :    0.398524
   1 C :   -0.196960
   2 C :   -0.068400
   3 C :   -0.061495
   4 C :   -0.190576
   5 H :    0.044625
   6 C :   -0.019498
   7 H :    0.023829
   8 H :    0.027241
   9 C :   -0.042290
  10 H :    0.023371
  11 H :    0.017839
  12 C :   -0.054211
  13 H :    0.026654
  14 H :    0.008769
  15 H :    0.033887
  16 S :    0.401943
  17 C :   -0.177155
  18 C :   -0.072802
  19 C :   -0.067958
  20 C :   -0.184973
  21 H :    0.025652
  22 C :   -0.044109
  23 H :    0.045961
  24 H :    0.038994
  25 C :   -0.040827
  26 H :    0.021152
  27 H :    0.022241
  28 C :   -0.062892
  29 H :    0.024189
  30 H :    0.025078
  31 H :    0.024025
  32 H :    0.035022
  33 H :    0.015151

  Mayer bond orders larger than 0.100000
B(  0-S ,  1-C ) :   1.1796 B(  0-S ,  4-C ) :   1.1228 B(  1-C ,  2-C ) :   1.5586
B(  1-C ,  4-C ) :   0.1003 B(  1-C , 32-H ) :   0.9625 B(  2-C ,  3-C ) :   1.3089
B(  2-C ,  6-C ) :   1.0247 B(  3-C ,  4-C ) :   1.5543 B(  3-C ,  5-H ) :   0.9686
B(  4-C , 20-C ) :   1.0576 B(  6-C ,  7-H ) :   0.9443 B(  6-C ,  8-H ) :   0.9396
B(  6-C ,  9-C ) :   1.0419 B(  9-C , 10-H ) :   0.9603 B(  9-C , 11-H ) :   0.9557
B(  9-C , 12-C ) :   1.0736 B( 12-C , 13-H ) :   0.9760 B( 12-C , 14-H ) :   0.9802
B( 12-C , 15-H ) :   0.9737 B( 16-S , 17-C ) :   1.1488 B( 16-S , 20-C ) :   1.1448
B( 17-C , 18-C ) :   1.5992 B( 17-C , 33-H ) :   0.9784 B( 18-C , 19-C ) :   1.2610
B( 18-C , 21-H ) :   0.9843 B( 19-C , 20-C ) :   1.5756 B( 19-C , 22-C ) :   1.0397
B( 22-C , 23-H ) :   0.9329 B( 22-C , 24-H ) :   0.9432 B( 22-C , 25-C ) :   1.0548
B( 25-C , 26-H ) :   0.9553 B( 25-C , 27-H ) :   0.9616 B( 25-C , 28-C ) :   1.0669
B( 28-C , 29-H ) :   0.9773 B( 28-C , 30-H ) :   0.9777 B( 28-C , 31-H ) :   0.9774

Dispersion correction           -0.013155867
FINAL SINGLE POINT ENERGY     -1339.851314642095

DIPOLE MOMENT
-------------
                                X             Y             Z
Electronic contribution:      8.72401      23.38890     -11.11762
Nuclear contribution   :     -8.82873     -23.93742      11.53974
                        -----------------------------------------
Total Dipole Moment    :     -0.10471      -0.54852       0.42211
                        -----------------------------------------
Magnitude (a.u.)       :      0.70002
Magnitude (Debye)      :      1.77930

Rotational constants in cm-1:     0.017083     0.007564     0.006077
Rotational constants in MHz :   512.140397   226.758885   182.175500

                             ****ORCA TERMINATED NORMALLY****
TOTAL RUN TIME: 0 days 0 hours 0 minutes 20 seconds 686 msec
