                         Program Version 4.2.1 -  RELEASE  -
|  1> ! wB97X-D3 SP def2-SVP
|  2> %pal
|  3> nprocs 24
|  4> end
|  5>
|  6> * xyz 0 1
|  7> S 	 -112.716 	 17.7524 	 -110.621
|  8> C 	 -111.74 	 18.5549 	 -111.875
|  9> C 	 -112.443 	 18.6528 	 -113.049
| 10> C 	 -113.596 	 17.823 	 -112.999
| 11> C 	 -113.782 	 17.099 	 -111.832
| 12> H 	 -114.225 	 17.4944 	 -113.861
| 13> C 	 -112.114 	 19.4664 	 -114.339
| 14> H 	 -112.919 	 20.0409 	 -114.633
| 15> H 	 -111.862 	 18.7845 	 -115.224
| 16> C 	 -110.994 	 20.4872 	 -114.221
| 17> H 	 -111.037 	 21.1748 	 -113.417
| 18> H 	 -110.124 	 19.9534 	 -113.93
| 19> C 	 -110.728 	 21.1419 	 -115.538
| 20> H 	 -111.401 	 21.9492 	 -115.839
| 21> H 	 -109.783 	 21.6317 	 -115.526
| 22> H 	 -110.562 	 20.5364 	 -116.465
| 23> S 	 -114.243 	 14.3549 	 -112.154
| 24> C 	 -115.834 	 13.6899 	 -111.742
| 25> C 	 -116.577 	 14.6688 	 -111.092
| 26> C 	 -115.963 	 15.9721 	 -111.009
| 27> C 	 -114.687 	 15.9922 	 -111.529
| 28> H 	 -117.493 	 14.3389 	 -110.554
| 29> C 	 -116.595 	 17.1831 	 -110.286
| 30> H 	 -115.853 	 17.9686 	 -110.043
| 31> H 	 -117.025 	 16.7939 	 -109.351
| 32> C 	 -117.835 	 17.9128 	 -110.854
| 33> H 	 -117.819 	 18.9768 	 -110.515
| 34> H 	 -118.795 	 17.6054 	 -110.4
| 35> C 	 -118.075 	 17.9943 	 -112.394
| 36> H 	 -117.492 	 18.8707 	 -112.806
| 37> H 	 -119.025 	 18.2887 	 -112.675
| 38> H 	 -117.983 	 17.0161 	 -112.89
| 39> H 	 -110.82 	 19.039 	 -111.687
| 40> H 	 -116.044 	 12.612 	 -111.681
| 41> *
| 42>
| 43>                          ****END OF INPUT****

CARTESIAN COORDINATES (ANGSTROEM)
---------------------------------
  S    -112.716000   17.752400  -110.621000
  C    -111.740000   18.554900  -111.875000
  C    -112.443000   18.652800  -113.049000
  C    -113.596000   17.823000  -112.999000
  C    -113.782000   17.099000  -111.832000
  H    -114.225000   17.494400  -113.861000
  C    -112.114000   19.466400  -114.339000
  H    -112.919000   20.040900  -114.633000
  H    -111.862000   18.784500  -115.224000
  C    -110.994000   20.487200  -114.221000
  H    -111.037000   21.174800  -113.417000
  H    -110.124000   19.953400  -113.930000
  C    -110.728000   21.141900  -115.538000
  H    -111.401000   21.949200  -115.839000
  H    -109.783000   21.631700  -115.526000
  H    -110.562000   20.536400  -116.465000
  S    -114.243000   14.354900  -112.154000
  C    -115.834000   13.689900  -111.742000
  C    -116.577000   14.668800  -111.092000
  C    -115.963000   15.972100  -111.009000
  C    -114.687000   15.992200  -111.529000
  H    -117.493000   14.338900  -110.554000
  C    -116.595000   17.183100  -110.286000
  H    -115.853000   17.968600  -110.043000
  H    -117.025000   16.793900  -109.351000
  C    -117.835000   17.912800  -110.854000
  H    -117.819000   18.976800  -110.515000
  H    -118.795000   17.605400  -110.400000
  C    -118.075000   17.994300  -112.394000
  H    -117.492000   18.870700  -112.806000
  H    -119.025000   18.288700  -112.675000
  H    -117.983000   17.016100  -112.890000
  H    -110.820000   19.039000  -111.687000
  H    -116.044000   12.612000  -111.681000

 Total Charge           Charge          ....    0
 Multiplicity           Mult            ....    1
 Number of Electrons    NEL             ....  134
 Basis Dimension        Dim             ....  322

ORBITAL ENERGIES
----------------

  NO   OCC          E(Eh)            E(eV)
   0   2.0000     -88.963936     -2420.8318
   1   2.0000     -88.962607     -2420.7956
   2   2.0000     -10.331288      -281.1286
   3   2.0000     -10.327372      -281.0221
   4   2.0000     -10.324963      -280.9565
   5   2.0000     -10.314529      -280.6726
   6   2.0000     -10.310932      -280.5747
   7   2.0000     -10.305124      -280.4167
   8   2.0000     -10.301758      -280.3251
   9   2.0000     -10.298273      -280.2303
  10   2.0000     -10.295361      -280.1510
  11   2.0000     -10.295215      -280.1470
  12   2.0000     -10.289619      -279.9948
  13   2.0000     -10.279831      -279.7284
  14   2.0000     -10.276969      -279.6506
  15   2.0000     -10.271775      -279.5092
  16   2.0000      -8.077538      -219.8010
  17   2.0000      -8.077202      -219.7918
  18   2.0000      -6.036253      -164.2548
  19   2.0000      -6.035712      -164.2401
  20   2.0000      -6.032134      -164.1427
  21   2.0000      -6.031915      -164.1368
  22   2.0000      -6.028196      -164.0355
  23   2.0000      -6.027773      -164.0240
  24   2.0000      -1.002242       -27.2724
  25   2.0000      -0.979172       -26.6446
  26   2.0000      -0.916868       -24.9492
  27   2.0000      -0.897292       -24.4165
  28   2.0000      -0.869746       -23.6670
  29   2.0000      -0.844801       -22.9882
  30   2.0000      -0.841351       -22.8943
  31   2.0000      -0.810274       -22.0487
  32   2.0000      -0.786543       -21.4029
  33   2.0000      -0.778406       -21.1815
  34   2.0000      -0.716134       -19.4870
  35   2.0000      -0.701718       -19.0947
  36   2.0000      -0.687192       -18.6994
  37   2.0000      -0.655792       -17.8450
  38   2.0000      -0.642349       -17.4792
  39   2.0000      -0.609325       -16.5806
  40   2.0000      -0.587601       -15.9894
  41   2.0000      -0.573743       -15.6123
  42   2.0000      -0.568151       -15.4602
  43   2.0000      -0.552943       -15.0464
  44   2.0000      -0.539736       -14.6870
  45   2.0000      -0.519206       -14.1283
  46   2.0000      -0.514765       -14.0075
  47   2.0000      -0.514148       -13.9907
  48   2.0000      -0.503328       -13.6962
  49   2.0000      -0.496084       -13.4991
  50   2.0000      -0.485820       -13.2198
  51   2.0000      -0.477534       -12.9944
  52   2.0000      -0.474355       -12.9079
  53   2.0000      -0.467411       -12.7189
  54   2.0000      -0.458717       -12.4823
  55   2.0000      -0.448325       -12.1995
  56   2.0000      -0.436304       -11.8724
  57   2.0000      -0.432893       -11.7796
  58   2.0000      -0.429727       -11.6935
  59   2.0000      -0.422228       -11.4894
  60   2.0000      -0.414169       -11.2701
  61   2.0000      -0.413056       -11.2398
  62   2.0000      -0.402148       -10.9430
  63   2.0000      -0.332635        -9.0515
  64   2.0000      -0.330334        -8.9889
  65   2.0000      -0.324248        -8.8232
  66   2.0000      -0.309294        -8.4163
  67   0.0000       0.041621         1.1326
  68   0.0000       0.044510         1.2112
  69   0.0000       0.102369         2.7856
  70   0.0000       0.112274         3.0551
  71   0.0000       0.127186         3.4609

MULLIKEN ATOMIC CHARGES
-----------------------
   0 S :    0.102895
   1 C :   -0.121611
   2 C :   -0.057738
   3 C :    0.044274
   4 C :   -0.195938
   5 H :    0.030318
   6 C :    0.066034
   7 H :    0.018835
   8 H :    0.050590
   9 C :   -0.043487
  10 H :    0.020082
  11 H :    0.010545
  12 C :   -0.055189
  13 H :    0.032708
  14 H :    0.012356
  15 H :    0.030749
  16 S :    0.094436
  17 C :   -0.108258
  18 C :   -0.049434
  19 C :    0.001594
  20 C :   -0.175363
  21 H :    0.036801
  22 C :    0.098829
  23 H :    0.036849
  24 H :    0.033037
  25 C :   -0.123949
  26 H :    0.028955
  27 H :    0.022817
  28 C :   -0.032515
  29 H :    0.035673
  30 H :    0.001565
  31 H :    0.044002
  32 H :    0.031496
  33 H :    0.078043
Sum of atomic charges:    0.0000000

LOEWDIN ATOMIC CHARGES
----------------------
   0 S :    0.391425
   1 C :   -0.175892
   2 C :   -0.062382
   3 C :   -0.060206
   4 C :   -0.201031
   5 H :    0.039704
   6 C :   -0.022364
   7 H :    0.021531
   8 H :    0.044376
   9 C :   -0.043738
  10 H :    0.022845
  11 H :    0.019703
  12 C :   -0.072245
  13 H :    0.025733
  14 H :    0.024580
  15 H :    0.032378
  16 S :    0.375312
  17 C :   -0.181745
  18 C :   -0.078395
  19 C :   -0.052220
  20 C :   -0.185041
  21 H :    0.037724
  22 C :   -0.033472
  23 H :    0.034103
  24 H :    0.041016
  25 C :   -0.052360
  26 H :    0.031131
  27 H :    0.020424
  28 C :   -0.073768
  29 H :    0.033433
  30 H :    0.013651
  31 H :    0.029574
  32 H :    0.017554
  33 H :    0.038664

  Mayer bond orders larger than 0.100000
B(  0-S ,  1-C ) :   1.1319 B(  0-S ,  4-C ) :   1.1372 B(  1-C ,  2-C ) :   1.6313
B(  1-C , 32-H ) :   0.9737 B(  2-C ,  3-C ) :   1.2219 B(  2-C ,  6-C ) :   0.9961
B(  3-C ,  4-C ) :   1.6207 B(  3-C ,  5-H ) :   0.9882 B(  4-C , 20-C ) :   1.0016
B(  6-C ,  7-H ) :   0.9488 B(  6-C ,  8-H ) :   0.9416 B(  6-C ,  9-C ) :   1.0740
B(  9-C , 10-H ) :   0.9508 B(  9-C , 11-H ) :   0.9440 B(  9-C , 12-C ) :   1.0938
B( 12-C , 13-H ) :   0.9738 B( 12-C , 14-H ) :   0.9662 B( 12-C , 15-H ) :   0.9712
B( 16-S , 17-C ) :   1.1490 B( 16-S , 20-C ) :   1.1227 B( 17-C , 18-C ) :   1.6292
B( 17-C , 33-H ) :   0.9608 B( 18-C , 19-C ) :   1.2139 B( 18-C , 21-H ) :   0.9787
B( 19-C , 20-C ) :   1.6292 B( 19-C , 22-C ) :   1.0466 B( 22-C , 23-H ) :   0.9404
B( 22-C , 24-H ) :   0.9366 B( 22-C , 25-C ) :   1.0448 B( 25-C , 26-H ) :   0.9591
B( 25-C , 27-H ) :   0.9636 B( 25-C , 28-C ) :   1.0895 B( 28-C , 29-H ) :   0.9775
B( 28-C , 30-H ) :   0.9697 B( 28-C , 31-H ) :   0.9690

Dispersion correction           -0.014024296
FINAL SINGLE POINT ENERGY     -1339.848089665271

DIPOLE MOMENT
-------------
                                X             Y             Z
Electronic contribution:      5.23175     -20.36001      12.15034
Nuclear contribution   :     -5.45847      20.72724     -12.32250
                        -----------------------------------------
Total Dipole Moment    :     -0.22672       0.36723      -0.17215
                        -----------------------------------------
Magnitude (a.u.)       :      0.46465
Magnitude (Debye)      :      1.18104

Rotational constants in cm-1:     0.021103     0.007173     0.006450
Rotational constants in MHz :   632.666467   215.033622   193.375659

                             ****ORCA TERMINATED NORMALLY****
TOTAL RUN TIME: 0 days 0 hours 0 minutes 20 seconds 964 msec
