                         Program Version 4.2.1 -  RELEASE  -
|  1> ! wB97X-D3 SP def2-SVP
|  2> %pal
|  3> nprocs 24
|  4> end
|  5>
|  6> * xyz 0 1
|  7> S 	 -103.285 	 1.38208 	 -121.684
|  8> C 	 -103.979 	 1.1252 	 -120.147
|  9> C 	 -102.958 	 0.833358 	 -119.206
| 10> C 	 -101.653 	 0.779246 	 -119.702
| 11> C 	 -101.626 	 1.07295 	 -121.03
| 12> H 	 -100.705 	 0.714424 	 -119.14
| 13> C 	 -103.28 	 0.721259 	 -117.664
| 14> H 	 -102.371 	 0.226876 	 -117.34
| 15> H 	 -104.041 	 0.0478633 	 -117.428
| 16> C 	 -103.453 	 2.01015 	 -116.993
| 17> H 	 -102.493 	 2.51218 	 -117.187
| 18> H 	 -104.226 	 2.65553 	 -117.375
| 19> C 	 -103.7 	 1.89052 	 -115.531
| 20> H 	 -104.296 	 1.07158 	 -115.298
| 21> H 	 -102.752 	 1.63111 	 -115.186
| 22> H 	 -103.944 	 2.78575 	 -115.056
| 23> S 	 -100.52 	 0.0510262 	 -123.313
| 24> C 	 -98.7933 	 0.312681 	 -123.712
| 25> C 	 -98.1198 	 0.956023 	 -122.694
| 26> C 	 -99.0278 	 1.30072 	 -121.585
| 27> C 	 -100.405 	 0.959103 	 -121.806
| 28> H 	 -97.0714 	 1.07697 	 -122.692
| 29> C 	 -98.5411 	 1.97992 	 -120.341
| 30> H 	 -97.4197 	 2.0567 	 -120.383
| 31> H 	 -98.6738 	 1.28734 	 -119.502
| 32> C 	 -98.9868 	 3.3927 	 -120.039
| 33> H 	 -98.5906 	 3.72164 	 -119.063
| 34> H 	 -100.097 	 3.4565 	 -119.978
| 35> C 	 -98.4289 	 4.43361 	 -121.126
| 36> H 	 -98.6093 	 4.10608 	 -122.125
| 37> H 	 -97.3591 	 4.59613 	 -121.127
| 38> H 	 -98.8931 	 5.39905 	 -120.944
| 39> H 	 -104.972 	 1.35292 	 -119.823
| 40> H 	 -98.2635 	 -0.0387682 	 -124.522
| 41> *
| 42>
| 43>                          ****END OF INPUT****

CARTESIAN COORDINATES (ANGSTROEM)
---------------------------------
  S    -103.285000    1.382080  -121.684000
  C    -103.979000    1.125200  -120.147000
  C    -102.958000    0.833358  -119.206000
  C    -101.653000    0.779246  -119.702000
  C    -101.626000    1.072950  -121.030000
  H    -100.705000    0.714424  -119.140000
  C    -103.280000    0.721259  -117.664000
  H    -102.371000    0.226876  -117.340000
  H    -104.041000    0.047863  -117.428000
  C    -103.453000    2.010150  -116.993000
  H    -102.493000    2.512180  -117.187000
  H    -104.226000    2.655530  -117.375000
  C    -103.700000    1.890520  -115.531000
  H    -104.296000    1.071580  -115.298000
  H    -102.752000    1.631110  -115.186000
  H    -103.944000    2.785750  -115.056000
  S    -100.520000    0.051026  -123.313000
  C    -98.793300    0.312681  -123.712000
  C    -98.119800    0.956023  -122.694000
  C    -99.027800    1.300720  -121.585000
  C    -100.405000    0.959103  -121.806000
  H    -97.071400    1.076970  -122.692000
  C    -98.541100    1.979920  -120.341000
  H    -97.419700    2.056700  -120.383000
  H    -98.673800    1.287340  -119.502000
  C    -98.986800    3.392700  -120.039000
  H    -98.590600    3.721640  -119.063000
  H    -100.097000    3.456500  -119.978000
  C    -98.428900    4.433610  -121.126000
  H    -98.609300    4.106080  -122.125000
  H    -97.359100    4.596130  -121.127000
  H    -98.893100    5.399050  -120.944000
  H    -104.972000    1.352920  -119.823000
  H    -98.263500   -0.038768  -124.522000

 Total Charge           Charge          ....    0
 Multiplicity           Mult            ....    1
 Number of Electrons    NEL             ....  134
 Basis Dimension        Dim             ....  322

ORBITAL ENERGIES
----------------

  NO   OCC          E(Eh)            E(eV)
   0   2.0000     -88.975141     -2421.1367
   1   2.0000     -88.965729     -2420.8806
   2   2.0000     -10.334153      -281.2066
   3   2.0000     -10.333774      -281.1963
   4   2.0000     -10.315357      -280.6951
   5   2.0000     -10.315021      -280.6860
   6   2.0000     -10.310971      -280.5758
   7   2.0000     -10.304057      -280.3876
   8   2.0000     -10.297802      -280.2174
   9   2.0000     -10.296249      -280.1752
  10   2.0000     -10.293240      -280.0933
  11   2.0000     -10.292688      -280.0783
  12   2.0000     -10.283670      -279.8329
  13   2.0000     -10.275138      -279.6007
  14   2.0000     -10.273151      -279.5466
  15   2.0000     -10.258716      -279.1539
  16   2.0000      -8.089054      -220.1144
  17   2.0000      -8.079460      -219.8533
  18   2.0000      -6.047611      -164.5639
  19   2.0000      -6.043568      -164.4538
  20   2.0000      -6.039912      -164.3544
  21   2.0000      -6.038174      -164.3071
  22   2.0000      -6.034017      -164.1939
  23   2.0000      -6.030140      -164.0884
  24   2.0000      -1.005472       -27.3603
  25   2.0000      -0.977433       -26.5973
  26   2.0000      -0.924449       -25.1555
  27   2.0000      -0.904327       -24.6080
  28   2.0000      -0.876317       -23.8458
  29   2.0000      -0.859137       -23.3783
  30   2.0000      -0.836822       -22.7711
  31   2.0000      -0.819028       -22.2869
  32   2.0000      -0.783400       -21.3174
  33   2.0000      -0.769653       -20.9433
  34   2.0000      -0.713372       -19.4118
  35   2.0000      -0.701727       -19.0950
  36   2.0000      -0.689436       -18.7605
  37   2.0000      -0.667447       -18.1622
  38   2.0000      -0.644688       -17.5428
  39   2.0000      -0.624068       -16.9818
  40   2.0000      -0.588716       -16.0198
  41   2.0000      -0.575834       -15.6692
  42   2.0000      -0.570620       -15.5274
  43   2.0000      -0.550916       -14.9912
  44   2.0000      -0.542890       -14.7728
  45   2.0000      -0.537909       -14.6372
  46   2.0000      -0.520672       -14.1682
  47   2.0000      -0.512899       -13.9567
  48   2.0000      -0.506088       -13.7714
  49   2.0000      -0.498796       -13.5729
  50   2.0000      -0.489435       -13.3182
  51   2.0000      -0.481093       -13.0912
  52   2.0000      -0.474977       -12.9248
  53   2.0000      -0.467124       -12.7111
  54   2.0000      -0.462682       -12.5902
  55   2.0000      -0.447890       -12.1877
  56   2.0000      -0.444682       -12.1004
  57   2.0000      -0.443106       -12.0575
  58   2.0000      -0.433062       -11.7842
  59   2.0000      -0.424511       -11.5515
  60   2.0000      -0.413918       -11.2633
  61   2.0000      -0.412399       -11.2220
  62   2.0000      -0.400908       -10.9093
  63   2.0000      -0.359583        -9.7848
  64   2.0000      -0.335968        -9.1422
  65   2.0000      -0.326360        -8.8807
  66   2.0000      -0.284102        -7.7308
  67   0.0000       0.020426         0.5558
  68   0.0000       0.067840         1.8460
  69   0.0000       0.104406         2.8410
  70   0.0000       0.114361         3.1119
  71   0.0000       0.133784         3.6404

MULLIKEN ATOMIC CHARGES
-----------------------
   0 S :    0.133896
   1 C :   -0.091703
   2 C :   -0.115873
   3 C :    0.022322
   4 C :   -0.140873
   5 H :    0.026319
   6 C :    0.074441
   7 H :    0.007758
   8 H :    0.009470
   9 C :   -0.074125
  10 H :    0.018584
  11 H :    0.019175
  12 C :    0.058569
  13 H :    0.009635
  14 H :   -0.006780
  15 H :    0.021867
  16 S :    0.093410
  17 C :   -0.054620
  18 C :   -0.010620
  19 C :   -0.061691
  20 C :   -0.141929
  21 H :    0.011169
  22 C :    0.017314
  23 H :    0.013570
  24 H :    0.038283
  25 C :   -0.058654
  26 H :    0.028966
  27 H :    0.046947
  28 C :   -0.058246
  29 H :    0.034184
  30 H :    0.021566
  31 H :    0.034859
  32 H :    0.046129
  33 H :    0.026680
Sum of atomic charges:    0.0000000

LOEWDIN ATOMIC CHARGES
----------------------
   0 S :    0.414909
   1 C :   -0.209333
   2 C :   -0.055563
   3 C :   -0.062375
   4 C :   -0.183200
   5 H :    0.042484
   6 C :   -0.025417
   7 H :    0.027721
   8 H :    0.017000
   9 C :   -0.043472
  10 H :    0.026689
  11 H :    0.017598
  12 C :   -0.048244
  13 H :    0.017647
  14 H :    0.020865
  15 H :    0.021366
  16 S :    0.387662
  17 C :   -0.164283
  18 C :   -0.060313
  19 C :   -0.058740
  20 C :   -0.187248
  21 H :    0.027345
  22 C :   -0.050531
  23 H :    0.034113
  24 H :    0.027968
  25 C :   -0.036242
  26 H :    0.025641
  27 H :    0.026929
  28 C :   -0.064278
  29 H :    0.021830
  30 H :    0.021399
  31 H :    0.026606
  32 H :    0.028444
  33 H :    0.015024

  Mayer bond orders larger than 0.100000
B(  0-S ,  1-C ) :   1.1517 B(  0-S ,  4-C ) :   1.1467 B(  1-C ,  2-C ) :   1.5740
B(  1-C ,  4-C ) :   0.1040 B(  1-C , 32-H ) :   0.9709 B(  2-C ,  3-C ) :   1.2862
B(  2-C ,  6-C ) :   1.0060 B(  3-C ,  4-C ) :   1.5425 B(  3-C ,  5-H ) :   0.9809
B(  4-C , 20-C ) :   1.0752 B(  6-C ,  7-H ) :   0.9409 B(  6-C ,  8-H ) :   0.9404
B(  6-C ,  9-C ) :   1.0744 B(  9-C , 10-H ) :   0.9526 B(  9-C , 11-H ) :   0.9569
B(  9-C , 12-C ) :   1.0816 B( 12-C , 13-H ) :   0.9695 B( 12-C , 14-H ) :   0.9672
B( 12-C , 15-H ) :   0.9699 B( 16-S , 17-C ) :   1.1389 B( 16-S , 20-C ) :   1.1340
B( 17-C , 18-C ) :   1.6247 B( 17-C , 33-H ) :   0.9727 B( 18-C , 19-C ) :   1.2389
B( 18-C , 21-H ) :   0.9909 B( 19-C , 20-C ) :   1.5656 B( 19-C , 22-C ) :   1.0466
B( 22-C , 23-H ) :   0.9304 B( 22-C , 24-H ) :   0.9290 B( 22-C , 25-C ) :   1.0728
B( 25-C , 26-H ) :   0.9539 B( 25-C , 27-H ) :   0.9578 B( 25-C , 28-C ) :   1.0610
B( 28-C , 29-H ) :   0.9806 B( 28-C , 30-H ) :   0.9762 B( 28-C , 31-H ) :   0.9773

Dispersion correction           -0.014588973
FINAL SINGLE POINT ENERGY     -1339.852209045745

DIPOLE MOMENT
-------------
                                X             Y             Z
Electronic contribution:     -5.58409     -12.77981     -25.31161
Nuclear contribution   :      5.90007      12.95104      25.96310
                        -----------------------------------------
Total Dipole Moment    :      0.31598       0.17123       0.65148
                        -----------------------------------------
Magnitude (a.u.)       :      0.74404
Magnitude (Debye)      :      1.89120

Rotational constants in cm-1:     0.020106     0.008477     0.006756
Rotational constants in MHz :   602.768129   254.132757   202.533761

                             ****ORCA TERMINATED NORMALLY****
TOTAL RUN TIME: 0 days 0 hours 0 minutes 20 seconds 970 msec
