                         Program Version 4.2.1 -  RELEASE  -
|  1> ! wB97X-D3 SP def2-SVP
|  2> %pal
|  3> nprocs 24
|  4> end
|  5>
|  6> * xyz 0 1
|  7> S 	 -84.8232 	 -44.1311 	 -73.2812
|  8> C 	 -84.3552 	 -45.7292 	 -74.0823
|  9> C 	 -84.9665 	 -45.9098 	 -75.3483
| 10> C 	 -85.7048 	 -44.7912 	 -75.7155
| 11> C 	 -85.8192 	 -43.7968 	 -74.7466
| 12> H 	 -85.9994 	 -44.6336 	 -76.7274
| 13> C 	 -84.771 	 -47.2073 	 -76.2135
| 14> H 	 -84.2097 	 -47.8918 	 -75.5527
| 15> H 	 -83.9868 	 -47.0365 	 -76.8863
| 16> C 	 -86.0333 	 -47.9308 	 -76.8352
| 17> H 	 -85.7046 	 -48.9741 	 -76.9968
| 18> H 	 -86.8378 	 -47.997 	 -76.1033
| 19> C 	 -86.584 	 -47.3493 	 -78.1718
| 20> H 	 -87.1154 	 -48.208 	 -78.5686
| 21> H 	 -87.1828 	 -46.5321 	 -78.0717
| 22> H 	 -85.7501 	 -47.3025 	 -78.8383
| 23> S 	 -86.7746 	 -41.7827 	 -76.442
| 24> C 	 -87.8552 	 -40.5798 	 -75.844
| 25> C 	 -87.8954 	 -40.6167 	 -74.4672
| 26> C 	 -87.3697 	 -41.852 	 -73.9243
| 27> C 	 -86.7361 	 -42.609 	 -74.9154
| 28> H 	 -88.4735 	 -39.8375 	 -74.0415
| 29> C 	 -87.3843 	 -42.1176 	 -72.4201
| 30> H 	 -87.4201 	 -41.1681 	 -71.8889
| 31> H 	 -86.5894 	 -42.8395 	 -72.0878
| 32> C 	 -88.6144 	 -42.7631 	 -71.769
| 33> H 	 -88.7846 	 -43.7436 	 -72.2333
| 34> H 	 -89.4726 	 -42.1514 	 -72.0668
| 35> C 	 -88.4595 	 -42.9494 	 -70.2259
| 36> H 	 -87.7089 	 -43.7677 	 -69.9297
| 37> H 	 -89.4096 	 -43.2822 	 -69.7503
| 38> H 	 -88.1609 	 -41.9699 	 -69.9225
| 39> H 	 -83.7071 	 -46.4436 	 -73.6722
| 40> H 	 -88.2804 	 -39.7595 	 -76.4748
| 41> *
| 42>
| 43>                          ****END OF INPUT****

CARTESIAN COORDINATES (ANGSTROEM)
---------------------------------
  S    -84.823200  -44.131100  -73.281200
  C    -84.355200  -45.729200  -74.082300
  C    -84.966500  -45.909800  -75.348300
  C    -85.704800  -44.791200  -75.715500
  C    -85.819200  -43.796800  -74.746600
  H    -85.999400  -44.633600  -76.727400
  C    -84.771000  -47.207300  -76.213500
  H    -84.209700  -47.891800  -75.552700
  H    -83.986800  -47.036500  -76.886300
  C    -86.033300  -47.930800  -76.835200
  H    -85.704600  -48.974100  -76.996800
  H    -86.837800  -47.997000  -76.103300
  C    -86.584000  -47.349300  -78.171800
  H    -87.115400  -48.208000  -78.568600
  H    -87.182800  -46.532100  -78.071700
  H    -85.750100  -47.302500  -78.838300
  S    -86.774600  -41.782700  -76.442000
  C    -87.855200  -40.579800  -75.844000
  C    -87.895400  -40.616700  -74.467200
  C    -87.369700  -41.852000  -73.924300
  C    -86.736100  -42.609000  -74.915400
  H    -88.473500  -39.837500  -74.041500
  C    -87.384300  -42.117600  -72.420100
  H    -87.420100  -41.168100  -71.888900
  H    -86.589400  -42.839500  -72.087800
  C    -88.614400  -42.763100  -71.769000
  H    -88.784600  -43.743600  -72.233300
  H    -89.472600  -42.151400  -72.066800
  C    -88.459500  -42.949400  -70.225900
  H    -87.708900  -43.767700  -69.929700
  H    -89.409600  -43.282200  -69.750300
  H    -88.160900  -41.969900  -69.922500
  H    -83.707100  -46.443600  -73.672200
  H    -88.280400  -39.759500  -76.474800

 Total Charge           Charge          ....    0
 Multiplicity           Mult            ....    1
 Number of Electrons    NEL             ....  134
 Basis Dimension        Dim             ....  322

ORBITAL ENERGIES
----------------

  NO   OCC          E(Eh)            E(eV)
   0   2.0000     -88.975533     -2421.1473
   1   2.0000     -88.965239     -2420.8672
   2   2.0000     -10.339216      -281.3444
   3   2.0000     -10.330413      -281.1048
   4   2.0000     -10.319998      -280.8214
   5   2.0000     -10.317710      -280.7592
   6   2.0000     -10.308110      -280.4979
   7   2.0000     -10.305960      -280.4394
   8   2.0000     -10.297520      -280.2098
   9   2.0000     -10.296125      -280.1718
  10   2.0000     -10.293131      -280.0903
  11   2.0000     -10.291332      -280.0414
  12   2.0000     -10.290493      -280.0186
  13   2.0000     -10.285500      -279.8827
  14   2.0000     -10.282009      -279.7877
  15   2.0000     -10.272639      -279.5327
  16   2.0000      -8.086914      -220.0561
  17   2.0000      -8.080628      -219.8851
  18   2.0000      -6.045568      -164.5083
  19   2.0000      -6.042090      -164.4136
  20   2.0000      -6.039091      -164.3320
  21   2.0000      -6.037513      -164.2891
  22   2.0000      -6.035133      -164.2243
  23   2.0000      -6.031313      -164.1204
  24   2.0000      -1.002143       -27.2697
  25   2.0000      -0.974703       -26.5230
  26   2.0000      -0.906286       -24.6613
  27   2.0000      -0.900149       -24.4943
  28   2.0000      -0.863329       -23.4924
  29   2.0000      -0.850444       -23.1418
  30   2.0000      -0.842182       -22.9169
  31   2.0000      -0.815290       -22.1852
  32   2.0000      -0.783961       -21.3327
  33   2.0000      -0.770298       -20.9609
  34   2.0000      -0.704715       -19.1763
  35   2.0000      -0.700458       -19.0604
  36   2.0000      -0.682427       -18.5698
  37   2.0000      -0.663855       -18.0644
  38   2.0000      -0.629828       -17.1385
  39   2.0000      -0.623835       -16.9754
  40   2.0000      -0.594771       -16.1845
  41   2.0000      -0.573426       -15.6037
  42   2.0000      -0.569052       -15.4847
  43   2.0000      -0.548114       -14.9149
  44   2.0000      -0.534674       -14.5492
  45   2.0000      -0.518053       -14.0969
  46   2.0000      -0.513921       -13.9845
  47   2.0000      -0.507054       -13.7976
  48   2.0000      -0.502599       -13.6764
  49   2.0000      -0.493710       -13.4345
  50   2.0000      -0.486643       -13.2422
  51   2.0000      -0.479975       -13.0608
  52   2.0000      -0.477009       -12.9801
  53   2.0000      -0.470104       -12.7922
  54   2.0000      -0.454001       -12.3540
  55   2.0000      -0.449354       -12.2275
  56   2.0000      -0.438802       -11.9404
  57   2.0000      -0.436496       -11.8777
  58   2.0000      -0.431621       -11.7450
  59   2.0000      -0.426202       -11.5975
  60   2.0000      -0.421583       -11.4719
  61   2.0000      -0.410446       -11.1688
  62   2.0000      -0.408519       -11.1164
  63   2.0000      -0.347898        -9.4668
  64   2.0000      -0.337552        -9.1853
  65   2.0000      -0.326638        -8.8883
  66   2.0000      -0.283175        -7.7056
  67   0.0000       0.018890         0.5140
  68   0.0000       0.074538         2.0283
  69   0.0000       0.096283         2.6200
  70   0.0000       0.108833         2.9615
  71   0.0000       0.127713         3.4752

MULLIKEN ATOMIC CHARGES
-----------------------
   0 S :    0.095804
   1 C :   -0.113589
   2 C :   -0.075836
   3 C :   -0.006531
   4 C :   -0.108608
   5 H :    0.013732
   6 C :    0.089281
   7 H :    0.004895
   8 H :    0.022277
   9 C :   -0.101443
  10 H :    0.032767
  11 H :    0.037800
  12 C :    0.003176
  13 H :    0.025585
  14 H :    0.041017
  15 H :    0.019487
  16 S :    0.099381
  17 C :   -0.123633
  18 C :   -0.022343
  19 C :   -0.040992
  20 C :   -0.112920
  21 H :    0.012583
  22 C :    0.022052
  23 H :    0.021274
  24 H :    0.035930
  25 C :   -0.085173
  26 H :    0.026152
  27 H :    0.022157
  28 C :   -0.059602
  29 H :    0.052099
  30 H :    0.045580
  31 H :    0.024334
  32 H :    0.026447
  33 H :    0.076860
Sum of atomic charges:    0.0000000

LOEWDIN ATOMIC CHARGES
----------------------
   0 S :    0.369533
   1 C :   -0.165949
   2 C :   -0.052260
   3 C :   -0.068042
   4 C :   -0.165730
   5 H :    0.026050
   6 C :   -0.032301
   7 H :    0.032654
   8 H :    0.024589
   9 C :   -0.035122
  10 H :    0.029477
  11 H :    0.025820
  12 C :   -0.053128
  13 H :    0.033336
  14 H :    0.012529
  15 H :    0.024403
  16 S :    0.420201
  17 C :   -0.199961
  18 C :   -0.068284
  19 C :   -0.060914
  20 C :   -0.196254
  21 H :    0.026814
  22 C :   -0.045327
  23 H :    0.031009
  24 H :    0.019880
  25 C :   -0.043327
  26 H :    0.019349
  27 H :    0.018363
  28 C :   -0.068090
  29 H :    0.036975
  30 H :    0.032077
  31 H :    0.017825
  32 H :    0.013331
  33 H :    0.040474

  Mayer bond orders larger than 0.100000
B(  0-S ,  1-C ) :   1.1148 B(  0-S ,  4-C ) :   1.1305 B(  1-C ,  2-C ) :   1.6142
B(  1-C ,  4-C ) :   0.1033 B(  1-C , 32-H ) :   0.9677 B(  2-C ,  3-C ) :   1.2699
B(  2-C ,  6-C ) :   1.0098 B(  3-C ,  4-C ) :   1.5571 B(  3-C ,  5-H ) :   0.9880
B(  4-C , 20-C ) :   1.0473 B(  6-C ,  7-H ) :   0.9343 B(  6-C ,  8-H ) :   0.9376
B(  6-C ,  9-C ) :   1.0525 B(  9-C , 10-H ) :   0.9595 B(  9-C , 11-H ) :   0.9621
B(  9-C , 12-C ) :   1.0718 B( 12-C , 13-H ) :   0.9700 B( 12-C , 14-H ) :   0.9800
B( 12-C , 15-H ) :   0.9742 B( 16-S , 17-C ) :   1.1587 B( 16-S , 20-C ) :   1.1480
B( 17-C , 18-C ) :   1.6171 B( 17-C , 33-H ) :   0.9609 B( 18-C , 19-C ) :   1.2317
B( 18-C , 21-H ) :   0.9939 B( 19-C , 20-C ) :   1.5757 B( 19-C , 22-C ) :   1.0477
B( 22-C , 23-H ) :   0.9325 B( 22-C , 24-H ) :   0.9327 B( 22-C , 25-C ) :   1.0565
B( 25-C , 26-H ) :   0.9538 B( 25-C , 27-H ) :   0.9581 B( 25-C , 28-C ) :   1.0693
B( 28-C , 29-H ) :   0.9736 B( 28-C , 30-H ) :   0.9742 B( 28-C , 31-H ) :   0.9754

Dispersion correction           -0.013676409
FINAL SINGLE POINT ENERGY     -1339.843194582468

DIPOLE MOMENT
-------------
                                X             Y             Z
Electronic contribution:      8.46102      14.13183      -4.10608
Nuclear contribution   :     -8.59563     -14.43582       3.96779
                        -----------------------------------------
Total Dipole Moment    :     -0.13461      -0.30399      -0.13829
                        -----------------------------------------
Magnitude (a.u.)       :      0.36008
Magnitude (Debye)      :      0.91524

Rotational constants in cm-1:     0.017368     0.008492     0.006771
Rotational constants in MHz :   520.688515   254.583158   202.976298

                             ****ORCA TERMINATED NORMALLY****
TOTAL RUN TIME: 0 days 0 hours 0 minutes 21 seconds 937 msec
