                         Program Version 4.2.1 -  RELEASE  -
|  1> ! wB97X-D3 SP def2-SVP
|  2> %pal
|  3> nprocs 24
|  4> end
|  5>
|  6> * xyz 0 1
|  7> S 	 -110.417 	 40.3007 	 -10.0907
|  8> C 	 -109.753 	 41.7822 	 -10.6055
|  9> C 	 -109.66 	 42.7816 	 -9.68307
| 10> C 	 -110.204 	 42.2819 	 -8.44156
| 11> C 	 -110.662 	 40.9743 	 -8.491
| 12> H 	 -110.332 	 42.9144 	 -7.57702
| 13> C 	 -109.173 	 44.2087 	 -9.903
| 14> H 	 -108.09 	 44.2826 	 -9.80581
| 15> H 	 -109.547 	 44.7967 	 -9.10436
| 16> C 	 -109.663 	 44.9321 	 -11.2124
| 17> H 	 -109.454 	 46.0104 	 -11.0999
| 18> H 	 -108.975 	 44.6357 	 -12.0644
| 19> C 	 -111.148 	 44.6593 	 -11.4024
| 20> H 	 -111.532 	 45.1262 	 -12.3384
| 21> H 	 -111.344 	 43.6172 	 -11.3941
| 22> H 	 -111.704 	 45.1643 	 -10.633
| 23> S 	 -112.816 	 39.432 	 -7.9594
| 24> C 	 -113.102 	 39.0682 	 -6.29996
| 25> C 	 -112.017 	 39.3588 	 -5.49324
| 26> C 	 -110.866 	 39.9363 	 -6.18692
| 27> C 	 -111.293 	 40.2211 	 -7.4724
| 28> H 	 -111.954 	 39.0435 	 -4.46854
| 29> C 	 -109.537 	 40.2091 	 -5.53214
| 30> H 	 -108.772 	 40.6425 	 -6.2226
| 31> H 	 -109.153 	 39.2718 	 -5.2642
| 32> C 	 -109.575 	 41.1263 	 -4.33903
| 33> H 	 -108.601 	 40.9052 	 -3.85838
| 34> H 	 -110.281 	 40.7523 	 -3.59802
| 35> C 	 -109.738 	 42.6021 	 -4.632
| 36> H 	 -109.594 	 43.0843 	 -3.67113
| 37> H 	 -110.682 	 42.8902 	 -5.0599
| 38> H 	 -108.989 	 43.0352 	 -5.24657
| 39> H 	 -109.501 	 41.9951 	 -11.6388
| 40> H 	 -113.96 	 38.5833 	 -5.89824
| 41> *
| 42>
| 43>                          ****END OF INPUT****

CARTESIAN COORDINATES (ANGSTROEM)
---------------------------------
  S    -110.417000   40.300700  -10.090700
  C    -109.753000   41.782200  -10.605500
  C    -109.660000   42.781600   -9.683070
  C    -110.204000   42.281900   -8.441560
  C    -110.662000   40.974300   -8.491000
  H    -110.332000   42.914400   -7.577020
  C    -109.173000   44.208700   -9.903000
  H    -108.090000   44.282600   -9.805810
  H    -109.547000   44.796700   -9.104360
  C    -109.663000   44.932100  -11.212400
  H    -109.454000   46.010400  -11.099900
  H    -108.975000   44.635700  -12.064400
  C    -111.148000   44.659300  -11.402400
  H    -111.532000   45.126200  -12.338400
  H    -111.344000   43.617200  -11.394100
  H    -111.704000   45.164300  -10.633000
  S    -112.816000   39.432000   -7.959400
  C    -113.102000   39.068200   -6.299960
  C    -112.017000   39.358800   -5.493240
  C    -110.866000   39.936300   -6.186920
  C    -111.293000   40.221100   -7.472400
  H    -111.954000   39.043500   -4.468540
  C    -109.537000   40.209100   -5.532140
  H    -108.772000   40.642500   -6.222600
  H    -109.153000   39.271800   -5.264200
  C    -109.575000   41.126300   -4.339030
  H    -108.601000   40.905200   -3.858380
  H    -110.281000   40.752300   -3.598020
  C    -109.738000   42.602100   -4.632000
  H    -109.594000   43.084300   -3.671130
  H    -110.682000   42.890200   -5.059900
  H    -108.989000   43.035200   -5.246570
  H    -109.501000   41.995100  -11.638800
  H    -113.960000   38.583300   -5.898240

 Total Charge           Charge          ....    0
 Multiplicity           Mult            ....    1
 Number of Electrons    NEL             ....  134
 Basis Dimension        Dim             ....  322

ORBITAL ENERGIES
----------------

  NO   OCC          E(Eh)            E(eV)
   0   2.0000     -88.964190     -2420.8387
   1   2.0000     -88.963697     -2420.8253
   2   2.0000     -10.320881      -280.8455
   3   2.0000     -10.320356      -280.8312
   4   2.0000     -10.313190      -280.6362
   5   2.0000     -10.304471      -280.3989
   6   2.0000     -10.304105      -280.3889
   7   2.0000     -10.296940      -280.1940
   8   2.0000     -10.294071      -280.1159
   9   2.0000     -10.292762      -280.0803
  10   2.0000     -10.291633      -280.0496
  11   2.0000     -10.291498      -280.0459
  12   2.0000     -10.288670      -279.9689
  13   2.0000     -10.286996      -279.9234
  14   2.0000     -10.273510      -279.5564
  15   2.0000     -10.270588      -279.4769
  16   2.0000      -8.079902      -219.8653
  17   2.0000      -8.078782      -219.8348
  18   2.0000      -6.038259      -164.3094
  19   2.0000      -6.037255      -164.2821
  20   2.0000      -6.034396      -164.2043
  21   2.0000      -6.033528      -164.1807
  22   2.0000      -6.030660      -164.1026
  23   2.0000      -6.029268      -164.0647
  24   2.0000      -1.008259       -27.4361
  25   2.0000      -0.983175       -26.7536
  26   2.0000      -0.917302       -24.9611
  27   2.0000      -0.909819       -24.7574
  28   2.0000      -0.868219       -23.6254
  29   2.0000      -0.852955       -23.2101
  30   2.0000      -0.845610       -23.0102
  31   2.0000      -0.808002       -21.9868
  32   2.0000      -0.790603       -21.5134
  33   2.0000      -0.778141       -21.1743
  34   2.0000      -0.709274       -19.3003
  35   2.0000      -0.700686       -19.0666
  36   2.0000      -0.694000       -18.8847
  37   2.0000      -0.659026       -17.9330
  38   2.0000      -0.635834       -17.3019
  39   2.0000      -0.612802       -16.6752
  40   2.0000      -0.599885       -16.3237
  41   2.0000      -0.571342       -15.5470
  42   2.0000      -0.559758       -15.2318
  43   2.0000      -0.552386       -15.0312
  44   2.0000      -0.544581       -14.8188
  45   2.0000      -0.532860       -14.4998
  46   2.0000      -0.519244       -14.1294
  47   2.0000      -0.506326       -13.7778
  48   2.0000      -0.501256       -13.6399
  49   2.0000      -0.497368       -13.5341
  50   2.0000      -0.490244       -13.3402
  51   2.0000      -0.476125       -12.9560
  52   2.0000      -0.470322       -12.7981
  53   2.0000      -0.466576       -12.6962
  54   2.0000      -0.462582       -12.5875
  55   2.0000      -0.447915       -12.1884
  56   2.0000      -0.443715       -12.0741
  57   2.0000      -0.438007       -11.9188
  58   2.0000      -0.437002       -11.8914
  59   2.0000      -0.428365       -11.6564
  60   2.0000      -0.423203       -11.5159
  61   2.0000      -0.417849       -11.3703
  62   2.0000      -0.411432       -11.1956
  63   2.0000      -0.343531        -9.3479
  64   2.0000      -0.330438        -8.9917
  65   2.0000      -0.328300        -8.9335
  66   2.0000      -0.286556        -7.7976
  67   0.0000       0.033121         0.9013
  68   0.0000       0.070106         1.9077
  69   0.0000       0.107794         2.9332
  70   0.0000       0.127211         3.4616
  71   0.0000       0.129569         3.5258

MULLIKEN ATOMIC CHARGES
-----------------------
   0 S :    0.118553
   1 C :   -0.114048
   2 C :   -0.129994
   3 C :    0.031586
   4 C :   -0.155017
   5 H :   -0.007727
   6 C :    0.105535
   7 H :    0.042169
   8 H :    0.004027
   9 C :   -0.121417
  10 H :    0.034164
  11 H :    0.037359
  12 C :   -0.021196
  13 H :    0.032817
  14 H :    0.042844
  15 H :    0.023822
  16 S :    0.108286
  17 C :   -0.059065
  18 C :   -0.044890
  19 C :   -0.015815
  20 C :   -0.187551
  21 H :    0.010039
  22 C :    0.095756
  23 H :    0.031395
  24 H :    0.016825
  25 C :   -0.094307
  26 H :    0.024118
  27 H :    0.024010
  28 C :   -0.010066
  29 H :    0.028449
  30 H :    0.045393
  31 H :    0.019092
  32 H :    0.040678
  33 H :    0.044171
Sum of atomic charges:   -0.0000000

LOEWDIN ATOMIC CHARGES
----------------------
   0 S :    0.416922
   1 C :   -0.208119
   2 C :   -0.067650
   3 C :   -0.057386
   4 C :   -0.198334
   5 H :    0.026211
   6 C :   -0.029411
   7 H :    0.034690
   8 H :    0.023514
   9 C :   -0.045358
  10 H :    0.027167
  11 H :    0.024412
  12 C :   -0.063043
  13 H :    0.029266
  14 H :    0.022051
  15 H :    0.025584
  16 S :    0.394426
  17 C :   -0.187524
  18 C :   -0.068448
  19 C :   -0.044427
  20 C :   -0.189724
  21 H :    0.023940
  22 C :   -0.030970
  23 H :    0.038768
  24 H :    0.028430
  25 C :   -0.041252
  26 H :    0.029466
  27 H :    0.021579
  28 C :   -0.060371
  29 H :    0.031906
  30 H :    0.024739
  31 H :    0.020455
  32 H :    0.023905
  33 H :    0.024586

  Mayer bond orders larger than 0.100000
B(  0-S ,  1-C ) :   1.1455 B(  0-S ,  4-C ) :   1.1378 B(  1-C ,  2-C ) :   1.6324
B(  1-C , 32-H ) :   0.9559 B(  2-C ,  3-C ) :   1.2471 B(  2-C ,  6-C ) :   1.0134
B(  3-C ,  4-C ) :   1.5835 B(  3-C ,  5-H ) :   0.9936 B(  4-C , 20-C ) :   1.0684
B(  6-C ,  7-H ) :   0.9341 B(  6-C ,  8-H ) :   0.9374 B(  6-C ,  9-C ) :   1.0667
B(  9-C , 10-H ) :   0.9586 B(  9-C , 11-H ) :   0.9547 B(  9-C , 12-C ) :   1.0746
B( 12-C , 13-H ) :   0.9718 B( 12-C , 14-H ) :   0.9717 B( 12-C , 15-H ) :   0.9729
B( 16-S , 17-C ) :   1.1340 B( 16-S , 20-C ) :   1.1230 B( 17-C , 18-C ) :   1.6444
B( 17-C , 33-H ) :   0.9701 B( 18-C , 19-C ) :   1.1937 B( 18-C , 21-H ) :   0.9827
B( 19-C , 20-C ) :   1.6062 B( 19-C , 22-C ) :   1.0487 B( 22-C , 23-H ) :   0.9318
B( 22-C , 24-H ) :   0.9194 B( 22-C , 25-C ) :   1.0882 B( 25-C , 26-H ) :   0.9491
B( 25-C , 27-H ) :   0.9534 B( 25-C , 28-C ) :   1.0793 B( 28-C , 29-H ) :   0.9662
B( 28-C , 30-H ) :   0.9715 B( 28-C , 31-H ) :   0.9693

Dispersion correction           -0.015145660
FINAL SINGLE POINT ENERGY     -1339.884139352569

DIPOLE MOMENT
-------------
                                X             Y             Z
Electronic contribution:     -9.76181     -21.38990      -6.56467
Nuclear contribution   :     10.07253      21.78990       7.01703
                        -----------------------------------------
Total Dipole Moment    :      0.31072       0.40001       0.45236
                        -----------------------------------------
Magnitude (a.u.)       :      0.67911
Magnitude (Debye)      :      1.72615

Rotational constants in cm-1:     0.020252     0.008955     0.007111
Rotational constants in MHz :   607.145963   268.455579   213.184640

                             ****ORCA TERMINATED NORMALLY****
TOTAL RUN TIME: 0 days 0 hours 0 minutes 22 seconds 459 msec
