                         Program Version 4.2.1 -  RELEASE  -
|  1> ! wB97X-D3 SP def2-SVP
|  2> %pal
|  3> nprocs 24
|  4> end
|  5>
|  6> * xyz 0 1
|  7> S 	 -105.428 	 54.7604 	 -79.1582
|  8> C 	 -105.168 	 54.3862 	 -80.8513
|  9> C 	 -106.328 	 54.4042 	 -81.5441
| 10> C 	 -107.465 	 54.8195 	 -80.7277
| 11> C 	 -107.159 	 55.1004 	 -79.3911
| 12> H 	 -108.355 	 55.1038 	 -81.2111
| 13> C 	 -106.568 	 54.0792 	 -83.0376
| 14> H 	 -107.63 	 53.8495 	 -83.0834
| 15> H 	 -105.958 	 53.2099 	 -83.2244
| 16> C 	 -105.965 	 55.218 	 -83.9724
| 17> H 	 -106.258 	 56.2141 	 -83.652
| 18> H 	 -104.849 	 55.3731 	 -84.0669
| 19> C 	 -106.374 	 55.0719 	 -85.4947
| 20> H 	 -107.439 	 55.0684 	 -85.6357
| 21> H 	 -105.93 	 55.9223 	 -86.0732
| 22> H 	 -105.882 	 54.1186 	 -85.9109
| 23> S 	 -107.403 	 57.5038 	 -78.322
| 24> C 	 -108.772 	 57.8488 	 -77.3319
| 25> C 	 -109.612 	 56.766 	 -77.2011
| 26> C 	 -109.128 	 55.5377 	 -77.7777
| 27> C 	 -107.944 	 55.859 	 -78.4892
| 28> H 	 -110.554 	 56.8959 	 -76.7512
| 29> C 	 -109.907 	 54.1977 	 -77.9199
| 30> H 	 -109.75 	 53.7548 	 -76.9477
| 31> H 	 -109.397 	 53.6102 	 -78.6438
| 32> C 	 -111.35 	 54.274 	 -78.4861
| 33> H 	 -111.963 	 54.8761 	 -77.7448
| 34> H 	 -111.886 	 53.3234 	 -78.4424
| 35> C 	 -111.381 	 54.8963 	 -79.8633
| 36> H 	 -112.402 	 55.0012 	 -80.2624
| 37> H 	 -110.761 	 54.2883 	 -80.593
| 38> H 	 -110.849 	 55.8644 	 -79.7618
| 39> H 	 -104.182 	 54.0558 	 -81.3662
| 40> H 	 -109.168 	 58.7166 	 -76.8808
| 41> *
| 42>
| 43>                          ****END OF INPUT****

CARTESIAN COORDINATES (ANGSTROEM)
---------------------------------
  S    -105.428000   54.760400  -79.158200
  C    -105.168000   54.386200  -80.851300
  C    -106.328000   54.404200  -81.544100
  C    -107.465000   54.819500  -80.727700
  C    -107.159000   55.100400  -79.391100
  H    -108.355000   55.103800  -81.211100
  C    -106.568000   54.079200  -83.037600
  H    -107.630000   53.849500  -83.083400
  H    -105.958000   53.209900  -83.224400
  C    -105.965000   55.218000  -83.972400
  H    -106.258000   56.214100  -83.652000
  H    -104.849000   55.373100  -84.066900
  C    -106.374000   55.071900  -85.494700
  H    -107.439000   55.068400  -85.635700
  H    -105.930000   55.922300  -86.073200
  H    -105.882000   54.118600  -85.910900
  S    -107.403000   57.503800  -78.322000
  C    -108.772000   57.848800  -77.331900
  C    -109.612000   56.766000  -77.201100
  C    -109.128000   55.537700  -77.777700
  C    -107.944000   55.859000  -78.489200
  H    -110.554000   56.895900  -76.751200
  C    -109.907000   54.197700  -77.919900
  H    -109.750000   53.754800  -76.947700
  H    -109.397000   53.610200  -78.643800
  C    -111.350000   54.274000  -78.486100
  H    -111.963000   54.876100  -77.744800
  H    -111.886000   53.323400  -78.442400
  C    -111.381000   54.896300  -79.863300
  H    -112.402000   55.001200  -80.262400
  H    -110.761000   54.288300  -80.593000
  H    -110.849000   55.864400  -79.761800
  H    -104.182000   54.055800  -81.366200
  H    -109.168000   58.716600  -76.880800

 Total Charge           Charge          ....    0
 Multiplicity           Mult            ....    1
 Number of Electrons    NEL             ....  134
 Basis Dimension        Dim             ....  322

ORBITAL ENERGIES
----------------

  NO   OCC          E(Eh)            E(eV)
   0   2.0000     -88.970348     -2421.0063
   1   2.0000     -88.963822     -2420.8287
   2   2.0000     -10.328569      -281.0547
   3   2.0000     -10.324165      -280.9348
   4   2.0000     -10.318063      -280.7688
   5   2.0000     -10.309636      -280.5395
   6   2.0000     -10.309609      -280.5387
   7   2.0000     -10.301658      -280.3224
   8   2.0000     -10.298645      -280.2404
   9   2.0000     -10.297917      -280.2206
  10   2.0000     -10.293505      -280.1005
  11   2.0000     -10.293371      -280.0969
  12   2.0000     -10.292908      -280.0843
  13   2.0000     -10.288843      -279.9736
  14   2.0000     -10.287935      -279.9489
  15   2.0000     -10.284438      -279.8538
  16   2.0000      -8.085284      -220.0118
  17   2.0000      -8.078105      -219.8164
  18   2.0000      -6.043770      -164.4593
  19   2.0000      -6.039768      -164.3504
  20   2.0000      -6.036808      -164.2699
  21   2.0000      -6.036017      -164.2484
  22   2.0000      -6.032617      -164.1559
  23   2.0000      -6.028709      -164.0495
  24   2.0000      -1.007219       -27.4078
  25   2.0000      -0.980588       -26.6831
  26   2.0000      -0.909115       -24.7383
  27   2.0000      -0.901169       -24.5221
  28   2.0000      -0.870780       -23.6951
  29   2.0000      -0.848538       -23.0899
  30   2.0000      -0.841578       -22.9005
  31   2.0000      -0.812372       -22.1058
  32   2.0000      -0.781452       -21.2644
  33   2.0000      -0.769559       -20.9408
  34   2.0000      -0.710176       -19.3249
  35   2.0000      -0.698979       -19.0202
  36   2.0000      -0.695109       -18.9149
  37   2.0000      -0.655225       -17.8296
  38   2.0000      -0.632254       -17.2045
  39   2.0000      -0.620331       -16.8801
  40   2.0000      -0.590439       -16.0667
  41   2.0000      -0.564081       -15.3494
  42   2.0000      -0.560721       -15.2580
  43   2.0000      -0.552881       -15.0446
  44   2.0000      -0.543273       -14.7832
  45   2.0000      -0.526288       -14.3210
  46   2.0000      -0.511715       -13.9245
  47   2.0000      -0.508898       -13.8478
  48   2.0000      -0.501312       -13.6414
  49   2.0000      -0.496475       -13.5098
  50   2.0000      -0.485990       -13.2245
  51   2.0000      -0.475928       -12.9507
  52   2.0000      -0.471644       -12.8341
  53   2.0000      -0.461167       -12.5490
  54   2.0000      -0.455111       -12.3842
  55   2.0000      -0.450054       -12.2466
  56   2.0000      -0.448958       -12.2168
  57   2.0000      -0.440773       -11.9941
  58   2.0000      -0.436788       -11.8856
  59   2.0000      -0.425728       -11.5847
  60   2.0000      -0.418055       -11.3759
  61   2.0000      -0.411761       -11.2046
  62   2.0000      -0.407467       -11.0877
  63   2.0000      -0.341012        -9.2794
  64   2.0000      -0.330103        -8.9826
  65   2.0000      -0.322203        -8.7676
  66   2.0000      -0.300274        -8.1709
  67   0.0000       0.035255         0.9593
  68   0.0000       0.058730         1.5981
  69   0.0000       0.116745         3.1768
  70   0.0000       0.118019         3.2115
  71   0.0000       0.132087         3.5943

MULLIKEN ATOMIC CHARGES
-----------------------
   0 S :    0.105370
   1 C :   -0.152374
   2 C :   -0.125687
   3 C :    0.066033
   4 C :   -0.167207
   5 H :   -0.002337
   6 C :    0.109262
   7 H :    0.033767
   8 H :    0.029285
   9 C :   -0.102437
  10 H :    0.028152
  11 H :    0.041062
  12 C :   -0.089980
  13 H :    0.037604
  14 H :    0.042394
  15 H :    0.041519
  16 S :    0.147734
  17 C :   -0.045315
  18 C :   -0.062596
  19 C :   -0.047356
  20 C :   -0.195140
  21 H :    0.000532
  22 C :    0.105649
  23 H :    0.041397
  24 H :    0.016387
  25 C :   -0.084878
  26 H :    0.027239
  27 H :    0.033509
  28 C :   -0.074419
  29 H :    0.047093
  30 H :    0.034395
  31 H :    0.054723
  32 H :    0.075671
  33 H :    0.030949
Sum of atomic charges:   -0.0000000

LOEWDIN ATOMIC CHARGES
----------------------
   0 S :    0.388759
   1 C :   -0.210900
   2 C :   -0.072128
   3 C :   -0.053616
   4 C :   -0.197900
   5 H :    0.019656
   6 C :   -0.022531
   7 H :    0.033736
   8 H :    0.032074
   9 C :   -0.046760
  10 H :    0.019505
  11 H :    0.034181
  12 C :   -0.075174
  13 H :    0.017245
  14 H :    0.030256
  15 H :    0.030499
  16 S :    0.438557
  17 C :   -0.197270
  18 C :   -0.068347
  19 C :   -0.047272
  20 C :   -0.208514
  21 H :    0.020731
  22 C :   -0.024505
  23 H :    0.035788
  24 H :    0.025317
  25 C :   -0.046689
  26 H :    0.023428
  27 H :    0.025406
  28 C :   -0.071338
  29 H :    0.029864
  30 H :    0.027430
  31 H :    0.032898
  32 H :    0.051371
  33 H :    0.026241

  Mayer bond orders larger than 0.100000
B(  0-S ,  1-C ) :   1.1249 B(  0-S ,  4-C ) :   1.1379 B(  1-C ,  2-C ) :   1.6544
B(  1-C , 32-H ) :   0.9504 B(  2-C ,  3-C ) :   1.2439 B(  2-C ,  6-C ) :   1.0115
B(  3-C ,  4-C ) :   1.5712 B(  3-C ,  5-H ) :   0.9873 B(  4-C , 20-C ) :   1.0495
B(  6-C ,  7-H ) :   0.9502 B(  6-C ,  8-H ) :   0.9376 B(  6-C ,  9-C ) :   1.0350
B(  9-C , 10-H ) :   0.9636 B(  9-C , 11-H ) :   0.9610 B(  9-C , 12-C ) :   1.0746
B( 12-C , 13-H ) :   0.9800 B( 12-C , 14-H ) :   0.9762 B( 12-C , 15-H ) :   0.9766
B( 16-S , 17-C ) :   1.1392 B( 16-S , 20-C ) :   1.1666 B( 17-C , 18-C ) :   1.6420
B( 17-C , 33-H ) :   0.9657 B( 18-C , 19-C ) :   1.2290 B( 18-C , 21-H ) :   0.9889
B( 19-C , 20-C ) :   1.5635 B( 19-C , 22-C ) :   1.0294 B( 22-C , 23-H ) :   0.9300
B( 22-C , 24-H ) :   0.9384 B( 22-C , 25-C ) :   1.0610 B( 25-C , 26-H ) :   0.9535
B( 25-C , 27-H ) :   0.9551 B( 25-C , 28-C ) :   1.0697 B( 28-C , 29-H ) :   0.9705
B( 28-C , 30-H ) :   0.9701 B( 28-C , 31-H ) :   0.9722

Dispersion correction           -0.014858159
FINAL SINGLE POINT ENERGY     -1339.857607735420

DIPOLE MOMENT
-------------
                                X             Y             Z
Electronic contribution:     13.56204       7.52708      20.98377
Nuclear contribution   :    -14.03406      -7.58473     -21.44433
                        -----------------------------------------
Total Dipole Moment    :     -0.47202      -0.05765      -0.46056
                        -----------------------------------------
Magnitude (a.u.)       :      0.66200
Magnitude (Debye)      :      1.68267

Rotational constants in cm-1:     0.019045     0.008184     0.006997
Rotational constants in MHz :   570.966482   245.343873   209.761949

                             ****ORCA TERMINATED NORMALLY****
TOTAL RUN TIME: 0 days 0 hours 0 minutes 21 seconds 596 msec
