                         Program Version 4.2.1 -  RELEASE  -
|  1> ! wB97X-D3 SP def2-SVP
|  2> %pal
|  3> nprocs 24
|  4> end
|  5>
|  6> * xyz 0 1
|  7> S 	 -108.117 	 0.444756 	 -107.027
|  8> C 	 -109.399 	 1.01111 	 -106.054
|  9> C 	 -110.378 	 1.74609 	 -106.665
| 10> C 	 -109.909 	 2.04108 	 -107.981
| 11> C 	 -108.818 	 1.26311 	 -108.434
| 12> H 	 -110.44 	 2.6282 	 -108.717
| 13> C 	 -111.711 	 2.28806 	 -106.043
| 14> H 	 -111.402 	 3.26749 	 -105.718
| 15> H 	 -111.991 	 1.75154 	 -105.04
| 16> C 	 -112.866 	 2.2433 	 -106.972
| 17> H 	 -113.768 	 2.47865 	 -106.401
| 18> H 	 -112.57 	 3.06239 	 -107.599
| 19> C 	 -113.068 	 0.894245 	 -107.734
| 20> H 	 -112.191 	 0.70509 	 -108.315
| 21> H 	 -113.226 	 0.0897959 	 -107.047
| 22> H 	 -113.906 	 1.07414 	 -108.37
| 23> S 	 -106.435 	 2.34815 	 -109.69
| 24> C 	 -106.296 	 2.0561 	 -111.427
| 25> C 	 -107.388 	 1.37236 	 -111.906
| 26> C 	 -108.305 	 0.983628 	 -110.901
| 27> C 	 -107.973 	 1.36852 	 -109.671
| 28> H 	 -107.556 	 1.21692 	 -112.951
| 29> C 	 -109.638 	 0.317104 	 -111.264
| 30> H 	 -110.311 	 0.190712 	 -110.395
| 31> H 	 -109.402 	 -0.711413 	 -111.583
| 32> C 	 -110.444 	 0.855963 	 -112.451
| 33> H 	 -111.333 	 0.188699 	 -112.527
| 34> H 	 -109.781 	 0.849576 	 -113.366
| 35> C 	 -110.954 	 2.30706 	 -112.264
| 36> H 	 -110.293 	 3.05272 	 -111.897
| 37> H 	 -111.743 	 2.33347 	 -111.596
| 38> H 	 -111.415 	 2.6973 	 -113.168
| 39> H 	 -109.492 	 0.713819 	 -105.049
| 40> H 	 -105.437 	 2.37694 	 -112.051
| 41> *
| 42>
| 43>                          ****END OF INPUT****

CARTESIAN COORDINATES (ANGSTROEM)
---------------------------------
  S    -108.117000    0.444756  -107.027000
  C    -109.399000    1.011110  -106.054000
  C    -110.378000    1.746090  -106.665000
  C    -109.909000    2.041080  -107.981000
  C    -108.818000    1.263110  -108.434000
  H    -110.440000    2.628200  -108.717000
  C    -111.711000    2.288060  -106.043000
  H    -111.402000    3.267490  -105.718000
  H    -111.991000    1.751540  -105.040000
  C    -112.866000    2.243300  -106.972000
  H    -113.768000    2.478650  -106.401000
  H    -112.570000    3.062390  -107.599000
  C    -113.068000    0.894245  -107.734000
  H    -112.191000    0.705090  -108.315000
  H    -113.226000    0.089796  -107.047000
  H    -113.906000    1.074140  -108.370000
  S    -106.435000    2.348150  -109.690000
  C    -106.296000    2.056100  -111.427000
  C    -107.388000    1.372360  -111.906000
  C    -108.305000    0.983628  -110.901000
  C    -107.973000    1.368520  -109.671000
  H    -107.556000    1.216920  -112.951000
  C    -109.638000    0.317104  -111.264000
  H    -110.311000    0.190712  -110.395000
  H    -109.402000   -0.711413  -111.583000
  C    -110.444000    0.855963  -112.451000
  H    -111.333000    0.188699  -112.527000
  H    -109.781000    0.849576  -113.366000
  C    -110.954000    2.307060  -112.264000
  H    -110.293000    3.052720  -111.897000
  H    -111.743000    2.333470  -111.596000
  H    -111.415000    2.697300  -113.168000
  H    -109.492000    0.713819  -105.049000
  H    -105.437000    2.376940  -112.051000

 Total Charge           Charge          ....    0
 Multiplicity           Mult            ....    1
 Number of Electrons    NEL             ....  134
 Basis Dimension        Dim             ....  322

ORBITAL ENERGIES
----------------

  NO   OCC          E(Eh)            E(eV)
   0   2.0000     -88.964129     -2420.8370
   1   2.0000     -88.963682     -2420.8248
   2   2.0000     -10.332179      -281.1529
   3   2.0000     -10.325748      -280.9779
   4   2.0000     -10.323304      -280.9114
   5   2.0000     -10.305638      -280.4307
   6   2.0000     -10.302523      -280.3459
   7   2.0000     -10.301204      -280.3100
   8   2.0000     -10.300105      -280.2801
   9   2.0000     -10.297457      -280.2080
  10   2.0000     -10.296703      -280.1875
  11   2.0000     -10.292371      -280.0697
  12   2.0000     -10.290366      -280.0151
  13   2.0000     -10.285452      -279.8814
  14   2.0000     -10.274114      -279.5729
  15   2.0000     -10.266446      -279.3642
  16   2.0000      -8.079446      -219.8529
  17   2.0000      -8.077262      -219.7935
  18   2.0000      -6.037746      -164.2954
  19   2.0000      -6.035937      -164.2462
  20   2.0000      -6.033892      -164.1905
  21   2.0000      -6.032117      -164.1423
  22   2.0000      -6.030377      -164.0949
  23   2.0000      -6.027704      -164.0222
  24   2.0000      -1.002719       -27.2854
  25   2.0000      -0.984703       -26.7951
  26   2.0000      -0.916633       -24.9429
  27   2.0000      -0.904910       -24.6239
  28   2.0000      -0.865077       -23.5399
  29   2.0000      -0.847193       -23.0533
  30   2.0000      -0.842137       -22.9157
  31   2.0000      -0.812342       -22.1049
  32   2.0000      -0.790838       -21.5198
  33   2.0000      -0.782145       -21.2833
  34   2.0000      -0.704985       -19.1836
  35   2.0000      -0.694133       -18.8883
  36   2.0000      -0.689088       -18.7510
  37   2.0000      -0.657848       -17.9009
  38   2.0000      -0.642081       -17.4719
  39   2.0000      -0.617824       -16.8118
  40   2.0000      -0.599084       -16.3019
  41   2.0000      -0.566866       -15.4252
  42   2.0000      -0.559502       -15.2248
  43   2.0000      -0.550464       -14.9789
  44   2.0000      -0.543051       -14.7772
  45   2.0000      -0.542636       -14.7659
  46   2.0000      -0.518265       -14.1027
  47   2.0000      -0.507238       -13.8026
  48   2.0000      -0.495587       -13.4856
  49   2.0000      -0.491447       -13.3730
  50   2.0000      -0.488054       -13.2806
  51   2.0000      -0.482975       -13.1424
  52   2.0000      -0.469657       -12.7800
  53   2.0000      -0.465067       -12.6551
  54   2.0000      -0.464576       -12.6418
  55   2.0000      -0.448456       -12.2031
  56   2.0000      -0.447672       -12.1818
  57   2.0000      -0.440085       -11.9753
  58   2.0000      -0.429976       -11.7003
  59   2.0000      -0.422394       -11.4939
  60   2.0000      -0.418178       -11.3792
  61   2.0000      -0.417921       -11.3722
  62   2.0000      -0.411369       -11.1939
  63   2.0000      -0.337349        -9.1797
  64   2.0000      -0.331118        -9.0102
  65   2.0000      -0.324354        -8.8261
  66   2.0000      -0.305971        -8.3259
  67   0.0000       0.039478         1.0743
  68   0.0000       0.058412         1.5895
  69   0.0000       0.112207         3.0533
  70   0.0000       0.123623         3.3640
  71   0.0000       0.126874         3.4524

MULLIKEN ATOMIC CHARGES
-----------------------
   0 S :    0.115552
   1 C :   -0.099182
   2 C :   -0.114462
   3 C :    0.035246
   4 C :   -0.211567
   5 H :    0.011489
   6 C :    0.058344
   7 H :    0.043104
   8 H :    0.029387
   9 C :   -0.095013
  10 H :    0.036626
  11 H :    0.026147
  12 C :   -0.008471
  13 H :    0.037616
  14 H :    0.032857
  15 H :    0.033522
  16 S :    0.099528
  17 C :   -0.104451
  18 C :   -0.023605
  19 C :   -0.001594
  20 C :   -0.159855
  21 H :    0.009714
  22 C :    0.061435
  23 H :    0.036529
  24 H :    0.032839
  25 C :   -0.101133
  26 H :    0.044710
  27 H :    0.038836
  28 C :   -0.018856
  29 H :    0.033889
  30 H :   -0.001444
  31 H :    0.024202
  32 H :    0.025011
  33 H :    0.073054
Sum of atomic charges:    0.0000000

LOEWDIN ATOMIC CHARGES
----------------------
   0 S :    0.418807
   1 C :   -0.194888
   2 C :   -0.069094
   3 C :   -0.053485
   4 C :   -0.194063
   5 H :    0.025717
   6 C :   -0.032136
   7 H :    0.032032
   8 H :    0.033551
   9 C :   -0.046320
  10 H :    0.028768
  11 H :    0.022472
  12 C :   -0.050145
  13 H :    0.023165
  14 H :    0.025423
  15 H :    0.025599
  16 S :    0.362455
  17 C :   -0.172056
  18 C :   -0.073201
  19 C :   -0.057609
  20 C :   -0.186920
  21 H :    0.027307
  22 C :   -0.034353
  23 H :    0.030941
  24 H :    0.036560
  25 C :   -0.038329
  26 H :    0.035148
  27 H :    0.025150
  28 C :   -0.068608
  29 H :    0.023211
  30 H :    0.013244
  31 H :    0.027756
  32 H :    0.014874
  33 H :    0.039028

  Mayer bond orders larger than 0.100000
B(  0-S ,  1-C ) :   1.1779 B(  0-S ,  4-C ) :   1.1484 B(  1-C ,  2-C ) :   1.6201
B(  1-C , 32-H ) :   0.9613 B(  2-C ,  3-C ) :   1.2433 B(  2-C ,  6-C ) :   0.9870
B(  3-C ,  4-C ) :   1.5870 B(  3-C ,  5-H ) :   0.9815 B(  4-C , 20-C ) :   1.0037
B(  6-C ,  7-H ) :   0.9471 B(  6-C ,  8-H ) :   0.9442 B(  6-C ,  9-C ) :   1.0626
B(  9-C , 10-H ) :   0.9551 B(  9-C , 11-H ) :   0.9529 B(  9-C , 12-C ) :   1.0811
B( 12-C , 13-H ) :   0.9688 B( 12-C , 14-H ) :   0.9732 B( 12-C , 15-H ) :   0.9732
B( 16-S , 17-C ) :   1.1457 B( 16-S , 20-C ) :   1.1014 B( 17-C , 18-C ) :   1.6319
B( 17-C , 33-H ) :   0.9609 B( 18-C , 19-C ) :   1.2165 B( 18-C , 21-H ) :   0.9931
B( 19-C , 20-C ) :   1.6763 B( 19-C , 22-C ) :   1.0344 B( 22-C , 23-H ) :   0.9368
B( 22-C , 24-H ) :   0.9244 B( 22-C , 25-C ) :   1.0809 B( 25-C , 26-H ) :   0.9528
B( 25-C , 27-H ) :   0.9533 B( 25-C , 28-C ) :   1.0720 B( 28-C , 29-H ) :   0.9768
B( 28-C , 30-H ) :   0.9705 B( 28-C , 31-H ) :   0.9724

Dispersion correction           -0.015670154
FINAL SINGLE POINT ENERGY     -1339.866942346678

DIPOLE MOMENT
-------------
                                X             Y             Z
Electronic contribution:     27.65191      -1.37789       8.05641
Nuclear contribution   :    -28.34947       1.49670      -8.28231
                        -----------------------------------------
Total Dipole Moment    :     -0.69756       0.11882      -0.22590
                        -----------------------------------------
Magnitude (a.u.)       :      0.74279
Magnitude (Debye)      :      1.88802

Rotational constants in cm-1:     0.018194     0.010183     0.007367
Rotational constants in MHz :   545.439150   305.268978   220.866483

                             ****ORCA TERMINATED NORMALLY****
TOTAL RUN TIME: 0 days 0 hours 0 minutes 22 seconds 735 msec
