                         Program Version 4.2.1 -  RELEASE  -
|  1> ! wB97X-D3 SP def2-SVP
|  2> %pal
|  3> nprocs 24
|  4> end
|  5>
|  6> * xyz 0 1
|  7> S 	 -19.2448 	 -33.3308 	 -92.2662
|  8> C 	 -17.7797 	 -33.6188 	 -93.0982
|  9> C 	 -17.6904 	 -32.7762 	 -94.262
| 10> C 	 -18.8984 	 -32.0927 	 -94.436
| 11> C 	 -19.8058 	 -32.0978 	 -93.3819
| 12> H 	 -19.0775 	 -31.4258 	 -95.3233
| 13> C 	 -16.6363 	 -32.7047 	 -95.3289
| 14> H 	 -15.8907 	 -32.0585 	 -94.9367
| 15> H 	 -17.2183 	 -32.2027 	 -96.1309
| 16> C 	 -16.0761 	 -34.0514 	 -95.8424
| 17> H 	 -15.3864 	 -33.8133 	 -96.6335
| 18> H 	 -15.4489 	 -34.4559 	 -95.065
| 19> C 	 -17.216 	 -34.9805 	 -96.2893
| 20> H 	 -16.7723 	 -35.8332 	 -96.807
| 21> H 	 -17.9192 	 -35.3742 	 -95.5421
| 22> H 	 -17.9039 	 -34.4523 	 -96.9163
| 23> S 	 -22.4088 	 -32.7014 	 -93.0219
| 24> C 	 -23.635 	 -31.4433 	 -93.2874
| 25> C 	 -23.0356 	 -30.2341 	 -93.4928
| 26> C 	 -21.6385 	 -30.3185 	 -93.5602
| 27> C 	 -21.1233 	 -31.5498 	 -93.2645
| 28> H 	 -23.6882 	 -29.3518 	 -93.5229
| 29> C 	 -20.927 	 -28.9906 	 -93.7641
| 30> H 	 -21.663 	 -28.3782 	 -94.2392
| 31> H 	 -20.0367 	 -29.1526 	 -94.392
| 32> C 	 -20.5554 	 -28.2592 	 -92.4448
| 33> H 	 -19.881 	 -28.8734 	 -91.8818
| 34> H 	 -21.4591 	 -28.362 	 -91.8456
| 35> C 	 -20.1449 	 -26.8148 	 -92.4777
| 36> H 	 -21.0213 	 -26.2364 	 -92.8787
| 37> H 	 -19.2341 	 -26.6909 	 -93.1067
| 38> H 	 -19.9688 	 -26.5217 	 -91.4163
| 39> H 	 -17.2257 	 -34.4073 	 -92.7386
| 40> H 	 -24.7153 	 -31.6691 	 -93.3294
| 41> *
| 42>
| 43>                          ****END OF INPUT****

CARTESIAN COORDINATES (ANGSTROEM)
---------------------------------
  S    -19.244800  -33.330800  -92.266200
  C    -17.779700  -33.618800  -93.098200
  C    -17.690400  -32.776200  -94.262000
  C    -18.898400  -32.092700  -94.436000
  C    -19.805800  -32.097800  -93.381900
  H    -19.077500  -31.425800  -95.323300
  C    -16.636300  -32.704700  -95.328900
  H    -15.890700  -32.058500  -94.936700
  H    -17.218300  -32.202700  -96.130900
  C    -16.076100  -34.051400  -95.842400
  H    -15.386400  -33.813300  -96.633500
  H    -15.448900  -34.455900  -95.065000
  C    -17.216000  -34.980500  -96.289300
  H    -16.772300  -35.833200  -96.807000
  H    -17.919200  -35.374200  -95.542100
  H    -17.903900  -34.452300  -96.916300
  S    -22.408800  -32.701400  -93.021900
  C    -23.635000  -31.443300  -93.287400
  C    -23.035600  -30.234100  -93.492800
  C    -21.638500  -30.318500  -93.560200
  C    -21.123300  -31.549800  -93.264500
  H    -23.688200  -29.351800  -93.522900
  C    -20.927000  -28.990600  -93.764100
  H    -21.663000  -28.378200  -94.239200
  H    -20.036700  -29.152600  -94.392000
  C    -20.555400  -28.259200  -92.444800
  H    -19.881000  -28.873400  -91.881800
  H    -21.459100  -28.362000  -91.845600
  C    -20.144900  -26.814800  -92.477700
  H    -21.021300  -26.236400  -92.878700
  H    -19.234100  -26.690900  -93.106700
  H    -19.968800  -26.521700  -91.416300
  H    -17.225700  -34.407300  -92.738600
  H    -24.715300  -31.669100  -93.329400

 Total Charge           Charge          ....    0
 Multiplicity           Mult            ....    1
 Number of Electrons    NEL             ....  134
 Basis Dimension        Dim             ....  322

ORBITAL ENERGIES
----------------

  NO   OCC          E(Eh)            E(eV)
   0   2.0000     -88.963940     -2420.8319
   1   2.0000     -88.962783     -2420.8004
   2   2.0000     -10.326406      -280.9958
   3   2.0000     -10.323604      -280.9195
   4   2.0000     -10.319835      -280.8170
   5   2.0000     -10.312084      -280.6061
   6   2.0000     -10.302517      -280.3457
   7   2.0000     -10.298342      -280.2321
   8   2.0000     -10.294290      -280.1219
   9   2.0000     -10.291927      -280.0576
  10   2.0000     -10.289336      -279.9871
  11   2.0000     -10.288413      -279.9619
  12   2.0000     -10.287117      -279.9267
  13   2.0000     -10.285265      -279.8763
  14   2.0000     -10.277264      -279.6586
  15   2.0000     -10.274691      -279.5886
  16   2.0000      -8.079404      -219.8518
  17   2.0000      -8.077659      -219.8043
  18   2.0000      -6.037666      -164.2933
  19   2.0000      -6.036254      -164.2548
  20   2.0000      -6.033548      -164.1812
  21   2.0000      -6.032091      -164.1416
  22   2.0000      -6.030660      -164.1026
  23   2.0000      -6.028346      -164.0396
  24   2.0000      -1.011519       -27.5248
  25   2.0000      -0.987825       -26.8801
  26   2.0000      -0.914389       -24.8818
  27   2.0000      -0.907345       -24.6901
  28   2.0000      -0.872312       -23.7368
  29   2.0000      -0.854451       -23.2508
  30   2.0000      -0.848757       -23.0958
  31   2.0000      -0.811707       -22.0877
  32   2.0000      -0.781195       -21.2574
  33   2.0000      -0.771427       -20.9916
  34   2.0000      -0.712402       -19.3855
  35   2.0000      -0.702961       -19.1285
  36   2.0000      -0.688308       -18.7298
  37   2.0000      -0.667106       -18.1529
  38   2.0000      -0.646608       -17.5951
  39   2.0000      -0.613813       -16.7027
  40   2.0000      -0.592253       -16.1160
  41   2.0000      -0.566754       -15.4222
  42   2.0000      -0.564855       -15.3705
  43   2.0000      -0.559385       -15.2216
  44   2.0000      -0.541428       -14.7330
  45   2.0000      -0.524395       -14.2695
  46   2.0000      -0.519313       -14.1312
  47   2.0000      -0.509519       -13.8647
  48   2.0000      -0.505829       -13.7643
  49   2.0000      -0.496407       -13.5079
  50   2.0000      -0.491530       -13.3752
  51   2.0000      -0.485941       -13.2231
  52   2.0000      -0.472566       -12.8592
  53   2.0000      -0.468124       -12.7383
  54   2.0000      -0.455400       -12.3921
  55   2.0000      -0.447837       -12.1863
  56   2.0000      -0.438958       -11.9447
  57   2.0000      -0.434148       -11.8138
  58   2.0000      -0.431144       -11.7320
  59   2.0000      -0.426825       -11.6145
  60   2.0000      -0.420181       -11.4337
  61   2.0000      -0.412539       -11.2257
  62   2.0000      -0.410326       -11.1655
  63   2.0000      -0.351364        -9.5611
  64   2.0000      -0.332650        -9.0519
  65   2.0000      -0.327845        -8.9211
  66   2.0000      -0.285914        -7.7801
  67   0.0000       0.026473         0.7204
  68   0.0000       0.066717         1.8155
  69   0.0000       0.110899         3.0177
  70   0.0000       0.126036         3.4296
  71   0.0000       0.133284         3.6268

MULLIKEN ATOMIC CHARGES
-----------------------
   0 S :    0.098444
   1 C :   -0.111733
   2 C :   -0.102997
   3 C :   -0.007761
   4 C :   -0.159019
   5 H :    0.032942
   6 C :    0.069586
   7 H :    0.038182
   8 H :    0.022098
   9 C :   -0.044665
  10 H :    0.029252
  11 H :    0.024683
  12 C :   -0.044004
  13 H :    0.037341
  14 H :    0.042110
  15 H :    0.016852
  16 S :    0.093247
  17 C :   -0.113487
  18 C :   -0.038693
  19 C :   -0.060606
  20 C :   -0.117297
  21 H :    0.030801
  22 C :    0.100900
  23 H :    0.002334
  24 H :    0.023193
  25 C :   -0.075419
  26 H :    0.019342
  27 H :    0.007802
  28 C :   -0.040977
  29 H :    0.037556
  30 H :    0.044260
  31 H :    0.047380
  32 H :    0.029482
  33 H :    0.068871
Sum of atomic charges:   -0.0000000

LOEWDIN ATOMIC CHARGES
----------------------
   0 S :    0.430571
   1 C :   -0.199785
   2 C :   -0.062993
   3 C :   -0.072974
   4 C :   -0.203518
   5 H :    0.036200
   6 C :   -0.030360
   7 H :    0.031030
   8 H :    0.032425
   9 C :   -0.035648
  10 H :    0.026111
  11 H :    0.020944
  12 C :   -0.066520
  13 H :    0.027655
  14 H :    0.031638
  15 H :    0.022431
  16 S :    0.396597
  17 C :   -0.174230
  18 C :   -0.076281
  19 C :   -0.059436
  20 C :   -0.202733
  21 H :    0.038541
  22 C :   -0.024232
  23 H :    0.022874
  24 H :    0.026900
  25 C :   -0.047667
  26 H :    0.020085
  27 H :    0.022044
  28 C :   -0.067667
  29 H :    0.029764
  30 H :    0.029044
  31 H :    0.036085
  32 H :    0.007732
  33 H :    0.035372

  Mayer bond orders larger than 0.100000
B(  0-S ,  1-C ) :   1.1927 B(  0-S ,  4-C ) :   1.1661 B(  1-C ,  2-C ) :   1.4824
B(  1-C ,  4-C ) :   0.1195 B(  1-C , 32-H ) :   0.9916 B(  2-C ,  3-C ) :   1.3353
B(  2-C ,  6-C ) :   1.0054 B(  3-C ,  4-C ) :   1.5302 B(  3-C ,  5-H ) :   0.9698
B(  4-C , 20-C ) :   1.0460 B(  6-C ,  7-H ) :   0.9279 B(  6-C ,  8-H ) :   0.9445
B(  6-C ,  9-C ) :   1.0847 B(  9-C , 10-H ) :   0.9555 B(  9-C , 11-H ) :   0.9516
B(  9-C , 12-C ) :   1.0697 B( 12-C , 13-H ) :   0.9750 B( 12-C , 14-H ) :   0.9707
B( 12-C , 15-H ) :   0.9765 B( 16-S , 17-C ) :   1.1550 B( 16-S , 20-C ) :   1.1319
B( 17-C , 18-C ) :   1.6102 B( 17-C , 33-H ) :   0.9647 B( 18-C , 19-C ) :   1.2370
B( 18-C , 21-H ) :   0.9870 B( 19-C , 20-C ) :   1.6087 B( 19-C , 22-C ) :   1.0540
B( 22-C , 23-H ) :   0.9270 B( 22-C , 24-H ) :   0.9263 B( 22-C , 25-C ) :   1.0671
B( 25-C , 26-H ) :   0.9522 B( 25-C , 27-H ) :   0.9492 B( 25-C , 28-C ) :   1.0854
B( 28-C , 29-H ) :   0.9725 B( 28-C , 30-H ) :   0.9737 B( 28-C , 31-H ) :   0.9698

Dispersion correction           -0.014170683
FINAL SINGLE POINT ENERGY     -1339.874104312209

DIPOLE MOMENT
-------------
                                X             Y             Z
Electronic contribution:    -13.05921     -12.19754      10.53581
Nuclear contribution   :     13.18847      12.49692     -10.88132
                        -----------------------------------------
Total Dipole Moment    :      0.12927       0.29937      -0.34551
                        -----------------------------------------
Magnitude (a.u.)       :      0.47509
Magnitude (Debye)      :      1.20759

Rotational constants in cm-1:     0.019804     0.008095     0.006716
Rotational constants in MHz :   593.715624   242.673520   201.349744

                             ****ORCA TERMINATED NORMALLY****
TOTAL RUN TIME: 0 days 0 hours 0 minutes 21 seconds 516 msec
