                         Program Version 4.2.1 -  RELEASE  -
|  1> ! wB97X-D3 SP def2-SVP
|  2> %pal
|  3> nprocs 24
|  4> end
|  5>
|  6> * xyz 0 1
|  7> S 	 -41.1654 	 -6.83473 	 3.78893
|  8> C 	 -42.2094 	 -8.11232 	 4.23945
|  9> C 	 -42.8688 	 -7.86734 	 5.41949
| 10> C 	 -42.5638 	 -6.57921 	 5.96037
| 11> C 	 -41.7273 	 -5.86162 	 5.18602
| 12> H 	 -43.0668 	 -6.1625 	 6.89038
| 13> C 	 -43.7915 	 -8.83061 	 6.12749
| 14> H 	 -44.4234 	 -9.24511 	 5.31747
| 15> H 	 -44.4416 	 -8.26733 	 6.75299
| 16> C 	 -43.1513 	 -9.96268 	 6.85766
| 17> H 	 -43.897 	 -10.7492 	 7.05297
| 18> H 	 -42.4565 	 -10.4216 	 6.18949
| 19> C 	 -42.471 	 -9.54905 	 8.1505
| 20> H 	 -43.2523 	 -9.36967 	 8.91213
| 21> H 	 -41.875 	 -10.3654 	 8.6042
| 22> H 	 -42.0549 	 -8.57798 	 8.04244
| 23> S 	 -41.3441 	 -3.37481 	 4.06909
| 24> C 	 -41.0252 	 -2.0259 	 5.17385
| 25> C 	 -40.598 	 -2.53038 	 6.3918
| 26> C 	 -40.7328 	 -3.93817 	 6.54826
| 27> C 	 -41.2581 	 -4.52229 	 5.41938
| 28> H 	 -40.2607 	 -1.78281 	 7.10242
| 29> C 	 -40.6089 	 -4.60943 	 7.88515
| 30> H 	 -39.5408 	 -4.44387 	 8.21122
| 31> H 	 -40.6382 	 -5.6584 	 7.77663
| 32> C 	 -41.6678 	 -4.10479 	 8.90534
| 33> H 	 -42.6359 	 -4.21898 	 8.4486
| 34> H 	 -41.7079 	 -3.05132 	 9.07778
| 35> C 	 -41.6317 	 -4.80341 	 10.2666
| 36> H 	 -40.7786 	 -4.61173 	 10.7456
| 37> H 	 -41.7338 	 -5.91237 	 10.1671
| 38> H 	 -42.4344 	 -4.4276 	 10.8927
| 39> H 	 -42.2982 	 -8.95344 	 3.56209
| 40> H 	 -41.0449 	 -0.951289 	 4.86625
| 41> *
| 42>
| 43>                          ****END OF INPUT****

CARTESIAN COORDINATES (ANGSTROEM)
---------------------------------
  S    -41.165400   -6.834730    3.788930
  C    -42.209400   -8.112320    4.239450
  C    -42.868800   -7.867340    5.419490
  C    -42.563800   -6.579210    5.960370
  C    -41.727300   -5.861620    5.186020
  H    -43.066800   -6.162500    6.890380
  C    -43.791500   -8.830610    6.127490
  H    -44.423400   -9.245110    5.317470
  H    -44.441600   -8.267330    6.752990
  C    -43.151300   -9.962680    6.857660
  H    -43.897000  -10.749200    7.052970
  H    -42.456500  -10.421600    6.189490
  C    -42.471000   -9.549050    8.150500
  H    -43.252300   -9.369670    8.912130
  H    -41.875000  -10.365400    8.604200
  H    -42.054900   -8.577980    8.042440
  S    -41.344100   -3.374810    4.069090
  C    -41.025200   -2.025900    5.173850
  C    -40.598000   -2.530380    6.391800
  C    -40.732800   -3.938170    6.548260
  C    -41.258100   -4.522290    5.419380
  H    -40.260700   -1.782810    7.102420
  C    -40.608900   -4.609430    7.885150
  H    -39.540800   -4.443870    8.211220
  H    -40.638200   -5.658400    7.776630
  C    -41.667800   -4.104790    8.905340
  H    -42.635900   -4.218980    8.448600
  H    -41.707900   -3.051320    9.077780
  C    -41.631700   -4.803410   10.266600
  H    -40.778600   -4.611730   10.745600
  H    -41.733800   -5.912370   10.167100
  H    -42.434400   -4.427600   10.892700
  H    -42.298200   -8.953440    3.562090
  H    -41.044900   -0.951289    4.866250

 Total Charge           Charge          ....    0
 Multiplicity           Mult            ....    1
 Number of Electrons    NEL             ....  134
 Basis Dimension        Dim             ....  322

ORBITAL ENERGIES
----------------

  NO   OCC          E(Eh)            E(eV)
   0   2.0000     -88.963511     -2420.8202
   1   2.0000     -88.961708     -2420.7711
   2   2.0000     -10.326302      -280.9930
   3   2.0000     -10.324104      -280.9332
   4   2.0000     -10.323064      -280.9049
   5   2.0000     -10.310754      -280.5699
   6   2.0000     -10.302188      -280.3368
   7   2.0000     -10.297884      -280.2197
   8   2.0000     -10.296124      -280.1718
   9   2.0000     -10.294636      -280.1313
  10   2.0000     -10.293272      -280.0942
  11   2.0000     -10.285745      -279.8893
  12   2.0000     -10.285545      -279.8839
  13   2.0000     -10.279524      -279.7201
  14   2.0000     -10.275407      -279.6080
  15   2.0000     -10.272099      -279.5180
  16   2.0000      -8.078746      -219.8339
  17   2.0000      -8.076083      -219.7614
  18   2.0000      -6.037243      -164.2817
  19   2.0000      -6.034691      -164.2123
  20   2.0000      -6.033260      -164.1734
  21   2.0000      -6.030733      -164.1046
  22   2.0000      -6.029419      -164.0688
  23   2.0000      -6.026663      -163.9938
  24   2.0000      -1.008287       -27.4369
  25   2.0000      -0.984957       -26.8020
  26   2.0000      -0.918020       -24.9806
  27   2.0000      -0.909128       -24.7386
  28   2.0000      -0.872721       -23.7480
  29   2.0000      -0.854252       -23.2454
  30   2.0000      -0.847941       -23.0736
  31   2.0000      -0.816049       -22.2058
  32   2.0000      -0.784410       -21.3449
  33   2.0000      -0.771276       -20.9875
  34   2.0000      -0.712311       -19.3830
  35   2.0000      -0.704965       -19.1831
  36   2.0000      -0.698171       -18.9982
  37   2.0000      -0.661286       -17.9945
  38   2.0000      -0.641884       -17.4665
  39   2.0000      -0.616490       -16.7755
  40   2.0000      -0.595783       -16.2121
  41   2.0000      -0.571937       -15.5632
  42   2.0000      -0.560117       -15.2416
  43   2.0000      -0.559658       -15.2291
  44   2.0000      -0.537719       -14.6321
  45   2.0000      -0.533028       -14.5044
  46   2.0000      -0.515686       -14.0325
  47   2.0000      -0.513131       -13.9630
  48   2.0000      -0.512329       -13.9412
  49   2.0000      -0.496064       -13.4986
  50   2.0000      -0.487037       -13.2530
  51   2.0000      -0.480912       -13.0863
  52   2.0000      -0.473659       -12.8889
  53   2.0000      -0.469293       -12.7701
  54   2.0000      -0.456325       -12.4172
  55   2.0000      -0.449949       -12.2437
  56   2.0000      -0.446220       -12.1423
  57   2.0000      -0.442623       -12.0444
  58   2.0000      -0.432734       -11.7753
  59   2.0000      -0.427996       -11.6464
  60   2.0000      -0.423508       -11.5242
  61   2.0000      -0.415007       -11.2929
  62   2.0000      -0.409536       -11.1440
  63   2.0000      -0.351640        -9.5686
  64   2.0000      -0.330468        -8.9925
  65   2.0000      -0.328208        -8.9310
  66   2.0000      -0.290743        -7.9115
  67   0.0000       0.030126         0.8198
  68   0.0000       0.066444         1.8080
  69   0.0000       0.110497         3.0068
  70   0.0000       0.118429         3.2226
  71   0.0000       0.126433         3.4404

MULLIKEN ATOMIC CHARGES
-----------------------
   0 S :    0.106424
   1 C :   -0.135692
   2 C :   -0.094256
   3 C :   -0.013790
   4 C :   -0.130075
   5 H :    0.037419
   6 C :    0.074787
   7 H :    0.028376
   8 H :    0.003547
   9 C :   -0.029562
  10 H :    0.026714
  11 H :    0.013046
  12 C :   -0.040341
  13 H :    0.013389
  14 H :    0.046155
  15 H :    0.026100
  16 S :    0.093762
  17 C :   -0.115402
  18 C :   -0.049013
  19 C :   -0.005773
  20 C :   -0.167711
  21 H :    0.022261
  22 C :    0.088851
  23 H :    0.032230
  24 H :    0.010792
  25 C :   -0.071800
  26 H :    0.014162
  27 H :    0.017395
  28 C :    0.003947
  29 H :    0.004330
  30 H :    0.031719
  31 H :    0.030387
  32 H :    0.050623
  33 H :    0.076999
Sum of atomic charges:   -0.0000000

LOEWDIN ATOMIC CHARGES
----------------------
   0 S :    0.398404
   1 C :   -0.201779
   2 C :   -0.067618
   3 C :   -0.071214
   4 C :   -0.179324
   5 H :    0.044375
   6 C :   -0.030822
   7 H :    0.038417
   8 H :    0.020809
   9 C :   -0.040648
  10 H :    0.026045
  11 H :    0.018367
  12 C :   -0.066951
  13 H :    0.025691
  14 H :    0.033234
  15 H :    0.019833
  16 S :    0.377525
  17 C :   -0.179855
  18 C :   -0.072026
  19 C :   -0.054634
  20 C :   -0.188243
  21 H :    0.032468
  22 C :   -0.028290
  23 H :    0.038376
  24 H :    0.022605
  25 C :   -0.036806
  26 H :    0.020421
  27 H :    0.021906
  28 C :   -0.052546
  29 H :    0.005921
  30 H :    0.029636
  31 H :    0.029630
  32 H :    0.026653
  33 H :    0.040437

  Mayer bond orders larger than 0.100000
B(  0-S ,  1-C ) :   1.1448 B(  0-S ,  4-C ) :   1.1359 B(  1-C ,  2-C ) :   1.6103
B(  1-C , 32-H ) :   0.9705 B(  2-C ,  3-C ) :   1.2315 B(  2-C ,  6-C ) :   1.0229
B(  3-C ,  4-C ) :   1.5996 B(  3-C ,  5-H ) :   0.9835 B(  4-C , 20-C ) :   1.0484
B(  6-C ,  7-H ) :   0.9302 B(  6-C ,  8-H ) :   0.9401 B(  6-C ,  9-C ) :   1.0829
B(  9-C , 10-H ) :   0.9515 B(  9-C , 11-H ) :   0.9511 B(  9-C , 12-C ) :   1.0753
B( 12-C , 13-H ) :   0.9695 B( 12-C , 14-H ) :   0.9718 B( 12-C , 15-H ) :   0.9777
B( 16-S , 17-C ) :   1.1400 B( 16-S , 20-C ) :   1.1264 B( 17-C , 18-C ) :   1.6273
B( 17-C , 20-C ) :   0.1031 B( 17-C , 33-H ) :   0.9647 B( 18-C , 19-C ) :   1.1963
B( 18-C , 21-H ) :   0.9930 B( 19-C , 20-C ) :   1.6016 B( 19-C , 22-C ) :   1.0676
B( 22-C , 23-H ) :   0.9238 B( 22-C , 24-H ) :   0.9288 B( 22-C , 25-C ) :   1.0482
B( 25-C , 26-H ) :   0.9515 B( 25-C , 27-H ) :   0.9517 B( 25-C , 28-C ) :   1.0898
B( 28-C , 29-H ) :   0.9734 B( 28-C , 30-H ) :   0.9739 B( 28-C , 31-H ) :   0.9711

Dispersion correction           -0.014999051
FINAL SINGLE POINT ENERGY     -1339.882386653572

DIPOLE MOMENT
-------------
                                X             Y             Z
Electronic contribution:      6.61015      12.39558     -28.13649
Nuclear contribution   :     -6.83396     -12.45923      28.80380
                        -----------------------------------------
Total Dipole Moment    :     -0.22380      -0.06365       0.66731
                        -----------------------------------------
Magnitude (a.u.)       :      0.70671
Magnitude (Debye)      :      1.79632

Rotational constants in cm-1:     0.017418     0.010272     0.006886
Rotational constants in MHz :   522.172454   307.955960   206.448746

                             ****ORCA TERMINATED NORMALLY****
TOTAL RUN TIME: 0 days 0 hours 0 minutes 21 seconds 344 msec
