                         Program Version 4.2.1 -  RELEASE  -
|  1> ! wB97X-D3 SP def2-SVP
|  2> %pal
|  3> nprocs 24
|  4> end
|  5>
|  6> * xyz 0 1
|  7> S 	 -46.5915 	 -50.2208 	 -71.9303
|  8> C 	 -46.3728 	 -51.1566 	 -73.4542
|  9> C 	 -46.0545 	 -52.4616 	 -73.2158
| 10> C 	 -45.9228 	 -52.7417 	 -71.8036
| 11> C 	 -46.1337 	 -51.6397 	 -70.9667
| 12> H 	 -45.6295 	 -53.6182 	 -71.2891
| 13> C 	 -45.8952 	 -53.5895 	 -74.2199
| 14> H 	 -45.0644 	 -54.1998 	 -73.9364
| 15> H 	 -45.5447 	 -53.0783 	 -75.1002
| 16> C 	 -47.1602 	 -54.3359 	 -74.6464
| 17> H 	 -47.9912 	 -53.6159 	 -74.7867
| 18> H 	 -46.8808 	 -54.8758 	 -75.5416
| 19> C 	 -47.5524 	 -55.4348 	 -73.6112
| 20> H 	 -48.4765 	 -55.9064 	 -73.8218
| 21> H 	 -46.8348 	 -56.2574 	 -73.7541
| 22> H 	 -47.6526 	 -55.1593 	 -72.5498
| 23> S 	 -47.1691 	 -50.6268 	 -68.6305
| 24> C 	 -46.2495 	 -50.8782 	 -67.1439
| 25> C 	 -45.0337 	 -51.498 	 -67.3641
| 26> C 	 -44.8843 	 -51.948 	 -68.7334
| 27> C 	 -45.9451 	 -51.4965 	 -69.5401
| 28> H 	 -44.2776 	 -51.5747 	 -66.5754
| 29> C 	 -43.6168 	 -52.5824 	 -69.1956
| 30> H 	 -43.8201 	 -52.9133 	 -70.2233
| 31> H 	 -43.4513 	 -53.4324 	 -68.5711
| 32> C 	 -42.3387 	 -51.7494 	 -69.0645
| 33> H 	 -42.0883 	 -51.3785 	 -68.0182
| 34> H 	 -42.5483 	 -50.8198 	 -69.4967
| 35> C 	 -41.141 	 -52.3293 	 -69.9091
| 36> H 	 -41.2488 	 -52.2028 	 -71.0194
| 37> H 	 -41.0417 	 -53.3981 	 -69.6852
| 38> H 	 -40.1917 	 -51.9402 	 -69.4769
| 39> H 	 -46.5107 	 -50.6789 	 -74.4501
| 40> H 	 -46.4662 	 -50.4961 	 -66.1056
| 41> *
| 42>
| 43>                          ****END OF INPUT****

CARTESIAN COORDINATES (ANGSTROEM)
---------------------------------
  S    -46.591500  -50.220800  -71.930300
  C    -46.372800  -51.156600  -73.454200
  C    -46.054500  -52.461600  -73.215800
  C    -45.922800  -52.741700  -71.803600
  C    -46.133700  -51.639700  -70.966700
  H    -45.629500  -53.618200  -71.289100
  C    -45.895200  -53.589500  -74.219900
  H    -45.064400  -54.199800  -73.936400
  H    -45.544700  -53.078300  -75.100200
  C    -47.160200  -54.335900  -74.646400
  H    -47.991200  -53.615900  -74.786700
  H    -46.880800  -54.875800  -75.541600
  C    -47.552400  -55.434800  -73.611200
  H    -48.476500  -55.906400  -73.821800
  H    -46.834800  -56.257400  -73.754100
  H    -47.652600  -55.159300  -72.549800
  S    -47.169100  -50.626800  -68.630500
  C    -46.249500  -50.878200  -67.143900
  C    -45.033700  -51.498000  -67.364100
  C    -44.884300  -51.948000  -68.733400
  C    -45.945100  -51.496500  -69.540100
  H    -44.277600  -51.574700  -66.575400
  C    -43.616800  -52.582400  -69.195600
  H    -43.820100  -52.913300  -70.223300
  H    -43.451300  -53.432400  -68.571100
  C    -42.338700  -51.749400  -69.064500
  H    -42.088300  -51.378500  -68.018200
  H    -42.548300  -50.819800  -69.496700
  C    -41.141000  -52.329300  -69.909100
  H    -41.248800  -52.202800  -71.019400
  H    -41.041700  -53.398100  -69.685200
  H    -40.191700  -51.940200  -69.476900
  H    -46.510700  -50.678900  -74.450100
  H    -46.466200  -50.496100  -66.105600

 Total Charge           Charge          ....    0
 Multiplicity           Mult            ....    1
 Number of Electrons    NEL             ....  134
 Basis Dimension        Dim             ....  322

ORBITAL ENERGIES
----------------

  NO   OCC          E(Eh)            E(eV)
   0   2.0000     -88.970136     -2421.0005
   1   2.0000     -88.964006     -2420.8337
   2   2.0000     -10.331668      -281.1390
   3   2.0000     -10.329040      -281.0675
   4   2.0000     -10.323304      -280.9114
   5   2.0000     -10.320125      -280.8249
   6   2.0000     -10.305744      -280.4335
   7   2.0000     -10.304149      -280.3901
   8   2.0000     -10.297351      -280.2052
   9   2.0000     -10.293434      -280.0986
  10   2.0000     -10.292390      -280.0702
  11   2.0000     -10.288304      -279.9590
  12   2.0000     -10.287876      -279.9473
  13   2.0000     -10.287822      -279.9459
  14   2.0000     -10.287507      -279.9373
  15   2.0000     -10.274819      -279.5920
  16   2.0000      -8.084269      -219.9841
  17   2.0000      -8.077815      -219.8085
  18   2.0000      -6.042929      -164.4365
  19   2.0000      -6.038924      -164.3275
  20   2.0000      -6.036499      -164.2615
  21   2.0000      -6.034842      -164.2164
  22   2.0000      -6.032539      -164.1537
  23   2.0000      -6.028363      -164.0401
  24   2.0000      -1.001712       -27.2580
  25   2.0000      -0.976871       -26.5820
  26   2.0000      -0.911368       -24.7996
  27   2.0000      -0.908265       -24.7151
  28   2.0000      -0.868162       -23.6239
  29   2.0000      -0.848123       -23.0786
  30   2.0000      -0.839654       -22.8482
  31   2.0000      -0.813327       -22.1318
  32   2.0000      -0.784778       -21.3549
  33   2.0000      -0.769738       -20.9456
  34   2.0000      -0.708021       -19.2662
  35   2.0000      -0.702902       -19.1269
  36   2.0000      -0.694756       -18.9053
  37   2.0000      -0.659946       -17.9580
  38   2.0000      -0.640560       -17.4305
  39   2.0000      -0.612869       -16.6770
  40   2.0000      -0.591343       -16.0913
  41   2.0000      -0.575897       -15.6710
  42   2.0000      -0.562171       -15.2974
  43   2.0000      -0.542417       -14.7599
  44   2.0000      -0.540231       -14.7004
  45   2.0000      -0.519148       -14.1267
  46   2.0000      -0.514771       -14.0076
  47   2.0000      -0.511540       -13.9197
  48   2.0000      -0.502046       -13.6614
  49   2.0000      -0.497029       -13.5249
  50   2.0000      -0.484408       -13.1814
  51   2.0000      -0.481364       -13.0986
  52   2.0000      -0.476245       -12.9593
  53   2.0000      -0.461370       -12.5545
  54   2.0000      -0.457954       -12.4615
  55   2.0000      -0.448906       -12.2154
  56   2.0000      -0.443818       -12.0769
  57   2.0000      -0.433272       -11.7899
  58   2.0000      -0.431762       -11.7488
  59   2.0000      -0.426431       -11.6038
  60   2.0000      -0.420624       -11.4458
  61   2.0000      -0.416976       -11.3465
  62   2.0000      -0.412375       -11.2213
  63   2.0000      -0.350740        -9.5441
  64   2.0000      -0.331165        -9.0115
  65   2.0000      -0.330444        -8.9919
  66   2.0000      -0.287601        -7.8260
  67   0.0000       0.025975         0.7068
  68   0.0000       0.069235         1.8840
  69   0.0000       0.103364         2.8127
  70   0.0000       0.118843         3.2339
  71   0.0000       0.130496         3.5510

MULLIKEN ATOMIC CHARGES
-----------------------
   0 S :    0.085546
   1 C :   -0.146837
   2 C :   -0.081933
   3 C :    0.039252
   4 C :   -0.159065
   5 H :    0.003582
   6 C :    0.088766
   7 H :    0.018055
   8 H :    0.008671
   9 C :   -0.039170
  10 H :    0.041572
  11 H :    0.033503
  12 C :   -0.065003
  13 H :    0.018698
  14 H :    0.023559
  15 H :    0.045845
  16 S :    0.114914
  17 C :   -0.099662
  18 C :   -0.051310
  19 C :   -0.057811
  20 C :   -0.151541
  21 H :    0.028056
  22 C :    0.113790
  23 H :    0.008353
  24 H :    0.020268
  25 C :   -0.083696
  26 H :    0.034720
  27 H :    0.017958
  28 C :   -0.066568
  29 H :    0.060861
  30 H :    0.023988
  31 H :    0.037164
  32 H :    0.062525
  33 H :    0.072951
Sum of atomic charges:   -0.0000000

LOEWDIN ATOMIC CHARGES
----------------------
   0 S :    0.366206
   1 C :   -0.185587
   2 C :   -0.061223
   3 C :   -0.065732
   4 C :   -0.177919
   5 H :    0.023572
   6 C :   -0.030707
   7 H :    0.027708
   8 H :    0.029107
   9 C :   -0.029178
  10 H :    0.029931
  11 H :    0.027463
  12 C :   -0.072826
  13 H :    0.019053
  14 H :    0.025888
  15 H :    0.028274
  16 S :    0.399357
  17 C :   -0.191026
  18 C :   -0.070820
  19 C :   -0.049977
  20 C :   -0.204051
  21 H :    0.034206
  22 C :   -0.034103
  23 H :    0.031439
  24 H :    0.028759
  25 C :   -0.045439
  26 H :    0.031131
  27 H :    0.017725
  28 C :   -0.070066
  29 H :    0.036044
  30 H :    0.021681
  31 H :    0.031878
  32 H :    0.036179
  33 H :    0.043053

  Mayer bond orders larger than 0.100000
B(  0-S ,  1-C ) :   1.1134 B(  0-S ,  4-C ) :   1.1347 B(  1-C ,  2-C ) :   1.6468
B(  1-C , 32-H ) :   0.9649 B(  2-C ,  3-C ) :   1.1973 B(  2-C ,  6-C ) :   1.0226
B(  3-C ,  4-C ) :   1.5993 B(  3-C ,  5-H ) :   0.9926 B(  4-C , 20-C ) :   1.0496
B(  6-C ,  7-H ) :   0.9384 B(  6-C ,  8-H ) :   0.9305 B(  6-C ,  9-C ) :   1.0699
B(  9-C , 10-H ) :   0.9556 B(  9-C , 11-H ) :   0.9556 B(  9-C , 12-C ) :   1.0755
B( 12-C , 13-H ) :   0.9735 B( 12-C , 14-H ) :   0.9764 B( 12-C , 15-H ) :   0.9767
B( 16-S , 17-C ) :   1.1362 B( 16-S , 20-C ) :   1.1299 B( 17-C , 18-C ) :   1.6423
B( 17-C , 33-H ) :   0.9573 B( 18-C , 19-C ) :   1.2184 B( 18-C , 21-H ) :   0.9842
B( 19-C , 20-C ) :   1.5857 B( 19-C , 22-C ) :   1.0649 B( 22-C , 23-H ) :   0.9257
B( 22-C , 24-H ) :   0.9136 B( 22-C , 25-C ) :   1.0615 B( 25-C , 26-H ) :   0.9531
B( 25-C , 27-H ) :   0.9540 B( 25-C , 28-C ) :   1.0723 B( 28-C , 29-H ) :   0.9755
B( 28-C , 30-H ) :   0.9769 B( 28-C , 31-H ) :   0.9740

Dispersion correction           -0.014090314
FINAL SINGLE POINT ENERGY     -1339.875540985320

DIPOLE MOMENT
-------------
                                X             Y             Z
Electronic contribution:    -14.90988      18.76145       9.51450
Nuclear contribution   :     15.40906     -19.18147      -9.62805
                        -----------------------------------------
Total Dipole Moment    :      0.49918      -0.42002      -0.11355
                        -----------------------------------------
Magnitude (a.u.)       :      0.66218
Magnitude (Debye)      :      1.68314

Rotational constants in cm-1:     0.017327     0.008598     0.007089
Rotational constants in MHz :   519.451727   257.773047   212.520569

                             ****ORCA TERMINATED NORMALLY****
TOTAL RUN TIME: 0 days 0 hours 0 minutes 21 seconds 445 msec
