                         Program Version 4.2.1 -  RELEASE  -
|  1> ! wB97X-D3 SP def2-SVP
|  2> %pal
|  3> nprocs 24
|  4> end
|  5>
|  6> * xyz 0 1
|  7> S 	 -77.1381 	 8.67816 	 -104.485
|  8> C 	 -78.6763 	 9.29599 	 -105.049
|  9> C 	 -78.913 	 8.81686 	 -106.317
| 10> C 	 -77.7927 	 8.1729 	 -106.845
| 11> C 	 -76.6318 	 8.21341 	 -106.088
| 12> H 	 -77.5689 	 7.78444 	 -107.861
| 13> C 	 -80.081 	 9.08634 	 -107.239
| 14> H 	 -80.9118 	 9.50613 	 -106.721
| 15> H 	 -80.4825 	 8.08181 	 -107.492
| 16> C 	 -79.8735 	 9.94175 	 -108.432
| 17> H 	 -79.1976 	 9.54507 	 -109.131
| 18> H 	 -80.8134 	 9.85014 	 -108.987
| 19> C 	 -79.5859 	 11.4167 	 -108.14
| 20> H 	 -78.8186 	 11.442 	 -107.323
| 21> H 	 -79.3649 	 11.9534 	 -109.039
| 22> H 	 -80.5497 	 11.9033 	 -107.783
| 23> S 	 -74.649 	 6.39997 	 -105.474
| 24> C 	 -73.3705 	 6.10866 	 -106.678
| 25> C 	 -73.5842 	 6.9017 	 -107.783
| 26> C 	 -74.5853 	 7.85515 	 -107.648
| 27> C 	 -75.3119 	 7.74525 	 -106.485
| 28> H 	 -72.9376 	 6.59609 	 -108.647
| 29> C 	 -74.9593 	 8.62305 	 -108.865
| 30> H 	 -74.0891 	 9.14118 	 -109.222
| 31> H 	 -75.7187 	 9.39054 	 -108.531
| 32> C 	 -75.4223 	 7.9294 	 -110.179
| 33> H 	 -76.3857 	 7.42858 	 -110.12
| 34> H 	 -74.7734 	 7.13701 	 -110.539
| 35> C 	 -75.4043 	 8.99731 	 -111.278
| 36> H 	 -76.1511 	 9.72182 	 -111.196
| 37> H 	 -75.5615 	 8.43063 	 -112.169
| 38> H 	 -74.3986 	 9.47259 	 -111.249
| 39> H 	 -79.4072 	 9.84743 	 -104.431
| 40> H 	 -72.6679 	 5.32956 	 -106.573
| 41> *
| 42>
| 43>                          ****END OF INPUT****

CARTESIAN COORDINATES (ANGSTROEM)
---------------------------------
  S    -77.138100    8.678160  -104.485000
  C    -78.676300    9.295990  -105.049000
  C    -78.913000    8.816860  -106.317000
  C    -77.792700    8.172900  -106.845000
  C    -76.631800    8.213410  -106.088000
  H    -77.568900    7.784440  -107.861000
  C    -80.081000    9.086340  -107.239000
  H    -80.911800    9.506130  -106.721000
  H    -80.482500    8.081810  -107.492000
  C    -79.873500    9.941750  -108.432000
  H    -79.197600    9.545070  -109.131000
  H    -80.813400    9.850140  -108.987000
  C    -79.585900   11.416700  -108.140000
  H    -78.818600   11.442000  -107.323000
  H    -79.364900   11.953400  -109.039000
  H    -80.549700   11.903300  -107.783000
  S    -74.649000    6.399970  -105.474000
  C    -73.370500    6.108660  -106.678000
  C    -73.584200    6.901700  -107.783000
  C    -74.585300    7.855150  -107.648000
  C    -75.311900    7.745250  -106.485000
  H    -72.937600    6.596090  -108.647000
  C    -74.959300    8.623050  -108.865000
  H    -74.089100    9.141180  -109.222000
  H    -75.718700    9.390540  -108.531000
  C    -75.422300    7.929400  -110.179000
  H    -76.385700    7.428580  -110.120000
  H    -74.773400    7.137010  -110.539000
  C    -75.404300    8.997310  -111.278000
  H    -76.151100    9.721820  -111.196000
  H    -75.561500    8.430630  -112.169000
  H    -74.398600    9.472590  -111.249000
  H    -79.407200    9.847430  -104.431000
  H    -72.667900    5.329560  -106.573000

 Total Charge           Charge          ....    0
 Multiplicity           Mult            ....    1
 Number of Electrons    NEL             ....  134
 Basis Dimension        Dim             ....  322

ORBITAL ENERGIES
----------------

  NO   OCC          E(Eh)            E(eV)
   0   2.0000     -88.962784     -2420.8004
   1   2.0000     -88.962288     -2420.7869
   2   2.0000     -10.332678      -281.1665
   3   2.0000     -10.328666      -281.0573
   4   2.0000     -10.318515      -280.7811
   5   2.0000     -10.318298      -280.7752
   6   2.0000     -10.301901      -280.3290
   7   2.0000     -10.299182      -280.2550
   8   2.0000     -10.294982      -280.1407
   9   2.0000     -10.292617      -280.0764
  10   2.0000     -10.291329      -280.0413
  11   2.0000     -10.290713      -280.0245
  12   2.0000     -10.288513      -279.9647
  13   2.0000     -10.282720      -279.8070
  14   2.0000     -10.279288      -279.7136
  15   2.0000     -10.275968      -279.6233
  16   2.0000      -8.077784      -219.8077
  17   2.0000      -8.076221      -219.7652
  18   2.0000      -6.036278      -164.2555
  19   2.0000      -6.034759      -164.2142
  20   2.0000      -6.032288      -164.1469
  21   2.0000      -6.030942      -164.1103
  22   2.0000      -6.028484      -164.0434
  23   2.0000      -6.026880      -163.9997
  24   2.0000      -1.009489       -27.4696
  25   2.0000      -0.987667       -26.8758
  26   2.0000      -0.919720       -25.0269
  27   2.0000      -0.912899       -24.8412
  28   2.0000      -0.872761       -23.7490
  29   2.0000      -0.857872       -23.3439
  30   2.0000      -0.844971       -22.9928
  31   2.0000      -0.813104       -22.1257
  32   2.0000      -0.784125       -21.3371
  33   2.0000      -0.774483       -21.0747
  34   2.0000      -0.711569       -19.3628
  35   2.0000      -0.703379       -19.1399
  36   2.0000      -0.698274       -19.0010
  37   2.0000      -0.662261       -18.0210
  38   2.0000      -0.643979       -17.5236
  39   2.0000      -0.620176       -16.8758
  40   2.0000      -0.602254       -16.3882
  41   2.0000      -0.573445       -15.6042
  42   2.0000      -0.570905       -15.5351
  43   2.0000      -0.561779       -15.2868
  44   2.0000      -0.535918       -14.5831
  45   2.0000      -0.531440       -14.4612
  46   2.0000      -0.520766       -14.1708
  47   2.0000      -0.511540       -13.9197
  48   2.0000      -0.507254       -13.8031
  49   2.0000      -0.500797       -13.6274
  50   2.0000      -0.481992       -13.1157
  51   2.0000      -0.477096       -12.9824
  52   2.0000      -0.475033       -12.9263
  53   2.0000      -0.469407       -12.7732
  54   2.0000      -0.460376       -12.5275
  55   2.0000      -0.449923       -12.2430
  56   2.0000      -0.441448       -12.0124
  57   2.0000      -0.439002       -11.9459
  58   2.0000      -0.432126       -11.7588
  59   2.0000      -0.426704       -11.6112
  60   2.0000      -0.422574       -11.4988
  61   2.0000      -0.416164       -11.3244
  62   2.0000      -0.406261       -11.0549
  63   2.0000      -0.346847        -9.4382
  64   2.0000      -0.331000        -9.0070
  65   2.0000      -0.328840        -8.9482
  66   2.0000      -0.292835        -7.9685
  67   0.0000       0.023802         0.6477
  68   0.0000       0.062893         1.7114
  69   0.0000       0.102402         2.7865
  70   0.0000       0.119952         3.2641
  71   0.0000       0.127039         3.4569

MULLIKEN ATOMIC CHARGES
-----------------------
   0 S :    0.104377
   1 C :   -0.126364
   2 C :   -0.070687
   3 C :    0.020251
   4 C :   -0.178175
   5 H :    0.014394
   6 C :    0.076432
   7 H :   -0.003224
   8 H :    0.033925
   9 C :   -0.039371
  10 H :    0.008039
  11 H :    0.017658
  12 C :   -0.058149
  13 H :    0.056072
  14 H :    0.034784
  15 H :    0.028920
  16 S :    0.074523
  17 C :   -0.083101
  18 C :   -0.072744
  19 C :    0.020176
  20 C :   -0.119922
  21 H :    0.042010
  22 C :    0.024757
  23 H :    0.011338
  24 H :    0.042595
  25 C :   -0.075265
  26 H :    0.027289
  27 H :    0.022717
  28 C :   -0.023847
  29 H :    0.025280
  30 H :    0.026007
  31 H :    0.034481
  32 H :    0.059482
  33 H :    0.045343
Sum of atomic charges:   -0.0000000

LOEWDIN ATOMIC CHARGES
----------------------
   0 S :    0.401817
   1 C :   -0.194035
   2 C :   -0.074534
   3 C :   -0.065116
   4 C :   -0.199050
   5 H :    0.035161
   6 C :   -0.032947
   7 H :    0.023275
   8 H :    0.040724
   9 C :   -0.043788
  10 H :    0.012208
  11 H :    0.028525
  12 C :   -0.065181
  13 H :    0.033829
  14 H :    0.023511
  15 H :    0.030036
  16 S :    0.364996
  17 C :   -0.159507
  18 C :   -0.076337
  19 C :   -0.065742
  20 C :   -0.171405
  21 H :    0.044106
  22 C :   -0.037849
  23 H :    0.028454
  24 H :    0.037742
  25 C :   -0.035663
  26 H :    0.018779
  27 H :    0.022645
  28 C :   -0.051626
  29 H :    0.015319
  30 H :    0.024527
  31 H :    0.030081
  32 H :    0.036923
  33 H :    0.020120

  Mayer bond orders larger than 0.100000
B(  0-S ,  1-C ) :   1.1454 B(  0-S ,  4-C ) :   1.1466 B(  1-C ,  2-C ) :   1.5814
B(  1-C ,  4-C ) :   0.1064 B(  1-C , 32-H ) :   0.9696 B(  2-C ,  3-C ) :   1.2307
B(  2-C ,  6-C ) :   1.0330 B(  3-C ,  4-C ) :   1.5613 B(  3-C ,  5-H ) :   0.9915
B(  4-C , 20-C ) :   1.0470 B(  6-C ,  7-H ) :   0.9362 B(  6-C ,  8-H ) :   0.9277
B(  6-C ,  9-C ) :   1.0858 B(  9-C , 10-H ) :   0.9520 B(  9-C , 11-H ) :   0.9443
B(  9-C , 12-C ) :   1.0708 B( 12-C , 13-H ) :   0.9771 B( 12-C , 14-H ) :   0.9731
B( 12-C , 15-H ) :   0.9731 B( 16-S , 17-C ) :   1.1469 B( 16-S , 20-C ) :   1.1259
B( 17-C , 18-C ) :   1.6254 B( 17-C , 20-C ) :   0.1028 B( 17-C , 33-H ) :   0.9742
B( 18-C , 19-C ) :   1.2089 B( 18-C , 21-H ) :   0.9869 B( 19-C , 20-C ) :   1.6054
B( 19-C , 22-C ) :   1.0669 B( 22-C , 23-H ) :   0.9228 B( 22-C , 24-H ) :   0.9350
B( 22-C , 25-C ) :   1.0604 B( 25-C , 26-H ) :   0.9512 B( 25-C , 27-H ) :   0.9510
B( 25-C , 28-C ) :   1.0780 B( 28-C , 29-H ) :   0.9797 B( 28-C , 30-H ) :   0.9728
B( 28-C , 31-H ) :   0.9739

Dispersion correction           -0.014778212
FINAL SINGLE POINT ENERGY     -1339.857000830274

DIPOLE MOMENT
-------------
                                X             Y             Z
Electronic contribution:     10.94103     -12.47366      27.61012
Nuclear contribution   :    -11.21183      12.43499     -28.53355
                        -----------------------------------------
Total Dipole Moment    :     -0.27080      -0.03867      -0.92342
                        -----------------------------------------
Magnitude (a.u.)       :      0.96309
Magnitude (Debye)      :      2.44798

Rotational constants in cm-1:     0.016489     0.010746     0.006972
Rotational constants in MHz :   494.336200   322.153330   209.008063

                             ****ORCA TERMINATED NORMALLY****
TOTAL RUN TIME: 0 days 0 hours 0 minutes 22 seconds 719 msec
