                         Program Version 4.2.1 -  RELEASE  -
|  1> ! wB97X-D3 SP def2-SVP
|  2> %pal
|  3> nprocs 24
|  4> end
|  5>
|  6> * xyz 0 1
|  7> S 	 -57.2706 	 14.1394 	 -94.4715
|  8> C 	 -56.2051 	 12.8201 	 -93.9732
|  9> C 	 -55.4511 	 13.138 	 -92.8733
| 10> C 	 -55.7909 	 14.4513 	 -92.4467
| 11> C 	 -56.6625 	 15.149 	 -93.2406
| 12> H 	 -55.5115 	 14.8708 	 -91.5703
| 13> C 	 -54.5361 	 12.2174 	 -92.1573
| 14> H 	 -54.5404 	 11.3058 	 -92.7487
| 15> H 	 -55.0048 	 12.0904 	 -91.1998
| 16> C 	 -53.1093 	 12.5605 	 -91.9361
| 17> H 	 -52.5843 	 12.7846 	 -92.8794
| 18> H 	 -53.0212 	 13.5188 	 -91.3911
| 19> C 	 -52.4403 	 11.4347 	 -91.1512
| 20> H 	 -52.3822 	 10.5977 	 -91.8364
| 21> H 	 -51.3887 	 11.7636 	 -90.9242
| 22> H 	 -52.781 	 11.1554 	 -90.1599
| 23> S 	 -58.485 	 17.094 	 -93.9078
| 24> C 	 -58.0045 	 18.7839 	 -93.8112
| 25> C 	 -56.8528 	 18.9794 	 -93.149
| 26> C 	 -56.212 	 17.6901 	 -92.8369
| 27> C 	 -56.9172 	 16.5738 	 -93.2464
| 28> H 	 -56.5031 	 19.9301 	 -92.9232
| 29> C 	 -54.8313 	 17.6098 	 -92.1719
| 30> H 	 -54.8461 	 17.1411 	 -91.1968
| 31> H 	 -54.6694 	 18.6972 	 -92.1688
| 32> C 	 -53.6857 	 17.0866 	 -93.0511
| 33> H 	 -53.7151 	 17.7034 	 -93.9479
| 34> H 	 -53.7475 	 16.0048 	 -93.3595
| 35> C 	 -52.3122 	 17.3881 	 -92.4037
| 36> H 	 -52.1379 	 18.4548 	 -92.1654
| 37> H 	 -51.5047 	 17.135 	 -93.1293
| 38> H 	 -52.2139 	 16.7716 	 -91.5475
| 39> H 	 -56.3006 	 11.8631 	 -94.4847
| 40> H 	 -58.6348 	 19.6262 	 -93.9133
| 41> *
| 42>
| 43>                          ****END OF INPUT****

CARTESIAN COORDINATES (ANGSTROEM)
---------------------------------
  S    -57.270600   14.139400  -94.471500
  C    -56.205100   12.820100  -93.973200
  C    -55.451100   13.138000  -92.873300
  C    -55.790900   14.451300  -92.446700
  C    -56.662500   15.149000  -93.240600
  H    -55.511500   14.870800  -91.570300
  C    -54.536100   12.217400  -92.157300
  H    -54.540400   11.305800  -92.748700
  H    -55.004800   12.090400  -91.199800
  C    -53.109300   12.560500  -91.936100
  H    -52.584300   12.784600  -92.879400
  H    -53.021200   13.518800  -91.391100
  C    -52.440300   11.434700  -91.151200
  H    -52.382200   10.597700  -91.836400
  H    -51.388700   11.763600  -90.924200
  H    -52.781000   11.155400  -90.159900
  S    -58.485000   17.094000  -93.907800
  C    -58.004500   18.783900  -93.811200
  C    -56.852800   18.979400  -93.149000
  C    -56.212000   17.690100  -92.836900
  C    -56.917200   16.573800  -93.246400
  H    -56.503100   19.930100  -92.923200
  C    -54.831300   17.609800  -92.171900
  H    -54.846100   17.141100  -91.196800
  H    -54.669400   18.697200  -92.168800
  C    -53.685700   17.086600  -93.051100
  H    -53.715100   17.703400  -93.947900
  H    -53.747500   16.004800  -93.359500
  C    -52.312200   17.388100  -92.403700
  H    -52.137900   18.454800  -92.165400
  H    -51.504700   17.135000  -93.129300
  H    -52.213900   16.771600  -91.547500
  H    -56.300600   11.863100  -94.484700
  H    -58.634800   19.626200  -93.913300

 Total Charge           Charge          ....    0
 Multiplicity           Mult            ....    1
 Number of Electrons    NEL             ....  134
 Basis Dimension        Dim             ....  322

ORBITAL ENERGIES
----------------

  NO   OCC          E(Eh)            E(eV)
   0   2.0000     -88.962925     -2420.8043
   1   2.0000     -88.962177     -2420.7839
   2   2.0000     -10.327926      -281.0372
   3   2.0000     -10.324296      -280.9384
   4   2.0000     -10.314024      -280.6589
   5   2.0000     -10.312133      -280.6074
   6   2.0000     -10.306403      -280.4515
   7   2.0000     -10.299414      -280.2613
   8   2.0000     -10.292483      -280.0727
   9   2.0000     -10.291191      -280.0376
  10   2.0000     -10.289727      -279.9977
  11   2.0000     -10.287052      -279.9249
  12   2.0000     -10.285538      -279.8837
  13   2.0000     -10.283831      -279.8373
  14   2.0000     -10.282117      -279.7906
  15   2.0000     -10.277374      -279.6616
  16   2.0000      -8.078626      -219.8306
  17   2.0000      -8.076663      -219.7772
  18   2.0000      -6.037072      -164.2771
  19   2.0000      -6.035372      -164.2308
  20   2.0000      -6.033020      -164.1668
  21   2.0000      -6.031326      -164.1207
  22   2.0000      -6.029356      -164.0671
  23   2.0000      -6.027118      -164.0062
  24   2.0000      -1.011447       -27.5229
  25   2.0000      -0.985143       -26.8071
  26   2.0000      -0.925973       -25.1970
  27   2.0000      -0.905805       -24.6482
  28   2.0000      -0.877765       -23.8852
  29   2.0000      -0.852675       -23.2025
  30   2.0000      -0.843895       -22.9636
  31   2.0000      -0.822051       -22.3691
  32   2.0000      -0.785367       -21.3709
  33   2.0000      -0.769818       -20.9478
  34   2.0000      -0.712635       -19.3918
  35   2.0000      -0.700473       -19.0608
  36   2.0000      -0.685915       -18.6647
  37   2.0000      -0.668970       -18.2036
  38   2.0000      -0.647575       -17.6214
  39   2.0000      -0.629482       -17.1291
  40   2.0000      -0.592422       -16.1206
  41   2.0000      -0.580859       -15.8060
  42   2.0000      -0.575375       -15.6568
  43   2.0000      -0.565335       -15.3835
  44   2.0000      -0.531086       -14.4516
  45   2.0000      -0.525750       -14.3064
  46   2.0000      -0.517554       -14.0834
  47   2.0000      -0.510660       -13.8958
  48   2.0000      -0.509599       -13.8669
  49   2.0000      -0.499008       -13.5787
  50   2.0000      -0.493053       -13.4166
  51   2.0000      -0.485037       -13.1985
  52   2.0000      -0.469451       -12.7744
  53   2.0000      -0.464238       -12.6326
  54   2.0000      -0.462613       -12.5883
  55   2.0000      -0.451065       -12.2741
  56   2.0000      -0.443286       -12.0624
  57   2.0000      -0.440888       -11.9972
  58   2.0000      -0.428941       -11.6721
  59   2.0000      -0.422791       -11.5047
  60   2.0000      -0.421763       -11.4768
  61   2.0000      -0.419900       -11.4261
  62   2.0000      -0.403689       -10.9849
  63   2.0000      -0.359578        -9.7846
  64   2.0000      -0.331507        -9.0208
  65   2.0000      -0.328057        -8.9269
  66   2.0000      -0.287452        -7.8220
  67   0.0000       0.022371         0.6088
  68   0.0000       0.083620         2.2754
  69   0.0000       0.098675         2.6851
  70   0.0000       0.123466         3.3597
  71   0.0000       0.125379         3.4117

MULLIKEN ATOMIC CHARGES
-----------------------
   0 S :    0.102868
   1 C :   -0.148755
   2 C :   -0.047173
   3 C :    0.010484
   4 C :   -0.092565
   5 H :   -0.043794
   6 C :    0.097925
   7 H :    0.007785
   8 H :    0.031071
   9 C :   -0.085366
  10 H :    0.033717
  11 H :    0.022932
  12 C :   -0.047387
  13 H :    0.032668
  14 H :    0.031921
  15 H :    0.036733
  16 S :    0.075489
  17 C :   -0.040097
  18 C :   -0.013436
  19 C :   -0.089313
  20 C :   -0.101635
  21 H :   -0.002553
  22 C :    0.042777
  23 H :    0.044597
  24 H :    0.011088
  25 C :   -0.086706
  26 H :    0.023042
  27 H :    0.060325
  28 C :   -0.053627
  29 H :    0.032992
  30 H :    0.037319
  31 H :    0.023225
  32 H :    0.051302
  33 H :    0.042144
Sum of atomic charges:    0.0000000

LOEWDIN ATOMIC CHARGES
----------------------
   0 S :    0.414194
   1 C :   -0.188621
   2 C :   -0.059943
   3 C :   -0.056196
   4 C :   -0.202142
   5 H :    0.008822
   6 C :   -0.032795
   7 H :    0.030961
   8 H :    0.036426
   9 C :   -0.044261
  10 H :    0.029114
  11 H :    0.020840
  12 C :   -0.064464
  13 H :    0.025162
  14 H :    0.032547
  15 H :    0.025797
  16 S :    0.373784
  17 C :   -0.169301
  18 C :   -0.062157
  19 C :   -0.053757
  20 C :   -0.179211
  21 H :    0.022768
  22 C :   -0.036551
  23 H :    0.025304
  24 H :    0.034443
  25 C :   -0.042770
  26 H :    0.024279
  27 H :    0.030255
  28 C :   -0.066223
  29 H :    0.025888
  30 H :    0.030658
  31 H :    0.015243
  32 H :    0.026514
  33 H :    0.025393

  Mayer bond orders larger than 0.100000
B(  0-S ,  1-C ) :   1.1370 B(  0-S ,  4-C ) :   1.1586 B(  1-C ,  2-C ) :   1.5963
B(  1-C , 32-H ) :   0.9693 B(  2-C ,  3-C ) :   1.2301 B(  2-C ,  6-C ) :   1.0283
B(  3-C ,  4-C ) :   1.5570 B(  3-C ,  5-H ) :   1.0230 B(  4-C , 20-C ) :   1.0564
B(  6-C ,  7-H ) :   0.9337 B(  6-C ,  8-H ) :   0.9289 B(  6-C ,  9-C ) :   1.0793
B(  9-C , 10-H ) :   0.9497 B(  9-C , 11-H ) :   0.9498 B(  9-C , 12-C ) :   1.0836
B( 12-C , 13-H ) :   0.9746 B( 12-C , 14-H ) :   0.9717 B( 12-C , 15-H ) :   0.9755
B( 16-S , 17-C ) :   1.1348 B( 16-S , 20-C ) :   1.1068 B( 17-C , 18-C ) :   1.6642
B( 17-C , 33-H ) :   0.9577 B( 18-C , 19-C ) :   1.2118 B( 18-C , 21-H ) :   0.9963
B( 19-C , 20-C ) :   1.6279 B( 19-C , 22-C ) :   1.0288 B( 22-C , 23-H ) :   0.9392
B( 22-C , 24-H ) :   0.9335 B( 22-C , 25-C ) :   1.0672 B( 25-C , 26-H ) :   0.9513
B( 25-C , 27-H ) :   0.9503 B( 25-C , 28-C ) :   1.0856 B( 28-C , 29-H ) :   0.9743
B( 28-C , 30-H ) :   0.9744 B( 28-C , 31-H ) :   0.9761

Dispersion correction           -0.014629986
FINAL SINGLE POINT ENERGY     -1339.869580190749

DIPOLE MOMENT
-------------
                                X             Y             Z
Electronic contribution:    -30.47607       6.21610     -12.73136
Nuclear contribution   :     31.11218      -6.21052      13.16882
                        -----------------------------------------
Total Dipole Moment    :      0.63611       0.00558       0.43746
                        -----------------------------------------
Magnitude (a.u.)       :      0.77203
Magnitude (Debye)      :      1.96236

Rotational constants in cm-1:     0.019689     0.009283     0.006665
Rotational constants in MHz :   590.274482   278.299922   199.810918

                             ****ORCA TERMINATED NORMALLY****
TOTAL RUN TIME: 0 days 0 hours 0 minutes 22 seconds 515 msec
