                         Program Version 4.2.1 -  RELEASE  -
|  1> ! wB97X-D3 SP def2-SVP
|  2> %pal
|  3> nprocs 24
|  4> end
|  5>
|  6> * xyz 0 1
|  7> S 	 -69.0625 	 19.7848 	 -109.103
|  8> C 	 -68.8223 	 18.7936 	 -107.73
|  9> C 	 -67.8488 	 17.8304 	 -107.974
| 10> C 	 -67.4941 	 17.7845 	 -109.353
| 11> C 	 -68.0967 	 18.7185 	 -110.159
| 12> H 	 -66.7998 	 16.9948 	 -109.78
| 13> C 	 -67.3274 	 16.8553 	 -106.938
| 14> H 	 -67.1029 	 15.9376 	 -107.458
| 15> H 	 -68.0525 	 16.573 	 -106.131
| 16> C 	 -66.0938 	 17.3633 	 -106.182
| 17> H 	 -65.2643 	 17.5051 	 -106.915
| 18> H 	 -66.2923 	 18.3889 	 -105.764
| 19> C 	 -65.6103 	 16.4149 	 -105.088
| 20> H 	 -64.6092 	 16.7117 	 -104.762
| 21> H 	 -66.4332 	 16.3207 	 -104.353
| 22> H 	 -65.5752 	 15.4245 	 -105.542
| 23> S 	 -66.6684 	 20.0384 	 -112.144
| 24> C 	 -67.1782 	 19.9848 	 -113.808
| 25> C 	 -68.0915 	 18.989 	 -113.974
| 26> C 	 -68.5776 	 18.4241 	 -112.742
| 27> C 	 -67.9017 	 18.9235 	 -111.612
| 28> H 	 -68.5101 	 18.8635 	 -114.971
| 29> C 	 -69.7622 	 17.4473 	 -112.714
| 30> H 	 -70.6561 	 18.0683 	 -112.701
| 31> H 	 -69.6815 	 16.9567 	 -111.745
| 32> C 	 -69.8222 	 16.4999 	 -113.941
| 33> H 	 -68.8558 	 15.9691 	 -114.05
| 34> H 	 -70.0589 	 17.189 	 -114.753
| 35> C 	 -71.0015 	 15.5405 	 -113.808
| 36> H 	 -70.8235 	 14.7876 	 -113.014
| 37> H 	 -71.0311 	 15.0133 	 -114.71
| 38> H 	 -71.9992 	 16.0213 	 -113.568
| 39> H 	 -69.2064 	 18.8366 	 -106.734
| 40> H 	 -66.7454 	 20.5141 	 -114.6
| 41> *
| 42>
| 43>                          ****END OF INPUT****

CARTESIAN COORDINATES (ANGSTROEM)
---------------------------------
  S    -69.062500   19.784800  -109.103000
  C    -68.822300   18.793600  -107.730000
  C    -67.848800   17.830400  -107.974000
  C    -67.494100   17.784500  -109.353000
  C    -68.096700   18.718500  -110.159000
  H    -66.799800   16.994800  -109.780000
  C    -67.327400   16.855300  -106.938000
  H    -67.102900   15.937600  -107.458000
  H    -68.052500   16.573000  -106.131000
  C    -66.093800   17.363300  -106.182000
  H    -65.264300   17.505100  -106.915000
  H    -66.292300   18.388900  -105.764000
  C    -65.610300   16.414900  -105.088000
  H    -64.609200   16.711700  -104.762000
  H    -66.433200   16.320700  -104.353000
  H    -65.575200   15.424500  -105.542000
  S    -66.668400   20.038400  -112.144000
  C    -67.178200   19.984800  -113.808000
  C    -68.091500   18.989000  -113.974000
  C    -68.577600   18.424100  -112.742000
  C    -67.901700   18.923500  -111.612000
  H    -68.510100   18.863500  -114.971000
  C    -69.762200   17.447300  -112.714000
  H    -70.656100   18.068300  -112.701000
  H    -69.681500   16.956700  -111.745000
  C    -69.822200   16.499900  -113.941000
  H    -68.855800   15.969100  -114.050000
  H    -70.058900   17.189000  -114.753000
  C    -71.001500   15.540500  -113.808000
  H    -70.823500   14.787600  -113.014000
  H    -71.031100   15.013300  -114.710000
  H    -71.999200   16.021300  -113.568000
  H    -69.206400   18.836600  -106.734000
  H    -66.745400   20.514100  -114.600000

 Total Charge           Charge          ....    0
 Multiplicity           Mult            ....    1
 Number of Electrons    NEL             ....  134
 Basis Dimension        Dim             ....  322

ORBITAL ENERGIES
----------------

  NO   OCC          E(Eh)            E(eV)
   0   2.0000     -88.967028     -2420.9159
   1   2.0000     -88.961011     -2420.7522
   2   2.0000     -10.331984      -281.1476
   3   2.0000     -10.327356      -281.0216
   4   2.0000     -10.311959      -280.6027
   5   2.0000     -10.311699      -280.5956
   6   2.0000     -10.306262      -280.4476
   7   2.0000     -10.299269      -280.2574
   8   2.0000     -10.298367      -280.2328
   9   2.0000     -10.294233      -280.1203
  10   2.0000     -10.290574      -280.0208
  11   2.0000     -10.290348      -280.0146
  12   2.0000     -10.288339      -279.9599
  13   2.0000     -10.288001      -279.9507
  14   2.0000     -10.281314      -279.7688
  15   2.0000     -10.278711      -279.6979
  16   2.0000      -8.081582      -219.9110
  17   2.0000      -8.076110      -219.7621
  18   2.0000      -6.040153      -164.3609
  19   2.0000      -6.036015      -164.2483
  20   2.0000      -6.034633      -164.2107
  21   2.0000      -6.032354      -164.1487
  22   2.0000      -6.030437      -164.0965
  23   2.0000      -6.026954      -164.0017
  24   2.0000      -1.004289       -27.3281
  25   2.0000      -0.986209       -26.8361
  26   2.0000      -0.911115       -24.7927
  27   2.0000      -0.907208       -24.6864
  28   2.0000      -0.870087       -23.6763
  29   2.0000      -0.848332       -23.0843
  30   2.0000      -0.845877       -23.0175
  31   2.0000      -0.817980       -22.2584
  32   2.0000      -0.778169       -21.1751
  33   2.0000      -0.767831       -20.8937
  34   2.0000      -0.703752       -19.1501
  35   2.0000      -0.699265       -19.0280
  36   2.0000      -0.691344       -18.8124
  37   2.0000      -0.649601       -17.6765
  38   2.0000      -0.638269       -17.3682
  39   2.0000      -0.619108       -16.8468
  40   2.0000      -0.593399       -16.1472
  41   2.0000      -0.574279       -15.6269
  42   2.0000      -0.571681       -15.5562
  43   2.0000      -0.561138       -15.2693
  44   2.0000      -0.530090       -14.4245
  45   2.0000      -0.528503       -14.3813
  46   2.0000      -0.515027       -14.0146
  47   2.0000      -0.510137       -13.8815
  48   2.0000      -0.508228       -13.8296
  49   2.0000      -0.494494       -13.4559
  50   2.0000      -0.491540       -13.3755
  51   2.0000      -0.476941       -12.9782
  52   2.0000      -0.472568       -12.8592
  53   2.0000      -0.460562       -12.5325
  54   2.0000      -0.459238       -12.4965
  55   2.0000      -0.446450       -12.1485
  56   2.0000      -0.444233       -12.0882
  57   2.0000      -0.437038       -11.8924
  58   2.0000      -0.433970       -11.8089
  59   2.0000      -0.421983       -11.4827
  60   2.0000      -0.420445       -11.4409
  61   2.0000      -0.413240       -11.2448
  62   2.0000      -0.410540       -11.1714
  63   2.0000      -0.336791        -9.1645
  64   2.0000      -0.329944        -8.9782
  65   2.0000      -0.317858        -8.6494
  66   2.0000      -0.310289        -8.4434
  67   0.0000       0.047164         1.2834
  68   0.0000       0.048631         1.3233
  69   0.0000       0.121195         3.2979
  70   0.0000       0.126145         3.4326
  71   0.0000       0.129014         3.5106

MULLIKEN ATOMIC CHARGES
-----------------------
   0 S :    0.128483
   1 C :   -0.083950
   2 C :   -0.102025
   3 C :    0.034803
   4 C :   -0.179304
   5 H :    0.036037
   6 C :    0.042231
   7 H :    0.017653
   8 H :    0.024569
   9 C :   -0.116073
  10 H :    0.028115
  11 H :    0.034491
  12 C :   -0.014398
  13 H :    0.049056
  14 H :    0.031343
  15 H :    0.018763
  16 S :    0.107292
  17 C :   -0.069305
  18 C :   -0.050508
  19 C :   -0.039443
  20 C :   -0.182563
  21 H :    0.024002
  22 C :    0.081389
  23 H :    0.036533
  24 H :    0.027763
  25 C :   -0.115045
  26 H :    0.048293
  27 H :    0.036759
  28 C :   -0.022606
  29 H :    0.030871
  30 H :    0.022968
  31 H :    0.040053
  32 H :    0.034875
  33 H :    0.038879
Sum of atomic charges:    0.0000000

LOEWDIN ATOMIC CHARGES
----------------------
   0 S :    0.415025
   1 C :   -0.200670
   2 C :   -0.070935
   3 C :   -0.060944
   4 C :   -0.200036
   5 H :    0.043072
   6 C :   -0.036516
   7 H :    0.025953
   8 H :    0.031915
   9 C :   -0.048492
  10 H :    0.023441
  11 H :    0.024881
  12 C :   -0.065903
  13 H :    0.031592
  14 H :    0.026953
  15 H :    0.023719
  16 S :    0.411391
  17 C :   -0.173554
  18 C :   -0.082238
  19 C :   -0.047827
  20 C :   -0.215543
  21 H :    0.032200
  22 C :   -0.030873
  23 H :    0.034430
  24 H :    0.028216
  25 C :   -0.040133
  26 H :    0.031979
  27 H :    0.025065
  28 C :   -0.064823
  29 H :    0.027361
  30 H :    0.017661
  31 H :    0.033374
  32 H :    0.029163
  33 H :    0.021098

  Mayer bond orders larger than 0.100000
B(  0-S ,  1-C ) :   1.1582 B(  0-S ,  4-C ) :   1.1346 B(  1-C ,  2-C ) :   1.5968
B(  1-C , 32-H ) :   0.9660 B(  2-C ,  3-C ) :   1.2645 B(  2-C ,  6-C ) :   1.0284
B(  3-C ,  4-C ) :   1.5880 B(  3-C ,  5-H ) :   0.9807 B(  4-C , 20-C ) :   1.0198
B(  6-C ,  7-H ) :   0.9364 B(  6-C ,  8-H ) :   0.9468 B(  6-C ,  9-C ) :   1.0574
B(  9-C , 10-H ) :   0.9535 B(  9-C , 11-H ) :   0.9573 B(  9-C , 12-C ) :   1.0796
B( 12-C , 13-H ) :   0.9728 B( 12-C , 14-H ) :   0.9725 B( 12-C , 15-H ) :   0.9705
B( 16-S , 17-C ) :   1.1663 B( 16-S , 20-C ) :   1.1476 B( 17-C , 18-C ) :   1.6149
B( 17-C , 33-H ) :   0.9696 B( 18-C , 19-C ) :   1.2377 B( 18-C , 21-H ) :   0.9866
B( 19-C , 20-C ) :   1.5960 B( 19-C , 22-C ) :   1.0308 B( 22-C , 23-H ) :   0.9293
B( 22-C , 24-H ) :   0.9365 B( 22-C , 25-C ) :   1.0685 B( 25-C , 26-H ) :   0.9601
B( 25-C , 27-H ) :   0.9438 B( 25-C , 28-C ) :   1.0921 B( 28-C , 29-H ) :   0.9737
B( 28-C , 30-H ) :   0.9725 B( 28-C , 31-H ) :   0.9714

Dispersion correction           -0.013305602
FINAL SINGLE POINT ENERGY     -1339.884751966249

DIPOLE MOMENT
-------------
                                X             Y             Z
Electronic contribution:      2.39995      21.45803      -6.31997
Nuclear contribution   :     -2.49157     -21.98811       6.23457
                        -----------------------------------------
Total Dipole Moment    :     -0.09163      -0.53007      -0.08541
                        -----------------------------------------
Magnitude (a.u.)       :      0.54467
Magnitude (Debye)      :      1.38445

Rotational constants in cm-1:     0.019600     0.006916     0.006046
Rotational constants in MHz :   587.602639   207.336299   181.265367

                             ****ORCA TERMINATED NORMALLY****
TOTAL RUN TIME: 0 days 0 hours 0 minutes 20 seconds 368 msec
