                         Program Version 4.2.1 -  RELEASE  -
|  1> ! wB97X-D3 SP def2-SVP
|  2> %pal
|  3> nprocs 24
|  4> end
|  5>
|  6> * xyz 0 1
|  7> S 	 -91.1493 	 -34.0316 	 -63.9287
|  8> C 	 -92.8482 	 -34.3741 	 -63.7441
|  9> C 	 -93.4208 	 -33.9207 	 -64.9097
| 10> C 	 -92.5721 	 -33.3433 	 -65.8665
| 11> C 	 -91.196 	 -33.3319 	 -65.5281
| 12> H 	 -92.8987 	 -32.9018 	 -66.7355
| 13> C 	 -94.8713 	 -33.9497 	 -65.0808
| 14> H 	 -95.1833 	 -33.0802 	 -65.7105
| 15> H 	 -95.4638 	 -33.6421 	 -64.2223
| 16> C 	 -95.3806 	 -35.3217 	 -65.6122
| 17> H 	 -95.0979 	 -36.1971 	 -64.9263
| 18> H 	 -96.394 	 -35.2588 	 -65.6278
| 19> C 	 -94.8785 	 -35.5925 	 -67.0124
| 20> H 	 -95.1873 	 -34.9048 	 -67.7845
| 21> H 	 -93.8376 	 -35.7683 	 -66.8915
| 22> H 	 -95.4775 	 -36.4826 	 -67.3001
| 23> S 	 -89.2814 	 -31.4653 	 -65.0816
| 24> C 	 -87.8452 	 -31.4528 	 -66.0888
| 25> C 	 -88.0412 	 -32.2492 	 -67.233
| 26> C 	 -89.3144 	 -32.9242 	 -67.2311
| 27> C 	 -90.0356 	 -32.6684 	 -66.0741
| 28> H 	 -87.2076 	 -32.3245 	 -67.9288
| 29> C 	 -89.6776 	 -34.1229 	 -68.1479
| 30> H 	 -90.656 	 -34.452 	 -67.7202
| 31> H 	 -88.9128 	 -34.8813 	 -67.9078
| 32> C 	 -89.6271 	 -33.8677 	 -69.6534
| 33> H 	 -88.6213 	 -33.5396 	 -70.0097
| 34> H 	 -90.2351 	 -33.0277 	 -69.8776
| 35> C 	 -90.1731 	 -35.081 	 -70.4472
| 36> H 	 -91.2395 	 -35.4088 	 -70.2248
| 37> H 	 -89.6206 	 -35.9374 	 -70.0767
| 38> H 	 -90.0963 	 -35.0396 	 -71.4821
| 39> H 	 -93.303 	 -34.7776 	 -62.817
| 40> H 	 -86.9106 	 -30.9419 	 -65.883
| 41> *
| 42>
| 43>                          ****END OF INPUT****

CARTESIAN COORDINATES (ANGSTROEM)
---------------------------------
  S    -91.149300  -34.031600  -63.928700
  C    -92.848200  -34.374100  -63.744100
  C    -93.420800  -33.920700  -64.909700
  C    -92.572100  -33.343300  -65.866500
  C    -91.196000  -33.331900  -65.528100
  H    -92.898700  -32.901800  -66.735500
  C    -94.871300  -33.949700  -65.080800
  H    -95.183300  -33.080200  -65.710500
  H    -95.463800  -33.642100  -64.222300
  C    -95.380600  -35.321700  -65.612200
  H    -95.097900  -36.197100  -64.926300
  H    -96.394000  -35.258800  -65.627800
  C    -94.878500  -35.592500  -67.012400
  H    -95.187300  -34.904800  -67.784500
  H    -93.837600  -35.768300  -66.891500
  H    -95.477500  -36.482600  -67.300100
  S    -89.281400  -31.465300  -65.081600
  C    -87.845200  -31.452800  -66.088800
  C    -88.041200  -32.249200  -67.233000
  C    -89.314400  -32.924200  -67.231100
  C    -90.035600  -32.668400  -66.074100
  H    -87.207600  -32.324500  -67.928800
  C    -89.677600  -34.122900  -68.147900
  H    -90.656000  -34.452000  -67.720200
  H    -88.912800  -34.881300  -67.907800
  C    -89.627100  -33.867700  -69.653400
  H    -88.621300  -33.539600  -70.009700
  H    -90.235100  -33.027700  -69.877600
  C    -90.173100  -35.081000  -70.447200
  H    -91.239500  -35.408800  -70.224800
  H    -89.620600  -35.937400  -70.076700
  H    -90.096300  -35.039600  -71.482100
  H    -93.303000  -34.777600  -62.817000
  H    -86.910600  -30.941900  -65.883000

 Total Charge           Charge          ....    0
 Multiplicity           Mult            ....    1
 Number of Electrons    NEL             ....  134
 Basis Dimension        Dim             ....  322

ORBITAL ENERGIES
----------------

  NO   OCC          E(Eh)            E(eV)
   0   2.0000     -88.967128     -2420.9186
   1   2.0000     -88.961046     -2420.7531
   2   2.0000     -10.332891      -281.1722
   3   2.0000     -10.325472      -280.9704
   4   2.0000     -10.321542      -280.8634
   5   2.0000     -10.317464      -280.7525
   6   2.0000     -10.307262      -280.4749
   7   2.0000     -10.299840      -280.2729
   8   2.0000     -10.295912      -280.1660
   9   2.0000     -10.293869      -280.1104
  10   2.0000     -10.290676      -280.0235
  11   2.0000     -10.288321      -279.9594
  12   2.0000     -10.284310      -279.8503
  13   2.0000     -10.281589      -279.7763
  14   2.0000     -10.276588      -279.6402
  15   2.0000     -10.270420      -279.4723
  16   2.0000      -8.081981      -219.9219
  17   2.0000      -8.076061      -219.7608
  18   2.0000      -6.040455      -164.3691
  19   2.0000      -6.036389      -164.2585
  20   2.0000      -6.034399      -164.2043
  21   2.0000      -6.032820      -164.1614
  22   2.0000      -6.030177      -164.0895
  23   2.0000      -6.027264      -164.0102
  24   2.0000      -1.009972       -27.4827
  25   2.0000      -0.986631       -26.8476
  26   2.0000      -0.915203       -24.9039
  27   2.0000      -0.905011       -24.6266
  28   2.0000      -0.872009       -23.7286
  29   2.0000      -0.849944       -23.1281
  30   2.0000      -0.844517       -22.9805
  31   2.0000      -0.818143       -22.2628
  32   2.0000      -0.780405       -21.2359
  33   2.0000      -0.768950       -20.9242
  34   2.0000      -0.706629       -19.2284
  35   2.0000      -0.701611       -19.0918
  36   2.0000      -0.698275       -19.0010
  37   2.0000      -0.658810       -17.9271
  38   2.0000      -0.646342       -17.5879
  39   2.0000      -0.618573       -16.8322
  40   2.0000      -0.591558       -16.0971
  41   2.0000      -0.582734       -15.8570
  42   2.0000      -0.563063       -15.3217
  43   2.0000      -0.551208       -14.9991
  44   2.0000      -0.537119       -14.6157
  45   2.0000      -0.528878       -14.3915
  46   2.0000      -0.523270       -14.2389
  47   2.0000      -0.516982       -14.0678
  48   2.0000      -0.508618       -13.8402
  49   2.0000      -0.503052       -13.6887
  50   2.0000      -0.486566       -13.2401
  51   2.0000      -0.479308       -13.0426
  52   2.0000      -0.473830       -12.8936
  53   2.0000      -0.466442       -12.6925
  54   2.0000      -0.459369       -12.5001
  55   2.0000      -0.447865       -12.1870
  56   2.0000      -0.438479       -11.9316
  57   2.0000      -0.436647       -11.8818
  58   2.0000      -0.426920       -11.6171
  59   2.0000      -0.422910       -11.5080
  60   2.0000      -0.416065       -11.3217
  61   2.0000      -0.412545       -11.2259
  62   2.0000      -0.400095       -10.8871
  63   2.0000      -0.340632        -9.2691
  64   2.0000      -0.333192        -9.0666
  65   2.0000      -0.324581        -8.8323
  66   2.0000      -0.296844        -8.0775
  67   0.0000       0.026263         0.7146
  68   0.0000       0.064384         1.7520
  69   0.0000       0.115521         3.1435
  70   0.0000       0.124314         3.3827
  71   0.0000       0.130533         3.5520

MULLIKEN ATOMIC CHARGES
-----------------------
   0 S :    0.098411
   1 C :   -0.130925
   2 C :   -0.083289
   3 C :    0.090907
   4 C :   -0.181206
   5 H :   -0.026209
   6 C :    0.023438
   7 H :    0.018782
   8 H :    0.018426
   9 C :   -0.051032
  10 H :    0.040840
  11 H :    0.000689
  12 C :   -0.043368
  13 H :    0.027943
  14 H :    0.051242
  15 H :    0.027078
  16 S :    0.128176
  17 C :   -0.108088
  18 C :   -0.048069
  19 C :    0.000769
  20 C :   -0.166647
  21 H :    0.026040
  22 C :    0.030465
  23 H :    0.040250
  24 H :    0.043936
  25 C :   -0.061198
  26 H :    0.033371
  27 H :    0.019364
  28 C :   -0.033631
  29 H :    0.034943
  30 H :    0.016818
  31 H :    0.025893
  32 H :    0.074128
  33 H :    0.061753
Sum of atomic charges:    0.0000000

LOEWDIN ATOMIC CHARGES
----------------------
   0 S :    0.421211
   1 C :   -0.199378
   2 C :   -0.079439
   3 C :   -0.054335
   4 C :   -0.200717
   5 H :    0.016326
   6 C :   -0.044204
   7 H :    0.033171
   8 H :    0.027668
   9 C :   -0.030903
  10 H :    0.033774
  11 H :    0.005290
  12 C :   -0.064376
  13 H :    0.023213
  14 H :    0.024125
  15 H :    0.031897
  16 S :    0.419845
  17 C :   -0.184888
  18 C :   -0.072708
  19 C :   -0.051117
  20 C :   -0.216721
  21 H :    0.032225
  22 C :   -0.029477
  23 H :    0.035439
  24 H :    0.035935
  25 C :   -0.041243
  26 H :    0.028964
  27 H :    0.017991
  28 C :   -0.065390
  29 H :    0.034104
  30 H :    0.023248
  31 H :    0.015041
  32 H :    0.043879
  33 H :    0.031551

  Mayer bond orders larger than 0.100000
B(  0-S ,  1-C ) :   1.1590 B(  0-S ,  4-C ) :   1.1884 B(  1-C ,  2-C ) :   1.5256
B(  1-C ,  4-C ) :   0.1141 B(  1-C , 32-H ) :   0.9756 B(  2-C ,  3-C ) :   1.3038
B(  2-C ,  6-C ) :   1.0302 B(  3-C ,  4-C ) :   1.4794 B(  3-C ,  5-H ) :   1.0137
B(  4-C , 20-C ) :   1.0381 B(  6-C ,  7-H ) :   0.9424 B(  6-C ,  8-H ) :   0.9434
B(  6-C ,  9-C ) :   1.0680 B(  9-C , 10-H ) :   0.9571 B(  9-C , 11-H ) :   0.9534
B(  9-C , 12-C ) :   1.0835 B( 12-C , 13-H ) :   0.9729 B( 12-C , 14-H ) :   0.9750
B( 12-C , 15-H ) :   0.9706 B( 16-S , 17-C ) :   1.1556 B( 16-S , 20-C ) :   1.1532
B( 17-C , 18-C ) :   1.6138 B( 17-C , 33-H ) :   0.9684 B( 18-C , 19-C ) :   1.2276
B( 18-C , 21-H ) :   0.9904 B( 19-C , 20-C ) :   1.5801 B( 19-C , 22-C ) :   1.0361
B( 22-C , 23-H ) :   0.9373 B( 22-C , 24-H ) :   0.9363 B( 22-C , 25-C ) :   1.0530
B( 25-C , 26-H ) :   0.9534 B( 25-C , 27-H ) :   0.9587 B( 25-C , 28-C ) :   1.0776
B( 28-C , 29-H ) :   0.9747 B( 28-C , 30-H ) :   0.9727 B( 28-C , 31-H ) :   0.9767

Dispersion correction           -0.014224902
FINAL SINGLE POINT ENERGY     -1339.857593782642

DIPOLE MOMENT
-------------
                                X             Y             Z
Electronic contribution:     14.39919      14.09998      21.10048
Nuclear contribution   :    -14.64522     -14.24822     -21.43327
                        -----------------------------------------
Total Dipole Moment    :     -0.24603      -0.14824      -0.33279
                        -----------------------------------------
Magnitude (a.u.)       :      0.43961
Magnitude (Debye)      :      1.11740

Rotational constants in cm-1:     0.017161     0.009661     0.006674
Rotational constants in MHz :   514.474564   289.644380   200.082983

                             ****ORCA TERMINATED NORMALLY****
TOTAL RUN TIME: 0 days 0 hours 0 minutes 21 seconds 736 msec
