                         Program Version 4.2.1 -  RELEASE  -
|  1> ! wB97X-D3 SP def2-SVP
|  2> %pal
|  3> nprocs 24
|  4> end
|  5>
|  6> * xyz 0 1
|  7> S 	 -45.2304 	 10.7768 	 32.5056
|  8> C 	 -44.0016 	 11.1837 	 31.361
|  9> C 	 -44.3596 	 10.9686 	 30.0515
| 10> C 	 -45.6949 	 10.4643 	 29.9723
| 11> C 	 -46.3517 	 10.4157 	 31.2443
| 12> H 	 -46.2843 	 10.1446 	 29.1088
| 13> C 	 -43.5548 	 11.2192 	 28.8441
| 14> H 	 -42.4954 	 11.0137 	 29.0996
| 15> H 	 -43.6094 	 12.3047 	 28.8437
| 16> C 	 -44.0279 	 10.5358 	 27.5623
| 17> H 	 -45.0505 	 10.7885 	 27.4126
| 18> H 	 -43.5751 	 10.9513 	 26.5939
| 19> C 	 -43.6877 	 9.03424 	 27.6178
| 20> H 	 -44.472 	 8.56879 	 27.067
| 21> H 	 -42.6343 	 8.78374 	 27.352
| 22> H 	 -43.8381 	 8.6408 	 28.6466
| 23> S 	 -47.9256 	 8.19729 	 31.305
| 24> C 	 -49.6406 	 8.40213 	 31.6358
| 25> C 	 -49.8774 	 9.62924 	 32.1869
| 26> C 	 -48.7882 	 10.5274 	 32.0993
| 27> C 	 -47.6561 	 9.9192 	 31.5276
| 28> H 	 -50.8133 	 9.83476 	 32.6829
| 29> C 	 -48.8445 	 11.9315 	 32.5904
| 30> H 	 -47.9426 	 12.4836 	 32.3431
| 31> H 	 -49.0467 	 11.7546 	 33.6902
| 32> C 	 -50.0745 	 12.7675 	 32.0775
| 33> H 	 -50.142 	 13.7569 	 32.4718
| 34> H 	 -51.0302 	 12.221 	 32.3405
| 35> C 	 -50.0159 	 12.992 	 30.5888
| 36> H 	 -49.2396 	 13.6761 	 30.1973
| 37> H 	 -50.9965 	 13.3261 	 30.2445
| 38> H 	 -49.9021 	 12.0854 	 30.0325
| 39> H 	 -42.9633 	 11.4126 	 31.4601
| 40> H 	 -50.3961 	 7.68939 	 31.6568
| 41> *
| 42>
| 43>                          ****END OF INPUT****

CARTESIAN COORDINATES (ANGSTROEM)
---------------------------------
  S    -45.230400   10.776800   32.505600
  C    -44.001600   11.183700   31.361000
  C    -44.359600   10.968600   30.051500
  C    -45.694900   10.464300   29.972300
  C    -46.351700   10.415700   31.244300
  H    -46.284300   10.144600   29.108800
  C    -43.554800   11.219200   28.844100
  H    -42.495400   11.013700   29.099600
  H    -43.609400   12.304700   28.843700
  C    -44.027900   10.535800   27.562300
  H    -45.050500   10.788500   27.412600
  H    -43.575100   10.951300   26.593900
  C    -43.687700    9.034240   27.617800
  H    -44.472000    8.568790   27.067000
  H    -42.634300    8.783740   27.352000
  H    -43.838100    8.640800   28.646600
  S    -47.925600    8.197290   31.305000
  C    -49.640600    8.402130   31.635800
  C    -49.877400    9.629240   32.186900
  C    -48.788200   10.527400   32.099300
  C    -47.656100    9.919200   31.527600
  H    -50.813300    9.834760   32.682900
  C    -48.844500   11.931500   32.590400
  H    -47.942600   12.483600   32.343100
  H    -49.046700   11.754600   33.690200
  C    -50.074500   12.767500   32.077500
  H    -50.142000   13.756900   32.471800
  H    -51.030200   12.221000   32.340500
  C    -50.015900   12.992000   30.588800
  H    -49.239600   13.676100   30.197300
  H    -50.996500   13.326100   30.244500
  H    -49.902100   12.085400   30.032500
  H    -42.963300   11.412600   31.460100
  H    -50.396100    7.689390   31.656800

 Total Charge           Charge          ....    0
 Multiplicity           Mult            ....    1
 Number of Electrons    NEL             ....  134
 Basis Dimension        Dim             ....  322

ORBITAL ENERGIES
----------------

  NO   OCC          E(Eh)            E(eV)
   0   2.0000     -88.969513     -2420.9835
   1   2.0000     -88.963975     -2420.8328
   2   2.0000     -10.324617      -280.9471
   3   2.0000     -10.321161      -280.8531
   4   2.0000     -10.311177      -280.5814
   5   2.0000     -10.304872      -280.4098
   6   2.0000     -10.300863      -280.3007
   7   2.0000     -10.296635      -280.1857
   8   2.0000     -10.295516      -280.1552
   9   2.0000     -10.293673      -280.1051
  10   2.0000     -10.292606      -280.0760
  11   2.0000     -10.291027      -280.0331
  12   2.0000     -10.289056      -279.9794
  13   2.0000     -10.287234      -279.9299
  14   2.0000     -10.279573      -279.7214
  15   2.0000     -10.267682      -279.3978
  16   2.0000      -8.084263      -219.9840
  17   2.0000      -8.078410      -219.8247
  18   2.0000      -6.042727      -164.4310
  19   2.0000      -6.038656      -164.3202
  20   2.0000      -6.036970      -164.2743
  21   2.0000      -6.035177      -164.2255
  22   2.0000      -6.033094      -164.1688
  23   2.0000      -6.028983      -164.0570
  24   2.0000      -1.007595       -27.4181
  25   2.0000      -0.985530       -26.8176
  26   2.0000      -0.919734       -25.0272
  27   2.0000      -0.907493       -24.6941
  28   2.0000      -0.873133       -23.7591
  29   2.0000      -0.849188       -23.1076
  30   2.0000      -0.844717       -22.9859
  31   2.0000      -0.813310       -22.1313
  32   2.0000      -0.784064       -21.3355
  33   2.0000      -0.769610       -20.9421
  34   2.0000      -0.717584       -19.5264
  35   2.0000      -0.698503       -19.0072
  36   2.0000      -0.693682       -18.8761
  37   2.0000      -0.659769       -17.9532
  38   2.0000      -0.632196       -17.2029
  39   2.0000      -0.616961       -16.7884
  40   2.0000      -0.594591       -16.1796
  41   2.0000      -0.572165       -15.5694
  42   2.0000      -0.559139       -15.2149
  43   2.0000      -0.547479       -14.8977
  44   2.0000      -0.546116       -14.8606
  45   2.0000      -0.530700       -14.4411
  46   2.0000      -0.521537       -14.1918
  47   2.0000      -0.518144       -14.0994
  48   2.0000      -0.502303       -13.6684
  49   2.0000      -0.491321       -13.3695
  50   2.0000      -0.484983       -13.1970
  51   2.0000      -0.481721       -13.1083
  52   2.0000      -0.468038       -12.7359
  53   2.0000      -0.466289       -12.6884
  54   2.0000      -0.460744       -12.5375
  55   2.0000      -0.445222       -12.1151
  56   2.0000      -0.441880       -12.0242
  57   2.0000      -0.440267       -11.9803
  58   2.0000      -0.432045       -11.7565
  59   2.0000      -0.425948       -11.5906
  60   2.0000      -0.419989       -11.4285
  61   2.0000      -0.414673       -11.2838
  62   2.0000      -0.412035       -11.2120
  63   2.0000      -0.332990        -9.0611
  64   2.0000      -0.328589        -8.9414
  65   2.0000      -0.321901        -8.7594
  66   2.0000      -0.295241        -8.0339
  67   0.0000       0.033415         0.9093
  68   0.0000       0.061299         1.6680
  69   0.0000       0.107207         2.9173
  70   0.0000       0.124811         3.3963
  71   0.0000       0.131927         3.5899

MULLIKEN ATOMIC CHARGES
-----------------------
   0 S :    0.147816
   1 C :   -0.094937
   2 C :   -0.123233
   3 C :    0.012294
   4 C :   -0.198715
   5 H :    0.018230
   6 C :    0.070690
   7 H :    0.024416
   8 H :    0.043766
   9 C :   -0.077565
  10 H :    0.026178
  11 H :    0.037978
  12 C :   -0.051156
  13 H :    0.031182
  14 H :    0.050873
  15 H :    0.039044
  16 S :    0.117983
  17 C :   -0.050210
  18 C :   -0.053945
  19 C :   -0.016473
  20 C :   -0.184014
  21 H :    0.016589
  22 C :    0.072342
  23 H :    0.032075
  24 H :    0.051156
  25 C :   -0.079433
  26 H :    0.029972
  27 H :    0.030453
  28 C :   -0.051632
  29 H :    0.036934
  30 H :    0.020987
  31 H :    0.023236
  32 H :    0.021202
  33 H :    0.025917
Sum of atomic charges:   -0.0000000

LOEWDIN ATOMIC CHARGES
----------------------
   0 S :    0.441566
   1 C :   -0.217918
   2 C :   -0.063542
   3 C :   -0.062443
   4 C :   -0.216481
   5 H :    0.031699
   6 C :   -0.040230
   7 H :    0.032593
   8 H :    0.040558
   9 C :   -0.043918
  10 H :    0.018769
  11 H :    0.035533
  12 C :   -0.067397
  13 H :    0.025573
  14 H :    0.033864
  15 H :    0.030017
  16 S :    0.403512
  17 C :   -0.170473
  18 C :   -0.070403
  19 C :   -0.054393
  20 C :   -0.210851
  21 H :    0.029805
  22 C :   -0.032854
  23 H :    0.028896
  24 H :    0.046374
  25 C :   -0.041544
  26 H :    0.022607
  27 H :    0.026720
  28 C :   -0.071689
  29 H :    0.028019
  30 H :    0.025622
  31 H :    0.020216
  32 H :    0.025377
  33 H :    0.016817

  Mayer bond orders larger than 0.100000
B(  0-S ,  1-C ) :   1.1431 B(  0-S ,  4-C ) :   1.1724 B(  1-C ,  2-C ) :   1.6096
B(  1-C ,  4-C ) :   0.1017 B(  1-C , 32-H ) :   0.9621 B(  2-C ,  3-C ) :   1.2551
B(  2-C ,  6-C ) :   0.9963 B(  3-C ,  4-C ) :   1.5301 B(  3-C ,  5-H ) :   0.9908
B(  4-C , 20-C ) :   1.0577 B(  6-C ,  7-H ) :   0.9367 B(  6-C ,  8-H ) :   0.9268
B(  6-C ,  9-C ) :   1.0832 B(  9-C , 10-H ) :   0.9500 B(  9-C , 11-H ) :   0.9520
B(  9-C , 12-C ) :   1.0611 B( 12-C , 13-H ) :   0.9736 B( 12-C , 14-H ) :   0.9738
B( 12-C , 15-H ) :   0.9793 B( 16-S , 17-C ) :   1.1459 B( 16-S , 20-C ) :   1.1404
B( 17-C , 18-C ) :   1.6203 B( 17-C , 20-C ) :   0.1009 B( 17-C , 33-H ) :   0.9716
B( 18-C , 19-C ) :   1.2381 B( 18-C , 21-H ) :   0.9871 B( 19-C , 20-C ) :   1.5596
B( 19-C , 22-C ) :   1.0510 B( 22-C , 23-H ) :   0.9337 B( 22-C , 24-H ) :   0.9278
B( 22-C , 25-C ) :   1.0707 B( 25-C , 26-H ) :   0.9573 B( 25-C , 27-H ) :   0.9536
B( 25-C , 28-C ) :   1.0788 B( 28-C , 29-H ) :   0.9742 B( 28-C , 30-H ) :   0.9702
B( 28-C , 31-H ) :   0.9725

Dispersion correction           -0.014850096
FINAL SINGLE POINT ENERGY     -1339.865656005040

DIPOLE MOMENT
-------------
                                X             Y             Z
Electronic contribution:      1.52076     -10.86845      14.55019
Nuclear contribution   :     -1.62756      11.09407     -14.79287
                        -----------------------------------------
Total Dipole Moment    :     -0.10680       0.22562      -0.24268
                        -----------------------------------------
Magnitude (a.u.)       :      0.34815
Magnitude (Debye)      :      0.88491

Rotational constants in cm-1:     0.019991     0.008374     0.007743
Rotational constants in MHz :   599.300154   251.049209   232.123959

                             ****ORCA TERMINATED NORMALLY****
TOTAL RUN TIME: 0 days 0 hours 0 minutes 22 seconds 205 msec
