                         Program Version 4.2.1 -  RELEASE  -
|  1> ! wB97X-D3 SP def2-SVP
|  2> %pal
|  3> nprocs 24
|  4> end
|  5>
|  6> * xyz 0 1
|  7> S 	 -62.4018 	 9.28396 	 24.6209
|  8> C 	 -61.4806 	 10.7744 	 24.6087
|  9> C 	 -60.6371 	 10.7765 	 23.5172
| 10> C 	 -60.7354 	 9.59161 	 22.7153
| 11> C 	 -61.5494 	 8.63905 	 23.2382
| 12> H 	 -60.069 	 9.34365 	 21.8524
| 13> C 	 -59.8645 	 11.9457 	 23.0058
| 14> H 	 -60.3411 	 12.8258 	 23.2862
| 15> H 	 -59.969 	 11.9567 	 21.931
| 16> C 	 -58.3999 	 11.9944 	 23.4348
| 17> H 	 -58.0659 	 13.0122 	 23.1526
| 18> H 	 -58.4224 	 11.8849 	 24.5092
| 19> C 	 -57.502 	 10.783 	 23.0139
| 20> H 	 -57.9336 	 9.90421 	 23.3107
| 21> H 	 -57.4729 	 10.6267 	 21.9423
| 22> H 	 -56.4822 	 10.9033 	 23.3685
| 23> S 	 -61.8734 	 6.01891 	 23.982
| 24> C 	 -62.1215 	 4.74241 	 22.8859
| 25> C 	 -61.9285 	 5.26713 	 21.5869
| 26> C 	 -61.6888 	 6.62379 	 21.5129
| 27> C 	 -61.7857 	 7.24896 	 22.7393
| 28> H 	 -61.8694 	 4.6326 	 20.719
| 29> C 	 -61.268 	 7.2866 	 20.2062
| 30> H 	 -60.1646 	 7.38688 	 20.1931
| 31> H 	 -61.4903 	 8.32597 	 20.138
| 32> C 	 -61.8154 	 6.76472 	 18.916
| 33> H 	 -61.767 	 5.68008 	 18.9058
| 34> H 	 -61.1013 	 7.05399 	 18.1231
| 35> C 	 -63.2027 	 7.19361 	 18.6026
| 36> H 	 -63.4356 	 8.25383 	 18.4145
| 37> H 	 -63.8526 	 6.96131 	 19.4291
| 38> H 	 -63.5909 	 6.77389 	 17.6606
| 39> H 	 -61.7675 	 11.6986 	 25.0618
| 40> H 	 -62.1746 	 3.66511 	 23.1496
| 41> *
| 42>
| 43>                          ****END OF INPUT****

CARTESIAN COORDINATES (ANGSTROEM)
---------------------------------
  S    -62.401800    9.283960   24.620900
  C    -61.480600   10.774400   24.608700
  C    -60.637100   10.776500   23.517200
  C    -60.735400    9.591610   22.715300
  C    -61.549400    8.639050   23.238200
  H    -60.069000    9.343650   21.852400
  C    -59.864500   11.945700   23.005800
  H    -60.341100   12.825800   23.286200
  H    -59.969000   11.956700   21.931000
  C    -58.399900   11.994400   23.434800
  H    -58.065900   13.012200   23.152600
  H    -58.422400   11.884900   24.509200
  C    -57.502000   10.783000   23.013900
  H    -57.933600    9.904210   23.310700
  H    -57.472900   10.626700   21.942300
  H    -56.482200   10.903300   23.368500
  S    -61.873400    6.018910   23.982000
  C    -62.121500    4.742410   22.885900
  C    -61.928500    5.267130   21.586900
  C    -61.688800    6.623790   21.512900
  C    -61.785700    7.248960   22.739300
  H    -61.869400    4.632600   20.719000
  C    -61.268000    7.286600   20.206200
  H    -60.164600    7.386880   20.193100
  H    -61.490300    8.325970   20.138000
  C    -61.815400    6.764720   18.916000
  H    -61.767000    5.680080   18.905800
  H    -61.101300    7.053990   18.123100
  C    -63.202700    7.193610   18.602600
  H    -63.435600    8.253830   18.414500
  H    -63.852600    6.961310   19.429100
  H    -63.590900    6.773890   17.660600
  H    -61.767500   11.698600   25.061800
  H    -62.174600    3.665110   23.149600

 Total Charge           Charge          ....    0
 Multiplicity           Mult            ....    1
 Number of Electrons    NEL             ....  134
 Basis Dimension        Dim             ....  322

ORBITAL ENERGIES
----------------

  NO   OCC          E(Eh)            E(eV)
   0   2.0000     -88.966731     -2420.9078
   1   2.0000     -88.965794     -2420.8823
   2   2.0000     -10.333655      -281.1931
   3   2.0000     -10.329942      -281.0920
   4   2.0000     -10.321592      -280.8648
   5   2.0000     -10.312018      -280.6043
   6   2.0000     -10.302166      -280.3362
   7   2.0000     -10.298641      -280.2403
   8   2.0000     -10.293626      -280.1038
   9   2.0000     -10.291504      -280.0461
  10   2.0000     -10.290658      -280.0231
  11   2.0000     -10.287887      -279.9476
  12   2.0000     -10.285421      -279.8805
  13   2.0000     -10.281470      -279.7730
  14   2.0000     -10.274068      -279.5716
  15   2.0000     -10.271044      -279.4893
  16   2.0000      -8.082174      -219.9271
  17   2.0000      -8.080504      -219.8817
  18   2.0000      -6.040537      -164.3714
  19   2.0000      -6.039113      -164.3326
  20   2.0000      -6.036336      -164.2570
  21   2.0000      -6.034986      -164.2203
  22   2.0000      -6.033280      -164.1739
  23   2.0000      -6.031153      -164.1160
  24   2.0000      -1.013201       -27.5706
  25   2.0000      -0.992176       -26.9985
  26   2.0000      -0.921529       -25.0761
  27   2.0000      -0.914251       -24.8780
  28   2.0000      -0.867630       -23.6094
  29   2.0000      -0.856704       -23.3121
  30   2.0000      -0.842623       -22.9289
  31   2.0000      -0.817010       -22.2320
  32   2.0000      -0.791010       -21.5245
  33   2.0000      -0.781581       -21.2679
  34   2.0000      -0.708259       -19.2727
  35   2.0000      -0.704285       -19.1646
  36   2.0000      -0.697021       -18.9669
  37   2.0000      -0.659854       -17.9555
  38   2.0000      -0.640738       -17.4354
  39   2.0000      -0.621935       -16.9237
  40   2.0000      -0.608856       -16.5678
  41   2.0000      -0.575229       -15.6528
  42   2.0000      -0.564022       -15.3478
  43   2.0000      -0.544965       -14.8292
  44   2.0000      -0.542715       -14.7680
  45   2.0000      -0.532820       -14.4988
  46   2.0000      -0.520170       -14.1546
  47   2.0000      -0.517059       -14.0699
  48   2.0000      -0.506604       -13.7854
  49   2.0000      -0.499783       -13.5998
  50   2.0000      -0.493852       -13.4384
  51   2.0000      -0.479939       -13.0598
  52   2.0000      -0.479101       -13.0370
  53   2.0000      -0.467425       -12.7193
  54   2.0000      -0.466063       -12.6822
  55   2.0000      -0.448045       -12.1919
  56   2.0000      -0.443822       -12.0770
  57   2.0000      -0.439182       -11.9508
  58   2.0000      -0.434981       -11.8364
  59   2.0000      -0.423547       -11.5253
  60   2.0000      -0.418362       -11.3842
  61   2.0000      -0.412829       -11.2337
  62   2.0000      -0.409174       -11.1342
  63   2.0000      -0.356343        -9.6966
  64   2.0000      -0.334645        -9.1062
  65   2.0000      -0.328546        -8.9402
  66   2.0000      -0.290887        -7.9154
  67   0.0000       0.025338         0.6895
  68   0.0000       0.072493         1.9726
  69   0.0000       0.110325         3.0021
  70   0.0000       0.115921         3.1544
  71   0.0000       0.135406         3.6846

MULLIKEN ATOMIC CHARGES
-----------------------
   0 S :    0.103412
   1 C :   -0.088959
   2 C :   -0.132948
   3 C :   -0.015899
   4 C :   -0.113954
   5 H :    0.026391
   6 C :    0.091566
   7 H :   -0.003857
   8 H :    0.018920
   9 C :   -0.060920
  10 H :    0.034999
  11 H :    0.025140
  12 C :   -0.022695
  13 H :    0.018038
  14 H :    0.012658
  15 H :    0.042637
  16 S :    0.111018
  17 C :   -0.094931
  18 C :   -0.062130
  19 C :   -0.016027
  20 C :   -0.148495
  21 H :    0.010445
  22 C :    0.042814
  23 H :    0.042901
  24 H :    0.010358
  25 C :   -0.039575
  26 H :    0.018022
  27 H :    0.023123
  28 C :   -0.046850
  29 H :    0.023689
  30 H :    0.033777
  31 H :    0.031438
  32 H :    0.047216
  33 H :    0.078678
Sum of atomic charges:    0.0000000

LOEWDIN ATOMIC CHARGES
----------------------
   0 S :    0.404036
   1 C :   -0.200095
   2 C :   -0.059813
   3 C :   -0.079581
   4 C :   -0.185920
   5 H :    0.036928
   6 C :   -0.030636
   7 H :    0.021118
   8 H :    0.028802
   9 C :   -0.032154
  10 H :    0.025817
  11 H :    0.024562
  12 C :   -0.058641
  13 H :    0.014597
  14 H :    0.019868
  15 H :    0.030663
  16 S :    0.440628
  17 C :   -0.209864
  18 C :   -0.076434
  19 C :   -0.063436
  20 C :   -0.195648
  21 H :    0.026377
  22 C :   -0.036813
  23 H :    0.038090
  24 H :    0.028005
  25 C :   -0.044690
  26 H :    0.020178
  27 H :    0.030514
  28 C :   -0.071030
  29 H :    0.026843
  30 H :    0.027181
  31 H :    0.029910
  32 H :    0.028595
  33 H :    0.042043

  Mayer bond orders larger than 0.100000
B(  0-S ,  1-C ) :   1.1215 B(  0-S ,  4-C ) :   1.1578 B(  1-C ,  2-C ) :   1.6309
B(  1-C , 32-H ) :   0.9640 B(  2-C ,  3-C ) :   1.2343 B(  2-C ,  6-C ) :   1.0218
B(  3-C ,  4-C ) :   1.5887 B(  3-C ,  5-H ) :   0.9818 B(  4-C , 20-C ) :   1.0101
B(  6-C ,  7-H ) :   0.9326 B(  6-C ,  8-H ) :   0.9423 B(  6-C ,  9-C ) :   1.0720
B(  9-C , 10-H ) :   0.9587 B(  9-C , 11-H ) :   0.9552 B(  9-C , 12-C ) :   1.0731
B( 12-C , 13-H ) :   0.9689 B( 12-C , 14-H ) :   0.9746 B( 12-C , 15-H ) :   0.9745
B( 16-S , 17-C ) :   1.1938 B( 16-S , 20-C ) :   1.1767 B( 17-C , 18-C ) :   1.5152
B( 17-C , 20-C ) :   0.1168 B( 17-C , 33-H ) :   0.9669 B( 18-C , 19-C ) :   1.3237
B( 18-C , 21-H ) :   0.9886 B( 19-C , 20-C ) :   1.5432 B( 19-C , 22-C ) :   1.0319
B( 22-C , 23-H ) :   0.9251 B( 22-C , 24-H ) :   0.9309 B( 22-C , 25-C ) :   1.0766
B( 25-C , 26-H ) :   0.9490 B( 25-C , 27-H ) :   0.9416 B( 25-C , 28-C ) :   1.0897
B( 28-C , 29-H ) :   0.9693 B( 28-C , 30-H ) :   0.9730 B( 28-C , 31-H ) :   0.9716

Dispersion correction           -0.014246506
FINAL SINGLE POINT ENERGY     -1339.870765849678

DIPOLE MOMENT
-------------
                                X             Y             Z
Electronic contribution:    -11.58930      -9.88550      20.46692
Nuclear contribution   :     11.94110      10.06317     -21.09821
                        -----------------------------------------
Total Dipole Moment    :      0.35180       0.17767      -0.63128
                        -----------------------------------------
Magnitude (a.u.)       :      0.74421
Magnitude (Debye)      :      1.89164

Rotational constants in cm-1:     0.018326     0.008644     0.007093
Rotational constants in MHz :   549.399540   259.145557   212.641214

                             ****ORCA TERMINATED NORMALLY****
TOTAL RUN TIME: 0 days 0 hours 0 minutes 21 seconds 839 msec
