                         Program Version 4.2.1 -  RELEASE  -
|  1> ! wB97X-D3 SP def2-SVP
|  2> %pal
|  3> nprocs 24
|  4> end
|  5>
|  6> * xyz 0 1
|  7> S 	 -56.034 	 -2.16363 	 -31.78
|  8> C 	 -57.4607 	 -3.17398 	 -31.527
|  9> C 	 -58.1074 	 -2.92228 	 -30.3257
| 10> C 	 -57.3314 	 -1.96783 	 -29.5736
| 11> C 	 -56.301 	 -1.37814 	 -30.2155
| 12> H 	 -57.6321 	 -1.69948 	 -28.5544
| 13> C 	 -59.3693 	 -3.61587 	 -29.7914
| 14> H 	 -59.7036 	 -4.41593 	 -30.5198
| 15> H 	 -60.1125 	 -2.815 	 -29.8361
| 16> C 	 -59.3834 	 -4.12563 	 -28.3481
| 17> H 	 -59.0507 	 -5.15914 	 -28.2771
| 18> H 	 -58.6879 	 -3.58098 	 -27.7123
| 19> C 	 -60.8202 	 -3.94867 	 -27.7869
| 20> H 	 -60.9565 	 -4.34655 	 -26.7611
| 21> H 	 -61.1233 	 -2.96044 	 -27.8531
| 22> H 	 -61.5035 	 -4.51745 	 -28.4476
| 23> S 	 -53.6832 	 -0.746518 	 -29.7873
| 24> C 	 -53.2215 	 0.379687 	 -28.5723
| 25> C 	 -54.3232 	 1.10514 	 -28.0595
| 26> C 	 -55.5126 	 0.673718 	 -28.6496
| 27> C 	 -55.3525 	 -0.389923 	 -29.6064
| 28> H 	 -54.103 	 1.9983 	 -27.5541
| 29> C 	 -56.887 	 1.28187 	 -28.3472
| 30> H 	 -56.7928 	 1.91916 	 -27.4522
| 31> H 	 -57.5311 	 0.398875 	 -28.1286
| 32> C 	 -57.5815 	 2.02665 	 -29.4765
| 33> H 	 -58.618 	 2.24735 	 -29.1072
| 34> H 	 -57.4932 	 1.48707 	 -30.3504
| 35> C 	 -56.98 	 3.31251 	 -29.9778
| 36> H 	 -57.2126 	 4.16026 	 -29.2905
| 37> H 	 -57.2751 	 3.4551 	 -31.0035
| 38> H 	 -55.8757 	 3.21381 	 -29.9774
| 39> H 	 -57.8055 	 -3.91618 	 -32.183
| 40> H 	 -52.2054 	 0.615006 	 -28.3162
| 41> *
| 42>
| 43>                          ****END OF INPUT****

CARTESIAN COORDINATES (ANGSTROEM)
---------------------------------
  S    -56.034000   -2.163630  -31.780000
  C    -57.460700   -3.173980  -31.527000
  C    -58.107400   -2.922280  -30.325700
  C    -57.331400   -1.967830  -29.573600
  C    -56.301000   -1.378140  -30.215500
  H    -57.632100   -1.699480  -28.554400
  C    -59.369300   -3.615870  -29.791400
  H    -59.703600   -4.415930  -30.519800
  H    -60.112500   -2.815000  -29.836100
  C    -59.383400   -4.125630  -28.348100
  H    -59.050700   -5.159140  -28.277100
  H    -58.687900   -3.580980  -27.712300
  C    -60.820200   -3.948670  -27.786900
  H    -60.956500   -4.346550  -26.761100
  H    -61.123300   -2.960440  -27.853100
  H    -61.503500   -4.517450  -28.447600
  S    -53.683200   -0.746518  -29.787300
  C    -53.221500    0.379687  -28.572300
  C    -54.323200    1.105140  -28.059500
  C    -55.512600    0.673718  -28.649600
  C    -55.352500   -0.389923  -29.606400
  H    -54.103000    1.998300  -27.554100
  C    -56.887000    1.281870  -28.347200
  H    -56.792800    1.919160  -27.452200
  H    -57.531100    0.398875  -28.128600
  C    -57.581500    2.026650  -29.476500
  H    -58.618000    2.247350  -29.107200
  H    -57.493200    1.487070  -30.350400
  C    -56.980000    3.312510  -29.977800
  H    -57.212600    4.160260  -29.290500
  H    -57.275100    3.455100  -31.003500
  H    -55.875700    3.213810  -29.977400
  H    -57.805500   -3.916180  -32.183000
  H    -52.205400    0.615006  -28.316200

 Total Charge           Charge          ....    0
 Multiplicity           Mult            ....    1
 Number of Electrons    NEL             ....  134
 Basis Dimension        Dim             ....  322

ORBITAL ENERGIES
----------------

  NO   OCC          E(Eh)            E(eV)
   0   2.0000     -88.970599     -2421.0131
   1   2.0000     -88.967824     -2420.9376
   2   2.0000     -10.333399      -281.1861
   3   2.0000     -10.330289      -281.1014
   4   2.0000     -10.317768      -280.7607
   5   2.0000     -10.312482      -280.6169
   6   2.0000     -10.307632      -280.4849
   7   2.0000     -10.304161      -280.3905
   8   2.0000     -10.302491      -280.3450
   9   2.0000     -10.292902      -280.0841
  10   2.0000     -10.292208      -280.0652
  11   2.0000     -10.291774      -280.0534
  12   2.0000     -10.290871      -280.0288
  13   2.0000     -10.280355      -279.7427
  14   2.0000     -10.274491      -279.5831
  15   2.0000     -10.271534      -279.5026
  16   2.0000      -8.086051      -220.0326
  17   2.0000      -8.081904      -219.9198
  18   2.0000      -6.044286      -164.4734
  19   2.0000      -6.040570      -164.3723
  20   2.0000      -6.040175      -164.3615
  21   2.0000      -6.037351      -164.2847
  22   2.0000      -6.036672      -164.2662
  23   2.0000      -6.032394      -164.1498
  24   2.0000      -1.007139       -27.4056
  25   2.0000      -0.984865       -26.7996
  26   2.0000      -0.912654       -24.8346
  27   2.0000      -0.910796       -24.7840
  28   2.0000      -0.869089       -23.6491
  29   2.0000      -0.853748       -23.2317
  30   2.0000      -0.845539       -23.0083
  31   2.0000      -0.815343       -22.1866
  32   2.0000      -0.781592       -21.2682
  33   2.0000      -0.770749       -20.9731
  34   2.0000      -0.710422       -19.3316
  35   2.0000      -0.700049       -19.0493
  36   2.0000      -0.681056       -18.5325
  37   2.0000      -0.665326       -18.1044
  38   2.0000      -0.638858       -17.3842
  39   2.0000      -0.626155       -17.0385
  40   2.0000      -0.594930       -16.1889
  41   2.0000      -0.572589       -15.5810
  42   2.0000      -0.565119       -15.3777
  43   2.0000      -0.552355       -15.0303
  44   2.0000      -0.541495       -14.7348
  45   2.0000      -0.531038       -14.4503
  46   2.0000      -0.515002       -14.0139
  47   2.0000      -0.513419       -13.9708
  48   2.0000      -0.503124       -13.6907
  49   2.0000      -0.495767       -13.4905
  50   2.0000      -0.491747       -13.3811
  51   2.0000      -0.477172       -12.9845
  52   2.0000      -0.471164       -12.8210
  53   2.0000      -0.467928       -12.7330
  54   2.0000      -0.459893       -12.5143
  55   2.0000      -0.451834       -12.2950
  56   2.0000      -0.447100       -12.1662
  57   2.0000      -0.438585       -11.9345
  58   2.0000      -0.434166       -11.8143
  59   2.0000      -0.425472       -11.5777
  60   2.0000      -0.420454       -11.4411
  61   2.0000      -0.414924       -11.2906
  62   2.0000      -0.406400       -11.0587
  63   2.0000      -0.351843        -9.5741
  64   2.0000      -0.336736        -9.1631
  65   2.0000      -0.327151        -8.9022
  66   2.0000      -0.286491        -7.7958
  67   0.0000       0.025628         0.6974
  68   0.0000       0.073226         1.9926
  69   0.0000       0.106067         2.8862
  70   0.0000       0.118065         3.2127
  71   0.0000       0.137624         3.7449

MULLIKEN ATOMIC CHARGES
-----------------------
   0 S :    0.096646
   1 C :   -0.110443
   2 C :   -0.081590
   3 C :   -0.009941
   4 C :   -0.104882
   5 H :    0.021433
   6 C :    0.050128
   7 H :    0.037414
   8 H :    0.035474
   9 C :   -0.058977
  10 H :    0.036706
  11 H :    0.029985
  12 C :   -0.064660
  13 H :    0.042829
  14 H :    0.023975
  15 H :    0.030312
  16 S :    0.128285
  17 C :   -0.109790
  18 C :   -0.019217
  19 C :   -0.076458
  20 C :   -0.150569
  21 H :    0.014131
  22 C :    0.077421
  23 H :    0.017808
  24 H :    0.025854
  25 C :   -0.047467
  26 H :    0.036450
  27 H :    0.020018
  28 C :   -0.061361
  29 H :    0.029217
  30 H :    0.035686
  31 H :    0.027422
  32 H :    0.024092
  33 H :    0.054068
Sum of atomic charges:    0.0000000

LOEWDIN ATOMIC CHARGES
----------------------
   0 S :    0.379147
   1 C :   -0.184067
   2 C :   -0.059365
   3 C :   -0.067570
   4 C :   -0.187487
   5 H :    0.028705
   6 C :   -0.032465
   7 H :    0.038409
   8 H :    0.034742
   9 C :   -0.038965
  10 H :    0.026717
  11 H :    0.021893
  12 C :   -0.059686
  13 H :    0.029877
  14 H :    0.013102
  15 H :    0.027386
  16 S :    0.453698
  17 C :   -0.192920
  18 C :   -0.072497
  19 C :   -0.056445
  20 C :   -0.218557
  21 H :    0.028487
  22 C :   -0.033990
  23 H :    0.027831
  24 H :    0.035062
  25 C :   -0.041804
  26 H :    0.031121
  27 H :    0.018943
  28 C :   -0.066342
  29 H :    0.023135
  30 H :    0.025834
  31 H :    0.026662
  32 H :    0.016822
  33 H :    0.024588

  Mayer bond orders larger than 0.100000
B(  0-S ,  1-C ) :   1.1252 B(  0-S ,  4-C ) :   1.1236 B(  1-C ,  2-C ) :   1.6427
B(  1-C , 32-H ) :   0.9690 B(  2-C ,  3-C ) :   1.2282 B(  2-C ,  6-C ) :   1.0141
B(  3-C ,  4-C ) :   1.6217 B(  3-C ,  5-H ) :   0.9756 B(  4-C , 20-C ) :   1.0139
B(  6-C ,  7-H ) :   0.9405 B(  6-C ,  8-H ) :   0.9426 B(  6-C ,  9-C ) :   1.0448
B(  9-C , 10-H ) :   0.9561 B(  9-C , 11-H ) :   0.9618 B(  9-C , 12-C ) :   1.0707
B( 12-C , 13-H ) :   0.9738 B( 12-C , 14-H ) :   0.9788 B( 12-C , 15-H ) :   0.9769
B( 16-S , 17-C ) :   1.2142 B( 16-S , 20-C ) :   1.1770 B( 17-C , 18-C ) :   1.5256
B( 17-C , 20-C ) :   0.1164 B( 17-C , 33-H ) :   0.9675 B( 18-C , 19-C ) :   1.3240
B( 18-C , 21-H ) :   0.9970 B( 19-C , 20-C ) :   1.5097 B( 19-C , 22-C ) :   1.0335
B( 22-C , 23-H ) :   0.9373 B( 22-C , 24-H ) :   0.9281 B( 22-C , 25-C ) :   1.0786
B( 25-C , 26-H ) :   0.9540 B( 25-C , 27-H ) :   0.9579 B( 25-C , 28-C ) :   1.0765
B( 28-C , 29-H ) :   0.9744 B( 28-C , 30-H ) :   0.9782 B( 28-C , 31-H ) :   0.9734

Dispersion correction           -0.014162356
FINAL SINGLE POINT ENERGY     -1339.870444227658

DIPOLE MOMENT
-------------
                                X             Y             Z
Electronic contribution:     23.80335      -4.51244     -11.40779
Nuclear contribution   :    -24.23318       4.52715      11.81385
                        -----------------------------------------
Total Dipole Moment    :     -0.42983       0.01471       0.40606
                        -----------------------------------------
Magnitude (a.u.)       :      0.59148
Magnitude (Debye)      :      1.50343

Rotational constants in cm-1:     0.017932     0.008444     0.007199
Rotational constants in MHz :   537.597605   253.156363   215.823401

                             ****ORCA TERMINATED NORMALLY****
TOTAL RUN TIME: 0 days 0 hours 0 minutes 21 seconds 575 msec
