                         Program Version 4.2.1 -  RELEASE  -
|  1> ! wB97X-D3 SP def2-SVP
|  2> %pal
|  3> nprocs 24
|  4> end
|  5>
|  6> * xyz 0 1
|  7> S 	 -39.4323 	 8.91927 	 32.4613
|  8> C 	 -39.5771 	 8.98538 	 34.2378
|  9> C 	 -39.5043 	 7.73452 	 34.7712
| 10> C 	 -39.2497 	 6.68971 	 33.8891
| 11> C 	 -39.1729 	 7.18187 	 32.5714
| 12> H 	 -38.9878 	 5.67406 	 34.1738
| 13> C 	 -39.6322 	 7.51766 	 36.2922
| 14> H 	 -39.1885 	 8.29652 	 36.8419
| 15> H 	 -39.0703 	 6.59664 	 36.4585
| 16> C 	 -40.9948 	 7.26644 	 36.8225
| 17> H 	 -41.6629 	 8.15476 	 36.6937
| 18> H 	 -41.331 	 6.38067 	 36.3427
| 19> C 	 -41.0218 	 6.89157 	 38.3469
| 20> H 	 -40.7975 	 7.66302 	 39.1265
| 21> H 	 -42.0657 	 6.50918 	 38.5548
| 22> H 	 -40.2882 	 6.11549 	 38.6171
| 23> S 	 -37.7138 	 7.21969 	 30.1525
| 24> C 	 -37.4602 	 5.72777 	 29.1803
| 25> C 	 -38.173 	 4.69786 	 29.7851
| 26> C 	 -38.8278 	 5.02234 	 31.0009
| 27> C 	 -38.7291 	 6.39886 	 31.3666
| 28> H 	 -38.2724 	 3.78242 	 29.241
| 29> C 	 -39.5992 	 3.92945 	 31.7313
| 30> H 	 -40.3353 	 3.62182 	 31.063
| 31> H 	 -40.1977 	 4.4664 	 32.4301
| 32> C 	 -38.8243 	 2.68205 	 32.1204
| 33> H 	 -38.4216 	 2.34396 	 31.1957
| 34> H 	 -39.438 	 1.97345 	 32.5309
| 35> C 	 -37.6199 	 2.94044 	 32.9952
| 36> H 	 -36.9292 	 2.10386 	 33.0052
| 37> H 	 -37.9455 	 3.25666 	 33.9742
| 38> H 	 -36.9837 	 3.64983 	 32.4797
| 39> H 	 -39.7124 	 9.81482 	 34.8865
| 40> H 	 -37.0481 	 5.69403 	 28.1613
| 41> *
| 42>
| 43>                          ****END OF INPUT****

CARTESIAN COORDINATES (ANGSTROEM)
---------------------------------
  S    -39.432300    8.919270   32.461300
  C    -39.577100    8.985380   34.237800
  C    -39.504300    7.734520   34.771200
  C    -39.249700    6.689710   33.889100
  C    -39.172900    7.181870   32.571400
  H    -38.987800    5.674060   34.173800
  C    -39.632200    7.517660   36.292200
  H    -39.188500    8.296520   36.841900
  H    -39.070300    6.596640   36.458500
  C    -40.994800    7.266440   36.822500
  H    -41.662900    8.154760   36.693700
  H    -41.331000    6.380670   36.342700
  C    -41.021800    6.891570   38.346900
  H    -40.797500    7.663020   39.126500
  H    -42.065700    6.509180   38.554800
  H    -40.288200    6.115490   38.617100
  S    -37.713800    7.219690   30.152500
  C    -37.460200    5.727770   29.180300
  C    -38.173000    4.697860   29.785100
  C    -38.827800    5.022340   31.000900
  C    -38.729100    6.398860   31.366600
  H    -38.272400    3.782420   29.241000
  C    -39.599200    3.929450   31.731300
  H    -40.335300    3.621820   31.063000
  H    -40.197700    4.466400   32.430100
  C    -38.824300    2.682050   32.120400
  H    -38.421600    2.343960   31.195700
  H    -39.438000    1.973450   32.530900
  C    -37.619900    2.940440   32.995200
  H    -36.929200    2.103860   33.005200
  H    -37.945500    3.256660   33.974200
  H    -36.983700    3.649830   32.479700
  H    -39.712400    9.814820   34.886500
  H    -37.048100    5.694030   28.161300

 Total Charge           Charge          ....    0
 Multiplicity           Mult            ....    1
 Number of Electrons    NEL             ....  134
 Basis Dimension        Dim             ....  322

ORBITAL ENERGIES
----------------

  NO   OCC          E(Eh)            E(eV)
   0   2.0000     -88.974450     -2421.1179
   1   2.0000     -88.965292     -2420.8687
   2   2.0000     -10.342100      -281.4228
   3   2.0000     -10.339480      -281.3515
   4   2.0000     -10.325022      -280.9581
   5   2.0000     -10.311746      -280.5969
   6   2.0000     -10.307465      -280.4804
   7   2.0000     -10.297894      -280.2200
   8   2.0000     -10.296294      -280.1764
   9   2.0000     -10.294793      -280.1356
  10   2.0000     -10.288044      -279.9519
  11   2.0000     -10.287672      -279.9418
  12   2.0000     -10.284654      -279.8597
  13   2.0000     -10.280970      -279.7594
  14   2.0000     -10.276866      -279.6477
  15   2.0000     -10.270808      -279.4829
  16   2.0000      -8.088004      -220.0858
  17   2.0000      -8.078622      -219.8305
  18   2.0000      -6.046603      -164.5364
  19   2.0000      -6.042744      -164.4314
  20   2.0000      -6.038672      -164.3206
  21   2.0000      -6.037338      -164.2843
  22   2.0000      -6.033180      -164.1712
  23   2.0000      -6.029381      -164.0678
  24   2.0000      -1.001791       -27.2601
  25   2.0000      -0.979261       -26.6471
  26   2.0000      -0.917648       -24.9705
  27   2.0000      -0.914127       -24.8747
  28   2.0000      -0.864994       -23.5377
  29   2.0000      -0.852015       -23.1845
  30   2.0000      -0.844913       -22.9913
  31   2.0000      -0.815179       -22.1822
  32   2.0000      -0.784107       -21.3366
  33   2.0000      -0.774847       -21.0846
  34   2.0000      -0.711230       -19.3535
  35   2.0000      -0.700248       -19.0547
  36   2.0000      -0.696646       -18.9567
  37   2.0000      -0.658107       -17.9080
  38   2.0000      -0.637834       -17.3564
  39   2.0000      -0.624661       -16.9979
  40   2.0000      -0.597642       -16.2627
  41   2.0000      -0.574361       -15.6292
  42   2.0000      -0.566008       -15.4018
  43   2.0000      -0.557555       -15.1718
  44   2.0000      -0.552728       -15.0405
  45   2.0000      -0.527901       -14.3649
  46   2.0000      -0.522428       -14.2160
  47   2.0000      -0.507461       -13.8087
  48   2.0000      -0.504789       -13.7360
  49   2.0000      -0.498167       -13.5558
  50   2.0000      -0.489975       -13.3329
  51   2.0000      -0.474939       -12.9237
  52   2.0000      -0.470925       -12.8145
  53   2.0000      -0.468570       -12.7504
  54   2.0000      -0.460825       -12.5397
  55   2.0000      -0.449507       -12.2317
  56   2.0000      -0.442606       -12.0439
  57   2.0000      -0.437248       -11.8981
  58   2.0000      -0.433026       -11.7832
  59   2.0000      -0.428836       -11.6692
  60   2.0000      -0.419734       -11.4216
  61   2.0000      -0.414289       -11.2734
  62   2.0000      -0.410382       -11.1671
  63   2.0000      -0.353633        -9.6228
  64   2.0000      -0.340061        -9.2535
  65   2.0000      -0.328713        -8.9447
  66   2.0000      -0.285535        -7.7698
  67   0.0000       0.015737         0.4282
  68   0.0000       0.074955         2.0396
  69   0.0000       0.100497         2.7347
  70   0.0000       0.121562         3.3079
  71   0.0000       0.131435         3.5765

MULLIKEN ATOMIC CHARGES
-----------------------
   0 S :    0.115990
   1 C :   -0.098426
   2 C :   -0.080598
   3 C :    0.020301
   4 C :   -0.130379
   5 H :    0.013531
   6 C :    0.076673
   7 H :    0.012198
   8 H :    0.007929
   9 C :   -0.035513
  10 H :    0.039573
  11 H :    0.019009
  12 C :   -0.099433
  13 H :    0.038032
  14 H :    0.045625
  15 H :    0.026945
  16 S :    0.078019
  17 C :   -0.107082
  18 C :   -0.042572
  19 C :   -0.090353
  20 C :   -0.126333
  21 H :    0.022814
  22 C :    0.114069
  23 H :    0.010503
  24 H :    0.000524
  25 C :   -0.008622
  26 H :    0.006808
  27 H :    0.014331
  28 C :   -0.040960
  29 H :    0.024096
  30 H :    0.036418
  31 H :    0.033035
  32 H :    0.028498
  33 H :    0.075350
Sum of atomic charges:    0.0000000

LOEWDIN ATOMIC CHARGES
----------------------
   0 S :    0.398534
   1 C :   -0.185803
   2 C :   -0.060764
   3 C :   -0.065050
   4 C :   -0.176623
   5 H :    0.034324
   6 C :   -0.028097
   7 H :    0.020847
   8 H :    0.028575
   9 C :   -0.036300
  10 H :    0.029776
  11 H :    0.022135
  12 C :   -0.079025
  13 H :    0.026180
  14 H :    0.033454
  15 H :    0.022553
  16 S :    0.372068
  17 C :   -0.177580
  18 C :   -0.073859
  19 C :   -0.057902
  20 C :   -0.187172
  21 H :    0.029529
  22 C :   -0.029358
  23 H :    0.028856
  24 H :    0.023035
  25 C :   -0.024801
  26 H :    0.021345
  27 H :    0.014120
  28 C :   -0.061557
  29 H :    0.026432
  30 H :    0.019449
  31 H :    0.029169
  32 H :    0.024911
  33 H :    0.038598

  Mayer bond orders larger than 0.100000
B(  0-S ,  1-C ) :   1.1105 B(  0-S ,  4-C ) :   1.1685 B(  1-C ,  2-C ) :   1.6269
B(  1-C , 32-H ) :   0.9700 B(  2-C ,  3-C ) :   1.2684 B(  2-C ,  6-C ) :   1.0149
B(  3-C ,  4-C ) :   1.5318 B(  3-C ,  5-H ) :   0.9869 B(  4-C , 20-C ) :   1.0436
B(  6-C ,  7-H ) :   0.9431 B(  6-C ,  8-H ) :   0.9342 B(  6-C ,  9-C ) :   1.0853
B(  9-C , 10-H ) :   0.9536 B(  9-C , 11-H ) :   0.9507 B(  9-C , 12-C ) :   1.0721
B( 12-C , 13-H ) :   0.9765 B( 12-C , 14-H ) :   0.9769 B( 12-C , 15-H ) :   0.9742
B( 16-S , 17-C ) :   1.1439 B( 16-S , 20-C ) :   1.1386 B( 17-C , 18-C ) :   1.5975
B( 17-C , 20-C ) :   0.1068 B( 17-C , 33-H ) :   0.9629 B( 18-C , 19-C ) :   1.2575
B( 18-C , 21-H ) :   0.9868 B( 19-C , 20-C ) :   1.5616 B( 19-C , 22-C ) :   1.0290
B( 22-C , 23-H ) :   0.9249 B( 22-C , 24-H ) :   0.9316 B( 22-C , 25-C ) :   1.0680
B( 25-C , 26-H ) :   0.9460 B( 25-C , 27-H ) :   0.9543 B( 25-C , 28-C ) :   1.0946
B( 28-C , 29-H ) :   0.9700 B( 28-C , 30-H ) :   0.9733 B( 28-C , 31-H ) :   0.9672

Dispersion correction           -0.014189714
FINAL SINGLE POINT ENERGY     -1339.862670926172

DIPOLE MOMENT
-------------
                                X             Y             Z
Electronic contribution:      5.61065      18.54400     -23.51437
Nuclear contribution   :     -5.74915     -19.12815      23.83787
                        -----------------------------------------
Total Dipole Moment    :     -0.13850      -0.58415       0.32350
                        -----------------------------------------
Magnitude (a.u.)       :      0.68196
Magnitude (Debye)      :      1.73340

Rotational constants in cm-1:     0.019518     0.008431     0.006217
Rotational constants in MHz :   585.124375   252.743866   186.376270

                             ****ORCA TERMINATED NORMALLY****
TOTAL RUN TIME: 0 days 0 hours 0 minutes 21 seconds 886 msec
