                         Program Version 4.2.1 -  RELEASE  -
|  1> ! wB97X-D3 SP def2-SVP
|  2> %pal
|  3> nprocs 24
|  4> end
|  5>
|  6> * xyz 0 1
|  7> S 	 -52.7386 	 -46.6173 	 -80.437
|  8> C 	 -54.2094 	 -45.7471 	 -80.1036
|  9> C 	 -54.0288 	 -44.4712 	 -79.5968
| 10> C 	 -52.6066 	 -44.2659 	 -79.3499
| 11> C 	 -51.8075 	 -45.3961 	 -79.6255
| 12> H 	 -52.032 	 -43.4194 	 -79.0273
| 13> C 	 -55.1 	 -43.4717 	 -79.3057
| 14> H 	 -56.007 	 -43.8364 	 -79.7182
| 15> H 	 -54.878 	 -42.6011 	 -79.8943
| 16> C 	 -55.2608 	 -43.1244 	 -77.7844
| 17> H 	 -55.6716 	 -43.9593 	 -77.2379
| 18> H 	 -54.2435 	 -42.9002 	 -77.378
| 19> C 	 -56.0278 	 -41.8123 	 -77.6433
| 20> H 	 -56.2394 	 -41.4418 	 -76.5806
| 21> H 	 -55.5024 	 -40.9932 	 -78.1428
| 22> H 	 -57.0759 	 -42.0463 	 -78.0365
| 23> S 	 -49.651 	 -46.5111 	 -78.3086
| 24> C 	 -47.9943 	 -46.2214 	 -78.8984
| 25> C 	 -48.0437 	 -45.4285 	 -80.0029
| 26> C 	 -49.3246 	 -44.9838 	 -80.3444
| 27> C 	 -50.349 	 -45.5219 	 -79.5665
| 28> H 	 -47.1426 	 -45.1596 	 -80.4851
| 29> C 	 -49.5053 	 -44.1121 	 -81.5157
| 30> H 	 -50.3639 	 -44.4547 	 -82.1027
| 31> H 	 -48.6139 	 -44.2073 	 -82.059
| 32> C 	 -49.5462 	 -42.5942 	 -81.3334
| 33> H 	 -50.6169 	 -42.3033 	 -81.1349
| 34> H 	 -49.4775 	 -42.0208 	 -82.2551
| 35> C 	 -48.7156 	 -42.0505 	 -80.1531
| 36> H 	 -47.6762 	 -42.4399 	 -80.2378
| 37> H 	 -49.1458 	 -42.2802 	 -79.2174
| 38> H 	 -48.5716 	 -41.0035 	 -80.3074
| 39> H 	 -55.1937 	 -46.0938 	 -80.35
| 40> H 	 -47.123 	 -46.6147 	 -78.3257
| 41> *
| 42>
| 43>                          ****END OF INPUT****

CARTESIAN COORDINATES (ANGSTROEM)
---------------------------------
  S    -52.738600  -46.617300  -80.437000
  C    -54.209400  -45.747100  -80.103600
  C    -54.028800  -44.471200  -79.596800
  C    -52.606600  -44.265900  -79.349900
  C    -51.807500  -45.396100  -79.625500
  H    -52.032000  -43.419400  -79.027300
  C    -55.100000  -43.471700  -79.305700
  H    -56.007000  -43.836400  -79.718200
  H    -54.878000  -42.601100  -79.894300
  C    -55.260800  -43.124400  -77.784400
  H    -55.671600  -43.959300  -77.237900
  H    -54.243500  -42.900200  -77.378000
  C    -56.027800  -41.812300  -77.643300
  H    -56.239400  -41.441800  -76.580600
  H    -55.502400  -40.993200  -78.142800
  H    -57.075900  -42.046300  -78.036500
  S    -49.651000  -46.511100  -78.308600
  C    -47.994300  -46.221400  -78.898400
  C    -48.043700  -45.428500  -80.002900
  C    -49.324600  -44.983800  -80.344400
  C    -50.349000  -45.521900  -79.566500
  H    -47.142600  -45.159600  -80.485100
  C    -49.505300  -44.112100  -81.515700
  H    -50.363900  -44.454700  -82.102700
  H    -48.613900  -44.207300  -82.059000
  C    -49.546200  -42.594200  -81.333400
  H    -50.616900  -42.303300  -81.134900
  H    -49.477500  -42.020800  -82.255100
  C    -48.715600  -42.050500  -80.153100
  H    -47.676200  -42.439900  -80.237800
  H    -49.145800  -42.280200  -79.217400
  H    -48.571600  -41.003500  -80.307400
  H    -55.193700  -46.093800  -80.350000
  H    -47.123000  -46.614700  -78.325700

 Total Charge           Charge          ....    0
 Multiplicity           Mult            ....    1
 Number of Electrons    NEL             ....  134
 Basis Dimension        Dim             ....  322

ORBITAL ENERGIES
----------------

  NO   OCC          E(Eh)            E(eV)
   0   2.0000     -88.966424     -2420.8995
   1   2.0000     -88.961174     -2420.7566
   2   2.0000     -10.328595      -281.0554
   3   2.0000     -10.324414      -280.9416
   4   2.0000     -10.321258      -280.8557
   5   2.0000     -10.311975      -280.6031
   6   2.0000     -10.304706      -280.4053
   7   2.0000     -10.298704      -280.2420
   8   2.0000     -10.297355      -280.2053
   9   2.0000     -10.291886      -280.0565
  10   2.0000     -10.291113      -280.0354
  11   2.0000     -10.290099      -280.0078
  12   2.0000     -10.287735      -279.9435
  13   2.0000     -10.285263      -279.8762
  14   2.0000     -10.279287      -279.7136
  15   2.0000     -10.273828      -279.5651
  16   2.0000      -8.081344      -219.9045
  17   2.0000      -8.075789      -219.7534
  18   2.0000      -6.039787      -164.3510
  19   2.0000      -6.035858      -164.2441
  20   2.0000      -6.034240      -164.2000
  21   2.0000      -6.032133      -164.1427
  22   2.0000      -6.030175      -164.0894
  23   2.0000      -6.026757      -163.9964
  24   2.0000      -1.005505       -27.3612
  25   2.0000      -0.984423       -26.7875
  26   2.0000      -0.913427       -24.8556
  27   2.0000      -0.910297       -24.7704
  28   2.0000      -0.869939       -23.6722
  29   2.0000      -0.847454       -23.0604
  30   2.0000      -0.845827       -23.0161
  31   2.0000      -0.815652       -22.1950
  32   2.0000      -0.783877       -21.3304
  33   2.0000      -0.771398       -20.9908
  34   2.0000      -0.709431       -19.3046
  35   2.0000      -0.698599       -19.0099
  36   2.0000      -0.687014       -18.6946
  37   2.0000      -0.665974       -18.1221
  38   2.0000      -0.647767       -17.6266
  39   2.0000      -0.614026       -16.7085
  40   2.0000      -0.586936       -15.9714
  41   2.0000      -0.572390       -15.5755
  42   2.0000      -0.566727       -15.4214
  43   2.0000      -0.556143       -15.1334
  44   2.0000      -0.553775       -15.0690
  45   2.0000      -0.520666       -14.1681
  46   2.0000      -0.515026       -14.0146
  47   2.0000      -0.508911       -13.8482
  48   2.0000      -0.505492       -13.7551
  49   2.0000      -0.498540       -13.5660
  50   2.0000      -0.490048       -13.3349
  51   2.0000      -0.482644       -13.1334
  52   2.0000      -0.470987       -12.8162
  53   2.0000      -0.463919       -12.6239
  54   2.0000      -0.456485       -12.4216
  55   2.0000      -0.450096       -12.2477
  56   2.0000      -0.444628       -12.0989
  57   2.0000      -0.438417       -11.9299
  58   2.0000      -0.433977       -11.8091
  59   2.0000      -0.427608       -11.6358
  60   2.0000      -0.423584       -11.5263
  61   2.0000      -0.415146       -11.2967
  62   2.0000      -0.396143       -10.7796
  63   2.0000      -0.337652        -9.1880
  64   2.0000      -0.328178        -8.9302
  65   2.0000      -0.320289        -8.7155
  66   2.0000      -0.306841        -8.3496
  67   0.0000       0.041068         1.1175
  68   0.0000       0.056707         1.5431
  69   0.0000       0.109895         2.9904
  70   0.0000       0.122641         3.3372
  71   0.0000       0.131946         3.5904

MULLIKEN ATOMIC CHARGES
-----------------------
   0 S :    0.125968
   1 C :   -0.102186
   2 C :   -0.098411
   3 C :    0.052642
   4 C :   -0.187210
   5 H :    0.005693
   6 C :    0.112709
   7 H :   -0.000501
   8 H :    0.025097
   9 C :   -0.074693
  10 H :    0.039491
  11 H :    0.037773
  12 C :   -0.090991
  13 H :    0.045051
  14 H :    0.043702
  15 H :    0.037438
  16 S :    0.096204
  17 C :   -0.116458
  18 C :   -0.010574
  19 C :   -0.039431
  20 C :   -0.188099
  21 H :    0.006930
  22 C :    0.135890
  23 H :    0.037308
  24 H :   -0.001199
  25 C :   -0.113116
  26 H :    0.010276
  27 H :    0.024061
  28 C :   -0.009326
  29 H :    0.019829
  30 H :    0.041283
  31 H :    0.025947
  32 H :    0.031441
  33 H :    0.077461
Sum of atomic charges:    0.0000000

LOEWDIN ATOMIC CHARGES
----------------------
   0 S :    0.418735
   1 C :   -0.196147
   2 C :   -0.060113
   3 C :   -0.052831
   4 C :   -0.206983
   5 H :    0.027474
   6 C :   -0.025873
   7 H :    0.023420
   8 H :    0.032897
   9 C :   -0.037525
  10 H :    0.025434
  11 H :    0.027410
  12 C :   -0.077940
  13 H :    0.031492
  14 H :    0.025945
  15 H :    0.030110
  16 S :    0.397479
  17 C :   -0.173856
  18 C :   -0.070638
  19 C :   -0.056798
  20 C :   -0.211453
  21 H :    0.026865
  22 C :   -0.031718
  23 H :    0.037498
  24 H :    0.024337
  25 C :   -0.046946
  26 H :    0.020768
  27 H :    0.023959
  28 C :   -0.058948
  29 H :    0.025691
  30 H :    0.022334
  31 H :    0.025059
  32 H :    0.021624
  33 H :    0.039235

  Mayer bond orders larger than 0.100000
B(  0-S ,  1-C ) :   1.1450 B(  0-S ,  4-C ) :   1.1589 B(  1-C ,  2-C ) :   1.6239
B(  1-C , 32-H ) :   0.9650 B(  2-C ,  3-C ) :   1.2016 B(  2-C ,  6-C ) :   1.0363
B(  3-C ,  4-C ) :   1.6014 B(  3-C ,  5-H ) :   0.9951 B(  4-C , 20-C ) :   1.0155
B(  6-C ,  7-H ) :   0.9284 B(  6-C ,  8-H ) :   0.9354 B(  6-C ,  9-C ) :   1.0448
B(  9-C , 10-H ) :   0.9578 B(  9-C , 11-H ) :   0.9622 B(  9-C , 12-C ) :   1.0733
B( 12-C , 13-H ) :   0.9743 B( 12-C , 14-H ) :   0.9756 B( 12-C , 15-H ) :   0.9731
B( 16-S , 17-C ) :   1.1627 B( 16-S , 20-C ) :   1.1530 B( 17-C , 18-C ) :   1.5804
B( 17-C , 20-C ) :   0.1045 B( 17-C , 33-H ) :   0.9646 B( 18-C , 19-C ) :   1.2607
B( 18-C , 21-H ) :   0.9949 B( 19-C , 20-C ) :   1.5639 B( 19-C , 22-C ) :   1.0612
B( 22-C , 23-H ) :   0.9286 B( 22-C , 24-H ) :   0.9185 B( 22-C , 25-C ) :   1.0603
B( 25-C , 26-H ) :   0.9479 B( 25-C , 27-H ) :   0.9597 B( 25-C , 28-C ) :   1.0831
B( 28-C , 29-H ) :   0.9743 B( 28-C , 30-H ) :   0.9679 B( 28-C , 31-H ) :   0.9708

Dispersion correction           -0.014926332
FINAL SINGLE POINT ENERGY     -1339.875787073428

DIPOLE MOMENT
-------------
                                X             Y             Z
Electronic contribution:      7.54959     -25.54514      -0.10861
Nuclear contribution   :     -7.57010      26.16344      -0.05817
                        -----------------------------------------
Total Dipole Moment    :     -0.02051       0.61830      -0.16677
                        -----------------------------------------
Magnitude (a.u.)       :      0.64073
Magnitude (Debye)      :      1.62860

Rotational constants in cm-1:     0.019516     0.008149     0.007037
Rotational constants in MHz :   585.080538   244.298257   210.951067

                             ****ORCA TERMINATED NORMALLY****
TOTAL RUN TIME: 0 days 0 hours 0 minutes 21 seconds 886 msec
