                         Program Version 4.2.1 -  RELEASE  -
|  1> ! wB97X-D3 SP def2-SVP
|  2> %pal
|  3> nprocs 24
|  4> end
|  5>
|  6> * xyz 0 1
|  7> S 	 -34.0633 	 -7.45715 	 12.4277
|  8> C 	 -34.2732 	 -7.43717 	 14.1352
|  9> C 	 -35.5084 	 -7.93511 	 14.5128
| 10> C 	 -36.1945 	 -8.50695 	 13.3387
| 11> C 	 -35.4885 	 -8.33451 	 12.1589
| 12> H 	 -37.14 	 -9.05407 	 13.2674
| 13> C 	 -36.0328 	 -8.19466 	 15.9348
| 14> H 	 -35.1753 	 -7.89061 	 16.5385
| 15> H 	 -36.1101 	 -9.28955 	 16.0343
| 16> C 	 -37.2806 	 -7.35637 	 16.3121
| 17> H 	 -37.2298 	 -7.30706 	 17.3985
| 18> H 	 -37.1946 	 -6.30311 	 16.1233
| 19> C 	 -38.6155 	 -8.04105 	 15.8508
| 20> H 	 -39.4327 	 -7.4918 	 16.2495
| 21> H 	 -38.6365 	 -8.13693 	 14.7611
| 22> H 	 -38.6468 	 -8.98936 	 16.2775
| 23> S 	 -34.6823 	 -9.76295 	 9.85427
| 24> C 	 -35.8179 	 -9.97959 	 8.53701
| 25> C 	 -37.0277 	 -9.44889 	 8.91445
| 26> C 	 -37.0788 	 -8.81204 	 10.1852
| 27> C 	 -35.8181 	 -8.80941 	 10.7677
| 28> H 	 -37.8775 	 -9.57086 	 8.23096
| 29> C 	 -38.2784 	 -8.01703 	 10.624
| 30> H 	 -38.7584 	 -7.33913 	 9.92192
| 31> H 	 -38.0276 	 -7.37653 	 11.3993
| 32> C 	 -39.4637 	 -8.95192 	 11.0897
| 33> H 	 -39.0925 	 -9.67913 	 11.8539
| 34> H 	 -39.6886 	 -9.67303 	 10.2845
| 35> C 	 -40.6238 	 -8.06037 	 11.669
| 36> H 	 -41.4551 	 -8.65871 	 11.8719
| 37> H 	 -40.9185 	 -7.37203 	 10.9408
| 38> H 	 -40.4676 	 -7.50629 	 12.609
| 39> H 	 -33.5474 	 -7.26496 	 14.826
| 40> H 	 -35.5096 	 -10.2776 	 7.58208
| 41> *
| 42>
| 43>                          ****END OF INPUT****

CARTESIAN COORDINATES (ANGSTROEM)
---------------------------------
  S    -34.063300   -7.457150   12.427700
  C    -34.273200   -7.437170   14.135200
  C    -35.508400   -7.935110   14.512800
  C    -36.194500   -8.506950   13.338700
  C    -35.488500   -8.334510   12.158900
  H    -37.140000   -9.054070   13.267400
  C    -36.032800   -8.194660   15.934800
  H    -35.175300   -7.890610   16.538500
  H    -36.110100   -9.289550   16.034300
  C    -37.280600   -7.356370   16.312100
  H    -37.229800   -7.307060   17.398500
  H    -37.194600   -6.303110   16.123300
  C    -38.615500   -8.041050   15.850800
  H    -39.432700   -7.491800   16.249500
  H    -38.636500   -8.136930   14.761100
  H    -38.646800   -8.989360   16.277500
  S    -34.682300   -9.762950    9.854270
  C    -35.817900   -9.979590    8.537010
  C    -37.027700   -9.448890    8.914450
  C    -37.078800   -8.812040   10.185200
  C    -35.818100   -8.809410   10.767700
  H    -37.877500   -9.570860    8.230960
  C    -38.278400   -8.017030   10.624000
  H    -38.758400   -7.339130    9.921920
  H    -38.027600   -7.376530   11.399300
  C    -39.463700   -8.951920   11.089700
  H    -39.092500   -9.679130   11.853900
  H    -39.688600   -9.673030   10.284500
  C    -40.623800   -8.060370   11.669000
  H    -41.455100   -8.658710   11.871900
  H    -40.918500   -7.372030   10.940800
  H    -40.467600   -7.506290   12.609000
  H    -33.547400   -7.264960   14.826000
  H    -35.509600  -10.277600    7.582080

 Total Charge           Charge          ....    0
 Multiplicity           Mult            ....    1
 Number of Electrons    NEL             ....  134
 Basis Dimension        Dim             ....  322

ORBITAL ENERGIES
----------------

  NO   OCC          E(Eh)            E(eV)
   0   2.0000     -88.964390     -2420.8441
   1   2.0000     -88.961922     -2420.7770
   2   2.0000     -10.329986      -281.0932
   3   2.0000     -10.325882      -280.9815
   4   2.0000     -10.314399      -280.6691
   5   2.0000     -10.304293      -280.3941
   6   2.0000     -10.303760      -280.3796
   7   2.0000     -10.302096      -280.3343
   8   2.0000     -10.297256      -280.2026
   9   2.0000     -10.296216      -280.1743
  10   2.0000     -10.294920      -280.1390
  11   2.0000     -10.294468      -280.1267
  12   2.0000     -10.289389      -279.9885
  13   2.0000     -10.285968      -279.8954
  14   2.0000     -10.275704      -279.6161
  15   2.0000     -10.275429      -279.6086
  16   2.0000      -8.079425      -219.8523
  17   2.0000      -8.078225      -219.8197
  18   2.0000      -6.037874      -164.2989
  19   2.0000      -6.036635      -164.2652
  20   2.0000      -6.033819      -164.1886
  21   2.0000      -6.032421      -164.1505
  22   2.0000      -6.030293      -164.0926
  23   2.0000      -6.029092      -164.0599
  24   2.0000      -1.008460       -27.4416
  25   2.0000      -0.987613       -26.8743
  26   2.0000      -0.907808       -24.7027
  27   2.0000      -0.905124       -24.6297
  28   2.0000      -0.866663       -23.5831
  29   2.0000      -0.849473       -23.1153
  30   2.0000      -0.841138       -22.8885
  31   2.0000      -0.816423       -22.2160
  32   2.0000      -0.785659       -21.3789
  33   2.0000      -0.777566       -21.1586
  34   2.0000      -0.710422       -19.3316
  35   2.0000      -0.707227       -19.2446
  36   2.0000      -0.697524       -18.9806
  37   2.0000      -0.659605       -17.9488
  38   2.0000      -0.644771       -17.5451
  39   2.0000      -0.616282       -16.7699
  40   2.0000      -0.602454       -16.3936
  41   2.0000      -0.570014       -15.5109
  42   2.0000      -0.559213       -15.2170
  43   2.0000      -0.546279       -14.8650
  44   2.0000      -0.536590       -14.6013
  45   2.0000      -0.521493       -14.1905
  46   2.0000      -0.518996       -14.1226
  47   2.0000      -0.517229       -14.0745
  48   2.0000      -0.509148       -13.8546
  49   2.0000      -0.495032       -13.4705
  50   2.0000      -0.491071       -13.3627
  51   2.0000      -0.485821       -13.2199
  52   2.0000      -0.472391       -12.8544
  53   2.0000      -0.469975       -12.7887
  54   2.0000      -0.464422       -12.6376
  55   2.0000      -0.451954       -12.2983
  56   2.0000      -0.451196       -12.2777
  57   2.0000      -0.438008       -11.9188
  58   2.0000      -0.434165       -11.8142
  59   2.0000      -0.423634       -11.5277
  60   2.0000      -0.419890       -11.4258
  61   2.0000      -0.415194       -11.2980
  62   2.0000      -0.409548       -11.1444
  63   2.0000      -0.343851        -9.3567
  64   2.0000      -0.329848        -8.9756
  65   2.0000      -0.325554        -8.8588
  66   2.0000      -0.298413        -8.1202
  67   0.0000       0.030646         0.8339
  68   0.0000       0.080832         2.1995
  69   0.0000       0.119365         3.2481
  70   0.0000       0.120909         3.2901
  71   0.0000       0.124650         3.3919

MULLIKEN ATOMIC CHARGES
-----------------------
   0 S :    0.115302
   1 C :   -0.076728
   2 C :   -0.106531
   3 C :    0.021964
   4 C :   -0.174657
   5 H :    0.006930
   6 C :    0.041065
   7 H :    0.011245
   8 H :    0.049128
   9 C :   -0.060224
  10 H :    0.019613
  11 H :    0.025994
  12 C :   -0.004621
  13 H :    0.029738
  14 H :    0.038977
  15 H :    0.014887
  16 S :    0.104022
  17 C :   -0.082053
  18 C :   -0.034791
  19 C :   -0.006915
  20 C :   -0.130498
  21 H :    0.025226
  22 C :    0.081207
  23 H :    0.026512
  24 H :    0.004419
  25 C :   -0.130166
  26 H :    0.027858
  27 H :    0.031805
  28 C :   -0.001857
  29 H :    0.019016
  30 H :    0.016328
  31 H :    0.042471
  32 H :    0.009874
  33 H :    0.045462
Sum of atomic charges:    0.0000000

LOEWDIN ATOMIC CHARGES
----------------------
   0 S :    0.436106
   1 C :   -0.199852
   2 C :   -0.054423
   3 C :   -0.073660
   4 C :   -0.209642
   5 H :    0.029453
   6 C :   -0.030612
   7 H :    0.028642
   8 H :    0.037440
   9 C :   -0.037216
  10 H :    0.024375
  11 H :    0.024679
  12 C :   -0.052227
  13 H :    0.023901
  14 H :    0.025699
  15 H :    0.018179
  16 S :    0.407592
  17 C :   -0.177343
  18 C :   -0.066118
  19 C :   -0.059155
  20 C :   -0.199654
  21 H :    0.032555
  22 C :   -0.026489
  23 H :    0.031558
  24 H :    0.019060
  25 C :   -0.038547
  26 H :    0.020664
  27 H :    0.025037
  28 C :   -0.060310
  29 H :    0.020434
  30 H :    0.017826
  31 H :    0.033154
  32 H :    0.008430
  33 H :    0.020464

  Mayer bond orders larger than 0.100000
B(  0-S ,  1-C ) :   1.1425 B(  0-S ,  4-C ) :   1.1733 B(  1-C ,  2-C ) :   1.6245
B(  1-C , 32-H ) :   0.9760 B(  2-C ,  3-C ) :   1.2107 B(  2-C ,  6-C ) :   1.0192
B(  3-C ,  4-C ) :   1.5989 B(  3-C ,  5-H ) :   0.9850 B(  4-C , 20-C ) :   0.9873
B(  6-C ,  7-H ) :   0.9374 B(  6-C ,  8-H ) :   0.9492 B(  6-C ,  9-C ) :   1.0631
B(  9-C , 10-H ) :   0.9551 B(  9-C , 11-H ) :   0.9570 B(  9-C , 12-C ) :   1.0684
B( 12-C , 13-H ) :   0.9726 B( 12-C , 14-H ) :   0.9747 B( 12-C , 15-H ) :   0.9738
B( 16-S , 17-C ) :   1.1498 B( 16-S , 20-C ) :   1.1615 B( 17-C , 18-C ) :   1.5981
B( 17-C , 33-H ) :   0.9776 B( 18-C , 19-C ) :   1.2447 B( 18-C , 21-H ) :   0.9865
B( 19-C , 20-C ) :   1.5766 B( 19-C , 22-C ) :   1.0488 B( 22-C , 23-H ) :   0.9475
B( 22-C , 24-H ) :   0.9348 B( 22-C , 25-C ) :   1.0329 B( 25-C , 26-H ) :   0.9554
B( 25-C , 27-H ) :   0.9614 B( 25-C , 28-C ) :   1.0646 B( 28-C , 29-H ) :   0.9722
B( 28-C , 30-H ) :   0.9729 B( 28-C , 31-H ) :   0.9742

Dispersion correction           -0.015019769
FINAL SINGLE POINT ENERGY     -1339.866651793854

DIPOLE MOMENT
-------------
                                X             Y             Z
Electronic contribution:     27.70473      -2.92869     -16.13038
Nuclear contribution   :    -28.33391       2.90502      16.44075
                        -----------------------------------------
Total Dipole Moment    :     -0.62919      -0.02366       0.31037
                        -----------------------------------------
Magnitude (a.u.)       :      0.70197
Magnitude (Debye)      :      1.78426

Rotational constants in cm-1:     0.016721     0.010437     0.006883
Rotational constants in MHz :   501.284825   312.895805   206.354262

                             ****ORCA TERMINATED NORMALLY****
TOTAL RUN TIME: 0 days 0 hours 0 minutes 22 seconds 465 msec
