                         Program Version 4.2.1 -  RELEASE  -
|  1> ! wB97X-D3 SP def2-SVP
|  2> %pal
|  3> nprocs 24
|  4> end
|  5>
|  6> * xyz 0 1
|  7> S 	 -29.6284 	 -3.8645 	 -7.79631
|  8> C 	 -28.068 	 -4.22874 	 -7.11538
|  9> C 	 -28.0339 	 -3.86928 	 -5.79896
| 10> C 	 -29.2349 	 -3.25311 	 -5.36942
| 11> C 	 -30.1893 	 -3.08155 	 -6.3382
| 12> H 	 -29.4898 	 -2.91894 	 -4.36777
| 13> C 	 -26.9089 	 -4.08545 	 -4.82321
| 14> H 	 -27.1224 	 -3.48999 	 -3.96707
| 15> H 	 -26.0441 	 -3.67256 	 -5.33228
| 16> C 	 -26.6469 	 -5.56167 	 -4.3435
| 17> H 	 -27.5256 	 -5.69967 	 -3.81421
| 18> H 	 -26.5394 	 -6.22871 	 -5.23882
| 19> C 	 -25.5271 	 -5.77541 	 -3.3299
| 20> H 	 -25.5273 	 -6.77088 	 -2.88047
| 21> H 	 -24.5548 	 -5.66678 	 -3.83637
| 22> H 	 -25.6331 	 -4.9887 	 -2.64509
| 23> S 	 -32.8837 	 -3.68571 	 -6.23053
| 24> C 	 -34.0198 	 -2.36227 	 -5.83211
| 25> C 	 -33.357 	 -1.15019 	 -5.58268
| 26> C 	 -31.9662 	 -1.25457 	 -5.63206
| 27> C 	 -31.5651 	 -2.50967 	 -6.11301
| 28> H 	 -33.923 	 -0.32671 	 -5.28981
| 29> C 	 -31.0689 	 -0.115541 	 -5.18664
| 30> H 	 -31.6118 	 0.808475 	 -5.43898
| 31> H 	 -30.1927 	 0.0115841 	 -5.81908
| 32> C 	 -30.7483 	 0.0462655 	 -3.67702
| 33> H 	 -30.4638 	 -0.912521 	 -3.21638
| 34> H 	 -31.7098 	 0.232591 	 -3.21222
| 35> C 	 -29.7317 	 1.17872 	 -3.52873
| 36> H 	 -29.9762 	 2.10663 	 -4.12483
| 37> H 	 -28.8485 	 0.642555 	 -3.83539
| 38> H 	 -29.7054 	 1.30013 	 -2.55438
| 39> H 	 -27.1729 	 -4.52708 	 -7.67064
| 40> H 	 -35.038 	 -2.30856 	 -5.9769
| 41> *
| 42>
| 43>                          ****END OF INPUT****

CARTESIAN COORDINATES (ANGSTROEM)
---------------------------------
  S    -29.628400   -3.864500   -7.796310
  C    -28.068000   -4.228740   -7.115380
  C    -28.033900   -3.869280   -5.798960
  C    -29.234900   -3.253110   -5.369420
  C    -30.189300   -3.081550   -6.338200
  H    -29.489800   -2.918940   -4.367770
  C    -26.908900   -4.085450   -4.823210
  H    -27.122400   -3.489990   -3.967070
  H    -26.044100   -3.672560   -5.332280
  C    -26.646900   -5.561670   -4.343500
  H    -27.525600   -5.699670   -3.814210
  H    -26.539400   -6.228710   -5.238820
  C    -25.527100   -5.775410   -3.329900
  H    -25.527300   -6.770880   -2.880470
  H    -24.554800   -5.666780   -3.836370
  H    -25.633100   -4.988700   -2.645090
  S    -32.883700   -3.685710   -6.230530
  C    -34.019800   -2.362270   -5.832110
  C    -33.357000   -1.150190   -5.582680
  C    -31.966200   -1.254570   -5.632060
  C    -31.565100   -2.509670   -6.113010
  H    -33.923000   -0.326710   -5.289810
  C    -31.068900   -0.115541   -5.186640
  H    -31.611800    0.808475   -5.438980
  H    -30.192700    0.011584   -5.819080
  C    -30.748300    0.046265   -3.677020
  H    -30.463800   -0.912521   -3.216380
  H    -31.709800    0.232591   -3.212220
  C    -29.731700    1.178720   -3.528730
  H    -29.976200    2.106630   -4.124830
  H    -28.848500    0.642555   -3.835390
  H    -29.705400    1.300130   -2.554380
  H    -27.172900   -4.527080   -7.670640
  H    -35.038000   -2.308560   -5.976900

 Total Charge           Charge          ....    0
 Multiplicity           Mult            ....    1
 Number of Electrons    NEL             ....  134
 Basis Dimension        Dim             ....  322

ORBITAL ENERGIES
----------------

  NO   OCC          E(Eh)            E(eV)
   0   2.0000     -88.970641     -2421.0142
   1   2.0000     -88.965560     -2420.8760
   2   2.0000     -10.332932      -281.1734
   3   2.0000     -10.328294      -281.0472
   4   2.0000     -10.313705      -280.6502
   5   2.0000     -10.313054      -280.6325
   6   2.0000     -10.303303      -280.3671
   7   2.0000     -10.296241      -280.1750
   8   2.0000     -10.289926      -280.0031
   9   2.0000     -10.289010      -279.9782
  10   2.0000     -10.288997      -279.9778
  11   2.0000     -10.288727      -279.9705
  12   2.0000     -10.288272      -279.9581
  13   2.0000     -10.284007      -279.8420
  14   2.0000     -10.276201      -279.6296
  15   2.0000     -10.273559      -279.5577
  16   2.0000      -8.084037      -219.9778
  17   2.0000      -8.080347      -219.8774
  18   2.0000      -6.042588      -164.4272
  19   2.0000      -6.038858      -164.3257
  20   2.0000      -6.038801      -164.3241
  21   2.0000      -6.034770      -164.2144
  22   2.0000      -6.034756      -164.2141
  23   2.0000      -6.031183      -164.1168
  24   2.0000      -1.005094       -27.3500
  25   2.0000      -0.983155       -26.7530
  26   2.0000      -0.912284       -24.8245
  27   2.0000      -0.909874       -24.7589
  28   2.0000      -0.867312       -23.6008
  29   2.0000      -0.856357       -23.3027
  30   2.0000      -0.850735       -23.1497
  31   2.0000      -0.815568       -22.1927
  32   2.0000      -0.783079       -21.3087
  33   2.0000      -0.773198       -21.0398
  34   2.0000      -0.705018       -19.1845
  35   2.0000      -0.700758       -19.0686
  36   2.0000      -0.695764       -18.9327
  37   2.0000      -0.665699       -18.1146
  38   2.0000      -0.642238       -17.4762
  39   2.0000      -0.616672       -16.7805
  40   2.0000      -0.597303       -16.2534
  41   2.0000      -0.578674       -15.7465
  42   2.0000      -0.567579       -15.4446
  43   2.0000      -0.559009       -15.2114
  44   2.0000      -0.531810       -14.4713
  45   2.0000      -0.525630       -14.3031
  46   2.0000      -0.518841       -14.1184
  47   2.0000      -0.515324       -14.0227
  48   2.0000      -0.504662       -13.7325
  49   2.0000      -0.503252       -13.6942
  50   2.0000      -0.493563       -13.4305
  51   2.0000      -0.481115       -13.0918
  52   2.0000      -0.470049       -12.7907
  53   2.0000      -0.464264       -12.6333
  54   2.0000      -0.458043       -12.4640
  55   2.0000      -0.450385       -12.2556
  56   2.0000      -0.447274       -12.1710
  57   2.0000      -0.439374       -11.9560
  58   2.0000      -0.433885       -11.8066
  59   2.0000      -0.426054       -11.5935
  60   2.0000      -0.421568       -11.4715
  61   2.0000      -0.414272       -11.2729
  62   2.0000      -0.412733       -11.2310
  63   2.0000      -0.342367        -9.3163
  64   2.0000      -0.331548        -9.0219
  65   2.0000      -0.327412        -8.9093
  66   2.0000      -0.296555        -8.0697
  67   0.0000       0.031126         0.8470
  68   0.0000       0.060558         1.6479
  69   0.0000       0.109999         2.9932
  70   0.0000       0.123632         3.3642
  71   0.0000       0.126436         3.4405

MULLIKEN ATOMIC CHARGES
-----------------------
   0 S :    0.112069
   1 C :   -0.131527
   2 C :   -0.085418
   3 C :    0.032311
   4 C :   -0.157599
   5 H :    0.002141
   6 C :    0.074156
   7 H :    0.005227
   8 H :    0.023513
   9 C :   -0.068614
  10 H :    0.013711
  11 H :    0.038708
  12 C :   -0.015722
  13 H :    0.045662
  14 H :    0.025750
  15 H :    0.015348
  16 S :    0.114827
  17 C :   -0.056805
  18 C :   -0.035998
  19 C :    0.009118
  20 C :   -0.177752
  21 H :   -0.002150
  22 C :    0.031306
  23 H :    0.010535
  24 H :    0.025415
  25 C :   -0.093635
  26 H :    0.027367
  27 H :    0.014358
  28 C :    0.034773
  29 H :    0.050855
  30 H :    0.032973
  31 H :    0.000338
  32 H :    0.056167
  33 H :    0.028595
Sum of atomic charges:    0.0000000

LOEWDIN ATOMIC CHARGES
----------------------
   0 S :    0.411998
   1 C :   -0.201205
   2 C :   -0.068387
   3 C :   -0.066161
   4 C :   -0.201911
   5 H :    0.028739
   6 C :   -0.027678
   7 H :    0.022156
   8 H :    0.027389
   9 C :   -0.034288
  10 H :    0.015627
  11 H :    0.026708
  12 C :   -0.059115
  13 H :    0.031492
  14 H :    0.025568
  15 H :    0.017468
  16 S :    0.393930
  17 C :   -0.168851
  18 C :   -0.056316
  19 C :   -0.057152
  20 C :   -0.185482
  21 H :    0.022816
  22 C :   -0.037783
  23 H :    0.030803
  24 H :    0.028024
  25 C :   -0.033507
  26 H :    0.020404
  27 H :    0.016443
  28 C :   -0.046547
  29 H :    0.038402
  30 H :    0.032690
  31 H :    0.004804
  32 H :    0.035916
  33 H :    0.013006

  Mayer bond orders larger than 0.100000
B(  0-S ,  1-C ) :   1.1439 B(  0-S ,  4-C ) :   1.1604 B(  1-C ,  2-C ) :   1.5987
B(  1-C , 32-H ) :   0.9668 B(  2-C ,  3-C ) :   1.2568 B(  2-C ,  6-C ) :   1.0247
B(  3-C ,  4-C ) :   1.5734 B(  3-C ,  5-H ) :   0.9927 B(  4-C , 20-C ) :   0.9996
B(  6-C ,  7-H ) :   0.9382 B(  6-C ,  8-H ) :   0.9337 B(  6-C ,  9-C ) :   1.0552
B(  9-C , 10-H ) :   0.9556 B(  9-C , 11-H ) :   0.9597 B(  9-C , 12-C ) :   1.0847
B( 12-C , 13-H ) :   0.9743 B( 12-C , 14-H ) :   0.9759 B( 12-C , 15-H ) :   0.9720
B( 16-S , 17-C ) :   1.1412 B( 16-S , 20-C ) :   1.1567 B( 17-C , 18-C ) :   1.6211
B( 17-C , 20-C ) :   0.1111 B( 17-C , 33-H ) :   0.9672 B( 18-C , 19-C ) :   1.2537
B( 18-C , 21-H ) :   0.9918 B( 19-C , 20-C ) :   1.5904 B( 19-C , 22-C ) :   1.0385
B( 22-C , 23-H ) :   0.9317 B( 22-C , 24-H ) :   0.9396 B( 22-C , 25-C ) :   1.0510
B( 25-C , 26-H ) :   0.9576 B( 25-C , 27-H ) :   0.9512 B( 25-C , 28-C ) :   1.0583
B( 28-C , 29-H ) :   0.9730 B( 28-C , 30-H ) :   0.9751 B( 28-C , 31-H ) :   0.9691

Dispersion correction           -0.013814434
FINAL SINGLE POINT ENERGY     -1339.849000633194

DIPOLE MOMENT
-------------
                                X             Y             Z
Electronic contribution:    -19.27977      -8.26212     -19.78245
Nuclear contribution   :     19.58677       8.64897      20.33129
                        -----------------------------------------
Total Dipole Moment    :      0.30700       0.38685       0.54884
                        -----------------------------------------
Magnitude (a.u.)       :      0.73833
Magnitude (Debye)      :      1.87669

Rotational constants in cm-1:     0.017261     0.008263     0.006485
Rotational constants in MHz :   517.471903   247.730121   194.412517

                             ****ORCA TERMINATED NORMALLY****
TOTAL RUN TIME: 0 days 0 hours 0 minutes 21 seconds 263 msec
