                         Program Version 4.2.1 -  RELEASE  -
|  1> ! wB97X-D3 SP def2-SVP
|  2> %pal
|  3> nprocs 24
|  4> end
|  5>
|  6> * xyz 0 1
|  7> S 	 -53.5904 	 -2.01654 	 -25.1653
|  8> C 	 -53.9438 	 -0.862991 	 -23.9497
|  9> C 	 -53.2249 	 0.293394 	 -24.1215
| 10> C 	 -52.432 	 0.275944 	 -25.2737
| 11> C 	 -52.4799 	 -0.936276 	 -25.9869
| 12> H 	 -51.6396 	 0.9752 	 -25.6109
| 13> C 	 -53.1653 	 1.46089 	 -23.1702
| 14> H 	 -52.1557 	 1.57551 	 -22.7504
| 15> H 	 -53.8634 	 1.22909 	 -22.3509
| 16> C 	 -53.4478 	 2.8999 	 -23.7496
| 17> H 	 -53.1276 	 2.88578 	 -24.8006
| 18> H 	 -54.5292 	 3.09265 	 -23.7342
| 19> C 	 -52.8441 	 4.09972 	 -23.002
| 20> H 	 -53.2044 	 5.15452 	 -23.3022
| 21> H 	 -53.2017 	 4.01841 	 -21.9984
| 22> H 	 -51.766 	 4.11338 	 -22.9187
| 23> S 	 -50.227 	 -2.16209 	 -26.8454
| 24> C 	 -49.7829 	 -2.0735 	 -28.5488
| 25> C 	 -50.7512 	 -1.39536 	 -29.2691
| 26> C 	 -51.8555 	 -0.983479 	 -28.4776
| 27> C 	 -51.7001 	 -1.28155 	 -27.115
| 28> H 	 -50.6233 	 -1.24554 	 -30.3651
| 29> C 	 -52.9815 	 -0.152993 	 -29.0421
| 30> H 	 -52.565 	 0.420117 	 -29.8886
| 31> H 	 -53.1962 	 0.6168 	 -28.3158
| 32> C 	 -54.1618 	 -0.934774 	 -29.5215
| 33> H 	 -54.9253 	 -0.340354 	 -29.9711
| 34> H 	 -54.5965 	 -1.52807 	 -28.7493
| 35> C 	 -53.8658 	 -2.05698 	 -30.4529
| 36> H 	 -54.7401 	 -2.70337 	 -30.6159
| 37> H 	 -53.0703 	 -2.67911 	 -30.0621
| 38> H 	 -53.5819 	 -1.68409 	 -31.4148
| 39> H 	 -54.689 	 -0.978832 	 -23.144
| 40> H 	 -48.7821 	 -2.48888 	 -28.8447
| 41> *
| 42>
| 43>                          ****END OF INPUT****

CARTESIAN COORDINATES (ANGSTROEM)
---------------------------------
  S    -53.590400   -2.016540  -25.165300
  C    -53.943800   -0.862991  -23.949700
  C    -53.224900    0.293394  -24.121500
  C    -52.432000    0.275944  -25.273700
  C    -52.479900   -0.936276  -25.986900
  H    -51.639600    0.975200  -25.610900
  C    -53.165300    1.460890  -23.170200
  H    -52.155700    1.575510  -22.750400
  H    -53.863400    1.229090  -22.350900
  C    -53.447800    2.899900  -23.749600
  H    -53.127600    2.885780  -24.800600
  H    -54.529200    3.092650  -23.734200
  C    -52.844100    4.099720  -23.002000
  H    -53.204400    5.154520  -23.302200
  H    -53.201700    4.018410  -21.998400
  H    -51.766000    4.113380  -22.918700
  S    -50.227000   -2.162090  -26.845400
  C    -49.782900   -2.073500  -28.548800
  C    -50.751200   -1.395360  -29.269100
  C    -51.855500   -0.983479  -28.477600
  C    -51.700100   -1.281550  -27.115000
  H    -50.623300   -1.245540  -30.365100
  C    -52.981500   -0.152993  -29.042100
  H    -52.565000    0.420117  -29.888600
  H    -53.196200    0.616800  -28.315800
  C    -54.161800   -0.934774  -29.521500
  H    -54.925300   -0.340354  -29.971100
  H    -54.596500   -1.528070  -28.749300
  C    -53.865800   -2.056980  -30.452900
  H    -54.740100   -2.703370  -30.615900
  H    -53.070300   -2.679110  -30.062100
  H    -53.581900   -1.684090  -31.414800
  H    -54.689000   -0.978832  -23.144000
  H    -48.782100   -2.488880  -28.844700

 Total Charge           Charge          ....    0
 Multiplicity           Mult            ....    1
 Number of Electrons    NEL             ....  134
 Basis Dimension        Dim             ....  322

ORBITAL ENERGIES
----------------

  NO   OCC          E(Eh)            E(eV)
   0   2.0000     -88.968399     -2420.9532
   1   2.0000     -88.964247     -2420.8402
   2   2.0000     -10.326286      -280.9925
   3   2.0000     -10.324391      -280.9410
   4   2.0000     -10.322459      -280.8884
   5   2.0000     -10.314969      -280.6846
   6   2.0000     -10.304140      -280.3899
   7   2.0000     -10.299402      -280.2610
   8   2.0000     -10.298132      -280.2264
   9   2.0000     -10.296437      -280.1803
  10   2.0000     -10.295234      -280.1476
  11   2.0000     -10.290539      -280.0198
  12   2.0000     -10.285865      -279.8926
  13   2.0000     -10.282799      -279.8092
  14   2.0000     -10.269392      -279.4444
  15   2.0000     -10.264344      -279.3070
  16   2.0000      -8.083465      -219.9623
  17   2.0000      -8.079286      -219.8485
  18   2.0000      -6.041797      -164.4057
  19   2.0000      -6.037765      -164.2959
  20   2.0000      -6.037660      -164.2931
  21   2.0000      -6.034544      -164.2083
  22   2.0000      -6.033629      -164.1834
  23   2.0000      -6.030293      -164.0926
  24   2.0000      -1.011040       -27.5118
  25   2.0000      -0.987899       -26.8821
  26   2.0000      -0.917144       -24.9568
  27   2.0000      -0.907072       -24.6827
  28   2.0000      -0.874638       -23.8001
  29   2.0000      -0.851423       -23.1684
  30   2.0000      -0.850226       -23.1358
  31   2.0000      -0.813320       -22.1315
  32   2.0000      -0.784109       -21.3367
  33   2.0000      -0.770429       -20.9644
  34   2.0000      -0.710605       -19.3365
  35   2.0000      -0.695214       -18.9177
  36   2.0000      -0.687510       -18.7081
  37   2.0000      -0.661439       -17.9987
  38   2.0000      -0.643716       -17.5164
  39   2.0000      -0.617480       -16.8025
  40   2.0000      -0.596388       -16.2285
  41   2.0000      -0.570019       -15.5110
  42   2.0000      -0.560881       -15.2623
  43   2.0000      -0.556737       -15.1496
  44   2.0000      -0.552391       -15.0313
  45   2.0000      -0.523064       -14.2333
  46   2.0000      -0.518693       -14.1143
  47   2.0000      -0.508572       -13.8390
  48   2.0000      -0.501350       -13.6424
  49   2.0000      -0.499350       -13.5880
  50   2.0000      -0.484166       -13.1748
  51   2.0000      -0.479519       -13.0484
  52   2.0000      -0.477705       -12.9990
  53   2.0000      -0.464084       -12.6284
  54   2.0000      -0.460069       -12.5191
  55   2.0000      -0.450762       -12.2659
  56   2.0000      -0.444268       -12.0892
  57   2.0000      -0.436895       -11.8885
  58   2.0000      -0.428582       -11.6623
  59   2.0000      -0.424725       -11.5573
  60   2.0000      -0.419438       -11.4135
  61   2.0000      -0.417550       -11.3621
  62   2.0000      -0.403071       -10.9681
  63   2.0000      -0.339928        -9.2499
  64   2.0000      -0.330832        -9.0024
  65   2.0000      -0.322007        -8.7623
  66   2.0000      -0.307176        -8.3587
  67   0.0000       0.042532         1.1573
  68   0.0000       0.049689         1.3521
  69   0.0000       0.119038         3.2392
  70   0.0000       0.121911         3.3174
  71   0.0000       0.128499         3.4966

MULLIKEN ATOMIC CHARGES
-----------------------
   0 S :    0.132715
   1 C :   -0.130704
   2 C :   -0.069056
   3 C :    0.031776
   4 C :   -0.193200
   5 H :    0.033687
   6 C :    0.070485
   7 H :    0.037681
   8 H :    0.017917
   9 C :   -0.086805
  10 H :    0.033917
  11 H :    0.033441
  12 C :   -0.072467
  13 H :    0.048081
  14 H :    0.020344
  15 H :    0.032684
  16 S :    0.112184
  17 C :   -0.127743
  18 C :   -0.038848
  19 C :   -0.055441
  20 C :   -0.196795
  21 H :    0.039628
  22 C :    0.119468
  23 H :    0.014614
  24 H :    0.024720
  25 C :   -0.018753
  26 H :    0.022199
  27 H :    0.013862
  28 C :   -0.068346
  29 H :    0.032331
  30 H :    0.040994
  31 H :    0.008035
  32 H :    0.055932
  33 H :    0.081465
Sum of atomic charges:   -0.0000000

LOEWDIN ATOMIC CHARGES
----------------------
   0 S :    0.429885
   1 C :   -0.210303
   2 C :   -0.075811
   3 C :   -0.059315
   4 C :   -0.207423
   5 H :    0.040253
   6 C :   -0.030510
   7 H :    0.035259
   8 H :    0.028298
   9 C :   -0.043790
  10 H :    0.021485
  11 H :    0.027244
  12 C :   -0.075172
  13 H :    0.039421
  14 H :    0.021013
  15 H :    0.019900
  16 S :    0.412698
  17 C :   -0.187684
  18 C :   -0.078678
  19 C :   -0.050850
  20 C :   -0.217075
  21 H :    0.041064
  22 C :   -0.029142
  23 H :    0.031387
  24 H :    0.032438
  25 C :   -0.041039
  26 H :    0.022053
  27 H :    0.023947
  28 C :   -0.060586
  29 H :    0.028727
  30 H :    0.025047
  31 H :    0.011908
  32 H :    0.036510
  33 H :    0.038840

  Mayer bond orders larger than 0.100000
B(  0-S ,  1-C ) :   1.1596 B(  0-S ,  4-C ) :   1.1591 B(  1-C ,  2-C ) :   1.5920
B(  1-C ,  4-C ) :   0.1032 B(  1-C , 32-H ) :   0.9606 B(  2-C ,  3-C ) :   1.2579
B(  2-C ,  6-C ) :   1.0351 B(  3-C ,  4-C ) :   1.5667 B(  3-C ,  5-H ) :   0.9829
B(  4-C , 20-C ) :   1.0480 B(  6-C ,  7-H ) :   0.9441 B(  6-C ,  8-H ) :   0.9382
B(  6-C ,  9-C ) :   1.0378 B(  9-C , 10-H ) :   0.9640 B(  9-C , 11-H ) :   0.9569
B(  9-C , 12-C ) :   1.0758 B( 12-C , 13-H ) :   0.9744 B( 12-C , 14-H ) :   0.9733
B( 12-C , 15-H ) :   0.9757 B( 16-S , 17-C ) :   1.1693 B( 16-S , 20-C ) :   1.1609
B( 17-C , 18-C ) :   1.5749 B( 17-C , 20-C ) :   0.1094 B( 17-C , 33-H ) :   0.9638
B( 18-C , 19-C ) :   1.2564 B( 18-C , 21-H ) :   0.9851 B( 19-C , 20-C ) :   1.5730
B( 19-C , 22-C ) :   1.0298 B( 22-C , 23-H ) :   0.9342 B( 22-C , 24-H ) :   0.9275
B( 22-C , 25-C ) :   1.0770 B( 25-C , 26-H ) :   0.9541 B( 25-C , 27-H ) :   0.9513
B( 25-C , 28-C ) :   1.0850 B( 28-C , 29-H ) :   0.9732 B( 28-C , 30-H ) :   0.9671
B( 28-C , 31-H ) :   0.9735

Dispersion correction           -0.014441667
FINAL SINGLE POINT ENERGY     -1339.885382071607

DIPOLE MOMENT
-------------
                                X             Y             Z
Electronic contribution:      9.30284     -19.07366       3.16406
Nuclear contribution   :     -9.31906      19.53590      -3.21039
                        -----------------------------------------
Total Dipole Moment    :     -0.01621       0.46225      -0.04633
                        -----------------------------------------
Magnitude (a.u.)       :      0.46485
Magnitude (Debye)      :      1.18155

Rotational constants in cm-1:     0.020063     0.007564     0.007249
Rotational constants in MHz :   601.460883   226.774217   217.306995

                             ****ORCA TERMINATED NORMALLY****
TOTAL RUN TIME: 0 days 0 hours 0 minutes 20 seconds 356 msec
