                         Program Version 4.2.1 -  RELEASE  -
|  1> ! wB97X-D3 SP def2-SVP
|  2> %pal
|  3> nprocs 24
|  4> end
|  5>
|  6> * xyz 0 1
|  7> S 	 -130.838 	 29.0894 	 -19.5519
|  8> C 	 -131.148 	 28.2029 	 -18.1012
|  9> C 	 -132.049 	 27.1505 	 -18.3521
| 10> C 	 -132.501 	 27.0729 	 -19.6879
| 11> C 	 -131.86 	 28.0588 	 -20.4403
| 12> H 	 -133.149 	 26.3615 	 -20.1656
| 13> C 	 -132.492 	 26.1707 	 -17.3179
| 14> H 	 -133.462 	 26.4957 	 -17.0427
| 15> H 	 -131.94 	 26.2337 	 -16.3766
| 16> C 	 -132.525 	 24.7659 	 -17.7523
| 17> H 	 -132.845 	 24.0607 	 -17.0052
| 18> H 	 -133.124 	 24.6265 	 -18.6788
| 19> C 	 -131.075 	 24.2295 	 -17.9971
| 20> H 	 -130.361 	 24.6707 	 -17.3422
| 21> H 	 -131.011 	 23.1332 	 -17.9556
| 22> H 	 -130.813 	 24.5548 	 -19.0324
| 23> S 	 -133.34 	 29.1874 	 -22.4859
| 24> C 	 -133.101 	 28.7043 	 -24.1176
| 25> C 	 -132.058 	 27.8037 	 -24.248
| 26> C 	 -131.406 	 27.6223 	 -22.9841
| 27> C 	 -132.011 	 28.1863 	 -21.9061
| 28> H 	 -131.772 	 27.4162 	 -25.2081
| 29> C 	 -130.163 	 26.6672 	 -22.9297
| 30> H 	 -129.778 	 26.6901 	 -21.9161
| 31> H 	 -129.351 	 27.0973 	 -23.4837
| 32> C 	 -130.387 	 25.2086 	 -23.3962
| 33> H 	 -129.502 	 24.6908 	 -22.9597
| 34> H 	 -130.315 	 25.0287 	 -24.4274
| 35> C 	 -131.694 	 24.5996 	 -22.7723
| 36> H 	 -131.645 	 23.4674 	 -22.8122
| 37> H 	 -132.585 	 24.9129 	 -23.2312
| 38> H 	 -131.837 	 24.9072 	 -21.7617
| 39> H 	 -130.681 	 28.3906 	 -17.1583
| 40> H 	 -133.582 	 29.2206 	 -24.9306
| 41> *
| 42>
| 43>                          ****END OF INPUT****

CARTESIAN COORDINATES (ANGSTROEM)
---------------------------------
  S    -130.838000   29.089400  -19.551900
  C    -131.148000   28.202900  -18.101200
  C    -132.049000   27.150500  -18.352100
  C    -132.501000   27.072900  -19.687900
  C    -131.860000   28.058800  -20.440300
  H    -133.149000   26.361500  -20.165600
  C    -132.492000   26.170700  -17.317900
  H    -133.462000   26.495700  -17.042700
  H    -131.940000   26.233700  -16.376600
  C    -132.525000   24.765900  -17.752300
  H    -132.845000   24.060700  -17.005200
  H    -133.124000   24.626500  -18.678800
  C    -131.075000   24.229500  -17.997100
  H    -130.361000   24.670700  -17.342200
  H    -131.011000   23.133200  -17.955600
  H    -130.813000   24.554800  -19.032400
  S    -133.340000   29.187400  -22.485900
  C    -133.101000   28.704300  -24.117600
  C    -132.058000   27.803700  -24.248000
  C    -131.406000   27.622300  -22.984100
  C    -132.011000   28.186300  -21.906100
  H    -131.772000   27.416200  -25.208100
  C    -130.163000   26.667200  -22.929700
  H    -129.778000   26.690100  -21.916100
  H    -129.351000   27.097300  -23.483700
  C    -130.387000   25.208600  -23.396200
  H    -129.502000   24.690800  -22.959700
  H    -130.315000   25.028700  -24.427400
  C    -131.694000   24.599600  -22.772300
  H    -131.645000   23.467400  -22.812200
  H    -132.585000   24.912900  -23.231200
  H    -131.837000   24.907200  -21.761700
  H    -130.681000   28.390600  -17.158300
  H    -133.582000   29.220600  -24.930600

 Total Charge           Charge          ....    0
 Multiplicity           Mult            ....    1
 Number of Electrons    NEL             ....  134
 Basis Dimension        Dim             ....  322

ORBITAL ENERGIES
----------------

  NO   OCC          E(Eh)            E(eV)
   0   2.0000     -88.970994     -2421.0238
   1   2.0000     -88.959207     -2420.7031
   2   2.0000     -10.328919      -281.0642
   3   2.0000     -10.322436      -280.8878
   4   2.0000     -10.314768      -280.6791
   5   2.0000     -10.312043      -280.6050
   6   2.0000     -10.302317      -280.3403
   7   2.0000     -10.302210      -280.3374
   8   2.0000     -10.295331      -280.1502
   9   2.0000     -10.292307      -280.0679
  10   2.0000     -10.287999      -279.9507
  11   2.0000     -10.287010      -279.9238
  12   2.0000     -10.283492      -279.8281
  13   2.0000     -10.282508      -279.8013
  14   2.0000     -10.274023      -279.5704
  15   2.0000     -10.273143      -279.5464
  16   2.0000      -8.086529      -220.0457
  17   2.0000      -8.074805      -219.7266
  18   2.0000      -6.044719      -164.4852
  19   2.0000      -6.040806      -164.3787
  20   2.0000      -6.037706      -164.2943
  21   2.0000      -6.033244      -164.1729
  22   2.0000      -6.029095      -164.0600
  23   2.0000      -6.025690      -163.9674
  24   2.0000      -1.011302       -27.5189
  25   2.0000      -0.989425       -26.9236
  26   2.0000      -0.922606       -25.1054
  27   2.0000      -0.899942       -24.4887
  28   2.0000      -0.866858       -23.5884
  29   2.0000      -0.850844       -23.1526
  30   2.0000      -0.839847       -22.8534
  31   2.0000      -0.814213       -22.1559
  32   2.0000      -0.783573       -21.3221
  33   2.0000      -0.775549       -21.1038
  34   2.0000      -0.708598       -19.2819
  35   2.0000      -0.698721       -19.0132
  36   2.0000      -0.689098       -18.7513
  37   2.0000      -0.660799       -17.9813
  38   2.0000      -0.645568       -17.5668
  39   2.0000      -0.626313       -17.0428
  40   2.0000      -0.594329       -16.1725
  41   2.0000      -0.570182       -15.5155
  42   2.0000      -0.560668       -15.2566
  43   2.0000      -0.550851       -14.9894
  44   2.0000      -0.543631       -14.7930
  45   2.0000      -0.534428       -14.5425
  46   2.0000      -0.517958       -14.0944
  47   2.0000      -0.515146       -14.0178
  48   2.0000      -0.501982       -13.6596
  49   2.0000      -0.493153       -13.4194
  50   2.0000      -0.492204       -13.3936
  51   2.0000      -0.480886       -13.0856
  52   2.0000      -0.465758       -12.6739
  53   2.0000      -0.462658       -12.5896
  54   2.0000      -0.459176       -12.4948
  55   2.0000      -0.453459       -12.3393
  56   2.0000      -0.449294       -12.2259
  57   2.0000      -0.439029       -11.9466
  58   2.0000      -0.432001       -11.7553
  59   2.0000      -0.427830       -11.6419
  60   2.0000      -0.421788       -11.4774
  61   2.0000      -0.406409       -11.0590
  62   2.0000      -0.404947       -11.0192
  63   2.0000      -0.338990        -9.2244
  64   2.0000      -0.327425        -8.9097
  65   2.0000      -0.320558        -8.7228
  66   2.0000      -0.312339        -8.4992
  67   0.0000       0.048275         1.3136
  68   0.0000       0.056331         1.5328
  69   0.0000       0.119965         3.2644
  70   0.0000       0.126450         3.4409
  71   0.0000       0.130248         3.5442

MULLIKEN ATOMIC CHARGES
-----------------------
   0 S :    0.145724
   1 C :   -0.121423
   2 C :   -0.093422
   3 C :    0.052733
   4 C :   -0.181056
   5 H :    0.020149
   6 C :    0.124452
   7 H :    0.025312
   8 H :    0.010210
   9 C :   -0.099878
  10 H :    0.028425
  11 H :    0.036956
  12 C :   -0.065213
  13 H :    0.022956
  14 H :    0.037098
  15 H :    0.036564
  16 S :    0.101547
  17 C :   -0.090352
  18 C :   -0.026255
  19 C :   -0.037759
  20 C :   -0.196622
  21 H :    0.016335
  22 C :    0.088590
  23 H :    0.017805
  24 H :    0.023663
  25 C :   -0.073847
  26 H :    0.033778
  27 H :    0.022741
  28 C :   -0.026131
  29 H :    0.039748
  30 H :    0.023966
  31 H :    0.005294
  32 H :    0.037952
  33 H :    0.059960
Sum of atomic charges:    0.0000000

LOEWDIN ATOMIC CHARGES
----------------------
   0 S :    0.450976
   1 C :   -0.212857
   2 C :   -0.053504
   3 C :   -0.056957
   4 C :   -0.210076
   5 H :    0.033131
   6 C :   -0.035106
   7 H :    0.031241
   8 H :    0.030086
   9 C :   -0.043136
  10 H :    0.024381
  11 H :    0.025103
  12 C :   -0.063546
  13 H :    0.017782
  14 H :    0.024805
  15 H :    0.027038
  16 S :    0.408523
  17 C :   -0.185053
  18 C :   -0.074041
  19 C :   -0.054749
  20 C :   -0.208734
  21 H :    0.030446
  22 C :   -0.028181
  23 H :    0.027004
  24 H :    0.028523
  25 C :   -0.035791
  26 H :    0.033060
  27 H :    0.013501
  28 C :   -0.063622
  29 H :    0.032486
  30 H :    0.018498
  31 H :    0.018032
  32 H :    0.023387
  33 H :    0.027351

  Mayer bond orders larger than 0.100000
B(  0-S ,  1-C ) :   1.1492 B(  0-S ,  4-C ) :   1.2047 B(  1-C ,  2-C ) :   1.5725
B(  1-C ,  4-C ) :   0.1016 B(  1-C , 32-H ) :   0.9753 B(  2-C ,  3-C ) :   1.2576
B(  2-C ,  6-C ) :   1.0181 B(  3-C ,  4-C ) :   1.5472 B(  3-C ,  5-H ) :   0.9924
B(  4-C , 20-C ) :   0.9753 B(  6-C ,  7-H ) :   0.9222 B(  6-C ,  8-H ) :   0.9384
B(  6-C ,  9-C ) :   1.0939 B(  9-C , 10-H ) :   0.9560 B(  9-C , 11-H ) :   0.9534
B(  9-C , 12-C ) :   1.0610 B( 12-C , 13-H ) :   0.9760 B( 12-C , 14-H ) :   0.9796
B( 12-C , 15-H ) :   0.9746 B( 16-S , 17-C ) :   1.1797 B( 16-S , 20-C ) :   1.1370
B( 17-C , 18-C ) :   1.5903 B( 17-C , 33-H ) :   0.9671 B( 18-C , 19-C ) :   1.2317
B( 18-C , 21-H ) :   0.9993 B( 19-C , 20-C ) :   1.6421 B( 19-C , 22-C ) :   1.0352
B( 22-C , 23-H ) :   0.9350 B( 22-C , 24-H ) :   0.9351 B( 22-C , 25-C ) :   1.0723
B( 25-C , 26-H ) :   0.9571 B( 25-C , 27-H ) :   0.9585 B( 25-C , 28-C ) :   1.0748
B( 28-C , 29-H ) :   0.9748 B( 28-C , 30-H ) :   0.9684 B( 28-C , 31-H ) :   0.9727

Dispersion correction           -0.016420557
FINAL SINGLE POINT ENERGY     -1339.882820095907

DIPOLE MOMENT
-------------
                                X             Y             Z
Electronic contribution:     -4.57670      26.91449      -4.11414
Nuclear contribution   :      4.71774     -27.39395       4.13858
                        -----------------------------------------
Total Dipole Moment    :      0.14103      -0.47946       0.02444
                        -----------------------------------------
Magnitude (a.u.)       :      0.50037
Magnitude (Debye)      :      1.27185

Rotational constants in cm-1:     0.018924     0.010143     0.008011
Rotational constants in MHz :   567.339399   304.089998   240.151768

                             ****ORCA TERMINATED NORMALLY****
TOTAL RUN TIME: 0 days 0 hours 0 minutes 23 seconds 423 msec
