                         Program Version 4.2.1 -  RELEASE  -
|  1> ! wB97X-D3 SP def2-SVP
|  2> %pal
|  3> nprocs 24
|  4> end
|  5>
|  6> * xyz 0 1
|  7> S 	 -120.797 	 26.1191 	 -17.2973
|  8> C 	 -119.917 	 26.2991 	 -18.7376
|  9> C 	 -118.584 	 26.1454 	 -18.5799
| 10> C 	 -118.246 	 25.9436 	 -17.2038
| 11> C 	 -119.359 	 25.9173 	 -16.3593
| 12> H 	 -117.293 	 25.9201 	 -16.8194
| 13> C 	 -117.494 	 26.3527 	 -19.6516
| 14> H 	 -116.62 	 26.7592 	 -19.1673
| 15> H 	 -117.74 	 27.1135 	 -20.3492
| 16> C 	 -117.064 	 25.1725 	 -20.4875
| 17> H 	 -116.571 	 24.4992 	 -19.7371
| 18> H 	 -117.978 	 24.8208 	 -21.0226
| 19> C 	 -116.129 	 25.5504 	 -21.6118
| 20> H 	 -116.645 	 26.2683 	 -22.1886
| 21> H 	 -115.253 	 25.9713 	 -21.2806
| 22> H 	 -115.988 	 24.5915 	 -22.0933
| 23> S 	 -119.125 	 24.1677 	 -14.2929
| 24> C 	 -119.844 	 24.6663 	 -12.7449
| 25> C 	 -120.248 	 25.9674 	 -12.7295
| 26> C 	 -120.041 	 26.5928 	 -14.0076
| 27> C 	 -119.443 	 25.7649 	 -14.9509
| 28> H 	 -120.74 	 26.4599 	 -11.9349
| 29> C 	 -120.365 	 28.0538 	 -14.202
| 30> H 	 -119.849 	 28.5151 	 -15.0383
| 31> H 	 -119.841 	 28.5452 	 -13.4095
| 32> C 	 -121.899 	 28.4557 	 -14.1975
| 33> H 	 -122.398 	 27.9248 	 -15.0298
| 34> H 	 -122.036 	 29.497 	 -14.4637
| 35> C 	 -122.704 	 28.252 	 -12.8905
| 36> H 	 -122.976 	 27.1961 	 -12.5803
| 37> H 	 -123.65 	 28.7314 	 -13.0324
| 38> H 	 -122.18 	 28.7121 	 -12.105
| 39> H 	 -120.286 	 26.51 	 -19.6617
| 40> H 	 -120.008 	 24.0206 	 -11.8868
| 41> *
| 42>
| 43>                          ****END OF INPUT****

CARTESIAN COORDINATES (ANGSTROEM)
---------------------------------
  S    -120.797000   26.119100  -17.297300
  C    -119.917000   26.299100  -18.737600
  C    -118.584000   26.145400  -18.579900
  C    -118.246000   25.943600  -17.203800
  C    -119.359000   25.917300  -16.359300
  H    -117.293000   25.920100  -16.819400
  C    -117.494000   26.352700  -19.651600
  H    -116.620000   26.759200  -19.167300
  H    -117.740000   27.113500  -20.349200
  C    -117.064000   25.172500  -20.487500
  H    -116.571000   24.499200  -19.737100
  H    -117.978000   24.820800  -21.022600
  C    -116.129000   25.550400  -21.611800
  H    -116.645000   26.268300  -22.188600
  H    -115.253000   25.971300  -21.280600
  H    -115.988000   24.591500  -22.093300
  S    -119.125000   24.167700  -14.292900
  C    -119.844000   24.666300  -12.744900
  C    -120.248000   25.967400  -12.729500
  C    -120.041000   26.592800  -14.007600
  C    -119.443000   25.764900  -14.950900
  H    -120.740000   26.459900  -11.934900
  C    -120.365000   28.053800  -14.202000
  H    -119.849000   28.515100  -15.038300
  H    -119.841000   28.545200  -13.409500
  C    -121.899000   28.455700  -14.197500
  H    -122.398000   27.924800  -15.029800
  H    -122.036000   29.497000  -14.463700
  C    -122.704000   28.252000  -12.890500
  H    -122.976000   27.196100  -12.580300
  H    -123.650000   28.731400  -13.032400
  H    -122.180000   28.712100  -12.105000
  H    -120.286000   26.510000  -19.661700
  H    -120.008000   24.020600  -11.886800

 Total Charge           Charge          ....    0
 Multiplicity           Mult            ....    1
 Number of Electrons    NEL             ....  134
 Basis Dimension        Dim             ....  322

ORBITAL ENERGIES
----------------

  NO   OCC          E(Eh)            E(eV)
   0   2.0000     -88.964500     -2420.8471
   1   2.0000     -88.964162     -2420.8379
   2   2.0000     -10.321576      -280.8643
   3   2.0000     -10.319811      -280.8163
   4   2.0000     -10.318509      -280.7809
   5   2.0000     -10.301933      -280.3298
   6   2.0000     -10.298428      -280.2345
   7   2.0000     -10.294714      -280.1334
   8   2.0000     -10.289937      -280.0034
   9   2.0000     -10.289518      -279.9920
  10   2.0000     -10.288603      -279.9671
  11   2.0000     -10.286485      -279.9095
  12   2.0000     -10.284684      -279.8605
  13   2.0000     -10.282717      -279.8070
  14   2.0000     -10.277104      -279.6542
  15   2.0000     -10.266575      -279.3677
  16   2.0000      -8.080266      -219.8752
  17   2.0000      -8.078514      -219.8275
  18   2.0000      -6.038647      -164.3199
  19   2.0000      -6.037155      -164.2793
  20   2.0000      -6.034551      -164.2085
  21   2.0000      -6.033102      -164.1691
  22   2.0000      -6.031174      -164.1166
  23   2.0000      -6.029128      -164.0609
  24   2.0000      -1.010686       -27.5022
  25   2.0000      -0.984702       -26.7951
  26   2.0000      -0.917868       -24.9765
  27   2.0000      -0.899570       -24.4785
  28   2.0000      -0.877393       -23.8751
  29   2.0000      -0.853043       -23.2125
  30   2.0000      -0.845889       -23.0178
  31   2.0000      -0.817401       -22.2426
  32   2.0000      -0.788661       -21.4605
  33   2.0000      -0.773190       -21.0396
  34   2.0000      -0.710522       -19.3343
  35   2.0000      -0.693548       -18.8724
  36   2.0000      -0.690621       -18.7927
  37   2.0000      -0.666629       -18.1399
  38   2.0000      -0.649839       -17.6830
  39   2.0000      -0.617739       -16.8095
  40   2.0000      -0.596415       -16.2293
  41   2.0000      -0.580860       -15.8060
  42   2.0000      -0.569819       -15.5056
  43   2.0000      -0.545093       -14.8327
  44   2.0000      -0.539519       -14.6811
  45   2.0000      -0.532718       -14.4960
  46   2.0000      -0.524744       -14.2790
  47   2.0000      -0.508465       -13.8360
  48   2.0000      -0.506518       -13.7831
  49   2.0000      -0.500212       -13.6115
  50   2.0000      -0.489206       -13.3120
  51   2.0000      -0.480449       -13.0737
  52   2.0000      -0.471404       -12.8275
  53   2.0000      -0.469792       -12.7837
  54   2.0000      -0.464331       -12.6351
  55   2.0000      -0.444142       -12.0857
  56   2.0000      -0.438885       -11.9427
  57   2.0000      -0.434337       -11.8189
  58   2.0000      -0.428474       -11.6594
  59   2.0000      -0.427323       -11.6281
  60   2.0000      -0.421819       -11.4783
  61   2.0000      -0.417408       -11.3582
  62   2.0000      -0.412507       -11.2249
  63   2.0000      -0.340764        -9.2727
  64   2.0000      -0.333110        -9.0644
  65   2.0000      -0.323434        -8.8011
  66   2.0000      -0.298504        -8.1227
  67   0.0000       0.038328         1.0429
  68   0.0000       0.066750         1.8164
  69   0.0000       0.109595         2.9822
  70   0.0000       0.119879         3.2621
  71   0.0000       0.132258         3.5989

MULLIKEN ATOMIC CHARGES
-----------------------
   0 S :    0.141456
   1 C :   -0.076255
   2 C :   -0.052844
   3 C :    0.056951
   4 C :   -0.174726
   5 H :   -0.026101
   6 C :    0.065916
   7 H :    0.007836
   8 H :   -0.004494
   9 C :   -0.111347
  10 H :    0.037335
  11 H :    0.030922
  12 C :    0.028277
  13 H :    0.013908
  14 H :    0.007946
  15 H :    0.041063
  16 S :    0.110373
  17 C :   -0.082968
  18 C :   -0.004347
  19 C :   -0.036591
  20 C :   -0.161820
  21 H :    0.004851
  22 C :    0.062196
  23 H :    0.024215
  24 H :    0.018678
  25 C :   -0.070136
  26 H :    0.029318
  27 H :    0.027558
  28 C :   -0.054478
  29 H :    0.045641
  30 H :    0.029621
  31 H :    0.021938
  32 H :   -0.005364
  33 H :    0.055472
Sum of atomic charges:    0.0000000

LOEWDIN ATOMIC CHARGES
----------------------
   0 S :    0.447689
   1 C :   -0.196716
   2 C :   -0.060084
   3 C :   -0.049468
   4 C :   -0.205693
   5 H :    0.015856
   6 C :   -0.035358
   7 H :    0.025516
   8 H :    0.019102
   9 C :   -0.041398
  10 H :    0.028145
  11 H :    0.028364
  12 C :   -0.048483
  13 H :    0.019558
  14 H :    0.010872
  15 H :    0.033632
  16 S :    0.393445
  17 C :   -0.168836
  18 C :   -0.063851
  19 C :   -0.047786
  20 C :   -0.210622
  21 H :    0.026913
  22 C :   -0.037373
  23 H :    0.032799
  24 H :    0.029535
  25 C :   -0.036601
  26 H :    0.023242
  27 H :    0.025031
  28 C :   -0.068747
  29 H :    0.030822
  30 H :    0.026607
  31 H :    0.014997
  32 H :    0.008554
  33 H :    0.030340

  Mayer bond orders larger than 0.100000
B(  0-S ,  1-C ) :   1.1544 B(  0-S ,  4-C ) :   1.1594 B(  1-C ,  2-C ) :   1.6178
B(  1-C , 32-H ) :   0.9741 B(  2-C ,  3-C ) :   1.2490 B(  2-C ,  6-C ) :   1.0088
B(  3-C ,  4-C ) :   1.5535 B(  3-C ,  5-H ) :   1.0121 B(  4-C , 20-C ) :   1.0496
B(  6-C ,  7-H ) :   0.9397 B(  6-C ,  8-H ) :   0.9392 B(  6-C ,  9-C ) :   1.0755
B(  9-C , 10-H ) :   0.9540 B(  9-C , 11-H ) :   0.9563 B(  9-C , 12-C ) :   1.0800
B( 12-C , 13-H ) :   0.9713 B( 12-C , 14-H ) :   0.9733 B( 12-C , 15-H ) :   0.9741
B( 16-S , 17-C ) :   1.1447 B( 16-S , 20-C ) :   1.1239 B( 17-C , 18-C ) :   1.6218
B( 17-C , 33-H ) :   0.9631 B( 18-C , 19-C ) :   1.2283 B( 18-C , 21-H ) :   0.9911
B( 19-C , 20-C ) :   1.6085 B( 19-C , 22-C ) :   1.0360 B( 22-C , 23-H ) :   0.9367
B( 22-C , 24-H ) :   0.9383 B( 22-C , 25-C ) :   1.0601 B( 25-C , 26-H ) :   0.9536
B( 25-C , 27-H ) :   0.9573 B( 25-C , 28-C ) :   1.0801 B( 28-C , 29-H ) :   0.9706
B( 28-C , 30-H ) :   0.9700 B( 28-C , 31-H ) :   0.9743

Dispersion correction           -0.014229541
FINAL SINGLE POINT ENERGY     -1339.868870869635

DIPOLE MOMENT
-------------
                                X             Y             Z
Electronic contribution:     -3.20036     -11.36433       9.33605
Nuclear contribution   :      3.23689      11.83167      -9.39238
                        -----------------------------------------
Total Dipole Moment    :      0.03653       0.46734      -0.05633
                        -----------------------------------------
Magnitude (a.u.)       :      0.47214
Magnitude (Debye)      :      1.20007

Rotational constants in cm-1:     0.026411     0.006932     0.005955
Rotational constants in MHz :   791.784460   207.803481   178.521563

                             ****ORCA TERMINATED NORMALLY****
TOTAL RUN TIME: 0 days 0 hours 0 minutes 21 seconds 270 msec
