                         Program Version 4.2.1 -  RELEASE  -
|  1> ! wB97X-D3 SP def2-SVP
|  2> %pal
|  3> nprocs 24
|  4> end
|  5>
|  6> * xyz 0 1
|  7> S 	 -138.569 	 27.2077 	 -21.3339
|  8> C 	 -139.356 	 25.8521 	 -22.0132
|  9> C 	 -138.437 	 25.0594 	 -22.7207
| 10> C 	 -137.13 	 25.7294 	 -22.7974
| 11> C 	 -137.034 	 26.8786 	 -22.0753
| 12> H 	 -136.356 	 25.4024 	 -23.4482
| 13> C 	 -138.671 	 23.7086 	 -23.3995
| 14> H 	 -138.732 	 23.7993 	 -24.5071
| 15> H 	 -139.626 	 23.3974 	 -22.9533
| 16> C 	 -137.69 	 22.6173 	 -23.0009
| 17> H 	 -137.854 	 21.6628 	 -23.4684
| 18> H 	 -136.707 	 23.0082 	 -23.2582
| 19> C 	 -137.648 	 22.5479 	 -21.4543
| 20> H 	 -138.614 	 22.5009 	 -21.0104
| 21> H 	 -137.049 	 21.6682 	 -21.0248
| 22> H 	 -137.078 	 23.4541 	 -21.0475
| 23> S 	 -135.995 	 29.3 	 -22.6863
| 24> C 	 -134.313 	 29.6555 	 -22.3429
| 25> C 	 -133.668 	 28.5803 	 -21.8006
| 26> C 	 -134.515 	 27.4437 	 -21.7089
| 27> C 	 -135.839 	 27.7168 	 -22.0393
| 28> H 	 -132.619 	 28.6704 	 -21.5705
| 29> C 	 -134.05 	 26.0661 	 -21.2685
| 30> H 	 -134.92 	 25.4928 	 -20.9992
| 31> H 	 -133.503 	 26.3118 	 -20.3796
| 32> C 	 -133.139 	 25.2684 	 -22.2265
| 33> H 	 -133.261 	 24.289 	 -21.8684
| 34> H 	 -132.052 	 25.4541 	 -22.002
| 35> C 	 -133.368 	 25.5585 	 -23.708
| 36> H 	 -134.374 	 25.2946 	 -24.0206
| 37> H 	 -132.608 	 25.0761 	 -24.1929
| 38> H 	 -133.239 	 26.586 	 -23.9754
| 39> H 	 -140.337 	 25.6459 	 -21.842
| 40> H 	 -133.839 	 30.5662 	 -22.4822
| 41> *
| 42>
| 43>                          ****END OF INPUT****

CARTESIAN COORDINATES (ANGSTROEM)
---------------------------------
  S    -138.569000   27.207700  -21.333900
  C    -139.356000   25.852100  -22.013200
  C    -138.437000   25.059400  -22.720700
  C    -137.130000   25.729400  -22.797400
  C    -137.034000   26.878600  -22.075300
  H    -136.356000   25.402400  -23.448200
  C    -138.671000   23.708600  -23.399500
  H    -138.732000   23.799300  -24.507100
  H    -139.626000   23.397400  -22.953300
  C    -137.690000   22.617300  -23.000900
  H    -137.854000   21.662800  -23.468400
  H    -136.707000   23.008200  -23.258200
  C    -137.648000   22.547900  -21.454300
  H    -138.614000   22.500900  -21.010400
  H    -137.049000   21.668200  -21.024800
  H    -137.078000   23.454100  -21.047500
  S    -135.995000   29.300000  -22.686300
  C    -134.313000   29.655500  -22.342900
  C    -133.668000   28.580300  -21.800600
  C    -134.515000   27.443700  -21.708900
  C    -135.839000   27.716800  -22.039300
  H    -132.619000   28.670400  -21.570500
  C    -134.050000   26.066100  -21.268500
  H    -134.920000   25.492800  -20.999200
  H    -133.503000   26.311800  -20.379600
  C    -133.139000   25.268400  -22.226500
  H    -133.261000   24.289000  -21.868400
  H    -132.052000   25.454100  -22.002000
  C    -133.368000   25.558500  -23.708000
  H    -134.374000   25.294600  -24.020600
  H    -132.608000   25.076100  -24.192900
  H    -133.239000   26.586000  -23.975400
  H    -140.337000   25.645900  -21.842000
  H    -133.839000   30.566200  -22.482200

 Total Charge           Charge          ....    0
 Multiplicity           Mult            ....    1
 Number of Electrons    NEL             ....  134
 Basis Dimension        Dim             ....  322

ORBITAL ENERGIES
----------------

  NO   OCC          E(Eh)            E(eV)
   0   2.0000     -88.965219     -2420.8667
   1   2.0000     -88.963105     -2420.8092
   2   2.0000     -10.326470      -280.9975
   3   2.0000     -10.321808      -280.8707
   4   2.0000     -10.311493      -280.5900
   5   2.0000     -10.310923      -280.5745
   6   2.0000     -10.307106      -280.4706
   7   2.0000     -10.300784      -280.2986
   8   2.0000     -10.296090      -280.1709
   9   2.0000     -10.291240      -280.0389
  10   2.0000     -10.290690      -280.0239
  11   2.0000     -10.286902      -279.9208
  12   2.0000     -10.285239      -279.8756
  13   2.0000     -10.282111      -279.7905
  14   2.0000     -10.282046      -279.7887
  15   2.0000     -10.268227      -279.4127
  16   2.0000      -8.080924      -219.8931
  17   2.0000      -8.078527      -219.8279
  18   2.0000      -6.039498      -164.3431
  19   2.0000      -6.036966      -164.2742
  20   2.0000      -6.035095      -164.2233
  21   2.0000      -6.032897      -164.1635
  22   2.0000      -6.031752      -164.1323
  23   2.0000      -6.029361      -164.0673
  24   2.0000      -1.011286       -27.5185
  25   2.0000      -0.988776       -26.9060
  26   2.0000      -0.915040       -24.8995
  27   2.0000      -0.909387       -24.7457
  28   2.0000      -0.875684       -23.8286
  29   2.0000      -0.849880       -23.1264
  30   2.0000      -0.839147       -22.8343
  31   2.0000      -0.819974       -22.3126
  32   2.0000      -0.784940       -21.3593
  33   2.0000      -0.772541       -21.0219
  34   2.0000      -0.712602       -19.3909
  35   2.0000      -0.698965       -19.0198
  36   2.0000      -0.697618       -18.9832
  37   2.0000      -0.660921       -17.9846
  38   2.0000      -0.647564       -17.6211
  39   2.0000      -0.625001       -17.0071
  40   2.0000      -0.588955       -16.0263
  41   2.0000      -0.572217       -15.5708
  42   2.0000      -0.560630       -15.2555
  43   2.0000      -0.554033       -15.0760
  44   2.0000      -0.549188       -14.9442
  45   2.0000      -0.544018       -14.8035
  46   2.0000      -0.520443       -14.1620
  47   2.0000      -0.515529       -14.0283
  48   2.0000      -0.506168       -13.7735
  49   2.0000      -0.498959       -13.5774
  50   2.0000      -0.490937       -13.3591
  51   2.0000      -0.480823       -13.0839
  52   2.0000      -0.473969       -12.8974
  53   2.0000      -0.468716       -12.7544
  54   2.0000      -0.457737       -12.4556
  55   2.0000      -0.450002       -12.2452
  56   2.0000      -0.440682       -11.9916
  57   2.0000      -0.434038       -11.8108
  58   2.0000      -0.433141       -11.7864
  59   2.0000      -0.424028       -11.5384
  60   2.0000      -0.419242       -11.4081
  61   2.0000      -0.413802       -11.2601
  62   2.0000      -0.408767       -11.1231
  63   2.0000      -0.348550        -9.4845
  64   2.0000      -0.328247        -8.9321
  65   2.0000      -0.323917        -8.8142
  66   2.0000      -0.299751        -8.1566
  67   0.0000       0.037387         1.0174
  68   0.0000       0.073226         1.9926
  69   0.0000       0.114745         3.1224
  70   0.0000       0.123348         3.3565
  71   0.0000       0.128959         3.5092

MULLIKEN ATOMIC CHARGES
-----------------------
   0 S :    0.119206
   1 C :   -0.080110
   2 C :   -0.121458
   3 C :    0.031745
   4 C :   -0.132603
   5 H :   -0.018656
   6 C :    0.073233
   7 H :    0.054888
   8 H :    0.012461
   9 C :   -0.046450
  10 H :    0.039318
  11 H :    0.020441
  12 C :   -0.106309
  13 H :    0.025659
  14 H :    0.039789
  15 H :    0.059080
  16 S :    0.112475
  17 C :   -0.064352
  18 C :   -0.032499
  19 C :   -0.069862
  20 C :   -0.171968
  21 H :    0.016025
  22 C :    0.094880
  23 H :    0.024167
  24 H :    0.020296
  25 C :   -0.074977
  26 H :    0.019703
  27 H :    0.021198
  28 C :    0.027988
  29 H :    0.023492
  30 H :    0.012561
  31 H :    0.030336
  32 H :    0.013060
  33 H :    0.027245
Sum of atomic charges:   -0.0000000

LOEWDIN ATOMIC CHARGES
----------------------
   0 S :    0.429024
   1 C :   -0.191447
   2 C :   -0.057063
   3 C :   -0.060739
   4 C :   -0.206157
   5 H :    0.020596
   6 C :   -0.034103
   7 H :    0.036690
   8 H :    0.027227
   9 C :   -0.039723
  10 H :    0.024230
  11 H :    0.021307
  12 C :   -0.074150
  13 H :    0.014602
  14 H :    0.030365
  15 H :    0.036257
  16 S :    0.419654
  17 C :   -0.170319
  18 C :   -0.070768
  19 C :   -0.053393
  20 C :   -0.212269
  21 H :    0.033416
  22 C :   -0.031621
  23 H :    0.026524
  24 H :    0.031529
  25 C :   -0.036522
  26 H :    0.020068
  27 H :    0.026977
  28 C :   -0.052008
  29 H :    0.021458
  30 H :    0.016956
  31 H :    0.029198
  32 H :    0.008918
  33 H :    0.015288

  Mayer bond orders larger than 0.100000
B(  0-S ,  1-C ) :   1.1545 B(  0-S ,  4-C ) :   1.1532 B(  1-C ,  2-C ) :   1.5946
B(  1-C , 32-H ) :   0.9827 B(  2-C ,  3-C ) :   1.2314 B(  2-C ,  6-C ) :   1.0124
B(  3-C ,  4-C ) :   1.5740 B(  3-C ,  5-H ) :   1.0011 B(  4-C , 20-C ) :   1.0141
B(  6-C ,  7-H ) :   0.9419 B(  6-C ,  8-H ) :   0.9433 B(  6-C ,  9-C ) :   1.0701
B(  9-C , 10-H ) :   0.9616 B(  9-C , 11-H ) :   0.9536 B(  9-C , 12-C ) :   1.0670
B( 12-C , 13-H ) :   0.9793 B( 12-C , 14-H ) :   0.9746 B( 12-C , 15-H ) :   0.9662
B( 16-S , 17-C ) :   1.1563 B( 16-S , 20-C ) :   1.1590 B( 17-C , 18-C ) :   1.6103
B( 17-C , 33-H ) :   0.9749 B( 18-C , 19-C ) :   1.2336 B( 18-C , 21-H ) :   0.9964
B( 19-C , 20-C ) :   1.5894 B( 19-C , 22-C ) :   1.0498 B( 22-C , 23-H ) :   0.9327
B( 22-C , 24-H ) :   0.9274 B( 22-C , 25-C ) :   1.0614 B( 25-C , 26-H ) :   0.9585
B( 25-C , 27-H ) :   0.9504 B( 25-C , 28-C ) :   1.0926 B( 28-C , 29-H ) :   0.9742
B( 28-C , 30-H ) :   0.9666 B( 28-C , 31-H ) :   0.9575

Dispersion correction           -0.016547464
FINAL SINGLE POINT ENERGY     -1339.872848793383

DIPOLE MOMENT
-------------
                                X             Y             Z
Electronic contribution:    -10.43047      25.44708       3.14065
Nuclear contribution   :     10.84526     -25.94410      -3.28591
                        -----------------------------------------
Total Dipole Moment    :      0.41479      -0.49702      -0.14526
                        -----------------------------------------
Magnitude (a.u.)       :      0.66346
Magnitude (Debye)      :      1.68638

Rotational constants in cm-1:     0.019538     0.010560     0.007710
Rotational constants in MHz :   585.736789   316.590767   231.130437

                             ****ORCA TERMINATED NORMALLY****
TOTAL RUN TIME: 0 days 0 hours 0 minutes 23 seconds 773 msec
