                         Program Version 4.2.1 -  RELEASE  -
|  1> ! wB97X-D3 SP def2-SVP
|  2> %pal
|  3> nprocs 24
|  4> end
|  5>
|  6> * xyz 0 1
|  7> S 	 -43.4371 	 -1.43058 	 -23.564
|  8> C 	 -44.9634 	 -1.48862 	 -24.4209
|  9> C 	 -44.9723 	 -2.45876 	 -25.3748
| 10> C 	 -43.673 	 -3.12809 	 -25.4941
| 11> C 	 -42.7824 	 -2.82838 	 -24.426
| 12> H 	 -43.416 	 -3.87394 	 -26.1363
| 13> C 	 -46.092 	 -2.83348 	 -26.2695
| 14> H 	 -46.8678 	 -3.27452 	 -25.7058
| 15> H 	 -45.8958 	 -3.68389 	 -26.8718
| 16> C 	 -46.6175 	 -1.72632 	 -27.1838
| 17> H 	 -47.3644 	 -2.27964 	 -27.7819
| 18> H 	 -47.0773 	 -0.919131 	 -26.5448
| 19> C 	 -45.6956 	 -1.03267 	 -28.2084
| 20> H 	 -45.2648 	 -0.0738702 	 -27.7993
| 21> H 	 -44.9254 	 -1.72731 	 -28.5905
| 22> H 	 -46.1944 	 -0.687805 	 -29.0468
| 23> S 	 -40.4027 	 -2.12584 	 -23.3607
| 24> C 	 -39.0875 	 -3.26992 	 -23.324
| 25> C 	 -39.4761 	 -4.45175 	 -23.9286
| 26> C 	 -40.7982 	 -4.49062 	 -24.4846
| 27> C 	 -41.4597 	 -3.27745 	 -24.2336
| 28> H 	 -38.7238 	 -5.22537 	 -24.0543
| 29> C 	 -41.433 	 -5.74465 	 -24.995
| 30> H 	 -40.6163 	 -6.36001 	 -25.3641
| 31> H 	 -42.2261 	 -5.38519 	 -25.677
| 32> C 	 -42.0351 	 -6.67086 	 -23.9365
| 33> H 	 -42.6021 	 -5.97184 	 -23.3435
| 34> H 	 -41.2692 	 -7.20904 	 -23.3101
| 35> C 	 -43.0593 	 -7.66372 	 -24.5354
| 36> H 	 -43.6791 	 -7.16604 	 -25.217
| 37> H 	 -43.7311 	 -8.17377 	 -23.8551
| 38> H 	 -42.6095 	 -8.42187 	 -25.2345
| 39> H 	 -45.7578 	 -0.864928 	 -24.25
| 40> H 	 -37.976 	 -3.10606 	 -23.0805
| 41> *
| 42>
| 43>                          ****END OF INPUT****

CARTESIAN COORDINATES (ANGSTROEM)
---------------------------------
  S    -43.437100   -1.430580  -23.564000
  C    -44.963400   -1.488620  -24.420900
  C    -44.972300   -2.458760  -25.374800
  C    -43.673000   -3.128090  -25.494100
  C    -42.782400   -2.828380  -24.426000
  H    -43.416000   -3.873940  -26.136300
  C    -46.092000   -2.833480  -26.269500
  H    -46.867800   -3.274520  -25.705800
  H    -45.895800   -3.683890  -26.871800
  C    -46.617500   -1.726320  -27.183800
  H    -47.364400   -2.279640  -27.781900
  H    -47.077300   -0.919131  -26.544800
  C    -45.695600   -1.032670  -28.208400
  H    -45.264800   -0.073870  -27.799300
  H    -44.925400   -1.727310  -28.590500
  H    -46.194400   -0.687805  -29.046800
  S    -40.402700   -2.125840  -23.360700
  C    -39.087500   -3.269920  -23.324000
  C    -39.476100   -4.451750  -23.928600
  C    -40.798200   -4.490620  -24.484600
  C    -41.459700   -3.277450  -24.233600
  H    -38.723800   -5.225370  -24.054300
  C    -41.433000   -5.744650  -24.995000
  H    -40.616300   -6.360010  -25.364100
  H    -42.226100   -5.385190  -25.677000
  C    -42.035100   -6.670860  -23.936500
  H    -42.602100   -5.971840  -23.343500
  H    -41.269200   -7.209040  -23.310100
  C    -43.059300   -7.663720  -24.535400
  H    -43.679100   -7.166040  -25.217000
  H    -43.731100   -8.173770  -23.855100
  H    -42.609500   -8.421870  -25.234500
  H    -45.757800   -0.864928  -24.250000
  H    -37.976000   -3.106060  -23.080500

 Total Charge           Charge          ....    0
 Multiplicity           Mult            ....    1
 Number of Electrons    NEL             ....  134
 Basis Dimension        Dim             ....  322

ORBITAL ENERGIES
----------------

  NO   OCC          E(Eh)            E(eV)
   0   2.0000     -88.967299     -2420.9233
   1   2.0000     -88.965327     -2420.8696
   2   2.0000     -10.333194      -281.1805
   3   2.0000     -10.331314      -281.1294
   4   2.0000     -10.323987      -280.9300
   5   2.0000     -10.307076      -280.4698
   6   2.0000     -10.306859      -280.4639
   7   2.0000     -10.300641      -280.2947
   8   2.0000     -10.294928      -280.1392
   9   2.0000     -10.294879      -280.1379
  10   2.0000     -10.293107      -280.0897
  11   2.0000     -10.293024      -280.0874
  12   2.0000     -10.289943      -280.0036
  13   2.0000     -10.283955      -279.8407
  14   2.0000     -10.277358      -279.6611
  15   2.0000     -10.276400      -279.6351
  16   2.0000      -8.081521      -219.9094
  17   2.0000      -8.079758      -219.8614
  18   2.0000      -6.040197      -164.3621
  19   2.0000      -6.038485      -164.3155
  20   2.0000      -6.036053      -164.2494
  21   2.0000      -6.034314      -164.2020
  22   2.0000      -6.032171      -164.1437
  23   2.0000      -6.030285      -164.0924
  24   2.0000      -1.006219       -27.3806
  25   2.0000      -0.980484       -26.6803
  26   2.0000      -0.916226       -24.9318
  27   2.0000      -0.913643       -24.8615
  28   2.0000      -0.873597       -23.7718
  29   2.0000      -0.853453       -23.2236
  30   2.0000      -0.842592       -22.9281
  31   2.0000      -0.814215       -22.1559
  32   2.0000      -0.788907       -21.4673
  33   2.0000      -0.778001       -21.1705
  34   2.0000      -0.714128       -19.4324
  35   2.0000      -0.702786       -19.1238
  36   2.0000      -0.692585       -18.8462
  37   2.0000      -0.667361       -18.1598
  38   2.0000      -0.644289       -17.5320
  39   2.0000      -0.615038       -16.7360
  40   2.0000      -0.590712       -16.0741
  41   2.0000      -0.578564       -15.7435
  42   2.0000      -0.575312       -15.6550
  43   2.0000      -0.551912       -15.0183
  44   2.0000      -0.538127       -14.6432
  45   2.0000      -0.522627       -14.2214
  46   2.0000      -0.517909       -14.0930
  47   2.0000      -0.514243       -13.9933
  48   2.0000      -0.508358       -13.8331
  49   2.0000      -0.504767       -13.7354
  50   2.0000      -0.489632       -13.3236
  51   2.0000      -0.487144       -13.2559
  52   2.0000      -0.472653       -12.8616
  53   2.0000      -0.468584       -12.7508
  54   2.0000      -0.455003       -12.3813
  55   2.0000      -0.452302       -12.3078
  56   2.0000      -0.447539       -12.1782
  57   2.0000      -0.442552       -12.0425
  58   2.0000      -0.430680       -11.7194
  59   2.0000      -0.426727       -11.6118
  60   2.0000      -0.416139       -11.3237
  61   2.0000      -0.407135       -11.0787
  62   2.0000      -0.404278       -11.0010
  63   2.0000      -0.364257        -9.9119
  64   2.0000      -0.333530        -9.0758
  65   2.0000      -0.325010        -8.8440
  66   2.0000      -0.278847        -7.5878
  67   0.0000       0.011952         0.3252
  68   0.0000       0.078845         2.1455
  69   0.0000       0.096890         2.6365
  70   0.0000       0.114342         3.1114
  71   0.0000       0.137661         3.7459

MULLIKEN ATOMIC CHARGES
-----------------------
   0 S :    0.091080
   1 C :   -0.083154
   2 C :   -0.063403
   3 C :    0.027245
   4 C :   -0.117220
   5 H :   -0.026742
   6 C :    0.119245
   7 H :    0.021891
   8 H :   -0.006588
   9 C :   -0.116095
  10 H :    0.030558
  11 H :    0.038595
  12 C :   -0.029923
  13 H :    0.039848
  14 H :    0.032206
  15 H :    0.016405
  16 S :    0.094681
  17 C :   -0.105299
  18 C :   -0.056792
  19 C :   -0.043219
  20 C :   -0.141265
  21 H :    0.017087
  22 C :    0.075574
  23 H :    0.022856
  24 H :    0.018430
  25 C :   -0.064079
  26 H :    0.028932
  27 H :    0.045050
  28 C :   -0.031053
  29 H :    0.001131
  30 H :    0.040077
  31 H :    0.024267
  32 H :    0.011469
  33 H :    0.088203
Sum of atomic charges:    0.0000000

LOEWDIN ATOMIC CHARGES
----------------------
   0 S :    0.393157
   1 C :   -0.181991
   2 C :   -0.053369
   3 C :   -0.054900
   4 C :   -0.183424
   5 H :    0.005562
   6 C :   -0.037760
   7 H :    0.034594
   8 H :    0.025792
   9 C :   -0.040891
  10 H :    0.027186
  11 H :    0.026468
  12 C :   -0.068239
  13 H :    0.034464
  14 H :    0.028922
  15 H :    0.016612
  16 S :    0.391815
  17 C :   -0.204332
  18 C :   -0.075583
  19 C :   -0.055920
  20 C :   -0.180049
  21 H :    0.028876
  22 C :   -0.032643
  23 H :    0.034299
  24 H :    0.033760
  25 C :   -0.035966
  26 H :    0.024371
  27 H :    0.030716
  28 C :   -0.068160
  29 H :    0.014638
  30 H :    0.027668
  31 H :    0.028317
  32 H :    0.011805
  33 H :    0.054202

  Mayer bond orders larger than 0.100000
B(  0-S ,  1-C ) :   1.1208 B(  0-S ,  4-C ) :   1.1337 B(  1-C ,  2-C ) :   1.6219
B(  1-C , 32-H ) :   0.9815 B(  2-C ,  3-C ) :   1.2297 B(  2-C ,  6-C ) :   1.0293
B(  3-C ,  4-C ) :   1.5418 B(  3-C ,  5-H ) :   0.9977 B(  4-C , 20-C ) :   1.1396
B(  6-C ,  7-H ) :   0.9246 B(  6-C ,  8-H ) :   0.9288 B(  6-C ,  9-C ) :   1.0836
B(  9-C , 10-H ) :   0.9578 B(  9-C , 11-H ) :   0.9598 B(  9-C , 12-C ) :   1.0717
B( 12-C , 13-H ) :   0.9742 B( 12-C , 14-H ) :   0.9752 B( 12-C , 15-H ) :   0.9745
B( 16-S , 17-C ) :   1.1413 B( 16-S , 20-C ) :   1.1247 B( 17-C , 18-C ) :   1.6281
B( 17-C , 33-H ) :   0.9531 B( 18-C , 19-C ) :   1.2438 B( 18-C , 21-H ) :   0.9812
B( 19-C , 20-C ) :   1.5481 B( 19-C , 22-C ) :   1.0740 B( 22-C , 23-H ) :   0.9176
B( 22-C , 24-H ) :   0.9277 B( 22-C , 25-C ) :   1.0675 B( 25-C , 26-H ) :   0.9554
B( 25-C , 27-H ) :   0.9553 B( 25-C , 28-C ) :   1.0782 B( 28-C , 29-H ) :   0.9707
B( 28-C , 30-H ) :   0.9759 B( 28-C , 31-H ) :   0.9730

Dispersion correction           -0.014126301
FINAL SINGLE POINT ENERGY     -1339.851860944832

DIPOLE MOMENT
-------------
                                X             Y             Z
Electronic contribution:     14.97141      15.26464      15.92983
Nuclear contribution   :    -15.21634     -15.77870     -16.38321
                        -----------------------------------------
Total Dipole Moment    :     -0.24494      -0.51407      -0.45338
                        -----------------------------------------
Magnitude (a.u.)       :      0.72788
Magnitude (Debye)      :      1.85013

Rotational constants in cm-1:     0.018568     0.008781     0.006769
Rotational constants in MHz :   556.662095   263.254140   202.927706

                             ****ORCA TERMINATED NORMALLY****
TOTAL RUN TIME: 0 days 0 hours 0 minutes 21 seconds 755 msec
