                         Program Version 4.2.1 -  RELEASE  -
|  1> ! wB97X-D3 SP def2-SVP
|  2> %pal
|  3> nprocs 24
|  4> end
|  5>
|  6> * xyz 0 1
|  7> S 	 -96.1722 	 -25.2423 	 -67.3092
|  8> C 	 -97.6355 	 -25.1347 	 -68.2381
|  9> C 	 -98.673 	 -25.7118 	 -67.5521
| 10> C 	 -98.3555 	 -26.0053 	 -66.2189
| 11> C 	 -97.0055 	 -25.878 	 -65.9276
| 12> H 	 -99.0076 	 -26.3239 	 -65.462
| 13> C 	 -100.085 	 -25.8883 	 -68.1753
| 14> H 	 -100.623 	 -26.7345 	 -67.8071
| 15> H 	 -99.8249 	 -26.1328 	 -69.2635
| 16> C 	 -100.893 	 -24.5575 	 -68.1667
| 17> H 	 -100.278 	 -23.7777 	 -68.5937
| 18> H 	 -101.782 	 -24.6025 	 -68.7762
| 19> C 	 -101.363 	 -23.932 	 -66.8758
| 20> H 	 -101.879 	 -23.0441 	 -67.1551
| 21> H 	 -101.954 	 -24.5792 	 -66.2077
| 22> H 	 -100.516 	 -23.6844 	 -66.2967
| 23> S 	 -95.2307 	 -27.3052 	 -64.61
| 24> C 	 -95.0754 	 -27.096 	 -62.8881
| 25> C 	 -95.7014 	 -25.9868 	 -62.4806
| 26> C 	 -96.5921 	 -25.4379 	 -63.4209
| 27> C 	 -96.3389 	 -25.9677 	 -64.6576
| 28> H 	 -95.6526 	 -25.7563 	 -61.4185
| 29> C 	 -97.571 	 -24.2667 	 -63.0817
| 30> H 	 -97.8445 	 -23.818 	 -64.0648
| 31> H 	 -96.916 	 -23.5869 	 -62.526
| 32> C 	 -98.8929 	 -24.6511 	 -62.4036
| 33> H 	 -98.6234 	 -24.9836 	 -61.3716
| 34> H 	 -99.4059 	 -25.4975 	 -62.9345
| 35> C 	 -99.8403 	 -23.5259 	 -62.3893
| 36> H 	 -100.635 	 -23.9648 	 -61.7736
| 37> H 	 -100.435 	 -23.2784 	 -63.285
| 38> H 	 -99.5841 	 -22.53 	 -61.9038
| 39> H 	 -97.7365 	 -24.7468 	 -69.26
| 40> H 	 -94.3698 	 -27.6318 	 -62.1855
| 41> *
| 42>
| 43>                          ****END OF INPUT****

CARTESIAN COORDINATES (ANGSTROEM)
---------------------------------
  S    -96.172200  -25.242300  -67.309200
  C    -97.635500  -25.134700  -68.238100
  C    -98.673000  -25.711800  -67.552100
  C    -98.355500  -26.005300  -66.218900
  C    -97.005500  -25.878000  -65.927600
  H    -99.007600  -26.323900  -65.462000
  C    -100.085000  -25.888300  -68.175300
  H    -100.623000  -26.734500  -67.807100
  H    -99.824900  -26.132800  -69.263500
  C    -100.893000  -24.557500  -68.166700
  H    -100.278000  -23.777700  -68.593700
  H    -101.782000  -24.602500  -68.776200
  C    -101.363000  -23.932000  -66.875800
  H    -101.879000  -23.044100  -67.155100
  H    -101.954000  -24.579200  -66.207700
  H    -100.516000  -23.684400  -66.296700
  S    -95.230700  -27.305200  -64.610000
  C    -95.075400  -27.096000  -62.888100
  C    -95.701400  -25.986800  -62.480600
  C    -96.592100  -25.437900  -63.420900
  C    -96.338900  -25.967700  -64.657600
  H    -95.652600  -25.756300  -61.418500
  C    -97.571000  -24.266700  -63.081700
  H    -97.844500  -23.818000  -64.064800
  H    -96.916000  -23.586900  -62.526000
  C    -98.892900  -24.651100  -62.403600
  H    -98.623400  -24.983600  -61.371600
  H    -99.405900  -25.497500  -62.934500
  C    -99.840300  -23.525900  -62.389300
  H    -100.635000  -23.964800  -61.773600
  H    -100.435000  -23.278400  -63.285000
  H    -99.584100  -22.530000  -61.903800
  H    -97.736500  -24.746800  -69.260000
  H    -94.369800  -27.631800  -62.185500

 Total Charge           Charge          ....    0
 Multiplicity           Mult            ....    1
 Number of Electrons    NEL             ....  134
 Basis Dimension        Dim             ....  322

ORBITAL ENERGIES
----------------

  NO   OCC          E(Eh)            E(eV)
   0   2.0000     -88.964510     -2420.8474
   1   2.0000     -88.961070     -2420.7538
   2   2.0000     -10.322532      -280.8904
   3   2.0000     -10.318416      -280.7784
   4   2.0000     -10.313225      -280.6371
   5   2.0000     -10.311896      -280.6010
   6   2.0000     -10.300303      -280.2855
   7   2.0000     -10.299439      -280.2620
   8   2.0000     -10.298140      -280.2266
   9   2.0000     -10.295495      -280.1547
  10   2.0000     -10.295429      -280.1529
  11   2.0000     -10.287503      -279.9372
  12   2.0000     -10.284813      -279.8640
  13   2.0000     -10.283258      -279.8217
  14   2.0000     -10.281778      -279.7814
  15   2.0000     -10.269870      -279.4574
  16   2.0000      -8.079777      -219.8619
  17   2.0000      -8.076660      -219.7771
  18   2.0000      -6.038171      -164.3070
  19   2.0000      -6.035146      -164.2247
  20   2.0000      -6.034131      -164.1970
  21   2.0000      -6.031093      -164.1144
  22   2.0000      -6.030689      -164.1034
  23   2.0000      -6.027329      -164.0120
  24   2.0000      -1.014738       -27.6124
  25   2.0000      -0.991141       -26.9703
  26   2.0000      -0.912386       -24.8273
  27   2.0000      -0.909224       -24.7412
  28   2.0000      -0.874642       -23.8002
  29   2.0000      -0.855462       -23.2783
  30   2.0000      -0.849101       -23.1052
  31   2.0000      -0.818013       -22.2593
  32   2.0000      -0.785267       -21.3682
  33   2.0000      -0.772512       -21.0211
  34   2.0000      -0.704235       -19.1632
  35   2.0000      -0.697302       -18.9745
  36   2.0000      -0.690197       -18.7812
  37   2.0000      -0.659711       -17.9517
  38   2.0000      -0.642688       -17.4884
  39   2.0000      -0.615458       -16.7475
  40   2.0000      -0.590955       -16.0807
  41   2.0000      -0.576050       -15.6751
  42   2.0000      -0.567670       -15.4471
  43   2.0000      -0.551091       -14.9959
  44   2.0000      -0.538689       -14.6585
  45   2.0000      -0.526935       -14.3386
  46   2.0000      -0.519135       -14.1264
  47   2.0000      -0.516667       -14.0592
  48   2.0000      -0.505910       -13.7665
  49   2.0000      -0.499249       -13.5853
  50   2.0000      -0.494047       -13.4437
  51   2.0000      -0.482661       -13.1339
  52   2.0000      -0.474943       -12.9239
  53   2.0000      -0.466475       -12.6934
  54   2.0000      -0.460670       -12.5355
  55   2.0000      -0.443129       -12.0581
  56   2.0000      -0.439306       -11.9541
  57   2.0000      -0.433438       -11.7944
  58   2.0000      -0.432066       -11.7571
  59   2.0000      -0.426459       -11.6045
  60   2.0000      -0.422697       -11.5022
  61   2.0000      -0.412723       -11.2308
  62   2.0000      -0.405879       -11.0445
  63   2.0000      -0.343933        -9.3589
  64   2.0000      -0.334188        -9.0937
  65   2.0000      -0.326938        -8.8964
  66   2.0000      -0.297161        -8.0862
  67   0.0000       0.041455         1.1280
  68   0.0000       0.064270         1.7489
  69   0.0000       0.112193         3.0529
  70   0.0000       0.123594         3.3632
  71   0.0000       0.132907         3.6166

MULLIKEN ATOMIC CHARGES
-----------------------
   0 S :    0.122510
   1 C :   -0.139500
   2 C :   -0.089128
   3 C :    0.050987
   4 C :   -0.154423
   5 H :   -0.017948
   6 C :    0.069329
   7 H :    0.026715
   8 H :    0.036029
   9 C :   -0.067294
  10 H :    0.014612
  11 H :    0.024488
  12 C :   -0.030125
  13 H :    0.031016
  14 H :    0.024453
  15 H :    0.021108
  16 S :    0.105297
  17 C :   -0.102856
  18 C :   -0.037832
  19 C :   -0.034296
  20 C :   -0.164638
  21 H :    0.016387
  22 C :    0.051243
  23 H :    0.031744
  24 H :    0.037845
  25 C :   -0.062909
  26 H :    0.033157
  27 H :    0.039904
  28 C :   -0.073448
  29 H :    0.024128
  30 H :    0.041246
  31 H :    0.045652
  32 H :    0.056406
  33 H :    0.070141
Sum of atomic charges:    0.0000000

LOEWDIN ATOMIC CHARGES
----------------------
   0 S :    0.424206
   1 C :   -0.206711
   2 C :   -0.067649
   3 C :   -0.060103
   4 C :   -0.206732
   5 H :    0.021873
   6 C :   -0.027148
   7 H :    0.024086
   8 H :    0.041462
   9 C :   -0.041358
  10 H :    0.024223
  11 H :    0.020283
  12 C :   -0.060871
  13 H :    0.026910
  14 H :    0.021904
  15 H :    0.016709
  16 S :    0.411683
  17 C :   -0.193641
  18 C :   -0.081466
  19 C :   -0.054930
  20 C :   -0.206354
  21 H :    0.031954
  22 C :   -0.030406
  23 H :    0.033237
  24 H :    0.033824
  25 C :   -0.045244
  26 H :    0.028232
  27 H :    0.034923
  28 C :   -0.083644
  29 H :    0.032324
  30 H :    0.029507
  31 H :    0.032774
  32 H :    0.033663
  33 H :    0.042477

  Mayer bond orders larger than 0.100000
B(  0-S ,  1-C ) :   1.1544 B(  0-S ,  4-C ) :   1.1688 B(  1-C ,  2-C ) :   1.5954
B(  1-C ,  4-C ) :   0.1074 B(  1-C , 32-H ) :   0.9642 B(  2-C ,  3-C ) :   1.2514
B(  2-C ,  6-C ) :   1.0087 B(  3-C ,  4-C ) :   1.5624 B(  3-C ,  5-H ) :   1.0143
B(  4-C , 20-C ) :   0.9818 B(  6-C ,  7-H ) :   0.9510 B(  6-C ,  8-H ) :   0.9409
B(  6-C ,  9-C ) :   1.0653 B(  9-C , 10-H ) :   0.9533 B(  9-C , 11-H ) :   0.9592
B(  9-C , 12-C ) :   1.0860 B( 12-C , 13-H ) :   0.9705 B( 12-C , 14-H ) :   0.9744
B( 12-C , 15-H ) :   0.9731 B( 16-S , 17-C ) :   1.1457 B( 16-S , 20-C ) :   1.1478
B( 17-C , 18-C ) :   1.6581 B( 17-C , 33-H ) :   0.9531 B( 18-C , 19-C ) :   1.2155
B( 18-C , 21-H ) :   0.9815 B( 19-C , 20-C ) :   1.6407 B( 19-C , 22-C ) :   1.0200
B( 22-C , 23-H ) :   0.9399 B( 22-C , 24-H ) :   0.9408 B( 22-C , 25-C ) :   1.0651
B( 25-C , 26-H ) :   0.9515 B( 25-C , 27-H ) :   0.9470 B( 25-C , 28-C ) :   1.0934
B( 28-C , 29-H ) :   0.9669 B( 28-C , 30-H ) :   0.9700 B( 28-C , 31-H ) :   0.9709

Dispersion correction           -0.015075706
FINAL SINGLE POINT ENERGY     -1339.867502062830

DIPOLE MOMENT
-------------
                                X             Y             Z
Electronic contribution:     27.84776     -13.22510      -5.63438
Nuclear contribution   :    -28.48393      13.46001       5.94116
                        -----------------------------------------
Total Dipole Moment    :     -0.63617       0.23491       0.30679
                        -----------------------------------------
Magnitude (a.u.)       :      0.74432
Magnitude (Debye)      :      1.89190

Rotational constants in cm-1:     0.017392     0.010301     0.007102
Rotational constants in MHz :   521.393950   308.807186   212.903040

                             ****ORCA TERMINATED NORMALLY****
TOTAL RUN TIME: 0 days 0 hours 0 minutes 22 seconds 562 msec
