                         Program Version 4.2.1 -  RELEASE  -
|  1> ! wB97X-D3 SP def2-SVP
|  2> %pal
|  3> nprocs 24
|  4> end
|  5>
|  6> * xyz 0 1
|  7> S 	 -89.1034 	 -3.37152 	 -117.77
|  8> C 	 -88.976 	 -4.99791 	 -118.526
|  9> C 	 -90.2086 	 -5.3989 	 -118.921
| 10> C 	 -91.2411 	 -4.58196 	 -118.487
| 11> C 	 -90.8141 	 -3.45787 	 -117.772
| 12> H 	 -92.3294 	 -4.67543 	 -118.478
| 13> C 	 -90.4729 	 -6.64791 	 -119.672
| 14> H 	 -89.7764 	 -6.74815 	 -120.49
| 15> H 	 -91.3817 	 -6.61298 	 -120.147
| 16> C 	 -90.3449 	 -7.96631 	 -118.88
| 17> H 	 -89.2804 	 -8.06402 	 -118.464
| 18> H 	 -90.7574 	 -7.86465 	 -117.817
| 19> C 	 -90.9235 	 -9.18841 	 -119.644
| 20> H 	 -90.5032 	 -9.19787 	 -120.64
| 21> H 	 -90.6928 	 -10.162 	 -119.232
| 22> H 	 -91.9592 	 -9.01128 	 -119.733
| 23> S 	 -90.8779 	 -1.47972 	 -116.004
| 24> C 	 -92.1894 	 -0.280851 	 -116.092
| 25> C 	 -93.1335 	 -0.607428 	 -117.019
| 26> C 	 -92.8111 	 -1.78028 	 -117.81
| 27> C 	 -91.5686 	 -2.27373 	 -117.441
| 28> H 	 -93.9837 	 0.0163883 	 -117.083
| 29> C 	 -93.7146 	 -2.19586 	 -118.911
| 30> H 	 -93.1725 	 -2.67562 	 -119.706
| 31> H 	 -94.0405 	 -1.3372 	 -119.565
| 32> C 	 -94.9537 	 -3.05637 	 -118.565
| 33> H 	 -95.7504 	 -2.40026 	 -118.201
| 34> H 	 -94.7759 	 -3.76405 	 -117.791
| 35> C 	 -95.5479 	 -3.68954 	 -119.798
| 36> H 	 -96.5452 	 -4.015 	 -119.538
| 37> H 	 -95.1421 	 -4.54637 	 -120.255
| 38> H 	 -95.5718 	 -2.96186 	 -120.571
| 39> H 	 -88.0667 	 -5.47398 	 -118.877
| 40> H 	 -92.2352 	 0.553794 	 -115.489
| 41> *
| 42>
| 43>                          ****END OF INPUT****

CARTESIAN COORDINATES (ANGSTROEM)
---------------------------------
  S    -89.103400   -3.371520  -117.770000
  C    -88.976000   -4.997910  -118.526000
  C    -90.208600   -5.398900  -118.921000
  C    -91.241100   -4.581960  -118.487000
  C    -90.814100   -3.457870  -117.772000
  H    -92.329400   -4.675430  -118.478000
  C    -90.472900   -6.647910  -119.672000
  H    -89.776400   -6.748150  -120.490000
  H    -91.381700   -6.612980  -120.147000
  C    -90.344900   -7.966310  -118.880000
  H    -89.280400   -8.064020  -118.464000
  H    -90.757400   -7.864650  -117.817000
  C    -90.923500   -9.188410  -119.644000
  H    -90.503200   -9.197870  -120.640000
  H    -90.692800  -10.162000  -119.232000
  H    -91.959200   -9.011280  -119.733000
  S    -90.877900   -1.479720  -116.004000
  C    -92.189400   -0.280851  -116.092000
  C    -93.133500   -0.607428  -117.019000
  C    -92.811100   -1.780280  -117.810000
  C    -91.568600   -2.273730  -117.441000
  H    -93.983700    0.016388  -117.083000
  C    -93.714600   -2.195860  -118.911000
  H    -93.172500   -2.675620  -119.706000
  H    -94.040500   -1.337200  -119.565000
  C    -94.953700   -3.056370  -118.565000
  H    -95.750400   -2.400260  -118.201000
  H    -94.775900   -3.764050  -117.791000
  C    -95.547900   -3.689540  -119.798000
  H    -96.545200   -4.015000  -119.538000
  H    -95.142100   -4.546370  -120.255000
  H    -95.571800   -2.961860  -120.571000
  H    -88.066700   -5.473980  -118.877000
  H    -92.235200    0.553794  -115.489000

 Total Charge           Charge          ....    0
 Multiplicity           Mult            ....    1
 Number of Electrons    NEL             ....  134
 Basis Dimension        Dim             ....  322

ORBITAL ENERGIES
----------------

  NO   OCC          E(Eh)            E(eV)
   0   2.0000     -88.965333     -2420.8698
   1   2.0000     -88.963083     -2420.8086
   2   2.0000     -10.330254      -281.1005
   3   2.0000     -10.324199      -280.9357
   4   2.0000     -10.312189      -280.6089
   5   2.0000     -10.311887      -280.6007
   6   2.0000     -10.308031      -280.4958
   7   2.0000     -10.296122      -280.1717
   8   2.0000     -10.295117      -280.1444
   9   2.0000     -10.293910      -280.1115
  10   2.0000     -10.291798      -280.0541
  11   2.0000     -10.289515      -279.9919
  12   2.0000     -10.287668      -279.9417
  13   2.0000     -10.282155      -279.7917
  14   2.0000     -10.278218      -279.6845
  15   2.0000     -10.271254      -279.4950
  16   2.0000      -8.079977      -219.8673
  17   2.0000      -8.077367      -219.7963
  18   2.0000      -6.038429      -164.3140
  19   2.0000      -6.035963      -164.2469
  20   2.0000      -6.034501      -164.2071
  21   2.0000      -6.032087      -164.1414
  22   2.0000      -6.030766      -164.1055
  23   2.0000      -6.027901      -164.0275
  24   2.0000      -1.010705       -27.5027
  25   2.0000      -0.983152       -26.7529
  26   2.0000      -0.917081       -24.9551
  27   2.0000      -0.912988       -24.8437
  28   2.0000      -0.872016       -23.7288
  29   2.0000      -0.858460       -23.3599
  30   2.0000      -0.844667       -22.9846
  31   2.0000      -0.816905       -22.2291
  32   2.0000      -0.786610       -21.4047
  33   2.0000      -0.777081       -21.1454
  34   2.0000      -0.713586       -19.4177
  35   2.0000      -0.706128       -19.2147
  36   2.0000      -0.701051       -19.0766
  37   2.0000      -0.669173       -18.2091
  38   2.0000      -0.643026       -17.4976
  39   2.0000      -0.617523       -16.8037
  40   2.0000      -0.606708       -16.5094
  41   2.0000      -0.573216       -15.5980
  42   2.0000      -0.566353       -15.4113
  43   2.0000      -0.551663       -15.0115
  44   2.0000      -0.534616       -14.5476
  45   2.0000      -0.526137       -14.3169
  46   2.0000      -0.524710       -14.2781
  47   2.0000      -0.513952       -13.9853
  48   2.0000      -0.506674       -13.7873
  49   2.0000      -0.500665       -13.6238
  50   2.0000      -0.491679       -13.3793
  51   2.0000      -0.485775       -13.2186
  52   2.0000      -0.477049       -12.9812
  53   2.0000      -0.468063       -12.7366
  54   2.0000      -0.455832       -12.4038
  55   2.0000      -0.448943       -12.2164
  56   2.0000      -0.448500       -12.2043
  57   2.0000      -0.443291       -12.0626
  58   2.0000      -0.438875       -11.9424
  59   2.0000      -0.428854       -11.6697
  60   2.0000      -0.421116       -11.4591
  61   2.0000      -0.411345       -11.1933
  62   2.0000      -0.399047       -10.8586
  63   2.0000      -0.355763        -9.6808
  64   2.0000      -0.333217        -9.0673
  65   2.0000      -0.330608        -8.9963
  66   2.0000      -0.285515        -7.7692
  67   0.0000       0.019189         0.5222
  68   0.0000       0.079283         2.1574
  69   0.0000       0.094712         2.5772
  70   0.0000       0.114252         3.1090
  71   0.0000       0.127383         3.4663

MULLIKEN ATOMIC CHARGES
-----------------------
   0 S :    0.095558
   1 C :   -0.111827
   2 C :   -0.066862
   3 C :   -0.010571
   4 C :   -0.113668
   5 H :    0.011367
   6 C :    0.127110
   7 H :    0.016494
   8 H :   -0.012197
   9 C :   -0.132104
  10 H :    0.023371
  11 H :    0.031424
  12 C :   -0.003246
  13 H :    0.022091
  14 H :    0.039407
  15 H :    0.030256
  16 S :    0.074998
  17 C :   -0.047140
  18 C :   -0.015270
  19 C :   -0.016098
  20 C :   -0.117680
  21 H :    0.003915
  22 C :   -0.002480
  23 H :    0.014881
  24 H :    0.030058
  25 C :   -0.040787
  26 H :    0.028397
  27 H :    0.028546
  28 C :   -0.018082
  29 H :    0.022876
  30 H :    0.019621
  31 H :    0.014795
  32 H :    0.047945
  33 H :    0.024900
Sum of atomic charges:   -0.0000000

LOEWDIN ATOMIC CHARGES
----------------------
   0 S :    0.406428
   1 C :   -0.183736
   2 C :   -0.063443
   3 C :   -0.072158
   4 C :   -0.203505
   5 H :    0.035304
   6 C :   -0.025725
   7 H :    0.030959
   8 H :    0.016610
   9 C :   -0.052392
  10 H :    0.025368
  11 H :    0.027424
  12 C :   -0.058678
  13 H :    0.024765
  14 H :    0.028924
  15 H :    0.022510
  16 S :    0.370870
  17 C :   -0.156242
  18 C :   -0.056732
  19 C :   -0.055468
  20 C :   -0.173505
  21 H :    0.026795
  22 C :   -0.047243
  23 H :    0.027138
  24 H :    0.040013
  25 C :   -0.032456
  26 H :    0.028709
  27 H :    0.019181
  28 C :   -0.058743
  29 H :    0.028017
  30 H :    0.017362
  31 H :    0.020908
  32 H :    0.030844
  33 H :    0.011898

  Mayer bond orders larger than 0.100000
B(  0-S ,  1-C ) :   1.1210 B(  0-S ,  4-C ) :   1.1665 B(  1-C ,  2-C ) :   1.5995
B(  1-C ,  4-C ) :   0.1026 B(  1-C , 32-H ) :   0.9710 B(  2-C ,  3-C ) :   1.2481
B(  2-C ,  6-C ) :   1.0364 B(  3-C ,  4-C ) :   1.5601 B(  3-C ,  5-H ) :   0.9981
B(  4-C , 20-C ) :   1.0364 B(  6-C ,  7-H ) :   0.9251 B(  6-C ,  8-H ) :   0.9382
B(  6-C ,  9-C ) :   1.0487 B(  9-C , 10-H ) :   0.9532 B(  9-C , 11-H ) :   0.9583
B(  9-C , 12-C ) :   1.0607 B( 12-C , 13-H ) :   0.9743 B( 12-C , 14-H ) :   0.9748
B( 12-C , 15-H ) :   0.9765 B( 16-S , 17-C ) :   1.1206 B( 16-S , 20-C ) :   1.1184
B( 17-C , 18-C ) :   1.6607 B( 17-C , 33-H ) :   0.9760 B( 18-C , 19-C ) :   1.1835
B( 18-C , 21-H ) :   0.9970 B( 19-C , 20-C ) :   1.6294 B( 19-C , 22-C ) :   1.0522
B( 22-C , 23-H ) :   0.9431 B( 22-C , 24-H ) :   0.9248 B( 22-C , 25-C ) :   1.0499
B( 25-C , 26-H ) :   0.9513 B( 25-C , 27-H ) :   0.9585 B( 25-C , 28-C ) :   1.0851
B( 28-C , 29-H ) :   0.9715 B( 28-C , 30-H ) :   0.9755 B( 28-C , 31-H ) :   0.9695

Dispersion correction           -0.013793705
FINAL SINGLE POINT ENERGY     -1339.858201971912

DIPOLE MOMENT
-------------
                                X             Y             Z
Electronic contribution:     17.71931      21.28211      15.64509
Nuclear contribution   :    -18.33640     -21.52149     -16.12513
                        -----------------------------------------
Total Dipole Moment    :     -0.61709      -0.23938      -0.48003
                        -----------------------------------------
Magnitude (a.u.)       :      0.81764
Magnitude (Debye)      :      2.07828

Rotational constants in cm-1:     0.017671     0.008923     0.006270
Rotational constants in MHz :   529.767348   267.496371   187.975870

                             ****ORCA TERMINATED NORMALLY****
TOTAL RUN TIME: 0 days 0 hours 0 minutes 21 seconds 283 msec
