                         Program Version 4.2.1 -  RELEASE  -
|  1> ! wB97X-D3 SP def2-SVP
|  2> %pal
|  3> nprocs 24
|  4> end
|  5>
|  6> * xyz 0 1
|  7> S 	 -47.1371 	 29.6192 	 27.9207
|  8> C 	 -48.1546 	 28.507 	 28.7515
|  9> C 	 -47.3664 	 27.5046 	 29.4098
| 10> C 	 -45.9758 	 27.7603 	 29.2547
| 11> C 	 -45.6235 	 28.7703 	 28.3782
| 12> H 	 -45.2275 	 27.2385 	 29.8324
| 13> C 	 -47.9237 	 26.3356 	 30.2129
| 14> H 	 -48.4901 	 25.7974 	 29.4371
| 15> H 	 -48.7573 	 26.6851 	 30.8356
| 16> C 	 -46.9398 	 25.4869 	 31.09
| 17> H 	 -46.1449 	 25.1646 	 30.4222
| 18> H 	 -46.4148 	 26.1135 	 31.8035
| 19> C 	 -47.6803 	 24.4392 	 31.8779
| 20> H 	 -48.4062 	 23.7833 	 31.3634
| 21> H 	 -46.9749 	 23.8592 	 32.506
| 22> H 	 -48.1934 	 24.8715 	 32.7442
| 23> S 	 -43.5915 	 30.4124 	 29.2166
| 24> C 	 -42.2032 	 30.5119 	 28.2024
| 25> C 	 -42.204 	 29.6294 	 27.1144
| 26> C 	 -43.3387 	 28.7812 	 27.1436
| 27> C 	 -44.2671 	 29.2451 	 28.0667
| 28> H 	 -41.4496 	 29.6673 	 26.3906
| 29> C 	 -43.6739 	 27.7018 	 26.0759
| 30> H 	 -42.7139 	 27.5809 	 25.5156
| 31> H 	 -44.3558 	 28.1252 	 25.3346
| 32> C 	 -44.0465 	 26.2812 	 26.5927
| 33> H 	 -45.0393 	 26.3405 	 26.9974
| 34> H 	 -43.4078 	 26.0633 	 27.4456
| 35> C 	 -43.9348 	 25.2253 	 25.5367
| 36> H 	 -44.4446 	 24.2583 	 25.8276
| 37> H 	 -42.946 	 24.9641 	 25.1249
| 38> H 	 -44.5161 	 25.623 	 24.6621
| 39> H 	 -49.2148 	 28.5538 	 28.7139
| 40> H 	 -41.4395 	 31.3201 	 28.3443
| 41> *
| 42>
| 43>                          ****END OF INPUT****

CARTESIAN COORDINATES (ANGSTROEM)
---------------------------------
  S    -47.137100   29.619200   27.920700
  C    -48.154600   28.507000   28.751500
  C    -47.366400   27.504600   29.409800
  C    -45.975800   27.760300   29.254700
  C    -45.623500   28.770300   28.378200
  H    -45.227500   27.238500   29.832400
  C    -47.923700   26.335600   30.212900
  H    -48.490100   25.797400   29.437100
  H    -48.757300   26.685100   30.835600
  C    -46.939800   25.486900   31.090000
  H    -46.144900   25.164600   30.422200
  H    -46.414800   26.113500   31.803500
  C    -47.680300   24.439200   31.877900
  H    -48.406200   23.783300   31.363400
  H    -46.974900   23.859200   32.506000
  H    -48.193400   24.871500   32.744200
  S    -43.591500   30.412400   29.216600
  C    -42.203200   30.511900   28.202400
  C    -42.204000   29.629400   27.114400
  C    -43.338700   28.781200   27.143600
  C    -44.267100   29.245100   28.066700
  H    -41.449600   29.667300   26.390600
  C    -43.673900   27.701800   26.075900
  H    -42.713900   27.580900   25.515600
  H    -44.355800   28.125200   25.334600
  C    -44.046500   26.281200   26.592700
  H    -45.039300   26.340500   26.997400
  H    -43.407800   26.063300   27.445600
  C    -43.934800   25.225300   25.536700
  H    -44.444600   24.258300   25.827600
  H    -42.946000   24.964100   25.124900
  H    -44.516100   25.623000   24.662100
  H    -49.214800   28.553800   28.713900
  H    -41.439500   31.320100   28.344300

 Total Charge           Charge          ....    0
 Multiplicity           Mult            ....    1
 Number of Electrons    NEL             ....  134
 Basis Dimension        Dim             ....  322

ORBITAL ENERGIES
----------------

  NO   OCC          E(Eh)            E(eV)
   0   2.0000     -88.966536     -2420.9025
   1   2.0000     -88.965115     -2420.8638
   2   2.0000     -10.327555      -281.0271
   3   2.0000     -10.323763      -280.9239
   4   2.0000     -10.318866      -280.7906
   5   2.0000     -10.314745      -280.6785
   6   2.0000     -10.306009      -280.4408
   7   2.0000     -10.304554      -280.4012
   8   2.0000     -10.295924      -280.1663
   9   2.0000     -10.295326      -280.1501
  10   2.0000     -10.293442      -280.0988
  11   2.0000     -10.292208      -280.0652
  12   2.0000     -10.291555      -280.0475
  13   2.0000     -10.284408      -279.8530
  14   2.0000     -10.282287      -279.7952
  15   2.0000     -10.280156      -279.7373
  16   2.0000      -8.081511      -219.9091
  17   2.0000      -8.079245      -219.8474
  18   2.0000      -6.039768      -164.3504
  19   2.0000      -6.037697      -164.2941
  20   2.0000      -6.036100      -164.2506
  21   2.0000      -6.033611      -164.1829
  22   2.0000      -6.032417      -164.1504
  23   2.0000      -6.030340      -164.0939
  24   2.0000      -1.001197       -27.2440
  25   2.0000      -0.979859       -26.6633
  26   2.0000      -0.908042       -24.7091
  27   2.0000      -0.903997       -24.5990
  28   2.0000      -0.865009       -23.5381
  29   2.0000      -0.853652       -23.2291
  30   2.0000      -0.848242       -23.0819
  31   2.0000      -0.810387       -22.0517
  32   2.0000      -0.778577       -21.1862
  33   2.0000      -0.763850       -20.7854
  34   2.0000      -0.714138       -19.4327
  35   2.0000      -0.699954       -19.0467
  36   2.0000      -0.683593       -18.6015
  37   2.0000      -0.660264       -17.9667
  38   2.0000      -0.640315       -17.4238
  39   2.0000      -0.618271       -16.8240
  40   2.0000      -0.592228       -16.1154
  41   2.0000      -0.565345       -15.3838
  42   2.0000      -0.562490       -15.3061
  43   2.0000      -0.560497       -15.2519
  44   2.0000      -0.530221       -14.4280
  45   2.0000      -0.516766       -14.0619
  46   2.0000      -0.513076       -13.9615
  47   2.0000      -0.506239       -13.7755
  48   2.0000      -0.501786       -13.6543
  49   2.0000      -0.495024       -13.4703
  50   2.0000      -0.489868       -13.3300
  51   2.0000      -0.477586       -12.9958
  52   2.0000      -0.471893       -12.8409
  53   2.0000      -0.465817       -12.6755
  54   2.0000      -0.459272       -12.4974
  55   2.0000      -0.453607       -12.3433
  56   2.0000      -0.451073       -12.2743
  57   2.0000      -0.437893       -11.9157
  58   2.0000      -0.426585       -11.6080
  59   2.0000      -0.424285       -11.5454
  60   2.0000      -0.421311       -11.4645
  61   2.0000      -0.412819       -11.2334
  62   2.0000      -0.406872       -11.0716
  63   2.0000      -0.338227        -9.2036
  64   2.0000      -0.329845        -8.9755
  65   2.0000      -0.310547        -8.4504
  66   2.0000      -0.303421        -8.2565
  67   0.0000       0.039784         1.0826
  68   0.0000       0.048562         1.3214
  69   0.0000       0.112323         3.0565
  70   0.0000       0.124631         3.3914
  71   0.0000       0.131841         3.5876

MULLIKEN ATOMIC CHARGES
-----------------------
   0 S :    0.115391
   1 C :   -0.116716
   2 C :   -0.095554
   3 C :    0.029921
   4 C :   -0.170970
   5 H :    0.014232
   6 C :    0.034392
   7 H :    0.037891
   8 H :    0.024490
   9 C :   -0.061442
  10 H :    0.037586
  11 H :    0.032243
  12 C :   -0.039139
  13 H :    0.046585
  14 H :    0.025677
  15 H :    0.024709
  16 S :    0.127298
  17 C :   -0.109474
  18 C :   -0.015862
  19 C :   -0.012257
  20 C :   -0.192352
  21 H :   -0.001667
  22 C :    0.030459
  23 H :    0.013933
  24 H :    0.049947
  25 C :   -0.044408
  26 H :    0.045391
  27 H :    0.023141
  28 C :   -0.072718
  29 H :    0.041684
  30 H :    0.038168
  31 H :    0.028702
  32 H :    0.039588
  33 H :    0.071132
Sum of atomic charges:    0.0000000

LOEWDIN ATOMIC CHARGES
----------------------
   0 S :    0.409893
   1 C :   -0.205961
   2 C :   -0.063870
   3 C :   -0.063440
   4 C :   -0.201048
   5 H :    0.029587
   6 C :   -0.041246
   7 H :    0.038194
   8 H :    0.031222
   9 C :   -0.041843
  10 H :    0.023416
  11 H :    0.029098
  12 C :   -0.073291
  13 H :    0.029065
  14 H :    0.032235
  15 H :    0.029897
  16 S :    0.415345
  17 C :   -0.196335
  18 C :   -0.066579
  19 C :   -0.046559
  20 C :   -0.199046
  21 H :    0.022947
  22 C :   -0.030303
  23 H :    0.029854
  24 H :    0.034592
  25 C :   -0.043659
  26 H :    0.025863
  27 H :    0.023281
  28 C :   -0.074607
  29 H :    0.033206
  30 H :    0.024717
  31 H :    0.029566
  32 H :    0.021165
  33 H :    0.034646

  Mayer bond orders larger than 0.100000
B(  0-S ,  1-C ) :   1.1750 B(  0-S ,  4-C ) :   1.1540 B(  1-C ,  2-C ) :   1.5458
B(  1-C ,  4-C ) :   0.1145 B(  1-C , 32-H ) :   0.9792 B(  2-C ,  3-C ) :   1.2986
B(  2-C ,  6-C ) :   1.0001 B(  3-C ,  4-C ) :   1.5398 B(  3-C ,  5-H ) :   0.9874
B(  4-C , 20-C ) :   1.0197 B(  6-C ,  7-H ) :   0.9338 B(  6-C ,  8-H ) :   0.9426
B(  6-C ,  9-C ) :   1.0680 B(  9-C , 10-H ) :   0.9500 B(  9-C , 11-H ) :   0.9505
B(  9-C , 12-C ) :   1.0883 B( 12-C , 13-H ) :   0.9773 B( 12-C , 14-H ) :   0.9661
B( 12-C , 15-H ) :   0.9675 B( 16-S , 17-C ) :   1.1724 B( 16-S , 20-C ) :   1.1512
B( 17-C , 18-C ) :   1.6002 B( 17-C , 20-C ) :   0.1041 B( 17-C , 33-H ) :   0.9581
B( 18-C , 19-C ) :   1.2437 B( 18-C , 21-H ) :   0.9993 B( 19-C , 20-C ) :   1.5966
B( 19-C , 22-C ) :   1.0299 B( 22-C , 23-H ) :   0.9403 B( 22-C , 24-H ) :   0.9381
B( 22-C , 25-C ) :   1.0516 B( 25-C , 26-H ) :   0.9471 B( 25-C , 27-H ) :   0.9565
B( 25-C , 28-C ) :   1.0893 B( 28-C , 29-H ) :   0.9723 B( 28-C , 30-H ) :   0.9745
B( 28-C , 31-H ) :   0.9704

Dispersion correction           -0.014423983
FINAL SINGLE POINT ENERGY     -1339.873933828492

DIPOLE MOMENT
-------------
                                X             Y             Z
Electronic contribution:      2.79323      27.97613      -0.90437
Nuclear contribution   :     -2.80154     -28.46889       1.00558
                        -----------------------------------------
Total Dipole Moment    :     -0.00831      -0.49275       0.10121
                        -----------------------------------------
Magnitude (a.u.)       :      0.50311
Magnitude (Debye)      :      1.27880

Rotational constants in cm-1:     0.016587     0.008674     0.007378
Rotational constants in MHz :   497.253574   260.034622   221.193622

                             ****ORCA TERMINATED NORMALLY****
TOTAL RUN TIME: 0 days 0 hours 0 minutes 20 seconds 290 msec
