                         Program Version 4.2.1 -  RELEASE  -
|  1> ! wB97X-D3 SP def2-SVP
|  2> %pal
|  3> nprocs 24
|  4> end
|  5>
|  6> * xyz 0 1
|  7> S 	 -53.1255 	 -51.021 	 -80.1585
|  8> C 	 -52.1166 	 -49.8853 	 -79.4121
|  9> C 	 -51.2003 	 -49.3498 	 -80.2541
| 10> C 	 -51.3166 	 -49.8326 	 -81.6014
| 11> C 	 -52.2989 	 -50.8519 	 -81.6945
| 12> H 	 -50.7637 	 -49.6253 	 -82.4954
| 13> C 	 -50.3952 	 -48.101 	 -79.8752
| 14> H 	 -49.6051 	 -48.4046 	 -79.2695
| 15> H 	 -50.8354 	 -47.4268 	 -79.1726
| 16> C 	 -49.8054 	 -47.2123 	 -81.0296
| 17> H 	 -49.1199 	 -46.4769 	 -80.5826
| 18> H 	 -49.2112 	 -47.9154 	 -81.6045
| 19> C 	 -50.9481 	 -46.3971 	 -81.7954
| 20> H 	 -51.5887 	 -45.9924 	 -81.0023
| 21> H 	 -50.5223 	 -45.6325 	 -82.4048
| 22> H 	 -51.6148 	 -47.0561 	 -82.3531
| 23> S 	 -53.1733 	 -53.3362 	 -82.2879
| 24> C 	 -53.4233 	 -53.804 	 -83.9773
| 25> C 	 -52.9909 	 -52.8384 	 -84.8726
| 26> C 	 -52.5239 	 -51.6613 	 -84.235
| 27> C 	 -52.5265 	 -51.7687 	 -82.8185
| 28> H 	 -53.2531 	 -53.0928 	 -85.9332
| 29> C 	 -52.2826 	 -50.3159 	 -84.9308
| 30> H 	 -51.9193 	 -50.4137 	 -85.9659
| 31> H 	 -51.4146 	 -49.9725 	 -84.3724
| 32> C 	 -53.3816 	 -49.3001 	 -84.7772
| 33> H 	 -53.4998 	 -49.2447 	 -83.7268
| 34> H 	 -54.2843 	 -49.7865 	 -85.1411
| 35> C 	 -53.0908 	 -47.8697 	 -85.2606
| 36> H 	 -53.0683 	 -47.8242 	 -86.3331
| 37> H 	 -52.0789 	 -47.4922 	 -84.8119
| 38> H 	 -53.862 	 -47.1881 	 -84.8458
| 39> H 	 -52.1952 	 -49.6066 	 -78.3704
| 40> H 	 -53.9636 	 -54.661 	 -84.3901
| 41> *
| 42>
| 43>                          ****END OF INPUT****

CARTESIAN COORDINATES (ANGSTROEM)
---------------------------------
  S    -53.125500  -51.021000  -80.158500
  C    -52.116600  -49.885300  -79.412100
  C    -51.200300  -49.349800  -80.254100
  C    -51.316600  -49.832600  -81.601400
  C    -52.298900  -50.851900  -81.694500
  H    -50.763700  -49.625300  -82.495400
  C    -50.395200  -48.101000  -79.875200
  H    -49.605100  -48.404600  -79.269500
  H    -50.835400  -47.426800  -79.172600
  C    -49.805400  -47.212300  -81.029600
  H    -49.119900  -46.476900  -80.582600
  H    -49.211200  -47.915400  -81.604500
  C    -50.948100  -46.397100  -81.795400
  H    -51.588700  -45.992400  -81.002300
  H    -50.522300  -45.632500  -82.404800
  H    -51.614800  -47.056100  -82.353100
  S    -53.173300  -53.336200  -82.287900
  C    -53.423300  -53.804000  -83.977300
  C    -52.990900  -52.838400  -84.872600
  C    -52.523900  -51.661300  -84.235000
  C    -52.526500  -51.768700  -82.818500
  H    -53.253100  -53.092800  -85.933200
  C    -52.282600  -50.315900  -84.930800
  H    -51.919300  -50.413700  -85.965900
  H    -51.414600  -49.972500  -84.372400
  C    -53.381600  -49.300100  -84.777200
  H    -53.499800  -49.244700  -83.726800
  H    -54.284300  -49.786500  -85.141100
  C    -53.090800  -47.869700  -85.260600
  H    -53.068300  -47.824200  -86.333100
  H    -52.078900  -47.492200  -84.811900
  H    -53.862000  -47.188100  -84.845800
  H    -52.195200  -49.606600  -78.370400
  H    -53.963600  -54.661000  -84.390100

 Total Charge           Charge          ....    0
 Multiplicity           Mult            ....    1
 Number of Electrons    NEL             ....  134
 Basis Dimension        Dim             ....  322

ORBITAL ENERGIES
----------------

  NO   OCC          E(Eh)            E(eV)
   0   2.0000     -88.970253     -2421.0037
   1   2.0000     -88.969048     -2420.9709
   2   2.0000     -10.335555      -281.2447
   3   2.0000     -10.334602      -281.2188
   4   2.0000     -10.317954      -280.7658
   5   2.0000     -10.311198      -280.5820
   6   2.0000     -10.308371      -280.5050
   7   2.0000     -10.302912      -280.3565
   8   2.0000     -10.299165      -280.2545
   9   2.0000     -10.298783      -280.2441
  10   2.0000     -10.294395      -280.1247
  11   2.0000     -10.289920      -280.0030
  12   2.0000     -10.288214      -279.9565
  13   2.0000     -10.285412      -279.8803
  14   2.0000     -10.281005      -279.7604
  15   2.0000     -10.277583      -279.6673
  16   2.0000      -8.085742      -220.0242
  17   2.0000      -8.082803      -219.9443
  18   2.0000      -6.044138      -164.4694
  19   2.0000      -6.041348      -164.3934
  20   2.0000      -6.040071      -164.3587
  21   2.0000      -6.037455      -164.2875
  22   2.0000      -6.036639      -164.2653
  23   2.0000      -6.033563      -164.1816
  24   2.0000      -1.009553       -27.4713
  25   2.0000      -0.983668       -26.7670
  26   2.0000      -0.911165       -24.7940
  27   2.0000      -0.905191       -24.6315
  28   2.0000      -0.870592       -23.6900
  29   2.0000      -0.850362       -23.1395
  30   2.0000      -0.841323       -22.8936
  31   2.0000      -0.817204       -22.2373
  32   2.0000      -0.784261       -21.3408
  33   2.0000      -0.771899       -21.0045
  34   2.0000      -0.713027       -19.4024
  35   2.0000      -0.697291       -18.9742
  36   2.0000      -0.689774       -18.7697
  37   2.0000      -0.661688       -18.0054
  38   2.0000      -0.641735       -17.4625
  39   2.0000      -0.625487       -17.0204
  40   2.0000      -0.588663       -16.0183
  41   2.0000      -0.570286       -15.5183
  42   2.0000      -0.564407       -15.3583
  43   2.0000      -0.549807       -14.9610
  44   2.0000      -0.536553       -14.6004
  45   2.0000      -0.520556       -14.1651
  46   2.0000      -0.512735       -13.9522
  47   2.0000      -0.507912       -13.8210
  48   2.0000      -0.504243       -13.7211
  49   2.0000      -0.500551       -13.6207
  50   2.0000      -0.499926       -13.6037
  51   2.0000      -0.483469       -13.1559
  52   2.0000      -0.474356       -12.9079
  53   2.0000      -0.462558       -12.5869
  54   2.0000      -0.460792       -12.5388
  55   2.0000      -0.449489       -12.2312
  56   2.0000      -0.441201       -12.0057
  57   2.0000      -0.433553       -11.7976
  58   2.0000      -0.429106       -11.6766
  59   2.0000      -0.426788       -11.6135
  60   2.0000      -0.423806       -11.5323
  61   2.0000      -0.417327       -11.3561
  62   2.0000      -0.413356       -11.2480
  63   2.0000      -0.356737        -9.7073
  64   2.0000      -0.335913        -9.1407
  65   2.0000      -0.331121        -9.0103
  66   2.0000      -0.281053        -7.6478
  67   0.0000       0.016701         0.4545
  68   0.0000       0.076348         2.0775
  69   0.0000       0.104363         2.8399
  70   0.0000       0.115628         3.1464
  71   0.0000       0.134451         3.6586

MULLIKEN ATOMIC CHARGES
-----------------------
   0 S :    0.124435
   1 C :   -0.126467
   2 C :   -0.026897
   3 C :    0.005312
   4 C :   -0.144878
   5 H :    0.013789
   6 C :    0.054107
   7 H :    0.011437
   8 H :    0.012148
   9 C :   -0.098838
  10 H :    0.032921
  11 H :    0.033285
  12 C :   -0.038549
  13 H :    0.028098
  14 H :    0.041891
  15 H :    0.034099
  16 S :    0.094321
  17 C :   -0.102337
  18 C :   -0.062629
  19 C :   -0.036970
  20 C :   -0.150887
  21 H :    0.040237
  22 C :    0.070630
  23 H :    0.019885
  24 H :   -0.006167
  25 C :   -0.034551
  26 H :    0.016710
  27 H :    0.023960
  28 C :   -0.059969
  29 H :    0.036590
  30 H :    0.041622
  31 H :    0.047457
  32 H :    0.048328
  33 H :    0.057876
Sum of atomic charges:   -0.0000000

LOEWDIN ATOMIC CHARGES
----------------------
   0 S :    0.431355
   1 C :   -0.210544
   2 C :   -0.062828
   3 C :   -0.064031
   4 C :   -0.196412
   5 H :    0.026236
   6 C :   -0.034382
   7 H :    0.025282
   8 H :    0.024480
   9 C :   -0.035529
  10 H :    0.027766
  11 H :    0.018456
  12 C :   -0.062190
  13 H :    0.029479
  14 H :    0.022217
  15 H :    0.023096
  16 S :    0.389418
  17 C :   -0.187671
  18 C :   -0.079560
  19 C :   -0.055506
  20 C :   -0.183292
  21 H :    0.045124
  22 C :   -0.032964
  23 H :    0.027245
  24 H :    0.023895
  25 C :   -0.043679
  26 H :    0.021454
  27 H :    0.024956
  28 C :   -0.065792
  29 H :    0.020024
  30 H :    0.035538
  31 H :    0.033644
  32 H :    0.030962
  33 H :    0.033753

  Mayer bond orders larger than 0.100000
B(  0-S ,  1-C ) :   1.1473 B(  0-S ,  4-C ) :   1.1621 B(  1-C ,  2-C ) :   1.6079
B(  1-C , 32-H ) :   0.9701 B(  2-C ,  3-C ) :   1.2627 B(  2-C ,  6-C ) :   0.9937
B(  3-C ,  4-C ) :   1.5324 B(  3-C ,  5-H ) :   0.9879 B(  4-C , 20-C ) :   1.0837
B(  6-C ,  7-H ) :   0.9239 B(  6-C ,  8-H ) :   0.9494 B(  6-C ,  9-C ) :   1.0919
B(  9-C , 10-H ) :   0.9555 B(  9-C , 11-H ) :   0.9544 B(  9-C , 12-C ) :   1.0591
B( 12-C , 13-H ) :   0.9720 B( 12-C , 14-H ) :   0.9794 B( 12-C , 15-H ) :   0.9747
B( 16-S , 17-C ) :   1.1423 B( 16-S , 20-C ) :   1.1345 B( 17-C , 18-C ) :   1.6360
B( 17-C , 20-C ) :   0.1004 B( 17-C , 33-H ) :   0.9609 B( 18-C , 19-C ) :   1.2449
B( 18-C , 21-H ) :   0.9828 B( 19-C , 20-C ) :   1.5585 B( 19-C , 22-C ) :   1.0354
B( 22-C , 23-H ) :   0.9320 B( 22-C , 24-H ) :   0.9267 B( 22-C , 25-C ) :   1.0662
B( 25-C , 26-H ) :   0.9473 B( 25-C , 27-H ) :   0.9515 B( 25-C , 28-C ) :   1.0793
B( 28-C , 29-H ) :   0.9761 B( 28-C , 30-H ) :   0.9673 B( 28-C , 31-H ) :   0.9742

Dispersion correction           -0.015616573
FINAL SINGLE POINT ENERGY     -1339.864911266427

DIPOLE MOMENT
-------------
                                X             Y             Z
Electronic contribution:     -7.97828     -27.65856      10.92952
Nuclear contribution   :      8.04745      28.17166     -11.10545
                        -----------------------------------------
Total Dipole Moment    :      0.06917       0.51310      -0.17593
                        -----------------------------------------
Magnitude (a.u.)       :      0.54681
Magnitude (Debye)      :      1.38989

Rotational constants in cm-1:     0.018247     0.010461     0.007309
Rotational constants in MHz :   547.043280   313.598832   219.132943

                             ****ORCA TERMINATED NORMALLY****
TOTAL RUN TIME: 0 days 0 hours 0 minutes 22 seconds 894 msec
