                         Program Version 4.2.1 -  RELEASE  -
|  1> ! wB97X-D3 SP def2-SVP
|  2> %pal
|  3> nprocs 24
|  4> end
|  5>
|  6> * xyz 0 1
|  7> S 	 -86.6432 	 -34.1064 	 -63.6061
|  8> C 	 -87.2093 	 -35.6314 	 -64.2521
|  9> C 	 -88.5885 	 -35.7395 	 -64.1659
| 10> C 	 -89.1687 	 -34.4481 	 -63.7874
| 11> C 	 -88.2561 	 -33.4326 	 -63.6558
| 12> H 	 -90.1972 	 -34.1843 	 -63.6302
| 13> C 	 -89.3408 	 -36.9061 	 -64.5233
| 14> H 	 -89.4479 	 -37.4518 	 -63.5958
| 15> H 	 -88.6646 	 -37.4942 	 -65.146
| 16> C 	 -90.4639 	 -36.7783 	 -65.4906
| 17> H 	 -91.0759 	 -35.933 	 -65.1944
| 18> H 	 -90.0294 	 -36.3871 	 -66.4079
| 19> C 	 -91.3219 	 -38.0531 	 -65.6336
| 20> H 	 -92.0082 	 -37.9587 	 -66.5328
| 21> H 	 -90.8223 	 -39.0178 	 -65.6731
| 22> H 	 -92.0646 	 -38.0348 	 -64.8603
| 23> S 	 -87.4194 	 -31.2832 	 -62.0517
| 24> C 	 -88.3801 	 -29.8169 	 -62.0464
| 25> C 	 -89.4602 	 -29.8858 	 -62.938
| 26> C 	 -89.48 	 -31.1132 	 -63.6201
| 27> C 	 -88.5105 	 -32.0534 	 -63.2506
| 28> H 	 -90.2567 	 -29.1251 	 -62.9741
| 29> C 	 -90.6055 	 -31.4317 	 -64.5949
| 30> H 	 -91.4375 	 -30.7605 	 -64.2838
| 31> H 	 -91.0011 	 -32.4098 	 -64.4123
| 32> C 	 -90.3598 	 -31.3541 	 -66.1263
| 33> H 	 -90.0485 	 -30.351 	 -66.3771
| 34> H 	 -91.3294 	 -31.4938 	 -66.6235
| 35> C 	 -89.5077 	 -32.4885 	 -66.5954
| 36> H 	 -89.3669 	 -32.5769 	 -67.6778
| 37> H 	 -90.0243 	 -33.4136 	 -66.2751
| 38> H 	 -88.5524 	 -32.5876 	 -66.0682
| 39> H 	 -86.5924 	 -36.528 	 -64.2945
| 40> H 	 -88.3535 	 -29.1474 	 -61.2724
| 41> *
| 42>
| 43>                          ****END OF INPUT****

CARTESIAN COORDINATES (ANGSTROEM)
---------------------------------
  S    -86.643200  -34.106400  -63.606100
  C    -87.209300  -35.631400  -64.252100
  C    -88.588500  -35.739500  -64.165900
  C    -89.168700  -34.448100  -63.787400
  C    -88.256100  -33.432600  -63.655800
  H    -90.197200  -34.184300  -63.630200
  C    -89.340800  -36.906100  -64.523300
  H    -89.447900  -37.451800  -63.595800
  H    -88.664600  -37.494200  -65.146000
  C    -90.463900  -36.778300  -65.490600
  H    -91.075900  -35.933000  -65.194400
  H    -90.029400  -36.387100  -66.407900
  C    -91.321900  -38.053100  -65.633600
  H    -92.008200  -37.958700  -66.532800
  H    -90.822300  -39.017800  -65.673100
  H    -92.064600  -38.034800  -64.860300
  S    -87.419400  -31.283200  -62.051700
  C    -88.380100  -29.816900  -62.046400
  C    -89.460200  -29.885800  -62.938000
  C    -89.480000  -31.113200  -63.620100
  C    -88.510500  -32.053400  -63.250600
  H    -90.256700  -29.125100  -62.974100
  C    -90.605500  -31.431700  -64.594900
  H    -91.437500  -30.760500  -64.283800
  H    -91.001100  -32.409800  -64.412300
  C    -90.359800  -31.354100  -66.126300
  H    -90.048500  -30.351000  -66.377100
  H    -91.329400  -31.493800  -66.623500
  C    -89.507700  -32.488500  -66.595400
  H    -89.366900  -32.576900  -67.677800
  H    -90.024300  -33.413600  -66.275100
  H    -88.552400  -32.587600  -66.068200
  H    -86.592400  -36.528000  -64.294500
  H    -88.353500  -29.147400  -61.272400

 Total Charge           Charge          ....    0
 Multiplicity           Mult            ....    1
 Number of Electrons    NEL             ....  134
 Basis Dimension        Dim             ....  322

ORBITAL ENERGIES
----------------

  NO   OCC          E(Eh)            E(eV)
   0   2.0000     -88.968876     -2420.9662
   1   2.0000     -88.963824     -2420.8287
   2   2.0000     -10.333714      -281.1947
   3   2.0000     -10.331486      -281.1340
   4   2.0000     -10.316752      -280.7331
   5   2.0000     -10.312827      -280.6263
   6   2.0000     -10.304721      -280.4057
   7   2.0000     -10.302490      -280.3450
   8   2.0000     -10.299936      -280.2755
   9   2.0000     -10.294271      -280.1214
  10   2.0000     -10.290375      -280.0153
  11   2.0000     -10.288269      -279.9580
  12   2.0000     -10.286023      -279.8969
  13   2.0000     -10.283211      -279.8204
  14   2.0000     -10.283032      -279.8155
  15   2.0000     -10.269252      -279.4405
  16   2.0000      -8.082819      -219.9447
  17   2.0000      -8.078754      -219.8341
  18   2.0000      -6.041326      -164.3929
  19   2.0000      -6.037373      -164.2853
  20   2.0000      -6.037353      -164.2847
  21   2.0000      -6.033699      -164.1853
  22   2.0000      -6.033433      -164.1781
  23   2.0000      -6.029202      -164.0629
  24   2.0000      -1.006698       -27.3937
  25   2.0000      -0.984288       -26.7838
  26   2.0000      -0.927016       -25.2254
  27   2.0000      -0.908660       -24.7259
  28   2.0000      -0.872292       -23.7363
  29   2.0000      -0.852544       -23.1989
  30   2.0000      -0.846530       -23.0352
  31   2.0000      -0.818835       -22.2816
  32   2.0000      -0.783269       -21.3138
  33   2.0000      -0.772094       -21.0097
  34   2.0000      -0.717613       -19.5273
  35   2.0000      -0.698973       -19.0200
  36   2.0000      -0.695933       -18.9373
  37   2.0000      -0.663009       -18.0414
  38   2.0000      -0.644959       -17.5502
  39   2.0000      -0.623834       -16.9754
  40   2.0000      -0.597483       -16.2583
  41   2.0000      -0.571334       -15.5468
  42   2.0000      -0.569279       -15.4909
  43   2.0000      -0.552347       -15.0301
  44   2.0000      -0.542690       -14.7673
  45   2.0000      -0.525398       -14.2968
  46   2.0000      -0.519545       -14.1375
  47   2.0000      -0.508571       -13.8389
  48   2.0000      -0.506649       -13.7866
  49   2.0000      -0.502182       -13.6651
  50   2.0000      -0.494478       -13.4554
  51   2.0000      -0.481346       -13.0981
  52   2.0000      -0.474215       -12.9040
  53   2.0000      -0.469475       -12.7751
  54   2.0000      -0.457345       -12.4450
  55   2.0000      -0.451272       -12.2797
  56   2.0000      -0.445272       -12.1165
  57   2.0000      -0.438330       -11.9276
  58   2.0000      -0.432155       -11.7595
  59   2.0000      -0.425402       -11.5758
  60   2.0000      -0.418933       -11.3997
  61   2.0000      -0.408068       -11.1041
  62   2.0000      -0.404749       -11.0138
  63   2.0000      -0.355754        -9.6806
  64   2.0000      -0.336641        -9.1605
  65   2.0000      -0.323730        -8.8091
  66   2.0000      -0.285495        -7.7687
  67   0.0000       0.018392         0.5005
  68   0.0000       0.066134         1.7996
  69   0.0000       0.096733         2.6322
  70   0.0000       0.116762         3.1773
  71   0.0000       0.129363         3.5201

MULLIKEN ATOMIC CHARGES
-----------------------
   0 S :    0.093446
   1 C :   -0.097913
   2 C :   -0.122777
   3 C :    0.015263
   4 C :   -0.143862
   5 H :    0.010769
   6 C :    0.083103
   7 H :    0.042648
   8 H :    0.013070
   9 C :   -0.077651
  10 H :    0.018244
  11 H :    0.031059
  12 C :   -0.036193
  13 H :    0.034331
  14 H :    0.044083
  15 H :    0.025188
  16 S :    0.094100
  17 C :   -0.055496
  18 C :   -0.049482
  19 C :   -0.034420
  20 C :   -0.134963
  21 H :    0.034400
  22 C :    0.028259
  23 H :    0.016175
  24 H :    0.000611
  25 C :   -0.016133
  26 H :    0.021909
  27 H :    0.025099
  28 C :   -0.049459
  29 H :    0.037219
  30 H :    0.010979
  31 H :    0.050392
  32 H :    0.053441
  33 H :    0.034563
Sum of atomic charges:   -0.0000000

LOEWDIN ATOMIC CHARGES
----------------------
   0 S :    0.394875
   1 C :   -0.202106
   2 C :   -0.055627
   3 C :   -0.063094
   4 C :   -0.187637
   5 H :    0.024497
   6 C :   -0.047270
   7 H :    0.037670
   8 H :    0.037309
   9 C :   -0.039331
  10 H :    0.017440
  11 H :    0.026701
  12 C :   -0.064812
  13 H :    0.035918
  14 H :    0.026293
  15 H :    0.025057
  16 S :    0.391084
  17 C :   -0.167979
  18 C :   -0.067758
  19 C :   -0.060348
  20 C :   -0.182798
  21 H :    0.038948
  22 C :   -0.031967
  23 H :    0.031713
  24 H :    0.019371
  25 C :   -0.034042
  26 H :    0.018322
  27 H :    0.027699
  28 C :   -0.069822
  29 H :    0.026100
  30 H :    0.024597
  31 H :    0.029271
  32 H :    0.030375
  33 H :    0.011349

  Mayer bond orders larger than 0.100000
B(  0-S ,  1-C ) :   1.1212 B(  0-S ,  4-C ) :   1.1373 B(  1-C ,  2-C ) :   1.6344
B(  1-C , 32-H ) :   0.9597 B(  2-C ,  3-C ) :   1.2009 B(  2-C ,  6-C ) :   1.0447
B(  3-C ,  4-C ) :   1.5811 B(  3-C ,  5-H ) :   0.9967 B(  4-C , 20-C ) :   1.0660
B(  6-C ,  7-H ) :   0.9200 B(  6-C ,  8-H ) :   0.9357 B(  6-C ,  9-C ) :   1.0535
B(  9-C , 10-H ) :   0.9557 B(  9-C , 11-H ) :   0.9562 B(  9-C , 12-C ) :   1.0717
B( 12-C , 13-H ) :   0.9726 B( 12-C , 14-H ) :   0.9781 B( 12-C , 15-H ) :   0.9744
B( 16-S , 17-C ) :   1.1719 B( 16-S , 20-C ) :   1.1271 B( 17-C , 18-C ) :   1.5768
B( 17-C , 20-C ) :   0.1093 B( 17-C , 33-H ) :   0.9723 B( 18-C , 19-C ) :   1.2817
B( 18-C , 21-H ) :   0.9829 B( 19-C , 20-C ) :   1.5744 B( 19-C , 22-C ) :   1.0274
B( 22-C , 23-H ) :   0.9319 B( 22-C , 24-H ) :   0.9407 B( 22-C , 25-C ) :   1.0773
B( 25-C , 26-H ) :   0.9544 B( 25-C , 27-H ) :   0.9491 B( 25-C , 28-C ) :   1.0809
B( 28-C , 29-H ) :   0.9700 B( 28-C , 30-H ) :   0.9635 B( 28-C , 31-H ) :   0.9709

Dispersion correction           -0.015756289
FINAL SINGLE POINT ENERGY     -1339.863753233526

DIPOLE MOMENT
-------------
                                X             Y             Z
Electronic contribution:     20.83821      13.42452      18.06731
Nuclear contribution   :    -21.61726     -13.72859     -18.13504
                        -----------------------------------------
Total Dipole Moment    :     -0.77905      -0.30407      -0.06772
                        -----------------------------------------
Magnitude (a.u.)       :      0.83902
Magnitude (Debye)      :      2.13263

Rotational constants in cm-1:     0.021222     0.009064     0.007166
Rotational constants in MHz :   636.218860   271.742609   214.834062

                             ****ORCA TERMINATED NORMALLY****
TOTAL RUN TIME: 0 days 0 hours 0 minutes 23 seconds 298 msec
