                         Program Version 4.2.1 -  RELEASE  -
|  1> ! wB97X-D3 SP def2-SVP
|  2> %pal
|  3> nprocs 24
|  4> end
|  5>
|  6> * xyz 0 1
|  7> S 	 -105.459 	 60.0156 	 -105.52
|  8> C 	 -104.405 	 58.8247 	 -106.272
|  9> C 	 -105.078 	 58.147 	 -107.231
| 10> C 	 -106.471 	 58.4445 	 -107.336
| 11> C 	 -106.862 	 59.3969 	 -106.353
| 12> H 	 -107.1 	 58.1159 	 -108.116
| 13> C 	 -104.472 	 57.0204 	 -108.061
| 14> H 	 -105.225 	 56.615 	 -108.847
| 15> H 	 -104.359 	 56.15 	 -107.332
| 16> C 	 -103.068 	 57.2594 	 -108.785
| 17> H 	 -102.352 	 57.3228 	 -107.938
| 18> H 	 -102.69 	 56.3321 	 -109.264
| 19> C 	 -103.057 	 58.3073 	 -109.915
| 20> H 	 -103.387 	 59.2648 	 -109.475
| 21> H 	 -102.067 	 58.3362 	 -110.36
| 22> H 	 -103.71 	 57.9074 	 -110.709
| 23> S 	 -108.152 	 61.6907 	 -107.073
| 24> C 	 -109.902 	 61.8587 	 -106.85
| 25> C 	 -110.369 	 60.7039 	 -106.345
| 26> C 	 -109.421 	 59.6371 	 -106.212
| 27> C 	 -108.101 	 60.1467 	 -106.254
| 28> H 	 -111.413 	 60.7082 	 -106.031
| 29> C 	 -109.796 	 58.2551 	 -105.741
| 30> H 	 -109.275 	 57.6392 	 -106.445
| 31> H 	 -110.923 	 58.1139 	 -105.835
| 32> C 	 -109.294 	 57.8865 	 -104.368
| 33> H 	 -109.667 	 58.5231 	 -103.622
| 34> H 	 -108.282 	 58.0536 	 -104.276
| 35> C 	 -109.601 	 56.4097 	 -104.034
| 36> H 	 -109.343 	 55.6809 	 -104.815
| 37> H 	 -110.604 	 56.2545 	 -103.751
| 38> H 	 -109.039 	 56.12 	 -103.163
| 39> H 	 -103.464 	 58.4309 	 -105.896
| 40> H 	 -110.494 	 62.7387 	 -107.234
| 41> *
| 42>
| 43>                          ****END OF INPUT****

CARTESIAN COORDINATES (ANGSTROEM)
---------------------------------
  S    -105.459000   60.015600  -105.520000
  C    -104.405000   58.824700  -106.272000
  C    -105.078000   58.147000  -107.231000
  C    -106.471000   58.444500  -107.336000
  C    -106.862000   59.396900  -106.353000
  H    -107.100000   58.115900  -108.116000
  C    -104.472000   57.020400  -108.061000
  H    -105.225000   56.615000  -108.847000
  H    -104.359000   56.150000  -107.332000
  C    -103.068000   57.259400  -108.785000
  H    -102.352000   57.322800  -107.938000
  H    -102.690000   56.332100  -109.264000
  C    -103.057000   58.307300  -109.915000
  H    -103.387000   59.264800  -109.475000
  H    -102.067000   58.336200  -110.360000
  H    -103.710000   57.907400  -110.709000
  S    -108.152000   61.690700  -107.073000
  C    -109.902000   61.858700  -106.850000
  C    -110.369000   60.703900  -106.345000
  C    -109.421000   59.637100  -106.212000
  C    -108.101000   60.146700  -106.254000
  H    -111.413000   60.708200  -106.031000
  C    -109.796000   58.255100  -105.741000
  H    -109.275000   57.639200  -106.445000
  H    -110.923000   58.113900  -105.835000
  C    -109.294000   57.886500  -104.368000
  H    -109.667000   58.523100  -103.622000
  H    -108.282000   58.053600  -104.276000
  C    -109.601000   56.409700  -104.034000
  H    -109.343000   55.680900  -104.815000
  H    -110.604000   56.254500  -103.751000
  H    -109.039000   56.120000  -103.163000
  H    -103.464000   58.430900  -105.896000
  H    -110.494000   62.738700  -107.234000

 Total Charge           Charge          ....    0
 Multiplicity           Mult            ....    1
 Number of Electrons    NEL             ....  134
 Basis Dimension        Dim             ....  322

ORBITAL ENERGIES
----------------

  NO   OCC          E(Eh)            E(eV)
   0   2.0000     -88.968036     -2420.9433
   1   2.0000     -88.959628     -2420.7145
   2   2.0000     -10.335086      -281.2320
   3   2.0000     -10.325210      -280.9633
   4   2.0000     -10.319010      -280.7945
   5   2.0000     -10.311052      -280.5780
   6   2.0000     -10.306944      -280.4662
   7   2.0000     -10.306094      -280.4431
   8   2.0000     -10.300371      -280.2873
   9   2.0000     -10.297766      -280.2165
  10   2.0000     -10.294822      -280.1363
  11   2.0000     -10.290704      -280.0243
  12   2.0000     -10.290580      -280.0209
  13   2.0000     -10.281695      -279.7792
  14   2.0000     -10.271316      -279.4967
  15   2.0000     -10.269947      -279.4595
  16   2.0000      -8.082523      -219.9366
  17   2.0000      -8.074410      -219.7159
  18   2.0000      -6.041084      -164.3863
  19   2.0000      -6.036931      -164.2732
  20   2.0000      -6.033363      -164.1762
  21   2.0000      -6.033024      -164.1669
  22   2.0000      -6.028905      -164.0548
  23   2.0000      -6.025008      -163.9488
  24   2.0000      -1.007704       -27.4210
  25   2.0000      -0.984640       -26.7934
  26   2.0000      -0.911915       -24.8145
  27   2.0000      -0.902281       -24.5523
  28   2.0000      -0.869914       -23.6716
  29   2.0000      -0.848640       -23.0927
  30   2.0000      -0.844645       -22.9840
  31   2.0000      -0.813973       -22.1493
  32   2.0000      -0.779195       -21.2030
  33   2.0000      -0.768832       -20.9210
  34   2.0000      -0.714977       -19.4555
  35   2.0000      -0.699518       -19.0349
  36   2.0000      -0.694689       -18.9034
  37   2.0000      -0.654981       -17.8229
  38   2.0000      -0.636096       -17.3091
  39   2.0000      -0.609682       -16.5903
  40   2.0000      -0.592503       -16.1228
  41   2.0000      -0.570726       -15.5303
  42   2.0000      -0.565933       -15.3998
  43   2.0000      -0.550682       -14.9848
  44   2.0000      -0.538937       -14.6652
  45   2.0000      -0.525144       -14.2899
  46   2.0000      -0.517434       -14.0801
  47   2.0000      -0.510167       -13.8824
  48   2.0000      -0.500162       -13.6101
  49   2.0000      -0.497504       -13.5378
  50   2.0000      -0.489210       -13.3121
  51   2.0000      -0.481200       -13.0941
  52   2.0000      -0.475360       -12.9352
  53   2.0000      -0.466891       -12.7048
  54   2.0000      -0.453261       -12.3339
  55   2.0000      -0.448014       -12.1911
  56   2.0000      -0.441195       -12.0055
  57   2.0000      -0.436066       -11.8660
  58   2.0000      -0.430557       -11.7160
  59   2.0000      -0.420799       -11.4505
  60   2.0000      -0.419944       -11.4272
  61   2.0000      -0.414223       -11.2716
  62   2.0000      -0.406992       -11.0748
  63   2.0000      -0.346230        -9.4214
  64   2.0000      -0.330754        -9.0003
  65   2.0000      -0.320468        -8.7204
  66   2.0000      -0.296669        -8.0728
  67   0.0000       0.027902         0.7592
  68   0.0000       0.052692         1.4338
  69   0.0000       0.114354         3.1117
  70   0.0000       0.119319         3.2468
  71   0.0000       0.121781         3.3138

MULLIKEN ATOMIC CHARGES
-----------------------
   0 S :    0.112201
   1 C :   -0.109038
   2 C :   -0.077550
   3 C :    0.053728
   4 C :   -0.181489
   5 H :    0.010315
   6 C :   -0.032394
   7 H :    0.034716
   8 H :    0.054355
   9 C :   -0.095064
  10 H :    0.022412
  11 H :    0.023360
  12 C :   -0.031711
  13 H :    0.056521
  14 H :    0.037856
  15 H :    0.034087
  16 S :    0.091211
  17 C :   -0.117155
  18 C :   -0.026427
  19 C :   -0.065602
  20 C :   -0.121240
  21 H :    0.023905
  22 C :    0.073041
  23 H :    0.014072
  24 H :    0.033998
  25 C :   -0.014583
  26 H :    0.010244
  27 H :    0.009594
  28 C :   -0.029805
  29 H :    0.029967
  30 H :    0.018571
  31 H :    0.020879
  32 H :    0.053496
  33 H :    0.083530
Sum of atomic charges:    0.0000000

LOEWDIN ATOMIC CHARGES
----------------------
   0 S :    0.414823
   1 C :   -0.203930
   2 C :   -0.069973
   3 C :   -0.054203
   4 C :   -0.194584
   5 H :    0.026127
   6 C :   -0.045635
   7 H :    0.032778
   8 H :    0.042030
   9 C :   -0.052113
  10 H :    0.019475
  11 H :    0.025216
  12 C :   -0.063727
  13 H :    0.031492
  14 H :    0.028027
  15 H :    0.030336
  16 S :    0.395642
  17 C :   -0.185261
  18 C :   -0.081417
  19 C :   -0.047102
  20 C :   -0.216220
  21 H :    0.034171
  22 C :   -0.032645
  23 H :    0.029551
  24 H :    0.037674
  25 C :   -0.028402
  26 H :    0.020735
  27 H :    0.016486
  28 C :   -0.058844
  29 H :    0.026886
  30 H :    0.017259
  31 H :    0.025493
  32 H :    0.033569
  33 H :    0.046289

  Mayer bond orders larger than 0.100000
B(  0-S ,  1-C ) :   1.1262 B(  0-S ,  4-C ) :   1.1701 B(  1-C ,  2-C ) :   1.6160
B(  1-C , 32-H ) :   0.9647 B(  2-C ,  3-C ) :   1.2593 B(  2-C ,  6-C ) :   1.0045
B(  3-C ,  4-C ) :   1.5289 B(  3-C ,  5-H ) :   0.9988 B(  4-C , 20-C ) :   1.0192
B(  6-C ,  7-H ) :   0.9518 B(  6-C ,  8-H ) :   0.9420 B(  6-C ,  9-C ) :   1.0653
B(  9-C , 10-H ) :   0.9557 B(  9-C , 11-H ) :   0.9562 B(  9-C , 12-C ) :   1.0637
B( 12-C , 13-H ) :   0.9785 B( 12-C , 14-H ) :   0.9737 B( 12-C , 15-H ) :   0.9722
B( 16-S , 17-C ) :   1.1500 B( 16-S , 20-C ) :   1.1431 B( 17-C , 18-C ) :   1.6196
B( 17-C , 20-C ) :   0.1001 B( 17-C , 33-H ) :   0.9599 B( 18-C , 19-C ) :   1.2349
B( 18-C , 21-H ) :   0.9875 B( 19-C , 20-C ) :   1.5610 B( 19-C , 22-C ) :   1.0522
B( 22-C , 23-H ) :   0.9124 B( 22-C , 24-H ) :   0.9430 B( 22-C , 25-C ) :   1.0834
B( 25-C , 26-H ) :   0.9479 B( 25-C , 27-H ) :   0.9464 B( 25-C , 28-C ) :   1.0850
B( 28-C , 29-H ) :   0.9759 B( 28-C , 30-H ) :   0.9763 B( 28-C , 31-H ) :   0.9722

Dispersion correction           -0.014374413
FINAL SINGLE POINT ENERGY     -1339.855418047251

DIPOLE MOMENT
-------------
                                X             Y             Z
Electronic contribution:     -3.13089      21.65073       3.77806
Nuclear contribution   :      2.95021     -22.24579      -3.98074
                        -----------------------------------------
Total Dipole Moment    :     -0.18068      -0.59506      -0.20268
                        -----------------------------------------
Magnitude (a.u.)       :      0.65408
Magnitude (Debye)      :      1.66254

Rotational constants in cm-1:     0.019168     0.008383     0.006923
Rotational constants in MHz :   574.641523   251.328114   207.542087

                             ****ORCA TERMINATED NORMALLY****
TOTAL RUN TIME: 0 days 0 hours 0 minutes 21 seconds 512 msec
