                         Program Version 4.2.1 -  RELEASE  -
|  1> ! wB97X-D3 SP def2-SVP
|  2> %pal
|  3> nprocs 24
|  4> end
|  5>
|  6> * xyz 0 1
|  7> S 	 -42.054 	 -6.10582 	 9.11974
|  8> C 	 -40.3286 	 -6.05661 	 8.70431
|  9> C 	 -39.8661 	 -4.73864 	 8.51387
| 10> C 	 -40.9219 	 -3.78644 	 8.6912
| 11> C 	 -42.0943 	 -4.3436 	 9.14764
| 12> H 	 -40.9679 	 -2.73737 	 8.47812
| 13> C 	 -38.378 	 -4.47074 	 8.16057
| 14> H 	 -37.7126 	 -5.20501 	 8.57974
| 15> H 	 -38.0845 	 -3.62255 	 8.69376
| 16> C 	 -38.2202 	 -4.20902 	 6.74688
| 17> H 	 -38.5684 	 -5.05975 	 6.1926
| 18> H 	 -38.9618 	 -3.44559 	 6.49802
| 19> C 	 -36.8003 	 -3.85943 	 6.29941
| 20> H 	 -36.775 	 -3.42128 	 5.29612
| 21> H 	 -36.424 	 -3.09501 	 6.93845
| 22> H 	 -36.1223 	 -4.64808 	 6.45961
| 23> S 	 -44.7158 	 -3.88866 	 8.74175
| 24> C 	 -45.5347 	 -2.60249 	 9.56054
| 25> C 	 -44.7088 	 -1.94989 	 10.472
| 26> C 	 -43.4089 	 -2.56243 	 10.5069
| 27> C 	 -43.25 	 -3.59985 	 9.58032
| 28> H 	 -45.0671 	 -1.23858 	 11.1241
| 29> C 	 -42.4086 	 -1.95252 	 11.4769
| 30> H 	 -41.6174 	 -2.70249 	 11.6503
| 31> H 	 -43.0268 	 -1.84057 	 12.3458
| 32> C 	 -41.9393 	 -0.569774 	 10.9415
| 33> H 	 -42.7249 	 0.0760486 	 10.7926
| 34> H 	 -41.3563 	 -0.648358 	 9.98611
| 35> C 	 -41.1111 	 0.236359 	 11.9968
| 36> H 	 -40.7802 	 1.19712 	 11.577
| 37> H 	 -40.3014 	 -0.227499 	 12.4089
| 38> H 	 -41.7452 	 0.539748 	 12.837
| 39> H 	 -39.6847 	 -6.95395 	 8.58962
| 40> H 	 -46.6323 	 -2.47448 	 9.42726
| 41> *
| 42>
| 43>                          ****END OF INPUT****

CARTESIAN COORDINATES (ANGSTROEM)
---------------------------------
  S    -42.054000   -6.105820    9.119740
  C    -40.328600   -6.056610    8.704310
  C    -39.866100   -4.738640    8.513870
  C    -40.921900   -3.786440    8.691200
  C    -42.094300   -4.343600    9.147640
  H    -40.967900   -2.737370    8.478120
  C    -38.378000   -4.470740    8.160570
  H    -37.712600   -5.205010    8.579740
  H    -38.084500   -3.622550    8.693760
  C    -38.220200   -4.209020    6.746880
  H    -38.568400   -5.059750    6.192600
  H    -38.961800   -3.445590    6.498020
  C    -36.800300   -3.859430    6.299410
  H    -36.775000   -3.421280    5.296120
  H    -36.424000   -3.095010    6.938450
  H    -36.122300   -4.648080    6.459610
  S    -44.715800   -3.888660    8.741750
  C    -45.534700   -2.602490    9.560540
  C    -44.708800   -1.949890   10.472000
  C    -43.408900   -2.562430   10.506900
  C    -43.250000   -3.599850    9.580320
  H    -45.067100   -1.238580   11.124100
  C    -42.408600   -1.952520   11.476900
  H    -41.617400   -2.702490   11.650300
  H    -43.026800   -1.840570   12.345800
  C    -41.939300   -0.569774   10.941500
  H    -42.724900    0.076049   10.792600
  H    -41.356300   -0.648358    9.986110
  C    -41.111100    0.236359   11.996800
  H    -40.780200    1.197120   11.577000
  H    -40.301400   -0.227499   12.408900
  H    -41.745200    0.539748   12.837000
  H    -39.684700   -6.953950    8.589620
  H    -46.632300   -2.474480    9.427260

 Total Charge           Charge          ....    0
 Multiplicity           Mult            ....    1
 Number of Electrons    NEL             ....  134
 Basis Dimension        Dim             ....  322

ORBITAL ENERGIES
----------------

  NO   OCC          E(Eh)            E(eV)
   0   2.0000     -88.966507     -2420.9017
   1   2.0000     -88.962437     -2420.7910
   2   2.0000     -10.326812      -281.0069
   3   2.0000     -10.320450      -280.8337
   4   2.0000     -10.320112      -280.8245
   5   2.0000     -10.319904      -280.8189
   6   2.0000     -10.307665      -280.4858
   7   2.0000     -10.303011      -280.3592
   8   2.0000     -10.294732      -280.1339
   9   2.0000     -10.292587      -280.0755
  10   2.0000     -10.290362      -280.0150
  11   2.0000     -10.288916      -279.9756
  12   2.0000     -10.282777      -279.8086
  13   2.0000     -10.275864      -279.6205
  14   2.0000     -10.271901      -279.5126
  15   2.0000     -10.271772      -279.5091
  16   2.0000      -8.080650      -219.8857
  17   2.0000      -8.078440      -219.8255
  18   2.0000      -6.039146      -164.3335
  19   2.0000      -6.036814      -164.2701
  20   2.0000      -6.035356      -164.2304
  21   2.0000      -6.032628      -164.1561
  22   2.0000      -6.031358      -164.1216
  23   2.0000      -6.029417      -164.0688
  24   2.0000      -1.007693       -27.4207
  25   2.0000      -0.981210       -26.7001
  26   2.0000      -0.923404       -25.1271
  27   2.0000      -0.908246       -24.7146
  28   2.0000      -0.869623       -23.6636
  29   2.0000      -0.851461       -23.1694
  30   2.0000      -0.845576       -23.0093
  31   2.0000      -0.815048       -22.1786
  32   2.0000      -0.785894       -21.3853
  33   2.0000      -0.770413       -20.9640
  34   2.0000      -0.709968       -19.3192
  35   2.0000      -0.704445       -19.1689
  36   2.0000      -0.691692       -18.8219
  37   2.0000      -0.670058       -18.2332
  38   2.0000      -0.645173       -17.5561
  39   2.0000      -0.617434       -16.8012
  40   2.0000      -0.592487       -16.1224
  41   2.0000      -0.572559       -15.5801
  42   2.0000      -0.567777       -15.4500
  43   2.0000      -0.560012       -15.2387
  44   2.0000      -0.532549       -14.4914
  45   2.0000      -0.527166       -14.3449
  46   2.0000      -0.518413       -14.1067
  47   2.0000      -0.512845       -13.9552
  48   2.0000      -0.506918       -13.7940
  49   2.0000      -0.500649       -13.6234
  50   2.0000      -0.494673       -13.4607
  51   2.0000      -0.472427       -12.8554
  52   2.0000      -0.469895       -12.7865
  53   2.0000      -0.466636       -12.6978
  54   2.0000      -0.459882       -12.5140
  55   2.0000      -0.452834       -12.3222
  56   2.0000      -0.445265       -12.1163
  57   2.0000      -0.443757       -12.0752
  58   2.0000      -0.440347       -11.9824
  59   2.0000      -0.429665       -11.6918
  60   2.0000      -0.423324       -11.5192
  61   2.0000      -0.415186       -11.2978
  62   2.0000      -0.409764       -11.1503
  63   2.0000      -0.342710        -9.3256
  64   2.0000      -0.332126        -9.0376
  65   2.0000      -0.325962        -8.8699
  66   2.0000      -0.293421        -7.9844
  67   0.0000       0.033251         0.9048
  68   0.0000       0.068681         1.8689
  69   0.0000       0.112685         3.0663
  70   0.0000       0.122120         3.3231
  71   0.0000       0.128588         3.4991

MULLIKEN ATOMIC CHARGES
-----------------------
   0 S :    0.110501
   1 C :   -0.130052
   2 C :   -0.109349
   3 C :    0.039034
   4 C :   -0.161085
   5 H :    0.011604
   6 C :    0.121833
   7 H :    0.010558
   8 H :   -0.004577
   9 C :   -0.075136
  10 H :    0.014590
  11 H :    0.019564
  12 C :    0.016667
  13 H :    0.040628
  14 H :    0.003732
  15 H :    0.019845
  16 S :    0.109715
  17 C :   -0.110066
  18 C :   -0.009758
  19 C :   -0.058888
  20 C :   -0.168379
  21 H :   -0.005825
  22 C :    0.094613
  23 H :    0.040566
  24 H :    0.018980
  25 C :   -0.065817
  26 H :    0.012635
  27 H :    0.040488
  28 C :   -0.024827
  29 H :    0.027081
  30 H :    0.013375
  31 H :    0.020203
  32 H :    0.063122
  33 H :    0.074424
Sum of atomic charges:   -0.0000000

LOEWDIN ATOMIC CHARGES
----------------------
   0 S :    0.386819
   1 C :   -0.195532
   2 C :   -0.051707
   3 C :   -0.060739
   4 C :   -0.191395
   5 H :    0.030974
   6 C :   -0.025633
   7 H :    0.026515
   8 H :    0.021012
   9 C :   -0.044535
  10 H :    0.020600
  11 H :    0.026796
  12 C :   -0.057626
  13 H :    0.032567
  14 H :    0.019554
  15 H :    0.020244
  16 S :    0.429311
  17 C :   -0.190505
  18 C :   -0.065393
  19 C :   -0.049188
  20 C :   -0.225611
  21 H :    0.018541
  22 C :   -0.025537
  23 H :    0.035133
  24 H :    0.030042
  25 C :   -0.028303
  26 H :    0.014183
  27 H :    0.029176
  28 C :   -0.060259
  29 H :    0.027794
  30 H :    0.007849
  31 H :    0.024952
  32 H :    0.034934
  33 H :    0.034967

  Mayer bond orders larger than 0.100000
B(  0-S ,  1-C ) :   1.1313 B(  0-S ,  4-C ) :   1.1423 B(  1-C ,  2-C ) :   1.6202
B(  1-C ,  4-C ) :   0.1009 B(  1-C , 32-H ) :   0.9642 B(  2-C ,  3-C ) :   1.2171
B(  2-C ,  6-C ) :   1.0154 B(  3-C ,  4-C ) :   1.5951 B(  3-C ,  5-H ) :   0.9968
B(  4-C , 20-C ) :   1.0295 B(  6-C ,  7-H ) :   0.9405 B(  6-C ,  8-H ) :   0.9246
B(  6-C ,  9-C ) :   1.0712 B(  9-C , 10-H ) :   0.9505 B(  9-C , 11-H ) :   0.9516
B(  9-C , 12-C ) :   1.0811 B( 12-C , 13-H ) :   0.9722 B( 12-C , 14-H ) :   0.9693
B( 12-C , 15-H ) :   0.9716 B( 16-S , 17-C ) :   1.1814 B( 16-S , 20-C ) :   1.1518
B( 17-C , 18-C ) :   1.5721 B( 17-C , 33-H ) :   0.9640 B( 18-C , 19-C ) :   1.2506
B( 18-C , 21-H ) :   1.0028 B( 19-C , 20-C ) :   1.5843 B( 19-C , 22-C ) :   1.0388
B( 22-C , 23-H ) :   0.9358 B( 22-C , 24-H ) :   0.9317 B( 22-C , 25-C ) :   1.0661
B( 25-C , 26-H ) :   0.9558 B( 25-C , 27-H ) :   0.9558 B( 25-C , 28-C ) :   1.0796
B( 28-C , 29-H ) :   0.9742 B( 28-C , 30-H ) :   0.9780 B( 28-C , 31-H ) :   0.9749

Dispersion correction           -0.013858860
FINAL SINGLE POINT ENERGY     -1339.869608126715

DIPOLE MOMENT
-------------
                                X             Y             Z
Electronic contribution:    -24.01667     -17.58640      -1.36874
Nuclear contribution   :     24.39146      18.10391       1.54273
                        -----------------------------------------
Total Dipole Moment    :      0.37479       0.51751       0.17399
                        -----------------------------------------
Magnitude (a.u.)       :      0.66224
Magnitude (Debye)      :      1.68328

Rotational constants in cm-1:     0.017124     0.008483     0.006406
Rotational constants in MHz :   513.351617   254.303558   192.044543

                             ****ORCA TERMINATED NORMALLY****
TOTAL RUN TIME: 0 days 0 hours 0 minutes 21 seconds 175 msec
