                         Program Version 4.2.1 -  RELEASE  -
|  1> ! wB97X-D3 SP def2-SVP
|  2> %pal
|  3> nprocs 24
|  4> end
|  5>
|  6> * xyz 0 1
|  7> S 	 -65.337 	 -47.1144 	 -91.3745
|  8> C 	 -63.7792 	 -47.382 	 -91.98
|  9> C 	 -62.7714 	 -47.5953 	 -91.0825
| 10> C 	 -63.3755 	 -47.482 	 -89.7758
| 11> C 	 -64.7298 	 -47.1738 	 -89.7519
| 12> H 	 -62.7962 	 -47.5731 	 -88.8399
| 13> C 	 -61.2634 	 -47.8102 	 -91.3968
| 14> H 	 -60.6158 	 -47.1367 	 -90.786
| 15> H 	 -61.1552 	 -47.5121 	 -92.4652
| 16> C 	 -60.8388 	 -49.3104 	 -91.2084
| 17> H 	 -61.4174 	 -49.694 	 -90.3747
| 18> H 	 -61.0639 	 -49.8636 	 -92.0773
| 19> C 	 -59.3228 	 -49.4034 	 -91.0064
| 20> H 	 -58.7893 	 -49.0197 	 -91.8281
| 21> H 	 -59.0053 	 -49.0247 	 -90.072
| 22> H 	 -59.096 	 -50.4327 	 -90.985
| 23> S 	 -65.7845 	 -45.3361 	 -87.9794
| 24> C 	 -66.5484 	 -45.9438 	 -86.5456
| 25> C 	 -66.5009 	 -47.3488 	 -86.4211
| 26> C 	 -65.8978 	 -47.978 	 -87.5566
| 27> C 	 -65.4885 	 -46.9973 	 -88.4834
| 28> H 	 -66.8893 	 -47.8036 	 -85.5058
| 29> C 	 -65.5652 	 -49.4125 	 -87.6535
| 30> H 	 -65.1054 	 -49.796 	 -86.7646
| 31> H 	 -64.7496 	 -49.539 	 -88.4283
| 32> C 	 -66.6912 	 -50.4044 	 -87.9151
| 33> H 	 -66.1964 	 -51.3501 	 -88.0786
| 34> H 	 -67.2412 	 -50.202 	 -88.8178
| 35> C 	 -67.6888 	 -50.621 	 -86.7499
| 36> H 	 -67.9876 	 -49.7521 	 -86.2292
| 37> H 	 -67.3881 	 -51.3989 	 -86.0611
| 38> H 	 -68.6164 	 -50.9596 	 -87.2162
| 39> H 	 -63.5028 	 -47.3664 	 -93.0275
| 40> H 	 -66.9589 	 -45.2619 	 -85.8426
| 41> *
| 42>
| 43>                          ****END OF INPUT****

CARTESIAN COORDINATES (ANGSTROEM)
---------------------------------
  S    -65.337000  -47.114400  -91.374500
  C    -63.779200  -47.382000  -91.980000
  C    -62.771400  -47.595300  -91.082500
  C    -63.375500  -47.482000  -89.775800
  C    -64.729800  -47.173800  -89.751900
  H    -62.796200  -47.573100  -88.839900
  C    -61.263400  -47.810200  -91.396800
  H    -60.615800  -47.136700  -90.786000
  H    -61.155200  -47.512100  -92.465200
  C    -60.838800  -49.310400  -91.208400
  H    -61.417400  -49.694000  -90.374700
  H    -61.063900  -49.863600  -92.077300
  C    -59.322800  -49.403400  -91.006400
  H    -58.789300  -49.019700  -91.828100
  H    -59.005300  -49.024700  -90.072000
  H    -59.096000  -50.432700  -90.985000
  S    -65.784500  -45.336100  -87.979400
  C    -66.548400  -45.943800  -86.545600
  C    -66.500900  -47.348800  -86.421100
  C    -65.897800  -47.978000  -87.556600
  C    -65.488500  -46.997300  -88.483400
  H    -66.889300  -47.803600  -85.505800
  C    -65.565200  -49.412500  -87.653500
  H    -65.105400  -49.796000  -86.764600
  H    -64.749600  -49.539000  -88.428300
  C    -66.691200  -50.404400  -87.915100
  H    -66.196400  -51.350100  -88.078600
  H    -67.241200  -50.202000  -88.817800
  C    -67.688800  -50.621000  -86.749900
  H    -67.987600  -49.752100  -86.229200
  H    -67.388100  -51.398900  -86.061100
  H    -68.616400  -50.959600  -87.216200
  H    -63.502800  -47.366400  -93.027500
  H    -66.958900  -45.261900  -85.842600

 Total Charge           Charge          ....    0
 Multiplicity           Mult            ....    1
 Number of Electrons    NEL             ....  134
 Basis Dimension        Dim             ....  322

ORBITAL ENERGIES
----------------

  NO   OCC          E(Eh)            E(eV)
   0   2.0000     -88.967423     -2420.9267
   1   2.0000     -88.966580     -2420.9037
   2   2.0000     -10.326272      -280.9921
   3   2.0000     -10.323012      -280.9034
   4   2.0000     -10.315437      -280.6973
   5   2.0000     -10.305485      -280.4265
   6   2.0000     -10.303945      -280.3846
   7   2.0000     -10.302672      -280.3500
   8   2.0000     -10.297664      -280.2137
   9   2.0000     -10.297304      -280.2039
  10   2.0000     -10.293005      -280.0869
  11   2.0000     -10.286033      -279.8972
  12   2.0000     -10.284448      -279.8540
  13   2.0000     -10.280029      -279.7338
  14   2.0000     -10.270657      -279.4788
  15   2.0000     -10.267718      -279.3988
  16   2.0000      -8.083158      -219.9539
  17   2.0000      -8.081412      -219.9064
  18   2.0000      -6.041576      -164.3996
  19   2.0000      -6.039637      -164.3469
  20   2.0000      -6.037557      -164.2903
  21   2.0000      -6.035964      -164.2469
  22   2.0000      -6.033941      -164.1919
  23   2.0000      -6.032423      -164.1506
  24   2.0000      -1.005441       -27.3594
  25   2.0000      -0.983577       -26.7645
  26   2.0000      -0.909700       -24.7542
  27   2.0000      -0.907347       -24.6902
  28   2.0000      -0.864118       -23.5138
  29   2.0000      -0.851186       -23.1619
  30   2.0000      -0.848379       -23.0856
  31   2.0000      -0.808240       -21.9933
  32   2.0000      -0.785872       -21.3847
  33   2.0000      -0.772515       -21.0212
  34   2.0000      -0.706047       -19.2125
  35   2.0000      -0.700042       -19.0491
  36   2.0000      -0.686876       -18.6908
  37   2.0000      -0.658997       -17.9322
  38   2.0000      -0.637948       -17.3594
  39   2.0000      -0.615276       -16.7425
  40   2.0000      -0.597940       -16.2708
  41   2.0000      -0.569748       -15.5036
  42   2.0000      -0.564764       -15.3680
  43   2.0000      -0.547913       -14.9095
  44   2.0000      -0.541066       -14.7232
  45   2.0000      -0.521550       -14.1921
  46   2.0000      -0.516591       -14.0571
  47   2.0000      -0.510600       -13.8941
  48   2.0000      -0.496318       -13.5055
  49   2.0000      -0.491550       -13.3758
  50   2.0000      -0.488841       -13.3020
  51   2.0000      -0.478256       -13.0140
  52   2.0000      -0.477387       -12.9904
  53   2.0000      -0.463216       -12.6047
  54   2.0000      -0.458062       -12.4645
  55   2.0000      -0.448311       -12.1992
  56   2.0000      -0.445021       -12.1096
  57   2.0000      -0.438942       -11.9442
  58   2.0000      -0.431156       -11.7324
  59   2.0000      -0.428654       -11.6643
  60   2.0000      -0.423139       -11.5142
  61   2.0000      -0.420974       -11.4553
  62   2.0000      -0.416596       -11.3361
  63   2.0000      -0.335253        -9.1227
  64   2.0000      -0.328558        -8.9405
  65   2.0000      -0.320651        -8.7254
  66   2.0000      -0.304072        -8.2742
  67   0.0000       0.045096         1.2271
  68   0.0000       0.063421         1.7258
  69   0.0000       0.112543         3.0624
  70   0.0000       0.126726         3.4484
  71   0.0000       0.129433         3.5220

MULLIKEN ATOMIC CHARGES
-----------------------
   0 S :    0.143936
   1 C :   -0.115764
   2 C :   -0.099196
   3 C :    0.022335
   4 C :   -0.182489
   5 H :    0.018906
   6 C :    0.051281
   7 H :    0.042747
   8 H :    0.023414
   9 C :   -0.069307
  10 H :    0.034267
  11 H :    0.022862
  12 C :    0.003099
  13 H :    0.023392
  14 H :    0.024531
  15 H :    0.013408
  16 S :    0.124100
  17 C :   -0.096110
  18 C :   -0.049195
  19 C :    0.033980
  20 C :   -0.206473
  21 H :    0.030606
  22 C :    0.043191
  23 H :    0.017893
  24 H :    0.034320
  25 C :   -0.048054
  26 H :    0.021488
  27 H :    0.025534
  28 C :   -0.044607
  29 H :    0.018873
  30 H :    0.032855
  31 H :    0.024949
  32 H :    0.032750
  33 H :    0.046480
Sum of atomic charges:    0.0000000

LOEWDIN ATOMIC CHARGES
----------------------
   0 S :    0.437190
   1 C :   -0.212908
   2 C :   -0.072552
   3 C :   -0.059943
   4 C :   -0.222294
   5 H :    0.031359
   6 C :   -0.027650
   7 H :    0.033795
   8 H :    0.031580
   9 C :   -0.029937
  10 H :    0.023867
  11 H :    0.020060
  12 C :   -0.053370
  13 H :    0.021416
  14 H :    0.019715
  15 H :    0.022508
  16 S :    0.417193
  17 C :   -0.185154
  18 C :   -0.071838
  19 C :   -0.049449
  20 C :   -0.198631
  21 H :    0.033309
  22 C :   -0.040336
  23 H :    0.030008
  24 H :    0.039858
  25 C :   -0.032691
  26 H :    0.025948
  27 H :    0.021172
  28 C :   -0.066758
  29 H :    0.015870
  30 H :    0.024403
  31 H :    0.031306
  32 H :    0.024610
  33 H :    0.018345

  Mayer bond orders larger than 0.100000
B(  0-S ,  1-C ) :   1.1643 B(  0-S ,  4-C ) :   1.1455 B(  1-C ,  2-C ) :   1.6335
B(  1-C , 32-H ) :   0.9515 B(  2-C ,  3-C ) :   1.2484 B(  2-C ,  6-C ) :   1.0145
B(  3-C ,  4-C ) :   1.5854 B(  3-C ,  5-H ) :   0.9880 B(  4-C , 20-C ) :   1.0087
B(  6-C ,  7-H ) :   0.9541 B(  6-C ,  8-H ) :   0.9365 B(  6-C ,  9-C ) :   1.0458
B(  9-C , 10-H ) :   0.9659 B(  9-C , 11-H ) :   0.9546 B(  9-C , 12-C ) :   1.0890
B( 12-C , 13-H ) :   0.9717 B( 12-C , 14-H ) :   0.9766 B( 12-C , 15-H ) :   0.9705
B( 16-S , 17-C ) :   1.1716 B( 16-S , 20-C ) :   1.1654 B( 17-C , 18-C ) :   1.5904
B( 17-C , 20-C ) :   0.1042 B( 17-C , 33-H ) :   0.9727 B( 18-C , 19-C ) :   1.2314
B( 18-C , 21-H ) :   0.9859 B( 19-C , 20-C ) :   1.5855 B( 19-C , 22-C ) :   1.0530
B( 22-C , 23-H ) :   0.9343 B( 22-C , 24-H ) :   0.9240 B( 22-C , 25-C ) :   1.0797
B( 25-C , 26-H ) :   0.9530 B( 25-C , 27-H ) :   0.9600 B( 25-C , 28-C ) :   1.0731
B( 28-C , 29-H ) :   0.9760 B( 28-C , 30-H ) :   0.9765 B( 28-C , 31-H ) :   0.9728

Dispersion correction           -0.014003534
FINAL SINGLE POINT ENERGY     -1339.882412768833

DIPOLE MOMENT
-------------
                                X             Y             Z
Electronic contribution:    -12.95999      22.12117      -2.82551
Nuclear contribution   :     13.39878     -22.57507       2.97035
                        -----------------------------------------
Total Dipole Moment    :      0.43878      -0.45390       0.14484
                        -----------------------------------------
Magnitude (a.u.)       :      0.64771
Magnitude (Debye)      :      1.64635

Rotational constants in cm-1:     0.018566     0.007697     0.006660
Rotational constants in MHz :   556.594362   230.756786   199.659304

                             ****ORCA TERMINATED NORMALLY****
TOTAL RUN TIME: 0 days 0 hours 0 minutes 21 seconds 202 msec
