                         Program Version 4.2.1 -  RELEASE  -
|  1> ! wB97X-D3 SP def2-SVP
|  2> %pal
|  3> nprocs 24
|  4> end
|  5>
|  6> * xyz 0 1
|  7> S 	 -116.558 	 41.9875 	 -111.184
|  8> C 	 -118.037 	 42.2004 	 -112.194
|  9> C 	 -117.618 	 42.5444 	 -113.495
| 10> C 	 -116.188 	 42.735 	 -113.658
| 11> C 	 -115.459 	 42.3794 	 -112.506
| 12> H 	 -115.66 	 43.0308 	 -114.549
| 13> C 	 -118.443 	 42.6432 	 -114.775
| 14> H 	 -118.145 	 43.4738 	 -115.38
| 15> H 	 -119.487 	 42.743 	 -114.423
| 16> C 	 -118.495 	 41.303 	 -115.604
| 17> H 	 -117.552 	 41.3616 	 -116.171
| 18> H 	 -118.226 	 40.4679 	 -114.951
| 19> C 	 -119.588 	 41.0299 	 -116.648
| 20> H 	 -119.402 	 39.9906 	 -116.947
| 21> H 	 -120.592 	 41.1426 	 -116.34
| 22> H 	 -119.529 	 41.6768 	 -117.586
| 23> S 	 -113.225 	 44.0751 	 -112.387
| 24> C 	 -111.615 	 43.3859 	 -112.445
| 25> C 	 -111.743 	 41.9868 	 -112.183
| 26> C 	 -113.053 	 41.5027 	 -112.033
| 27> C 	 -114.011 	 42.4515 	 -112.402
| 28> H 	 -110.878 	 41.3119 	 -111.984
| 29> C 	 -113.437 	 40.0219 	 -111.857
| 30> H 	 -114.458 	 40.0318 	 -111.386
| 31> H 	 -112.686 	 39.8089 	 -111.054
| 32> C 	 -113.462 	 39.1527 	 -113.095
| 33> H 	 -113.89 	 38.1534 	 -113.017
| 34> H 	 -112.472 	 38.8497 	 -113.503
| 35> C 	 -114.218 	 39.879 	 -114.261
| 36> H 	 -114.204 	 39.3389 	 -115.165
| 37> H 	 -113.77 	 40.7774 	 -114.705
| 38> H 	 -115.227 	 40.1432 	 -113.978
| 39> H 	 -119.091 	 41.9095 	 -111.98
| 40> H 	 -110.651 	 43.8513 	 -112.666
| 41> *
| 42>
| 43>                          ****END OF INPUT****

CARTESIAN COORDINATES (ANGSTROEM)
---------------------------------
  S    -116.558000   41.987500  -111.184000
  C    -118.037000   42.200400  -112.194000
  C    -117.618000   42.544400  -113.495000
  C    -116.188000   42.735000  -113.658000
  C    -115.459000   42.379400  -112.506000
  H    -115.660000   43.030800  -114.549000
  C    -118.443000   42.643200  -114.775000
  H    -118.145000   43.473800  -115.380000
  H    -119.487000   42.743000  -114.423000
  C    -118.495000   41.303000  -115.604000
  H    -117.552000   41.361600  -116.171000
  H    -118.226000   40.467900  -114.951000
  C    -119.588000   41.029900  -116.648000
  H    -119.402000   39.990600  -116.947000
  H    -120.592000   41.142600  -116.340000
  H    -119.529000   41.676800  -117.586000
  S    -113.225000   44.075100  -112.387000
  C    -111.615000   43.385900  -112.445000
  C    -111.743000   41.986800  -112.183000
  C    -113.053000   41.502700  -112.033000
  C    -114.011000   42.451500  -112.402000
  H    -110.878000   41.311900  -111.984000
  C    -113.437000   40.021900  -111.857000
  H    -114.458000   40.031800  -111.386000
  H    -112.686000   39.808900  -111.054000
  C    -113.462000   39.152700  -113.095000
  H    -113.890000   38.153400  -113.017000
  H    -112.472000   38.849700  -113.503000
  C    -114.218000   39.879000  -114.261000
  H    -114.204000   39.338900  -115.165000
  H    -113.770000   40.777400  -114.705000
  H    -115.227000   40.143200  -113.978000
  H    -119.091000   41.909500  -111.980000
  H    -110.651000   43.851300  -112.666000

 Total Charge           Charge          ....    0
 Multiplicity           Mult            ....    1
 Number of Electrons    NEL             ....  134
 Basis Dimension        Dim             ....  322

ORBITAL ENERGIES
----------------

  NO   OCC          E(Eh)            E(eV)
   0   2.0000     -88.972481     -2421.0643
   1   2.0000     -88.967757     -2420.9357
   2   2.0000     -10.335073      -281.2316
   3   2.0000     -10.328940      -281.0647
   4   2.0000     -10.328864      -281.0627
   5   2.0000     -10.326317      -280.9934
   6   2.0000     -10.310662      -280.5674
   7   2.0000     -10.302637      -280.3490
   8   2.0000     -10.299714      -280.2695
   9   2.0000     -10.299297      -280.2581
  10   2.0000     -10.299084      -280.2523
  11   2.0000     -10.294671      -280.1323
  12   2.0000     -10.291632      -280.0496
  13   2.0000     -10.290616      -280.0219
  14   2.0000     -10.285996      -279.8962
  15   2.0000     -10.266166      -279.3566
  16   2.0000      -8.085355      -220.0137
  17   2.0000      -8.081227      -219.9014
  18   2.0000      -6.044135      -164.4693
  19   2.0000      -6.039985      -164.3564
  20   2.0000      -6.039815      -164.3517
  21   2.0000      -6.036035      -164.2489
  22   2.0000      -6.035874      -164.2445
  23   2.0000      -6.031979      -164.1385
  24   2.0000      -0.998564       -27.1723
  25   2.0000      -0.975496       -26.5446
  26   2.0000      -0.905666       -24.6444
  27   2.0000      -0.903450       -24.5841
  28   2.0000      -0.864050       -23.5120
  29   2.0000      -0.846820       -23.0431
  30   2.0000      -0.842253       -22.9189
  31   2.0000      -0.806734       -21.9523
  32   2.0000      -0.781744       -21.2723
  33   2.0000      -0.773091       -21.0369
  34   2.0000      -0.708793       -19.2872
  35   2.0000      -0.700728       -19.0678
  36   2.0000      -0.697651       -18.9840
  37   2.0000      -0.660640       -17.9769
  38   2.0000      -0.636890       -17.3307
  39   2.0000      -0.608629       -16.5616
  40   2.0000      -0.584247       -15.8982
  41   2.0000      -0.568971       -15.4825
  42   2.0000      -0.556266       -15.1368
  43   2.0000      -0.552092       -15.0232
  44   2.0000      -0.540987       -14.7210
  45   2.0000      -0.523906       -14.2562
  46   2.0000      -0.513419       -13.9708
  47   2.0000      -0.511259       -13.9121
  48   2.0000      -0.505503       -13.7554
  49   2.0000      -0.499291       -13.5864
  50   2.0000      -0.486209       -13.2304
  51   2.0000      -0.479253       -13.0411
  52   2.0000      -0.475879       -12.9493
  53   2.0000      -0.462802       -12.5935
  54   2.0000      -0.457898       -12.4600
  55   2.0000      -0.444872       -12.1056
  56   2.0000      -0.439346       -11.9552
  57   2.0000      -0.434770       -11.8307
  58   2.0000      -0.429285       -11.6814
  59   2.0000      -0.422703       -11.5023
  60   2.0000      -0.408597       -11.1185
  61   2.0000      -0.407743       -11.0953
  62   2.0000      -0.405367       -11.0306
  63   2.0000      -0.335000        -9.1158
  64   2.0000      -0.329048        -8.9538
  65   2.0000      -0.328252        -8.9322
  66   2.0000      -0.298700        -8.1280
  67   0.0000       0.019071         0.5190
  68   0.0000       0.056153         1.5280
  69   0.0000       0.100618         2.7379
  70   0.0000       0.111139         3.0243
  71   0.0000       0.122972         3.3462

MULLIKEN ATOMIC CHARGES
-----------------------
   0 S :    0.115539
   1 C :   -0.128749
   2 C :   -0.111372
   3 C :    0.028869
   4 C :   -0.160918
   5 H :    0.018497
   6 C :    0.071854
   7 H :    0.035271
   8 H :    0.014699
   9 C :   -0.097938
  10 H :    0.017434
  11 H :    0.037268
  12 C :   -0.037115
  13 H :    0.041309
  14 H :    0.027629
  15 H :    0.040257
  16 S :    0.116738
  17 C :   -0.095524
  18 C :   -0.063332
  19 C :   -0.043058
  20 C :   -0.174695
  21 H :    0.030682
  22 C :    0.055483
  23 H :    0.034260
  24 H :    0.039291
  25 C :   -0.026019
  26 H :    0.033504
  27 H :    0.020308
  28 C :   -0.062989
  29 H :    0.008698
  30 H :    0.030450
  31 H :    0.043357
  32 H :    0.069802
  33 H :    0.070511
Sum of atomic charges:    0.0000000

LOEWDIN ATOMIC CHARGES
----------------------
   0 S :    0.393906
   1 C :   -0.200042
   2 C :   -0.057734
   3 C :   -0.053657
   4 C :   -0.195102
   5 H :    0.031176
   6 C :   -0.031285
   7 H :    0.027518
   8 H :    0.027036
   9 C :   -0.051376
  10 H :    0.025681
  11 H :    0.026917
  12 C :   -0.066776
  13 H :    0.035647
  14 H :    0.015447
  15 H :    0.034518
  16 S :    0.397377
  17 C :   -0.192837
  18 C :   -0.078766
  19 C :   -0.059604
  20 C :   -0.187170
  21 H :    0.035240
  22 C :   -0.038612
  23 H :    0.030248
  24 H :    0.038071
  25 C :   -0.041133
  26 H :    0.029520
  27 H :    0.025746
  28 C :   -0.069557
  29 H :    0.017988
  30 H :    0.028422
  31 H :    0.022131
  32 H :    0.043335
  33 H :    0.037726

  Mayer bond orders larger than 0.100000
B(  0-S ,  1-C ) :   1.1203 B(  0-S ,  4-C ) :   1.1386 B(  1-C ,  2-C ) :   1.6122
B(  1-C , 32-H ) :   0.9611 B(  2-C ,  3-C ) :   1.2218 B(  2-C ,  6-C ) :   1.0409
B(  3-C ,  4-C ) :   1.5568 B(  3-C ,  5-H ) :   0.9946 B(  4-C , 20-C ) :   1.0657
B(  6-C ,  7-H ) :   0.9465 B(  6-C ,  8-H ) :   0.9410 B(  6-C ,  9-C ) :   1.0429
B(  9-C , 10-H ) :   0.9500 B(  9-C , 11-H ) :   0.9602 B(  9-C , 12-C ) :   1.0742
B( 12-C , 13-H ) :   0.9713 B( 12-C , 14-H ) :   0.9789 B( 12-C , 15-H ) :   0.9749
B( 16-S , 17-C ) :   1.1650 B( 16-S , 20-C ) :   1.1418 B( 17-C , 18-C ) :   1.5589
B( 17-C , 20-C ) :   0.1209 B( 17-C , 33-H ) :   0.9694 B( 18-C , 19-C ) :   1.2892
B( 18-C , 21-H ) :   0.9777 B( 19-C , 20-C ) :   1.5281 B( 19-C , 22-C ) :   1.0373
B( 22-C , 23-H ) :   0.9289 B( 22-C , 24-H ) :   0.9345 B( 22-C , 25-C ) :   1.0612
B( 25-C , 26-H ) :   0.9566 B( 25-C , 27-H ) :   0.9536 B( 25-C , 28-C ) :   1.0800
B( 28-C , 29-H ) :   0.9678 B( 28-C , 30-H ) :   0.9661 B( 28-C , 31-H ) :   0.9741

Dispersion correction           -0.016238553
FINAL SINGLE POINT ENERGY     -1339.848225649196

DIPOLE MOMENT
-------------
                                X             Y             Z
Electronic contribution:      9.96234      15.82839      19.55384
Nuclear contribution   :     -9.99891     -16.25486     -20.10430
                        -----------------------------------------
Total Dipole Moment    :     -0.03657      -0.42647      -0.55046
                        -----------------------------------------
Magnitude (a.u.)       :      0.69730
Magnitude (Debye)      :      1.77239

Rotational constants in cm-1:     0.021115     0.008329     0.007636
Rotational constants in MHz :   633.005804   249.683172   228.916245

                             ****ORCA TERMINATED NORMALLY****
TOTAL RUN TIME: 0 days 0 hours 0 minutes 23 seconds 859 msec
