                         Program Version 4.2.1 -  RELEASE  -
|  1> ! wB97X-D3 SP def2-SVP
|  2> %pal
|  3> nprocs 24
|  4> end
|  5>
|  6> * xyz 0 1
|  7> S 	 -122.083 	 34.5159 	 -115.615
|  8> C 	 -120.367 	 34.8055 	 -115.768
|  9> C 	 -119.76 	 34.7185 	 -114.561
| 10> C 	 -120.633 	 34.3936 	 -113.454
| 11> C 	 -121.96 	 34.1976 	 -113.883
| 12> H 	 -120.268 	 34.2431 	 -112.517
| 13> C 	 -118.247 	 34.7637 	 -114.289
| 14> H 	 -118.109 	 35.0629 	 -113.278
| 15> H 	 -117.843 	 35.6451 	 -114.815
| 16> C 	 -117.466 	 33.4481 	 -114.559
| 17> H 	 -117.469 	 33.3304 	 -115.623
| 18> H 	 -116.436 	 33.6659 	 -114.421
| 19> C 	 -117.865 	 32.232 	 -113.776
| 20> H 	 -117.819 	 32.4097 	 -112.715
| 21> H 	 -118.849 	 31.8786 	 -113.949
| 22> H 	 -117.16 	 31.4665 	 -114.151
| 23> S 	 -124.452 	 34.831 	 -112.882
| 24> C 	 -125.351 	 33.4797 	 -112.22
| 25> C 	 -124.599 	 32.3983 	 -111.958
| 26> C 	 -123.326 	 32.441 	 -112.554
| 27> C 	 -123.071 	 33.6942 	 -113.1
| 28> H 	 -125.048 	 31.4945 	 -111.705
| 29> C 	 -122.427 	 31.2507 	 -112.511
| 30> H 	 -122.728 	 30.5657 	 -111.682
| 31> H 	 -121.436 	 31.5506 	 -112.323
| 32> C 	 -122.392 	 30.4074 	 -113.794
| 33> H 	 -121.427 	 29.9944 	 -113.865
| 34> H 	 -122.558 	 30.9844 	 -114.701
| 35> C 	 -123.497 	 29.3675 	 -113.706
| 36> H 	 -124.5 	 29.9167 	 -114.024
| 37> H 	 -123.604 	 28.8968 	 -112.703
| 38> H 	 -123.27 	 28.5081 	 -114.342
| 39> H 	 -119.838 	 34.4307 	 -116.662
| 40> H 	 -126.342 	 33.5551 	 -111.857
| 41> *
| 42>
| 43>                          ****END OF INPUT****

CARTESIAN COORDINATES (ANGSTROEM)
---------------------------------
  S    -122.083000   34.515900  -115.615000
  C    -120.367000   34.805500  -115.768000
  C    -119.760000   34.718500  -114.561000
  C    -120.633000   34.393600  -113.454000
  C    -121.960000   34.197600  -113.883000
  H    -120.268000   34.243100  -112.517000
  C    -118.247000   34.763700  -114.289000
  H    -118.109000   35.062900  -113.278000
  H    -117.843000   35.645100  -114.815000
  C    -117.466000   33.448100  -114.559000
  H    -117.469000   33.330400  -115.623000
  H    -116.436000   33.665900  -114.421000
  C    -117.865000   32.232000  -113.776000
  H    -117.819000   32.409700  -112.715000
  H    -118.849000   31.878600  -113.949000
  H    -117.160000   31.466500  -114.151000
  S    -124.452000   34.831000  -112.882000
  C    -125.351000   33.479700  -112.220000
  C    -124.599000   32.398300  -111.958000
  C    -123.326000   32.441000  -112.554000
  C    -123.071000   33.694200  -113.100000
  H    -125.048000   31.494500  -111.705000
  C    -122.427000   31.250700  -112.511000
  H    -122.728000   30.565700  -111.682000
  H    -121.436000   31.550600  -112.323000
  C    -122.392000   30.407400  -113.794000
  H    -121.427000   29.994400  -113.865000
  H    -122.558000   30.984400  -114.701000
  C    -123.497000   29.367500  -113.706000
  H    -124.500000   29.916700  -114.024000
  H    -123.604000   28.896800  -112.703000
  H    -123.270000   28.508100  -114.342000
  H    -119.838000   34.430700  -116.662000
  H    -126.342000   33.555100  -111.857000

 Total Charge           Charge          ....    0
 Multiplicity           Mult            ....    1
 Number of Electrons    NEL             ....  134
 Basis Dimension        Dim             ....  322

ORBITAL ENERGIES
----------------

  NO   OCC          E(Eh)            E(eV)
   0   2.0000     -88.964966     -2420.8598
   1   2.0000     -88.963348     -2420.8158
   2   2.0000     -10.333576      -281.1909
   3   2.0000     -10.326444      -280.9968
   4   2.0000     -10.310637      -280.5667
   5   2.0000     -10.307414      -280.4790
   6   2.0000     -10.301029      -280.3053
   7   2.0000     -10.299553      -280.2651
   8   2.0000     -10.291734      -280.0523
   9   2.0000     -10.289516      -279.9920
  10   2.0000     -10.286750      -279.9167
  11   2.0000     -10.286619      -279.9131
  12   2.0000     -10.283868      -279.8383
  13   2.0000     -10.280533      -279.7475
  14   2.0000     -10.279059      -279.7074
  15   2.0000     -10.277964      -279.6776
  16   2.0000      -8.079218      -219.8467
  17   2.0000      -8.078030      -219.8144
  18   2.0000      -6.037699      -164.2941
  19   2.0000      -6.036594      -164.2641
  20   2.0000      -6.033978      -164.1929
  21   2.0000      -6.032444      -164.1512
  22   2.0000      -6.029857      -164.0807
  23   2.0000      -6.028811      -164.0523
  24   2.0000      -1.004152       -27.3244
  25   2.0000      -0.983921       -26.7739
  26   2.0000      -0.914561       -24.8865
  27   2.0000      -0.911757       -24.8102
  28   2.0000      -0.872138       -23.7321
  29   2.0000      -0.851257       -23.1639
  30   2.0000      -0.847725       -23.0678
  31   2.0000      -0.815018       -22.1778
  32   2.0000      -0.786323       -21.3969
  33   2.0000      -0.771802       -21.0018
  34   2.0000      -0.711066       -19.3491
  35   2.0000      -0.709328       -19.3018
  36   2.0000      -0.691592       -18.8192
  37   2.0000      -0.665356       -18.1053
  38   2.0000      -0.640232       -17.4216
  39   2.0000      -0.613935       -16.7060
  40   2.0000      -0.603644       -16.4260
  41   2.0000      -0.572654       -15.5827
  42   2.0000      -0.559162       -15.2156
  43   2.0000      -0.553616       -15.0647
  44   2.0000      -0.543762       -14.7965
  45   2.0000      -0.539335       -14.6761
  46   2.0000      -0.520083       -14.1522
  47   2.0000      -0.517450       -14.0805
  48   2.0000      -0.498475       -13.5642
  49   2.0000      -0.495017       -13.4701
  50   2.0000      -0.486577       -13.2404
  51   2.0000      -0.482910       -13.1407
  52   2.0000      -0.473251       -12.8778
  53   2.0000      -0.469507       -12.7759
  54   2.0000      -0.457871       -12.4593
  55   2.0000      -0.445171       -12.1137
  56   2.0000      -0.439221       -11.9518
  57   2.0000      -0.437891       -11.9156
  58   2.0000      -0.432861       -11.7788
  59   2.0000      -0.426857       -11.6154
  60   2.0000      -0.419973       -11.4280
  61   2.0000      -0.418412       -11.3856
  62   2.0000      -0.412622       -11.2280
  63   2.0000      -0.338627        -9.2145
  64   2.0000      -0.332809        -9.0562
  65   2.0000      -0.329228        -8.9588
  66   2.0000      -0.296642        -8.0720
  67   0.0000       0.030738         0.8364
  68   0.0000       0.051230         1.3940
  69   0.0000       0.106004         2.8845
  70   0.0000       0.122118         3.3230
  71   0.0000       0.124849         3.3973

MULLIKEN ATOMIC CHARGES
-----------------------
   0 S :    0.101967
   1 C :   -0.120229
   2 C :   -0.133932
   3 C :    0.090890
   4 C :   -0.153654
   5 H :   -0.030352
   6 C :    0.054344
   7 H :    0.003757
   8 H :    0.031541
   9 C :   -0.039541
  10 H :    0.010489
  11 H :    0.016069
  12 C :   -0.024452
  13 H :    0.028574
  14 H :    0.031554
  15 H :    0.041361
  16 S :    0.103925
  17 C :   -0.071978
  18 C :    0.002757
  19 C :   -0.025864
  20 C :   -0.194403
  21 H :    0.000840
  22 C :    0.083617
  23 H :    0.025086
  24 H :    0.003920
  25 C :   -0.030728
  26 H :    0.015980
  27 H :    0.037246
  28 C :   -0.102889
  29 H :    0.060202
  30 H :    0.028156
  31 H :    0.035739
  32 H :    0.078553
  33 H :    0.041453
Sum of atomic charges:    0.0000000

LOEWDIN ATOMIC CHARGES
----------------------
   0 S :    0.400183
   1 C :   -0.222462
   2 C :   -0.056762
   3 C :   -0.047304
   4 C :   -0.186617
   5 H :    0.012249
   6 C :   -0.033012
   7 H :    0.020674
   8 H :    0.035255
   9 C :   -0.037944
  10 H :    0.019594
  11 H :    0.022341
  12 C :   -0.059380
  13 H :    0.024515
  14 H :    0.019920
  15 H :    0.037632
  16 S :    0.381744
  17 C :   -0.164119
  18 C :   -0.071457
  19 C :   -0.044682
  20 C :   -0.189266
  21 H :    0.022968
  22 C :   -0.025374
  23 H :    0.035190
  24 H :    0.022034
  25 C :   -0.034539
  26 H :    0.015609
  27 H :    0.029270
  28 C :   -0.077084
  29 H :    0.042541
  30 H :    0.021415
  31 H :    0.024104
  32 H :    0.041552
  33 H :    0.021209

  Mayer bond orders larger than 0.100000
B(  0-S ,  1-C ) :   1.1245 B(  0-S ,  4-C ) :   1.1632 B(  1-C ,  2-C ) :   1.6523
B(  1-C , 32-H ) :   0.9485 B(  2-C ,  3-C ) :   1.2368 B(  2-C ,  6-C ) :   1.0155
B(  3-C ,  4-C ) :   1.5486 B(  3-C ,  5-H ) :   1.0120 B(  4-C , 20-C ) :   1.0318
B(  6-C ,  7-H ) :   0.9399 B(  6-C ,  8-H ) :   0.9423 B(  6-C ,  9-C ) :   1.0714
B(  9-C , 10-H ) :   0.9537 B(  9-C , 11-H ) :   0.9501 B(  9-C , 12-C ) :   1.0774
B( 12-C , 13-H ) :   0.9735 B( 12-C , 14-H ) :   0.9736 B( 12-C , 15-H ) :   0.9689
B( 16-S , 17-C ) :   1.1459 B( 16-S , 20-C ) :   1.1289 B( 17-C , 18-C ) :   1.6519
B( 17-C , 33-H ) :   0.9620 B( 18-C , 19-C ) :   1.2409 B( 18-C , 21-H ) :   0.9775
B( 19-C , 20-C ) :   1.6212 B( 19-C , 22-C ) :   1.0496 B( 22-C , 23-H ) :   0.9405
B( 22-C , 24-H ) :   0.9250 B( 22-C , 25-C ) :   1.0635 B( 25-C , 26-H ) :   0.9560
B( 25-C , 27-H ) :   0.9566 B( 25-C , 28-C ) :   1.0754 B( 28-C , 29-H ) :   0.9741
B( 28-C , 30-H ) :   0.9759 B( 28-C , 31-H ) :   0.9744

Dispersion correction           -0.015812285
FINAL SINGLE POINT ENERGY     -1339.855101465884

DIPOLE MOMENT
-------------
                                X             Y             Z
Electronic contribution:    -17.83939      20.54012      -1.95106
Nuclear contribution   :     18.39017     -21.25923       2.15258
                        -----------------------------------------
Total Dipole Moment    :      0.55077      -0.71911       0.20152
                        -----------------------------------------
Magnitude (a.u.)       :      0.92794
Magnitude (Debye)      :      2.35864

Rotational constants in cm-1:     0.019068     0.009621     0.007546
Rotational constants in MHz :   571.658434   288.438559   226.229732

                             ****ORCA TERMINATED NORMALLY****
TOTAL RUN TIME: 0 days 0 hours 0 minutes 22 seconds 685 msec
