                         Program Version 4.2.1 -  RELEASE  -
|  1> ! wB97X-D3 SP def2-SVP
|  2> %pal
|  3> nprocs 24
|  4> end
|  5>
|  6> * xyz 0 1
|  7> S 	 -49.5248 	 26.7914 	 26.0285
|  8> C 	 -50.0489 	 27.197 	 27.5675
|  9> C 	 -49.8274 	 26.088 	 28.411
| 10> C 	 -48.9806 	 25.1342 	 27.8667
| 11> C 	 -48.6655 	 25.3637 	 26.5545
| 12> H 	 -48.5034 	 24.2456 	 28.2875
| 13> C 	 -50.2199 	 26.0201 	 29.8689
| 14> H 	 -51.2923 	 26.1908 	 29.9685
| 15> H 	 -49.6494 	 26.6881 	 30.518
| 16> C 	 -49.8741 	 24.6405 	 30.5277
| 17> H 	 -50.3345 	 23.8604 	 29.9767
| 18> H 	 -48.8581 	 24.5485 	 30.64
| 19> C 	 -50.5066 	 24.6809 	 31.9093
| 20> H 	 -51.5707 	 24.4193 	 31.949
| 21> H 	 -49.9603 	 23.855 	 32.4216
| 22> H 	 -50.3384 	 25.5876 	 32.4413
| 23> S 	 -47.3648 	 25.3667 	 24.1107
| 24> C 	 -46.5465 	 23.9186 	 23.5579
| 25> C 	 -46.6757 	 22.882 	 24.4487
| 26> C 	 -47.5506 	 23.1973 	 25.5379
| 27> C 	 -47.9291 	 24.5661 	 25.5447
| 28> H 	 -46.3032 	 21.8976 	 24.2651
| 29> C 	 -48.0617 	 22.1203 	 26.5809
| 30> H 	 -48.5936 	 21.2913 	 26.111
| 31> H 	 -48.8238 	 22.6598 	 27.1704
| 32> C 	 -47.0529 	 21.4671 	 27.6444
| 33> H 	 -46.5225 	 22.19 	 28.1952
| 34> H 	 -46.31 	 20.8902 	 27.0917
| 35> C 	 -47.7745 	 20.5286 	 28.6739
| 36> H 	 -47.0066 	 20.0113 	 29.1898
| 37> H 	 -48.4713 	 19.8737 	 28.1852
| 38> H 	 -48.3412 	 21.0343 	 29.4097
| 39> H 	 -50.5888 	 28.0269 	 27.9437
| 40> H 	 -45.9611 	 23.8995 	 22.6292
| 41> *
| 42>
| 43>                          ****END OF INPUT****

CARTESIAN COORDINATES (ANGSTROEM)
---------------------------------
  S    -49.524800   26.791400   26.028500
  C    -50.048900   27.197000   27.567500
  C    -49.827400   26.088000   28.411000
  C    -48.980600   25.134200   27.866700
  C    -48.665500   25.363700   26.554500
  H    -48.503400   24.245600   28.287500
  C    -50.219900   26.020100   29.868900
  H    -51.292300   26.190800   29.968500
  H    -49.649400   26.688100   30.518000
  C    -49.874100   24.640500   30.527700
  H    -50.334500   23.860400   29.976700
  H    -48.858100   24.548500   30.640000
  C    -50.506600   24.680900   31.909300
  H    -51.570700   24.419300   31.949000
  H    -49.960300   23.855000   32.421600
  H    -50.338400   25.587600   32.441300
  S    -47.364800   25.366700   24.110700
  C    -46.546500   23.918600   23.557900
  C    -46.675700   22.882000   24.448700
  C    -47.550600   23.197300   25.537900
  C    -47.929100   24.566100   25.544700
  H    -46.303200   21.897600   24.265100
  C    -48.061700   22.120300   26.580900
  H    -48.593600   21.291300   26.111000
  H    -48.823800   22.659800   27.170400
  C    -47.052900   21.467100   27.644400
  H    -46.522500   22.190000   28.195200
  H    -46.310000   20.890200   27.091700
  C    -47.774500   20.528600   28.673900
  H    -47.006600   20.011300   29.189800
  H    -48.471300   19.873700   28.185200
  H    -48.341200   21.034300   29.409700
  H    -50.588800   28.026900   27.943700
  H    -45.961100   23.899500   22.629200

 Total Charge           Charge          ....    0
 Multiplicity           Mult            ....    1
 Number of Electrons    NEL             ....  134
 Basis Dimension        Dim             ....  322

ORBITAL ENERGIES
----------------

  NO   OCC          E(Eh)            E(eV)
   0   2.0000     -88.968075     -2420.9444
   1   2.0000     -88.964947     -2420.8593
   2   2.0000     -10.333413      -281.1865
   3   2.0000     -10.327247      -281.0187
   4   2.0000     -10.319849      -280.8174
   5   2.0000     -10.311387      -280.5871
   6   2.0000     -10.307274      -280.4752
   7   2.0000     -10.301330      -280.3134
   8   2.0000     -10.295268      -280.1485
   9   2.0000     -10.294323      -280.1228
  10   2.0000     -10.291208      -280.0380
  11   2.0000     -10.288278      -279.9583
  12   2.0000     -10.287891      -279.9477
  13   2.0000     -10.277037      -279.6524
  14   2.0000     -10.275819      -279.6192
  15   2.0000     -10.275302      -279.6052
  16   2.0000      -8.082896      -219.9468
  17   2.0000      -8.080817      -219.8902
  18   2.0000      -6.041350      -164.3935
  19   2.0000      -6.039105      -164.3324
  20   2.0000      -6.037394      -164.2858
  21   2.0000      -6.035026      -164.2214
  22   2.0000      -6.033712      -164.1857
  23   2.0000      -6.031884      -164.1359
  24   2.0000      -1.013158       -27.5694
  25   2.0000      -0.988335       -26.8940
  26   2.0000      -0.915969       -24.9248
  27   2.0000      -0.895726       -24.3739
  28   2.0000      -0.871280       -23.7087
  29   2.0000      -0.856287       -23.3008
  30   2.0000      -0.846717       -23.0403
  31   2.0000      -0.817333       -22.2408
  32   2.0000      -0.779911       -21.2225
  33   2.0000      -0.765986       -20.8435
  34   2.0000      -0.713031       -19.4026
  35   2.0000      -0.703240       -19.1361
  36   2.0000      -0.691787       -18.8245
  37   2.0000      -0.661427       -17.9983
  38   2.0000      -0.643437       -17.5088
  39   2.0000      -0.621306       -16.9066
  40   2.0000      -0.595362       -16.2006
  41   2.0000      -0.586989       -15.9728
  42   2.0000      -0.567592       -15.4450
  43   2.0000      -0.561414       -15.2769
  44   2.0000      -0.527653       -14.3582
  45   2.0000      -0.525882       -14.3100
  46   2.0000      -0.514566       -14.0020
  47   2.0000      -0.508357       -13.8331
  48   2.0000      -0.500303       -13.6139
  49   2.0000      -0.497247       -13.5308
  50   2.0000      -0.493201       -13.4207
  51   2.0000      -0.485694       -13.2164
  52   2.0000      -0.476709       -12.9719
  53   2.0000      -0.468238       -12.7414
  54   2.0000      -0.464933       -12.6515
  55   2.0000      -0.452960       -12.3257
  56   2.0000      -0.444764       -12.1026
  57   2.0000      -0.440706       -11.9922
  58   2.0000      -0.439361       -11.9556
  59   2.0000      -0.429310       -11.6821
  60   2.0000      -0.422815       -11.5054
  61   2.0000      -0.417454       -11.3595
  62   2.0000      -0.398589       -10.8461
  63   2.0000      -0.359223        -9.7749
  64   2.0000      -0.337366        -9.1802
  65   2.0000      -0.328482        -8.9384
  66   2.0000      -0.280318        -7.6279
  67   0.0000       0.020278         0.5518
  68   0.0000       0.086113         2.3433
  69   0.0000       0.103386         2.8133
  70   0.0000       0.118081         3.2132
  71   0.0000       0.128883         3.5071

MULLIKEN ATOMIC CHARGES
-----------------------
   0 S :    0.112749
   1 C :   -0.073585
   2 C :   -0.091716
   3 C :   -0.031742
   4 C :   -0.101682
   5 H :    0.020280
   6 C :    0.023557
   7 H :    0.032203
   8 H :    0.038369
   9 C :   -0.078157
  10 H :    0.028238
  11 H :    0.025526
  12 C :   -0.030970
  13 H :    0.038881
  14 H :    0.024736
  15 H :    0.024301
  16 S :    0.104721
  17 C :   -0.099881
  18 C :   -0.002097
  19 C :   -0.056233
  20 C :   -0.128967
  21 H :    0.011794
  22 C :    0.023625
  23 H :    0.034901
  24 H :    0.013959
  25 C :   -0.065876
  26 H :    0.022063
  27 H :    0.028241
  28 C :   -0.023920
  29 H :    0.030464
  30 H :    0.025529
  31 H :    0.019616
  32 H :    0.031781
  33 H :    0.069294
Sum of atomic charges:    0.0000000

LOEWDIN ATOMIC CHARGES
----------------------
   0 S :    0.440512
   1 C :   -0.217046
   2 C :   -0.071223
   3 C :   -0.077450
   4 C :   -0.188018
   5 H :    0.036773
   6 C :   -0.031545
   7 H :    0.029655
   8 H :    0.032362
   9 C :   -0.029896
  10 H :    0.020609
  11 H :    0.012787
  12 C :   -0.061095
  13 H :    0.026956
  14 H :    0.029716
  15 H :    0.017810
  16 S :    0.411305
  17 C :   -0.184987
  18 C :   -0.067929
  19 C :   -0.057413
  20 C :   -0.201848
  21 H :    0.029521
  22 C :   -0.034558
  23 H :    0.030491
  24 H :    0.026410
  25 C :   -0.030866
  26 H :    0.015232
  27 H :    0.021368
  28 C :   -0.055505
  29 H :    0.025597
  30 H :    0.022403
  31 H :    0.018674
  32 H :    0.026927
  33 H :    0.034276

  Mayer bond orders larger than 0.100000
B(  0-S ,  1-C ) :   1.1703 B(  0-S ,  4-C ) :   1.1704 B(  1-C ,  2-C ) :   1.5464
B(  1-C ,  4-C ) :   0.1125 B(  1-C , 32-H ) :   0.9809 B(  2-C ,  3-C ) :   1.2943
B(  2-C ,  6-C ) :   1.0176 B(  3-C ,  4-C ) :   1.5368 B(  3-C ,  5-H ) :   0.9841
B(  4-C , 20-C ) :   1.0418 B(  6-C ,  7-H ) :   0.9423 B(  6-C ,  8-H ) :   0.9381
B(  6-C ,  9-C ) :   1.1060 B(  9-C , 10-H ) :   0.9521 B(  9-C , 11-H ) :   0.9466
B(  9-C , 12-C ) :   1.0845 B( 12-C , 13-H ) :   0.9757 B( 12-C , 14-H ) :   0.9725
B( 12-C , 15-H ) :   0.9713 B( 16-S , 17-C ) :   1.1534 B( 16-S , 20-C ) :   1.1529
B( 17-C , 18-C ) :   1.5935 B( 17-C , 33-H ) :   0.9667 B( 18-C , 19-C ) :   1.2642
B( 18-C , 21-H ) :   0.9932 B( 19-C , 20-C ) :   1.5665 B( 19-C , 22-C ) :   1.0224
B( 22-C , 23-H ) :   0.9408 B( 22-C , 24-H ) :   0.9435 B( 22-C , 25-C ) :   1.0508
B( 25-C , 26-H ) :   0.9587 B( 25-C , 27-H ) :   0.9597 B( 25-C , 28-C ) :   1.0763
B( 28-C , 29-H ) :   0.9741 B( 28-C , 30-H ) :   0.9769 B( 28-C , 31-H ) :   0.9771

Dispersion correction           -0.013867376
FINAL SINGLE POINT ENERGY     -1339.866167844259

DIPOLE MOMENT
-------------
                                X             Y             Z
Electronic contribution:      3.53713      19.45108     -28.96781
Nuclear contribution   :     -3.52005     -19.96274      29.48244
                        -----------------------------------------
Total Dipole Moment    :      0.01708      -0.51166       0.51463
                        -----------------------------------------
Magnitude (a.u.)       :      0.72590
Magnitude (Debye)      :      1.84510

Rotational constants in cm-1:     0.016311     0.010114     0.006377
Rotational constants in MHz :   488.999079   303.206553   191.164004

                             ****ORCA TERMINATED NORMALLY****
TOTAL RUN TIME: 0 days 0 hours 0 minutes 20 seconds 640 msec
