                         Program Version 4.2.1 -  RELEASE  -
|  1> ! wB97X-D3 SP def2-SVP
|  2> %pal
|  3> nprocs 24
|  4> end
|  5>
|  6> * xyz 0 1
|  7> S 	 -58.7405 	 11.0198 	 -84.1459
|  8> C 	 -59.8713 	 11.317 	 -85.4991
|  9> C 	 -61.0909 	 11.6992 	 -85.0306
| 10> C 	 -60.9733 	 12.0635 	 -83.6676
| 11> C 	 -59.8279 	 11.6817 	 -83.0037
| 12> H 	 -61.6991 	 12.4117 	 -83.0265
| 13> C 	 -62.3978 	 11.9248 	 -85.7437
| 14> H 	 -63.1878 	 11.9512 	 -84.9761
| 15> H 	 -62.531 	 11.0094 	 -86.2072
| 16> C 	 -62.5099 	 13.1375 	 -86.6113
| 17> H 	 -61.8526 	 12.9409 	 -87.5027
| 18> H 	 -63.5305 	 13.2013 	 -87.0111
| 19> C 	 -62.143 	 14.4882 	 -85.8896
| 20> H 	 -61.1729 	 14.6852 	 -85.5915
| 21> H 	 -62.4163 	 15.3739 	 -86.4799
| 22> H 	 -62.7572 	 14.7659 	 -85.0188
| 23> S 	 -60.4297 	 13.4672 	 -80.9223
| 24> C 	 -59.7437 	 13.2147 	 -79.3659
| 25> C 	 -58.9199 	 12.133 	 -79.3562
| 26> C 	 -58.9025 	 11.4341 	 -80.5975
| 27> C 	 -59.6082 	 12.0257 	 -81.5846
| 28> H 	 -58.455 	 11.8757 	 -78.4492
| 29> C 	 -57.9815 	 10.1883 	 -80.7424
| 30> H 	 -57.0418 	 10.234 	 -80.065
| 31> H 	 -57.8144 	 10.164 	 -81.8005
| 32> C 	 -58.7105 	 8.83406 	 -80.4097
| 33> H 	 -58.1019 	 8.02617 	 -80.8398
| 34> H 	 -59.7546 	 8.85545 	 -80.8478
| 35> C 	 -58.7967 	 8.64251 	 -78.8766
| 36> H 	 -59.1695 	 7.6214 	 -78.7162
| 37> H 	 -59.5782 	 9.192 	 -78.4741
| 38> H 	 -57.8325 	 8.92732 	 -78.3435
| 39> H 	 -59.8224 	 11.262 	 -86.5581
| 40> H 	 -59.7648 	 13.8361 	 -78.4787
| 41> *
| 42>
| 43>                          ****END OF INPUT****

CARTESIAN COORDINATES (ANGSTROEM)
---------------------------------
  S    -58.740500   11.019800  -84.145900
  C    -59.871300   11.317000  -85.499100
  C    -61.090900   11.699200  -85.030600
  C    -60.973300   12.063500  -83.667600
  C    -59.827900   11.681700  -83.003700
  H    -61.699100   12.411700  -83.026500
  C    -62.397800   11.924800  -85.743700
  H    -63.187800   11.951200  -84.976100
  H    -62.531000   11.009400  -86.207200
  C    -62.509900   13.137500  -86.611300
  H    -61.852600   12.940900  -87.502700
  H    -63.530500   13.201300  -87.011100
  C    -62.143000   14.488200  -85.889600
  H    -61.172900   14.685200  -85.591500
  H    -62.416300   15.373900  -86.479900
  H    -62.757200   14.765900  -85.018800
  S    -60.429700   13.467200  -80.922300
  C    -59.743700   13.214700  -79.365900
  C    -58.919900   12.133000  -79.356200
  C    -58.902500   11.434100  -80.597500
  C    -59.608200   12.025700  -81.584600
  H    -58.455000   11.875700  -78.449200
  C    -57.981500   10.188300  -80.742400
  H    -57.041800   10.234000  -80.065000
  H    -57.814400   10.164000  -81.800500
  C    -58.710500    8.834060  -80.409700
  H    -58.101900    8.026170  -80.839800
  H    -59.754600    8.855450  -80.847800
  C    -58.796700    8.642510  -78.876600
  H    -59.169500    7.621400  -78.716200
  H    -59.578200    9.192000  -78.474100
  H    -57.832500    8.927320  -78.343500
  H    -59.822400   11.262000  -86.558100
  H    -59.764800   13.836100  -78.478700

 Total Charge           Charge          ....    0
 Multiplicity           Mult            ....    1
 Number of Electrons    NEL             ....  134
 Basis Dimension        Dim             ....  322

ORBITAL ENERGIES
----------------

  NO   OCC          E(Eh)            E(eV)
   0   2.0000     -88.972118     -2421.0544
   1   2.0000     -88.966228     -2420.8941
   2   2.0000     -10.329502      -281.0801
   3   2.0000     -10.326884      -281.0088
   4   2.0000     -10.312438      -280.6157
   5   2.0000     -10.311744      -280.5968
   6   2.0000     -10.298909      -280.2475
   7   2.0000     -10.298220      -280.2288
   8   2.0000     -10.298126      -280.2262
   9   2.0000     -10.295014      -280.1416
  10   2.0000     -10.290927      -280.0303
  11   2.0000     -10.285936      -279.8945
  12   2.0000     -10.284569      -279.8573
  13   2.0000     -10.278517      -279.6927
  14   2.0000     -10.275519      -279.6111
  15   2.0000     -10.275269      -279.6043
  16   2.0000      -8.085834      -220.0267
  17   2.0000      -8.080710      -219.8873
  18   2.0000      -6.044734      -164.4856
  19   2.0000      -6.040395      -164.3675
  20   2.0000      -6.039422      -164.3410
  21   2.0000      -6.036321      -164.2567
  22   2.0000      -6.035277      -164.2282
  23   2.0000      -6.031240      -164.1184
  24   2.0000      -1.011667       -27.5289
  25   2.0000      -0.990696       -26.9582
  26   2.0000      -0.918083       -24.9823
  27   2.0000      -0.901220       -24.5234
  28   2.0000      -0.871596       -23.7173
  29   2.0000      -0.849609       -23.1190
  30   2.0000      -0.842473       -22.9248
  31   2.0000      -0.815597       -22.1935
  32   2.0000      -0.792580       -21.5672
  33   2.0000      -0.776380       -21.1264
  34   2.0000      -0.714759       -19.4496
  35   2.0000      -0.708090       -19.2681
  36   2.0000      -0.684508       -18.6264
  37   2.0000      -0.668182       -18.1821
  38   2.0000      -0.633892       -17.2491
  39   2.0000      -0.612171       -16.6580
  40   2.0000      -0.588778       -16.0215
  41   2.0000      -0.579973       -15.7819
  42   2.0000      -0.558549       -15.1989
  43   2.0000      -0.554481       -15.0882
  44   2.0000      -0.546773       -14.8785
  45   2.0000      -0.539264       -14.6741
  46   2.0000      -0.518541       -14.1102
  47   2.0000      -0.507077       -13.7983
  48   2.0000      -0.500993       -13.6327
  49   2.0000      -0.498518       -13.5654
  50   2.0000      -0.484158       -13.1746
  51   2.0000      -0.476758       -12.9732
  52   2.0000      -0.475072       -12.9274
  53   2.0000      -0.470939       -12.8149
  54   2.0000      -0.462605       -12.5881
  55   2.0000      -0.445292       -12.1170
  56   2.0000      -0.441225       -12.0064
  57   2.0000      -0.433796       -11.8042
  58   2.0000      -0.428367       -11.6565
  59   2.0000      -0.426345       -11.6014
  60   2.0000      -0.419328       -11.4105
  61   2.0000      -0.411741       -11.2040
  62   2.0000      -0.410323       -11.1654
  63   2.0000      -0.359086        -9.7712
  64   2.0000      -0.334398        -9.0994
  65   2.0000      -0.330462        -8.9923
  66   2.0000      -0.287507        -7.8235
  67   0.0000       0.027524         0.7490
  68   0.0000       0.080086         2.1793
  69   0.0000       0.097317         2.6481
  70   0.0000       0.117805         3.2056
  71   0.0000       0.131528         3.5791

MULLIKEN ATOMIC CHARGES
-----------------------
   0 S :    0.107682
   1 C :   -0.092446
   2 C :   -0.102691
   3 C :   -0.020797
   4 C :   -0.096257
   5 H :   -0.022257
   6 C :    0.116353
   7 H :    0.019407
   8 H :    0.013186
   9 C :   -0.048067
  10 H :    0.033112
  11 H :    0.036819
  12 C :   -0.047831
  13 H :    0.032064
  14 H :    0.021494
  15 H :    0.021740
  16 S :    0.095546
  17 C :   -0.072168
  18 C :   -0.029876
  19 C :   -0.059135
  20 C :   -0.130263
  21 H :   -0.003293
  22 C :    0.051675
  23 H :    0.050415
  24 H :    0.010132
  25 C :   -0.093784
  26 H :    0.042409
  27 H :    0.047647
  28 C :   -0.046353
  29 H :    0.032553
  30 H :    0.019858
  31 H :    0.039560
  32 H :    0.021120
  33 H :    0.052444
Sum of atomic charges:   -0.0000000

LOEWDIN ATOMIC CHARGES
----------------------
   0 S :    0.415772
   1 C :   -0.188070
   2 C :   -0.055285
   3 C :   -0.068961
   4 C :   -0.200837
   5 H :    0.005896
   6 C :   -0.030770
   7 H :    0.033807
   8 H :    0.025139
   9 C :   -0.034324
  10 H :    0.028446
  11 H :    0.029968
  12 C :   -0.072393
  13 H :    0.017518
  14 H :    0.030992
  15 H :    0.029908
  16 S :    0.405016
  17 C :   -0.191157
  18 C :   -0.070192
  19 C :   -0.063435
  20 C :   -0.176551
  21 H :    0.023049
  22 C :   -0.031181
  23 H :    0.040696
  24 H :    0.012704
  25 C :   -0.039330
  26 H :    0.024208
  27 H :    0.034734
  28 C :   -0.072113
  29 H :    0.030132
  30 H :    0.014505
  31 H :    0.030112
  32 H :    0.026746
  33 H :    0.035254

  Mayer bond orders larger than 0.100000
B(  0-S ,  1-C ) :   1.1190 B(  0-S ,  4-C ) :   1.1353 B(  1-C ,  2-C ) :   1.6343
B(  1-C , 32-H ) :   0.9659 B(  2-C ,  3-C ) :   1.2279 B(  2-C ,  6-C ) :   1.0027
B(  3-C ,  4-C ) :   1.5723 B(  3-C ,  5-H ) :   1.0003 B(  4-C , 20-C ) :   1.0590
B(  6-C ,  7-H ) :   0.9371 B(  6-C ,  8-H ) :   0.9274 B(  6-C ,  9-C ) :   1.0882
B(  9-C , 10-H ) :   0.9554 B(  9-C , 11-H ) :   0.9539 B(  9-C , 12-C ) :   1.0635
B( 12-C , 13-H ) :   0.9782 B( 12-C , 14-H ) :   0.9721 B( 12-C , 15-H ) :   0.9723
B( 16-S , 17-C ) :   1.1449 B( 16-S , 20-C ) :   1.1144 B( 17-C , 18-C ) :   1.6435
B( 17-C , 33-H ) :   0.9610 B( 18-C , 19-C ) :   1.2166 B( 18-C , 21-H ) :   0.9973
B( 19-C , 20-C ) :   1.6368 B( 19-C , 22-C ) :   1.0257 B( 22-C , 23-H ) :   0.9473
B( 22-C , 24-H ) :   0.9283 B( 22-C , 25-C ) :   1.0670 B( 25-C , 26-H ) :   0.9612
B( 25-C , 27-H ) :   0.9524 B( 25-C , 28-C ) :   1.0755 B( 28-C , 29-H ) :   0.9710
B( 28-C , 30-H ) :   0.9728 B( 28-C , 31-H ) :   0.9740

Dispersion correction           -0.014708886
FINAL SINGLE POINT ENERGY     -1339.848235747026

DIPOLE MOMENT
-------------
                                X             Y             Z
Electronic contribution:      5.97568       5.20160       1.71957
Nuclear contribution   :     -6.26218      -5.26719      -1.68626
                        -----------------------------------------
Total Dipole Moment    :     -0.28650      -0.06559       0.03331
                        -----------------------------------------
Magnitude (a.u.)       :      0.29579
Magnitude (Debye)      :      0.75184

Rotational constants in cm-1:     0.023661     0.008104     0.006654
Rotational constants in MHz :   709.336719   242.964525   199.492483

                             ****ORCA TERMINATED NORMALLY****
TOTAL RUN TIME: 0 days 0 hours 0 minutes 21 seconds 684 msec
