                         Program Version 4.2.1 -  RELEASE  -
|  1> ! wB97X-D3 SP def2-SVP
|  2> %pal
|  3> nprocs 24
|  4> end
|  5>
|  6> * xyz 0 1
|  7> S 	 -1.21224 	 -19.2792 	 -104.346
|  8> C 	 -1.24984 	 -20.6022 	 -103.24
|  9> C 	 -1.28452 	 -20.1766 	 -101.892
| 10> C 	 -1.32803 	 -18.7663 	 -101.763
| 11> C 	 -1.25329 	 -18.1181 	 -102.988
| 12> H 	 -1.39375 	 -18.2428 	 -100.854
| 13> C 	 -1.57134 	 -21.0994 	 -100.716
| 14> H 	 -1.48686 	 -22.1163 	 -101.104
| 15> H 	 -2.5427 	 -20.9025 	 -100.343
| 16> C 	 -0.708528 	 -20.9987 	 -99.4337
| 17> H 	 0.223321 	 -21.5175 	 -99.5357
| 18> H 	 -0.432267 	 -19.9261 	 -99.1652
| 19> C 	 -1.38052 	 -21.5591 	 -98.1677
| 20> H 	 -0.704075 	 -21.33 	 -97.2805
| 21> H 	 -2.37767 	 -21.1466 	 -97.9564
| 22> H 	 -1.54944 	 -22.6513 	 -98.2193
| 23> S 	 0.359364 	 -16.0436 	 -103.62
| 24> C 	 -0.209895 	 -14.4105 	 -103.782
| 25> C 	 -1.5695 	 -14.381 	 -103.568
| 26> C 	 -2.18367 	 -15.6551 	 -103.238
| 27> C 	 -1.24868 	 -16.68 	 -103.277
| 28> H 	 -2.06033 	 -13.4729 	 -103.755
| 29> C 	 -3.5422 	 -15.7945 	 -102.733
| 30> H 	 -3.87102 	 -16.7275 	 -103.063
| 31> H 	 -4.2628 	 -15.1803 	 -103.261
| 32> C 	 -3.69036 	 -15.6857 	 -101.251
| 33> H 	 -2.95513 	 -16.1801 	 -100.658
| 34> H 	 -4.70035 	 -16.0409 	 -100.981
| 35> C 	 -3.50449 	 -14.165 	 -100.896
| 36> H 	 -2.48862 	 -13.8898 	 -100.942
| 37> H 	 -3.88501 	 -13.9357 	 -99.8666
| 38> H 	 -4.07121 	 -13.4439 	 -101.404
| 39> H 	 -1.30912 	 -21.6432 	 -103.519
| 40> H 	 0.305591 	 -13.5202 	 -103.996
| 41> *
| 42>
| 43>                          ****END OF INPUT****

CARTESIAN COORDINATES (ANGSTROEM)
---------------------------------
  S     -1.212240  -19.279200  -104.346000
  C     -1.249840  -20.602200  -103.240000
  C     -1.284520  -20.176600  -101.892000
  C     -1.328030  -18.766300  -101.763000
  C     -1.253290  -18.118100  -102.988000
  H     -1.393750  -18.242800  -100.854000
  C     -1.571340  -21.099400  -100.716000
  H     -1.486860  -22.116300  -101.104000
  H     -2.542700  -20.902500  -100.343000
  C     -0.708528  -20.998700  -99.433700
  H      0.223321  -21.517500  -99.535700
  H     -0.432267  -19.926100  -99.165200
  C     -1.380520  -21.559100  -98.167700
  H     -0.704075  -21.330000  -97.280500
  H     -2.377670  -21.146600  -97.956400
  H     -1.549440  -22.651300  -98.219300
  S      0.359364  -16.043600  -103.620000
  C     -0.209895  -14.410500  -103.782000
  C     -1.569500  -14.381000  -103.568000
  C     -2.183670  -15.655100  -103.238000
  C     -1.248680  -16.680000  -103.277000
  H     -2.060330  -13.472900  -103.755000
  C     -3.542200  -15.794500  -102.733000
  H     -3.871020  -16.727500  -103.063000
  H     -4.262800  -15.180300  -103.261000
  C     -3.690360  -15.685700  -101.251000
  H     -2.955130  -16.180100  -100.658000
  H     -4.700350  -16.040900  -100.981000
  C     -3.504490  -14.165000  -100.896000
  H     -2.488620  -13.889800  -100.942000
  H     -3.885010  -13.935700  -99.866600
  H     -4.071210  -13.443900  -101.404000
  H     -1.309120  -21.643200  -103.519000
  H      0.305591  -13.520200  -103.996000

 Total Charge           Charge          ....    0
 Multiplicity           Mult            ....    1
 Number of Electrons    NEL             ....  134
 Basis Dimension        Dim             ....  322

ORBITAL ENERGIES
----------------

  NO   OCC          E(Eh)            E(eV)
   0   2.0000     -88.969422     -2420.9811
   1   2.0000     -88.960708     -2420.7439
   2   2.0000     -10.332754      -281.1685
   3   2.0000     -10.325131      -280.9611
   4   2.0000     -10.316620      -280.7295
   5   2.0000     -10.311218      -280.5825
   6   2.0000     -10.302636      -280.3490
   7   2.0000     -10.301885      -280.3285
   8   2.0000     -10.294535      -280.1285
   9   2.0000     -10.291714      -280.0518
  10   2.0000     -10.290731      -280.0250
  11   2.0000     -10.287309      -279.9319
  12   2.0000     -10.287258      -279.9305
  13   2.0000     -10.286944      -279.9220
  14   2.0000     -10.276793      -279.6457
  15   2.0000     -10.268804      -279.4284
  16   2.0000      -8.083780      -219.9708
  17   2.0000      -8.075521      -219.7461
  18   2.0000      -6.042206      -164.4168
  19   2.0000      -6.038262      -164.3095
  20   2.0000      -6.034737      -164.2135
  21   2.0000      -6.034131      -164.1971
  22   2.0000      -6.029858      -164.0808
  23   2.0000      -6.026315      -163.9844
  24   2.0000      -1.003760       -27.3137
  25   2.0000      -0.982362       -26.7314
  26   2.0000      -0.918891       -25.0043
  27   2.0000      -0.908049       -24.7093
  28   2.0000      -0.868225       -23.6256
  29   2.0000      -0.851963       -23.1831
  30   2.0000      -0.842811       -22.9341
  31   2.0000      -0.816814       -22.2266
  32   2.0000      -0.784579       -21.3495
  33   2.0000      -0.769733       -20.9455
  34   2.0000      -0.712881       -19.3985
  35   2.0000      -0.700368       -19.0580
  36   2.0000      -0.690876       -18.7997
  37   2.0000      -0.662650       -18.0316
  38   2.0000      -0.646788       -17.6000
  39   2.0000      -0.624788       -17.0014
  40   2.0000      -0.601995       -16.3811
  41   2.0000      -0.573902       -15.6167
  42   2.0000      -0.561186       -15.2707
  43   2.0000      -0.551133       -14.9971
  44   2.0000      -0.548413       -14.9231
  45   2.0000      -0.523761       -14.2523
  46   2.0000      -0.514231       -13.9929
  47   2.0000      -0.511473       -13.9179
  48   2.0000      -0.503496       -13.7008
  49   2.0000      -0.499670       -13.5967
  50   2.0000      -0.492430       -13.3997
  51   2.0000      -0.482257       -13.1229
  52   2.0000      -0.470722       -12.8090
  53   2.0000      -0.463637       -12.6162
  54   2.0000      -0.461532       -12.5589
  55   2.0000      -0.450271       -12.2525
  56   2.0000      -0.442642       -12.0449
  57   2.0000      -0.435033       -11.8378
  58   2.0000      -0.433275       -11.7900
  59   2.0000      -0.426057       -11.5936
  60   2.0000      -0.421318       -11.4646
  61   2.0000      -0.416651       -11.3377
  62   2.0000      -0.408790       -11.1238
  63   2.0000      -0.341473        -9.2919
  64   2.0000      -0.325166        -8.8482
  65   2.0000      -0.322068        -8.7639
  66   2.0000      -0.304897        -8.2967
  67   0.0000       0.042051         1.1443
  68   0.0000       0.054476         1.4824
  69   0.0000       0.114693         3.1210
  70   0.0000       0.126126         3.4321
  71   0.0000       0.129090         3.5127

MULLIKEN ATOMIC CHARGES
-----------------------
   0 S :    0.130825
   1 C :   -0.115436
   2 C :   -0.080951
   3 C :    0.074952
   4 C :   -0.177359
   5 H :   -0.001633
   6 C :    0.093705
   7 H :    0.019792
   8 H :    0.023551
   9 C :   -0.099499
  10 H :    0.029469
  11 H :    0.036871
  12 C :   -0.094657
  13 H :    0.048296
  14 H :    0.032805
  15 H :    0.035999
  16 S :    0.106893
  17 C :   -0.061491
  18 C :   -0.041151
  19 C :   -0.024678
  20 C :   -0.192598
  21 H :   -0.000170
  22 C :    0.119906
  23 H :   -0.002462
  24 H :    0.011963
  25 C :   -0.020980
  26 H :    0.026350
  27 H :    0.031991
  28 C :   -0.062432
  29 H :    0.038949
  30 H :    0.021644
  31 H :    0.008157
  32 H :    0.046650
  33 H :    0.036730
Sum of atomic charges:   -0.0000000

LOEWDIN ATOMIC CHARGES
----------------------
   0 S :    0.414147
   1 C :   -0.203532
   2 C :   -0.064430
   3 C :   -0.045361
   4 C :   -0.190988
   5 H :    0.024914
   6 C :   -0.028500
   7 H :    0.031340
   8 H :    0.027503
   9 C :   -0.046313
  10 H :    0.021476
  11 H :    0.028279
  12 C :   -0.074762
  13 H :    0.036381
  14 H :    0.021619
  15 H :    0.024280
  16 S :    0.407941
  17 C :   -0.184276
  18 C :   -0.068227
  19 C :   -0.048797
  20 C :   -0.200556
  21 H :    0.021160
  22 C :   -0.037519
  23 H :    0.024261
  24 H :    0.033138
  25 C :   -0.021110
  26 H :    0.022020
  27 H :    0.028021
  28 C :   -0.065564
  29 H :    0.020323
  30 H :    0.028382
  31 H :    0.013554
  32 H :    0.026771
  33 H :    0.024423

  Mayer bond orders larger than 0.100000
B(  0-S ,  1-C ) :   1.1579 B(  0-S ,  4-C ) :   1.1559 B(  1-C ,  2-C ) :   1.5882
B(  1-C ,  4-C ) :   0.1043 B(  1-C , 32-H ) :   0.9662 B(  2-C ,  3-C ) :   1.2472
B(  2-C ,  6-C ) :   1.0342 B(  3-C ,  4-C ) :   1.5783 B(  3-C ,  5-H ) :   1.0006
B(  4-C , 20-C ) :   1.0020 B(  6-C ,  7-H ) :   0.9380 B(  6-C ,  8-H ) :   0.9461
B(  6-C ,  9-C ) :   1.0469 B(  9-C , 10-H ) :   0.9542 B(  9-C , 11-H ) :   0.9612
B(  9-C , 12-C ) :   1.0787 B( 12-C , 13-H ) :   0.9745 B( 12-C , 14-H ) :   0.9744
B( 12-C , 15-H ) :   0.9758 B( 16-S , 17-C ) :   1.1468 B( 16-S , 20-C ) :   1.1524
B( 17-C , 18-C ) :   1.6255 B( 17-C , 33-H ) :   0.9714 B( 18-C , 19-C ) :   1.2165
B( 18-C , 21-H ) :   0.9928 B( 19-C , 20-C ) :   1.6049 B( 19-C , 22-C ) :   1.0707
B( 22-C , 23-H ) :   0.9037 B( 22-C , 24-H ) :   0.9232 B( 22-C , 25-C ) :   1.0798
B( 25-C , 26-H ) :   0.9541 B( 25-C , 27-H ) :   0.9543 B( 25-C , 28-C ) :   1.0689
B( 28-C , 29-H ) :   0.9757 B( 28-C , 30-H ) :   0.9715 B( 28-C , 31-H ) :   0.9761

Dispersion correction           -0.014507897
FINAL SINGLE POINT ENERGY     -1339.873375422674

DIPOLE MOMENT
-------------
                                X             Y             Z
Electronic contribution:     12.16881       2.77496     -24.82854
Nuclear contribution   :    -12.61553      -2.77694      25.30113
                        -----------------------------------------
Total Dipole Moment    :     -0.44672      -0.00197       0.47259
                        -----------------------------------------
Magnitude (a.u.)       :      0.65031
Magnitude (Debye)      :      1.65295

Rotational constants in cm-1:     0.018685     0.008317     0.006830
Rotational constants in MHz :   560.155633   249.330850   204.756110

                             ****ORCA TERMINATED NORMALLY****
TOTAL RUN TIME: 0 days 0 hours 0 minutes 21 seconds 625 msec
