                         Program Version 4.2.1 -  RELEASE  -
|  1> ! wB97X-D3 SP def2-SVP
|  2> %pal
|  3> nprocs 24
|  4> end
|  5>
|  6> * xyz 0 1
|  7> S 	 -101.688 	 1.31713 	 -121.912
|  8> C 	 -102.458 	 1.94516 	 -120.497
|  9> C 	 -102.181 	 1.1275 	 -119.416
| 10> C 	 -101.435 	 -0.0404021 	 -119.802
| 11> C 	 -101.094 	 -0.141912 	 -121.126
| 12> H 	 -101.341 	 -0.961963 	 -119.205
| 13> C 	 -102.663 	 1.40192 	 -118.021
| 14> H 	 -102.463 	 0.487175 	 -117.436
| 15> H 	 -103.722 	 1.54962 	 -117.973
| 16> C 	 -101.989 	 2.66456 	 -117.38
| 17> H 	 -100.931 	 2.38042 	 -117.267
| 18> H 	 -102.024 	 3.62297 	 -117.869
| 19> C 	 -102.609 	 2.85524 	 -116.034
| 20> H 	 -103.563 	 3.28336 	 -116.236
| 21> H 	 -102.729 	 1.89808 	 -115.582
| 22> H 	 -102.05 	 3.60796 	 -115.372
| 23> S 	 -102.098 	 -2.19163 	 -122.609
| 24> C 	 -101.065 	 -3.45061 	 -123.152
| 25> C 	 -99.7706 	 -3.25537 	 -122.715
| 26> C 	 -99.6202 	 -2.11127 	 -121.902
| 27> C 	 -100.761 	 -1.31128 	 -121.92
| 28> H 	 -99.0301 	 -3.98795 	 -122.907
| 29> C 	 -98.3533 	 -1.72693 	 -121.127
| 30> H 	 -97.8639 	 -2.68313 	 -120.877
| 31> H 	 -98.4835 	 -1.30404 	 -120.122
| 32> C 	 -97.4107 	 -0.749507 	 -121.824
| 33> H 	 -96.5006 	 -0.583454 	 -121.247
| 34> H 	 -97.8386 	 0.216648 	 -121.859
| 35> C 	 -96.903 	 -1.22254 	 -123.21
| 36> H 	 -97.5441 	 -1.06984 	 -124.153
| 37> H 	 -96.5948 	 -2.26818 	 -123.044
| 38> H 	 -95.9024 	 -0.779747 	 -123.439
| 39> H 	 -103.012 	 2.8948 	 -120.374
| 40> H 	 -101.371 	 -4.44605 	 -123.564
| 41> *
| 42>
| 43>                          ****END OF INPUT****

CARTESIAN COORDINATES (ANGSTROEM)
---------------------------------
  S    -101.688000    1.317130  -121.912000
  C    -102.458000    1.945160  -120.497000
  C    -102.181000    1.127500  -119.416000
  C    -101.435000   -0.040402  -119.802000
  C    -101.094000   -0.141912  -121.126000
  H    -101.341000   -0.961963  -119.205000
  C    -102.663000    1.401920  -118.021000
  H    -102.463000    0.487175  -117.436000
  H    -103.722000    1.549620  -117.973000
  C    -101.989000    2.664560  -117.380000
  H    -100.931000    2.380420  -117.267000
  H    -102.024000    3.622970  -117.869000
  C    -102.609000    2.855240  -116.034000
  H    -103.563000    3.283360  -116.236000
  H    -102.729000    1.898080  -115.582000
  H    -102.050000    3.607960  -115.372000
  S    -102.098000   -2.191630  -122.609000
  C    -101.065000   -3.450610  -123.152000
  C    -99.770600   -3.255370  -122.715000
  C    -99.620200   -2.111270  -121.902000
  C    -100.761000   -1.311280  -121.920000
  H    -99.030100   -3.987950  -122.907000
  C    -98.353300   -1.726930  -121.127000
  H    -97.863900   -2.683130  -120.877000
  H    -98.483500   -1.304040  -120.122000
  C    -97.410700   -0.749507  -121.824000
  H    -96.500600   -0.583454  -121.247000
  H    -97.838600    0.216648  -121.859000
  C    -96.903000   -1.222540  -123.210000
  H    -97.544100   -1.069840  -124.153000
  H    -96.594800   -2.268180  -123.044000
  H    -95.902400   -0.779747  -123.439000
  H    -103.012000    2.894800  -120.374000
  H    -101.371000   -4.446050  -123.564000

 Total Charge           Charge          ....    0
 Multiplicity           Mult            ....    1
 Number of Electrons    NEL             ....  134
 Basis Dimension        Dim             ....  322

ORBITAL ENERGIES
----------------

  NO   OCC          E(Eh)            E(eV)
   0   2.0000     -88.966744     -2420.9082
   1   2.0000     -88.961293     -2420.7598
   2   2.0000     -10.325944      -280.9832
   3   2.0000     -10.323303      -280.9114
   4   2.0000     -10.318305      -280.7753
   5   2.0000     -10.314881      -280.6822
   6   2.0000     -10.304896      -280.4105
   7   2.0000     -10.298978      -280.2494
   8   2.0000     -10.295354      -280.1508
   9   2.0000     -10.293591      -280.1029
  10   2.0000     -10.293258      -280.0938
  11   2.0000     -10.289991      -280.0049
  12   2.0000     -10.283978      -279.8413
  13   2.0000     -10.281815      -279.7824
  14   2.0000     -10.281040      -279.7613
  15   2.0000     -10.274675      -279.5881
  16   2.0000      -8.082053      -219.9238
  17   2.0000      -8.076309      -219.7675
  18   2.0000      -6.040462      -164.3693
  19   2.0000      -6.036410      -164.2591
  20   2.0000      -6.034772      -164.2145
  21   2.0000      -6.032919      -164.1641
  22   2.0000      -6.030566      -164.1000
  23   2.0000      -6.027276      -164.0105
  24   2.0000      -1.010623       -27.5005
  25   2.0000      -0.987827       -26.8801
  26   2.0000      -0.916317       -24.9343
  27   2.0000      -0.905808       -24.6483
  28   2.0000      -0.873252       -23.7624
  29   2.0000      -0.848114       -23.0783
  30   2.0000      -0.845937       -23.0191
  31   2.0000      -0.814720       -22.1697
  32   2.0000      -0.780183       -21.2298
  33   2.0000      -0.766945       -20.8696
  34   2.0000      -0.706130       -19.2148
  35   2.0000      -0.699747       -19.0411
  36   2.0000      -0.688085       -18.7237
  37   2.0000      -0.660120       -17.9628
  38   2.0000      -0.642543       -17.4845
  39   2.0000      -0.616208       -16.7679
  40   2.0000      -0.594215       -16.1694
  41   2.0000      -0.577567       -15.7164
  42   2.0000      -0.566631       -15.4188
  43   2.0000      -0.548191       -14.9170
  44   2.0000      -0.540496       -14.7076
  45   2.0000      -0.522520       -14.2185
  46   2.0000      -0.519375       -14.1329
  47   2.0000      -0.510761       -13.8985
  48   2.0000      -0.503653       -13.7051
  49   2.0000      -0.501417       -13.6442
  50   2.0000      -0.482761       -13.1366
  51   2.0000      -0.476514       -12.9666
  52   2.0000      -0.471756       -12.8371
  53   2.0000      -0.461923       -12.5696
  54   2.0000      -0.457544       -12.4504
  55   2.0000      -0.446294       -12.1443
  56   2.0000      -0.440746       -11.9933
  57   2.0000      -0.437269       -11.8987
  58   2.0000      -0.429791       -11.6952
  59   2.0000      -0.424127       -11.5411
  60   2.0000      -0.420906       -11.4534
  61   2.0000      -0.411978       -11.2105
  62   2.0000      -0.409155       -11.1337
  63   2.0000      -0.344068        -9.3626
  64   2.0000      -0.329900        -8.9770
  65   2.0000      -0.320197        -8.7130
  66   2.0000      -0.303442        -8.2571
  67   0.0000       0.036999         1.0068
  68   0.0000       0.055671         1.5149
  69   0.0000       0.114188         3.1072
  70   0.0000       0.126100         3.4314
  71   0.0000       0.130712         3.5568

MULLIKEN ATOMIC CHARGES
-----------------------
   0 S :    0.101945
   1 C :   -0.112109
   2 C :   -0.107574
   3 C :    0.047572
   4 C :   -0.183990
   5 H :    0.023986
   6 C :    0.046961
   7 H :    0.026510
   8 H :    0.025204
   9 C :   -0.082178
  10 H :    0.030460
  11 H :    0.033038
  12 C :   -0.034698
  13 H :    0.019215
  14 H :    0.023527
  15 H :    0.045520
  16 S :    0.131865
  17 C :   -0.103079
  18 C :   -0.029038
  19 C :   -0.021609
  20 C :   -0.155996
  21 H :    0.004220
  22 C :    0.062795
  23 H :    0.017581
  24 H :    0.027417
  25 C :   -0.041411
  26 H :    0.023619
  27 H :    0.026062
  28 C :   -0.092707
  29 H :    0.066942
  30 H :    0.018228
  31 H :    0.027346
  32 H :    0.059612
  33 H :    0.074763
Sum of atomic charges:    0.0000000

LOEWDIN ATOMIC CHARGES
----------------------
   0 S :    0.410159
   1 C :   -0.202011
   2 C :   -0.073171
   3 C :   -0.065222
   4 C :   -0.203803
   5 H :    0.035042
   6 C :   -0.029672
   7 H :    0.034372
   8 H :    0.025921
   9 C :   -0.039236
  10 H :    0.024751
  11 H :    0.021956
  12 C :   -0.064275
  13 H :    0.019163
  14 H :    0.018914
  15 H :    0.033971
  16 S :    0.437842
  17 C :   -0.203633
  18 C :   -0.071580
  19 C :   -0.046891
  20 C :   -0.213023
  21 H :    0.025527
  22 C :   -0.035066
  23 H :    0.029026
  24 H :    0.035167
  25 C :   -0.038769
  26 H :    0.028197
  27 H :    0.019694
  28 C :   -0.083446
  29 H :    0.037650
  30 H :    0.023026
  31 H :    0.027619
  32 H :    0.038637
  33 H :    0.043167

  Mayer bond orders larger than 0.100000
B(  0-S ,  1-C ) :   1.1538 B(  0-S ,  4-C ) :   1.1480 B(  1-C ,  2-C ) :   1.5933
B(  1-C , 32-H ) :   0.9662 B(  2-C ,  3-C ) :   1.2598 B(  2-C ,  6-C ) :   1.0251
B(  3-C ,  4-C ) :   1.5892 B(  3-C ,  5-H ) :   0.9818 B(  4-C , 20-C ) :   1.0106
B(  6-C ,  7-H ) :   0.9400 B(  6-C ,  8-H ) :   0.9451 B(  6-C ,  9-C ) :   1.0513
B(  9-C , 10-H ) :   0.9542 B(  9-C , 11-H ) :   0.9638 B(  9-C , 12-C ) :   1.0818
B( 12-C , 13-H ) :   0.9746 B( 12-C , 14-H ) :   0.9701 B( 12-C , 15-H ) :   0.9716
B( 16-S , 17-C ) :   1.1791 B( 16-S , 20-C ) :   1.1607 B( 17-C , 18-C ) :   1.5825
B( 17-C , 20-C ) :   0.1000 B( 17-C , 33-H ) :   0.9589 B( 18-C , 19-C ) :   1.2754
B( 18-C , 21-H ) :   0.9955 B( 19-C , 20-C ) :   1.5594 B( 19-C , 22-C ) :   1.0401
B( 22-C , 23-H ) :   0.9336 B( 22-C , 24-H ) :   0.9333 B( 22-C , 25-C ) :   1.0885
B( 25-C , 26-H ) :   0.9514 B( 25-C , 27-H ) :   0.9552 B( 25-C , 28-C ) :   1.0679
B( 28-C , 29-H ) :   0.9732 B( 28-C , 30-H ) :   0.9730 B( 28-C , 31-H ) :   0.9750

Dispersion correction           -0.014157564
FINAL SINGLE POINT ENERGY     -1339.871680964846

DIPOLE MOMENT
-------------
                                X             Y             Z
Electronic contribution:    -12.25741      -6.95540     -17.11598
Nuclear contribution   :     12.39695       6.76687      17.71405
                        -----------------------------------------
Total Dipole Moment    :      0.13954      -0.18853       0.59807
                        -----------------------------------------
Magnitude (a.u.)       :      0.64242
Magnitude (Debye)      :      1.63290

Rotational constants in cm-1:     0.022575     0.007300     0.006506
Rotational constants in MHz :   676.785689   218.837822   195.043928

                             ****ORCA TERMINATED NORMALLY****
TOTAL RUN TIME: 0 days 0 hours 0 minutes 21 seconds 298 msec
