                         Program Version 4.2.1 -  RELEASE  -
|  1> ! wB97X-D3 SP def2-SVP
|  2> %pal
|  3> nprocs 24
|  4> end
|  5>
|  6> * xyz 0 1
|  7> S 	 -136.817 	 67.1226 	 -64.1955
|  8> C 	 -135.999 	 68.5639 	 -64.6606
|  9> C 	 -136.583 	 69.6821 	 -64.1266
| 10> C 	 -137.695 	 69.4329 	 -63.2705
| 11> C 	 -137.811 	 68.0395 	 -63.0977
| 12> H 	 -138.178 	 70.1252 	 -62.6764
| 13> C 	 -136.194 	 71.1563 	 -64.5217
| 14> H 	 -135.724 	 71.0984 	 -65.511
| 15> H 	 -135.517 	 71.6231 	 -63.8433
| 16> C 	 -137.255 	 72.2675 	 -64.6264
| 17> H 	 -137.844 	 72.3577 	 -63.73
| 18> H 	 -136.853 	 73.3132 	 -64.741
| 19> C 	 -138.257 	 71.9455 	 -65.7105
| 20> H 	 -138.716 	 70.9651 	 -65.5649
| 21> H 	 -139.078 	 72.6277 	 -65.7233
| 22> H 	 -137.801 	 71.9585 	 -66.6824
| 23> S 	 -140.139 	 66.4025 	 -62.9943
| 24> C 	 -141.067 	 66.5381 	 -61.4716
| 25> C 	 -140.354 	 67.0717 	 -60.4523
| 26> C 	 -139.131 	 67.6579 	 -60.8651
| 27> C 	 -138.79 	 67.3495 	 -62.2236
| 28> H 	 -140.83 	 67.2451 	 -59.5007
| 29> C 	 -138.328 	 68.6128 	 -59.9774
| 30> H 	 -138.848 	 68.7266 	 -59.0023
| 31> H 	 -138.385 	 69.5756 	 -60.3853
| 32> C 	 -136.844 	 68.1771 	 -59.7876
| 33> H 	 -136.437 	 68.9312 	 -59.1677
| 34> H 	 -136.413 	 68.0389 	 -60.7872
| 35> C 	 -136.761 	 66.8399 	 -59.0455
| 36> H 	 -137.494 	 66.7698 	 -58.2702
| 37> H 	 -135.704 	 66.7032 	 -58.6884
| 38> H 	 -136.955 	 66.0534 	 -59.705
| 39> H 	 -135.223 	 68.7228 	 -65.3173
| 40> H 	 -142.102 	 66.2576 	 -61.2998
| 41> *
| 42>
| 43>                          ****END OF INPUT****

CARTESIAN COORDINATES (ANGSTROEM)
---------------------------------
  S    -136.817000   67.122600  -64.195500
  C    -135.999000   68.563900  -64.660600
  C    -136.583000   69.682100  -64.126600
  C    -137.695000   69.432900  -63.270500
  C    -137.811000   68.039500  -63.097700
  H    -138.178000   70.125200  -62.676400
  C    -136.194000   71.156300  -64.521700
  H    -135.724000   71.098400  -65.511000
  H    -135.517000   71.623100  -63.843300
  C    -137.255000   72.267500  -64.626400
  H    -137.844000   72.357700  -63.730000
  H    -136.853000   73.313200  -64.741000
  C    -138.257000   71.945500  -65.710500
  H    -138.716000   70.965100  -65.564900
  H    -139.078000   72.627700  -65.723300
  H    -137.801000   71.958500  -66.682400
  S    -140.139000   66.402500  -62.994300
  C    -141.067000   66.538100  -61.471600
  C    -140.354000   67.071700  -60.452300
  C    -139.131000   67.657900  -60.865100
  C    -138.790000   67.349500  -62.223600
  H    -140.830000   67.245100  -59.500700
  C    -138.328000   68.612800  -59.977400
  H    -138.848000   68.726600  -59.002300
  H    -138.385000   69.575600  -60.385300
  C    -136.844000   68.177100  -59.787600
  H    -136.437000   68.931200  -59.167700
  H    -136.413000   68.038900  -60.787200
  C    -136.761000   66.839900  -59.045500
  H    -137.494000   66.769800  -58.270200
  H    -135.704000   66.703200  -58.688400
  H    -136.955000   66.053400  -59.705000
  H    -135.223000   68.722800  -65.317300
  H    -142.102000   66.257600  -61.299800

 Total Charge           Charge          ....    0
 Multiplicity           Mult            ....    1
 Number of Electrons    NEL             ....  134
 Basis Dimension        Dim             ....  322

ORBITAL ENERGIES
----------------

  NO   OCC          E(Eh)            E(eV)
   0   2.0000     -88.972429     -2421.0629
   1   2.0000     -88.968486     -2420.9556
   2   2.0000     -10.335660      -281.2476
   3   2.0000     -10.333180      -281.1801
   4   2.0000     -10.320678      -280.8399
   5   2.0000     -10.309870      -280.5458
   6   2.0000     -10.305224      -280.4194
   7   2.0000     -10.302876      -280.3555
   8   2.0000     -10.293620      -280.1036
   9   2.0000     -10.292785      -280.0809
  10   2.0000     -10.291675      -280.0507
  11   2.0000     -10.290339      -280.0144
  12   2.0000     -10.287847      -279.9466
  13   2.0000     -10.279731      -279.7257
  14   2.0000     -10.266039      -279.3531
  15   2.0000     -10.265512      -279.3388
  16   2.0000      -8.087422      -220.0699
  17   2.0000      -8.081513      -219.9092
  18   2.0000      -6.045855      -164.5161
  19   2.0000      -6.041898      -164.4084
  20   2.0000      -6.040188      -164.3619
  21   2.0000      -6.038260      -164.3094
  22   2.0000      -6.036387      -164.2584
  23   2.0000      -6.032064      -164.1408
  24   2.0000      -1.004975       -27.3468
  25   2.0000      -0.979829       -26.6625
  26   2.0000      -0.909864       -24.7587
  27   2.0000      -0.905833       -24.6490
  28   2.0000      -0.868560       -23.6347
  29   2.0000      -0.851362       -23.1667
  30   2.0000      -0.843298       -22.9473
  31   2.0000      -0.814895       -22.1744
  32   2.0000      -0.784733       -21.3537
  33   2.0000      -0.772542       -21.0219
  34   2.0000      -0.713646       -19.4193
  35   2.0000      -0.695033       -18.9128
  36   2.0000      -0.685766       -18.6607
  37   2.0000      -0.658049       -17.9064
  38   2.0000      -0.643882       -17.5209
  39   2.0000      -0.622594       -16.9416
  40   2.0000      -0.594233       -16.1699
  41   2.0000      -0.569181       -15.4882
  42   2.0000      -0.556699       -15.1486
  43   2.0000      -0.554314       -15.0837
  44   2.0000      -0.543403       -14.7868
  45   2.0000      -0.540887       -14.7183
  46   2.0000      -0.514709       -14.0059
  47   2.0000      -0.508231       -13.8297
  48   2.0000      -0.502232       -13.6664
  49   2.0000      -0.494776       -13.4635
  50   2.0000      -0.488365       -13.2891
  51   2.0000      -0.481288       -13.0965
  52   2.0000      -0.468269       -12.7422
  53   2.0000      -0.467196       -12.7130
  54   2.0000      -0.457184       -12.4406
  55   2.0000      -0.450071       -12.2471
  56   2.0000      -0.440872       -11.9967
  57   2.0000      -0.435777       -11.8581
  58   2.0000      -0.431860       -11.7515
  59   2.0000      -0.425066       -11.5666
  60   2.0000      -0.419426       -11.4132
  61   2.0000      -0.417901       -11.3717
  62   2.0000      -0.411422       -11.1954
  63   2.0000      -0.346983        -9.4419
  64   2.0000      -0.336295        -9.1510
  65   2.0000      -0.328164        -8.9298
  66   2.0000      -0.290002        -7.8914
  67   0.0000       0.026439         0.7195
  68   0.0000       0.055831         1.5193
  69   0.0000       0.104936         2.8555
  70   0.0000       0.121512         3.3065
  71   0.0000       0.126226         3.4348

MULLIKEN ATOMIC CHARGES
-----------------------
   0 S :    0.130789
   1 C :   -0.061499
   2 C :   -0.108218
   3 C :    0.081050
   4 C :   -0.193636
   5 H :   -0.012101
   6 C :    0.080840
   7 H :    0.019763
   8 H :    0.033819
   9 C :   -0.099467
  10 H :    0.014818
  11 H :    0.037798
  12 C :   -0.037679
  13 H :    0.036929
  14 H :    0.019355
  15 H :    0.020727
  16 S :    0.094700
  17 C :   -0.095265
  18 C :   -0.012408
  19 C :   -0.076958
  20 C :   -0.125749
  21 H :    0.018440
  22 C :    0.068775
  23 H :    0.014725
  24 H :    0.016699
  25 C :   -0.057539
  26 H :    0.023744
  27 H :    0.057927
  28 C :   -0.031345
  29 H :    0.016311
  30 H :    0.039206
  31 H :    0.024913
  32 H :    0.002856
  33 H :    0.057681
Sum of atomic charges:    0.0000000

LOEWDIN ATOMIC CHARGES
----------------------
   0 S :    0.429078
   1 C :   -0.201317
   2 C :   -0.055222
   3 C :   -0.050068
   4 C :   -0.190515
   5 H :    0.018567
   6 C :   -0.029328
   7 H :    0.028483
   8 H :    0.028348
   9 C :   -0.046813
  10 H :    0.016974
  11 H :    0.033547
  12 C :   -0.064612
  13 H :    0.028772
  14 H :    0.019269
  15 H :    0.019424
  16 S :    0.362931
  17 C :   -0.163711
  18 C :   -0.077846
  19 C :   -0.040993
  20 C :   -0.196602
  21 H :    0.032867
  22 C :   -0.029639
  23 H :    0.029444
  24 H :    0.020718
  25 C :   -0.028702
  26 H :    0.018189
  27 H :    0.032209
  28 C :   -0.059607
  29 H :    0.017545
  30 H :    0.032782
  31 H :    0.018543
  32 H :    0.014283
  33 H :    0.033002

  Mayer bond orders larger than 0.100000
B(  0-S ,  1-C ) :   1.1288 B(  0-S ,  4-C ) :   1.1713 B(  1-C ,  2-C ) :   1.6405
B(  1-C , 32-H ) :   0.9701 B(  2-C ,  3-C ) :   1.2482 B(  2-C ,  6-C ) :   0.9968
B(  3-C ,  4-C ) :   1.5429 B(  3-C ,  5-H ) :   1.0002 B(  4-C , 20-C ) :   1.0242
B(  6-C ,  7-H ) :   0.9492 B(  6-C ,  8-H ) :   0.9384 B(  6-C ,  9-C ) :   1.0788
B(  9-C , 10-H ) :   0.9474 B(  9-C , 11-H ) :   0.9537 B(  9-C , 12-C ) :   1.0856
B( 12-C , 13-H ) :   0.9721 B( 12-C , 14-H ) :   0.9733 B( 12-C , 15-H ) :   0.9759
B( 16-S , 17-C ) :   1.1488 B( 16-S , 20-C ) :   1.1136 B( 17-C , 18-C ) :   1.6415
B( 17-C , 33-H ) :   0.9594 B( 18-C , 19-C ) :   1.2429 B( 18-C , 21-H ) :   0.9830
B( 19-C , 20-C ) :   1.5926 B( 19-C , 22-C ) :   1.0287 B( 22-C , 23-H ) :   0.9357
B( 22-C , 24-H ) :   0.9316 B( 22-C , 25-C ) :   1.0744 B( 25-C , 26-H ) :   0.9568
B( 25-C , 27-H ) :   0.9556 B( 25-C , 28-C ) :   1.0768 B( 28-C , 29-H ) :   0.9774
B( 28-C , 30-H ) :   0.9745 B( 28-C , 31-H ) :   0.9720

Dispersion correction           -0.015386120
FINAL SINGLE POINT ENERGY     -1339.859626468303

DIPOLE MOMENT
-------------
                                X             Y             Z
Electronic contribution:     -6.55935     -19.14659      -7.32789
Nuclear contribution   :      6.46978      19.83746       7.67603
                        -----------------------------------------
Total Dipole Moment    :     -0.08957       0.69087       0.34814
                        -----------------------------------------
Magnitude (a.u.)       :      0.77880
Magnitude (Debye)      :      1.97955

Rotational constants in cm-1:     0.018749     0.008829     0.008134
Rotational constants in MHz :   562.078738   264.673118   243.844333

                             ****ORCA TERMINATED NORMALLY****
TOTAL RUN TIME: 0 days 0 hours 0 minutes 22 seconds 459 msec
