                         Program Version 4.2.1 -  RELEASE  -
|  1> ! wB97X-D3 SP def2-SVP
|  2> %pal
|  3> nprocs 24
|  4> end
|  5>
|  6> * xyz 0 1
|  7> S 	 -89.4309 	 -7.65435 	 -113.262
|  8> C 	 -90.7381 	 -8.54153 	 -113.951
|  9> C 	 -91.5996 	 -7.74598 	 -114.675
| 10> C 	 -91.0352 	 -6.45467 	 -114.886
| 11> C 	 -89.8288 	 -6.24995 	 -114.267
| 12> H 	 -91.3482 	 -5.7859 	 -115.665
| 13> C 	 -92.9466 	 -8.2103 	 -115.167
| 14> H 	 -92.9972 	 -9.3387 	 -115.323
| 15> H 	 -92.97 	 -7.93415 	 -116.178
| 16> C 	 -94.1321 	 -7.56255 	 -114.418
| 17> H 	 -94.1108 	 -6.52762 	 -114.471
| 18> H 	 -95.0124 	 -7.90937 	 -114.896
| 19> C 	 -94.0807 	 -7.86721 	 -112.864
| 20> H 	 -95.0011 	 -7.70783 	 -112.297
| 21> H 	 -93.8475 	 -8.9666 	 -112.664
| 22> H 	 -93.3916 	 -7.19861 	 -112.549
| 23> S 	 -87.415 	 -5.28104 	 -115.303
| 24> C 	 -87.0624 	 -3.60299 	 -115.205
| 25> C 	 -88.2147 	 -2.92801 	 -114.85
| 26> C 	 -89.276 	 -3.73839 	 -114.531
| 27> C 	 -88.9604 	 -5.06479 	 -114.583
| 28> H 	 -88.2225 	 -1.85565 	 -115.1
| 29> C 	 -90.5694 	 -3.14006 	 -114.215
| 30> H 	 -91.439 	 -3.37996 	 -114.91
| 31> H 	 -90.5015 	 -2.08724 	 -114.218
| 32> C 	 -91.0844 	 -3.40127 	 -112.785
| 33> H 	 -91.3194 	 -4.52674 	 -112.664
| 34> H 	 -92.0773 	 -2.89968 	 -112.569
| 35> C 	 -90.1717 	 -2.94937 	 -111.6
| 36> H 	 -90.6473 	 -2.98418 	 -110.63
| 37> H 	 -89.9715 	 -1.87223 	 -111.835
| 38> H 	 -89.1844 	 -3.50694 	 -111.557
| 39> H 	 -90.8805 	 -9.56349 	 -113.826
| 40> H 	 -86.2144 	 -3.235 	 -115.66
| 41> *
| 42>
| 43>                          ****END OF INPUT****

CARTESIAN COORDINATES (ANGSTROEM)
---------------------------------
  S    -89.430900   -7.654350  -113.262000
  C    -90.738100   -8.541530  -113.951000
  C    -91.599600   -7.745980  -114.675000
  C    -91.035200   -6.454670  -114.886000
  C    -89.828800   -6.249950  -114.267000
  H    -91.348200   -5.785900  -115.665000
  C    -92.946600   -8.210300  -115.167000
  H    -92.997200   -9.338700  -115.323000
  H    -92.970000   -7.934150  -116.178000
  C    -94.132100   -7.562550  -114.418000
  H    -94.110800   -6.527620  -114.471000
  H    -95.012400   -7.909370  -114.896000
  C    -94.080700   -7.867210  -112.864000
  H    -95.001100   -7.707830  -112.297000
  H    -93.847500   -8.966600  -112.664000
  H    -93.391600   -7.198610  -112.549000
  S    -87.415000   -5.281040  -115.303000
  C    -87.062400   -3.602990  -115.205000
  C    -88.214700   -2.928010  -114.850000
  C    -89.276000   -3.738390  -114.531000
  C    -88.960400   -5.064790  -114.583000
  H    -88.222500   -1.855650  -115.100000
  C    -90.569400   -3.140060  -114.215000
  H    -91.439000   -3.379960  -114.910000
  H    -90.501500   -2.087240  -114.218000
  C    -91.084400   -3.401270  -112.785000
  H    -91.319400   -4.526740  -112.664000
  H    -92.077300   -2.899680  -112.569000
  C    -90.171700   -2.949370  -111.600000
  H    -90.647300   -2.984180  -110.630000
  H    -89.971500   -1.872230  -111.835000
  H    -89.184400   -3.506940  -111.557000
  H    -90.880500   -9.563490  -113.826000
  H    -86.214400   -3.235000  -115.660000

 Total Charge           Charge          ....    0
 Multiplicity           Mult            ....    1
 Number of Electrons    NEL             ....  134
 Basis Dimension        Dim             ....  322

ORBITAL ENERGIES
----------------

  NO   OCC          E(Eh)            E(eV)
   0   2.0000     -88.966845     -2420.9109
   1   2.0000     -88.965329     -2420.8697
   2   2.0000     -10.330726      -281.1133
   3   2.0000     -10.324387      -280.9409
   4   2.0000     -10.308737      -280.5150
   5   2.0000     -10.306176      -280.4453
   6   2.0000     -10.297943      -280.2213
   7   2.0000     -10.293274      -280.0942
   8   2.0000     -10.292652      -280.0773
   9   2.0000     -10.291119      -280.0356
  10   2.0000     -10.290762      -280.0259
  11   2.0000     -10.289053      -279.9794
  12   2.0000     -10.289034      -279.9788
  13   2.0000     -10.283363      -279.8245
  14   2.0000     -10.278563      -279.6939
  15   2.0000     -10.273291      -279.5505
  16   2.0000      -8.081529      -219.9096
  17   2.0000      -8.081291      -219.9031
  18   2.0000      -6.040081      -164.3590
  19   2.0000      -6.039506      -164.3433
  20   2.0000      -6.036042      -164.2491
  21   2.0000      -6.035576      -164.2364
  22   2.0000      -6.032342      -164.1484
  23   2.0000      -6.032247      -164.1458
  24   2.0000      -1.016186       -27.6518
  25   2.0000      -0.993035       -27.0219
  26   2.0000      -0.910602       -24.7787
  27   2.0000      -0.909890       -24.7594
  28   2.0000      -0.867716       -23.6118
  29   2.0000      -0.848260       -23.0823
  30   2.0000      -0.844758       -22.9870
  31   2.0000      -0.815336       -22.1864
  32   2.0000      -0.783435       -21.3184
  33   2.0000      -0.776688       -21.1348
  34   2.0000      -0.708925       -19.2908
  35   2.0000      -0.701008       -19.0754
  36   2.0000      -0.682106       -18.5610
  37   2.0000      -0.667220       -18.1560
  38   2.0000      -0.644947       -17.5499
  39   2.0000      -0.620994       -16.8981
  40   2.0000      -0.596982       -16.2447
  41   2.0000      -0.574854       -15.6426
  42   2.0000      -0.555787       -15.1237
  43   2.0000      -0.549296       -14.9471
  44   2.0000      -0.546685       -14.8760
  45   2.0000      -0.542410       -14.7597
  46   2.0000      -0.512379       -13.9425
  47   2.0000      -0.507471       -13.8090
  48   2.0000      -0.500156       -13.6099
  49   2.0000      -0.493961       -13.4414
  50   2.0000      -0.488912       -13.3040
  51   2.0000      -0.475969       -12.9518
  52   2.0000      -0.471473       -12.8294
  53   2.0000      -0.468360       -12.7447
  54   2.0000      -0.461095       -12.5470
  55   2.0000      -0.446134       -12.1399
  56   2.0000      -0.441029       -12.0010
  57   2.0000      -0.439192       -11.9510
  58   2.0000      -0.433376       -11.7928
  59   2.0000      -0.427967       -11.6456
  60   2.0000      -0.415673       -11.3110
  61   2.0000      -0.413010       -11.2386
  62   2.0000      -0.401776       -10.9329
  63   2.0000      -0.343430        -9.3452
  64   2.0000      -0.333372        -9.0715
  65   2.0000      -0.325766        -8.8645
  66   2.0000      -0.297557        -8.0969
  67   0.0000       0.027311         0.7432
  68   0.0000       0.070005         1.9049
  69   0.0000       0.113831         3.0975
  70   0.0000       0.117186         3.1888
  71   0.0000       0.131483         3.5778

MULLIKEN ATOMIC CHARGES
-----------------------
   0 S :    0.119162
   1 C :   -0.100391
   2 C :   -0.099632
   3 C :    0.032176
   4 C :   -0.163864
   5 H :    0.015896
   6 C :    0.068604
   7 H :    0.031742
   8 H :    0.007222
   9 C :   -0.021728
  10 H :    0.015480
  11 H :    0.022854
  12 C :   -0.058256
  13 H :    0.032880
  14 H :    0.037864
  15 H :    0.030007
  16 S :    0.121166
  17 C :   -0.080765
  18 C :   -0.051384
  19 C :    0.003493
  20 C :   -0.167472
  21 H :    0.031978
  22 C :    0.090252
  23 H :    0.046286
  24 H :   -0.001122
  25 C :   -0.149213
  26 H :    0.051377
  27 H :    0.032576
  28 C :   -0.071951
  29 H :    0.040416
  30 H :    0.023724
  31 H :    0.054651
  32 H :    0.022937
  33 H :    0.033036
Sum of atomic charges:   -0.0000000

LOEWDIN ATOMIC CHARGES
----------------------
   0 S :    0.403608
   1 C :   -0.187416
   2 C :   -0.064067
   3 C :   -0.059781
   4 C :   -0.188342
   5 H :    0.030515
   6 C :   -0.033517
   7 H :    0.038965
   8 H :    0.022887
   9 C :   -0.022026
  10 H :    0.015888
  11 H :    0.018355
  12 C :   -0.059195
  13 H :    0.025923
  14 H :    0.031491
  15 H :    0.011585
  16 S :    0.444990
  17 C :   -0.182633
  18 C :   -0.072998
  19 C :   -0.070219
  20 C :   -0.203399
  21 H :    0.038486
  22 C :   -0.034999
  23 H :    0.041473
  24 H :    0.022842
  25 C :   -0.052711
  26 H :    0.025132
  27 H :    0.026375
  28 C :   -0.075286
  29 H :    0.024638
  30 H :    0.024371
  31 H :    0.032504
  32 H :    0.014617
  33 H :    0.011947

  Mayer bond orders larger than 0.100000
B(  0-S ,  1-C ) :   1.1442 B(  0-S ,  4-C ) :   1.1394 B(  1-C ,  2-C ) :   1.6112
B(  1-C , 32-H ) :   0.9756 B(  2-C ,  3-C ) :   1.2367 B(  2-C ,  6-C ) :   1.0242
B(  3-C ,  4-C ) :   1.5879 B(  3-C ,  5-H ) :   0.9884 B(  4-C , 20-C ) :   1.0226
B(  6-C ,  7-H ) :   0.9438 B(  6-C ,  8-H ) :   0.9291 B(  6-C ,  9-C ) :   1.0700
B(  9-C , 10-H ) :   0.9609 B(  9-C , 11-H ) :   0.9586 B(  9-C , 12-C ) :   1.0560
B( 12-C , 13-H ) :   0.9771 B( 12-C , 14-H ) :   0.9791 B( 12-C , 15-H ) :   0.9797
B( 16-S , 17-C ) :   1.1920 B( 16-S , 20-C ) :   1.1784 B( 17-C , 18-C ) :   1.5448
B( 17-C , 20-C ) :   0.1056 B( 17-C , 33-H ) :   0.9789 B( 18-C , 19-C ) :   1.3065
B( 18-C , 21-H ) :   0.9834 B( 19-C , 20-C ) :   1.5383 B( 19-C , 22-C ) :   1.0547
B( 22-C , 23-H ) :   0.9268 B( 22-C , 24-H ) :   0.9272 B( 22-C , 25-C ) :   1.0652
B( 25-C , 26-H ) :   0.9518 B( 25-C , 27-H ) :   0.9573 B( 25-C , 28-C ) :   1.0643
B( 28-C , 29-H ) :   0.9766 B( 28-C , 30-H ) :   0.9750 B( 28-C , 31-H ) :   0.9732

Dispersion correction           -0.015929340
FINAL SINGLE POINT ENERGY     -1339.854443875602

DIPOLE MOMENT
-------------
                                X             Y             Z
Electronic contribution:     23.88600      -5.88510      -7.57705
Nuclear contribution   :    -24.41869       6.09218       7.18739
                        -----------------------------------------
Total Dipole Moment    :     -0.53269       0.20708      -0.38966
                        -----------------------------------------
Magnitude (a.u.)       :      0.69171
Magnitude (Debye)      :      1.75820

Rotational constants in cm-1:     0.020975     0.009282     0.007710
Rotational constants in MHz :   628.814446   278.272896   231.136516

                             ****ORCA TERMINATED NORMALLY****
TOTAL RUN TIME: 0 days 0 hours 0 minutes 21 seconds 915 msec
