                         Program Version 4.2.1 -  RELEASE  -
|  1> ! wB97X-D3 SP def2-SVP
|  2> %pal
|  3> nprocs 24
|  4> end
|  5>
|  6> * xyz 0 1
|  7> S 	 -109.487 	 56.2998 	 -78.7797
|  8> C 	 -109.931 	 56.056 	 -80.4299
|  9> C 	 -110.534 	 54.8163 	 -80.6928
| 10> C 	 -110.413 	 54.0584 	 -79.5134
| 11> C 	 -109.695 	 54.595 	 -78.4505
| 12> H 	 -110.704 	 52.9825 	 -79.5149
| 13> C 	 -110.989 	 54.3485 	 -82.0406
| 14> H 	 -110.964 	 55.0827 	 -82.8447
| 15> H 	 -112.068 	 54.0121 	 -82.0317
| 16> C 	 -110.102 	 53.205 	 -82.4842
| 17> H 	 -109.057 	 53.5065 	 -82.573
| 18> H 	 -110.184 	 52.3725 	 -81.7464
| 19> C 	 -110.582 	 52.7264 	 -83.9399
| 20> H 	 -110.071 	 51.928 	 -84.4072
| 21> H 	 -111.588 	 52.4412 	 -83.9519
| 22> H 	 -110.628 	 53.5769 	 -84.6535
| 23> S 	 -109.554 	 52.1268 	 -77.1222
| 24> C 	 -108.343 	 51.8912 	 -75.9267
| 25> C 	 -107.616 	 53.082 	 -75.701
| 26> C 	 -108.04 	 54.1805 	 -76.4605
| 27> C 	 -109.072 	 53.8142 	 -77.3786
| 28> H 	 -106.785 	 53.0395 	 -75.0097
| 29> C 	 -107.328 	 55.5291 	 -76.476
| 30> H 	 -107.178 	 55.8874 	 -77.4868
| 31> H 	 -106.274 	 55.3334 	 -76.0777
| 32> C 	 -107.845 	 56.5264 	 -75.459
| 33> H 	 -108.807 	 56.8562 	 -75.7503
| 34> H 	 -107.283 	 57.4678 	 -75.4604
| 35> C 	 -107.71 	 56.0726 	 -73.9771
| 36> H 	 -106.717 	 55.9957 	 -73.6004
| 37> H 	 -108.145 	 55.1241 	 -73.8993
| 38> H 	 -108.284 	 56.7712 	 -73.33
| 39> H 	 -109.838 	 56.7622 	 -81.2835
| 40> H 	 -108.141 	 50.9278 	 -75.4816
| 41> *
| 42>
| 43>                          ****END OF INPUT****

CARTESIAN COORDINATES (ANGSTROEM)
---------------------------------
  S    -109.487000   56.299800  -78.779700
  C    -109.931000   56.056000  -80.429900
  C    -110.534000   54.816300  -80.692800
  C    -110.413000   54.058400  -79.513400
  C    -109.695000   54.595000  -78.450500
  H    -110.704000   52.982500  -79.514900
  C    -110.989000   54.348500  -82.040600
  H    -110.964000   55.082700  -82.844700
  H    -112.068000   54.012100  -82.031700
  C    -110.102000   53.205000  -82.484200
  H    -109.057000   53.506500  -82.573000
  H    -110.184000   52.372500  -81.746400
  C    -110.582000   52.726400  -83.939900
  H    -110.071000   51.928000  -84.407200
  H    -111.588000   52.441200  -83.951900
  H    -110.628000   53.576900  -84.653500
  S    -109.554000   52.126800  -77.122200
  C    -108.343000   51.891200  -75.926700
  C    -107.616000   53.082000  -75.701000
  C    -108.040000   54.180500  -76.460500
  C    -109.072000   53.814200  -77.378600
  H    -106.785000   53.039500  -75.009700
  C    -107.328000   55.529100  -76.476000
  H    -107.178000   55.887400  -77.486800
  H    -106.274000   55.333400  -76.077700
  C    -107.845000   56.526400  -75.459000
  H    -108.807000   56.856200  -75.750300
  H    -107.283000   57.467800  -75.460400
  C    -107.710000   56.072600  -73.977100
  H    -106.717000   55.995700  -73.600400
  H    -108.145000   55.124100  -73.899300
  H    -108.284000   56.771200  -73.330000
  H    -109.838000   56.762200  -81.283500
  H    -108.141000   50.927800  -75.481600

 Total Charge           Charge          ....    0
 Multiplicity           Mult            ....    1
 Number of Electrons    NEL             ....  134
 Basis Dimension        Dim             ....  322

ORBITAL ENERGIES
----------------

  NO   OCC          E(Eh)            E(eV)
   0   2.0000     -88.973012     -2421.0788
   1   2.0000     -88.970792     -2421.0183
   2   2.0000     -10.336162      -281.2613
   3   2.0000     -10.333041      -281.1763
   4   2.0000     -10.319005      -280.7944
   5   2.0000     -10.314324      -280.6670
   6   2.0000     -10.306807      -280.4625
   7   2.0000     -10.301691      -280.3233
   8   2.0000     -10.299030      -280.2508
   9   2.0000     -10.296502      -280.1821
  10   2.0000     -10.294494      -280.1274
  11   2.0000     -10.294178      -280.1188
  12   2.0000     -10.293408      -280.0979
  13   2.0000     -10.280054      -279.7345
  14   2.0000     -10.275428      -279.6086
  15   2.0000     -10.270269      -279.4682
  16   2.0000      -8.087142      -220.0623
  17   2.0000      -8.085170      -220.0086
  18   2.0000      -6.045741      -164.5130
  19   2.0000      -6.043583      -164.4543
  20   2.0000      -6.041791      -164.4055
  21   2.0000      -6.039652      -164.3473
  22   2.0000      -6.037785      -164.2965
  23   2.0000      -6.036167      -164.2524
  24   2.0000      -1.008510       -27.4430
  25   2.0000      -0.986827       -26.8529
  26   2.0000      -0.916593       -24.9418
  27   2.0000      -0.909458       -24.7476
  28   2.0000      -0.865664       -23.5559
  29   2.0000      -0.852087       -23.1865
  30   2.0000      -0.844640       -22.9838
  31   2.0000      -0.808085       -21.9891
  32   2.0000      -0.785108       -21.3639
  33   2.0000      -0.774381       -21.0720
  34   2.0000      -0.712305       -19.3828
  35   2.0000      -0.700926       -19.0732
  36   2.0000      -0.689183       -18.7536
  37   2.0000      -0.669530       -18.2188
  38   2.0000      -0.626644       -17.0518
  39   2.0000      -0.625022       -17.0077
  40   2.0000      -0.594702       -16.1827
  41   2.0000      -0.571259       -15.5448
  42   2.0000      -0.561622       -15.2825
  43   2.0000      -0.553168       -15.0525
  44   2.0000      -0.549819       -14.9613
  45   2.0000      -0.523068       -14.2334
  46   2.0000      -0.518326       -14.1044
  47   2.0000      -0.505370       -13.7518
  48   2.0000      -0.502276       -13.6676
  49   2.0000      -0.489920       -13.3314
  50   2.0000      -0.486207       -13.2304
  51   2.0000      -0.484961       -13.1965
  52   2.0000      -0.474934       -12.9236
  53   2.0000      -0.466388       -12.6911
  54   2.0000      -0.458588       -12.4788
  55   2.0000      -0.448088       -12.1931
  56   2.0000      -0.447066       -12.1653
  57   2.0000      -0.443414       -12.0659
  58   2.0000      -0.436793       -11.8857
  59   2.0000      -0.428193       -11.6517
  60   2.0000      -0.420063       -11.4305
  61   2.0000      -0.414895       -11.2899
  62   2.0000      -0.407074       -11.0770
  63   2.0000      -0.359727        -9.7887
  64   2.0000      -0.336759        -9.1637
  65   2.0000      -0.331604        -9.0234
  66   2.0000      -0.272678        -7.4199
  67   0.0000       0.012554         0.3416
  68   0.0000       0.083343         2.2679
  69   0.0000       0.109687         2.9847
  70   0.0000       0.114873         3.1259
  71   0.0000       0.126839         3.4515

MULLIKEN ATOMIC CHARGES
-----------------------
   0 S :    0.121499
   1 C :   -0.133168
   2 C :   -0.064366
   3 C :   -0.037354
   4 C :   -0.107503
   5 H :    0.023443
   6 C :    0.055770
   7 H :    0.015526
   8 H :    0.044488
   9 C :   -0.103216
  10 H :    0.044398
  11 H :    0.043745
  12 C :   -0.023143
  13 H :    0.030846
  14 H :    0.005540
  15 H :    0.019593
  16 S :    0.105349
  17 C :   -0.098847
  18 C :   -0.035131
  19 C :   -0.051574
  20 C :   -0.122673
  21 H :    0.018344
  22 C :    0.023297
  23 H :    0.044982
  24 H :    0.022522
  25 C :   -0.034712
  26 H :    0.010106
  27 H :    0.025684
  28 C :   -0.044226
  29 H :    0.025785
  30 H :    0.023895
  31 H :    0.038097
  32 H :    0.052374
  33 H :    0.060632
Sum of atomic charges:   -0.0000000

LOEWDIN ATOMIC CHARGES
----------------------
   0 S :    0.433862
   1 C :   -0.212665
   2 C :   -0.062466
   3 C :   -0.074372
   4 C :   -0.192447
   5 H :    0.025240
   6 C :   -0.034872
   7 H :    0.028385
   8 H :    0.040918
   9 C :   -0.031717
  10 H :    0.027768
  11 H :    0.026660
  12 C :   -0.068232
  13 H :    0.020259
  14 H :    0.015994
  15 H :    0.027283
  16 S :    0.422514
  17 C :   -0.198757
  18 C :   -0.071188
  19 C :   -0.060177
  20 C :   -0.182049
  21 H :    0.030660
  22 C :   -0.042941
  23 H :    0.021664
  24 H :    0.037324
  25 C :   -0.038884
  26 H :    0.010782
  27 H :    0.026713
  28 C :   -0.058265
  29 H :    0.020328
  30 H :    0.015879
  31 H :    0.033546
  32 H :    0.033679
  33 H :    0.029575

  Mayer bond orders larger than 0.100000
B(  0-S ,  1-C ) :   1.1512 B(  0-S ,  4-C ) :   1.1337 B(  1-C ,  2-C ) :   1.5906
B(  1-C , 32-H ) :   0.9558 B(  2-C ,  3-C ) :   1.2886 B(  2-C ,  6-C ) :   1.0343
B(  3-C ,  4-C ) :   1.5304 B(  3-C ,  5-H ) :   0.9737 B(  4-C , 20-C ) :   1.1102
B(  6-C ,  7-H ) :   0.9458 B(  6-C ,  8-H ) :   0.9341 B(  6-C ,  9-C ) :   1.0488
B(  9-C , 10-H ) :   0.9592 B(  9-C , 11-H ) :   0.9586 B(  9-C , 12-C ) :   1.0684
B( 12-C , 13-H ) :   0.9777 B( 12-C , 14-H ) :   0.9726 B( 12-C , 15-H ) :   0.9735
B( 16-S , 17-C ) :   1.1737 B( 16-S , 20-C ) :   1.1563 B( 17-C , 18-C ) :   1.5562
B( 17-C , 20-C ) :   0.1037 B( 17-C , 33-H ) :   0.9698 B( 18-C , 19-C ) :   1.2943
B( 18-C , 21-H ) :   0.9904 B( 19-C , 20-C ) :   1.5033 B( 19-C , 22-C ) :   1.0267
B( 22-C , 23-H ) :   0.9366 B( 22-C , 24-H ) :   0.9367 B( 22-C , 25-C ) :   1.0670
B( 25-C , 26-H ) :   0.9550 B( 25-C , 27-H ) :   0.9541 B( 25-C , 28-C ) :   1.0722
B( 28-C , 29-H ) :   0.9754 B( 28-C , 30-H ) :   0.9759 B( 28-C , 31-H ) :   0.9725

Dispersion correction           -0.014225589
FINAL SINGLE POINT ENERGY     -1339.869470281640

DIPOLE MOMENT
-------------
                                X             Y             Z
Electronic contribution:     -3.20462      -2.26129       7.47268
Nuclear contribution   :      3.42566       2.13435      -7.76634
                        -----------------------------------------
Total Dipole Moment    :      0.22104      -0.12693      -0.29366
                        -----------------------------------------
Magnitude (a.u.)       :      0.38885
Magnitude (Debye)      :      0.98838

Rotational constants in cm-1:     0.024013     0.007853     0.006265
Rotational constants in MHz :   719.894529   235.439846   187.819926

                             ****ORCA TERMINATED NORMALLY****
TOTAL RUN TIME: 0 days 0 hours 0 minutes 20 seconds 428 msec
