                         Program Version 4.2.1 -  RELEASE  -
|  1> ! wB97X-D3 SP def2-SVP
|  2> %pal
|  3> nprocs 24
|  4> end
|  5>
|  6> * xyz 0 1
|  7> S 	 44.1425 	 -29.312 	 -122.019
|  8> C 	 43.2603 	 -29.8477 	 -123.358
|  9> C 	 42.8631 	 -31.1952 	 -123.078
| 10> C 	 43.1941 	 -31.6298 	 -121.788
| 11> C 	 43.7137 	 -30.644 	 -121.015
| 12> H 	 42.9489 	 -32.5384 	 -121.48
| 13> C 	 42.3518 	 -32.1627 	 -124.126
| 14> H 	 42.8182 	 -31.7134 	 -124.979
| 15> H 	 41.3044 	 -32.0195 	 -124.154
| 16> C 	 42.7148 	 -33.63 	 -124.015
| 17> H 	 42.2345 	 -34.1372 	 -123.098
| 18> H 	 42.2447 	 -33.948 	 -124.967
| 19> C 	 44.1891 	 -33.9488 	 -123.944
| 20> H 	 44.7008 	 -33.1013 	 -123.498
| 21> H 	 44.3646 	 -34.9077 	 -123.401
| 22> H 	 44.5739 	 -34.0027 	 -124.938
| 23> S 	 45.271 	 -29.696 	 -119.002
| 24> C 	 45.2967 	 -30.4625 	 -117.488
| 25> C 	 44.6846 	 -31.6973 	 -117.479
| 26> C 	 43.8603 	 -31.8364 	 -118.677
| 27> C 	 44.0948 	 -30.815 	 -119.636
| 28> H 	 44.6899 	 -32.376 	 -116.645
| 29> C 	 42.8531 	 -32.9865 	 -118.776
| 30> H 	 43.2981 	 -33.7623 	 -119.449
| 31> H 	 42.0314 	 -32.6305 	 -119.336
| 32> C 	 42.4857 	 -33.703 	 -117.479
| 33> H 	 42.0312 	 -32.9807 	 -116.798
| 34> H 	 43.3608 	 -34.1824 	 -117.05
| 35> C 	 41.4136 	 -34.8592 	 -117.704
| 36> H 	 40.5301 	 -34.5366 	 -118.295
| 37> H 	 41.0815 	 -35.1489 	 -116.721
| 38> H 	 41.8565 	 -35.6926 	 -118.216
| 39> H 	 43.3037 	 -29.5467 	 -124.435
| 40> H 	 45.9423 	 -30.2525 	 -116.699
| 41> *
| 42>
| 43>                          ****END OF INPUT****

CARTESIAN COORDINATES (ANGSTROEM)
---------------------------------
  S     44.142500  -29.312000  -122.019000
  C     43.260300  -29.847700  -123.358000
  C     42.863100  -31.195200  -123.078000
  C     43.194100  -31.629800  -121.788000
  C     43.713700  -30.644000  -121.015000
  H     42.948900  -32.538400  -121.480000
  C     42.351800  -32.162700  -124.126000
  H     42.818200  -31.713400  -124.979000
  H     41.304400  -32.019500  -124.154000
  C     42.714800  -33.630000  -124.015000
  H     42.234500  -34.137200  -123.098000
  H     42.244700  -33.948000  -124.967000
  C     44.189100  -33.948800  -123.944000
  H     44.700800  -33.101300  -123.498000
  H     44.364600  -34.907700  -123.401000
  H     44.573900  -34.002700  -124.938000
  S     45.271000  -29.696000  -119.002000
  C     45.296700  -30.462500  -117.488000
  C     44.684600  -31.697300  -117.479000
  C     43.860300  -31.836400  -118.677000
  C     44.094800  -30.815000  -119.636000
  H     44.689900  -32.376000  -116.645000
  C     42.853100  -32.986500  -118.776000
  H     43.298100  -33.762300  -119.449000
  H     42.031400  -32.630500  -119.336000
  C     42.485700  -33.703000  -117.479000
  H     42.031200  -32.980700  -116.798000
  H     43.360800  -34.182400  -117.050000
  C     41.413600  -34.859200  -117.704000
  H     40.530100  -34.536600  -118.295000
  H     41.081500  -35.148900  -116.721000
  H     41.856500  -35.692600  -118.216000
  H     43.303700  -29.546700  -124.435000
  H     45.942300  -30.252500  -116.699000

 Total Charge           Charge          ....    0
 Multiplicity           Mult            ....    1
 Number of Electrons    NEL             ....  134
 Basis Dimension        Dim             ....  322

ORBITAL ENERGIES
----------------

  NO   OCC          E(Eh)            E(eV)
   0   2.0000     -88.967904     -2420.9398
   1   2.0000     -88.965174     -2420.8654
   2   2.0000     -10.327979      -281.0386
   3   2.0000     -10.325147      -280.9615
   4   2.0000     -10.312023      -280.6044
   5   2.0000     -10.310270      -280.5567
   6   2.0000     -10.308676      -280.5133
   7   2.0000     -10.294177      -280.1188
   8   2.0000     -10.294100      -280.1167
   9   2.0000     -10.293874      -280.1105
  10   2.0000     -10.293393      -280.0975
  11   2.0000     -10.293076      -280.0888
  12   2.0000     -10.283524      -279.8289
  13   2.0000     -10.282675      -279.8058
  14   2.0000     -10.274374      -279.5799
  15   2.0000     -10.274282      -279.5774
  16   2.0000      -8.083536      -219.9642
  17   2.0000      -8.081085      -219.8975
  18   2.0000      -6.042039      -164.4122
  19   2.0000      -6.039589      -164.3456
  20   2.0000      -6.037901      -164.2996
  21   2.0000      -6.035453      -164.2330
  22   2.0000      -6.034257      -164.2005
  23   2.0000      -6.031783      -164.1332
  24   2.0000      -1.016373       -27.6569
  25   2.0000      -0.990805       -26.9612
  26   2.0000      -0.918957       -25.0061
  27   2.0000      -0.909154       -24.7393
  28   2.0000      -0.875823       -23.8324
  29   2.0000      -0.854597       -23.2548
  30   2.0000      -0.844009       -22.9667
  31   2.0000      -0.820863       -22.3368
  32   2.0000      -0.786132       -21.3917
  33   2.0000      -0.772313       -21.0157
  34   2.0000      -0.714125       -19.4323
  35   2.0000      -0.703870       -19.1533
  36   2.0000      -0.689875       -18.7725
  37   2.0000      -0.653531       -17.7835
  38   2.0000      -0.640718       -17.4348
  39   2.0000      -0.630201       -17.1486
  40   2.0000      -0.597005       -16.2453
  41   2.0000      -0.573671       -15.6104
  42   2.0000      -0.568921       -15.4811
  43   2.0000      -0.564587       -15.3632
  44   2.0000      -0.539504       -14.6807
  45   2.0000      -0.529189       -14.4000
  46   2.0000      -0.520693       -14.1688
  47   2.0000      -0.516497       -14.0546
  48   2.0000      -0.509040       -13.8517
  49   2.0000      -0.498399       -13.5621
  50   2.0000      -0.489426       -13.3180
  51   2.0000      -0.486318       -13.2334
  52   2.0000      -0.472223       -12.8498
  53   2.0000      -0.467414       -12.7190
  54   2.0000      -0.461503       -12.5581
  55   2.0000      -0.457167       -12.4402
  56   2.0000      -0.444235       -12.0883
  57   2.0000      -0.438926       -11.9438
  58   2.0000      -0.436011       -11.8645
  59   2.0000      -0.428330       -11.6555
  60   2.0000      -0.422971       -11.5096
  61   2.0000      -0.412403       -11.2221
  62   2.0000      -0.404372       -11.0035
  63   2.0000      -0.364820        -9.9272
  64   2.0000      -0.332783        -9.0555
  65   2.0000      -0.322755        -8.7826
  66   2.0000      -0.276169        -7.5149
  67   0.0000       0.018148         0.4938
  68   0.0000       0.089625         2.4388
  69   0.0000       0.098670         2.6849
  70   0.0000       0.123828         3.3695
  71   0.0000       0.129711         3.5296

MULLIKEN ATOMIC CHARGES
-----------------------
   0 S :    0.119226
   1 C :   -0.111570
   2 C :   -0.186854
   3 C :    0.043995
   4 C :   -0.063848
   5 H :   -0.083724
   6 C :    0.111011
   7 H :    0.004293
   8 H :    0.037282
   9 C :   -0.122135
  10 H :    0.045367
  11 H :    0.040975
  12 C :   -0.039140
  13 H :    0.048004
  14 H :    0.046154
  15 H :    0.022867
  16 S :    0.102682
  17 C :   -0.033043
  18 C :   -0.053317
  19 C :   -0.086199
  20 C :   -0.122564
  21 H :    0.020868
  22 C :    0.037564
  23 H :    0.043450
  24 H :    0.025801
  25 C :   -0.093972
  26 H :    0.041766
  27 H :    0.041886
  28 C :   -0.037440
  29 H :    0.037069
  30 H :    0.032371
  31 H :    0.030275
  32 H :    0.068131
  33 H :    0.032768
Sum of atomic charges:   -0.0000000

LOEWDIN ATOMIC CHARGES
----------------------
   0 S :    0.444884
   1 C :   -0.248244
   2 C :   -0.059297
   3 C :   -0.060698
   4 C :   -0.193971
   5 H :    0.002128
   6 C :   -0.034081
   7 H :    0.026881
   8 H :    0.031893
   9 C :   -0.051580
  10 H :    0.029938
  11 H :    0.033909
  12 C :   -0.068873
  13 H :    0.030022
  14 H :    0.034324
  15 H :    0.023035
  16 S :    0.427805
  17 C :   -0.190563
  18 C :   -0.068711
  19 C :   -0.048193
  20 C :   -0.199538
  21 H :    0.029669
  22 C :   -0.041126
  23 H :    0.035781
  24 H :    0.024691
  25 C :   -0.037209
  26 H :    0.026429
  27 H :    0.024684
  28 C :   -0.058498
  29 H :    0.028272
  30 H :    0.024830
  31 H :    0.020593
  32 H :    0.042649
  33 H :    0.018164

  Mayer bond orders larger than 0.100000
B(  0-S ,  1-C ) :   1.1560 B(  0-S ,  4-C ) :   1.1727 B(  1-C ,  2-C ) :   1.5461
B(  1-C ,  4-C ) :   0.1001 B(  1-C , 32-H ) :   0.9602 B(  2-C ,  3-C ) :   1.3207
B(  2-C ,  6-C ) :   0.9932 B(  3-C ,  4-C ) :   1.4753 B(  3-C ,  5-H ) :   1.0148
B(  4-C , 20-C ) :   1.1141 B(  6-C ,  7-H ) :   0.9370 B(  6-C ,  8-H ) :   0.9253
B(  6-C ,  9-C ) :   1.0935 B(  9-C , 10-H ) :   0.9525 B(  9-C , 11-H ) :   0.9539
B(  9-C , 12-C ) :   1.0647 B( 12-C , 13-H ) :   0.9772 B( 12-C , 14-H ) :   0.9765
B( 12-C , 15-H ) :   0.9717 B( 16-S , 17-C ) :   1.1759 B( 16-S , 20-C ) :   1.1303
B( 17-C , 18-C ) :   1.5984 B( 17-C , 33-H ) :   0.9657 B( 18-C , 19-C ) :   1.2652
B( 18-C , 21-H ) :   0.9816 B( 19-C , 20-C ) :   1.5653 B( 19-C , 22-C ) :   1.0344
B( 22-C , 23-H ) :   0.9189 B( 22-C , 24-H ) :   0.9373 B( 22-C , 25-C ) :   1.0779
B( 25-C , 26-H ) :   0.9579 B( 25-C , 27-H ) :   0.9427 B( 25-C , 28-C ) :   1.0815
B( 28-C , 29-H ) :   0.9775 B( 28-C , 30-H ) :   0.9757 B( 28-C , 31-H ) :   0.9769

Dispersion correction           -0.014091843
FINAL SINGLE POINT ENERGY     -1339.849710374275

DIPOLE MOMENT
-------------
                                X             Y             Z
Electronic contribution:     11.93851      27.62156       3.15783
Nuclear contribution   :    -12.06567     -28.45017      -3.18307
                        -----------------------------------------
Total Dipole Moment    :     -0.12715      -0.82861      -0.02524
                        -----------------------------------------
Magnitude (a.u.)       :      0.83869
Magnitude (Debye)      :      2.13179

Rotational constants in cm-1:     0.015791     0.010287     0.006854
Rotational constants in MHz :   473.412048   308.392393   205.469215

                             ****ORCA TERMINATED NORMALLY****
TOTAL RUN TIME: 0 days 0 hours 0 minutes 20 seconds 903 msec
