                         Program Version 4.2.1 -  RELEASE  -
|  1> ! wB97X-D3 SP def2-SVP
|  2> %pal
|  3> nprocs 24
|  4> end
|  5>
|  6> * xyz 0 1
|  7> S 	 -32.7557 	 -5.07119 	 0.95101
|  8> C 	 -31.667 	 -5.46678 	 2.23963
|  9> C 	 -32.1905 	 -6.58929 	 2.92504
| 10> C 	 -33.2074 	 -7.31544 	 2.20781
| 11> C 	 -33.6273 	 -6.57668 	 1.1162
| 12> H 	 -33.6297 	 -8.2861 	 2.45332
| 13> C 	 -31.6471 	 -7.08178 	 4.14774
| 14> H 	 -30.7349 	 -6.54896 	 4.33051
| 15> H 	 -31.4115 	 -8.07519 	 4.08492
| 16> C 	 -32.4484 	 -6.72706 	 5.39939
| 17> H 	 -33.4409 	 -7.09863 	 5.34429
| 18> H 	 -32.0161 	 -7.23905 	 6.26142
| 19> C 	 -32.4593 	 -5.27711 	 5.72865
| 20> H 	 -33.0594 	 -4.80581 	 4.89765
| 21> H 	 -32.8661 	 -5.03376 	 6.73083
| 22> H 	 -31.4586 	 -4.93837 	 5.73013
| 23> S 	 -34.1704 	 -7.93426 	 -1.24719
| 24> C 	 -35.8221 	 -8.41953 	 -1.56309
| 25> C 	 -36.6877 	 -7.80651 	 -0.638262
| 26> C 	 -36.0113 	 -7.03846 	 0.322223
| 27> C 	 -34.6486 	 -7.14795 	 0.229444
| 28> H 	 -37.7765 	 -7.9326 	 -0.687645
| 29> C 	 -36.7866 	 -6.38666 	 1.39613
| 30> H 	 -36.0851 	 -6.16044 	 2.22832
| 31> H 	 -37.6148 	 -7.13521 	 1.72953
| 32> C 	 -37.3967 	 -4.9766 	 0.932133
| 33> H 	 -37.8437 	 -5.1133 	 -0.0808853
| 34> H 	 -36.6637 	 -4.17838 	 0.898402
| 35> C 	 -38.5566 	 -4.58698 	 1.85855
| 36> H 	 -39.138 	 -3.80332 	 1.27696
| 37> H 	 -38.2002 	 -4.16726 	 2.79997
| 38> H 	 -39.2028 	 -5.41906 	 2.02829
| 39> H 	 -31.0431 	 -4.74423 	 2.67864
| 40> H 	 -36.1622 	 -9.08385 	 -2.30134
| 41> *
| 42>
| 43>                          ****END OF INPUT****

CARTESIAN COORDINATES (ANGSTROEM)
---------------------------------
  S    -32.755700   -5.071190    0.951010
  C    -31.667000   -5.466780    2.239630
  C    -32.190500   -6.589290    2.925040
  C    -33.207400   -7.315440    2.207810
  C    -33.627300   -6.576680    1.116200
  H    -33.629700   -8.286100    2.453320
  C    -31.647100   -7.081780    4.147740
  H    -30.734900   -6.548960    4.330510
  H    -31.411500   -8.075190    4.084920
  C    -32.448400   -6.727060    5.399390
  H    -33.440900   -7.098630    5.344290
  H    -32.016100   -7.239050    6.261420
  C    -32.459300   -5.277110    5.728650
  H    -33.059400   -4.805810    4.897650
  H    -32.866100   -5.033760    6.730830
  H    -31.458600   -4.938370    5.730130
  S    -34.170400   -7.934260   -1.247190
  C    -35.822100   -8.419530   -1.563090
  C    -36.687700   -7.806510   -0.638262
  C    -36.011300   -7.038460    0.322223
  C    -34.648600   -7.147950    0.229444
  H    -37.776500   -7.932600   -0.687645
  C    -36.786600   -6.386660    1.396130
  H    -36.085100   -6.160440    2.228320
  H    -37.614800   -7.135210    1.729530
  C    -37.396700   -4.976600    0.932133
  H    -37.843700   -5.113300   -0.080885
  H    -36.663700   -4.178380    0.898402
  C    -38.556600   -4.586980    1.858550
  H    -39.138000   -3.803320    1.276960
  H    -38.200200   -4.167260    2.799970
  H    -39.202800   -5.419060    2.028290
  H    -31.043100   -4.744230    2.678640
  H    -36.162200   -9.083850   -2.301340

 Total Charge           Charge          ....    0
 Multiplicity           Mult            ....    1
 Number of Electrons    NEL             ....  134
 Basis Dimension        Dim             ....  322

ORBITAL ENERGIES
----------------

  NO   OCC          E(Eh)            E(eV)
   0   2.0000     -88.967761     -2420.9359
   1   2.0000     -88.965104     -2420.8635
   2   2.0000     -10.328235      -281.0456
   3   2.0000     -10.319910      -280.8190
   4   2.0000     -10.315672      -280.7037
   5   2.0000     -10.312079      -280.6059
   6   2.0000     -10.299210      -280.2557
   7   2.0000     -10.297588      -280.2116
   8   2.0000     -10.295081      -280.1434
   9   2.0000     -10.292804      -280.0814
  10   2.0000     -10.291932      -280.0577
  11   2.0000     -10.290431      -280.0169
  12   2.0000     -10.277720      -279.6710
  13   2.0000     -10.276973      -279.6506
  14   2.0000     -10.275092      -279.5995
  15   2.0000     -10.272816      -279.5375
  16   2.0000      -8.082523      -219.9366
  17   2.0000      -8.079901      -219.8653
  18   2.0000      -6.040930      -164.3821
  19   2.0000      -6.038354      -164.3120
  20   2.0000      -6.037014      -164.2755
  21   2.0000      -6.034387      -164.2040
  22   2.0000      -6.033399      -164.1771
  23   2.0000      -6.030738      -164.1047
  24   2.0000      -1.008206       -27.4347
  25   2.0000      -0.987388       -26.8682
  26   2.0000      -0.925894       -25.1949
  27   2.0000      -0.902826       -24.5671
  28   2.0000      -0.868997       -23.6466
  29   2.0000      -0.854948       -23.2643
  30   2.0000      -0.852257       -23.1911
  31   2.0000      -0.814545       -22.1649
  32   2.0000      -0.778771       -21.1914
  33   2.0000      -0.765649       -20.8344
  34   2.0000      -0.705961       -19.2102
  35   2.0000      -0.696281       -18.9468
  36   2.0000      -0.691797       -18.8248
  37   2.0000      -0.664478       -18.0814
  38   2.0000      -0.645721       -17.5710
  39   2.0000      -0.619639       -16.8612
  40   2.0000      -0.592590       -16.1252
  41   2.0000      -0.577661       -15.7189
  42   2.0000      -0.561937       -15.2911
  43   2.0000      -0.558751       -15.2044
  44   2.0000      -0.545847       -14.8533
  45   2.0000      -0.527008       -14.3406
  46   2.0000      -0.520052       -14.1513
  47   2.0000      -0.513615       -13.9762
  48   2.0000      -0.505844       -13.7647
  49   2.0000      -0.499221       -13.5845
  50   2.0000      -0.489214       -13.3122
  51   2.0000      -0.476623       -12.9696
  52   2.0000      -0.471207       -12.8222
  53   2.0000      -0.462638       -12.5890
  54   2.0000      -0.457541       -12.4503
  55   2.0000      -0.446318       -12.1449
  56   2.0000      -0.445442       -12.1211
  57   2.0000      -0.440803       -11.9949
  58   2.0000      -0.439317       -11.9544
  59   2.0000      -0.422434       -11.4950
  60   2.0000      -0.420049       -11.4301
  61   2.0000      -0.411243       -11.1905
  62   2.0000      -0.410019       -11.1572
  63   2.0000      -0.336918        -9.1680
  64   2.0000      -0.327739        -8.9182
  65   2.0000      -0.316309        -8.6072
  66   2.0000      -0.308131        -8.3847
  67   0.0000       0.044086         1.1996
  68   0.0000       0.050149         1.3646
  69   0.0000       0.113445         3.0870
  70   0.0000       0.121925         3.3177
  71   0.0000       0.127693         3.4747

MULLIKEN ATOMIC CHARGES
-----------------------
   0 S :    0.115950
   1 C :   -0.084436
   2 C :   -0.134983
   3 C :    0.032154
   4 C :   -0.157395
   5 H :    0.027264
   6 C :    0.132025
   7 H :   -0.006123
   8 H :    0.007975
   9 C :   -0.057805
  10 H :    0.012683
  11 H :    0.019274
  12 C :   -0.057124
  13 H :    0.049415
  14 H :    0.041431
  15 H :    0.010580
  16 S :    0.123135
  17 C :   -0.077321
  18 C :   -0.048581
  19 C :    0.019847
  20 C :   -0.204398
  21 H :    0.022958
  22 C :    0.005902
  23 H :    0.036473
  24 H :    0.047911
  25 C :   -0.088331
  26 H :    0.033397
  27 H :    0.037701
  28 C :   -0.042697
  29 H :    0.038804
  30 H :    0.036719
  31 H :    0.024263
  32 H :    0.044179
  33 H :    0.039154
Sum of atomic charges:    0.0000000

LOEWDIN ATOMIC CHARGES
----------------------
   0 S :    0.414676
   1 C :   -0.203569
   2 C :   -0.055404
   3 C :   -0.051616
   4 C :   -0.198868
   5 H :    0.037819
   6 C :   -0.030184
   7 H :    0.028933
   8 H :    0.022264
   9 C :   -0.036097
  10 H :    0.014060
  11 H :    0.022563
  12 C :   -0.064520
  13 H :    0.033744
  14 H :    0.031110
  15 H :    0.014315
  16 S :    0.415490
  17 C :   -0.178410
  18 C :   -0.070653
  19 C :   -0.066810
  20 C :   -0.208354
  21 H :    0.032790
  22 C :   -0.038557
  23 H :    0.032741
  24 H :    0.041047
  25 C :   -0.034580
  26 H :    0.024545
  27 H :    0.024585
  28 C :   -0.066067
  29 H :    0.033305
  30 H :    0.023889
  31 H :    0.017289
  32 H :    0.018749
  33 H :    0.019773

  Mayer bond orders larger than 0.100000
B(  0-S ,  1-C ) :   1.1366 B(  0-S ,  4-C ) :   1.1635 B(  1-C ,  2-C ) :   1.5824
B(  1-C , 32-H ) :   0.9669 B(  2-C ,  3-C ) :   1.2310 B(  2-C ,  6-C ) :   1.0682
B(  3-C ,  4-C ) :   1.5596 B(  3-C ,  5-H ) :   0.9938 B(  4-C , 20-C ) :   1.0192
B(  6-C ,  7-H ) :   0.9267 B(  6-C ,  8-H ) :   0.9296 B(  6-C ,  9-C ) :   1.0668
B(  9-C , 10-H ) :   0.9549 B(  9-C , 11-H ) :   0.9519 B(  9-C , 12-C ) :   1.0813
B( 12-C , 13-H ) :   0.9742 B( 12-C , 14-H ) :   0.9714 B( 12-C , 15-H ) :   0.9722
B( 16-S , 17-C ) :   1.1642 B( 16-S , 20-C ) :   1.1467 B( 17-C , 18-C ) :   1.5859
B( 17-C , 20-C ) :   0.1044 B( 17-C , 33-H ) :   0.9759 B( 18-C , 19-C ) :   1.2531
B( 18-C , 21-H ) :   0.9860 B( 19-C , 20-C ) :   1.5920 B( 19-C , 22-C ) :   1.0544
B( 22-C , 23-H ) :   0.9243 B( 22-C , 24-H ) :   0.9481 B( 22-C , 25-C ) :   1.0458
B( 25-C , 26-H ) :   0.9666 B( 25-C , 27-H ) :   0.9542 B( 25-C , 28-C ) :   1.0766
B( 28-C , 29-H ) :   0.9762 B( 28-C , 30-H ) :   0.9756 B( 28-C , 31-H ) :   0.9768

Dispersion correction           -0.014657034
FINAL SINGLE POINT ENERGY     -1339.867113751818

DIPOLE MOMENT
-------------
                                X             Y             Z
Electronic contribution:     10.49592      -6.75255     -22.74258
Nuclear contribution   :    -10.79736       6.63110      23.28894
                        -----------------------------------------
Total Dipole Moment    :     -0.30145      -0.12146       0.54635
                        -----------------------------------------
Magnitude (a.u.)       :      0.63571
Magnitude (Debye)      :      1.61584

Rotational constants in cm-1:     0.018157     0.008922     0.007159
Rotational constants in MHz :   544.326875   267.484625   214.616699

                             ****ORCA TERMINATED NORMALLY****
TOTAL RUN TIME: 0 days 0 hours 0 minutes 21 seconds 764 msec
