                         Program Version 4.2.1 -  RELEASE  -
|  1> ! wB97X-D3 SP def2-SVP
|  2> %pal
|  3> nprocs 24
|  4> end
|  5>
|  6> * xyz 0 1
|  7> S 	 -38.6925 	 -47.5897 	 -73.1681
|  8> C 	 -39.4831 	 -46.1062 	 -73.3295
|  9> C 	 -39.2131 	 -45.2171 	 -72.29
| 10> C 	 -38.0728 	 -45.6809 	 -71.5507
| 11> C 	 -37.5904 	 -46.9242 	 -72.0054
| 12> H 	 -37.5282 	 -45.1762 	 -70.7546
| 13> C 	 -39.9657 	 -43.9571 	 -72.0616
| 14> H 	 -40.0074 	 -43.4845 	 -72.9045
| 15> H 	 -39.4462 	 -43.3096 	 -71.3364
| 16> C 	 -41.346 	 -44.0747 	 -71.3741
| 17> H 	 -41.1771 	 -44.6016 	 -70.367
| 18> H 	 -41.7988 	 -43.1115 	 -71.1365
| 19> C 	 -42.3291 	 -44.7486 	 -72.312
| 20> H 	 -42.2134 	 -44.3573 	 -73.3123
| 21> H 	 -42.1905 	 -45.7866 	 -72.46
| 22> H 	 -43.3714 	 -44.5195 	 -71.946
| 23> S 	 -36.1968 	 -48.326 	 -70.0597
| 24> C 	 -34.6307 	 -48.9472 	 -70.4883
| 25> C 	 -34.1289 	 -48.4493 	 -71.6326
| 26> C 	 -35.1107 	 -47.6331 	 -72.2246
| 27> C 	 -36.3839 	 -47.5933 	 -71.6033
| 28> H 	 -33.1307 	 -48.6857 	 -71.8869
| 29> C 	 -34.8193 	 -46.9294 	 -73.5248
| 30> H 	 -33.9035 	 -46.3023 	 -73.3793
| 31> H 	 -35.548 	 -46.131 	 -73.8115
| 32> C 	 -34.5884 	 -47.7609 	 -74.7549
| 33> H 	 -33.5174 	 -48.2722 	 -74.7953
| 34> H 	 -34.473 	 -46.9874 	 -75.5356
| 35> C 	 -35.7146 	 -48.7328 	 -75.1757
| 36> H 	 -35.6013 	 -49.584 	 -74.5256
| 37> H 	 -35.5604 	 -49.1806 	 -76.1814
| 38> H 	 -36.7264 	 -48.3009 	 -75.0622
| 39> H 	 -40.2969 	 -45.9268 	 -74.0121
| 40> H 	 -34.0177 	 -49.6017 	 -69.8411
| 41> *
| 42>
| 43>                          ****END OF INPUT****

CARTESIAN COORDINATES (ANGSTROEM)
---------------------------------
  S    -38.692500  -47.589700  -73.168100
  C    -39.483100  -46.106200  -73.329500
  C    -39.213100  -45.217100  -72.290000
  C    -38.072800  -45.680900  -71.550700
  C    -37.590400  -46.924200  -72.005400
  H    -37.528200  -45.176200  -70.754600
  C    -39.965700  -43.957100  -72.061600
  H    -40.007400  -43.484500  -72.904500
  H    -39.446200  -43.309600  -71.336400
  C    -41.346000  -44.074700  -71.374100
  H    -41.177100  -44.601600  -70.367000
  H    -41.798800  -43.111500  -71.136500
  C    -42.329100  -44.748600  -72.312000
  H    -42.213400  -44.357300  -73.312300
  H    -42.190500  -45.786600  -72.460000
  H    -43.371400  -44.519500  -71.946000
  S    -36.196800  -48.326000  -70.059700
  C    -34.630700  -48.947200  -70.488300
  C    -34.128900  -48.449300  -71.632600
  C    -35.110700  -47.633100  -72.224600
  C    -36.383900  -47.593300  -71.603300
  H    -33.130700  -48.685700  -71.886900
  C    -34.819300  -46.929400  -73.524800
  H    -33.903500  -46.302300  -73.379300
  H    -35.548000  -46.131000  -73.811500
  C    -34.588400  -47.760900  -74.754900
  H    -33.517400  -48.272200  -74.795300
  H    -34.473000  -46.987400  -75.535600
  C    -35.714600  -48.732800  -75.175700
  H    -35.601300  -49.584000  -74.525600
  H    -35.560400  -49.180600  -76.181400
  H    -36.726400  -48.300900  -75.062200
  H    -40.296900  -45.926800  -74.012100
  H    -34.017700  -49.601700  -69.841100

 Total Charge           Charge          ....    0
 Multiplicity           Mult            ....    1
 Number of Electrons    NEL             ....  134
 Basis Dimension        Dim             ....  322

ORBITAL ENERGIES
----------------

  NO   OCC          E(Eh)            E(eV)
   0   2.0000     -88.969671     -2420.9878
   1   2.0000     -88.963165     -2420.8108
   2   2.0000     -10.326027      -280.9855
   3   2.0000     -10.320800      -280.8432
   4   2.0000     -10.314188      -280.6633
   5   2.0000     -10.310175      -280.5541
   6   2.0000     -10.301863      -280.3280
   7   2.0000     -10.301354      -280.3141
   8   2.0000     -10.298762      -280.2436
   9   2.0000     -10.292207      -280.0652
  10   2.0000     -10.288886      -279.9748
  11   2.0000     -10.286498      -279.9098
  12   2.0000     -10.286226      -279.9024
  13   2.0000     -10.279299      -279.7139
  14   2.0000     -10.274472      -279.5826
  15   2.0000     -10.270720      -279.4805
  16   2.0000      -8.085084      -220.0063
  17   2.0000      -8.078747      -219.8339
  18   2.0000      -6.043316      -164.4470
  19   2.0000      -6.039497      -164.3431
  20   2.0000      -6.037091      -164.2776
  21   2.0000      -6.036071      -164.2498
  22   2.0000      -6.033159      -164.1706
  23   2.0000      -6.029605      -164.0739
  24   2.0000      -1.012872       -27.5617
  25   2.0000      -0.993527       -27.0352
  26   2.0000      -0.919304       -25.0155
  27   2.0000      -0.903133       -24.5755
  28   2.0000      -0.875434       -23.8218
  29   2.0000      -0.852764       -23.2049
  30   2.0000      -0.841467       -22.8975
  31   2.0000      -0.815123       -22.1806
  32   2.0000      -0.788748       -21.4629
  33   2.0000      -0.770110       -20.9558
  34   2.0000      -0.712173       -19.3792
  35   2.0000      -0.695804       -18.9338
  36   2.0000      -0.679627       -18.4936
  37   2.0000      -0.655869       -17.8471
  38   2.0000      -0.645781       -17.5726
  39   2.0000      -0.620462       -16.8836
  40   2.0000      -0.593792       -16.1579
  41   2.0000      -0.579166       -15.7599
  42   2.0000      -0.557882       -15.1807
  43   2.0000      -0.545116       -14.8334
  44   2.0000      -0.543578       -14.7915
  45   2.0000      -0.534197       -14.5362
  46   2.0000      -0.518304       -14.1038
  47   2.0000      -0.510317       -13.8864
  48   2.0000      -0.502615       -13.6769
  49   2.0000      -0.494694       -13.4613
  50   2.0000      -0.487387       -13.2625
  51   2.0000      -0.482736       -13.1359
  52   2.0000      -0.476996       -12.9797
  53   2.0000      -0.463936       -12.6243
  54   2.0000      -0.459742       -12.5102
  55   2.0000      -0.453161       -12.3311
  56   2.0000      -0.442767       -12.0483
  57   2.0000      -0.439237       -11.9522
  58   2.0000      -0.432610       -11.7719
  59   2.0000      -0.425463       -11.5774
  60   2.0000      -0.412793       -11.2327
  61   2.0000      -0.405946       -11.0463
  62   2.0000      -0.397378       -10.8132
  63   2.0000      -0.338273        -9.2049
  64   2.0000      -0.334163        -9.0930
  65   2.0000      -0.315676        -8.5900
  66   2.0000      -0.302632        -8.2350
  67   0.0000       0.036916         1.0045
  68   0.0000       0.057046         1.5523
  69   0.0000       0.108853         2.9620
  70   0.0000       0.119182         3.2431
  71   0.0000       0.132996         3.6190

MULLIKEN ATOMIC CHARGES
-----------------------
   0 S :    0.154037
   1 C :   -0.117707
   2 C :   -0.098450
   3 C :    0.048911
   4 C :   -0.205068
   5 H :    0.014595
   6 C :    0.124038
   7 H :   -0.014288
   8 H :    0.017500
   9 C :   -0.082764
  10 H :    0.042730
  11 H :    0.031893
  12 C :   -0.055736
  13 H :    0.015407
  14 H :    0.035750
  15 H :    0.040740
  16 S :    0.118203
  17 C :   -0.097778
  18 C :   -0.008160
  19 C :   -0.005148
  20 C :   -0.164846
  21 H :    0.007491
  22 C :    0.032717
  23 H :    0.029494
  24 H :    0.035823
  25 C :   -0.111570
  26 H :    0.031019
  27 H :    0.024060
  28 C :   -0.041100
  29 H :    0.027956
  30 H :    0.034508
  31 H :    0.039046
  32 H :    0.039592
  33 H :    0.057104
Sum of atomic charges:    0.0000000

LOEWDIN ATOMIC CHARGES
----------------------
   0 S :    0.463959
   1 C :   -0.212309
   2 C :   -0.059704
   3 C :   -0.050540
   4 C :   -0.211293
   5 H :    0.033121
   6 C :   -0.022664
   7 H :    0.004607
   8 H :    0.035963
   9 C :   -0.036788
  10 H :    0.033496
  11 H :    0.024525
  12 C :   -0.070448
  13 H :    0.019922
  14 H :    0.017562
  15 H :    0.032822
  16 S :    0.422076
  17 C :   -0.179768
  18 C :   -0.069983
  19 C :   -0.047526
  20 C :   -0.229897
  21 H :    0.032873
  22 C :   -0.048535
  23 H :    0.038763
  24 H :    0.035436
  25 C :   -0.053952
  26 H :    0.026809
  27 H :    0.022365
  28 C :   -0.075203
  29 H :    0.023144
  30 H :    0.029952
  31 H :    0.016048
  32 H :    0.022649
  33 H :    0.032519

  Mayer bond orders larger than 0.100000
B(  0-S ,  1-C ) :   1.1779 B(  0-S ,  4-C ) :   1.1685 B(  1-C ,  2-C ) :   1.5716
B(  1-C ,  4-C ) :   0.1016 B(  1-C , 32-H ) :   0.9638 B(  2-C ,  3-C ) :   1.2627
B(  2-C ,  6-C ) :   1.0250 B(  3-C ,  4-C ) :   1.5571 B(  3-C ,  5-H ) :   0.9966
B(  4-C , 20-C ) :   1.0444 B(  6-C ,  7-H ) :   0.9340 B(  6-C ,  8-H ) :   0.9361
B(  6-C ,  9-C ) :   1.0743 B(  9-C , 10-H ) :   0.9527 B(  9-C , 11-H ) :   0.9578
B(  9-C , 12-C ) :   1.0776 B( 12-C , 13-H ) :   0.9710 B( 12-C , 14-H ) :   0.9716
B( 12-C , 15-H ) :   0.9729 B( 16-S , 17-C ) :   1.1772 B( 16-S , 20-C ) :   1.1372
B( 17-C , 18-C ) :   1.6003 B( 17-C , 33-H ) :   0.9593 B( 18-C , 19-C ) :   1.2352
B( 18-C , 21-H ) :   1.0085 B( 19-C , 20-C ) :   1.5597 B( 19-C , 22-C ) :   1.0556
B( 22-C , 23-H ) :   0.9277 B( 22-C , 24-H ) :   0.9344 B( 22-C , 25-C ) :   1.0847
B( 25-C , 26-H ) :   0.9515 B( 25-C , 27-H ) :   0.9527 B( 25-C , 28-C ) :   1.0647
B( 28-C , 29-H ) :   0.9728 B( 28-C , 30-H ) :   0.9719 B( 28-C , 31-H ) :   0.9673

Dispersion correction           -0.015535098
FINAL SINGLE POINT ENERGY     -1339.855730132649

DIPOLE MOMENT
-------------
                                X             Y             Z
Electronic contribution:      6.42565     -10.55442      11.51511
Nuclear contribution   :     -6.34665      10.98672     -11.59210
                        -----------------------------------------
Total Dipole Moment    :      0.07900       0.43229      -0.07699
                        -----------------------------------------
Magnitude (a.u.)       :      0.44614
Magnitude (Debye)      :      1.13400

Rotational constants in cm-1:     0.024467     0.008033     0.006860
Rotational constants in MHz :   733.499029   240.837435   205.663035

                             ****ORCA TERMINATED NORMALLY****
TOTAL RUN TIME: 0 days 0 hours 0 minutes 22 seconds 229 msec
