                         Program Version 4.2.1 -  RELEASE  -
|  1> ! wB97X-D3 SP def2-SVP
|  2> %pal
|  3> nprocs 24
|  4> end
|  5>
|  6> * xyz 0 1
|  7> S 	 -145.311 	 4.73672 	 10.9325
|  8> C 	 -145.04 	 3.49048 	 9.75156
|  9> C 	 -145.99 	 3.61101 	 8.69374
| 10> C 	 -146.724 	 4.81467 	 8.79054
| 11> C 	 -146.402 	 5.59577 	 9.93163
| 12> H 	 -147.452 	 5.18728 	 8.09772
| 13> C 	 -146.33 	 2.53136 	 7.66453
| 14> H 	 -147.367 	 2.68043 	 7.64891
| 15> H 	 -146.087 	 1.49248 	 8.06679
| 16> C 	 -145.862 	 2.8517 	 6.23728
| 17> H 	 -146.474 	 2.37221 	 5.45919
| 18> H 	 -145.988 	 3.97416 	 6.00039
| 19> C 	 -144.342 	 2.4554 	 6.05795
| 20> H 	 -143.764 	 3.07091 	 6.79241
| 21> H 	 -144.146 	 1.37593 	 6.05763
| 22> H 	 -143.982 	 2.69622 	 5.12459
| 23> S 	 -147.005 	 7.28616 	 11.9461
| 24> C 	 -147.421 	 8.94836 	 11.5549
| 25> C 	 -147.507 	 9.13484 	 10.2465
| 26> C 	 -147.174 	 8.05442 	 9.45446
| 27> C 	 -146.745 	 6.98926 	 10.2608
| 28> H 	 -147.708 	 10.1229 	 9.86451
| 29> C 	 -147.253 	 8.18147 	 7.97287
| 30> H 	 -147.57 	 9.23383 	 7.704
| 31> H 	 -147.921 	 7.39732 	 7.61367
| 32> C 	 -145.851 	 8.06605 	 7.22472
| 33> H 	 -145.494 	 6.98784 	 7.41009
| 34> H 	 -145.182 	 8.79517 	 7.64816
| 35> C 	 -145.728 	 8.13746 	 5.69885
| 36> H 	 -146.249 	 7.29264 	 5.23101
| 37> H 	 -144.7 	 8.15769 	 5.38901
| 38> H 	 -146.136 	 9.05551 	 5.38786
| 39> H 	 -144.289 	 2.75755 	 9.8491
| 40> H 	 -147.742 	 9.66587 	 12.2386
| 41> *
| 42>
| 43>                          ****END OF INPUT****

CARTESIAN COORDINATES (ANGSTROEM)
---------------------------------
  S    -145.311000    4.736720   10.932500
  C    -145.040000    3.490480    9.751560
  C    -145.990000    3.611010    8.693740
  C    -146.724000    4.814670    8.790540
  C    -146.402000    5.595770    9.931630
  H    -147.452000    5.187280    8.097720
  C    -146.330000    2.531360    7.664530
  H    -147.367000    2.680430    7.648910
  H    -146.087000    1.492480    8.066790
  C    -145.862000    2.851700    6.237280
  H    -146.474000    2.372210    5.459190
  H    -145.988000    3.974160    6.000390
  C    -144.342000    2.455400    6.057950
  H    -143.764000    3.070910    6.792410
  H    -144.146000    1.375930    6.057630
  H    -143.982000    2.696220    5.124590
  S    -147.005000    7.286160   11.946100
  C    -147.421000    8.948360   11.554900
  C    -147.507000    9.134840   10.246500
  C    -147.174000    8.054420    9.454460
  C    -146.745000    6.989260   10.260800
  H    -147.708000   10.122900    9.864510
  C    -147.253000    8.181470    7.972870
  H    -147.570000    9.233830    7.704000
  H    -147.921000    7.397320    7.613670
  C    -145.851000    8.066050    7.224720
  H    -145.494000    6.987840    7.410090
  H    -145.182000    8.795170    7.648160
  C    -145.728000    8.137460    5.698850
  H    -146.249000    7.292640    5.231010
  H    -144.700000    8.157690    5.389010
  H    -146.136000    9.055510    5.387860
  H    -144.289000    2.757550    9.849100
  H    -147.742000    9.665870   12.238600

 Total Charge           Charge          ....    0
 Multiplicity           Mult            ....    1
 Number of Electrons    NEL             ....  134
 Basis Dimension        Dim             ....  322

ORBITAL ENERGIES
----------------

  NO   OCC          E(Eh)            E(eV)
   0   2.0000     -88.966271     -2420.8953
   1   2.0000     -88.965959     -2420.8868
   2   2.0000     -10.330128      -281.0971
   3   2.0000     -10.329181      -281.0713
   4   2.0000     -10.313242      -280.6376
   5   2.0000     -10.306723      -280.4602
   6   2.0000     -10.305567      -280.4287
   7   2.0000     -10.301019      -280.3050
   8   2.0000     -10.298917      -280.2478
   9   2.0000     -10.298661      -280.2408
  10   2.0000     -10.295508      -280.1550
  11   2.0000     -10.294753      -280.1345
  12   2.0000     -10.288288      -279.9585
  13   2.0000     -10.281842      -279.7832
  14   2.0000     -10.275800      -279.6187
  15   2.0000     -10.273126      -279.5460
  16   2.0000      -8.081569      -219.9107
  17   2.0000      -8.081499      -219.9088
  18   2.0000      -6.039973      -164.3560
  19   2.0000      -6.039790      -164.3510
  20   2.0000      -6.036167      -164.2525
  21   2.0000      -6.035753      -164.2412
  22   2.0000      -6.032601      -164.1554
  23   2.0000      -6.032241      -164.1456
  24   2.0000      -1.013939       -27.5907
  25   2.0000      -0.989251       -26.9189
  26   2.0000      -0.910760       -24.7831
  27   2.0000      -0.904205       -24.6047
  28   2.0000      -0.870650       -23.6916
  29   2.0000      -0.855236       -23.2721
  30   2.0000      -0.845672       -23.0119
  31   2.0000      -0.814410       -22.1612
  32   2.0000      -0.785321       -21.3697
  33   2.0000      -0.775055       -21.0903
  34   2.0000      -0.708087       -19.2680
  35   2.0000      -0.699578       -19.0365
  36   2.0000      -0.685661       -18.6578
  37   2.0000      -0.665187       -18.1006
  38   2.0000      -0.641483       -17.4556
  39   2.0000      -0.620881       -16.8950
  40   2.0000      -0.597571       -16.2607
  41   2.0000      -0.569359       -15.4930
  42   2.0000      -0.567518       -15.4429
  43   2.0000      -0.550623       -14.9832
  44   2.0000      -0.534707       -14.5501
  45   2.0000      -0.526583       -14.3290
  46   2.0000      -0.519822       -14.1451
  47   2.0000      -0.515922       -14.0390
  48   2.0000      -0.503530       -13.7017
  49   2.0000      -0.501341       -13.6422
  50   2.0000      -0.490496       -13.3471
  51   2.0000      -0.483479       -13.1561
  52   2.0000      -0.476368       -12.9626
  53   2.0000      -0.467378       -12.7180
  54   2.0000      -0.459875       -12.5138
  55   2.0000      -0.448502       -12.2044
  56   2.0000      -0.442893       -12.0517
  57   2.0000      -0.436875       -11.8880
  58   2.0000      -0.433907       -11.8072
  59   2.0000      -0.430951       -11.7268
  60   2.0000      -0.427428       -11.6309
  61   2.0000      -0.410337       -11.1658
  62   2.0000      -0.398118       -10.8334
  63   2.0000      -0.356624        -9.7042
  64   2.0000      -0.334712        -9.1080
  65   2.0000      -0.328839        -8.9482
  66   2.0000      -0.279264        -7.5992
  67   0.0000       0.019525         0.5313
  68   0.0000       0.073971         2.0129
  69   0.0000       0.100178         2.7260
  70   0.0000       0.119037         3.2392
  71   0.0000       0.127055         3.4573

MULLIKEN ATOMIC CHARGES
-----------------------
   0 S :    0.111630
   1 C :   -0.113924
   2 C :   -0.103314
   3 C :    0.009973
   4 C :   -0.138523
   5 H :   -0.002808
   6 C :    0.092426
   7 H :    0.017954
   8 H :    0.048551
   9 C :   -0.112502
  10 H :    0.033078
  11 H :    0.040298
  12 C :   -0.036147
  13 H :    0.043588
  14 H :    0.033226
  15 H :    0.006651
  16 S :    0.096002
  17 C :   -0.047812
  18 C :   -0.040843
  19 C :   -0.031893
  20 C :   -0.116263
  21 H :    0.008200
  22 C :    0.063253
  23 H :    0.027150
  24 H :    0.035800
  25 C :   -0.140202
  26 H :    0.048222
  27 H :    0.031579
  28 C :   -0.002019
  29 H :    0.030965
  30 H :    0.034378
  31 H :    0.008876
  32 H :    0.037060
  33 H :    0.027388
Sum of atomic charges:    0.0000000

LOEWDIN ATOMIC CHARGES
----------------------
   0 S :    0.432612
   1 C :   -0.203600
   2 C :   -0.055651
   3 C :   -0.074264
   4 C :   -0.204125
   5 H :    0.024491
   6 C :   -0.032099
   7 H :    0.028780
   8 H :    0.041280
   9 C :   -0.043360
  10 H :    0.021329
  11 H :    0.032822
  12 C :   -0.068194
  13 H :    0.032967
  14 H :    0.027439
  15 H :    0.011155
  16 S :    0.408915
  17 C :   -0.171419
  18 C :   -0.068977
  19 C :   -0.063153
  20 C :   -0.193224
  21 H :    0.032127
  22 C :   -0.030669
  23 H :    0.035357
  24 H :    0.029258
  25 C :   -0.045561
  26 H :    0.031340
  27 H :    0.020635
  28 C :   -0.060034
  29 H :    0.025178
  30 H :    0.029321
  31 H :    0.012711
  32 H :    0.017871
  33 H :    0.018744

  Mayer bond orders larger than 0.100000
B(  0-S ,  1-C ) :   1.1623 B(  0-S ,  4-C ) :   1.1870 B(  1-C ,  2-C ) :   1.5347
B(  1-C ,  4-C ) :   0.1107 B(  1-C , 32-H ) :   0.9833 B(  2-C ,  3-C ) :   1.2952
B(  2-C ,  6-C ) :   1.0048 B(  3-C ,  4-C ) :   1.5181 B(  3-C ,  5-H ) :   0.9928
B(  4-C , 20-C ) :   1.0279 B(  6-C ,  7-H ) :   0.9324 B(  6-C ,  8-H ) :   0.9515
B(  6-C ,  9-C ) :   1.0576 B(  9-C , 10-H ) :   0.9583 B(  9-C , 11-H ) :   0.9571
B(  9-C , 12-C ) :   1.0701 B( 12-C , 13-H ) :   0.9760 B( 12-C , 14-H ) :   0.9761
B( 12-C , 15-H ) :   0.9735 B( 16-S , 17-C ) :   1.1357 B( 16-S , 20-C ) :   1.1596
B( 17-C , 18-C ) :   1.6264 B( 17-C , 33-H ) :   0.9702 B( 18-C , 19-C ) :   1.2712
B( 18-C , 21-H ) :   0.9878 B( 19-C , 20-C ) :   1.5618 B( 19-C , 22-C ) :   1.0493
B( 22-C , 23-H ) :   0.9344 B( 22-C , 24-H ) :   0.9248 B( 22-C , 25-C ) :   1.0564
B( 25-C , 26-H ) :   0.9557 B( 25-C , 27-H ) :   0.9583 B( 25-C , 28-C ) :   1.0871
B( 28-C , 29-H ) :   0.9746 B( 28-C , 30-H ) :   0.9716 B( 28-C , 31-H ) :   0.9721

Dispersion correction           -0.014783554
FINAL SINGLE POINT ENERGY     -1339.857515451126

DIPOLE MOMENT
-------------
                                X             Y             Z
Electronic contribution:     -4.14092       4.16084      31.26083
Nuclear contribution   :      3.99816      -4.07917     -31.91380
                        -----------------------------------------
Total Dipole Moment    :     -0.14276       0.08167      -0.65297
                        -----------------------------------------
Magnitude (a.u.)       :      0.67336
Magnitude (Debye)      :      1.71155

Rotational constants in cm-1:     0.019032     0.009541     0.006875
Rotational constants in MHz :   570.550124   286.024366   206.101315

                             ****ORCA TERMINATED NORMALLY****
TOTAL RUN TIME: 0 days 0 hours 0 minutes 23 seconds 677 msec
