                         Program Version 4.2.1 -  RELEASE  -
|  1> ! wB97X-D3 SP def2-SVP
|  2> %pal
|  3> nprocs 24
|  4> end
|  5>
|  6> * xyz 0 1
|  7> S 	 -79.0388 	 -16.3748 	 -54.7066
|  8> C 	 -80.6047 	 -16.8857 	 -54.0309
|  9> C 	 -81.4919 	 -17.1744 	 -55.0658
| 10> C 	 -80.8729 	 -17.0292 	 -56.3428
| 11> C 	 -79.5823 	 -16.6429 	 -56.3133
| 12> H 	 -81.3577 	 -17.3002 	 -57.2043
| 13> C 	 -82.9706 	 -17.6881 	 -54.8555
| 14> H 	 -83.6196 	 -16.9685 	 -54.3352
| 15> H 	 -82.8282 	 -18.4497 	 -54.0915
| 16> C 	 -83.6976 	 -18.2907 	 -56.0905
| 17> H 	 -84.0985 	 -17.5288 	 -56.7056
| 18> H 	 -83.0564 	 -18.9106 	 -56.7665
| 19> C 	 -84.8975 	 -19.2075 	 -55.8389
| 20> H 	 -85.1807 	 -19.7367 	 -56.7157
| 21> H 	 -84.6911 	 -20.0089 	 -55.1112
| 22> H 	 -85.6406 	 -18.5319 	 -55.4438
| 23> S 	 -76.9232 	 -16.8126 	 -57.1756
| 24> C 	 -76.6335 	 -16.8892 	 -58.8605
| 25> C 	 -77.7737 	 -16.657 	 -59.6683
| 26> C 	 -78.931 	 -16.4252 	 -58.8395
| 27> C 	 -78.6927 	 -16.6329 	 -57.4986
| 28> H 	 -77.7634 	 -16.4771 	 -60.7265
| 29> C 	 -80.2642 	 -16.0478 	 -59.5093
| 30> H 	 -80.1371 	 -14.9826 	 -59.778
| 31> H 	 -81.2035 	 -16.0278 	 -58.8694
| 32> C 	 -80.6598 	 -16.8519 	 -60.7522
| 33> H 	 -79.9438 	 -16.6613 	 -61.4959
| 34> H 	 -81.6531 	 -16.4458 	 -61.0126
| 35> C 	 -80.9367 	 -18.3125 	 -60.5136
| 36> H 	 -80.1058 	 -18.9593 	 -60.3176
| 37> H 	 -81.5114 	 -18.6233 	 -61.417
| 38> H 	 -81.4584 	 -18.3779 	 -59.5803
| 39> H 	 -80.8521 	 -16.8364 	 -53.0018
| 40> H 	 -75.6672 	 -17.0775 	 -59.3058
| 41> *
| 42>
| 43>                          ****END OF INPUT****

CARTESIAN COORDINATES (ANGSTROEM)
---------------------------------
  S    -79.038800  -16.374800  -54.706600
  C    -80.604700  -16.885700  -54.030900
  C    -81.491900  -17.174400  -55.065800
  C    -80.872900  -17.029200  -56.342800
  C    -79.582300  -16.642900  -56.313300
  H    -81.357700  -17.300200  -57.204300
  C    -82.970600  -17.688100  -54.855500
  H    -83.619600  -16.968500  -54.335200
  H    -82.828200  -18.449700  -54.091500
  C    -83.697600  -18.290700  -56.090500
  H    -84.098500  -17.528800  -56.705600
  H    -83.056400  -18.910600  -56.766500
  C    -84.897500  -19.207500  -55.838900
  H    -85.180700  -19.736700  -56.715700
  H    -84.691100  -20.008900  -55.111200
  H    -85.640600  -18.531900  -55.443800
  S    -76.923200  -16.812600  -57.175600
  C    -76.633500  -16.889200  -58.860500
  C    -77.773700  -16.657000  -59.668300
  C    -78.931000  -16.425200  -58.839500
  C    -78.692700  -16.632900  -57.498600
  H    -77.763400  -16.477100  -60.726500
  C    -80.264200  -16.047800  -59.509300
  H    -80.137100  -14.982600  -59.778000
  H    -81.203500  -16.027800  -58.869400
  C    -80.659800  -16.851900  -60.752200
  H    -79.943800  -16.661300  -61.495900
  H    -81.653100  -16.445800  -61.012600
  C    -80.936700  -18.312500  -60.513600
  H    -80.105800  -18.959300  -60.317600
  H    -81.511400  -18.623300  -61.417000
  H    -81.458400  -18.377900  -59.580300
  H    -80.852100  -16.836400  -53.001800
  H    -75.667200  -17.077500  -59.305800

 Total Charge           Charge          ....    0
 Multiplicity           Mult            ....    1
 Number of Electrons    NEL             ....  134
 Basis Dimension        Dim             ....  322

ORBITAL ENERGIES
----------------

  NO   OCC          E(Eh)            E(eV)
   0   2.0000     -88.968553     -2420.9574
   1   2.0000     -88.966162     -2420.8923
   2   2.0000     -10.331029      -281.1216
   3   2.0000     -10.325789      -280.9790
   4   2.0000     -10.320754      -280.8420
   5   2.0000     -10.312597      -280.6200
   6   2.0000     -10.307041      -280.4688
   7   2.0000     -10.306323      -280.4493
   8   2.0000     -10.302343      -280.3410
   9   2.0000     -10.298063      -280.2245
  10   2.0000     -10.297837      -280.2184
  11   2.0000     -10.289593      -279.9941
  12   2.0000     -10.283314      -279.8232
  13   2.0000     -10.279355      -279.7155
  14   2.0000     -10.277239      -279.6579
  15   2.0000     -10.274208      -279.5754
  16   2.0000      -8.083091      -219.9521
  17   2.0000      -8.080865      -219.8915
  18   2.0000      -6.041563      -164.3993
  19   2.0000      -6.039511      -164.3434
  20   2.0000      -6.037794      -164.2967
  21   2.0000      -6.035385      -164.2312
  22   2.0000      -6.033743      -164.1865
  23   2.0000      -6.031509      -164.1257
  24   2.0000      -1.005914       -27.3723
  25   2.0000      -0.981979       -26.7210
  26   2.0000      -0.914363       -24.8811
  27   2.0000      -0.906462       -24.6661
  28   2.0000      -0.867543       -23.6070
  29   2.0000      -0.856255       -23.2999
  30   2.0000      -0.844230       -22.9727
  31   2.0000      -0.812776       -22.1168
  32   2.0000      -0.786597       -21.4044
  33   2.0000      -0.775823       -21.1112
  34   2.0000      -0.709104       -19.2957
  35   2.0000      -0.695521       -18.9261
  36   2.0000      -0.690855       -18.7991
  37   2.0000      -0.659210       -17.9380
  38   2.0000      -0.642208       -17.4754
  39   2.0000      -0.627935       -17.0870
  40   2.0000      -0.601773       -16.3751
  41   2.0000      -0.571952       -15.5636
  42   2.0000      -0.558291       -15.1919
  43   2.0000      -0.555244       -15.1090
  44   2.0000      -0.550472       -14.9791
  45   2.0000      -0.530522       -14.4362
  46   2.0000      -0.515949       -14.0397
  47   2.0000      -0.506485       -13.7822
  48   2.0000      -0.502295       -13.6681
  49   2.0000      -0.498714       -13.5707
  50   2.0000      -0.497556       -13.5392
  51   2.0000      -0.482893       -13.1402
  52   2.0000      -0.469141       -12.7660
  53   2.0000      -0.465816       -12.6755
  54   2.0000      -0.460785       -12.5386
  55   2.0000      -0.452336       -12.3087
  56   2.0000      -0.447744       -12.1837
  57   2.0000      -0.434584       -11.8256
  58   2.0000      -0.431906       -11.7528
  59   2.0000      -0.427416       -11.6306
  60   2.0000      -0.419866       -11.4251
  61   2.0000      -0.414553       -11.2806
  62   2.0000      -0.410759       -11.1773
  63   2.0000      -0.357012        -9.7148
  64   2.0000      -0.334658        -9.1065
  65   2.0000      -0.328751        -8.9458
  66   2.0000      -0.282042        -7.6748
  67   0.0000       0.024886         0.6772
  68   0.0000       0.075327         2.0498
  69   0.0000       0.098496         2.6802
  70   0.0000       0.120005         3.2655
  71   0.0000       0.129074         3.5123

MULLIKEN ATOMIC CHARGES
-----------------------
   0 S :    0.096526
   1 C :   -0.130631
   2 C :   -0.070784
   3 C :    0.009980
   4 C :   -0.054597
   5 H :   -0.049867
   6 C :    0.077195
   7 H :    0.040011
   8 H :    0.027257
   9 C :   -0.117017
  10 H :    0.027339
  11 H :    0.038963
  12 C :   -0.032017
  13 H :    0.031515
  14 H :    0.030117
  15 H :    0.029984
  16 S :    0.106959
  17 C :   -0.077945
  18 C :   -0.034237
  19 C :   -0.039916
  20 C :   -0.151158
  21 H :    0.019897
  22 C :   -0.003036
  23 H :    0.044678
  24 H :    0.036543
  25 C :   -0.064791
  26 H :    0.019343
  27 H :    0.029333
  28 C :   -0.026654
  29 H :    0.034267
  30 H :    0.046891
  31 H :    0.012438
  32 H :    0.035962
  33 H :    0.057450
Sum of atomic charges:   -0.0000000

LOEWDIN ATOMIC CHARGES
----------------------
   0 S :    0.400732
   1 C :   -0.190066
   2 C :   -0.048388
   3 C :   -0.067658
   4 C :   -0.190964
   5 H :    0.009030
   6 C :   -0.031388
   7 H :    0.034538
   8 H :    0.033023
   9 C :   -0.048089
  10 H :    0.019073
  11 H :    0.027071
  12 C :   -0.057895
  13 H :    0.024446
  14 H :    0.025126
  15 H :    0.023349
  16 S :    0.396950
  17 C :   -0.187196
  18 C :   -0.072527
  19 C :   -0.055823
  20 C :   -0.176394
  21 H :    0.029546
  22 C :   -0.040464
  23 H :    0.039361
  24 H :    0.034467
  25 C :   -0.038601
  26 H :    0.010814
  27 H :    0.031754
  28 C :   -0.063793
  29 H :    0.023881
  30 H :    0.036004
  31 H :    0.021738
  32 H :    0.020730
  33 H :    0.027613

  Mayer bond orders larger than 0.100000
B(  0-S ,  1-C ) :   1.1256 B(  0-S ,  4-C ) :   1.1469 B(  1-C ,  2-C ) :   1.6132
B(  1-C , 32-H ) :   0.9792 B(  2-C ,  3-C ) :   1.2667 B(  2-C ,  6-C ) :   0.9890
B(  3-C ,  4-C ) :   1.5557 B(  3-C ,  5-H ) :   1.0085 B(  4-C , 20-C ) :   1.0509
B(  6-C ,  7-H ) :   0.9405 B(  6-C ,  8-H ) :   0.9467 B(  6-C ,  9-C ) :   1.0644
B(  9-C , 10-H ) :   0.9541 B(  9-C , 11-H ) :   0.9581 B(  9-C , 12-C ) :   1.0846
B( 12-C , 13-H ) :   0.9743 B( 12-C , 14-H ) :   0.9758 B( 12-C , 15-H ) :   0.9782
B( 16-S , 17-C ) :   1.1762 B( 16-S , 20-C ) :   1.1122 B( 17-C , 18-C ) :   1.5942
B( 17-C , 33-H ) :   0.9659 B( 18-C , 19-C ) :   1.2397 B( 18-C , 21-H ) :   0.9876
B( 19-C , 20-C ) :   1.6263 B( 19-C , 22-C ) :   1.0155 B( 22-C , 23-H ) :   0.9293
B( 22-C , 24-H ) :   0.9471 B( 22-C , 25-C ) :   1.0865 B( 25-C , 26-H ) :   0.9508
B( 25-C , 27-H ) :   0.9541 B( 25-C , 28-C ) :   1.0739 B( 28-C , 29-H ) :   0.9709
B( 28-C , 30-H ) :   0.9749 B( 28-C , 31-H ) :   0.9703

Dispersion correction           -0.014289946
FINAL SINGLE POINT ENERGY     -1339.867373913128

DIPOLE MOMENT
-------------
                                X             Y             Z
Electronic contribution:     28.51364       9.82387      13.02356
Nuclear contribution   :    -29.13423      -9.92857     -13.45742
                        -----------------------------------------
Total Dipole Moment    :     -0.62058      -0.10469      -0.43386
                        -----------------------------------------
Magnitude (a.u.)       :      0.76441
Magnitude (Debye)      :      1.94298

Rotational constants in cm-1:     0.016973     0.009771     0.006588
Rotational constants in MHz :   508.832562   292.919553   197.507440

                             ****ORCA TERMINATED NORMALLY****
TOTAL RUN TIME: 0 days 0 hours 0 minutes 20 seconds 838 msec
