                         Program Version 4.2.1 -  RELEASE  -
|  1> ! wB97X-D3 SP def2-SVP
|  2> %pal
|  3> nprocs 24
|  4> end
|  5>
|  6> * xyz 0 1
|  7> S 	 -48.5032 	 18.3531 	 30.162
|  8> C 	 -49.9627 	 19.3038 	 30.1912
|  9> C 	 -49.8051 	 20.242 	 31.1258
| 10> C 	 -48.4958 	 20.4086 	 31.6404
| 11> C 	 -47.6785 	 19.4433 	 31.1885
| 12> H 	 -48.0289 	 21.053 	 32.3494
| 13> C 	 -50.9947 	 21.0841 	 31.4442
| 14> H 	 -51.7498 	 20.2739 	 31.7191
| 15> H 	 -51.3453 	 21.6466 	 30.6144
| 16> C 	 -50.8307 	 21.9501 	 32.6382
| 17> H 	 -50.4019 	 21.4525 	 33.4752
| 18> H 	 -50.1814 	 22.7441 	 32.2794
| 19> C 	 -52.1512 	 22.6635 	 33.0966
| 20> H 	 -51.9047 	 23.3182 	 33.9059
| 21> H 	 -52.6068 	 23.2023 	 32.2558
| 22> H 	 -52.9216 	 22.0747 	 33.5555
| 23> S 	 -45.2812 	 19.3162 	 29.9778
| 24> C 	 -43.8591 	 18.9993 	 30.86
| 25> C 	 -44.1134 	 19.2693 	 32.1676
| 26> C 	 -45.4897 	 19.3162 	 32.5274
| 27> C 	 -46.2905 	 19.2886 	 31.4292
| 28> H 	 -43.2503 	 19.4571 	 32.815
| 29> C 	 -46.0031 	 19.4298 	 33.9213
| 30> H 	 -46.9368 	 18.9063 	 33.9792
| 31> H 	 -46.149 	 20.4491 	 34.1928
| 32> C 	 -45.0266 	 18.8608 	 35.0467
| 33> H 	 -44.1455 	 19.5776 	 35.0695
| 34> H 	 -44.6452 	 17.8402 	 34.8953
| 35> C 	 -45.6467 	 18.9409 	 36.4175
| 36> H 	 -46.3773 	 18.1295 	 36.6156
| 37> H 	 -46.1376 	 19.8994 	 36.6257
| 38> H 	 -44.9192 	 18.7894 	 37.2127
| 39> H 	 -50.9471 	 18.9661 	 29.8596
| 40> H 	 -42.8684 	 18.9708 	 30.3967
| 41> *
| 42>
| 43>                          ****END OF INPUT****

CARTESIAN COORDINATES (ANGSTROEM)
---------------------------------
  S    -48.503200   18.353100   30.162000
  C    -49.962700   19.303800   30.191200
  C    -49.805100   20.242000   31.125800
  C    -48.495800   20.408600   31.640400
  C    -47.678500   19.443300   31.188500
  H    -48.028900   21.053000   32.349400
  C    -50.994700   21.084100   31.444200
  H    -51.749800   20.273900   31.719100
  H    -51.345300   21.646600   30.614400
  C    -50.830700   21.950100   32.638200
  H    -50.401900   21.452500   33.475200
  H    -50.181400   22.744100   32.279400
  C    -52.151200   22.663500   33.096600
  H    -51.904700   23.318200   33.905900
  H    -52.606800   23.202300   32.255800
  H    -52.921600   22.074700   33.555500
  S    -45.281200   19.316200   29.977800
  C    -43.859100   18.999300   30.860000
  C    -44.113400   19.269300   32.167600
  C    -45.489700   19.316200   32.527400
  C    -46.290500   19.288600   31.429200
  H    -43.250300   19.457100   32.815000
  C    -46.003100   19.429800   33.921300
  H    -46.936800   18.906300   33.979200
  H    -46.149000   20.449100   34.192800
  C    -45.026600   18.860800   35.046700
  H    -44.145500   19.577600   35.069500
  H    -44.645200   17.840200   34.895300
  C    -45.646700   18.940900   36.417500
  H    -46.377300   18.129500   36.615600
  H    -46.137600   19.899400   36.625700
  H    -44.919200   18.789400   37.212700
  H    -50.947100   18.966100   29.859600
  H    -42.868400   18.970800   30.396700

 Total Charge           Charge          ....    0
 Multiplicity           Mult            ....    1
 Number of Electrons    NEL             ....  134
 Basis Dimension        Dim             ....  322

ORBITAL ENERGIES
----------------

  NO   OCC          E(Eh)            E(eV)
   0   2.0000     -88.958379     -2420.6805
   1   2.0000     -88.956253     -2420.6227
   2   2.0000     -10.318008      -280.7673
   3   2.0000     -10.317534      -280.7544
   4   2.0000     -10.310492      -280.5627
   5   2.0000     -10.303731      -280.3788
   6   2.0000     -10.299039      -280.2511
   7   2.0000     -10.294631      -280.1311
   8   2.0000     -10.292243      -280.0662
   9   2.0000     -10.291213      -280.0381
  10   2.0000     -10.289200      -279.9834
  11   2.0000     -10.287027      -279.9242
  12   2.0000     -10.284204      -279.8474
  13   2.0000     -10.281480      -279.7733
  14   2.0000     -10.278801      -279.7004
  15   2.0000     -10.275704      -279.6161
  16   2.0000      -8.074434      -219.7165
  17   2.0000      -8.072212      -219.6560
  18   2.0000      -6.032786      -164.1604
  19   2.0000      -6.030655      -164.1025
  20   2.0000      -6.028756      -164.0508
  21   2.0000      -6.026671      -163.9940
  22   2.0000      -6.025239      -163.9551
  23   2.0000      -6.022794      -163.8885
  24   2.0000      -1.021648       -27.8004
  25   2.0000      -0.996603       -27.1190
  26   2.0000      -0.920750       -25.0549
  27   2.0000      -0.909248       -24.7419
  28   2.0000      -0.880543       -23.9608
  29   2.0000      -0.854903       -23.2631
  30   2.0000      -0.844034       -22.9673
  31   2.0000      -0.823190       -22.4001
  32   2.0000      -0.783632       -21.3237
  33   2.0000      -0.774639       -21.0790
  34   2.0000      -0.717778       -19.5317
  35   2.0000      -0.701019       -19.0757
  36   2.0000      -0.686887       -18.6912
  37   2.0000      -0.653773       -17.7901
  38   2.0000      -0.647113       -17.6088
  39   2.0000      -0.618374       -16.8268
  40   2.0000      -0.601894       -16.3784
  41   2.0000      -0.585245       -15.9253
  42   2.0000      -0.571845       -15.5607
  43   2.0000      -0.563784       -15.3413
  44   2.0000      -0.531248       -14.4560
  45   2.0000      -0.524176       -14.2635
  46   2.0000      -0.518657       -14.1134
  47   2.0000      -0.512994       -13.9593
  48   2.0000      -0.509334       -13.8597
  49   2.0000      -0.503192       -13.6926
  50   2.0000      -0.489093       -13.3089
  51   2.0000      -0.486342       -13.2340
  52   2.0000      -0.474279       -12.9058
  53   2.0000      -0.472645       -12.8613
  54   2.0000      -0.459323       -12.4988
  55   2.0000      -0.454425       -12.3655
  56   2.0000      -0.446199       -12.1417
  57   2.0000      -0.442728       -12.0472
  58   2.0000      -0.435436       -11.8488
  59   2.0000      -0.420913       -11.4536
  60   2.0000      -0.414637       -11.2828
  61   2.0000      -0.410300       -11.1648
  62   2.0000      -0.407550       -11.0900
  63   2.0000      -0.346628        -9.4322
  64   2.0000      -0.332258        -9.0412
  65   2.0000      -0.319412        -8.6917
  66   2.0000      -0.299298        -8.1443
  67   0.0000       0.032245         0.8774
  68   0.0000       0.073507         2.0002
  69   0.0000       0.115751         3.1497
  70   0.0000       0.124972         3.4007
  71   0.0000       0.140768         3.8305

MULLIKEN ATOMIC CHARGES
-----------------------
   0 S :    0.113102
   1 C :   -0.119766
   2 C :   -0.073154
   3 C :    0.032563
   4 C :   -0.163541
   5 H :   -0.003892
   6 C :    0.048826
   7 H :    0.031440
   8 H :    0.037001
   9 C :   -0.083250
  10 H :    0.024793
  11 H :    0.029560
  12 C :   -0.024876
  13 H :    0.022906
  14 H :    0.030729
  15 H :    0.023630
  16 S :    0.098570
  17 C :   -0.080964
  18 C :   -0.066935
  19 C :   -0.005819
  20 C :   -0.160346
  21 H :    0.023106
  22 C :    0.077501
  23 H :    0.032755
  24 H :    0.031027
  25 C :   -0.116999
  26 H :    0.035445
  27 H :    0.044285
  28 C :   -0.045146
  29 H :    0.033181
  30 H :    0.026292
  31 H :    0.028442
  32 H :    0.054175
  33 H :    0.065359
Sum of atomic charges:   -0.0000000

LOEWDIN ATOMIC CHARGES
----------------------
   0 S :    0.423275
   1 C :   -0.200613
   2 C :   -0.066896
   3 C :   -0.066606
   4 C :   -0.204252
   5 H :    0.031934
   6 C :   -0.036327
   7 H :    0.038774
   8 H :    0.028518
   9 C :   -0.039281
  10 H :    0.019725
  11 H :    0.026787
  12 C :   -0.062817
  13 H :    0.023963
  14 H :    0.026247
  15 H :    0.020485
  16 S :    0.412845
  17 C :   -0.197339
  18 C :   -0.077974
  19 C :   -0.060978
  20 C :   -0.191432
  21 H :    0.031969
  22 C :   -0.025463
  23 H :    0.031407
  24 H :    0.029025
  25 C :   -0.042753
  26 H :    0.026978
  27 H :    0.027600
  28 C :   -0.072788
  29 H :    0.026914
  30 H :    0.023829
  31 H :    0.026049
  32 H :    0.034700
  33 H :    0.034495

  Mayer bond orders larger than 0.100000
B(  0-S ,  1-C ) :   1.1216 B(  0-S ,  4-C ) :   1.1742 B(  1-C ,  2-C ) :   1.6399
B(  1-C , 32-H ) :   0.9700 B(  2-C ,  3-C ) :   1.2019 B(  2-C ,  6-C ) :   0.9981
B(  3-C ,  4-C ) :   1.5736 B(  3-C ,  5-H ) :   1.0090 B(  4-C , 20-C ) :   1.0281
B(  6-C ,  7-H ) :   0.9384 B(  6-C ,  8-H ) :   0.9406 B(  6-C ,  9-C ) :   1.1049
B(  9-C , 10-H ) :   0.9538 B(  9-C , 11-H ) :   0.9412 B(  9-C , 12-C ) :   1.0854
B( 12-C , 13-H ) :   0.9724 B( 12-C , 14-H ) :   0.9741 B( 12-C , 15-H ) :   0.9759
B( 16-S , 17-C ) :   1.1589 B( 16-S , 20-C ) :   1.1509 B( 17-C , 18-C ) :   1.6054
B( 17-C , 20-C ) :   0.1003 B( 17-C , 33-H ) :   0.9648 B( 18-C , 19-C ) :   1.2270
B( 18-C , 21-H ) :   0.9856 B( 19-C , 20-C ) :   1.6049 B( 19-C , 22-C ) :   1.0552
B( 22-C , 23-H ) :   0.9364 B( 22-C , 24-H ) :   0.9192 B( 22-C , 25-C ) :   1.0682
B( 25-C , 26-H ) :   0.9474 B( 25-C , 27-H ) :   0.9606 B( 25-C , 28-C ) :   1.0939
B( 28-C , 29-H ) :   0.9730 B( 28-C , 30-H ) :   0.9701 B( 28-C , 31-H ) :   0.9714

Dispersion correction           -0.013394827
FINAL SINGLE POINT ENERGY     -1339.864609999063

DIPOLE MOMENT
-------------
                                X             Y             Z
Electronic contribution:     10.61044     -11.22595     -25.62832
Nuclear contribution   :    -10.72054      11.61080      26.30404
                        -----------------------------------------
Total Dipole Moment    :     -0.11010       0.38486       0.67571
                        -----------------------------------------
Magnitude (a.u.)       :      0.78538
Magnitude (Debye)      :      1.99629

Rotational constants in cm-1:     0.016775     0.008721     0.006388
Rotational constants in MHz :   502.896322   261.460947   191.503930

                             ****ORCA TERMINATED NORMALLY****
TOTAL RUN TIME: 0 days 0 hours 0 minutes 20 seconds 159 msec
