                         Program Version 4.2.1 -  RELEASE  -
|  1> ! wB97X-D3 SP def2-SVP
|  2> %pal
|  3> nprocs 24
|  4> end
|  5>
|  6> * xyz 0 1
|  7> S 	 -59.5663 	 7.76378 	 -94.7858
|  8> C 	 -59.2554 	 9.35774 	 -94.1732
|  9> C 	 -60.4105 	 10.1216 	 -94.1858
| 10> C 	 -61.5407 	 9.45782 	 -94.7981
| 11> C 	 -61.2297 	 8.18578 	 -95.2607
| 12> H 	 -62.5382 	 9.83501 	 -94.9507
| 13> C 	 -60.5169 	 11.56 	 -93.6857
| 14> H 	 -60.2047 	 11.4762 	 -92.5998
| 15> H 	 -61.5106 	 11.8737 	 -93.536
| 16> C 	 -59.7952 	 12.6471 	 -94.444
| 17> H 	 -58.8932 	 12.3917 	 -94.9891
| 18> H 	 -60.3821 	 13.0479 	 -95.2013
| 19> C 	 -59.5199 	 13.8524 	 -93.4888
| 20> H 	 -59.0726 	 14.748 	 -94.018
| 21> H 	 -60.473 	 14.1501 	 -93.011
| 22> H 	 -58.899 	 13.5136 	 -92.6669
| 23> S 	 -61.2226 	 7.06874 	 -97.6691
| 24> C 	 -62.6524 	 6.38125 	 -98.3175
| 25> C 	 -63.6566 	 6.29531 	 -97.3793
| 26> C 	 -63.3434 	 6.92817 	 -96.1533
| 27> C 	 -62.0454 	 7.37822 	 -96.133
| 28> H 	 -64.5418 	 5.89726 	 -97.6498
| 29> C 	 -64.3474 	 6.95225 	 -95.0042
| 30> H 	 -65.3015 	 6.52604 	 -95.3756
| 31> H 	 -64.503 	 7.97109 	 -94.681
| 32> C 	 -63.9823 	 6.03457 	 -93.7891
| 33> H 	 -62.9585 	 6.23999 	 -93.4496
| 34> H 	 -63.8331 	 4.9682 	 -94.1442
| 35> C 	 -65.0487 	 5.99297 	 -92.677
| 36> H 	 -65.3571 	 7.03123 	 -92.4587
| 37> H 	 -64.5576 	 5.59775 	 -91.861
| 38> H 	 -65.8494 	 5.34658 	 -92.89
| 39> H 	 -58.3113 	 9.76584 	 -93.7743
| 40> H 	 -62.6958 	 5.90223 	 -99.2519
| 41> *
| 42>
| 43>                          ****END OF INPUT****

CARTESIAN COORDINATES (ANGSTROEM)
---------------------------------
  S    -59.566300    7.763780  -94.785800
  C    -59.255400    9.357740  -94.173200
  C    -60.410500   10.121600  -94.185800
  C    -61.540700    9.457820  -94.798100
  C    -61.229700    8.185780  -95.260700
  H    -62.538200    9.835010  -94.950700
  C    -60.516900   11.560000  -93.685700
  H    -60.204700   11.476200  -92.599800
  H    -61.510600   11.873700  -93.536000
  C    -59.795200   12.647100  -94.444000
  H    -58.893200   12.391700  -94.989100
  H    -60.382100   13.047900  -95.201300
  C    -59.519900   13.852400  -93.488800
  H    -59.072600   14.748000  -94.018000
  H    -60.473000   14.150100  -93.011000
  H    -58.899000   13.513600  -92.666900
  S    -61.222600    7.068740  -97.669100
  C    -62.652400    6.381250  -98.317500
  C    -63.656600    6.295310  -97.379300
  C    -63.343400    6.928170  -96.153300
  C    -62.045400    7.378220  -96.133000
  H    -64.541800    5.897260  -97.649800
  C    -64.347400    6.952250  -95.004200
  H    -65.301500    6.526040  -95.375600
  H    -64.503000    7.971090  -94.681000
  C    -63.982300    6.034570  -93.789100
  H    -62.958500    6.239990  -93.449600
  H    -63.833100    4.968200  -94.144200
  C    -65.048700    5.992970  -92.677000
  H    -65.357100    7.031230  -92.458700
  H    -64.557600    5.597750  -91.861000
  H    -65.849400    5.346580  -92.890000
  H    -58.311300    9.765840  -93.774300
  H    -62.695800    5.902230  -99.251900

 Total Charge           Charge          ....    0
 Multiplicity           Mult            ....    1
 Number of Electrons    NEL             ....  134
 Basis Dimension        Dim             ....  322

ORBITAL ENERGIES
----------------

  NO   OCC          E(Eh)            E(eV)
   0   2.0000     -88.967142     -2420.9190
   1   2.0000     -88.962006     -2420.7793
   2   2.0000     -10.329354      -281.0760
   3   2.0000     -10.323659      -280.9210
   4   2.0000     -10.314462      -280.6708
   5   2.0000     -10.309439      -280.5341
   6   2.0000     -10.302612      -280.3483
   7   2.0000     -10.302215      -280.3375
   8   2.0000     -10.295490      -280.1545
   9   2.0000     -10.294036      -280.1149
  10   2.0000     -10.291227      -280.0385
  11   2.0000     -10.288415      -279.9620
  12   2.0000     -10.283673      -279.8330
  13   2.0000     -10.282924      -279.8126
  14   2.0000     -10.280079      -279.7352
  15   2.0000     -10.270067      -279.4627
  16   2.0000      -8.081332      -219.9042
  17   2.0000      -8.077502      -219.8000
  18   2.0000      -6.039920      -164.3546
  19   2.0000      -6.035890      -164.2449
  20   2.0000      -6.035877      -164.2446
  21   2.0000      -6.032071      -164.1410
  22   2.0000      -6.031853      -164.1351
  23   2.0000      -6.028377      -164.0405
  24   2.0000      -1.007753       -27.4224
  25   2.0000      -0.983064       -26.7505
  26   2.0000      -0.911470       -24.8024
  27   2.0000      -0.903608       -24.5884
  28   2.0000      -0.871893       -23.7254
  29   2.0000      -0.854902       -23.2631
  30   2.0000      -0.844936       -22.9919
  31   2.0000      -0.813029       -22.1236
  32   2.0000      -0.782780       -21.3005
  33   2.0000      -0.769029       -20.9263
  34   2.0000      -0.707651       -19.2562
  35   2.0000      -0.706310       -19.2197
  36   2.0000      -0.691013       -18.8034
  37   2.0000      -0.671973       -18.2853
  38   2.0000      -0.640744       -17.4355
  39   2.0000      -0.614211       -16.7135
  40   2.0000      -0.597857       -16.2685
  41   2.0000      -0.576007       -15.6740
  42   2.0000      -0.562479       -15.3058
  43   2.0000      -0.551153       -14.9976
  44   2.0000      -0.527918       -14.3654
  45   2.0000      -0.524882       -14.2828
  46   2.0000      -0.516774       -14.0621
  47   2.0000      -0.511833       -13.9277
  48   2.0000      -0.507062       -13.7979
  49   2.0000      -0.500043       -13.6069
  50   2.0000      -0.490332       -13.3426
  51   2.0000      -0.486697       -13.2437
  52   2.0000      -0.474924       -12.9233
  53   2.0000      -0.462624       -12.5886
  54   2.0000      -0.458116       -12.4660
  55   2.0000      -0.451603       -12.2888
  56   2.0000      -0.447130       -12.1670
  57   2.0000      -0.439256       -11.9528
  58   2.0000      -0.433122       -11.7859
  59   2.0000      -0.425586       -11.5808
  60   2.0000      -0.420438       -11.4407
  61   2.0000      -0.409352       -11.1390
  62   2.0000      -0.407577       -11.0907
  63   2.0000      -0.345510        -9.4018
  64   2.0000      -0.333018        -9.0619
  65   2.0000      -0.326041        -8.8720
  66   2.0000      -0.291881        -7.9425
  67   0.0000       0.031378         0.8539
  68   0.0000       0.066496         1.8095
  69   0.0000       0.114134         3.1057
  70   0.0000       0.123105         3.3499
  71   0.0000       0.136605         3.7172

MULLIKEN ATOMIC CHARGES
-----------------------
   0 S :    0.115969
   1 C :   -0.124582
   2 C :   -0.088548
   3 C :    0.050782
   4 C :   -0.165045
   5 H :    0.009203
   6 C :    0.050033
   7 H :    0.035412
   8 H :    0.002117
   9 C :   -0.010771
  10 H :    0.027922
  11 H :    0.013312
  12 C :   -0.095930
  13 H :    0.048825
  14 H :    0.027979
  15 H :    0.032098
  16 S :    0.109011
  17 C :   -0.065919
  18 C :   -0.004704
  19 C :   -0.020759
  20 C :   -0.173048
  21 H :   -0.031659
  22 C :    0.097066
  23 H :    0.015861
  24 H :    0.024962
  25 C :   -0.130154
  26 H :    0.034457
  27 H :    0.026150
  28 C :    0.019115
  29 H :    0.029791
  30 H :    0.016369
  31 H :    0.028088
  32 H :    0.055987
  33 H :    0.040609
Sum of atomic charges:    0.0000000

LOEWDIN ATOMIC CHARGES
----------------------
   0 S :    0.397923
   1 C :   -0.209173
   2 C :   -0.062937
   3 C :   -0.057971
   4 C :   -0.193809
   5 H :    0.030099
   6 C :   -0.035703
   7 H :    0.039123
   8 H :    0.023912
   9 C :   -0.037142
  10 H :    0.023684
  11 H :    0.017967
  12 C :   -0.066617
  13 H :    0.031866
  14 H :    0.023832
  15 H :    0.019803
  16 S :    0.419600
  17 C :   -0.182134
  18 C :   -0.058943
  19 C :   -0.053494
  20 C :   -0.191913
  21 H :    0.011217
  22 C :   -0.027119
  23 H :    0.031681
  24 H :    0.025947
  25 C :   -0.043632
  26 H :    0.022346
  27 H :    0.028059
  28 C :   -0.053681
  29 H :    0.028198
  30 H :    0.021170
  31 H :    0.020546
  32 H :    0.037450
  33 H :    0.019847

  Mayer bond orders larger than 0.100000
B(  0-S ,  1-C ) :   1.1281 B(  0-S ,  4-C ) :   1.1432 B(  1-C ,  2-C ) :   1.6183
B(  1-C , 32-H ) :   0.9662 B(  2-C ,  3-C ) :   1.2354 B(  2-C ,  6-C ) :   1.0144
B(  3-C ,  4-C ) :   1.5770 B(  3-C ,  5-H ) :   0.9950 B(  4-C , 20-C ) :   1.0380
B(  6-C ,  7-H ) :   0.9491 B(  6-C ,  8-H ) :   0.9369 B(  6-C ,  9-C ) :   1.0485
B(  9-C , 10-H ) :   0.9639 B(  9-C , 11-H ) :   0.9517 B(  9-C , 12-C ) :   1.0681
B( 12-C , 13-H ) :   0.9740 B( 12-C , 14-H ) :   0.9750 B( 12-C , 15-H ) :   0.9810
B( 16-S , 17-C ) :   1.1697 B( 16-S , 20-C ) :   1.1472 B( 17-C , 18-C ) :   1.5989
B( 17-C , 20-C ) :   0.1005 B( 17-C , 33-H ) :   0.9700 B( 18-C , 19-C ) :   1.2444
B( 18-C , 21-H ) :   1.0074 B( 19-C , 20-C ) :   1.5922 B( 19-C , 22-C ) :   1.0438
B( 22-C , 23-H ) :   0.9366 B( 22-C , 24-H ) :   0.9287 B( 22-C , 25-C ) :   1.0590
B( 25-C , 26-H ) :   0.9624 B( 25-C , 27-H ) :   0.9531 B( 25-C , 28-C ) :   1.0753
B( 28-C , 29-H ) :   0.9752 B( 28-C , 30-H ) :   0.9698 B( 28-C , 31-H ) :   0.9758

Dispersion correction           -0.013623021
FINAL SINGLE POINT ENERGY     -1339.871547271823

DIPOLE MOMENT
-------------
                                X             Y             Z
Electronic contribution:     10.45832     -14.31158     -16.51183
Nuclear contribution   :    -10.92012      14.56265      16.69156
                        -----------------------------------------
Total Dipole Moment    :     -0.46180       0.25108       0.17973
                        -----------------------------------------
Magnitude (a.u.)       :      0.55552
Magnitude (Debye)      :      1.41202

Rotational constants in cm-1:     0.018881     0.007607     0.006451
Rotational constants in MHz :   566.028137   228.052970   193.382047

                             ****ORCA TERMINATED NORMALLY****
TOTAL RUN TIME: 0 days 0 hours 0 minutes 20 seconds 943 msec
