                         Program Version 4.2.1 -  RELEASE  -
|  1> ! wB97X-D3 SP def2-SVP
|  2> %pal
|  3> nprocs 24
|  4> end
|  5>
|  6> * xyz 0 1
|  7> S 	 -50.049 	 -44.8339 	 -77.7833
|  8> C 	 -51.2002 	 -43.5708 	 -77.7786
|  9> C 	 -50.618 	 -42.4048 	 -77.4186
| 10> C 	 -49.2169 	 -42.6157 	 -76.9788
| 11> C 	 -48.7074 	 -43.8756 	 -77.2103
| 12> H 	 -48.5433 	 -41.8441 	 -76.5406
| 13> C 	 -51.3158 	 -41.0809 	 -77.2003
| 14> H 	 -52.3304 	 -41.2589 	 -77.4334
| 15> H 	 -51.0357 	 -40.3897 	 -77.9394
| 16> C 	 -51.2442 	 -40.4852 	 -75.8024
| 17> H 	 -51.7063 	 -41.2398 	 -75.2071
| 18> H 	 -50.2107 	 -40.4328 	 -75.6129
| 19> C 	 -51.8081 	 -38.9694 	 -75.8233
| 20> H 	 -51.2692 	 -38.2459 	 -76.4301
| 21> H 	 -52.8385 	 -39.0667 	 -76.1386
| 22> H 	 -51.7628 	 -38.506 	 -74.8526
| 23> S 	 -47.4465 	 -45.5418 	 -75.4695
| 24> C 	 -45.7239 	 -45.9135 	 -75.6953
| 25> C 	 -45.1585 	 -45.0763 	 -76.6405
| 26> C 	 -46.1005 	 -44.1803 	 -77.2654
| 27> C 	 -47.4519 	 -44.4285 	 -76.8734
| 28> H 	 -44.0786 	 -45.1327 	 -76.8321
| 29> C 	 -45.7366 	 -43.3178 	 -78.422
| 30> H 	 -46.4398 	 -43.5061 	 -79.2494
| 31> H 	 -44.7387 	 -43.6357 	 -78.701
| 32> C 	 -45.6902 	 -41.7736 	 -78.214
| 33> H 	 -45.3292 	 -41.5707 	 -77.2058
| 34> H 	 -46.7566 	 -41.3139 	 -78.3421
| 35> C 	 -44.747 	 -41.0883 	 -79.1392
| 36> H 	 -43.7696 	 -41.5139 	 -78.9624
| 37> H 	 -44.6596 	 -40.0165 	 -78.9235
| 38> H 	 -44.958 	 -41.1598 	 -80.2357
| 39> H 	 -52.2565 	 -43.735 	 -77.9392
| 40> H 	 -45.1902 	 -46.6921 	 -75.2335
| 41> *
| 42>
| 43>                          ****END OF INPUT****

CARTESIAN COORDINATES (ANGSTROEM)
---------------------------------
  S    -50.049000  -44.833900  -77.783300
  C    -51.200200  -43.570800  -77.778600
  C    -50.618000  -42.404800  -77.418600
  C    -49.216900  -42.615700  -76.978800
  C    -48.707400  -43.875600  -77.210300
  H    -48.543300  -41.844100  -76.540600
  C    -51.315800  -41.080900  -77.200300
  H    -52.330400  -41.258900  -77.433400
  H    -51.035700  -40.389700  -77.939400
  C    -51.244200  -40.485200  -75.802400
  H    -51.706300  -41.239800  -75.207100
  H    -50.210700  -40.432800  -75.612900
  C    -51.808100  -38.969400  -75.823300
  H    -51.269200  -38.245900  -76.430100
  H    -52.838500  -39.066700  -76.138600
  H    -51.762800  -38.506000  -74.852600
  S    -47.446500  -45.541800  -75.469500
  C    -45.723900  -45.913500  -75.695300
  C    -45.158500  -45.076300  -76.640500
  C    -46.100500  -44.180300  -77.265400
  C    -47.451900  -44.428500  -76.873400
  H    -44.078600  -45.132700  -76.832100
  C    -45.736600  -43.317800  -78.422000
  H    -46.439800  -43.506100  -79.249400
  H    -44.738700  -43.635700  -78.701000
  C    -45.690200  -41.773600  -78.214000
  H    -45.329200  -41.570700  -77.205800
  H    -46.756600  -41.313900  -78.342100
  C    -44.747000  -41.088300  -79.139200
  H    -43.769600  -41.513900  -78.962400
  H    -44.659600  -40.016500  -78.923500
  H    -44.958000  -41.159800  -80.235700
  H    -52.256500  -43.735000  -77.939200
  H    -45.190200  -46.692100  -75.233500

 Total Charge           Charge          ....    0
 Multiplicity           Mult            ....    1
 Number of Electrons    NEL             ....  134
 Basis Dimension        Dim             ....  322

ORBITAL ENERGIES
----------------

  NO   OCC          E(Eh)            E(eV)
   0   2.0000     -88.963913     -2420.8311
   1   2.0000     -88.959026     -2420.6982
   2   2.0000     -10.329734      -281.0863
   3   2.0000     -10.326195      -280.9901
   4   2.0000     -10.318286      -280.7748
   5   2.0000     -10.313025      -280.6317
   6   2.0000     -10.310138      -280.5531
   7   2.0000     -10.301884      -280.3285
   8   2.0000     -10.300634      -280.2945
   9   2.0000     -10.299186      -280.2551
  10   2.0000     -10.291002      -280.0324
  11   2.0000     -10.289675      -279.9963
  12   2.0000     -10.285464      -279.8817
  13   2.0000     -10.284289      -279.8497
  14   2.0000     -10.279287      -279.7136
  15   2.0000     -10.277414      -279.6626
  16   2.0000      -8.077671      -219.8046
  17   2.0000      -8.075087      -219.7343
  18   2.0000      -6.036275      -164.2554
  19   2.0000      -6.033626      -164.1833
  20   2.0000      -6.032247      -164.1458
  21   2.0000      -6.029233      -164.0638
  22   2.0000      -6.028436      -164.0421
  23   2.0000      -6.025867      -163.9722
  24   2.0000      -1.007678       -27.4203
  25   2.0000      -0.980059       -26.6687
  26   2.0000      -0.914009       -24.8715
  27   2.0000      -0.909006       -24.7353
  28   2.0000      -0.876899       -23.8616
  29   2.0000      -0.851959       -23.1830
  30   2.0000      -0.837820       -22.7982
  31   2.0000      -0.816658       -22.2224
  32   2.0000      -0.781837       -21.2749
  33   2.0000      -0.769428       -20.9372
  34   2.0000      -0.718205       -19.5434
  35   2.0000      -0.702713       -19.1218
  36   2.0000      -0.687116       -18.6974
  37   2.0000      -0.661111       -17.9898
  38   2.0000      -0.648010       -17.6332
  39   2.0000      -0.617394       -16.8002
  40   2.0000      -0.593911       -16.1611
  41   2.0000      -0.572801       -15.5867
  42   2.0000      -0.568196       -15.4614
  43   2.0000      -0.563864       -15.3435
  44   2.0000      -0.525674       -14.3043
  45   2.0000      -0.523012       -14.2319
  46   2.0000      -0.516732       -14.0610
  47   2.0000      -0.513601       -13.9758
  48   2.0000      -0.510014       -13.8782
  49   2.0000      -0.500951       -13.6316
  50   2.0000      -0.499722       -13.5981
  51   2.0000      -0.477284       -12.9875
  52   2.0000      -0.473886       -12.8951
  53   2.0000      -0.463164       -12.6033
  54   2.0000      -0.456825       -12.4308
  55   2.0000      -0.452248       -12.3063
  56   2.0000      -0.444782       -12.1031
  57   2.0000      -0.437900       -11.9159
  58   2.0000      -0.425534       -11.5794
  59   2.0000      -0.424551       -11.5526
  60   2.0000      -0.421403       -11.4670
  61   2.0000      -0.415631       -11.3099
  62   2.0000      -0.408305       -11.1105
  63   2.0000      -0.340216        -9.2578
  64   2.0000      -0.328001        -8.9254
  65   2.0000      -0.321428        -8.7465
  66   2.0000      -0.302773        -8.2389
  67   0.0000       0.025519         0.6944
  68   0.0000       0.066526         1.8103
  69   0.0000       0.114334         3.1112
  70   0.0000       0.122640         3.3372
  71   0.0000       0.128640         3.5005

MULLIKEN ATOMIC CHARGES
-----------------------
   0 S :    0.105036
   1 C :   -0.114821
   2 C :   -0.101470
   3 C :    0.018277
   4 C :   -0.171326
   5 H :    0.035785
   6 C :    0.103050
   7 H :   -0.012081
   8 H :    0.014890
   9 C :   -0.059114
  10 H :    0.035493
  11 H :    0.022110
  12 C :   -0.050850
  13 H :    0.035825
  14 H :    0.035467
  15 H :    0.033282
  16 S :    0.100836
  17 C :   -0.067618
  18 C :   -0.051851
  19 C :   -0.002758
  20 C :   -0.168968
  21 H :    0.031229
  22 C :    0.058379
  23 H :    0.048289
  24 H :    0.003113
  25 C :   -0.089318
  26 H :    0.025914
  27 H :    0.048694
  28 C :   -0.057854
  29 H :    0.021211
  30 H :    0.035245
  31 H :    0.038602
  32 H :    0.054561
  33 H :    0.042742
Sum of atomic charges:   -0.0000000

LOEWDIN ATOMIC CHARGES
----------------------
   0 S :    0.418358
   1 C :   -0.198714
   2 C :   -0.068394
   3 C :   -0.057695
   4 C :   -0.215788
   5 H :    0.035010
   6 C :   -0.030984
   7 H :    0.019232
   8 H :    0.023335
   9 C :   -0.024592
  10 H :    0.026080
  11 H :    0.014617
  12 C :   -0.061052
  13 H :    0.028134
  14 H :    0.024625
  15 H :    0.024741
  16 S :    0.384988
  17 C :   -0.166869
  18 C :   -0.075210
  19 C :   -0.046874
  20 C :   -0.191200
  21 H :    0.036622
  22 C :   -0.034277
  23 H :    0.041052
  24 H :    0.025663
  25 C :   -0.047244
  26 H :    0.022876
  27 H :    0.032312
  28 C :   -0.071592
  29 H :    0.020902
  30 H :    0.028580
  31 H :    0.028332
  32 H :    0.033186
  33 H :    0.021839

  Mayer bond orders larger than 0.100000
B(  0-S ,  1-C ) :   1.1512 B(  0-S ,  4-C ) :   1.1364 B(  1-C ,  2-C ) :   1.6177
B(  1-C , 32-H ) :   0.9676 B(  2-C ,  3-C ) :   1.2113 B(  2-C ,  6-C ) :   1.0323
B(  3-C ,  4-C ) :   1.6011 B(  3-C ,  5-H ) :   0.9802 B(  4-C , 20-C ) :   1.0650
B(  6-C ,  7-H ) :   0.9343 B(  6-C ,  8-H ) :   0.9279 B(  6-C ,  9-C ) :   1.0526
B(  9-C , 10-H ) :   0.9631 B(  9-C , 11-H ) :   0.9591 B(  9-C , 12-C ) :   1.0657
B( 12-C , 13-H ) :   0.9761 B( 12-C , 14-H ) :   0.9801 B( 12-C , 15-H ) :   0.9773
B( 16-S , 17-C ) :   1.1495 B( 16-S , 20-C ) :   1.1354 B( 17-C , 18-C ) :   1.6161
B( 17-C , 20-C ) :   0.1096 B( 17-C , 33-H ) :   0.9718 B( 18-C , 19-C ) :   1.2392
B( 18-C , 21-H ) :   0.9823 B( 19-C , 20-C ) :   1.5604 B( 19-C , 22-C ) :   1.0606
B( 22-C , 23-H ) :   0.9319 B( 22-C , 24-H ) :   0.9389 B( 22-C , 25-C ) :   1.0536
B( 25-C , 26-H ) :   0.9568 B( 25-C , 27-H ) :   0.9462 B( 25-C , 28-C ) :   1.0908
B( 28-C , 29-H ) :   0.9714 B( 28-C , 30-H ) :   0.9715 B( 28-C , 31-H ) :   0.9731

Dispersion correction           -0.013800201
FINAL SINGLE POINT ENERGY     -1339.866023232196

DIPOLE MOMENT
-------------
                                X             Y             Z
Electronic contribution:     -1.92047     -27.91363       4.62398
Nuclear contribution   :      2.08860      28.49016      -4.67472
                        -----------------------------------------
Total Dipole Moment    :      0.16813       0.57653      -0.05075
                        -----------------------------------------
Magnitude (a.u.)       :      0.60269
Magnitude (Debye)      :      1.53191

Rotational constants in cm-1:     0.016700     0.008528     0.006757
Rotational constants in MHz :   500.651513   255.664008   202.580296

                             ****ORCA TERMINATED NORMALLY****
TOTAL RUN TIME: 0 days 0 hours 0 minutes 21 seconds 185 msec
