                         Program Version 4.2.1 -  RELEASE  -
|  1> ! wB97X-D3 SP def2-SVP
|  2> %pal
|  3> nprocs 24
|  4> end
|  5>
|  6> * xyz 0 1
|  7> S 	 -88.491 	 -47.1327 	 -82.8981
|  8> C 	 -89.1369 	 -46.1794 	 -81.6613
|  9> C 	 -88.1856 	 -45.6684 	 -80.8096
| 10> C 	 -86.9177 	 -46.2084 	 -81.0973
| 11> C 	 -86.8689 	 -47.0269 	 -82.1862
| 12> H 	 -86.09 	 -45.9478 	 -80.5411
| 13> C 	 -88.5227 	 -44.8354 	 -79.6086
| 14> H 	 -89.3956 	 -44.1729 	 -79.7739
| 15> H 	 -87.6992 	 -44.165 	 -79.5228
| 16> C 	 -88.6376 	 -45.746 	 -78.4162
| 17> H 	 -89.6208 	 -46.2446 	 -78.4097
| 18> H 	 -87.9657 	 -46.5198 	 -78.4602
| 19> C 	 -88.6052 	 -45.0578 	 -77.0091
| 20> H 	 -88.8438 	 -45.7515 	 -76.2143
| 21> H 	 -87.5916 	 -44.746 	 -76.7553
| 22> H 	 -89.2397 	 -44.1586 	 -76.9557
| 23> S 	 -85.796 	 -47.9789 	 -84.4943
| 24> C 	 -84.2517 	 -48.7951 	 -84.3996
| 25> C 	 -83.5937 	 -48.6303 	 -83.186
| 26> C 	 -84.5173 	 -48.0508 	 -82.2455
| 27> C 	 -85.7642 	 -47.7393 	 -82.7906
| 28> H 	 -82.6859 	 -49.0876 	 -83.0183
| 29> C 	 -84.0571 	 -47.8391 	 -80.9073
| 30> H 	 -84.9396 	 -47.763 	 -80.2544
| 31> H 	 -83.5832 	 -46.8671 	 -80.8841
| 32> C 	 -83.0599 	 -48.8774 	 -80.2957
| 33> H 	 -82.1323 	 -48.933 	 -80.8058
| 34> H 	 -83.2876 	 -49.9469 	 -80.3368
| 35> C 	 -82.7031 	 -48.5329 	 -78.8771
| 36> H 	 -83.5547 	 -48.1283 	 -78.3521
| 37> H 	 -81.9151 	 -47.781 	 -78.8026
| 38> H 	 -82.4955 	 -49.3918 	 -78.2182
| 39> H 	 -90.2 	 -45.9302 	 -81.4717
| 40> H 	 -83.8149 	 -49.3738 	 -85.1154
| 41> *
| 42>
| 43>                          ****END OF INPUT****

CARTESIAN COORDINATES (ANGSTROEM)
---------------------------------
  S    -88.491000  -47.132700  -82.898100
  C    -89.136900  -46.179400  -81.661300
  C    -88.185600  -45.668400  -80.809600
  C    -86.917700  -46.208400  -81.097300
  C    -86.868900  -47.026900  -82.186200
  H    -86.090000  -45.947800  -80.541100
  C    -88.522700  -44.835400  -79.608600
  H    -89.395600  -44.172900  -79.773900
  H    -87.699200  -44.165000  -79.522800
  C    -88.637600  -45.746000  -78.416200
  H    -89.620800  -46.244600  -78.409700
  H    -87.965700  -46.519800  -78.460200
  C    -88.605200  -45.057800  -77.009100
  H    -88.843800  -45.751500  -76.214300
  H    -87.591600  -44.746000  -76.755300
  H    -89.239700  -44.158600  -76.955700
  S    -85.796000  -47.978900  -84.494300
  C    -84.251700  -48.795100  -84.399600
  C    -83.593700  -48.630300  -83.186000
  C    -84.517300  -48.050800  -82.245500
  C    -85.764200  -47.739300  -82.790600
  H    -82.685900  -49.087600  -83.018300
  C    -84.057100  -47.839100  -80.907300
  H    -84.939600  -47.763000  -80.254400
  H    -83.583200  -46.867100  -80.884100
  C    -83.059900  -48.877400  -80.295700
  H    -82.132300  -48.933000  -80.805800
  H    -83.287600  -49.946900  -80.336800
  C    -82.703100  -48.532900  -78.877100
  H    -83.554700  -48.128300  -78.352100
  H    -81.915100  -47.781000  -78.802600
  H    -82.495500  -49.391800  -78.218200
  H    -90.200000  -45.930200  -81.471700
  H    -83.814900  -49.373800  -85.115400

 Total Charge           Charge          ....    0
 Multiplicity           Mult            ....    1
 Number of Electrons    NEL             ....  134
 Basis Dimension        Dim             ....  322

ORBITAL ENERGIES
----------------

  NO   OCC          E(Eh)            E(eV)
   0   2.0000     -88.966844     -2420.9109
   1   2.0000     -88.964608     -2420.8501
   2   2.0000     -10.327841      -281.0348
   3   2.0000     -10.322285      -280.8837
   4   2.0000     -10.310102      -280.5521
   5   2.0000     -10.307061      -280.4694
   6   2.0000     -10.297897      -280.2200
   7   2.0000     -10.291699      -280.0514
   8   2.0000     -10.290030      -280.0060
   9   2.0000     -10.289458      -279.9904
  10   2.0000     -10.288269      -279.9580
  11   2.0000     -10.285075      -279.8711
  12   2.0000     -10.285040      -279.8702
  13   2.0000     -10.281341      -279.7695
  14   2.0000     -10.279074      -279.7078
  15   2.0000     -10.275742      -279.6172
  16   2.0000      -8.082081      -219.9246
  17   2.0000      -8.080101      -219.8707
  18   2.0000      -6.040588      -164.3728
  19   2.0000      -6.038573      -164.3179
  20   2.0000      -6.036707      -164.2672
  21   2.0000      -6.034533      -164.2080
  22   2.0000      -6.032639      -164.1565
  23   2.0000      -6.030833      -164.1073
  24   2.0000      -1.013699       -27.5842
  25   2.0000      -0.990589       -26.9553
  26   2.0000      -0.919329       -25.0162
  27   2.0000      -0.915417       -24.9098
  28   2.0000      -0.872663       -23.7464
  29   2.0000      -0.862049       -23.4575
  30   2.0000      -0.849559       -23.1177
  31   2.0000      -0.820968       -22.3397
  32   2.0000      -0.783658       -21.3244
  33   2.0000      -0.768124       -20.9017
  34   2.0000      -0.716925       -19.5085
  35   2.0000      -0.707540       -19.2531
  36   2.0000      -0.701712       -19.0946
  37   2.0000      -0.667390       -18.1606
  38   2.0000      -0.640233       -17.4216
  39   2.0000      -0.633513       -17.2388
  40   2.0000      -0.602245       -16.3879
  41   2.0000      -0.572185       -15.5699
  42   2.0000      -0.568744       -15.4763
  43   2.0000      -0.559440       -15.2231
  44   2.0000      -0.534445       -14.5430
  45   2.0000      -0.530412       -14.4332
  46   2.0000      -0.527703       -14.3595
  47   2.0000      -0.509926       -13.8758
  48   2.0000      -0.504013       -13.7149
  49   2.0000      -0.498652       -13.5690
  50   2.0000      -0.492955       -13.4140
  51   2.0000      -0.488686       -13.2978
  52   2.0000      -0.472948       -12.8696
  53   2.0000      -0.466661       -12.6985
  54   2.0000      -0.458113       -12.4659
  55   2.0000      -0.453806       -12.3487
  56   2.0000      -0.449339       -12.2271
  57   2.0000      -0.440923       -11.9981
  58   2.0000      -0.433676       -11.8009
  59   2.0000      -0.431369       -11.7381
  60   2.0000      -0.424928       -11.5629
  61   2.0000      -0.415663       -11.3108
  62   2.0000      -0.410376       -11.1669
  63   2.0000      -0.360551        -9.8111
  64   2.0000      -0.334636        -9.1059
  65   2.0000      -0.326668        -8.8891
  66   2.0000      -0.278650        -7.5825
  67   0.0000       0.024737         0.6731
  68   0.0000       0.083855         2.2818
  69   0.0000       0.099420         2.7054
  70   0.0000       0.123740         3.3671
  71   0.0000       0.137338         3.7372

MULLIKEN ATOMIC CHARGES
-----------------------
   0 S :    0.111571
   1 C :   -0.110373
   2 C :   -0.127580
   3 C :    0.013431
   4 C :   -0.124656
   5 H :   -0.030829
   6 C :    0.102361
   7 H :    0.028295
   8 H :    0.010411
   9 C :   -0.045631
  10 H :    0.023538
  11 H :    0.009939
  12 C :   -0.047722
  13 H :    0.032295
  14 H :    0.021073
  15 H :    0.035091
  16 S :    0.106584
  17 C :   -0.043142
  18 C :   -0.008207
  19 C :   -0.075786
  20 C :   -0.074174
  21 H :   -0.004769
  22 C :    0.043571
  23 H :    0.032175
  24 H :    0.043164
  25 C :   -0.060514
  26 H :    0.016433
  27 H :    0.027634
  28 C :   -0.044711
  29 H :    0.010746
  30 H :    0.032863
  31 H :    0.032649
  32 H :    0.050203
  33 H :    0.014066
Sum of atomic charges:   -0.0000000

LOEWDIN ATOMIC CHARGES
----------------------
   0 S :    0.413686
   1 C :   -0.217441
   2 C :   -0.065934
   3 C :   -0.061481
   4 C :   -0.176949
   5 H :    0.016100
   6 C :   -0.028769
   7 H :    0.034377
   8 H :    0.025438
   9 C :   -0.033056
  10 H :    0.029314
  11 H :    0.013086
  12 C :   -0.066696
  13 H :    0.025417
  14 H :    0.019961
  15 H :    0.026408
  16 S :    0.414428
  17 C :   -0.161055
  18 C :   -0.051999
  19 C :   -0.055936
  20 C :   -0.210417
  21 H :    0.019784
  22 C :   -0.035842
  23 H :    0.033485
  24 H :    0.039711
  25 C :   -0.045116
  26 H :    0.018519
  27 H :    0.029315
  28 C :   -0.068203
  29 H :    0.020644
  30 H :    0.024385
  31 H :    0.031282
  32 H :    0.035965
  33 H :    0.007585

  Mayer bond orders larger than 0.100000
B(  0-S ,  1-C ) :   1.1520 B(  0-S ,  4-C ) :   1.1379 B(  1-C ,  2-C ) :   1.6101
B(  1-C , 32-H ) :   0.9567 B(  2-C ,  3-C ) :   1.2620 B(  2-C ,  6-C ) :   1.0346
B(  3-C ,  4-C ) :   1.5510 B(  3-C ,  5-H ) :   1.0062 B(  4-C , 20-C ) :   1.0696
B(  6-C ,  7-H ) :   0.9352 B(  6-C ,  8-H ) :   0.9328 B(  6-C ,  9-C ) :   1.0609
B(  9-C , 10-H ) :   0.9517 B(  9-C , 11-H ) :   0.9595 B(  9-C , 12-C ) :   1.0779
B( 12-C , 13-H ) :   0.9753 B( 12-C , 14-H ) :   0.9768 B( 12-C , 15-H ) :   0.9754
B( 16-S , 17-C ) :   1.1537 B( 16-S , 20-C ) :   1.1241 B( 17-C , 18-C ) :   1.6167
B( 17-C , 33-H ) :   0.9742 B( 18-C , 19-C ) :   1.2255 B( 18-C , 21-H ) :   0.9978
B( 19-C , 20-C ) :   1.5859 B( 19-C , 22-C ) :   1.0844 B( 22-C , 23-H ) :   0.9245
B( 22-C , 24-H ) :   0.9121 B( 22-C , 25-C ) :   1.0534 B( 25-C , 26-H ) :   0.9431
B( 25-C , 27-H ) :   0.9603 B( 25-C , 28-C ) :   1.0881 B( 28-C , 29-H ) :   0.9713
B( 28-C , 30-H ) :   0.9766 B( 28-C , 31-H ) :   0.9724

Dispersion correction           -0.013593727
FINAL SINGLE POINT ENERGY     -1339.863193394064

DIPOLE MOMENT
-------------
                                X             Y             Z
Electronic contribution:     -7.85550      -4.27551     -31.69601
Nuclear contribution   :      8.22019       4.33525      32.34697
                        -----------------------------------------
Total Dipole Moment    :      0.36469       0.05974       0.65096
                        -----------------------------------------
Magnitude (a.u.)       :      0.74854
Magnitude (Debye)      :      1.90265

Rotational constants in cm-1:     0.016728     0.009372     0.006200
Rotational constants in MHz :   501.499777   280.960188   185.858397

                             ****ORCA TERMINATED NORMALLY****
TOTAL RUN TIME: 0 days 0 hours 0 minutes 21 seconds 657 msec
