                         Program Version 4.2.1 -  RELEASE  -
|  1> ! wB97X-D3 SP def2-SVP
|  2> %pal
|  3> nprocs 24
|  4> end
|  5>
|  6> * xyz 0 1
|  7> S 	 44.696 	 -9.66565 	 -104.637
|  8> C 	 46.0163 	 -9.22439 	 -105.743
|  9> C 	 45.8112 	 -9.80407 	 -107.003
| 10> C 	 44.4963 	 -10.4603 	 -107.132
| 11> C 	 43.8285 	 -10.5193 	 -105.924
| 12> H 	 44.1745 	 -10.9199 	 -108.022
| 13> C 	 46.6762 	 -9.50618 	 -108.194
| 14> H 	 47.1204 	 -8.55717 	 -107.869
| 15> H 	 45.9115 	 -9.29454 	 -108.969
| 16> C 	 47.7013 	 -10.6012 	 -108.567
| 17> H 	 48.6649 	 -10.4606 	 -108.179
| 18> H 	 47.484 	 -11.5993 	 -108.137
| 19> C 	 47.7981 	 -10.6565 	 -110.127
| 20> H 	 48.768 	 -11.0914 	 -110.343
| 21> H 	 47.0744 	 -11.4174 	 -110.407
| 22> H 	 47.7905 	 -9.6315 	 -110.62
| 23> S 	 42.4357 	 -12.8759 	 -105.682
| 24> C 	 40.7683 	 -12.8094 	 -105.169
| 25> C 	 40.2371 	 -11.5119 	 -105.156
| 26> C 	 41.2934 	 -10.6025 	 -105.595
| 27> C 	 42.5645 	 -11.1357 	 -105.6
| 28> H 	 39.2239 	 -11.236 	 -105.047
| 29> C 	 40.8771 	 -9.10457 	 -105.633
| 30> H 	 41.6387 	 -8.46376 	 -105.127
| 31> H 	 39.9184 	 -9.16007 	 -105.113
| 32> C 	 40.5348 	 -8.60578 	 -107.02
| 33> H 	 40.2151 	 -7.51497 	 -106.946
| 34> H 	 39.7305 	 -9.14753 	 -107.321
| 35> C 	 41.7504 	 -8.72019 	 -108.004
| 36> H 	 41.5586 	 -8.11685 	 -108.932
| 37> H 	 41.9475 	 -9.7669 	 -108.382
| 38> H 	 42.7165 	 -8.34059 	 -107.587
| 39> H 	 46.8623 	 -8.60444 	 -105.508
| 40> H 	 40.1708 	 -13.6657 	 -104.859
| 41> *
| 42>
| 43>                          ****END OF INPUT****

CARTESIAN COORDINATES (ANGSTROEM)
---------------------------------
  S     44.696000   -9.665650  -104.637000
  C     46.016300   -9.224390  -105.743000
  C     45.811200   -9.804070  -107.003000
  C     44.496300  -10.460300  -107.132000
  C     43.828500  -10.519300  -105.924000
  H     44.174500  -10.919900  -108.022000
  C     46.676200   -9.506180  -108.194000
  H     47.120400   -8.557170  -107.869000
  H     45.911500   -9.294540  -108.969000
  C     47.701300  -10.601200  -108.567000
  H     48.664900  -10.460600  -108.179000
  H     47.484000  -11.599300  -108.137000
  C     47.798100  -10.656500  -110.127000
  H     48.768000  -11.091400  -110.343000
  H     47.074400  -11.417400  -110.407000
  H     47.790500   -9.631500  -110.620000
  S     42.435700  -12.875900  -105.682000
  C     40.768300  -12.809400  -105.169000
  C     40.237100  -11.511900  -105.156000
  C     41.293400  -10.602500  -105.595000
  C     42.564500  -11.135700  -105.600000
  H     39.223900  -11.236000  -105.047000
  C     40.877100   -9.104570  -105.633000
  H     41.638700   -8.463760  -105.127000
  H     39.918400   -9.160070  -105.113000
  C     40.534800   -8.605780  -107.020000
  H     40.215100   -7.514970  -106.946000
  H     39.730500   -9.147530  -107.321000
  C     41.750400   -8.720190  -108.004000
  H     41.558600   -8.116850  -108.932000
  H     41.947500   -9.766900  -108.382000
  H     42.716500   -8.340590  -107.587000
  H     46.862300   -8.604440  -105.508000
  H     40.170800  -13.665700  -104.859000

 Total Charge           Charge          ....    0
 Multiplicity           Mult            ....    1
 Number of Electrons    NEL             ....  134
 Basis Dimension        Dim             ....  322

ORBITAL ENERGIES
----------------

  NO   OCC          E(Eh)            E(eV)
   0   2.0000     -88.966314     -2420.8965
   1   2.0000     -88.964801     -2420.8553
   2   2.0000     -10.330018      -281.0941
   3   2.0000     -10.321699      -280.8677
   4   2.0000     -10.321314      -280.8572
   5   2.0000     -10.315136      -280.6891
   6   2.0000     -10.304300      -280.3943
   7   2.0000     -10.302497      -280.3452
   8   2.0000     -10.296386      -280.1789
   9   2.0000     -10.295749      -280.1616
  10   2.0000     -10.293215      -280.0926
  11   2.0000     -10.289129      -279.9814
  12   2.0000     -10.286098      -279.8990
  13   2.0000     -10.282827      -279.8099
  14   2.0000     -10.282459      -279.7999
  15   2.0000     -10.281295      -279.7683
  16   2.0000      -8.081186      -219.9002
  17   2.0000      -8.078521      -219.8277
  18   2.0000      -6.039744      -164.3498
  19   2.0000      -6.037181      -164.2801
  20   2.0000      -6.035787      -164.2421
  21   2.0000      -6.033102      -164.1691
  22   2.0000      -6.031771      -164.1328
  23   2.0000      -6.029248      -164.0642
  24   2.0000      -1.002871       -27.2895
  25   2.0000      -0.976537       -26.5729
  26   2.0000      -0.908904       -24.7325
  27   2.0000      -0.905272       -24.6337
  28   2.0000      -0.867792       -23.6138
  29   2.0000      -0.845941       -23.0192
  30   2.0000      -0.838006       -22.8033
  31   2.0000      -0.813164       -22.1273
  32   2.0000      -0.775742       -21.1090
  33   2.0000      -0.764240       -20.7960
  34   2.0000      -0.706825       -19.2337
  35   2.0000      -0.702151       -19.1065
  36   2.0000      -0.685952       -18.6657
  37   2.0000      -0.667766       -18.1708
  38   2.0000      -0.641188       -17.4476
  39   2.0000      -0.615180       -16.7399
  40   2.0000      -0.590097       -16.0574
  41   2.0000      -0.566965       -15.4279
  42   2.0000      -0.558936       -15.2094
  43   2.0000      -0.548194       -14.9171
  44   2.0000      -0.538740       -14.6599
  45   2.0000      -0.528059       -14.3692
  46   2.0000      -0.518281       -14.1031
  47   2.0000      -0.506165       -13.7734
  48   2.0000      -0.502369       -13.6701
  49   2.0000      -0.499066       -13.5803
  50   2.0000      -0.492537       -13.4026
  51   2.0000      -0.469322       -12.7709
  52   2.0000      -0.463662       -12.6169
  53   2.0000      -0.462185       -12.5767
  54   2.0000      -0.452593       -12.3157
  55   2.0000      -0.450146       -12.2491
  56   2.0000      -0.446912       -12.1611
  57   2.0000      -0.437793       -11.9130
  58   2.0000      -0.429922       -11.6988
  59   2.0000      -0.420201       -11.4342
  60   2.0000      -0.416204       -11.3255
  61   2.0000      -0.407615       -11.0918
  62   2.0000      -0.406260       -11.0549
  63   2.0000      -0.331946        -9.0327
  64   2.0000      -0.329627        -8.9696
  65   2.0000      -0.321760        -8.7555
  66   2.0000      -0.304503        -8.2859
  67   0.0000       0.039362         1.0711
  68   0.0000       0.053213         1.4480
  69   0.0000       0.103241         2.8093
  70   0.0000       0.116867         3.1801
  71   0.0000       0.123468         3.3597

MULLIKEN ATOMIC CHARGES
-----------------------
   0 S :    0.105725
   1 C :   -0.117522
   2 C :   -0.133247
   3 C :    0.061250
   4 C :   -0.168458
   5 H :    0.000343
   6 C :    0.050839
   7 H :    0.025960
   8 H :    0.040219
   9 C :   -0.041322
  10 H :    0.014302
  11 H :    0.035161
  12 C :   -0.080406
  13 H :    0.021809
  14 H :    0.044870
  15 H :    0.058568
  16 S :    0.116470
  17 C :   -0.085993
  18 C :   -0.010802
  19 C :   -0.057864
  20 C :   -0.155768
  21 H :    0.016871
  22 C :    0.050200
  23 H :    0.043642
  24 H :    0.012729
  25 C :   -0.021366
  26 H :    0.040988
  27 H :   -0.001444
  28 C :   -0.099402
  29 H :    0.032865
  30 H :    0.040718
  31 H :    0.052842
  32 H :    0.046660
  33 H :    0.060559
Sum of atomic charges:    0.0000000

LOEWDIN ATOMIC CHARGES
----------------------
   0 S :    0.388497
   1 C :   -0.198425
   2 C :   -0.059010
   3 C :   -0.052298
   4 C :   -0.184951
   5 H :    0.022536
   6 C :   -0.036617
   7 H :    0.035150
   8 H :    0.037245
   9 C :   -0.039485
  10 H :    0.015986
  11 H :    0.029450
  12 C :   -0.069882
  13 H :    0.021573
  14 H :    0.028680
  15 H :    0.036625
  16 S :    0.412871
  17 C :   -0.178952
  18 C :   -0.069243
  19 C :   -0.043861
  20 C :   -0.218965
  21 H :    0.026106
  22 C :   -0.030839
  23 H :    0.031053
  24 H :    0.028485
  25 C :   -0.034554
  26 H :    0.033643
  27 H :    0.007810
  28 C :   -0.078161
  29 H :    0.026322
  30 H :    0.027365
  31 H :    0.029766
  32 H :    0.026134
  33 H :    0.029944

  Mayer bond orders larger than 0.100000
B(  0-S ,  1-C ) :   1.1210 B(  0-S ,  4-C ) :   1.1449 B(  1-C ,  2-C ) :   1.6332
B(  1-C , 32-H ) :   0.9679 B(  2-C ,  3-C ) :   1.2048 B(  2-C ,  6-C ) :   1.0177
B(  3-C ,  4-C ) :   1.6046 B(  3-C ,  5-H ) :   0.9999 B(  4-C , 20-C ) :   1.0212
B(  6-C ,  7-H ) :   0.9398 B(  6-C ,  8-H ) :   0.9557 B(  6-C ,  9-C ) :   1.0243
B(  9-C , 10-H ) :   0.9577 B(  9-C , 11-H ) :   0.9668 B(  9-C , 12-C ) :   1.0668
B( 12-C , 13-H ) :   0.9764 B( 12-C , 14-H ) :   0.9811 B( 12-C , 15-H ) :   0.9759
B( 16-S , 17-C ) :   1.1714 B( 16-S , 20-C ) :   1.1185 B( 17-C , 18-C ) :   1.6041
B( 17-C , 33-H ) :   0.9639 B( 18-C , 19-C ) :   1.2377 B( 18-C , 21-H ) :   0.9866
B( 19-C , 20-C ) :   1.6077 B( 19-C , 22-C ) :   1.0243 B( 22-C , 23-H ) :   0.9448
B( 22-C , 24-H ) :   0.9379 B( 22-C , 25-C ) :   1.0795 B( 25-C , 26-H ) :   0.9549
B( 25-C , 27-H ) :   0.9502 B( 25-C , 28-C ) :   1.0719 B( 28-C , 29-H ) :   0.9736
B( 28-C , 30-H ) :   0.9711 B( 28-C , 31-H ) :   0.9732

Dispersion correction           -0.015662437
FINAL SINGLE POINT ENERGY     -1339.853083551009

DIPOLE MOMENT
-------------
                                X             Y             Z
Electronic contribution:     -5.60857     -10.61646      20.01904
Nuclear contribution   :      5.55768      10.80382     -20.46163
                        -----------------------------------------
Total Dipole Moment    :     -0.05089       0.18736      -0.44259
                        -----------------------------------------
Magnitude (a.u.)       :      0.48330
Magnitude (Debye)      :      1.22845

Rotational constants in cm-1:     0.020858     0.008019     0.007575
Rotational constants in MHz :   625.298525   240.409452   227.107483

                             ****ORCA TERMINATED NORMALLY****
TOTAL RUN TIME: 0 days 0 hours 0 minutes 21 seconds 66 msec
