                         Program Version 4.2.1 -  RELEASE  -
|  1> ! wB97X-D3 SP def2-SVP
|  2> %pal
|  3> nprocs 24
|  4> end
|  5>
|  6> * xyz 0 1
|  7> S 	 -62.8457 	 13.1133 	 -94.6391
|  8> C 	 -63.4876 	 14.6194 	 -95.0051
|  9> C 	 -63.0021 	 15.5302 	 -94.1531
| 10> C 	 -62.1565 	 14.9573 	 -93.1099
| 11> C 	 -61.9669 	 13.6318 	 -93.2578
| 12> H 	 -61.6951 	 15.5654 	 -92.3072
| 13> C 	 -63.5004 	 16.9441 	 -94.0317
| 14> H 	 -63.7559 	 16.9755 	 -92.9761
| 15> H 	 -64.3903 	 17.0027 	 -94.6613
| 16> C 	 -62.4754 	 18.1469 	 -94.3367
| 17> H 	 -62.9699 	 19.1159 	 -94.242
| 18> H 	 -61.6183 	 18.2094 	 -93.7008
| 19> C 	 -61.896 	 18.1554 	 -95.7897
| 20> H 	 -61.0877 	 18.9312 	 -96.0419
| 21> H 	 -61.465 	 17.2193 	 -95.8932
| 22> H 	 -62.6254 	 18.3427 	 -96.5338
| 23> S 	 -62.0523 	 10.9957 	 -92.1996
| 24> C 	 -60.8921 	 10.5633 	 -91.0434
| 25> C 	 -60.0004 	 11.6157 	 -90.6996
| 26> C 	 -60.232 	 12.7911 	 -91.5126
| 27> C 	 -61.3643 	 12.6513 	 -92.2995
| 28> H 	 -59.2562 	 11.5138 	 -89.9216
| 29> C 	 -59.3899 	 14.0231 	 -91.2451
| 30> H 	 -59.6445 	 14.6711 	 -92.0667
| 31> H 	 -58.2672 	 13.6996 	 -91.4294
| 32> C 	 -59.5192 	 14.7144 	 -89.895
| 33> H 	 -59.0102 	 14.0262 	 -89.2332
| 34> H 	 -60.6045 	 14.7037 	 -89.5232
| 35> C 	 -58.8593 	 16.0969 	 -89.7972
| 36> H 	 -59.2553 	 16.7236 	 -90.5535
| 37> H 	 -57.8099 	 16.0794 	 -90.0902
| 38> H 	 -58.8981 	 16.5459 	 -88.8035
| 39> H 	 -64.171 	 14.8113 	 -95.8231
| 40> H 	 -60.7861 	 9.61434 	 -90.5544
| 41> *
| 42>
| 43>                          ****END OF INPUT****

CARTESIAN COORDINATES (ANGSTROEM)
---------------------------------
  S    -62.845700   13.113300  -94.639100
  C    -63.487600   14.619400  -95.005100
  C    -63.002100   15.530200  -94.153100
  C    -62.156500   14.957300  -93.109900
  C    -61.966900   13.631800  -93.257800
  H    -61.695100   15.565400  -92.307200
  C    -63.500400   16.944100  -94.031700
  H    -63.755900   16.975500  -92.976100
  H    -64.390300   17.002700  -94.661300
  C    -62.475400   18.146900  -94.336700
  H    -62.969900   19.115900  -94.242000
  H    -61.618300   18.209400  -93.700800
  C    -61.896000   18.155400  -95.789700
  H    -61.087700   18.931200  -96.041900
  H    -61.465000   17.219300  -95.893200
  H    -62.625400   18.342700  -96.533800
  S    -62.052300   10.995700  -92.199600
  C    -60.892100   10.563300  -91.043400
  C    -60.000400   11.615700  -90.699600
  C    -60.232000   12.791100  -91.512600
  C    -61.364300   12.651300  -92.299500
  H    -59.256200   11.513800  -89.921600
  C    -59.389900   14.023100  -91.245100
  H    -59.644500   14.671100  -92.066700
  H    -58.267200   13.699600  -91.429400
  C    -59.519200   14.714400  -89.895000
  H    -59.010200   14.026200  -89.233200
  H    -60.604500   14.703700  -89.523200
  C    -58.859300   16.096900  -89.797200
  H    -59.255300   16.723600  -90.553500
  H    -57.809900   16.079400  -90.090200
  H    -58.898100   16.545900  -88.803500
  H    -64.171000   14.811300  -95.823100
  H    -60.786100    9.614340  -90.554400

 Total Charge           Charge          ....    0
 Multiplicity           Mult            ....    1
 Number of Electrons    NEL             ....  134
 Basis Dimension        Dim             ....  322

ORBITAL ENERGIES
----------------

  NO   OCC          E(Eh)            E(eV)
   0   2.0000     -88.972167     -2421.0558
   1   2.0000     -88.958889     -2420.6944
   2   2.0000     -10.334697      -281.2214
   3   2.0000     -10.328134      -281.0428
   4   2.0000     -10.318344      -280.7764
   5   2.0000     -10.306614      -280.4572
   6   2.0000     -10.305869      -280.4369
   7   2.0000     -10.300232      -280.2836
   8   2.0000     -10.296878      -280.1923
   9   2.0000     -10.296815      -280.1906
  10   2.0000     -10.295281      -280.1488
  11   2.0000     -10.294955      -280.1400
  12   2.0000     -10.293334      -280.0959
  13   2.0000     -10.290852      -280.0283
  14   2.0000     -10.280184      -279.7380
  15   2.0000     -10.271298      -279.4962
  16   2.0000      -8.086869      -220.0549
  17   2.0000      -8.076158      -219.7634
  18   2.0000      -6.045408      -164.5039
  19   2.0000      -6.041365      -164.3939
  20   2.0000      -6.037611      -164.2917
  21   2.0000      -6.034641      -164.2109
  22   2.0000      -6.030215      -164.0905
  23   2.0000      -6.026874      -163.9996
  24   2.0000      -1.017138       -27.6777
  25   2.0000      -0.989546       -26.9269
  26   2.0000      -0.912340       -24.8260
  27   2.0000      -0.903569       -24.5874
  28   2.0000      -0.870266       -23.6811
  29   2.0000      -0.855545       -23.2806
  30   2.0000      -0.845482       -23.0067
  31   2.0000      -0.815285       -22.1850
  32   2.0000      -0.785262       -21.3681
  33   2.0000      -0.772767       -21.0281
  34   2.0000      -0.709854       -19.3161
  35   2.0000      -0.701250       -19.0820
  36   2.0000      -0.694379       -18.8950
  37   2.0000      -0.660845       -17.9825
  38   2.0000      -0.642574       -17.4853
  39   2.0000      -0.622440       -16.9374
  40   2.0000      -0.593157       -16.1406
  41   2.0000      -0.566693       -15.4205
  42   2.0000      -0.561823       -15.2880
  43   2.0000      -0.545633       -14.8474
  44   2.0000      -0.544000       -14.8030
  45   2.0000      -0.530010       -14.4223
  46   2.0000      -0.516701       -14.0602
  47   2.0000      -0.515985       -14.0407
  48   2.0000      -0.507474       -13.8091
  49   2.0000      -0.501150       -13.6370
  50   2.0000      -0.491326       -13.3696
  51   2.0000      -0.480123       -13.0648
  52   2.0000      -0.473070       -12.8729
  53   2.0000      -0.465419       -12.6647
  54   2.0000      -0.461794       -12.5661
  55   2.0000      -0.452164       -12.3040
  56   2.0000      -0.445562       -12.1243
  57   2.0000      -0.438310       -11.9270
  58   2.0000      -0.432316       -11.7639
  59   2.0000      -0.427689       -11.6380
  60   2.0000      -0.423825       -11.5329
  61   2.0000      -0.412568       -11.2266
  62   2.0000      -0.407333       -11.0841
  63   2.0000      -0.361978        -9.8499
  64   2.0000      -0.332723        -9.0539
  65   2.0000      -0.323961        -8.8154
  66   2.0000      -0.292603        -7.9621
  67   0.0000       0.031033         0.8444
  68   0.0000       0.082841         2.2542
  69   0.0000       0.110077         2.9953
  70   0.0000       0.115051         3.1307
  71   0.0000       0.127752         3.4763

MULLIKEN ATOMIC CHARGES
-----------------------
   0 S :    0.090953
   1 C :   -0.118006
   2 C :   -0.098747
   3 C :   -0.017175
   4 C :   -0.106461
   5 H :    0.024856
   6 C :    0.062636
   7 H :    0.039843
   8 H :    0.021908
   9 C :   -0.058882
  10 H :    0.029756
  11 H :    0.024333
  12 C :   -0.069096
  13 H :    0.039108
  14 H :    0.027802
  15 H :    0.021140
  16 S :    0.128500
  17 C :   -0.082342
  18 C :   -0.045290
  19 C :   -0.047380
  20 C :   -0.135866
  21 H :    0.020175
  22 C :    0.015916
  23 H :    0.013072
  24 H :    0.049290
  25 C :   -0.074241
  26 H :    0.021118
  27 H :    0.049290
  28 C :   -0.015687
  29 H :    0.016600
  30 H :    0.021100
  31 H :    0.047164
  32 H :    0.050836
  33 H :    0.053776
Sum of atomic charges:    0.0000000

LOEWDIN ATOMIC CHARGES
----------------------
   0 S :    0.430789
   1 C :   -0.214763
   2 C :   -0.075442
   3 C :   -0.075355
   4 C :   -0.195819
   5 H :    0.034499
   6 C :   -0.024989
   7 H :    0.037227
   8 H :    0.030402
   9 C :   -0.036632
  10 H :    0.023625
  11 H :    0.019077
  12 C :   -0.067385
  13 H :    0.035051
  14 H :    0.014260
  15 H :    0.015635
  16 S :    0.418095
  17 C :   -0.198928
  18 C :   -0.070634
  19 C :   -0.053145
  20 C :   -0.185950
  21 H :    0.028310
  22 C :   -0.040388
  23 H :    0.019916
  24 H :    0.045560
  25 C :   -0.046955
  26 H :    0.020926
  27 H :    0.034991
  28 C :   -0.063217
  29 H :    0.019414
  30 H :    0.027886
  31 H :    0.031891
  32 H :    0.033941
  33 H :    0.028106

  Mayer bond orders larger than 0.100000
B(  0-S ,  1-C ) :   1.1401 B(  0-S ,  4-C ) :   1.1562 B(  1-C ,  2-C ) :   1.6167
B(  1-C , 32-H ) :   0.9696 B(  2-C ,  3-C ) :   1.2319 B(  2-C ,  6-C ) :   1.0200
B(  3-C ,  4-C ) :   1.5847 B(  3-C ,  5-H ) :   0.9897 B(  4-C , 20-C ) :   1.0274
B(  6-C ,  7-H ) :   0.9434 B(  6-C ,  8-H ) :   0.9493 B(  6-C ,  9-C ) :   1.0528
B(  9-C , 10-H ) :   0.9622 B(  9-C , 11-H ) :   0.9623 B(  9-C , 12-C ) :   1.0635
B( 12-C , 13-H ) :   0.9762 B( 12-C , 14-H ) :   0.9800 B( 12-C , 15-H ) :   0.9787
B( 16-S , 17-C ) :   1.1731 B( 16-S , 20-C ) :   1.1265 B( 17-C , 18-C ) :   1.5971
B( 17-C , 33-H ) :   0.9671 B( 18-C , 19-C ) :   1.2315 B( 18-C , 21-H ) :   0.9903
B( 19-C , 20-C ) :   1.6081 B( 19-C , 22-C ) :   1.0516 B( 22-C , 23-H ) :   0.9332
B( 22-C , 24-H ) :   0.9287 B( 22-C , 25-C ) :   1.0498 B( 25-C , 26-H ) :   0.9478
B( 25-C , 27-H ) :   0.9565 B( 25-C , 28-C ) :   1.0829 B( 28-C , 29-H ) :   0.9750
B( 28-C , 30-H ) :   0.9689 B( 28-C , 31-H ) :   0.9739

Dispersion correction           -0.014044568
FINAL SINGLE POINT ENERGY     -1339.872084246905

DIPOLE MOMENT
-------------
                                X             Y             Z
Electronic contribution:    -10.55126     -28.84931      -5.15351
Nuclear contribution   :     10.75576      29.31985       5.52579
                        -----------------------------------------
Total Dipole Moment    :      0.20450       0.47054       0.37228
                        -----------------------------------------
Magnitude (a.u.)       :      0.63389
Magnitude (Debye)      :      1.61123

Rotational constants in cm-1:     0.017327     0.009378     0.006412
Rotational constants in MHz :   519.462165   281.145887   192.219421

                             ****ORCA TERMINATED NORMALLY****
TOTAL RUN TIME: 0 days 0 hours 0 minutes 21 seconds 393 msec
