                         Program Version 4.2.1 -  RELEASE  -
|  1> ! wB97X-D3 SP def2-SVP
|  2> %pal
|  3> nprocs 24
|  4> end
|  5>
|  6> * xyz 0 1
|  7> S 	 -60.7861 	 8.1692 	 -12.7177
|  8> C 	 -59.8338 	 6.68327 	 -12.8566
|  9> C 	 -60.624 	 5.56054 	 -12.6205
| 10> C 	 -62.065 	 5.82761 	 -12.5563
| 11> C 	 -62.2734 	 7.18555 	 -12.5498
| 12> H 	 -62.8835 	 5.10116 	 -12.4925
| 13> C 	 -60.1571 	 4.13682 	 -12.7639
| 14> H 	 -60.9842 	 3.47224 	 -12.65
| 15> H 	 -59.4686 	 3.90998 	 -11.9658
| 16> C 	 -59.5895 	 3.84471 	 -14.204
| 17> H 	 -60.4129 	 4.01411 	 -14.9257
| 18> H 	 -58.7878 	 4.54057 	 -14.5062
| 19> C 	 -59.1485 	 2.40361 	 -14.4266
| 20> H 	 -59.9362 	 1.68736 	 -14.4599
| 21> H 	 -58.496 	 2.33954 	 -15.3043
| 22> H 	 -58.3809 	 2.19621 	 -13.6626
| 23> S 	 -63.5865 	 9.11258 	 -10.9947
| 24> C 	 -65.3271 	 9.13423 	 -11.0724
| 25> C 	 -65.8426 	 8.29185 	 -12.0374
| 26> C 	 -64.8693 	 7.47156 	 -12.6296
| 27> C 	 -63.5762 	 7.77182 	 -12.2042
| 28> H 	 -66.9212 	 8.26735 	 -12.1118
| 29> C 	 -65.1943 	 6.61399 	 -13.8378
| 30> H 	 -64.2764 	 6.195 	 -14.3474
| 31> H 	 -65.6385 	 7.25109 	 -14.5573
| 32> C 	 -66.2741 	 5.54823 	 -13.6971
| 33> H 	 -66.475 	 5.24893 	 -14.7205
| 34> H 	 -67.1651 	 6.04083 	 -13.3833
| 35> C 	 -65.8532 	 4.44044 	 -12.771
| 36> H 	 -65.0981 	 3.85557 	 -13.2214
| 37> H 	 -66.6829 	 3.7451 	 -12.5727
| 38> H 	 -65.5088 	 4.86244 	 -11.8226
| 39> H 	 -58.7483 	 6.49603 	 -13.0464
| 40> H 	 -65.9307 	 9.81301 	 -10.5371
| 41> *
| 42>
| 43>                          ****END OF INPUT****

CARTESIAN COORDINATES (ANGSTROEM)
---------------------------------
  S    -60.786100    8.169200  -12.717700
  C    -59.833800    6.683270  -12.856600
  C    -60.624000    5.560540  -12.620500
  C    -62.065000    5.827610  -12.556300
  C    -62.273400    7.185550  -12.549800
  H    -62.883500    5.101160  -12.492500
  C    -60.157100    4.136820  -12.763900
  H    -60.984200    3.472240  -12.650000
  H    -59.468600    3.909980  -11.965800
  C    -59.589500    3.844710  -14.204000
  H    -60.412900    4.014110  -14.925700
  H    -58.787800    4.540570  -14.506200
  C    -59.148500    2.403610  -14.426600
  H    -59.936200    1.687360  -14.459900
  H    -58.496000    2.339540  -15.304300
  H    -58.380900    2.196210  -13.662600
  S    -63.586500    9.112580  -10.994700
  C    -65.327100    9.134230  -11.072400
  C    -65.842600    8.291850  -12.037400
  C    -64.869300    7.471560  -12.629600
  C    -63.576200    7.771820  -12.204200
  H    -66.921200    8.267350  -12.111800
  C    -65.194300    6.613990  -13.837800
  H    -64.276400    6.195000  -14.347400
  H    -65.638500    7.251090  -14.557300
  C    -66.274100    5.548230  -13.697100
  H    -66.475000    5.248930  -14.720500
  H    -67.165100    6.040830  -13.383300
  C    -65.853200    4.440440  -12.771000
  H    -65.098100    3.855570  -13.221400
  H    -66.682900    3.745100  -12.572700
  H    -65.508800    4.862440  -11.822600
  H    -58.748300    6.496030  -13.046400
  H    -65.930700    9.813010  -10.537100

 Total Charge           Charge          ....    0
 Multiplicity           Mult            ....    1
 Number of Electrons    NEL             ....  134
 Basis Dimension        Dim             ....  322

ORBITAL ENERGIES
----------------

  NO   OCC          E(Eh)            E(eV)
   0   2.0000     -88.972269     -2421.0585
   1   2.0000     -88.965781     -2420.8820
   2   2.0000     -10.332850      -281.1711
   3   2.0000     -10.330713      -281.1130
   4   2.0000     -10.318554      -280.7821
   5   2.0000     -10.312786      -280.6252
   6   2.0000     -10.302566      -280.3471
   7   2.0000     -10.302295      -280.3397
   8   2.0000     -10.297790      -280.2171
   9   2.0000     -10.291605      -280.0488
  10   2.0000     -10.291011      -280.0326
  11   2.0000     -10.288496      -279.9642
  12   2.0000     -10.287419      -279.9349
  13   2.0000     -10.280587      -279.7490
  14   2.0000     -10.277153      -279.6556
  15   2.0000     -10.273678      -279.5610
  16   2.0000      -8.085478      -220.0170
  17   2.0000      -8.079897      -219.8652
  18   2.0000      -6.044323      -164.4744
  19   2.0000      -6.040328      -164.3657
  20   2.0000      -6.038338      -164.3115
  21   2.0000      -6.035843      -164.2437
  22   2.0000      -6.034596      -164.2097
  23   2.0000      -6.030679      -164.1031
  24   2.0000      -1.000374       -27.2216
  25   2.0000      -0.978148       -26.6168
  26   2.0000      -0.915583       -24.9143
  27   2.0000      -0.907718       -24.7003
  28   2.0000      -0.866155       -23.5693
  29   2.0000      -0.853641       -23.2287
  30   2.0000      -0.846974       -23.0473
  31   2.0000      -0.813417       -22.1342
  32   2.0000      -0.785533       -21.3754
  33   2.0000      -0.770433       -20.9645
  34   2.0000      -0.707907       -19.2631
  35   2.0000      -0.701181       -19.0801
  36   2.0000      -0.692326       -18.8392
  37   2.0000      -0.657265       -17.8851
  38   2.0000      -0.632829       -17.2202
  39   2.0000      -0.614838       -16.7306
  40   2.0000      -0.599169       -16.3042
  41   2.0000      -0.573983       -15.6189
  42   2.0000      -0.559705       -15.2304
  43   2.0000      -0.554048       -15.0764
  44   2.0000      -0.545363       -14.8401
  45   2.0000      -0.523268       -14.2388
  46   2.0000      -0.515521       -14.0280
  47   2.0000      -0.513188       -13.9645
  48   2.0000      -0.502672       -13.6784
  49   2.0000      -0.496954       -13.5228
  50   2.0000      -0.488973       -13.3056
  51   2.0000      -0.478004       -13.0072
  52   2.0000      -0.476226       -12.9588
  53   2.0000      -0.467986       -12.7346
  54   2.0000      -0.460087       -12.5196
  55   2.0000      -0.450061       -12.2468
  56   2.0000      -0.447192       -12.1687
  57   2.0000      -0.430535       -11.7154
  58   2.0000      -0.428642       -11.6639
  59   2.0000      -0.424593       -11.5538
  60   2.0000      -0.423001       -11.5105
  61   2.0000      -0.418902       -11.3989
  62   2.0000      -0.414548       -11.2804
  63   2.0000      -0.352381        -9.5888
  64   2.0000      -0.333233        -9.0677
  65   2.0000      -0.327944        -8.9238
  66   2.0000      -0.284328        -7.7370
  67   0.0000       0.027106         0.7376
  68   0.0000       0.066053         1.7974
  69   0.0000       0.104558         2.8452
  70   0.0000       0.121868         3.3162
  71   0.0000       0.126041         3.4297

MULLIKEN ATOMIC CHARGES
-----------------------
   0 S :    0.114570
   1 C :   -0.124973
   2 C :   -0.099954
   3 C :    0.014872
   4 C :   -0.126133
   5 H :    0.019529
   6 C :    0.084551
   7 H :    0.006959
   8 H :    0.031859
   9 C :   -0.113396
  10 H :    0.031931
  11 H :    0.029894
  12 C :   -0.026236
  13 H :    0.038931
  14 H :    0.027621
  15 H :    0.020288
  16 S :    0.099306
  17 C :   -0.081461
  18 C :   -0.042045
  19 C :   -0.005030
  20 C :   -0.153373
  21 H :    0.022656
  22 C :    0.016500
  23 H :    0.035419
  24 H :    0.024490
  25 C :   -0.052098
  26 H :    0.021115
  27 H :    0.011921
  28 C :   -0.033269
  29 H :    0.022066
  30 H :    0.033605
  31 H :    0.046980
  32 H :    0.064079
  33 H :    0.038826
Sum of atomic charges:    0.0000000

LOEWDIN ATOMIC CHARGES
----------------------
   0 S :    0.382462
   1 C :   -0.207512
   2 C :   -0.057164
   3 C :   -0.059028
   4 C :   -0.175780
   5 H :    0.036506
   6 C :   -0.032083
   7 H :    0.024684
   8 H :    0.028794
   9 C :   -0.040724
  10 H :    0.027007
  11 H :    0.022446
  12 C :   -0.068828
  13 H :    0.020672
  14 H :    0.030368
  15 H :    0.026684
  16 S :    0.383196
  17 C :   -0.175628
  18 C :   -0.071742
  19 C :   -0.063429
  20 C :   -0.173595
  21 H :    0.033051
  22 C :   -0.032884
  23 H :    0.034026
  24 H :    0.030688
  25 C :   -0.036819
  26 H :    0.025090
  27 H :    0.016065
  28 C :   -0.064160
  29 H :    0.017831
  30 H :    0.028994
  31 H :    0.029556
  32 H :    0.042192
  33 H :    0.019063

  Mayer bond orders larger than 0.100000
B(  0-S ,  1-C ) :   1.1030 B(  0-S ,  4-C ) :   1.1305 B(  1-C ,  2-C ) :   1.6492
B(  1-C , 32-H ) :   0.9603 B(  2-C ,  3-C ) :   1.2059 B(  2-C ,  6-C ) :   1.0400
B(  3-C ,  4-C ) :   1.5909 B(  3-C ,  5-H ) :   0.9849 B(  4-C , 20-C ) :   1.0516
B(  6-C ,  7-H ) :   0.9443 B(  6-C ,  8-H ) :   0.9317 B(  6-C ,  9-C ) :   1.0553
B(  9-C , 10-H ) :   0.9575 B(  9-C , 11-H ) :   0.9583 B(  9-C , 12-C ) :   1.0875
B( 12-C , 13-H ) :   0.9772 B( 12-C , 14-H ) :   0.9701 B( 12-C , 15-H ) :   0.9712
B( 16-S , 17-C ) :   1.1544 B( 16-S , 20-C ) :   1.1254 B( 17-C , 18-C ) :   1.6293
B( 17-C , 33-H ) :   0.9688 B( 18-C , 19-C ) :   1.2245 B( 18-C , 21-H ) :   0.9886
B( 19-C , 20-C ) :   1.5937 B( 19-C , 22-C ) :   1.0364 B( 22-C , 23-H ) :   0.9411
B( 22-C , 24-H ) :   0.9353 B( 22-C , 25-C ) :   1.0803 B( 25-C , 26-H ) :   0.9516
B( 25-C , 27-H ) :   0.9533 B( 25-C , 28-C ) :   1.0814 B( 28-C , 29-H ) :   0.9685
B( 28-C , 30-H ) :   0.9702 B( 28-C , 31-H ) :   0.9709

Dispersion correction           -0.014450974
FINAL SINGLE POINT ENERGY     -1339.877324080714

DIPOLE MOMENT
-------------
                                X             Y             Z
Electronic contribution:      2.45865      28.18780      11.59631
Nuclear contribution   :     -2.74165     -28.77736     -11.89890
                        -----------------------------------------
Total Dipole Moment    :     -0.28301      -0.58957      -0.30260
                        -----------------------------------------
Magnitude (a.u.)       :      0.72059
Magnitude (Debye)      :      1.83159

Rotational constants in cm-1:     0.019335     0.008642     0.006372
Rotational constants in MHz :   579.661487   259.080124   191.037290

                             ****ORCA TERMINATED NORMALLY****
TOTAL RUN TIME: 0 days 0 hours 0 minutes 20 seconds 831 msec
