                         Program Version 4.2.1 -  RELEASE  -
|  1> ! wB97X-D3 SP def2-SVP
|  2> %pal
|  3> nprocs 24
|  4> end
|  5>
|  6> * xyz 0 1
|  7> S 	 -53.9608 	 17.4096 	 26.5011
|  8> C 	 -55.4888 	 16.5632 	 26.4522
|  9> C 	 -55.913 	 16.2285 	 27.7703
| 10> C 	 -54.9853 	 16.7469 	 28.7632
| 11> C 	 -53.8293 	 17.4075 	 28.3007
| 12> H 	 -55.2734 	 16.7569 	 29.7309
| 13> C 	 -57.2452 	 15.6531 	 28.2453
| 14> H 	 -58.0309 	 16.3117 	 27.9162
| 15> H 	 -57.2649 	 15.7458 	 29.3014
| 16> C 	 -57.6177 	 14.2052 	 27.9282
| 17> H 	 -57.6586 	 14.0281 	 26.8729
| 18> H 	 -56.8518 	 13.5325 	 28.3531
| 19> C 	 -59.0104 	 13.8527 	 28.4854
| 20> H 	 -59.6966 	 14.6695 	 28.1567
| 21> H 	 -59.2775 	 12.7546 	 28.2949
| 22> H 	 -59.0721 	 13.8484 	 29.5523
| 23> S 	 -51.2625 	 16.7209 	 29.1188
| 24> C 	 -50.4818 	 17.7967 	 30.269
| 25> C 	 -51.2052 	 18.9405 	 30.5384
| 26> C 	 -52.412 	 19.0651 	 29.7294
| 27> C 	 -52.6482 	 17.9073 	 29.0436
| 28> H 	 -50.878 	 19.7234 	 31.1959
| 29> C 	 -53.2121 	 20.3351 	 29.9318
| 30> H 	 -53.6089 	 20.649 	 28.9485
| 31> H 	 -52.4973 	 21.0883 	 30.2085
| 32> C 	 -54.3747 	 20.2571 	 30.9472
| 33> H 	 -53.9613 	 19.7602 	 31.8108
| 34> H 	 -55.1491 	 19.6658 	 30.4758
| 35> C 	 -54.9613 	 21.6189 	 31.2294
| 36> H 	 -54.2516 	 22.2715 	 31.6206
| 37> H 	 -55.8317 	 21.5194 	 31.8726
| 38> H 	 -55.293 	 22.0511 	 30.2532
| 39> H 	 -56.0964 	 16.4908 	 25.5888
| 40> H 	 -49.6343 	 17.4808 	 30.9028
| 41> *
| 42>
| 43>                          ****END OF INPUT****

CARTESIAN COORDINATES (ANGSTROEM)
---------------------------------
  S    -53.960800   17.409600   26.501100
  C    -55.488800   16.563200   26.452200
  C    -55.913000   16.228500   27.770300
  C    -54.985300   16.746900   28.763200
  C    -53.829300   17.407500   28.300700
  H    -55.273400   16.756900   29.730900
  C    -57.245200   15.653100   28.245300
  H    -58.030900   16.311700   27.916200
  H    -57.264900   15.745800   29.301400
  C    -57.617700   14.205200   27.928200
  H    -57.658600   14.028100   26.872900
  H    -56.851800   13.532500   28.353100
  C    -59.010400   13.852700   28.485400
  H    -59.696600   14.669500   28.156700
  H    -59.277500   12.754600   28.294900
  H    -59.072100   13.848400   29.552300
  S    -51.262500   16.720900   29.118800
  C    -50.481800   17.796700   30.269000
  C    -51.205200   18.940500   30.538400
  C    -52.412000   19.065100   29.729400
  C    -52.648200   17.907300   29.043600
  H    -50.878000   19.723400   31.195900
  C    -53.212100   20.335100   29.931800
  H    -53.608900   20.649000   28.948500
  H    -52.497300   21.088300   30.208500
  C    -54.374700   20.257100   30.947200
  H    -53.961300   19.760200   31.810800
  H    -55.149100   19.665800   30.475800
  C    -54.961300   21.618900   31.229400
  H    -54.251600   22.271500   31.620600
  H    -55.831700   21.519400   31.872600
  H    -55.293000   22.051100   30.253200
  H    -56.096400   16.490800   25.588800
  H    -49.634300   17.480800   30.902800

 Total Charge           Charge          ....    0
 Multiplicity           Mult            ....    1
 Number of Electrons    NEL             ....  134
 Basis Dimension        Dim             ....  322

ORBITAL ENERGIES
----------------

  NO   OCC          E(Eh)            E(eV)
   0   2.0000     -88.965363     -2420.8706
   1   2.0000     -88.964610     -2420.8501
   2   2.0000     -10.336805      -281.2788
   3   2.0000     -10.333790      -281.1967
   4   2.0000     -10.321375      -280.8589
   5   2.0000     -10.318977      -280.7936
   6   2.0000     -10.307145      -280.4717
   7   2.0000     -10.307123      -280.4711
   8   2.0000     -10.294379      -280.1243
   9   2.0000     -10.292733      -280.0795
  10   2.0000     -10.292076      -280.0616
  11   2.0000     -10.289625      -279.9949
  12   2.0000     -10.286162      -279.9007
  13   2.0000     -10.285590      -279.8851
  14   2.0000     -10.284298      -279.8500
  15   2.0000     -10.276005      -279.6243
  16   2.0000      -8.079158      -219.8451
  17   2.0000      -8.078360      -219.8233
  18   2.0000      -6.037762      -164.2959
  19   2.0000      -6.036946      -164.2736
  20   2.0000      -6.033986      -164.1931
  21   2.0000      -6.032740      -164.1592
  22   2.0000      -6.029667      -164.0756
  23   2.0000      -6.029348      -164.0669
  24   2.0000      -0.993673       -27.0392
  25   2.0000      -0.973645       -26.4942
  26   2.0000      -0.912942       -24.8424
  27   2.0000      -0.910012       -24.7627
  28   2.0000      -0.862527       -23.4706
  29   2.0000      -0.854369       -23.2486
  30   2.0000      -0.845832       -23.0163
  31   2.0000      -0.808800       -22.0086
  32   2.0000      -0.782746       -21.2996
  33   2.0000      -0.769359       -20.9353
  34   2.0000      -0.707523       -19.2527
  35   2.0000      -0.702689       -19.1211
  36   2.0000      -0.690159       -18.7802
  37   2.0000      -0.663643       -18.0587
  38   2.0000      -0.646802       -17.6004
  39   2.0000      -0.617134       -16.7931
  40   2.0000      -0.595300       -16.1989
  41   2.0000      -0.573679       -15.6106
  42   2.0000      -0.569383       -15.4937
  43   2.0000      -0.562082       -15.2950
  44   2.0000      -0.530032       -14.4229
  45   2.0000      -0.519227       -14.1289
  46   2.0000      -0.517051       -14.0697
  47   2.0000      -0.513288       -13.9673
  48   2.0000      -0.508142       -13.8272
  49   2.0000      -0.500593       -13.6218
  50   2.0000      -0.486929       -13.2500
  51   2.0000      -0.476563       -12.9679
  52   2.0000      -0.465984       -12.6801
  53   2.0000      -0.460703       -12.5364
  54   2.0000      -0.453766       -12.3476
  55   2.0000      -0.452616       -12.3163
  56   2.0000      -0.446519       -12.1504
  57   2.0000      -0.436885       -11.8882
  58   2.0000      -0.431202       -11.7336
  59   2.0000      -0.426798       -11.6138
  60   2.0000      -0.424375       -11.5478
  61   2.0000      -0.418050       -11.3757
  62   2.0000      -0.415037       -11.2937
  63   2.0000      -0.335188        -9.1209
  64   2.0000      -0.327734        -8.9181
  65   2.0000      -0.321272        -8.7423
  66   2.0000      -0.306163        -8.3311
  67   0.0000       0.039895         1.0856
  68   0.0000       0.043928         1.1953
  69   0.0000       0.104222         2.8360
  70   0.0000       0.115925         3.1545
  71   0.0000       0.125835         3.4242

MULLIKEN ATOMIC CHARGES
-----------------------
   0 S :    0.101212
   1 C :   -0.102117
   2 C :   -0.099023
   3 C :    0.088713
   4 C :   -0.171766
   5 H :   -0.028459
   6 C :    0.060702
   7 H :    0.027003
   8 H :    0.002993
   9 C :   -0.051919
  10 H :    0.027975
  11 H :    0.034459
  12 C :   -0.076441
  13 H :    0.037680
  14 H :    0.049232
  15 H :    0.019554
  16 S :    0.105087
  17 C :   -0.084263
  18 C :   -0.042618
  19 C :   -0.010472
  20 C :   -0.189308
  21 H :    0.016942
  22 C :    0.059397
  23 H :    0.027954
  24 H :    0.011433
  25 C :   -0.059666
  26 H :    0.025084
  27 H :    0.033228
  28 C :   -0.011781
  29 H :    0.017697
  30 H :    0.038997
  31 H :    0.026966
  32 H :    0.044572
  33 H :    0.070954
Sum of atomic charges:    0.0000000

LOEWDIN ATOMIC CHARGES
----------------------
   0 S :    0.391811
   1 C :   -0.190757
   2 C :   -0.060425
   3 C :   -0.044973
   4 C :   -0.192263
   5 H :    0.009154
   6 C :   -0.032780
   7 H :    0.029896
   8 H :    0.024821
   9 C :   -0.038251
  10 H :    0.019531
  11 H :    0.028001
  12 C :   -0.074809
  13 H :    0.030426
  14 H :    0.038954
  15 H :    0.016940
  16 S :    0.373308
  17 C :   -0.179536
  18 C :   -0.071874
  19 C :   -0.043842
  20 C :   -0.179945
  21 H :    0.027949
  22 C :   -0.028648
  23 H :    0.033558
  24 H :    0.025113
  25 C :   -0.033555
  26 H :    0.020868
  27 H :    0.026386
  28 C :   -0.057327
  29 H :    0.014093
  30 H :    0.028659
  31 H :    0.031381
  32 H :    0.022396
  33 H :    0.035737

  Mayer bond orders larger than 0.100000
B(  0-S ,  1-C ) :   1.1650 B(  0-S ,  4-C ) :   1.1433 B(  1-C ,  2-C ) :   1.5602
B(  1-C ,  4-C ) :   0.1085 B(  1-C , 32-H ) :   0.9764 B(  2-C ,  3-C ) :   1.2815
B(  2-C ,  6-C ) :   1.0189 B(  3-C ,  4-C ) :   1.5579 B(  3-C ,  5-H ) :   1.0032
B(  4-C , 20-C ) :   1.0219 B(  6-C ,  7-H ) :   0.9361 B(  6-C ,  8-H ) :   0.9430
B(  6-C ,  9-C ) :   1.0654 B(  9-C , 10-H ) :   0.9583 B(  9-C , 11-H ) :   0.9535
B(  9-C , 12-C ) :   1.0771 B( 12-C , 13-H ) :   0.9729 B( 12-C , 14-H ) :   0.9718
B( 12-C , 15-H ) :   0.9757 B( 16-S , 17-C ) :   1.1399 B( 16-S , 20-C ) :   1.1142
B( 17-C , 18-C ) :   1.6571 B( 17-C , 33-H ) :   0.9579 B( 18-C , 19-C ) :   1.1937
B( 18-C , 21-H ) :   0.9841 B( 19-C , 20-C ) :   1.6639 B( 19-C , 22-C ) :   1.0473
B( 22-C , 23-H ) :   0.9243 B( 22-C , 24-H ) :   0.9340 B( 22-C , 25-C ) :   1.0673
B( 25-C , 26-H ) :   0.9562 B( 25-C , 27-H ) :   0.9513 B( 25-C , 28-C ) :   1.0904
B( 28-C , 29-H ) :   0.9754 B( 28-C , 30-H ) :   0.9722 B( 28-C , 31-H ) :   0.9695

Dispersion correction           -0.013417089
FINAL SINGLE POINT ENERGY     -1339.866161607709

DIPOLE MOMENT
-------------
                                X             Y             Z
Electronic contribution:     24.24471      -3.26489     -11.20561
Nuclear contribution   :    -24.75901       3.53903      11.76055
                        -----------------------------------------
Total Dipole Moment    :     -0.51429       0.27414       0.55495
                        -----------------------------------------
Magnitude (a.u.)       :      0.80475
Magnitude (Debye)      :      2.04550

Rotational constants in cm-1:     0.017672     0.007424     0.006267
Rotational constants in MHz :   529.782026   222.567522   187.873350

                             ****ORCA TERMINATED NORMALLY****
TOTAL RUN TIME: 0 days 0 hours 0 minutes 20 seconds 615 msec
