                         Program Version 4.2.1 -  RELEASE  -
|  1> ! wB97X-D3 SP def2-SVP
|  2> %pal
|  3> nprocs 24
|  4> end
|  5>
|  6> * xyz 0 1
|  7> S 	 -31.4706 	 -36.1005 	 -91.8372
|  8> C 	 -31.2239 	 -34.4021 	 -91.4485
|  9> C 	 -32.1735 	 -33.8675 	 -90.6461
| 10> C 	 -33.0756 	 -34.9219 	 -90.2705
| 11> C 	 -32.8686 	 -36.1458 	 -90.8656
| 12> H 	 -33.9204 	 -34.7345 	 -89.6351
| 13> C 	 -32.2637 	 -32.4222 	 -90.1917
| 14> H 	 -33.0776 	 -32.1222 	 -90.7568
| 15> H 	 -31.3851 	 -31.98 	 -90.5476
| 16> C 	 -32.7684 	 -32.2178 	 -88.7936
| 17> H 	 -32.9028 	 -31.1335 	 -88.6111
| 18> H 	 -33.7546 	 -32.7173 	 -88.6653
| 19> C 	 -31.7943 	 -32.6857 	 -87.7367
| 20> H 	 -31.6136 	 -33.7524 	 -87.73
| 21> H 	 -30.8373 	 -32.1554 	 -87.8097
| 22> H 	 -32.2118 	 -32.4852 	 -86.7567
| 23> S 	 -32.8777 	 -38.8409 	 -90.6738
| 24> C 	 -34.4134 	 -39.656 	 -90.1722
| 25> C 	 -35.4677 	 -38.7691 	 -90.0581
| 26> C 	 -35.0526 	 -37.428 	 -90.3667
| 27> C 	 -33.6769 	 -37.3085 	 -90.5907
| 28> H 	 -36.4357 	 -39.1468 	 -89.8266
| 29> C 	 -36.1269 	 -36.4395 	 -90.5336
| 30> H 	 -35.9196 	 -35.4855 	 -90.076
| 31> H 	 -37.0677 	 -36.7386 	 -90.0226
| 32> C 	 -36.4083 	 -36.0616 	 -91.949
| 33> H 	 -35.4755 	 -35.7693 	 -92.4406
| 34> H 	 -37.0727 	 -35.2107 	 -92.0963
| 35> C 	 -36.8967 	 -37.2391 	 -92.7657
| 36> H 	 -36.1193 	 -37.9933 	 -92.8663
| 37> H 	 -37.1674 	 -36.92 	 -93.7223
| 38> H 	 -37.8061 	 -37.727 	 -92.2664
| 39> H 	 -30.3523 	 -33.8718 	 -91.7876
| 40> H 	 -34.5063 	 -40.6513 	 -89.8008
| 41> *
| 42>
| 43>                          ****END OF INPUT****

CARTESIAN COORDINATES (ANGSTROEM)
---------------------------------
  S    -31.470600  -36.100500  -91.837200
  C    -31.223900  -34.402100  -91.448500
  C    -32.173500  -33.867500  -90.646100
  C    -33.075600  -34.921900  -90.270500
  C    -32.868600  -36.145800  -90.865600
  H    -33.920400  -34.734500  -89.635100
  C    -32.263700  -32.422200  -90.191700
  H    -33.077600  -32.122200  -90.756800
  H    -31.385100  -31.980000  -90.547600
  C    -32.768400  -32.217800  -88.793600
  H    -32.902800  -31.133500  -88.611100
  H    -33.754600  -32.717300  -88.665300
  C    -31.794300  -32.685700  -87.736700
  H    -31.613600  -33.752400  -87.730000
  H    -30.837300  -32.155400  -87.809700
  H    -32.211800  -32.485200  -86.756700
  S    -32.877700  -38.840900  -90.673800
  C    -34.413400  -39.656000  -90.172200
  C    -35.467700  -38.769100  -90.058100
  C    -35.052600  -37.428000  -90.366700
  C    -33.676900  -37.308500  -90.590700
  H    -36.435700  -39.146800  -89.826600
  C    -36.126900  -36.439500  -90.533600
  H    -35.919600  -35.485500  -90.076000
  H    -37.067700  -36.738600  -90.022600
  C    -36.408300  -36.061600  -91.949000
  H    -35.475500  -35.769300  -92.440600
  H    -37.072700  -35.210700  -92.096300
  C    -36.896700  -37.239100  -92.765700
  H    -36.119300  -37.993300  -92.866300
  H    -37.167400  -36.920000  -93.722300
  H    -37.806100  -37.727000  -92.266400
  H    -30.352300  -33.871800  -91.787600
  H    -34.506300  -40.651300  -89.800800

 Total Charge           Charge          ....    0
 Multiplicity           Mult            ....    1
 Number of Electrons    NEL             ....  134
 Basis Dimension        Dim             ....  322

ORBITAL ENERGIES
----------------

  NO   OCC          E(Eh)            E(eV)
   0   2.0000     -88.968340     -2420.9516
   1   2.0000     -88.965574     -2420.8764
   2   2.0000     -10.328775      -281.0603
   3   2.0000     -10.324430      -280.9420
   4   2.0000     -10.318231      -280.7733
   5   2.0000     -10.307565      -280.4831
   6   2.0000     -10.302592      -280.3478
   7   2.0000     -10.297410      -280.2068
   8   2.0000     -10.294557      -280.1291
   9   2.0000     -10.292198      -280.0649
  10   2.0000     -10.287441      -279.9355
  11   2.0000     -10.284720      -279.8615
  12   2.0000     -10.284250      -279.8487
  13   2.0000     -10.276589      -279.6402
  14   2.0000     -10.271515      -279.5021
  15   2.0000     -10.267480      -279.3923
  16   2.0000      -8.082601      -219.9387
  17   2.0000      -8.081138      -219.8990
  18   2.0000      -6.041231      -164.3903
  19   2.0000      -6.039656      -164.3474
  20   2.0000      -6.037269      -164.2825
  21   2.0000      -6.035641      -164.2381
  22   2.0000      -6.033175      -164.1710
  23   2.0000      -6.031746      -164.1321
  24   2.0000      -1.012305       -27.5462
  25   2.0000      -0.985374       -26.8134
  26   2.0000      -0.925242       -25.1771
  27   2.0000      -0.917308       -24.9612
  28   2.0000      -0.875086       -23.8123
  29   2.0000      -0.849240       -23.1090
  30   2.0000      -0.846062       -23.0225
  31   2.0000      -0.816062       -22.2062
  32   2.0000      -0.791910       -21.5490
  33   2.0000      -0.775462       -21.1014
  34   2.0000      -0.714544       -19.4437
  35   2.0000      -0.699063       -19.0225
  36   2.0000      -0.682910       -18.5829
  37   2.0000      -0.666989       -18.1497
  38   2.0000      -0.636577       -17.3222
  39   2.0000      -0.628389       -17.0993
  40   2.0000      -0.597471       -16.2580
  41   2.0000      -0.568584       -15.4720
  42   2.0000      -0.563401       -15.3309
  43   2.0000      -0.556886       -15.1536
  44   2.0000      -0.551229       -14.9997
  45   2.0000      -0.545540       -14.8449
  46   2.0000      -0.527214       -14.3462
  47   2.0000      -0.513645       -13.9770
  48   2.0000      -0.499416       -13.5898
  49   2.0000      -0.492339       -13.3972
  50   2.0000      -0.488818       -13.3014
  51   2.0000      -0.482168       -13.1204
  52   2.0000      -0.470764       -12.8101
  53   2.0000      -0.468404       -12.7459
  54   2.0000      -0.456750       -12.4288
  55   2.0000      -0.450048       -12.2464
  56   2.0000      -0.441835       -12.0230
  57   2.0000      -0.438038       -11.9196
  58   2.0000      -0.433865       -11.8061
  59   2.0000      -0.431793       -11.7497
  60   2.0000      -0.417214       -11.3530
  61   2.0000      -0.416346       -11.3293
  62   2.0000      -0.408429       -11.1139
  63   2.0000      -0.356399        -9.6981
  64   2.0000      -0.333765        -9.0822
  65   2.0000      -0.328625        -8.9423
  66   2.0000      -0.283106        -7.7037
  67   0.0000       0.022682         0.6172
  68   0.0000       0.081221         2.2101
  69   0.0000       0.096628         2.6294
  70   0.0000       0.120926         3.2906
  71   0.0000       0.139963         3.8086

MULLIKEN ATOMIC CHARGES
-----------------------
   0 S :    0.107549
   1 C :   -0.154485
   2 C :   -0.100338
   3 C :   -0.014819
   4 C :   -0.103402
   5 H :   -0.011541
   6 C :    0.198848
   7 H :    0.019615
   8 H :    0.001421
   9 C :   -0.110557
  10 H :    0.036328
  11 H :    0.037390
  12 C :   -0.037952
  13 H :    0.038700
  14 H :    0.029817
  15 H :    0.023750
  16 S :    0.097333
  17 C :   -0.086701
  18 C :   -0.022765
  19 C :   -0.045356
  20 C :   -0.133906
  21 H :    0.014706
  22 C :    0.083546
  23 H :    0.007382
  24 H :    0.021024
  25 C :   -0.071973
  26 H :    0.030531
  27 H :    0.024912
  28 C :   -0.047006
  29 H :    0.044971
  30 H :    0.017083
  31 H :    0.021242
  32 H :    0.035339
  33 H :    0.049315
Sum of atomic charges:   -0.0000000

LOEWDIN ATOMIC CHARGES
----------------------
   0 S :    0.409457
   1 C :   -0.195459
   2 C :   -0.054047
   3 C :   -0.067924
   4 C :   -0.209090
   5 H :    0.020261
   6 C :   -0.019008
   7 H :    0.034377
   8 H :    0.024241
   9 C :   -0.041948
  10 H :    0.031482
  11 H :    0.029288
  12 C :   -0.066389
  13 H :    0.025032
  14 H :    0.026716
  15 H :    0.023789
  16 S :    0.389953
  17 C :   -0.166997
  18 C :   -0.054532
  19 C :   -0.057168
  20 C :   -0.192159
  21 H :    0.030736
  22 C :   -0.038359
  23 H :    0.025282
  24 H :    0.032250
  25 C :   -0.040229
  26 H :    0.028250
  27 H :    0.022483
  28 C :   -0.062619
  29 H :    0.026598
  30 H :    0.014943
  31 H :    0.024861
  32 H :    0.021457
  33 H :    0.024472

  Mayer bond orders larger than 0.100000
B(  0-S ,  1-C ) :   1.1228 B(  0-S ,  4-C ) :   1.1442 B(  1-C ,  2-C ) :   1.6333
B(  1-C , 32-H ) :   0.9649 B(  2-C ,  3-C ) :   1.2360 B(  2-C ,  6-C ) :   0.9962
B(  3-C ,  4-C ) :   1.5670 B(  3-C ,  5-H ) :   0.9953 B(  4-C , 20-C ) :   1.0763
B(  6-C ,  7-H ) :   0.9122 B(  6-C ,  8-H ) :   0.9402 B(  6-C ,  9-C ) :   1.0839
B(  9-C , 10-H ) :   0.9510 B(  9-C , 11-H ) :   0.9445 B(  9-C , 12-C ) :   1.0881
B( 12-C , 13-H ) :   0.9735 B( 12-C , 14-H ) :   0.9734 B( 12-C , 15-H ) :   0.9730
B( 16-S , 17-C ) :   1.1310 B( 16-S , 20-C ) :   1.1344 B( 17-C , 18-C ) :   1.6367
B( 17-C , 33-H ) :   0.9660 B( 18-C , 19-C ) :   1.2226 B( 18-C , 21-H ) :   0.9936
B( 19-C , 20-C ) :   1.5766 B( 19-C , 22-C ) :   1.0563 B( 22-C , 23-H ) :   0.9196
B( 22-C , 24-H ) :   0.9338 B( 22-C , 25-C ) :   1.0778 B( 25-C , 26-H ) :   0.9487
B( 25-C , 27-H ) :   0.9560 B( 25-C , 28-C ) :   1.0841 B( 28-C , 29-H ) :   0.9725
B( 28-C , 30-H ) :   0.9720 B( 28-C , 31-H ) :   0.9729

Dispersion correction           -0.015254008
FINAL SINGLE POINT ENERGY     -1339.876415591361

DIPOLE MOMENT
-------------
                                X             Y             Z
Electronic contribution:     13.87739     -17.43860      -5.68500
Nuclear contribution   :    -14.31497      17.99265       5.92395
                        -----------------------------------------
Total Dipole Moment    :     -0.43758       0.55405       0.23895
                        -----------------------------------------
Magnitude (a.u.)       :      0.74535
Magnitude (Debye)      :      1.89453

Rotational constants in cm-1:     0.020160     0.008900     0.007814
Rotational constants in MHz :   604.379176   266.826108   234.244198

                             ****ORCA TERMINATED NORMALLY****
TOTAL RUN TIME: 0 days 0 hours 0 minutes 22 seconds 919 msec
