                         Program Version 4.2.1 -  RELEASE  -
|  1> ! wB97X-D3 SP def2-SVP
|  2> %pal
|  3> nprocs 24
|  4> end
|  5>
|  6> * xyz 0 1
|  7> S 	 -144.645 	 28.4681 	 -11.4299
|  8> C 	 -143.205 	 28.5786 	 -12.3156
|  9> C 	 -143.399 	 29.1511 	 -13.5527
| 10> C 	 -144.762 	 29.4782 	 -13.781
| 11> C 	 -145.574 	 29.3319 	 -12.6661
| 12> H 	 -145.201 	 30.1146 	 -14.5569
| 13> C 	 -142.295 	 29.5851 	 -14.4728
| 14> H 	 -141.485 	 29.8848 	 -13.8901
| 15> H 	 -142.63 	 30.4161 	 -15.0857
| 16> C 	 -141.712 	 28.5148 	 -15.4104
| 17> H 	 -141.467 	 27.6219 	 -14.9465
| 18> H 	 -142.397 	 28.2436 	 -16.2596
| 19> C 	 -140.372 	 28.8651 	 -16.0356
| 20> H 	 -140.41 	 29.6785 	 -16.7197
| 21> H 	 -139.725 	 29.2554 	 -15.2764
| 22> H 	 -139.803 	 28.0606 	 -16.466
| 23> S 	 -147.74 	 30.9281 	 -13.1693
| 24> C 	 -149.439 	 30.472 	 -12.649
| 25> C 	 -149.366 	 29.249 	 -12.1228
| 26> C 	 -148.039 	 28.6455 	 -12.1549
| 27> C 	 -147.023 	 29.4265 	 -12.6399
| 28> H 	 -150.285 	 28.7682 	 -11.7824
| 29> C 	 -147.836 	 27.2357 	 -11.6646
| 30> H 	 -148.684 	 26.9787 	 -11.0265
| 31> H 	 -146.929 	 27.2261 	 -11.0147
| 32> C 	 -147.809 	 26.32 	 -12.876
| 33> H 	 -147.803 	 25.2911 	 -12.5017
| 34> H 	 -146.871 	 26.3773 	 -13.4152
| 35> C 	 -148.929 	 26.3241 	 -13.9464
| 36> H 	 -148.862 	 27.3205 	 -14.3748
| 37> H 	 -149.908 	 26.2771 	 -13.4731
| 38> H 	 -148.74 	 25.6938 	 -14.7501
| 39> H 	 -142.22 	 28.3307 	 -11.9074
| 40> H 	 -150.285 	 31.1401 	 -12.7798
| 41> *
| 42>
| 43>                          ****END OF INPUT****

CARTESIAN COORDINATES (ANGSTROEM)
---------------------------------
  S    -144.645000   28.468100  -11.429900
  C    -143.205000   28.578600  -12.315600
  C    -143.399000   29.151100  -13.552700
  C    -144.762000   29.478200  -13.781000
  C    -145.574000   29.331900  -12.666100
  H    -145.201000   30.114600  -14.556900
  C    -142.295000   29.585100  -14.472800
  H    -141.485000   29.884800  -13.890100
  H    -142.630000   30.416100  -15.085700
  C    -141.712000   28.514800  -15.410400
  H    -141.467000   27.621900  -14.946500
  H    -142.397000   28.243600  -16.259600
  C    -140.372000   28.865100  -16.035600
  H    -140.410000   29.678500  -16.719700
  H    -139.725000   29.255400  -15.276400
  H    -139.803000   28.060600  -16.466000
  S    -147.740000   30.928100  -13.169300
  C    -149.439000   30.472000  -12.649000
  C    -149.366000   29.249000  -12.122800
  C    -148.039000   28.645500  -12.154900
  C    -147.023000   29.426500  -12.639900
  H    -150.285000   28.768200  -11.782400
  C    -147.836000   27.235700  -11.664600
  H    -148.684000   26.978700  -11.026500
  H    -146.929000   27.226100  -11.014700
  C    -147.809000   26.320000  -12.876000
  H    -147.803000   25.291100  -12.501700
  H    -146.871000   26.377300  -13.415200
  C    -148.929000   26.324100  -13.946400
  H    -148.862000   27.320500  -14.374800
  H    -149.908000   26.277100  -13.473100
  H    -148.740000   25.693800  -14.750100
  H    -142.220000   28.330700  -11.907400
  H    -150.285000   31.140100  -12.779800

 Total Charge           Charge          ....    0
 Multiplicity           Mult            ....    1
 Number of Electrons    NEL             ....  134
 Basis Dimension        Dim             ....  322

ORBITAL ENERGIES
----------------

  NO   OCC          E(Eh)            E(eV)
   0   2.0000     -88.970345     -2421.0062
   1   2.0000     -88.955777     -2420.6098
   2   2.0000     -10.333522      -281.1894
   3   2.0000     -10.326518      -280.9989
   4   2.0000     -10.322075      -280.8779
   5   2.0000     -10.316453      -280.7249
   6   2.0000     -10.302351      -280.3412
   7   2.0000     -10.299470      -280.2628
   8   2.0000     -10.297877      -280.2195
   9   2.0000     -10.295881      -280.1652
  10   2.0000     -10.288908      -279.9754
  11   2.0000     -10.288662      -279.9687
  12   2.0000     -10.281768      -279.7811
  13   2.0000     -10.277578      -279.6671
  14   2.0000     -10.269315      -279.4423
  15   2.0000     -10.267691      -279.3981
  16   2.0000      -8.085377      -220.0143
  17   2.0000      -8.070041      -219.5970
  18   2.0000      -6.043818      -164.4606
  19   2.0000      -6.039707      -164.3488
  20   2.0000      -6.036323      -164.2567
  21   2.0000      -6.028914      -164.0551
  22   2.0000      -6.024556      -163.9365
  23   2.0000      -6.020495      -163.8260
  24   2.0000      -1.011612       -27.5274
  25   2.0000      -0.986870       -26.8541
  26   2.0000      -0.916406       -24.9367
  27   2.0000      -0.905199       -24.6317
  28   2.0000      -0.879741       -23.9390
  29   2.0000      -0.857813       -23.3423
  30   2.0000      -0.836413       -22.7599
  31   2.0000      -0.824113       -22.4252
  32   2.0000      -0.784437       -21.3456
  33   2.0000      -0.772092       -21.0097
  34   2.0000      -0.709942       -19.3185
  35   2.0000      -0.704830       -19.1794
  36   2.0000      -0.685885       -18.6639
  37   2.0000      -0.671113       -18.2619
  38   2.0000      -0.644586       -17.5401
  39   2.0000      -0.619054       -16.8453
  40   2.0000      -0.586168       -15.9504
  41   2.0000      -0.579536       -15.7700
  42   2.0000      -0.565474       -15.3873
  43   2.0000      -0.558866       -15.2075
  44   2.0000      -0.547045       -14.8859
  45   2.0000      -0.526661       -14.3312
  46   2.0000      -0.520653       -14.1677
  47   2.0000      -0.515258       -14.0209
  48   2.0000      -0.513243       -13.9661
  49   2.0000      -0.501774       -13.6540
  50   2.0000      -0.484306       -13.1786
  51   2.0000      -0.479361       -13.0441
  52   2.0000      -0.473774       -12.8920
  53   2.0000      -0.473211       -12.8767
  54   2.0000      -0.461437       -12.5563
  55   2.0000      -0.456385       -12.4189
  56   2.0000      -0.443427       -12.0663
  57   2.0000      -0.433834       -11.8052
  58   2.0000      -0.427131       -11.6228
  59   2.0000      -0.421236       -11.4624
  60   2.0000      -0.420247       -11.4355
  61   2.0000      -0.410972       -11.1831
  62   2.0000      -0.392198       -10.6722
  63   2.0000      -0.361265        -9.8305
  64   2.0000      -0.333559        -9.0766
  65   2.0000      -0.323067        -8.7911
  66   2.0000      -0.293667        -7.9911
  67   0.0000       0.025923         0.7054
  68   0.0000       0.072312         1.9677
  69   0.0000       0.109683         2.9846
  70   0.0000       0.118747         3.2313
  71   0.0000       0.124943         3.3999

MULLIKEN ATOMIC CHARGES
-----------------------
   0 S :    0.107896
   1 C :   -0.113286
   2 C :   -0.067172
   3 C :    0.009152
   4 C :   -0.134634
   5 H :    0.031360
   6 C :    0.109176
   7 H :    0.001465
   8 H :    0.027021
   9 C :   -0.061102
  10 H :    0.008669
  11 H :    0.034101
  12 C :   -0.035292
  13 H :    0.015007
  14 H :    0.004036
  15 H :    0.034069
  16 S :    0.044660
  17 C :   -0.094533
  18 C :   -0.004892
  19 C :   -0.130031
  20 C :   -0.107716
  21 H :    0.026324
  22 C :    0.095419
  23 H :    0.011819
  24 H :    0.043411
  25 C :   -0.094808
  26 H :    0.018341
  27 H :    0.028098
  28 C :   -0.011440
  29 H :    0.029775
  30 H :    0.025921
  31 H :    0.028003
  32 H :    0.055509
  33 H :    0.065675
Sum of atomic charges:   -0.0000000

LOEWDIN ATOMIC CHARGES
----------------------
   0 S :    0.435932
   1 C :   -0.205848
   2 C :   -0.066036
   3 C :   -0.057746
   4 C :   -0.189021
   5 H :    0.035161
   6 C :   -0.021205
   7 H :    0.023560
   8 H :    0.034325
   9 C :   -0.037044
  10 H :    0.014318
  11 H :    0.028727
  12 C :   -0.064087
  13 H :    0.016999
  14 H :    0.018941
  15 H :    0.027032
  16 S :    0.354732
  17 C :   -0.150500
  18 C :   -0.072346
  19 C :   -0.067882
  20 C :   -0.193865
  21 H :    0.035751
  22 C :   -0.036784
  23 H :    0.027519
  24 H :    0.026586
  25 C :   -0.042231
  26 H :    0.019209
  27 H :    0.023713
  28 C :   -0.057144
  29 H :    0.027184
  30 H :    0.022809
  31 H :    0.021026
  32 H :    0.033738
  33 H :    0.034477

  Mayer bond orders larger than 0.100000
B(  0-S ,  1-C ) :   1.1680 B(  0-S ,  4-C ) :   1.1505 B(  1-C ,  2-C ) :   1.5803
B(  1-C , 32-H ) :   0.9651 B(  2-C ,  3-C ) :   1.2684 B(  2-C ,  6-C ) :   1.0308
B(  3-C ,  4-C ) :   1.5632 B(  3-C ,  5-H ) :   0.9804 B(  4-C , 20-C ) :   1.0302
B(  6-C ,  7-H ) :   0.9358 B(  6-C ,  8-H ) :   0.9406 B(  6-C ,  9-C ) :   1.0656
B(  9-C , 10-H ) :   0.9581 B(  9-C , 11-H ) :   0.9537 B(  9-C , 12-C ) :   1.0832
B( 12-C , 13-H ) :   0.9739 B( 12-C , 14-H ) :   0.9684 B( 12-C , 15-H ) :   0.9755
B( 16-S , 17-C ) :   1.1192 B( 16-S , 20-C ) :   1.1094 B( 17-C , 18-C ) :   1.6413
B( 17-C , 33-H ) :   0.9710 B( 18-C , 19-C ) :   1.2070 B( 18-C , 21-H ) :   0.9884
B( 19-C , 20-C ) :   1.6275 B( 19-C , 22-C ) :   1.0397 B( 22-C , 23-H ) :   0.9262
B( 22-C , 24-H ) :   0.9361 B( 22-C , 25-C ) :   1.0634 B( 25-C , 26-H ) :   0.9562
B( 25-C , 27-H ) :   0.9571 B( 25-C , 28-C ) :   1.0824 B( 28-C , 29-H ) :   0.9687
B( 28-C , 30-H ) :   0.9739 B( 28-C , 31-H ) :   0.9714

Dispersion correction           -0.014625890
FINAL SINGLE POINT ENERGY     -1339.867272435137

DIPOLE MOMENT
-------------
                                X             Y             Z
Electronic contribution:     -9.68692      12.26413      13.59089
Nuclear contribution   :      9.86100     -12.49186     -13.72178
                        -----------------------------------------
Total Dipole Moment    :      0.17408      -0.22773      -0.13089
                        -----------------------------------------
Magnitude (a.u.)       :      0.31511
Magnitude (Debye)      :      0.80096

Rotational constants in cm-1:     0.023292     0.007257     0.006773
Rotational constants in MHz :   698.275207   217.570767   203.057785

                             ****ORCA TERMINATED NORMALLY****
TOTAL RUN TIME: 0 days 0 hours 0 minutes 21 seconds 712 msec
