                         Program Version 4.2.1 -  RELEASE  -
|  1> ! wB97X-D3 SP def2-SVP
|  2> %pal
|  3> nprocs 24
|  4> end
|  5>
|  6> * xyz 0 1
|  7> S 	 38.8918 	 -17.1252 	 -111.508
|  8> C 	 37.2914 	 -17.4777 	 -111.957
|  9> C 	 36.7543 	 -18.4467 	 -111.159
| 10> C 	 37.6741 	 -18.9253 	 -110.157
| 11> C 	 38.8244 	 -18.1556 	 -110.084
| 12> H 	 37.5128 	 -19.7936 	 -109.564
| 13> C 	 35.4105 	 -19.1189 	 -111.378
| 14> H 	 35.0952 	 -19.2101 	 -110.305
| 15> H 	 35.7512 	 -20.1154 	 -111.727
| 16> C 	 34.4457 	 -18.4559 	 -112.287
| 17> H 	 34.3004 	 -17.4128 	 -111.903
| 18> H 	 34.9801 	 -18.4973 	 -113.258
| 19> C 	 33.152 	 -19.1443 	 -112.312
| 20> H 	 32.6422 	 -18.5456 	 -113.047
| 21> H 	 33.1348 	 -20.217 	 -112.615
| 22> H 	 32.7052 	 -19.0387 	 -111.278
| 23> S 	 41.4256 	 -17.2635 	 -109.74
| 24> C 	 42.3497 	 -17.9514 	 -108.407
| 25> C 	 41.6296 	 -18.849 	 -107.617
| 26> C 	 40.265 	 -19.0187 	 -108.087
| 27> C 	 40.0071 	 -18.2355 	 -109.261
| 28> H 	 42.1075 	 -19.2537 	 -106.715
| 29> C 	 39.2653 	 -19.9701 	 -107.458
| 30> H 	 38.8019 	 -20.5121 	 -108.206
| 31> H 	 38.5166 	 -19.2908 	 -107.011
| 32> C 	 39.7624 	 -20.7991 	 -106.246
| 33> H 	 40.5208 	 -20.3497 	 -105.63
| 34> H 	 40.3369 	 -21.6017 	 -106.687
| 35> C 	 38.6286 	 -21.4798 	 -105.475
| 36> H 	 37.8016 	 -20.734 	 -105.096
| 37> H 	 39.0355 	 -21.9694 	 -104.609
| 38> H 	 38.1629 	 -22.2476 	 -106.155
| 39> H 	 36.7724 	 -16.9414 	 -112.726
| 40> H 	 43.3808 	 -17.6956 	 -108.157
| 41> *
| 42>
| 43>                          ****END OF INPUT****

CARTESIAN COORDINATES (ANGSTROEM)
---------------------------------
  S     38.891800  -17.125200  -111.508000
  C     37.291400  -17.477700  -111.957000
  C     36.754300  -18.446700  -111.159000
  C     37.674100  -18.925300  -110.157000
  C     38.824400  -18.155600  -110.084000
  H     37.512800  -19.793600  -109.564000
  C     35.410500  -19.118900  -111.378000
  H     35.095200  -19.210100  -110.305000
  H     35.751200  -20.115400  -111.727000
  C     34.445700  -18.455900  -112.287000
  H     34.300400  -17.412800  -111.903000
  H     34.980100  -18.497300  -113.258000
  C     33.152000  -19.144300  -112.312000
  H     32.642200  -18.545600  -113.047000
  H     33.134800  -20.217000  -112.615000
  H     32.705200  -19.038700  -111.278000
  S     41.425600  -17.263500  -109.740000
  C     42.349700  -17.951400  -108.407000
  C     41.629600  -18.849000  -107.617000
  C     40.265000  -19.018700  -108.087000
  C     40.007100  -18.235500  -109.261000
  H     42.107500  -19.253700  -106.715000
  C     39.265300  -19.970100  -107.458000
  H     38.801900  -20.512100  -108.206000
  H     38.516600  -19.290800  -107.011000
  C     39.762400  -20.799100  -106.246000
  H     40.520800  -20.349700  -105.630000
  H     40.336900  -21.601700  -106.687000
  C     38.628600  -21.479800  -105.475000
  H     37.801600  -20.734000  -105.096000
  H     39.035500  -21.969400  -104.609000
  H     38.162900  -22.247600  -106.155000
  H     36.772400  -16.941400  -112.726000
  H     43.380800  -17.695600  -108.157000

 Total Charge           Charge          ....    0
 Multiplicity           Mult            ....    1
 Number of Electrons    NEL             ....  134
 Basis Dimension        Dim             ....  322

ORBITAL ENERGIES
----------------

  NO   OCC          E(Eh)            E(eV)
   0   2.0000     -88.969792     -2420.9911
   1   2.0000     -88.956889     -2420.6400
   2   2.0000     -10.331495      -281.1343
   3   2.0000     -10.329888      -281.0905
   4   2.0000     -10.321215      -280.8545
   5   2.0000     -10.313245      -280.6377
   6   2.0000     -10.302244      -280.3383
   7   2.0000     -10.300666      -280.2954
   8   2.0000     -10.294663      -280.1320
   9   2.0000     -10.293181      -280.0917
  10   2.0000     -10.292945      -280.0853
  11   2.0000     -10.290964      -280.0314
  12   2.0000     -10.289298      -279.9860
  13   2.0000     -10.288848      -279.9738
  14   2.0000     -10.287200      -279.9290
  15   2.0000     -10.281235      -279.7666
  16   2.0000      -8.083418      -219.9610
  17   2.0000      -8.072987      -219.6772
  18   2.0000      -6.042093      -164.4137
  19   2.0000      -6.038132      -164.3059
  20   2.0000      -6.034032      -164.1944
  21   2.0000      -6.031602      -164.1282
  22   2.0000      -6.027402      -164.0139
  23   2.0000      -6.023485      -163.9074
  24   2.0000      -1.005904       -27.3720
  25   2.0000      -0.978189       -26.6179
  26   2.0000      -0.924862       -25.1668
  27   2.0000      -0.911835       -24.8123
  28   2.0000      -0.872159       -23.7326
  29   2.0000      -0.856992       -23.3199
  30   2.0000      -0.845898       -23.0181
  31   2.0000      -0.815285       -22.1850
  32   2.0000      -0.782959       -21.3054
  33   2.0000      -0.766007       -20.8441
  34   2.0000      -0.709812       -19.3150
  35   2.0000      -0.706922       -19.2363
  36   2.0000      -0.689467       -18.7613
  37   2.0000      -0.654546       -17.8111
  38   2.0000      -0.635481       -17.2923
  39   2.0000      -0.613436       -16.6924
  40   2.0000      -0.595499       -16.2044
  41   2.0000      -0.585448       -15.9308
  42   2.0000      -0.570571       -15.5260
  43   2.0000      -0.564036       -15.3482
  44   2.0000      -0.534849       -14.5540
  45   2.0000      -0.530717       -14.4416
  46   2.0000      -0.517486       -14.0815
  47   2.0000      -0.514511       -14.0006
  48   2.0000      -0.502684       -13.6787
  49   2.0000      -0.499275       -13.5860
  50   2.0000      -0.485963       -13.2237
  51   2.0000      -0.480501       -13.0751
  52   2.0000      -0.477778       -13.0010
  53   2.0000      -0.470055       -12.7908
  54   2.0000      -0.461150       -12.5485
  55   2.0000      -0.451705       -12.2915
  56   2.0000      -0.448624       -12.2077
  57   2.0000      -0.435622       -11.8539
  58   2.0000      -0.429278       -11.6812
  59   2.0000      -0.425157       -11.5691
  60   2.0000      -0.419657       -11.4194
  61   2.0000      -0.414693       -11.2844
  62   2.0000      -0.406211       -11.0536
  63   2.0000      -0.363332        -9.8868
  64   2.0000      -0.334273        -9.0960
  65   2.0000      -0.319365        -8.6904
  66   2.0000      -0.274200        -7.4614
  67   0.0000       0.016469         0.4481
  68   0.0000       0.085502         2.3266
  69   0.0000       0.098645         2.6843
  70   0.0000       0.123894         3.3713
  71   0.0000       0.139763         3.8031

MULLIKEN ATOMIC CHARGES
-----------------------
   0 S :    0.072775
   1 C :   -0.115477
   2 C :   -0.095321
   3 C :   -0.032321
   4 C :   -0.087294
   5 H :   -0.006785
   6 C :    0.031530
   7 H :    0.028724
   8 H :    0.040603
   9 C :   -0.104912
  10 H :    0.043489
  11 H :    0.037710
  12 C :   -0.014799
  13 H :    0.031772
  14 H :    0.040218
  15 H :    0.038378
  16 S :    0.105100
  17 C :   -0.080426
  18 C :   -0.056042
  19 C :   -0.067888
  20 C :   -0.119146
  21 H :    0.029331
  22 C :    0.061216
  23 H :    0.037674
  24 H :    0.041112
  25 C :   -0.069670
  26 H :    0.029864
  27 H :    0.020815
  28 C :   -0.069310
  29 H :    0.048458
  30 H :    0.035558
  31 H :    0.043334
  32 H :    0.044545
  33 H :    0.057183
Sum of atomic charges:   -0.0000000

LOEWDIN ATOMIC CHARGES
----------------------
   0 S :    0.402275
   1 C :   -0.219000
   2 C :   -0.064638
   3 C :   -0.073830
   4 C :   -0.173526
   5 H :    0.022386
   6 C :   -0.041658
   7 H :    0.032076
   8 H :    0.038007
   9 C :   -0.055807
  10 H :    0.035449
  11 H :    0.030251
  12 C :   -0.064089
  13 H :    0.027508
  14 H :    0.029827
  15 H :    0.033925
  16 S :    0.388444
  17 C :   -0.181543
  18 C :   -0.078442
  19 C :   -0.042914
  20 C :   -0.193252
  21 H :    0.036171
  22 C :   -0.028149
  23 H :    0.019708
  24 H :    0.042246
  25 C :   -0.045985
  26 H :    0.020924
  27 H :    0.026094
  28 C :   -0.068757
  29 H :    0.034284
  30 H :    0.024095
  31 H :    0.031953
  32 H :    0.024721
  33 H :    0.031243

  Mayer bond orders larger than 0.100000
B(  0-S ,  1-C ) :   1.1254 B(  0-S ,  4-C ) :   1.1435 B(  1-C ,  2-C ) :   1.6248
B(  1-C , 32-H ) :   0.9653 B(  2-C ,  3-C ) :   1.2411 B(  2-C ,  6-C ) :   0.9923
B(  3-C ,  4-C ) :   1.5464 B(  3-C ,  5-H ) :   0.9968 B(  4-C , 20-C ) :   1.1253
B(  6-C ,  7-H ) :   0.9401 B(  6-C ,  8-H ) :   0.9303 B(  6-C ,  9-C ) :   1.0945
B(  9-C , 10-H ) :   0.9491 B(  9-C , 11-H ) :   0.9344 B(  9-C , 12-C ) :   1.0964
B( 12-C , 13-H ) :   0.9708 B( 12-C , 14-H ) :   0.9702 B( 12-C , 15-H ) :   0.9693
B( 16-S , 17-C ) :   1.1493 B( 16-S , 20-C ) :   1.1234 B( 17-C , 18-C ) :   1.6211
B( 17-C , 33-H ) :   0.9601 B( 18-C , 19-C ) :   1.2445 B( 18-C , 21-H ) :   0.9812
B( 19-C , 20-C ) :   1.5684 B( 19-C , 22-C ) :   1.0313 B( 22-C , 23-H ) :   0.9286
B( 22-C , 24-H ) :   0.9301 B( 22-C , 25-C ) :   1.0679 B( 25-C , 26-H ) :   0.9535
B( 25-C , 27-H ) :   0.9452 B( 25-C , 28-C ) :   1.0838 B( 28-C , 29-H ) :   0.9751
B( 28-C , 30-H ) :   0.9722 B( 28-C , 31-H ) :   0.9742

Dispersion correction           -0.013004195
FINAL SINGLE POINT ENERGY     -1339.866042890713

DIPOLE MOMENT
-------------
                                X             Y             Z
Electronic contribution:     22.71560      17.23142      -9.15241
Nuclear contribution   :    -23.04941     -17.80881       9.50187
                        -----------------------------------------
Total Dipole Moment    :     -0.33381      -0.57739       0.34946
                        -----------------------------------------
Magnitude (a.u.)       :      0.75294
Magnitude (Debye)      :      1.91383

Rotational constants in cm-1:     0.018546     0.007820     0.005545
Rotational constants in MHz :   555.993857   234.438092   166.246468

                             ****ORCA TERMINATED NORMALLY****
TOTAL RUN TIME: 0 days 0 hours 0 minutes 20 seconds 715 msec
