                         Program Version 4.2.1 -  RELEASE  -
|  1> ! wB97X-D3 SP def2-SVP
|  2> %pal
|  3> nprocs 24
|  4> end
|  5>
|  6> * xyz 0 1
|  7> S 	 45.0974 	 -20.5214 	 -113.884
|  8> C 	 46.8342 	 -20.3782 	 -113.998
|  9> C 	 47.412 	 -20.3423 	 -112.699
| 10> C 	 46.4378 	 -20.1655 	 -111.675
| 11> C 	 45.111 	 -20.1574 	 -112.134
| 12> H 	 46.5603 	 -19.9636 	 -110.583
| 13> C 	 48.9289 	 -20.4031 	 -112.342
| 14> H 	 49.189 	 -19.915 	 -111.349
| 15> H 	 49.3856 	 -19.6609 	 -113.064
| 16> C 	 49.4597 	 -21.817 	 -112.488
| 17> H 	 49.2235 	 -22.3328 	 -113.388
| 18> H 	 50.5021 	 -21.7385 	 -112.624
| 19> C 	 49.32 	 -22.6516 	 -111.197
| 20> H 	 49.7246 	 -22.1802 	 -110.337
| 21> H 	 48.2541 	 -22.9601 	 -110.927
| 22> H 	 49.805 	 -23.5796 	 -111.364
| 23> S 	 42.5549 	 -19.1189 	 -111.932
| 24> C 	 41.5549 	 -19.6577 	 -110.592
| 25> C 	 42.1088 	 -20.7271 	 -109.915
| 26> C 	 43.4152 	 -21.0917 	 -110.353
| 27> C 	 43.8796 	 -20.1891 	 -111.367
| 28> H 	 41.5374 	 -21.1217 	 -109.178
| 29> C 	 44.2311 	 -22.1952 	 -109.764
| 30> H 	 43.9846 	 -22.2647 	 -108.808
| 31> H 	 45.2693 	 -21.9686 	 -109.73
| 32> C 	 43.9899 	 -23.584 	 -110.383
| 33> H 	 42.9634 	 -24.0163 	 -110.308
| 34> H 	 44.5933 	 -24.3251 	 -109.895
| 35> C 	 44.3711 	 -23.5136 	 -111.905
| 36> H 	 45.3239 	 -23.089 	 -112.111
| 37> H 	 43.7259 	 -22.8964 	 -112.523
| 38> H 	 44.5048 	 -24.5246 	 -112.321
| 39> H 	 47.383 	 -20.7158 	 -114.883
| 40> H 	 40.5122 	 -19.3592 	 -110.412
| 41> *
| 42>
| 43>                          ****END OF INPUT****

CARTESIAN COORDINATES (ANGSTROEM)
---------------------------------
  S     45.097400  -20.521400  -113.884000
  C     46.834200  -20.378200  -113.998000
  C     47.412000  -20.342300  -112.699000
  C     46.437800  -20.165500  -111.675000
  C     45.111000  -20.157400  -112.134000
  H     46.560300  -19.963600  -110.583000
  C     48.928900  -20.403100  -112.342000
  H     49.189000  -19.915000  -111.349000
  H     49.385600  -19.660900  -113.064000
  C     49.459700  -21.817000  -112.488000
  H     49.223500  -22.332800  -113.388000
  H     50.502100  -21.738500  -112.624000
  C     49.320000  -22.651600  -111.197000
  H     49.724600  -22.180200  -110.337000
  H     48.254100  -22.960100  -110.927000
  H     49.805000  -23.579600  -111.364000
  S     42.554900  -19.118900  -111.932000
  C     41.554900  -19.657700  -110.592000
  C     42.108800  -20.727100  -109.915000
  C     43.415200  -21.091700  -110.353000
  C     43.879600  -20.189100  -111.367000
  H     41.537400  -21.121700  -109.178000
  C     44.231100  -22.195200  -109.764000
  H     43.984600  -22.264700  -108.808000
  H     45.269300  -21.968600  -109.730000
  C     43.989900  -23.584000  -110.383000
  H     42.963400  -24.016300  -110.308000
  H     44.593300  -24.325100  -109.895000
  C     44.371100  -23.513600  -111.905000
  H     45.323900  -23.089000  -112.111000
  H     43.725900  -22.896400  -112.523000
  H     44.504800  -24.524600  -112.321000
  H     47.383000  -20.715800  -114.883000
  H     40.512200  -19.359200  -110.412000

 Total Charge           Charge          ....    0
 Multiplicity           Mult            ....    1
 Number of Electrons    NEL             ....  134
 Basis Dimension        Dim             ....  322

ORBITAL ENERGIES
----------------

  NO   OCC          E(Eh)            E(eV)
   0   2.0000     -88.967112     -2420.9182
   1   2.0000     -88.966910     -2420.9127
   2   2.0000     -10.331500      -281.1344
   3   2.0000     -10.331015      -281.1212
   4   2.0000     -10.318538      -280.7817
   5   2.0000     -10.317854      -280.7631
   6   2.0000     -10.310630      -280.5665
   7   2.0000     -10.309189      -280.5273
   8   2.0000     -10.303979      -280.3855
   9   2.0000     -10.298606      -280.2393
  10   2.0000     -10.288211      -279.9565
  11   2.0000     -10.287942      -279.9491
  12   2.0000     -10.282997      -279.8146
  13   2.0000     -10.278343      -279.6879
  14   2.0000     -10.278047      -279.6799
  15   2.0000     -10.264415      -279.3089
  16   2.0000      -8.080772      -219.8890
  17   2.0000      -8.080716      -219.8875
  18   2.0000      -6.039228      -164.3357
  19   2.0000      -6.039177      -164.3344
  20   2.0000      -6.035426      -164.2323
  21   2.0000      -6.035419      -164.2321
  22   2.0000      -6.031639      -164.1292
  23   2.0000      -6.031526      -164.1262
  24   2.0000      -0.997692       -27.1486
  25   2.0000      -0.975870       -26.5548
  26   2.0000      -0.909731       -24.7550
  27   2.0000      -0.909105       -24.7380
  28   2.0000      -0.866527       -23.5794
  29   2.0000      -0.845852       -23.0168
  30   2.0000      -0.840622       -22.8745
  31   2.0000      -0.810760       -22.0619
  32   2.0000      -0.785777       -21.3821
  33   2.0000      -0.768910       -20.9231
  34   2.0000      -0.708204       -19.2712
  35   2.0000      -0.707457       -19.2509
  36   2.0000      -0.693270       -18.8648
  37   2.0000      -0.659672       -17.9506
  38   2.0000      -0.639370       -17.3981
  39   2.0000      -0.611306       -16.6345
  40   2.0000      -0.595304       -16.1990
  41   2.0000      -0.572389       -15.5755
  42   2.0000      -0.554014       -15.0755
  43   2.0000      -0.552899       -15.0451
  44   2.0000      -0.545498       -14.8438
  45   2.0000      -0.524866       -14.2823
  46   2.0000      -0.513110       -13.9624
  47   2.0000      -0.505169       -13.7463
  48   2.0000      -0.503006       -13.6875
  49   2.0000      -0.494606       -13.4589
  50   2.0000      -0.482980       -13.1425
  51   2.0000      -0.477864       -13.0034
  52   2.0000      -0.469274       -12.7696
  53   2.0000      -0.463762       -12.6196
  54   2.0000      -0.460121       -12.5205
  55   2.0000      -0.449553       -12.2330
  56   2.0000      -0.446208       -12.1419
  57   2.0000      -0.437587       -11.9073
  58   2.0000      -0.429078       -11.6758
  59   2.0000      -0.421510       -11.4699
  60   2.0000      -0.419932       -11.4269
  61   2.0000      -0.418570       -11.3899
  62   2.0000      -0.404712       -11.0128
  63   2.0000      -0.341983        -9.3058
  64   2.0000      -0.331552        -9.0220
  65   2.0000      -0.328772        -8.9463
  66   2.0000      -0.287229        -7.8159
  67   0.0000       0.021604         0.5879
  68   0.0000       0.056780         1.5451
  69   0.0000       0.106706         2.9036
  70   0.0000       0.121563         3.3079
  71   0.0000       0.125939         3.4270

MULLIKEN ATOMIC CHARGES
-----------------------
   0 S :    0.101704
   1 C :   -0.109103
   2 C :   -0.103051
   3 C :    0.018348
   4 C :   -0.150425
   5 H :    0.035658
   6 C :    0.005741
   7 H :    0.039177
   8 H :    0.043687
   9 C :   -0.018453
  10 H :    0.019176
  11 H :    0.009967
  12 C :   -0.044473
  13 H :    0.024177
  14 H :    0.037868
  15 H :    0.024017
  16 S :    0.104178
  17 C :   -0.090007
  18 C :   -0.005663
  19 C :   -0.022671
  20 C :   -0.195176
  21 H :   -0.023787
  22 C :    0.173602
  23 H :   -0.026237
  24 H :    0.010061
  25 C :   -0.068732
  26 H :    0.036025
  27 H :    0.022478
  28 C :   -0.053554
  29 H :    0.016751
  30 H :    0.038671
  31 H :    0.024070
  32 H :    0.062581
  33 H :    0.063394
Sum of atomic charges:    0.0000000

LOEWDIN ATOMIC CHARGES
----------------------
   0 S :    0.404464
   1 C :   -0.212738
   2 C :   -0.058531
   3 C :   -0.072566
   4 C :   -0.187879
   5 H :    0.040488
   6 C :   -0.036965
   7 H :    0.037365
   8 H :    0.038249
   9 C :   -0.041075
  10 H :    0.023700
  11 H :    0.021848
  12 C :   -0.059739
  13 H :    0.019211
  14 H :    0.029621
  15 H :    0.021969
  16 S :    0.390704
  17 C :   -0.181541
  18 C :   -0.060585
  19 C :   -0.034483
  20 C :   -0.194676
  21 H :    0.014884
  22 C :   -0.021685
  23 H :    0.012207
  24 H :    0.030762
  25 C :   -0.029535
  26 H :    0.028447
  27 H :    0.020704
  28 C :   -0.071487
  29 H :    0.017466
  30 H :    0.020541
  31 H :    0.025259
  32 H :    0.031015
  33 H :    0.034580

  Mayer bond orders larger than 0.100000
B(  0-S ,  1-C ) :   1.1469 B(  0-S ,  4-C ) :   1.1573 B(  1-C ,  2-C ) :   1.5821
B(  1-C ,  4-C ) :   0.1095 B(  1-C , 32-H ) :   0.9628 B(  2-C ,  3-C ) :   1.2616
B(  2-C ,  6-C ) :   1.0038 B(  3-C ,  4-C ) :   1.5603 B(  3-C ,  5-H ) :   0.9860
B(  4-C , 20-C ) :   1.0684 B(  6-C ,  7-H ) :   0.9536 B(  6-C ,  8-H ) :   0.9465
B(  6-C ,  9-C ) :   1.0652 B(  9-C , 10-H ) :   0.9562 B(  9-C , 11-H ) :   0.9456
B(  9-C , 12-C ) :   1.0790 B( 12-C , 13-H ) :   0.9751 B( 12-C , 14-H ) :   0.9754
B( 12-C , 15-H ) :   0.9723 B( 16-S , 17-C ) :   1.1507 B( 16-S , 20-C ) :   1.1391
B( 17-C , 18-C ) :   1.6163 B( 17-C , 20-C ) :   0.1038 B( 17-C , 33-H ) :   0.9612
B( 18-C , 19-C ) :   1.2358 B( 18-C , 21-H ) :   1.0065 B( 19-C , 20-C ) :   1.5358
B( 19-C , 22-C ) :   1.0427 B( 22-C , 23-H ) :   0.9062 B( 22-C , 24-H ) :   0.9316
B( 22-C , 25-C ) :   1.0765 B( 25-C , 26-H ) :   0.9577 B( 25-C , 27-H ) :   0.9554
B( 25-C , 28-C ) :   1.0685 B( 28-C , 29-H ) :   0.9730 B( 28-C , 30-H ) :   0.9734
B( 28-C , 31-H ) :   0.9730

Dispersion correction           -0.016583097
FINAL SINGLE POINT ENERGY     -1339.854965349052

DIPOLE MOMENT
-------------
                                X             Y             Z
Electronic contribution:    -18.53191      18.50378      -8.31730
Nuclear contribution   :     18.96644     -19.03361       8.77811
                        -----------------------------------------
Total Dipole Moment    :      0.43453      -0.52983       0.46081
                        -----------------------------------------
Magnitude (a.u.)       :      0.82577
Magnitude (Debye)      :      2.09893

Rotational constants in cm-1:     0.021815     0.009415     0.007780
Rotational constants in MHz :   653.995870   282.241490   233.240716

                             ****ORCA TERMINATED NORMALLY****
TOTAL RUN TIME: 0 days 0 hours 0 minutes 22 seconds 200 msec
