                         Program Version 4.2.1 -  RELEASE  -
|  1> ! wB97X-D3 SP def2-SVP
|  2> %pal
|  3> nprocs 24
|  4> end
|  5>
|  6> * xyz 0 1
|  7> S 	 -120.485 	 59.2843 	 -39.102
|  8> C 	 -122.143 	 59.1307 	 -39.598
|  9> C 	 -122.903 	 59.8048 	 -38.6362
| 10> C 	 -122.168 	 60.3413 	 -37.5473
| 11> C 	 -120.842 	 60.0438 	 -37.5958
| 12> H 	 -122.61 	 60.7502 	 -36.6305
| 13> C 	 -124.39 	 59.6659 	 -38.6052
| 14> H 	 -124.666 	 59.9404 	 -39.557
| 15> H 	 -124.674 	 60.4553 	 -37.9162
| 16> C 	 -124.974 	 58.2105 	 -38.3347
| 17> H 	 -125.963 	 58.1641 	 -38.7721
| 18> H 	 -124.437 	 57.5816 	 -38.9829
| 19> C 	 -124.892 	 57.7112 	 -36.9278
| 20> H 	 -125.606 	 58.2486 	 -36.216
| 21> H 	 -125.137 	 56.6294 	 -36.8784
| 22> H 	 -123.834 	 57.8252 	 -36.5138
| 23> S 	 -118.224 	 60.7083 	 -37.2687
| 24> C 	 -117.584 	 60.7849 	 -35.6129
| 25> C 	 -118.497 	 60.3804 	 -34.7284
| 26> C 	 -119.78 	 60.133 	 -35.2602
| 27> C 	 -119.764 	 60.2298 	 -36.6521
| 28> H 	 -118.273 	 60.3241 	 -33.6568
| 29> C 	 -120.854 	 59.6364 	 -34.3815
| 30> H 	 -121.707 	 59.5743 	 -34.9943
| 31> H 	 -121.084 	 60.3383 	 -33.6165
| 32> C 	 -120.605 	 58.1742 	 -33.894
| 33> H 	 -121.308 	 57.9378 	 -33.1326
| 34> H 	 -119.572 	 58.1068 	 -33.5065
| 35> C 	 -120.826 	 57.0656 	 -34.9438
| 36> H 	 -121.855 	 56.9407 	 -35.351
| 37> H 	 -120.478 	 56.0907 	 -34.6281
| 38> H 	 -120.186 	 57.2296 	 -35.8117
| 39> H 	 -122.426 	 58.4385 	 -40.3626
| 40> H 	 -116.499 	 60.8167 	 -35.4157
| 41> *
| 42>
| 43>                          ****END OF INPUT****

CARTESIAN COORDINATES (ANGSTROEM)
---------------------------------
  S    -120.485000   59.284300  -39.102000
  C    -122.143000   59.130700  -39.598000
  C    -122.903000   59.804800  -38.636200
  C    -122.168000   60.341300  -37.547300
  C    -120.842000   60.043800  -37.595800
  H    -122.610000   60.750200  -36.630500
  C    -124.390000   59.665900  -38.605200
  H    -124.666000   59.940400  -39.557000
  H    -124.674000   60.455300  -37.916200
  C    -124.974000   58.210500  -38.334700
  H    -125.963000   58.164100  -38.772100
  H    -124.437000   57.581600  -38.982900
  C    -124.892000   57.711200  -36.927800
  H    -125.606000   58.248600  -36.216000
  H    -125.137000   56.629400  -36.878400
  H    -123.834000   57.825200  -36.513800
  S    -118.224000   60.708300  -37.268700
  C    -117.584000   60.784900  -35.612900
  C    -118.497000   60.380400  -34.728400
  C    -119.780000   60.133000  -35.260200
  C    -119.764000   60.229800  -36.652100
  H    -118.273000   60.324100  -33.656800
  C    -120.854000   59.636400  -34.381500
  H    -121.707000   59.574300  -34.994300
  H    -121.084000   60.338300  -33.616500
  C    -120.605000   58.174200  -33.894000
  H    -121.308000   57.937800  -33.132600
  H    -119.572000   58.106800  -33.506500
  C    -120.826000   57.065600  -34.943800
  H    -121.855000   56.940700  -35.351000
  H    -120.478000   56.090700  -34.628100
  H    -120.186000   57.229600  -35.811700
  H    -122.426000   58.438500  -40.362600
  H    -116.499000   60.816700  -35.415700

 Total Charge           Charge          ....    0
 Multiplicity           Mult            ....    1
 Number of Electrons    NEL             ....  134
 Basis Dimension        Dim             ....  322

ORBITAL ENERGIES
----------------

  NO   OCC          E(Eh)            E(eV)
   0   2.0000     -88.964513     -2420.8475
   1   2.0000     -88.960739     -2420.7448
   2   2.0000     -10.326603      -281.0012
   3   2.0000     -10.325653      -280.9753
   4   2.0000     -10.314377      -280.6685
   5   2.0000     -10.312092      -280.6063
   6   2.0000     -10.299114      -280.2531
   7   2.0000     -10.297295      -280.2036
   8   2.0000     -10.292409      -280.0707
   9   2.0000     -10.289718      -279.9975
  10   2.0000     -10.288922      -279.9758
  11   2.0000     -10.288589      -279.9667
  12   2.0000     -10.286374      -279.9065
  13   2.0000     -10.284250      -279.8487
  14   2.0000     -10.282296      -279.7955
  15   2.0000     -10.275498      -279.6105
  16   2.0000      -8.079566      -219.8562
  17   2.0000      -8.076504      -219.7729
  18   2.0000      -6.038104      -164.3052
  19   2.0000      -6.034901      -164.2180
  20   2.0000      -6.034136      -164.1972
  21   2.0000      -6.030663      -164.1027
  22   2.0000      -6.030164      -164.0891
  23   2.0000      -6.027517      -164.0171
  24   2.0000      -1.015675       -27.6379
  25   2.0000      -0.991080       -26.9686
  26   2.0000      -0.914115       -24.8743
  27   2.0000      -0.910867       -24.7860
  28   2.0000      -0.873885       -23.7796
  29   2.0000      -0.852738       -23.2042
  30   2.0000      -0.846183       -23.0258
  31   2.0000      -0.822284       -22.3755
  32   2.0000      -0.784738       -21.3538
  33   2.0000      -0.770630       -20.9699
  34   2.0000      -0.709094       -19.2954
  35   2.0000      -0.706439       -19.2232
  36   2.0000      -0.698422       -19.0050
  37   2.0000      -0.661938       -18.0122
  38   2.0000      -0.643602       -17.5133
  39   2.0000      -0.619834       -16.8665
  40   2.0000      -0.601255       -16.3610
  41   2.0000      -0.567731       -15.4487
  42   2.0000      -0.556001       -15.1295
  43   2.0000      -0.552019       -15.0212
  44   2.0000      -0.546855       -14.8807
  45   2.0000      -0.534034       -14.5318
  46   2.0000      -0.520924       -14.1751
  47   2.0000      -0.513190       -13.9646
  48   2.0000      -0.508030       -13.8242
  49   2.0000      -0.500563       -13.6210
  50   2.0000      -0.488282       -13.2868
  51   2.0000      -0.483062       -13.1448
  52   2.0000      -0.471787       -12.8380
  53   2.0000      -0.464346       -12.6355
  54   2.0000      -0.459045       -12.4913
  55   2.0000      -0.450838       -12.2679
  56   2.0000      -0.445670       -12.1273
  57   2.0000      -0.441392       -12.0109
  58   2.0000      -0.430778       -11.7221
  59   2.0000      -0.428934       -11.6719
  60   2.0000      -0.421399       -11.4669
  61   2.0000      -0.415818       -11.3150
  62   2.0000      -0.405305       -11.0289
  63   2.0000      -0.356787        -9.7087
  64   2.0000      -0.334641        -9.1061
  65   2.0000      -0.326825        -8.8934
  66   2.0000      -0.287472        -7.8225
  67   0.0000       0.025776         0.7014
  68   0.0000       0.073336         1.9956
  69   0.0000       0.106084         2.8867
  70   0.0000       0.120437         3.2772
  71   0.0000       0.133279         3.6267

MULLIKEN ATOMIC CHARGES
-----------------------
   0 S :    0.091505
   1 C :   -0.126826
   2 C :   -0.128687
   3 C :    0.029506
   4 C :   -0.153159
   5 H :    0.024981
   6 C :    0.094620
   7 H :    0.005063
   8 H :    0.015021
   9 C :   -0.009519
  10 H :    0.024010
  11 H :   -0.001134
  12 C :   -0.090565
  13 H :    0.042050
  14 H :    0.042014
  15 H :    0.050880
  16 S :    0.099078
  17 C :   -0.089328
  18 C :   -0.037273
  19 C :   -0.079239
  20 C :   -0.124803
  21 H :    0.025604
  22 C :    0.134472
  23 H :   -0.020571
  24 H :    0.027075
  25 C :   -0.054493
  26 H :    0.026102
  27 H :    0.031950
  28 C :   -0.068706
  29 H :    0.038988
  30 H :    0.025229
  31 H :    0.030455
  32 H :    0.057562
  33 H :    0.068137
Sum of atomic charges:   -0.0000000

LOEWDIN ATOMIC CHARGES
----------------------
   0 S :    0.418073
   1 C :   -0.203336
   2 C :   -0.062594
   3 C :   -0.078737
   4 C :   -0.191983
   5 H :    0.034878
   6 C :   -0.025617
   7 H :    0.021605
   8 H :    0.027505
   9 C :   -0.033751
  10 H :    0.025090
  11 H :    0.016329
  12 C :   -0.076695
  13 H :    0.031129
  14 H :    0.030622
  15 H :    0.032146
  16 S :    0.398932
  17 C :   -0.180943
  18 C :   -0.069211
  19 C :   -0.060381
  20 C :   -0.200576
  21 H :    0.036235
  22 C :   -0.028002
  23 H :    0.021181
  24 H :    0.030832
  25 C :   -0.028304
  26 H :    0.020280
  27 H :    0.025586
  28 C :   -0.071560
  29 H :    0.027239
  30 H :    0.025859
  31 H :    0.025765
  32 H :    0.026613
  33 H :    0.035790

  Mayer bond orders larger than 0.100000
B(  0-S ,  1-C ) :   1.1441 B(  0-S ,  4-C ) :   1.1772 B(  1-C ,  2-C ) :   1.5592
B(  1-C ,  4-C ) :   0.1061 B(  1-C , 32-H ) :   0.9818 B(  2-C ,  3-C ) :   1.2559
B(  2-C ,  6-C ) :   1.0280 B(  3-C ,  4-C ) :   1.5631 B(  3-C ,  5-H ) :   0.9860
B(  4-C , 20-C ) :   1.0282 B(  6-C ,  7-H ) :   0.9245 B(  6-C ,  8-H ) :   0.9455
B(  6-C ,  9-C ) :   1.0635 B(  9-C , 10-H ) :   0.9525 B(  9-C , 11-H ) :   0.9477
B(  9-C , 12-C ) :   1.0824 B( 12-C , 13-H ) :   0.9721 B( 12-C , 14-H ) :   0.9700
B( 12-C , 15-H ) :   0.9707 B( 16-S , 17-C ) :   1.1247 B( 16-S , 20-C ) :   1.1535
B( 17-C , 18-C ) :   1.6413 B( 17-C , 33-H ) :   0.9599 B( 18-C , 19-C ) :   1.2360
B( 18-C , 21-H ) :   0.9826 B( 19-C , 20-C ) :   1.5807 B( 19-C , 22-C ) :   1.0658
B( 22-C , 23-H ) :   0.9174 B( 22-C , 24-H ) :   0.9216 B( 22-C , 25-C ) :   1.0636
B( 25-C , 26-H ) :   0.9554 B( 25-C , 27-H ) :   0.9590 B( 25-C , 28-C ) :   1.0786
B( 28-C , 29-H ) :   0.9713 B( 28-C , 30-H ) :   0.9690 B( 28-C , 31-H ) :   0.9746

Dispersion correction           -0.016131831
FINAL SINGLE POINT ENERGY     -1339.877087046613

DIPOLE MOMENT
-------------
                                X             Y             Z
Electronic contribution:     21.13161      13.98823     -12.68527
Nuclear contribution   :    -21.58737     -14.39070      13.14876
                        -----------------------------------------
Total Dipole Moment    :     -0.45576      -0.40247       0.46349
                        -----------------------------------------
Magnitude (a.u.)       :      0.76454
Magnitude (Debye)      :      1.94331

Rotational constants in cm-1:     0.020784     0.010116     0.007702
Rotational constants in MHz :   623.103351   303.258400   230.892299

                             ****ORCA TERMINATED NORMALLY****
TOTAL RUN TIME: 0 days 0 hours 0 minutes 23 seconds 586 msec
