                         Program Version 4.2.1 -  RELEASE  -
|  1> ! wB97X-D3 SP def2-SVP
|  2> %pal
|  3> nprocs 24
|  4> end
|  5>
|  6> * xyz 0 1
|  7> S 	 -90.3523 	 -30.7688 	 -75.369
|  8> C 	 -88.6703 	 -30.5793 	 -75.5851
|  9> C 	 -88.2986 	 -29.4723 	 -76.3348
| 10> C 	 -89.4332 	 -28.7266 	 -76.7418
| 11> C 	 -90.6386 	 -29.2603 	 -76.3646
| 12> H 	 -89.5038 	 -27.8155 	 -77.4308
| 13> C 	 -86.8894 	 -28.9391 	 -76.6524
| 14> H 	 -86.402 	 -28.4678 	 -75.821
| 15> H 	 -87.0063 	 -28.1131 	 -77.3807
| 16> C 	 -85.9213 	 -29.9405 	 -77.3113
| 17> H 	 -84.9692 	 -29.3591 	 -77.4157
| 18> H 	 -85.6142 	 -30.803 	 -76.6995
| 19> C 	 -86.3024 	 -30.4547 	 -78.7542
| 20> H 	 -85.7676 	 -31.3861 	 -78.9924
| 21> H 	 -87.4264 	 -30.7508 	 -78.601
| 22> H 	 -86.1505 	 -29.8029 	 -79.5846
| 23> S 	 -92.7197 	 -28.1335 	 -75.0023
| 24> C 	 -93.9528 	 -27.2057 	 -75.9181
| 25> C 	 -93.7515 	 -27.3251 	 -77.284
| 26> C 	 -92.6009 	 -28.1355 	 -77.5909
| 27> C 	 -91.9878 	 -28.6897 	 -76.4807
| 28> H 	 -94.272 	 -26.6694 	 -78.024
| 29> C 	 -92.147 	 -28.3726 	 -79.0397
| 30> H 	 -93.0487 	 -28.5243 	 -79.6477
| 31> H 	 -91.5342 	 -29.2188 	 -79.1147
| 32> C 	 -91.469 	 -27.1499 	 -79.7483
| 33> H 	 -90.4692 	 -26.9488 	 -79.4387
| 34> H 	 -92.0357 	 -26.2946 	 -79.392
| 35> C 	 -91.4295 	 -27.1298 	 -81.2884
| 36> H 	 -90.5776 	 -27.7561 	 -81.6833
| 37> H 	 -91.3877 	 -26.1468 	 -81.6018
| 38> H 	 -92.3803 	 -27.3633 	 -81.7403
| 39> H 	 -87.9465 	 -31.1913 	 -75.1094
| 40> H 	 -94.6869 	 -26.5938 	 -75.5163
| 41> *
| 42>
| 43>                          ****END OF INPUT****

CARTESIAN COORDINATES (ANGSTROEM)
---------------------------------
  S    -90.352300  -30.768800  -75.369000
  C    -88.670300  -30.579300  -75.585100
  C    -88.298600  -29.472300  -76.334800
  C    -89.433200  -28.726600  -76.741800
  C    -90.638600  -29.260300  -76.364600
  H    -89.503800  -27.815500  -77.430800
  C    -86.889400  -28.939100  -76.652400
  H    -86.402000  -28.467800  -75.821000
  H    -87.006300  -28.113100  -77.380700
  C    -85.921300  -29.940500  -77.311300
  H    -84.969200  -29.359100  -77.415700
  H    -85.614200  -30.803000  -76.699500
  C    -86.302400  -30.454700  -78.754200
  H    -85.767600  -31.386100  -78.992400
  H    -87.426400  -30.750800  -78.601000
  H    -86.150500  -29.802900  -79.584600
  S    -92.719700  -28.133500  -75.002300
  C    -93.952800  -27.205700  -75.918100
  C    -93.751500  -27.325100  -77.284000
  C    -92.600900  -28.135500  -77.590900
  C    -91.987800  -28.689700  -76.480700
  H    -94.272000  -26.669400  -78.024000
  C    -92.147000  -28.372600  -79.039700
  H    -93.048700  -28.524300  -79.647700
  H    -91.534200  -29.218800  -79.114700
  C    -91.469000  -27.149900  -79.748300
  H    -90.469200  -26.948800  -79.438700
  H    -92.035700  -26.294600  -79.392000
  C    -91.429500  -27.129800  -81.288400
  H    -90.577600  -27.756100  -81.683300
  H    -91.387700  -26.146800  -81.601800
  H    -92.380300  -27.363300  -81.740300
  H    -87.946500  -31.191300  -75.109400
  H    -94.686900  -26.593800  -75.516300

 Total Charge           Charge          ....    0
 Multiplicity           Mult            ....    1
 Number of Electrons    NEL             ....  134
 Basis Dimension        Dim             ....  322

ORBITAL ENERGIES
----------------

  NO   OCC          E(Eh)            E(eV)
   0   2.0000     -88.966748     -2420.9083
   1   2.0000     -88.966620     -2420.9048
   2   2.0000     -10.332344      -281.1574
   3   2.0000     -10.325880      -280.9815
   4   2.0000     -10.320078      -280.8236
   5   2.0000     -10.312495      -280.6172
   6   2.0000     -10.305862      -280.4368
   7   2.0000     -10.302057      -280.3332
   8   2.0000     -10.301359      -280.3142
   9   2.0000     -10.299851      -280.2732
  10   2.0000     -10.296788      -280.1898
  11   2.0000     -10.293653      -280.1045
  12   2.0000     -10.289807      -279.9999
  13   2.0000     -10.285629      -279.8862
  14   2.0000     -10.284000      -279.8419
  15   2.0000     -10.277027      -279.6521
  16   2.0000      -8.081222      -219.9012
  17   2.0000      -8.080846      -219.8910
  18   2.0000      -6.039628      -164.3466
  19   2.0000      -6.039483      -164.3427
  20   2.0000      -6.035815      -164.2429
  21   2.0000      -6.035396      -164.2315
  22   2.0000      -6.032061      -164.1407
  23   2.0000      -6.031503      -164.1255
  24   2.0000      -1.003282       -27.3007
  25   2.0000      -0.981662       -26.7124
  26   2.0000      -0.904307       -24.6075
  27   2.0000      -0.902434       -24.5565
  28   2.0000      -0.868949       -23.6453
  29   2.0000      -0.851003       -23.1570
  30   2.0000      -0.845060       -22.9952
  31   2.0000      -0.813283       -22.1305
  32   2.0000      -0.782582       -21.2951
  33   2.0000      -0.772961       -21.0333
  34   2.0000      -0.705307       -19.1924
  35   2.0000      -0.700567       -19.0634
  36   2.0000      -0.694390       -18.8953
  37   2.0000      -0.663692       -18.0600
  38   2.0000      -0.642469       -17.4825
  39   2.0000      -0.608471       -16.5573
  40   2.0000      -0.596202       -16.2235
  41   2.0000      -0.570963       -15.5367
  42   2.0000      -0.565939       -15.4000
  43   2.0000      -0.550475       -14.9792
  44   2.0000      -0.533864       -14.5272
  45   2.0000      -0.527982       -14.3671
  46   2.0000      -0.513541       -13.9742
  47   2.0000      -0.507843       -13.8191
  48   2.0000      -0.504611       -13.7312
  49   2.0000      -0.496004       -13.4970
  50   2.0000      -0.484890       -13.1945
  51   2.0000      -0.476942       -12.9783
  52   2.0000      -0.470104       -12.7922
  53   2.0000      -0.468012       -12.7352
  54   2.0000      -0.461232       -12.5508
  55   2.0000      -0.451333       -12.2814
  56   2.0000      -0.439632       -11.9630
  57   2.0000      -0.437203       -11.8969
  58   2.0000      -0.430088       -11.7033
  59   2.0000      -0.424000       -11.5376
  60   2.0000      -0.422010       -11.4835
  61   2.0000      -0.420700       -11.4478
  62   2.0000      -0.406299       -11.0560
  63   2.0000      -0.350352        -9.5336
  64   2.0000      -0.332738        -9.0543
  65   2.0000      -0.325896        -8.8681
  66   2.0000      -0.296557        -8.0697
  67   0.0000       0.032225         0.8769
  68   0.0000       0.060270         1.6400
  69   0.0000       0.107833         2.9343
  70   0.0000       0.117897         3.2081
  71   0.0000       0.123919         3.3720

MULLIKEN ATOMIC CHARGES
-----------------------
   0 S :    0.106476
   1 C :   -0.092485
   2 C :   -0.097659
   3 C :    0.026447
   4 C :   -0.196755
   5 H :    0.038389
   6 C :    0.091935
   7 H :    0.040612
   8 H :    0.019660
   9 C :   -0.111948
  10 H :    0.027780
  11 H :    0.036433
  12 C :   -0.083232
  13 H :    0.035993
  14 H :    0.053525
  15 H :    0.037359
  16 S :    0.103171
  17 C :   -0.071951
  18 C :   -0.034180
  19 C :   -0.071195
  20 C :   -0.114287
  21 H :    0.043082
  22 C :    0.102664
  23 H :    0.019439
  24 H :    0.021371
  25 C :   -0.093870
  26 H :    0.019274
  27 H :    0.013132
  28 C :   -0.016536
  29 H :    0.054040
  30 H :    0.011480
  31 H :    0.013116
  32 H :    0.034377
  33 H :    0.034341
Sum of atomic charges:   -0.0000000

LOEWDIN ATOMIC CHARGES
----------------------
   0 S :    0.391245
   1 C :   -0.195449
   2 C :   -0.074542
   3 C :   -0.062459
   4 C :   -0.176407
   5 H :    0.046949
   6 C :   -0.029107
   7 H :    0.032647
   8 H :    0.034017
   9 C :   -0.050103
  10 H :    0.026162
  11 H :    0.023562
  12 C :   -0.076242
  13 H :    0.027723
  14 H :    0.039873
  15 H :    0.018251
  16 S :    0.397989
  17 C :   -0.157968
  18 C :   -0.073285
  19 C :   -0.054322
  20 C :   -0.208971
  21 H :    0.040825
  22 C :   -0.023346
  23 H :    0.034032
  24 H :    0.021346
  25 C :   -0.039208
  26 H :    0.014863
  27 H :    0.020594
  28 C :   -0.063962
  29 H :    0.035729
  30 H :    0.019816
  31 H :    0.022336
  32 H :    0.021147
  33 H :    0.016263

  Mayer bond orders larger than 0.100000
B(  0-S ,  1-C ) :   1.1591 B(  0-S ,  4-C ) :   1.1272 B(  1-C ,  2-C ) :   1.6074
B(  1-C , 32-H ) :   0.9687 B(  2-C ,  3-C ) :   1.2408 B(  2-C ,  6-C ) :   1.0050
B(  3-C ,  4-C ) :   1.6179 B(  3-C ,  5-H ) :   0.9713 B(  4-C , 20-C ) :   1.0090
B(  6-C ,  7-H ) :   0.9399 B(  6-C ,  8-H ) :   0.9445 B(  6-C ,  9-C ) :   1.0718
B(  9-C , 10-H ) :   0.9552 B(  9-C , 11-H ) :   0.9616 B(  9-C , 12-C ) :   1.0619
B( 12-C , 13-H ) :   0.9764 B( 12-C , 14-H ) :   0.9759 B( 12-C , 15-H ) :   0.9789
B( 16-S , 17-C ) :   1.1500 B( 16-S , 20-C ) :   1.1332 B( 17-C , 18-C ) :   1.6207
B( 17-C , 33-H ) :   0.9755 B( 18-C , 19-C ) :   1.2358 B( 18-C , 21-H ) :   0.9764
B( 19-C , 20-C ) :   1.6186 B( 19-C , 22-C ) :   1.0512 B( 22-C , 23-H ) :   0.9348
B( 22-C , 24-H ) :   0.9394 B( 22-C , 25-C ) :   1.0495 B( 25-C , 26-H ) :   0.9498
B( 25-C , 27-H ) :   0.9585 B( 25-C , 28-C ) :   1.0918 B( 28-C , 29-H ) :   0.9770
B( 28-C , 30-H ) :   0.9681 B( 28-C , 31-H ) :   0.9679

Dispersion correction           -0.014325390
FINAL SINGLE POINT ENERGY     -1339.868217825734

DIPOLE MOMENT
-------------
                                X             Y             Z
Electronic contribution:    -16.87118      -5.37616      25.37578
Nuclear contribution   :     17.20506       5.89688     -25.86739
                        -----------------------------------------
Total Dipole Moment    :      0.33387       0.52071      -0.49162
                        -----------------------------------------
Magnitude (a.u.)       :      0.79013
Magnitude (Debye)      :      2.00834

Rotational constants in cm-1:     0.017029     0.009294     0.006576
Rotational constants in MHz :   510.510660   278.630429   197.151851

                             ****ORCA TERMINATED NORMALLY****
TOTAL RUN TIME: 0 days 0 hours 0 minutes 21 seconds 481 msec
