                         Program Version 4.2.1 -  RELEASE  -
|  1> ! wB97X-D3 SP def2-SVP
|  2> %pal
|  3> nprocs 24
|  4> end
|  5>
|  6> * xyz 0 1
|  7> S 	 -127.201 	 62.8879 	 -54.371
|  8> C 	 -125.911 	 63.9064 	 -53.8019
|  9> C 	 -126.113 	 64.3062 	 -52.4795
| 10> C 	 -127.334 	 63.8875 	 -51.9366
| 11> C 	 -128.008 	 63.045 	 -52.7798
| 12> H 	 -127.716 	 63.9522 	 -50.9415
| 13> C 	 -124.992 	 64.9313 	 -51.6561
| 14> H 	 -124.2 	 65.2751 	 -52.3781
| 15> H 	 -124.648 	 64.1587 	 -51.028
| 16> C 	 -125.353 	 66.155 	 -50.8684
| 17> H 	 -125.808 	 65.8409 	 -49.9479
| 18> H 	 -124.413 	 66.6319 	 -50.6051
| 19> C 	 -126.185 	 67.1586 	 -51.674
| 20> H 	 -126.372 	 68.1152 	 -51.2134
| 21> H 	 -125.626 	 67.3959 	 -52.5632
| 22> H 	 -127.149 	 66.926 	 -52.0408
| 23> S 	 -130.494 	 62.3686 	 -53.7873
| 24> C 	 -131.717 	 61.686 	 -52.7796
| 25> C 	 -131.11 	 61.258 	 -51.6246
| 26> C 	 -129.707 	 61.6131 	 -51.4211
| 27> C 	 -129.289 	 62.4289 	 -52.5265
| 28> H 	 -131.722 	 60.8509 	 -50.8542
| 29> C 	 -128.989 	 61.3863 	 -50.1217
| 30> H 	 -127.969 	 61.676 	 -50.3289
| 31> H 	 -128.936 	 60.3172 	 -49.8559
| 32> C 	 -129.44 	 62.2388 	 -48.9588
| 33> H 	 -130.44 	 61.9551 	 -48.8048
| 34> H 	 -129.468 	 63.2565 	 -49.2585
| 35> C 	 -128.455 	 61.8653 	 -47.8497
| 36> H 	 -127.415 	 62.2321 	 -48.1342
| 37> H 	 -128.362 	 60.7729 	 -47.5493
| 38> H 	 -128.751 	 62.3936 	 -46.917
| 39> H 	 -125.146 	 64.1901 	 -54.5491
| 40> H 	 -132.737 	 61.4871 	 -53.0254
| 41> *
| 42>
| 43>                          ****END OF INPUT****

CARTESIAN COORDINATES (ANGSTROEM)
---------------------------------
  S    -127.201000   62.887900  -54.371000
  C    -125.911000   63.906400  -53.801900
  C    -126.113000   64.306200  -52.479500
  C    -127.334000   63.887500  -51.936600
  C    -128.008000   63.045000  -52.779800
  H    -127.716000   63.952200  -50.941500
  C    -124.992000   64.931300  -51.656100
  H    -124.200000   65.275100  -52.378100
  H    -124.648000   64.158700  -51.028000
  C    -125.353000   66.155000  -50.868400
  H    -125.808000   65.840900  -49.947900
  H    -124.413000   66.631900  -50.605100
  C    -126.185000   67.158600  -51.674000
  H    -126.372000   68.115200  -51.213400
  H    -125.626000   67.395900  -52.563200
  H    -127.149000   66.926000  -52.040800
  S    -130.494000   62.368600  -53.787300
  C    -131.717000   61.686000  -52.779600
  C    -131.110000   61.258000  -51.624600
  C    -129.707000   61.613100  -51.421100
  C    -129.289000   62.428900  -52.526500
  H    -131.722000   60.850900  -50.854200
  C    -128.989000   61.386300  -50.121700
  H    -127.969000   61.676000  -50.328900
  H    -128.936000   60.317200  -49.855900
  C    -129.440000   62.238800  -48.958800
  H    -130.440000   61.955100  -48.804800
  H    -129.468000   63.256500  -49.258500
  C    -128.455000   61.865300  -47.849700
  H    -127.415000   62.232100  -48.134200
  H    -128.362000   60.772900  -47.549300
  H    -128.751000   62.393600  -46.917000
  H    -125.146000   64.190100  -54.549100
  H    -132.737000   61.487100  -53.025400

 Total Charge           Charge          ....    0
 Multiplicity           Mult            ....    1
 Number of Electrons    NEL             ....  134
 Basis Dimension        Dim             ....  322

ORBITAL ENERGIES
----------------

  NO   OCC          E(Eh)            E(eV)
   0   2.0000     -88.964652     -2420.8513
   1   2.0000     -88.963300     -2420.8145
   2   2.0000     -10.329361      -281.0762
   3   2.0000     -10.329122      -281.0697
   4   2.0000     -10.315510      -280.6993
   5   2.0000     -10.313812      -280.6531
   6   2.0000     -10.307683      -280.4863
   7   2.0000     -10.301040      -280.3056
   8   2.0000     -10.293788      -280.1082
   9   2.0000     -10.291366      -280.0423
  10   2.0000     -10.290653      -280.0229
  11   2.0000     -10.288027      -279.9515
  12   2.0000     -10.287204      -279.9291
  13   2.0000     -10.282882      -279.8114
  14   2.0000     -10.282814      -279.8096
  15   2.0000     -10.267471      -279.3921
  16   2.0000      -8.079232      -219.8471
  17   2.0000      -8.078488      -219.8268
  18   2.0000      -6.037596      -164.2913
  19   2.0000      -6.037044      -164.2763
  20   2.0000      -6.033869      -164.1899
  21   2.0000      -6.032818      -164.1613
  22   2.0000      -6.030057      -164.0862
  23   2.0000      -6.029289      -164.0653
  24   2.0000      -1.006087       -27.3770
  25   2.0000      -0.983653       -26.7666
  26   2.0000      -0.921665       -25.0798
  27   2.0000      -0.915893       -24.9227
  28   2.0000      -0.871003       -23.7012
  29   2.0000      -0.851611       -23.1735
  30   2.0000      -0.843685       -22.9578
  31   2.0000      -0.815508       -22.1911
  32   2.0000      -0.783078       -21.3086
  33   2.0000      -0.767625       -20.8881
  34   2.0000      -0.713609       -19.4183
  35   2.0000      -0.705667       -19.2022
  36   2.0000      -0.694075       -18.8867
  37   2.0000      -0.658460       -17.9176
  38   2.0000      -0.642328       -17.4786
  39   2.0000      -0.622967       -16.9518
  40   2.0000      -0.599432       -16.3114
  41   2.0000      -0.575727       -15.6663
  42   2.0000      -0.570711       -15.5298
  43   2.0000      -0.557406       -15.1678
  44   2.0000      -0.538862       -14.6632
  45   2.0000      -0.524054       -14.2602
  46   2.0000      -0.516721       -14.0607
  47   2.0000      -0.513724       -13.9792
  48   2.0000      -0.508108       -13.8263
  49   2.0000      -0.496061       -13.4985
  50   2.0000      -0.489779       -13.3276
  51   2.0000      -0.482836       -13.1386
  52   2.0000      -0.473272       -12.8784
  53   2.0000      -0.460555       -12.5323
  54   2.0000      -0.459643       -12.5075
  55   2.0000      -0.454820       -12.3763
  56   2.0000      -0.445047       -12.1104
  57   2.0000      -0.438578       -11.9343
  58   2.0000      -0.431389       -11.7387
  59   2.0000      -0.423692       -11.5293
  60   2.0000      -0.420518       -11.4429
  61   2.0000      -0.416190       -11.3251
  62   2.0000      -0.413108       -11.2412
  63   2.0000      -0.351260        -9.5583
  64   2.0000      -0.332260        -9.0412
  65   2.0000      -0.324684        -8.8351
  66   2.0000      -0.286766        -7.8033
  67   0.0000       0.025825         0.7027
  68   0.0000       0.071179         1.9369
  69   0.0000       0.107564         2.9270
  70   0.0000       0.118916         3.2359
  71   0.0000       0.125312         3.4099

MULLIKEN ATOMIC CHARGES
-----------------------
   0 S :    0.103530
   1 C :   -0.155172
   2 C :   -0.076017
   3 C :    0.036217
   4 C :   -0.143530
   5 H :   -0.004503
   6 C :    0.076722
   7 H :    0.021691
   8 H :    0.035389
   9 C :   -0.052094
  10 H :    0.019716
  11 H :    0.029360
  12 C :   -0.025126
  13 H :    0.021963
  14 H :    0.009953
  15 H :    0.026396
  16 S :    0.104613
  17 C :   -0.076968
  18 C :   -0.034610
  19 C :   -0.021717
  20 C :   -0.162009
  21 H :    0.008831
  22 C :    0.013321
  23 H :    0.007478
  24 H :    0.036679
  25 C :   -0.007303
  26 H :    0.011351
  27 H :    0.028520
  28 C :   -0.078145
  29 H :    0.038836
  30 H :    0.049584
  31 H :    0.037327
  32 H :    0.067420
  33 H :    0.052298
Sum of atomic charges:   -0.0000000

LOEWDIN ATOMIC CHARGES
----------------------
   0 S :    0.388723
   1 C :   -0.204959
   2 C :   -0.062532
   3 C :   -0.062040
   4 C :   -0.171206
   5 H :    0.030404
   6 C :   -0.025412
   7 H :    0.033733
   8 H :    0.028664
   9 C :   -0.040475
  10 H :    0.016453
  11 H :    0.029447
  12 C :   -0.065933
  13 H :    0.025017
  14 H :    0.024810
  15 H :    0.022207
  16 S :    0.415296
  17 C :   -0.191956
  18 C :   -0.072838
  19 C :   -0.050574
  20 C :   -0.202715
  21 H :    0.021467
  22 C :   -0.038944
  23 H :    0.023264
  24 H :    0.035666
  25 C :   -0.031389
  26 H :    0.017437
  27 H :    0.022687
  28 C :   -0.070809
  29 H :    0.031596
  30 H :    0.035559
  31 H :    0.025585
  32 H :    0.033176
  33 H :    0.030593

  Mayer bond orders larger than 0.100000
B(  0-S ,  1-C ) :   1.1428 B(  0-S ,  4-C ) :   1.1444 B(  1-C ,  2-C ) :   1.5926
B(  1-C , 32-H ) :   0.9666 B(  2-C ,  3-C ) :   1.2293 B(  2-C ,  6-C ) :   1.0205
B(  3-C ,  4-C ) :   1.5758 B(  3-C ,  5-H ) :   0.9996 B(  4-C , 20-C ) :   1.0742
B(  6-C ,  7-H ) :   0.9396 B(  6-C ,  8-H ) :   0.9415 B(  6-C ,  9-C ) :   1.0809
B(  9-C , 10-H ) :   0.9505 B(  9-C , 11-H ) :   0.9561 B(  9-C , 12-C ) :   1.0800
B( 12-C , 13-H ) :   0.9735 B( 12-C , 14-H ) :   0.9715 B( 12-C , 15-H ) :   0.9700
B( 16-S , 17-C ) :   1.1503 B( 16-S , 20-C ) :   1.1503 B( 17-C , 18-C ) :   1.6071
B( 17-C , 33-H ) :   0.9735 B( 18-C , 19-C ) :   1.2383 B( 18-C , 21-H ) :   0.9882
B( 19-C , 20-C ) :   1.5338 B( 19-C , 22-C ) :   1.0596 B( 22-C , 23-H ) :   0.9297
B( 22-C , 24-H ) :   0.9330 B( 22-C , 25-C ) :   1.0568 B( 25-C , 26-H ) :   0.9503
B( 25-C , 27-H ) :   0.9494 B( 25-C , 28-C ) :   1.0739 B( 28-C , 29-H ) :   0.9725
B( 28-C , 30-H ) :   0.9731 B( 28-C , 31-H ) :   0.9731

Dispersion correction           -0.014660262
FINAL SINGLE POINT ENERGY     -1339.870065067703

DIPOLE MOMENT
-------------
                                X             Y             Z
Electronic contribution:    -10.26347     -10.10919     -24.95364
Nuclear contribution   :     10.38706      10.19018      25.64368
                        -----------------------------------------
Total Dipole Moment    :      0.12359       0.08099       0.69004
                        -----------------------------------------
Magnitude (a.u.)       :      0.70568
Magnitude (Debye)      :      1.79370

Rotational constants in cm-1:     0.016875     0.009924     0.007150
Rotational constants in MHz :   505.904488   297.526377   214.340758

                             ****ORCA TERMINATED NORMALLY****
TOTAL RUN TIME: 0 days 0 hours 0 minutes 21 seconds 127 msec
