                         Program Version 4.2.1 -  RELEASE  -
|  1> ! wB97X-D3 SP def2-SVP
|  2> %pal
|  3> nprocs 24
|  4> end
|  5>
|  6> * xyz 0 1
|  7> S 	 -17.8467 	 -27.065 	 -96.0636
|  8> C 	 -16.4705 	 -27.1453 	 -97.1963
|  9> C 	 -16.4277 	 -28.3361 	 -97.855
| 10> C 	 -17.4219 	 -29.2536 	 -97.3634
| 11> C 	 -18.3194 	 -28.7107 	 -96.4596
| 12> H 	 -17.5097 	 -30.2558 	 -97.6962
| 13> C 	 -15.5457 	 -28.6668 	 -98.999
| 14> H 	 -14.9156 	 -29.4273 	 -98.6483
| 15> H 	 -14.8928 	 -27.7558 	 -99.0516
| 16> C 	 -16.2228 	 -28.9328 	 -100.393
| 17> H 	 -15.5166 	 -28.806 	 -101.212
| 18> H 	 -16.7279 	 -29.9094 	 -100.383
| 19> C 	 -17.244 	 -27.8717 	 -100.717
| 20> H 	 -17.5594 	 -28.1034 	 -101.689
| 21> H 	 -18.0968 	 -27.9742 	 -100.082
| 22> H 	 -16.9097 	 -26.8582 	 -100.629
| 23> S 	 -19.4559 	 -29.2975 	 -94.0476
| 24> C 	 -20.6968 	 -30.5156 	 -94.0152
| 25> C 	 -21.2514 	 -30.7736 	 -95.2137
| 26> C 	 -20.4528 	 -30.1879 	 -96.3013
| 27> C 	 -19.4506 	 -29.3589 	 -95.8022
| 28> H 	 -22.0181 	 -31.5593 	 -95.3095
| 29> C 	 -20.7 	 -30.4393 	 -97.7851
| 30> H 	 -20.8508 	 -31.5317 	 -97.9901
| 31> H 	 -19.7817 	 -30.1278 	 -98.3447
| 32> C 	 -21.8047 	 -29.5331 	 -98.4013
| 33> H 	 -22.7999 	 -29.7816 	 -98.143
| 34> H 	 -21.8728 	 -29.7278 	 -99.443
| 35> C 	 -21.6545 	 -28.0552 	 -98.0594
| 36> H 	 -21.4827 	 -27.9121 	 -97.006
| 37> H 	 -22.5942 	 -27.5471 	 -98.3651
| 38> H 	 -20.8841 	 -27.5672 	 -98.6594
| 39> H 	 -15.8046 	 -26.3574 	 -97.4048
| 40> H 	 -20.9784 	 -31.0556 	 -93.1236
| 41> *
| 42>
| 43>                          ****END OF INPUT****

CARTESIAN COORDINATES (ANGSTROEM)
---------------------------------
  S    -17.846700  -27.065000  -96.063600
  C    -16.470500  -27.145300  -97.196300
  C    -16.427700  -28.336100  -97.855000
  C    -17.421900  -29.253600  -97.363400
  C    -18.319400  -28.710700  -96.459600
  H    -17.509700  -30.255800  -97.696200
  C    -15.545700  -28.666800  -98.999000
  H    -14.915600  -29.427300  -98.648300
  H    -14.892800  -27.755800  -99.051600
  C    -16.222800  -28.932800  -100.393000
  H    -15.516600  -28.806000  -101.212000
  H    -16.727900  -29.909400  -100.383000
  C    -17.244000  -27.871700  -100.717000
  H    -17.559400  -28.103400  -101.689000
  H    -18.096800  -27.974200  -100.082000
  H    -16.909700  -26.858200  -100.629000
  S    -19.455900  -29.297500  -94.047600
  C    -20.696800  -30.515600  -94.015200
  C    -21.251400  -30.773600  -95.213700
  C    -20.452800  -30.187900  -96.301300
  C    -19.450600  -29.358900  -95.802200
  H    -22.018100  -31.559300  -95.309500
  C    -20.700000  -30.439300  -97.785100
  H    -20.850800  -31.531700  -97.990100
  H    -19.781700  -30.127800  -98.344700
  C    -21.804700  -29.533100  -98.401300
  H    -22.799900  -29.781600  -98.143000
  H    -21.872800  -29.727800  -99.443000
  C    -21.654500  -28.055200  -98.059400
  H    -21.482700  -27.912100  -97.006000
  H    -22.594200  -27.547100  -98.365100
  H    -20.884100  -27.567200  -98.659400
  H    -15.804600  -26.357400  -97.404800
  H    -20.978400  -31.055600  -93.123600

 Total Charge           Charge          ....    0
 Multiplicity           Mult            ....    1
 Number of Electrons    NEL             ....  134
 Basis Dimension        Dim             ....  322

ORBITAL ENERGIES
----------------

  NO   OCC          E(Eh)            E(eV)
   0   2.0000     -88.964454     -2420.8459
   1   2.0000     -88.964382     -2420.8439
   2   2.0000     -10.331774      -281.1419
   3   2.0000     -10.327687      -281.0306
   4   2.0000     -10.315439      -280.6974
   5   2.0000     -10.311043      -280.5777
   6   2.0000     -10.309721      -280.5418
   7   2.0000     -10.299202      -280.2555
   8   2.0000     -10.297795      -280.2173
   9   2.0000     -10.296080      -280.1706
  10   2.0000     -10.291316      -280.0409
  11   2.0000     -10.289685      -279.9966
  12   2.0000     -10.289595      -279.9941
  13   2.0000     -10.277247      -279.6581
  14   2.0000     -10.269151      -279.4378
  15   2.0000     -10.263818      -279.2927
  16   2.0000      -8.079686      -219.8594
  17   2.0000      -8.078619      -219.8304
  18   2.0000      -6.038209      -164.3080
  19   2.0000      -6.037281      -164.2828
  20   2.0000      -6.034242      -164.2001
  21   2.0000      -6.033228      -164.1725
  22   2.0000      -6.030267      -164.0919
  23   2.0000      -6.029241      -164.0640
  24   2.0000      -1.006020       -27.3752
  25   2.0000      -0.983259       -26.7558
  26   2.0000      -0.914843       -24.8941
  27   2.0000      -0.905762       -24.6470
  28   2.0000      -0.872898       -23.7528
  29   2.0000      -0.848641       -23.0927
  30   2.0000      -0.844085       -22.9687
  31   2.0000      -0.817475       -22.2446
  32   2.0000      -0.784273       -21.3412
  33   2.0000      -0.772576       -21.0228
  34   2.0000      -0.710901       -19.3446
  35   2.0000      -0.698174       -18.9983
  36   2.0000      -0.694405       -18.8957
  37   2.0000      -0.656355       -17.8603
  38   2.0000      -0.638749       -17.3813
  39   2.0000      -0.621277       -16.9058
  40   2.0000      -0.593107       -16.1393
  41   2.0000      -0.565969       -15.4008
  42   2.0000      -0.560933       -15.2638
  43   2.0000      -0.554301       -15.0833
  44   2.0000      -0.553008       -15.0481
  45   2.0000      -0.540534       -14.7087
  46   2.0000      -0.517071       -14.0702
  47   2.0000      -0.505271       -13.7491
  48   2.0000      -0.502713       -13.6795
  49   2.0000      -0.496207       -13.5025
  50   2.0000      -0.491579       -13.3765
  51   2.0000      -0.477720       -12.9994
  52   2.0000      -0.467555       -12.7228
  53   2.0000      -0.459957       -12.5161
  54   2.0000      -0.455304       -12.3895
  55   2.0000      -0.450356       -12.2548
  56   2.0000      -0.441376       -12.0105
  57   2.0000      -0.438279       -11.9262
  58   2.0000      -0.433834       -11.8052
  59   2.0000      -0.426427       -11.6037
  60   2.0000      -0.421245       -11.4627
  61   2.0000      -0.417822       -11.3695
  62   2.0000      -0.408522       -11.1165
  63   2.0000      -0.351291        -9.5591
  64   2.0000      -0.330201        -8.9852
  65   2.0000      -0.328037        -8.9263
  66   2.0000      -0.292884        -7.9698
  67   0.0000       0.033084         0.9003
  68   0.0000       0.068805         1.8723
  69   0.0000       0.105517         2.8713
  70   0.0000       0.116558         3.1717
  71   0.0000       0.129868         3.5339

MULLIKEN ATOMIC CHARGES
-----------------------
   0 S :    0.093839
   1 C :   -0.102833
   2 C :   -0.126267
   3 C :    0.043883
   4 C :   -0.144470
   5 H :   -0.000535
   6 C :    0.095877
   7 H :    0.027910
   8 H :    0.009525
   9 C :   -0.070995
  10 H :    0.036920
  11 H :    0.036157
  12 C :   -0.017437
  13 H :    0.016523
  14 H :    0.028200
  15 H :    0.026036
  16 S :    0.107172
  17 C :   -0.089908
  18 C :   -0.014424
  19 C :   -0.081723
  20 C :   -0.140602
  21 H :    0.031425
  22 C :    0.049834
  23 H :    0.040082
  24 H :    0.025047
  25 C :   -0.034017
  26 H :    0.005595
  27 H :    0.012426
  28 C :   -0.063039
  29 H :    0.053430
  30 H :    0.029230
  31 H :    0.035263
  32 H :    0.025898
  33 H :    0.055978
Sum of atomic charges:    0.0000000

LOEWDIN ATOMIC CHARGES
----------------------
   0 S :    0.379927
   1 C :   -0.181697
   2 C :   -0.063150
   3 C :   -0.062922
   4 C :   -0.183343
   5 H :    0.022968
   6 C :   -0.033499
   7 H :    0.025882
   8 H :    0.033699
   9 C :   -0.031911
  10 H :    0.028665
  11 H :    0.026435
  12 C :   -0.055996
  13 H :    0.019762
  14 H :    0.021195
  15 H :    0.022753
  16 S :    0.399713
  17 C :   -0.176006
  18 C :   -0.073875
  19 C :   -0.048073
  20 C :   -0.201583
  21 H :    0.037830
  22 C :   -0.037081
  23 H :    0.035158
  24 H :    0.034196
  25 C :   -0.039378
  26 H :    0.014861
  27 H :    0.020251
  28 C :   -0.062723
  29 H :    0.025816
  30 H :    0.030147
  31 H :    0.024018
  32 H :    0.018382
  33 H :    0.029580

  Mayer bond orders larger than 0.100000
B(  0-S ,  1-C ) :   1.1106 B(  0-S ,  4-C ) :   1.1427 B(  1-C ,  2-C ) :   1.6482
B(  1-C , 32-H ) :   0.9664 B(  2-C ,  3-C ) :   1.2090 B(  2-C ,  6-C ) :   1.0244
B(  3-C ,  4-C ) :   1.5931 B(  3-C ,  5-H ) :   0.9972 B(  4-C , 20-C ) :   1.0283
B(  6-C ,  7-H ) :   0.9347 B(  6-C ,  8-H ) :   0.9343 B(  6-C ,  9-C ) :   1.0610
B(  9-C , 10-H ) :   0.9623 B(  9-C , 11-H ) :   0.9542 B(  9-C , 12-C ) :   1.0826
B( 12-C , 13-H ) :   0.9710 B( 12-C , 14-H ) :   0.9666 B( 12-C , 15-H ) :   0.9764
B( 16-S , 17-C ) :   1.1458 B( 16-S , 20-C ) :   1.1245 B( 17-C , 18-C ) :   1.6604
B( 17-C , 33-H ) :   0.9652 B( 18-C , 19-C ) :   1.1869 B( 18-C , 21-H ) :   0.9839
B( 19-C , 20-C ) :   1.6304 B( 19-C , 22-C ) :   1.0517 B( 22-C , 23-H ) :   0.9376
B( 22-C , 24-H ) :   0.9334 B( 22-C , 25-C ) :   1.0597 B( 25-C , 26-H ) :   0.9568
B( 25-C , 27-H ) :   0.9533 B( 25-C , 28-C ) :   1.0776 B( 28-C , 29-H ) :   0.9713
B( 28-C , 30-H ) :   0.9716 B( 28-C , 31-H ) :   0.9767

Dispersion correction           -0.016243939
FINAL SINGLE POINT ENERGY     -1339.881595833372

DIPOLE MOMENT
-------------
                                X             Y             Z
Electronic contribution:      2.64157       1.88355      26.26262
Nuclear contribution   :     -2.70937      -2.36255     -26.85356
                        -----------------------------------------
Total Dipole Moment    :     -0.06780      -0.47900      -0.59095
                        -----------------------------------------
Magnitude (a.u.)       :      0.76372
Magnitude (Debye)      :      1.94121

Rotational constants in cm-1:     0.020304     0.009900     0.007962
Rotational constants in MHz :   608.711805   296.795453   238.695607

                             ****ORCA TERMINATED NORMALLY****
TOTAL RUN TIME: 0 days 0 hours 0 minutes 23 seconds 456 msec
