                         Program Version 4.2.1 -  RELEASE  -
|  1> ! wB97X-D3 SP def2-SVP
|  2> %pal
|  3> nprocs 24
|  4> end
|  5>
|  6> * xyz 0 1
|  7> S 	 -45.9033 	 -3.2487 	 -24.4604
|  8> C 	 -47.0818 	 -4.30368 	 -25.1596
|  9> C 	 -46.5741 	 -5.27671 	 -26.0006
| 10> C 	 -45.1523 	 -4.93697 	 -26.2544
| 11> C 	 -44.6965 	 -3.86288 	 -25.5243
| 12> H 	 -44.506 	 -5.44574 	 -26.9803
| 13> C 	 -47.4057 	 -6.37229 	 -26.762
| 14> H 	 -47.7272 	 -7.18868 	 -26.0864
| 15> H 	 -46.742 	 -6.79407 	 -27.4916
| 16> C 	 -48.6812 	 -5.89643 	 -27.5301
| 17> H 	 -49.2275 	 -6.82034 	 -27.8961
| 18> H 	 -49.1984 	 -5.19304 	 -26.9091
| 19> C 	 -48.113 	 -5.09375 	 -28.7287
| 20> H 	 -47.5529 	 -4.23833 	 -28.635
| 21> H 	 -47.5475 	 -5.77672 	 -29.3326
| 22> H 	 -48.9752 	 -4.80092 	 -29.2609
| 23> S 	 -43.5767 	 -1.3279 	 -25.8018
| 24> C 	 -41.8386 	 -1.18742 	 -25.9886
| 25> C 	 -41.2807 	 -2.43053 	 -26.064
| 26> C 	 -42.1646 	 -3.5455 	 -25.7842
| 27> C 	 -43.4864 	 -3.11606 	 -25.733
| 28> H 	 -40.2052 	 -2.49374 	 -26.282
| 29> C 	 -41.6349 	 -4.9653 	 -25.6178
| 30> H 	 -40.7265 	 -5.13404 	 -26.2742
| 31> H 	 -42.4773 	 -5.5757 	 -26.0346
| 32> C 	 -41.6177 	 -5.33809 	 -24.1104
| 33> H 	 -42.5638 	 -4.97939 	 -23.6804
| 34> H 	 -40.6964 	 -4.84607 	 -23.7447
| 35> C 	 -41.4996 	 -6.85551 	 -23.8823
| 36> H 	 -42.3772 	 -7.45975 	 -24.1792
| 37> H 	 -41.4216 	 -6.98397 	 -22.7908
| 38> H 	 -40.6121 	 -7.24149 	 -24.4762
| 39> H 	 -48.1014 	 -4.22163 	 -24.8339
| 40> H 	 -41.3505 	 -0.297952 	 -26.2299
| 41> *
| 42>
| 43>                          ****END OF INPUT****

CARTESIAN COORDINATES (ANGSTROEM)
---------------------------------
  S    -45.903300   -3.248700  -24.460400
  C    -47.081800   -4.303680  -25.159600
  C    -46.574100   -5.276710  -26.000600
  C    -45.152300   -4.936970  -26.254400
  C    -44.696500   -3.862880  -25.524300
  H    -44.506000   -5.445740  -26.980300
  C    -47.405700   -6.372290  -26.762000
  H    -47.727200   -7.188680  -26.086400
  H    -46.742000   -6.794070  -27.491600
  C    -48.681200   -5.896430  -27.530100
  H    -49.227500   -6.820340  -27.896100
  H    -49.198400   -5.193040  -26.909100
  C    -48.113000   -5.093750  -28.728700
  H    -47.552900   -4.238330  -28.635000
  H    -47.547500   -5.776720  -29.332600
  H    -48.975200   -4.800920  -29.260900
  S    -43.576700   -1.327900  -25.801800
  C    -41.838600   -1.187420  -25.988600
  C    -41.280700   -2.430530  -26.064000
  C    -42.164600   -3.545500  -25.784200
  C    -43.486400   -3.116060  -25.733000
  H    -40.205200   -2.493740  -26.282000
  C    -41.634900   -4.965300  -25.617800
  H    -40.726500   -5.134040  -26.274200
  H    -42.477300   -5.575700  -26.034600
  C    -41.617700   -5.338090  -24.110400
  H    -42.563800   -4.979390  -23.680400
  H    -40.696400   -4.846070  -23.744700
  C    -41.499600   -6.855510  -23.882300
  H    -42.377200   -7.459750  -24.179200
  H    -41.421600   -6.983970  -22.790800
  H    -40.612100   -7.241490  -24.476200
  H    -48.101400   -4.221630  -24.833900
  H    -41.350500   -0.297952  -26.229900

 Total Charge           Charge          ....    0
 Multiplicity           Mult            ....    1
 Number of Electrons    NEL             ....  134
 Basis Dimension        Dim             ....  322

ORBITAL ENERGIES
----------------

  NO   OCC          E(Eh)            E(eV)
   0   2.0000     -88.965780     -2420.8819
   1   2.0000     -88.962137     -2420.7828
   2   2.0000     -10.326696      -281.0037
   3   2.0000     -10.324687      -280.9490
   4   2.0000     -10.312546      -280.6186
   5   2.0000     -10.311889      -280.6008
   6   2.0000     -10.311285      -280.5843
   7   2.0000     -10.304072      -280.3881
   8   2.0000     -10.301597      -280.3207
   9   2.0000     -10.297895      -280.2200
  10   2.0000     -10.297768      -280.2165
  11   2.0000     -10.295594      -280.1574
  12   2.0000     -10.292703      -280.0787
  13   2.0000     -10.289655      -279.9958
  14   2.0000     -10.282841      -279.8103
  15   2.0000     -10.262226      -279.2494
  16   2.0000      -8.081672      -219.9135
  17   2.0000      -8.076301      -219.7673
  18   2.0000      -6.040126      -164.3602
  19   2.0000      -6.036069      -164.2498
  20   2.0000      -6.034945      -164.2192
  21   2.0000      -6.032372      -164.1492
  22   2.0000      -6.030933      -164.1100
  23   2.0000      -6.026899      -164.0003
  24   2.0000      -1.007468       -27.4146
  25   2.0000      -0.980258       -26.6742
  26   2.0000      -0.909903       -24.7597
  27   2.0000      -0.905080       -24.6285
  28   2.0000      -0.870037       -23.6749
  29   2.0000      -0.848765       -23.0961
  30   2.0000      -0.840065       -22.8593
  31   2.0000      -0.811307       -22.0768
  32   2.0000      -0.781714       -21.2715
  33   2.0000      -0.769076       -20.9276
  34   2.0000      -0.705753       -19.2045
  35   2.0000      -0.701674       -19.0935
  36   2.0000      -0.685980       -18.6665
  37   2.0000      -0.661497       -18.0002
  38   2.0000      -0.641959       -17.4686
  39   2.0000      -0.610320       -16.6077
  40   2.0000      -0.589544       -16.0423
  41   2.0000      -0.577083       -15.7032
  42   2.0000      -0.568053       -15.4575
  43   2.0000      -0.546921       -14.8825
  44   2.0000      -0.543260       -14.7828
  45   2.0000      -0.521686       -14.1958
  46   2.0000      -0.512956       -13.9582
  47   2.0000      -0.510022       -13.8784
  48   2.0000      -0.508152       -13.8275
  49   2.0000      -0.497253       -13.5309
  50   2.0000      -0.487010       -13.2522
  51   2.0000      -0.481607       -13.1052
  52   2.0000      -0.473647       -12.8886
  53   2.0000      -0.459926       -12.5152
  54   2.0000      -0.458145       -12.4668
  55   2.0000      -0.449066       -12.2197
  56   2.0000      -0.437263       -11.8985
  57   2.0000      -0.434684       -11.8283
  58   2.0000      -0.433060       -11.7841
  59   2.0000      -0.426474       -11.6049
  60   2.0000      -0.416309       -11.3283
  61   2.0000      -0.413545       -11.2531
  62   2.0000      -0.411618       -11.2007
  63   2.0000      -0.350651        -9.5417
  64   2.0000      -0.330010        -8.9800
  65   2.0000      -0.325978        -8.8703
  66   2.0000      -0.290203        -7.8968
  67   0.0000       0.027244         0.7413
  68   0.0000       0.075123         2.0442
  69   0.0000       0.104471         2.8428
  70   0.0000       0.117262         3.1908
  71   0.0000       0.137645         3.7455

MULLIKEN ATOMIC CHARGES
-----------------------
   0 S :    0.120678
   1 C :   -0.145447
   2 C :   -0.074404
   3 C :    0.010334
   4 C :   -0.172303
   5 H :    0.031473
   6 C :    0.059202
   7 H :    0.043261
   8 H :    0.009451
   9 C :   -0.079246
  10 H :    0.053791
  11 H :    0.034546
  12 C :   -0.021037
  13 H :    0.032072
  14 H :    0.012365
  15 H :    0.014857
  16 S :    0.091749
  17 C :   -0.068467
  18 C :   -0.040534
  19 C :   -0.056843
  20 C :   -0.139892
  21 H :    0.022817
  22 C :    0.050702
  23 H :    0.046566
  24 H :    0.006560
  25 C :   -0.074283
  26 H :    0.049529
  27 H :    0.038713
  28 C :   -0.063723
  29 H :    0.039493
  30 H :    0.041415
  31 H :    0.039183
  32 H :    0.047755
  33 H :    0.039669
Sum of atomic charges:   -0.0000000

LOEWDIN ATOMIC CHARGES
----------------------
   0 S :    0.421945
   1 C :   -0.196628
   2 C :   -0.057997
   3 C :   -0.060470
   4 C :   -0.210281
   5 H :    0.031988
   6 C :   -0.031369
   7 H :    0.031646
   8 H :    0.021675
   9 C :   -0.029845
  10 H :    0.038884
  11 H :    0.020042
  12 C :   -0.056526
  13 H :    0.018178
  14 H :    0.020300
  15 H :    0.019944
  16 S :    0.379379
  17 C :   -0.175189
  18 C :   -0.074217
  19 C :   -0.053835
  20 C :   -0.190129
  21 H :    0.032309
  22 C :   -0.042367
  23 H :    0.036994
  24 H :    0.030178
  25 C :   -0.036340
  26 H :    0.032080
  27 H :    0.028472
  28 C :   -0.074163
  29 H :    0.025893
  30 H :    0.029331
  31 H :    0.030829
  32 H :    0.019819
  33 H :    0.019471

  Mayer bond orders larger than 0.100000
B(  0-S ,  1-C ) :   1.1490 B(  0-S ,  4-C ) :   1.1401 B(  1-C ,  2-C ) :   1.6175
B(  1-C , 32-H ) :   0.9693 B(  2-C ,  3-C ) :   1.2221 B(  2-C ,  6-C ) :   1.0117
B(  3-C ,  4-C ) :   1.6023 B(  3-C ,  5-H ) :   0.9775 B(  4-C , 20-C ) :   1.0557
B(  6-C ,  7-H ) :   0.9389 B(  6-C ,  8-H ) :   0.9481 B(  6-C ,  9-C ) :   1.0732
B(  9-C , 10-H ) :   0.9530 B(  9-C , 11-H ) :   0.9580 B(  9-C , 12-C ) :   1.0697
B( 12-C , 13-H ) :   0.9800 B( 12-C , 14-H ) :   0.9756 B( 12-C , 15-H ) :   0.9725
B( 16-S , 17-C ) :   1.1363 B( 16-S , 20-C ) :   1.1242 B( 17-C , 18-C ) :   1.6378
B( 17-C , 33-H ) :   0.9722 B( 18-C , 19-C ) :   1.2210 B( 18-C , 21-H ) :   0.9835
B( 19-C , 20-C ) :   1.6030 B( 19-C , 22-C ) :   1.0396 B( 22-C , 23-H ) :   0.9388
B( 22-C , 24-H ) :   0.9274 B( 22-C , 25-C ) :   1.0480 B( 25-C , 26-H ) :   0.9557
B( 25-C , 27-H ) :   0.9561 B( 25-C , 28-C ) :   1.0843 B( 28-C , 29-H ) :   0.9744
B( 28-C , 30-H ) :   0.9743 B( 28-C , 31-H ) :   0.9719

Dispersion correction           -0.014364691
FINAL SINGLE POINT ENERGY     -1339.866850289914

DIPOLE MOMENT
-------------
                                X             Y             Z
Electronic contribution:      1.30281      21.64327       6.89588
Nuclear contribution   :     -1.26099     -22.12640      -7.20266
                        -----------------------------------------
Total Dipole Moment    :      0.04182      -0.48313      -0.30678
                        -----------------------------------------
Magnitude (a.u.)       :      0.57382
Magnitude (Debye)      :      1.45855

Rotational constants in cm-1:     0.018800     0.008578     0.007106
Rotational constants in MHz :   563.603082   257.148358   213.032185

                             ****ORCA TERMINATED NORMALLY****
TOTAL RUN TIME: 0 days 0 hours 0 minutes 21 seconds 646 msec
