                         Program Version 4.2.1 -  RELEASE  -
|  1> ! wB97X-D3 SP def2-SVP
|  2> %pal
|  3> nprocs 24
|  4> end
|  5>
|  6> * xyz 0 1
|  7> S 	 -106.19 	 51.7075 	 -71.7979
|  8> C 	 -107.104 	 51.9088 	 -73.2831
|  9> C 	 -108.204 	 52.7499 	 -73.0154
| 10> C 	 -108.288 	 53.0946 	 -71.6653
| 11> C 	 -107.322 	 52.5558 	 -70.7861
| 12> H 	 -109.081 	 53.6584 	 -71.1815
| 13> C 	 -109.304 	 53.0148 	 -73.987
| 14> H 	 -110.225 	 52.7833 	 -73.5944
| 15> H 	 -109.211 	 52.4365 	 -74.8974
| 16> C 	 -109.21 	 54.4658 	 -74.4223
| 17> H 	 -109.298 	 55.0762 	 -73.4776
| 18> H 	 -108.228 	 54.7435 	 -74.7953
| 19> C 	 -110.352 	 54.9281 	 -75.3953
| 20> H 	 -111.342 	 54.6199 	 -75.1036
| 21> H 	 -110.269 	 55.9625 	 -75.6653
| 22> H 	 -110.204 	 54.3772 	 -76.3713
| 23> S 	 -105.979 	 51.5023 	 -68.5025
| 24> C 	 -106.453 	 52.0019 	 -66.9149
| 25> C 	 -107.061 	 53.1889 	 -67.0069
| 26> C 	 -107.41 	 53.5398 	 -68.3689
| 27> C 	 -106.905 	 52.715 	 -69.3459
| 28> H 	 -107.179 	 53.7045 	 -66.085
| 29> C 	 -108.242 	 54.8034 	 -68.6497
| 30> H 	 -108.357 	 55.2564 	 -67.6641
| 31> H 	 -109.212 	 54.542 	 -69.0219
| 32> C 	 -107.633 	 55.8379 	 -69.596
| 33> H 	 -107.39 	 55.4778 	 -70.5517
| 34> H 	 -106.656 	 55.975 	 -69.2178
| 35> C 	 -108.423 	 57.2009 	 -69.5243
| 36> H 	 -108.194 	 57.8696 	 -70.4248
| 37> H 	 -108.141 	 57.6114 	 -68.61
| 38> H 	 -109.439 	 57.0558 	 -69.5847
| 39> H 	 -106.882 	 51.3844 	 -74.201
| 40> H 	 -106.161 	 51.5607 	 -65.9677
| 41> *
| 42>
| 43>                          ****END OF INPUT****

CARTESIAN COORDINATES (ANGSTROEM)
---------------------------------
  S    -106.190000   51.707500  -71.797900
  C    -107.104000   51.908800  -73.283100
  C    -108.204000   52.749900  -73.015400
  C    -108.288000   53.094600  -71.665300
  C    -107.322000   52.555800  -70.786100
  H    -109.081000   53.658400  -71.181500
  C    -109.304000   53.014800  -73.987000
  H    -110.225000   52.783300  -73.594400
  H    -109.211000   52.436500  -74.897400
  C    -109.210000   54.465800  -74.422300
  H    -109.298000   55.076200  -73.477600
  H    -108.228000   54.743500  -74.795300
  C    -110.352000   54.928100  -75.395300
  H    -111.342000   54.619900  -75.103600
  H    -110.269000   55.962500  -75.665300
  H    -110.204000   54.377200  -76.371300
  S    -105.979000   51.502300  -68.502500
  C    -106.453000   52.001900  -66.914900
  C    -107.061000   53.188900  -67.006900
  C    -107.410000   53.539800  -68.368900
  C    -106.905000   52.715000  -69.345900
  H    -107.179000   53.704500  -66.085000
  C    -108.242000   54.803400  -68.649700
  H    -108.357000   55.256400  -67.664100
  H    -109.212000   54.542000  -69.021900
  C    -107.633000   55.837900  -69.596000
  H    -107.390000   55.477800  -70.551700
  H    -106.656000   55.975000  -69.217800
  C    -108.423000   57.200900  -69.524300
  H    -108.194000   57.869600  -70.424800
  H    -108.141000   57.611400  -68.610000
  H    -109.439000   57.055800  -69.584700
  H    -106.882000   51.384400  -74.201000
  H    -106.161000   51.560700  -65.967700

 Total Charge           Charge          ....    0
 Multiplicity           Mult            ....    1
 Number of Electrons    NEL             ....  134
 Basis Dimension        Dim             ....  322

ORBITAL ENERGIES
----------------

  NO   OCC          E(Eh)            E(eV)
   0   2.0000     -88.963419     -2420.8177
   1   2.0000     -88.962170     -2420.7837
   2   2.0000     -10.341083      -281.3952
   3   2.0000     -10.333630      -281.1924
   4   2.0000     -10.318810      -280.7891
   5   2.0000     -10.317019      -280.7404
   6   2.0000     -10.306444      -280.4526
   7   2.0000     -10.303413      -280.3701
   8   2.0000     -10.298231      -280.2291
   9   2.0000     -10.291717      -280.0519
  10   2.0000     -10.289857      -280.0012
  11   2.0000     -10.289327      -279.9868
  12   2.0000     -10.284323      -279.8507
  13   2.0000     -10.281706      -279.7795
  14   2.0000     -10.274996      -279.5969
  15   2.0000     -10.274252      -279.5766
  16   2.0000      -8.078326      -219.8224
  17   2.0000      -8.077722      -219.8060
  18   2.0000      -6.036756      -164.2685
  19   2.0000      -6.036426      -164.2595
  20   2.0000      -6.032543      -164.1538
  21   2.0000      -6.032050      -164.1404
  22   2.0000      -6.029432      -164.0692
  23   2.0000      -6.028240      -164.0367
  24   2.0000      -1.011859       -27.5341
  25   2.0000      -0.991180       -26.9714
  26   2.0000      -0.917812       -24.9749
  27   2.0000      -0.908337       -24.7171
  28   2.0000      -0.870867       -23.6975
  29   2.0000      -0.847565       -23.0634
  30   2.0000      -0.841725       -22.9045
  31   2.0000      -0.821816       -22.3627
  32   2.0000      -0.784468       -21.3465
  33   2.0000      -0.773969       -21.0608
  34   2.0000      -0.714288       -19.4368
  35   2.0000      -0.703093       -19.1321
  36   2.0000      -0.693422       -18.8690
  37   2.0000      -0.664881       -18.0923
  38   2.0000      -0.646880       -17.6025
  39   2.0000      -0.626119       -17.0376
  40   2.0000      -0.595569       -16.2063
  41   2.0000      -0.579967       -15.7817
  42   2.0000      -0.569882       -15.5073
  43   2.0000      -0.560049       -15.2397
  44   2.0000      -0.531104       -14.4521
  45   2.0000      -0.524923       -14.2839
  46   2.0000      -0.519838       -14.1455
  47   2.0000      -0.512593       -13.9484
  48   2.0000      -0.505022       -13.7424
  49   2.0000      -0.501141       -13.6367
  50   2.0000      -0.497304       -13.5323
  51   2.0000      -0.489716       -13.3258
  52   2.0000      -0.477500       -12.9934
  53   2.0000      -0.467779       -12.7289
  54   2.0000      -0.458211       -12.4686
  55   2.0000      -0.452129       -12.3031
  56   2.0000      -0.445572       -12.1246
  57   2.0000      -0.442067       -12.0293
  58   2.0000      -0.432616       -11.7721
  59   2.0000      -0.421605       -11.4724
  60   2.0000      -0.415911       -11.3175
  61   2.0000      -0.409891       -11.1537
  62   2.0000      -0.403781       -10.9874
  63   2.0000      -0.362386        -9.8610
  64   2.0000      -0.333327        -9.0703
  65   2.0000      -0.325303        -8.8519
  66   2.0000      -0.289389        -7.8747
  67   0.0000       0.018043         0.4910
  68   0.0000       0.080905         2.2015
  69   0.0000       0.107873         2.9354
  70   0.0000       0.123322         3.3558
  71   0.0000       0.131677         3.5831

MULLIKEN ATOMIC CHARGES
-----------------------
   0 S :    0.080254
   1 C :   -0.111930
   2 C :   -0.089477
   3 C :    0.005748
   4 C :   -0.126575
   5 H :    0.008190
   6 C :    0.139004
   7 H :    0.009440
   8 H :    0.008014
   9 C :   -0.128973
  10 H :    0.027179
  11 H :    0.029448
  12 C :   -0.024148
  13 H :    0.027462
  14 H :    0.039084
  15 H :    0.022270
  16 S :    0.084074
  17 C :   -0.081173
  18 C :   -0.014068
  19 C :   -0.113764
  20 C :   -0.055680
  21 H :    0.011954
  22 C :    0.054460
  23 H :    0.009817
  24 H :    0.028970
  25 C :   -0.051198
  26 H :    0.023588
  27 H :    0.010066
  28 C :   -0.021545
  29 H :    0.043986
  30 H :    0.026480
  31 H :    0.014253
  32 H :    0.054708
  33 H :    0.060080
Sum of atomic charges:   -0.0000000

LOEWDIN ATOMIC CHARGES
----------------------
   0 S :    0.413266
   1 C :   -0.194183
   2 C :   -0.060774
   3 C :   -0.074197
   4 C :   -0.180082
   5 H :    0.028743
   6 C :   -0.020202
   7 H :    0.020471
   8 H :    0.028488
   9 C :   -0.039800
  10 H :    0.023276
  11 H :    0.024160
  12 C :   -0.068077
  13 H :    0.021406
  14 H :    0.024780
  15 H :    0.028152
  16 S :    0.405238
  17 C :   -0.176069
  18 C :   -0.077553
  19 C :   -0.054728
  20 C :   -0.208162
  21 H :    0.030340
  22 C :   -0.028674
  23 H :    0.029143
  24 H :    0.022079
  25 C :   -0.036077
  26 H :    0.015129
  27 H :    0.020422
  28 C :   -0.051228
  29 H :    0.038482
  30 H :    0.018756
  31 H :    0.010924
  32 H :    0.029803
  33 H :    0.036746

  Mayer bond orders larger than 0.100000
B(  0-S ,  1-C ) :   1.1651 B(  0-S ,  4-C ) :   1.1784 B(  1-C ,  2-C ) :   1.5415
B(  1-C ,  4-C ) :   0.1179 B(  1-C , 32-H ) :   0.9752 B(  2-C ,  3-C ) :   1.2945
B(  2-C ,  6-C ) :   1.0351 B(  3-C ,  4-C ) :   1.5338 B(  3-C ,  5-H ) :   0.9857
B(  4-C , 20-C ) :   1.0174 B(  6-C ,  7-H ) :   0.9403 B(  6-C ,  8-H ) :   0.9380
B(  6-C ,  9-C ) :   1.0476 B(  9-C , 10-H ) :   0.9607 B(  9-C , 11-H ) :   0.9565
B(  9-C , 12-C ) :   1.0746 B( 12-C , 13-H ) :   0.9750 B( 12-C , 14-H ) :   0.9754
B( 12-C , 15-H ) :   0.9722 B( 16-S , 17-C ) :   1.1623 B( 16-S , 20-C ) :   1.1108
B( 17-C , 18-C ) :   1.6287 B( 17-C , 33-H ) :   0.9620 B( 18-C , 19-C ) :   1.2278
B( 18-C , 21-H ) :   0.9973 B( 19-C , 20-C ) :   1.6110 B( 19-C , 22-C ) :   1.0368
B( 22-C , 23-H ) :   0.9397 B( 22-C , 24-H ) :   0.9285 B( 22-C , 25-C ) :   1.0613
B( 25-C , 26-H ) :   0.9552 B( 25-C , 27-H ) :   0.9524 B( 25-C , 28-C ) :   1.0665
B( 28-C , 29-H ) :   0.9754 B( 28-C , 30-H ) :   0.9797 B( 28-C , 31-H ) :   0.9791

Dispersion correction           -0.014132666
FINAL SINGLE POINT ENERGY     -1339.854588876798

DIPOLE MOMENT
-------------
                                X             Y             Z
Electronic contribution:     17.93499     -23.79520      12.73792
Nuclear contribution   :    -18.41996      24.21181     -12.68171
                        -----------------------------------------
Total Dipole Moment    :     -0.48498       0.41661       0.05620
                        -----------------------------------------
Magnitude (a.u.)       :      0.64182
Magnitude (Debye)      :      1.63137

Rotational constants in cm-1:     0.019381     0.008814     0.006414
Rotational constants in MHz :   581.033590   264.237700   192.295460

                             ****ORCA TERMINATED NORMALLY****
TOTAL RUN TIME: 0 days 0 hours 0 minutes 21 seconds 930 msec
