                         Program Version 4.2.1 -  RELEASE  -
|  1> ! wB97X-D3 SP def2-SVP
|  2> %pal
|  3> nprocs 24
|  4> end
|  5>
|  6> * xyz 0 1
|  7> S 	 -44.5174 	 -49.4075 	 -68.6346
|  8> C 	 -42.8915 	 -49.172 	 -69.1127
|  9> C 	 -42.0875 	 -49.2879 	 -67.9441
| 10> C 	 -42.8843 	 -49.2278 	 -66.7412
| 11> C 	 -44.2333 	 -49.2723 	 -66.9269
| 12> H 	 -42.5006 	 -49.2336 	 -65.7553
| 13> C 	 -40.5669 	 -49.272 	 -67.9114
| 14> H 	 -40.1634 	 -50.2305 	 -68.2451
| 15> H 	 -40.2273 	 -49.1663 	 -66.9306
| 16> C 	 -39.8946 	 -48.1419 	 -68.7051
| 17> H 	 -40.1998 	 -48.0984 	 -69.7553
| 18> H 	 -40.0741 	 -47.2601 	 -68.1113
| 19> C 	 -38.381 	 -48.338 	 -68.7061
| 20> H 	 -38.0214 	 -49.1376 	 -69.4169
| 21> H 	 -37.9398 	 -47.4426 	 -69.1374
| 22> H 	 -37.9644 	 -48.3968 	 -67.6832
| 23> S 	 -46.7514 	 -50.1694 	 -66.5651
| 24> C 	 -47.5074 	 -50.1041 	 -65.0129
| 25> C 	 -46.6914 	 -49.471 	 -64.0809
| 26> C 	 -45.4369 	 -49.0759 	 -64.57
| 27> C 	 -45.3234 	 -49.4185 	 -65.9095
| 28> H 	 -47.0289 	 -49.2839 	 -63.1194
| 29> C 	 -44.3779 	 -48.3778 	 -63.7207
| 30> H 	 -43.9835 	 -47.4847 	 -64.266
| 31> H 	 -43.624 	 -49.1738 	 -63.5058
| 32> C 	 -44.7943 	 -47.7981 	 -62.3319
| 33> H 	 -43.934 	 -47.7694 	 -61.6761
| 34> H 	 -45.4085 	 -48.5083 	 -61.79
| 35> C 	 -45.5296 	 -46.4462 	 -62.4063
| 36> H 	 -45.7713 	 -46.1874 	 -61.3704
| 37> H 	 -46.36 	 -46.4343 	 -63.172
| 38> H 	 -44.8483 	 -45.7708 	 -62.8
| 39> H 	 -42.5366 	 -49.1211 	 -70.1363
| 40> H 	 -48.5302 	 -50.4022 	 -64.8354
| 41> *
| 42>
| 43>                          ****END OF INPUT****

CARTESIAN COORDINATES (ANGSTROEM)
---------------------------------
  S    -44.517400  -49.407500  -68.634600
  C    -42.891500  -49.172000  -69.112700
  C    -42.087500  -49.287900  -67.944100
  C    -42.884300  -49.227800  -66.741200
  C    -44.233300  -49.272300  -66.926900
  H    -42.500600  -49.233600  -65.755300
  C    -40.566900  -49.272000  -67.911400
  H    -40.163400  -50.230500  -68.245100
  H    -40.227300  -49.166300  -66.930600
  C    -39.894600  -48.141900  -68.705100
  H    -40.199800  -48.098400  -69.755300
  H    -40.074100  -47.260100  -68.111300
  C    -38.381000  -48.338000  -68.706100
  H    -38.021400  -49.137600  -69.416900
  H    -37.939800  -47.442600  -69.137400
  H    -37.964400  -48.396800  -67.683200
  S    -46.751400  -50.169400  -66.565100
  C    -47.507400  -50.104100  -65.012900
  C    -46.691400  -49.471000  -64.080900
  C    -45.436900  -49.075900  -64.570000
  C    -45.323400  -49.418500  -65.909500
  H    -47.028900  -49.283900  -63.119400
  C    -44.377900  -48.377800  -63.720700
  H    -43.983500  -47.484700  -64.266000
  H    -43.624000  -49.173800  -63.505800
  C    -44.794300  -47.798100  -62.331900
  H    -43.934000  -47.769400  -61.676100
  H    -45.408500  -48.508300  -61.790000
  C    -45.529600  -46.446200  -62.406300
  H    -45.771300  -46.187400  -61.370400
  H    -46.360000  -46.434300  -63.172000
  H    -44.848300  -45.770800  -62.800000
  H    -42.536600  -49.121100  -70.136300
  H    -48.530200  -50.402200  -64.835400

 Total Charge           Charge          ....    0
 Multiplicity           Mult            ....    1
 Number of Electrons    NEL             ....  134
 Basis Dimension        Dim             ....  322

ORBITAL ENERGIES
----------------

  NO   OCC          E(Eh)            E(eV)
   0   2.0000     -88.966792     -2420.9095
   1   2.0000     -88.962290     -2420.7870
   2   2.0000     -10.329806      -281.0883
   3   2.0000     -10.327479      -281.0250
   4   2.0000     -10.314986      -280.6850
   5   2.0000     -10.314291      -280.6661
   6   2.0000     -10.304014      -280.3865
   7   2.0000     -10.303762      -280.3796
   8   2.0000     -10.303628      -280.3760
   9   2.0000     -10.288968      -279.9771
  10   2.0000     -10.287391      -279.9341
  11   2.0000     -10.286983      -279.9230
  12   2.0000     -10.285349      -279.8786
  13   2.0000     -10.284185      -279.8469
  14   2.0000     -10.281381      -279.7706
  15   2.0000     -10.279439      -279.7178
  16   2.0000      -8.082161      -219.9268
  17   2.0000      -8.077814      -219.8085
  18   2.0000      -6.040529      -164.3711
  19   2.0000      -6.036627      -164.2650
  20   2.0000      -6.036394      -164.2586
  21   2.0000      -6.032994      -164.1661
  22   2.0000      -6.032080      -164.1412
  23   2.0000      -6.028586      -164.0462
  24   2.0000      -1.010438       -27.4954
  25   2.0000      -0.987939       -26.8832
  26   2.0000      -0.913392       -24.8547
  27   2.0000      -0.909411       -24.7463
  28   2.0000      -0.866349       -23.5745
  29   2.0000      -0.857092       -23.3227
  30   2.0000      -0.844932       -22.9918
  31   2.0000      -0.814999       -22.1772
  32   2.0000      -0.783573       -21.3221
  33   2.0000      -0.769922       -20.9506
  34   2.0000      -0.707086       -19.2408
  35   2.0000      -0.700416       -19.0593
  36   2.0000      -0.688641       -18.7389
  37   2.0000      -0.664727       -18.0881
  38   2.0000      -0.643310       -17.5054
  39   2.0000      -0.617374       -16.7996
  40   2.0000      -0.599970       -16.3260
  41   2.0000      -0.582122       -15.8403
  42   2.0000      -0.562538       -15.3074
  43   2.0000      -0.558957       -15.2100
  44   2.0000      -0.534109       -14.5339
  45   2.0000      -0.524650       -14.2764
  46   2.0000      -0.515658       -14.0318
  47   2.0000      -0.514302       -13.9949
  48   2.0000      -0.507877       -13.8200
  49   2.0000      -0.499865       -13.6020
  50   2.0000      -0.491596       -13.3770
  51   2.0000      -0.483192       -13.1483
  52   2.0000      -0.471449       -12.8288
  53   2.0000      -0.467623       -12.7247
  54   2.0000      -0.464601       -12.6424
  55   2.0000      -0.449191       -12.2231
  56   2.0000      -0.445368       -12.1191
  57   2.0000      -0.439620       -11.9627
  58   2.0000      -0.431572       -11.7437
  59   2.0000      -0.425709       -11.5841
  60   2.0000      -0.421385       -11.4665
  61   2.0000      -0.413752       -11.2588
  62   2.0000      -0.409647       -11.1471
  63   2.0000      -0.358110        -9.7447
  64   2.0000      -0.337181        -9.1752
  65   2.0000      -0.322441        -8.7741
  66   2.0000      -0.281351        -7.6559
  67   0.0000       0.025129         0.6838
  68   0.0000       0.079282         2.1574
  69   0.0000       0.105970         2.8836
  70   0.0000       0.127956         3.4819
  71   0.0000       0.137310         3.7364

MULLIKEN ATOMIC CHARGES
-----------------------
   0 S :    0.094548
   1 C :   -0.114177
   2 C :   -0.089287
   3 C :   -0.001170
   4 C :   -0.092737
   5 H :   -0.013872
   6 C :    0.095752
   7 H :    0.028191
   8 H :   -0.007327
   9 C :   -0.079660
  10 H :    0.034838
  11 H :    0.032685
  12 C :   -0.074658
  13 H :    0.042127
  14 H :    0.025058
  15 H :    0.035329
  16 S :    0.105999
  17 C :   -0.079295
  18 C :   -0.016147
  19 C :   -0.045478
  20 C :   -0.142493
  21 H :   -0.015569
  22 C :    0.016277
  23 H :    0.049967
  24 H :    0.061110
  25 C :   -0.076223
  26 H :    0.021831
  27 H :    0.015344
  28 C :   -0.029976
  29 H :    0.044444
  30 H :    0.048803
  31 H :    0.013524
  32 H :    0.058106
  33 H :    0.054133
Sum of atomic charges:    0.0000000

LOEWDIN ATOMIC CHARGES
----------------------
   0 S :    0.419819
   1 C :   -0.212723
   2 C :   -0.057038
   3 C :   -0.072952
   4 C :   -0.196596
   5 H :    0.021919
   6 C :   -0.031412
   7 H :    0.030563
   8 H :    0.018827
   9 C :   -0.034797
  10 H :    0.023986
  11 H :    0.026845
  12 C :   -0.073183
  13 H :    0.030355
  14 H :    0.024255
  15 H :    0.026051
  16 S :    0.422537
  17 C :   -0.191960
  18 C :   -0.063219
  19 C :   -0.064482
  20 C :   -0.187256
  21 H :    0.018050
  22 C :   -0.035712
  23 H :    0.039304
  24 H :    0.041693
  25 C :   -0.044050
  26 H :    0.025351
  27 H :    0.016448
  28 C :   -0.062201
  29 H :    0.031756
  30 H :    0.036338
  31 H :    0.014122
  32 H :    0.031612
  33 H :    0.027748

  Mayer bond orders larger than 0.100000
B(  0-S ,  1-C ) :   1.1586 B(  0-S ,  4-C ) :   1.1582 B(  1-C ,  2-C ) :   1.5514
B(  1-C , 32-H ) :   0.9760 B(  2-C ,  3-C ) :   1.2679 B(  2-C ,  6-C ) :   1.0294
B(  3-C ,  4-C ) :   1.5555 B(  3-C ,  5-H ) :   1.0017 B(  4-C , 20-C ) :   1.0407
B(  6-C ,  7-H ) :   0.9341 B(  6-C ,  8-H ) :   0.9419 B(  6-C ,  9-C ) :   1.0708
B(  9-C , 10-H ) :   0.9545 B(  9-C , 11-H ) :   0.9571 B(  9-C , 12-C ) :   1.0944
B( 12-C , 13-H ) :   0.9731 B( 12-C , 14-H ) :   0.9721 B( 12-C , 15-H ) :   0.9721
B( 16-S , 17-C ) :   1.1649 B( 16-S , 20-C ) :   1.1621 B( 17-C , 18-C ) :   1.5735
B( 17-C , 20-C ) :   0.1016 B( 17-C , 33-H ) :   0.9687 B( 18-C , 19-C ) :   1.2775
B( 18-C , 21-H ) :   0.9976 B( 19-C , 20-C ) :   1.5825 B( 19-C , 22-C ) :   1.0211
B( 22-C , 23-H ) :   0.9418 B( 22-C , 24-H ) :   0.9255 B( 22-C , 25-C ) :   1.0839
B( 25-C , 26-H ) :   0.9510 B( 25-C , 27-H ) :   0.9487 B( 25-C , 28-C ) :   1.0725
B( 28-C , 29-H ) :   0.9736 B( 28-C , 30-H ) :   0.9760 B( 28-C , 31-H ) :   0.9726

Dispersion correction           -0.013296443
FINAL SINGLE POINT ENERGY     -1339.875455061087

DIPOLE MOMENT
-------------
                                X             Y             Z
Electronic contribution:    -22.20906     -12.36021     -12.03390
Nuclear contribution   :     22.69760      12.57436      12.52906
                        -----------------------------------------
Total Dipole Moment    :      0.48854       0.21415       0.49516
                        -----------------------------------------
Magnitude (a.u.)       :      0.72781
Magnitude (Debye)      :      1.84995

Rotational constants in cm-1:     0.020233     0.007449     0.005717
Rotational constants in MHz :   606.568834   223.319707   171.391026

                             ****ORCA TERMINATED NORMALLY****
TOTAL RUN TIME: 0 days 0 hours 0 minutes 19 seconds 579 msec
