                         Program Version 4.2.1 -  RELEASE  -
|  1> ! wB97X-D3 SP def2-SVP
|  2> %pal
|  3> nprocs 24
|  4> end
|  5>
|  6> * xyz 0 1
|  7> S 	 -121.418 	 53.1658 	 -33.3135
|  8> C 	 -121.503 	 52.1406 	 -34.7349
|  9> C 	 -121.694 	 52.8897 	 -35.865
| 10> C 	 -121.904 	 54.2913 	 -35.6321
| 11> C 	 -121.723 	 54.6334 	 -34.31
| 12> H 	 -122.102 	 55.0792 	 -36.3512
| 13> C 	 -121.808 	 52.3314 	 -37.2696
| 14> H 	 -121.233 	 51.4501 	 -37.383
| 15> H 	 -121.236 	 52.9837 	 -37.9628
| 16> C 	 -123.26 	 52.1859 	 -37.7827
| 17> H 	 -123.803 	 53.1031 	 -37.7942
| 18> H 	 -123.264 	 51.7972 	 -38.7965
| 19> C 	 -124.032 	 51.1975 	 -36.8853
| 20> H 	 -123.643 	 50.2131 	 -37.1645
| 21> H 	 -123.903 	 51.3532 	 -35.8
| 22> H 	 -125.106 	 51.0144 	 -37.137
| 23> S 	 -120.46 	 56.372 	 -32.6077
| 24> C 	 -121.039 	 58.0108 	 -32.3843
| 25> C 	 -122.176 	 58.2661 	 -33.0599
| 26> C 	 -122.625 	 57.088 	 -33.7776
| 27> C 	 -121.858 	 55.9539 	 -33.6623
| 28> H 	 -122.595 	 59.2576 	 -33.0096
| 29> C 	 -123.928 	 57.1146 	 -34.6012
| 30> H 	 -123.658 	 56.9525 	 -35.7075
| 31> H 	 -124.407 	 58.1477 	 -34.631
| 32> C 	 -125.041 	 56.0686 	 -34.3873
| 33> H 	 -124.719 	 55.0614 	 -34.6358
| 34> H 	 -125.785 	 56.2633 	 -35.1114
| 35> C 	 -125.624 	 56.264 	 -33.0329
| 36> H 	 -126.481 	 55.5782 	 -32.9702
| 37> H 	 -126.019 	 57.2801 	 -32.8298
| 38> H 	 -124.837 	 56.0725 	 -32.2905
| 39> H 	 -121.565 	 51.0669 	 -34.7453
| 40> H 	 -120.588 	 58.6723 	 -31.7217
| 41> *
| 42>
| 43>                          ****END OF INPUT****

CARTESIAN COORDINATES (ANGSTROEM)
---------------------------------
  S    -121.418000   53.165800  -33.313500
  C    -121.503000   52.140600  -34.734900
  C    -121.694000   52.889700  -35.865000
  C    -121.904000   54.291300  -35.632100
  C    -121.723000   54.633400  -34.310000
  H    -122.102000   55.079200  -36.351200
  C    -121.808000   52.331400  -37.269600
  H    -121.233000   51.450100  -37.383000
  H    -121.236000   52.983700  -37.962800
  C    -123.260000   52.185900  -37.782700
  H    -123.803000   53.103100  -37.794200
  H    -123.264000   51.797200  -38.796500
  C    -124.032000   51.197500  -36.885300
  H    -123.643000   50.213100  -37.164500
  H    -123.903000   51.353200  -35.800000
  H    -125.106000   51.014400  -37.137000
  S    -120.460000   56.372000  -32.607700
  C    -121.039000   58.010800  -32.384300
  C    -122.176000   58.266100  -33.059900
  C    -122.625000   57.088000  -33.777600
  C    -121.858000   55.953900  -33.662300
  H    -122.595000   59.257600  -33.009600
  C    -123.928000   57.114600  -34.601200
  H    -123.658000   56.952500  -35.707500
  H    -124.407000   58.147700  -34.631000
  C    -125.041000   56.068600  -34.387300
  H    -124.719000   55.061400  -34.635800
  H    -125.785000   56.263300  -35.111400
  C    -125.624000   56.264000  -33.032900
  H    -126.481000   55.578200  -32.970200
  H    -126.019000   57.280100  -32.829800
  H    -124.837000   56.072500  -32.290500
  H    -121.565000   51.066900  -34.745300
  H    -120.588000   58.672300  -31.721700

 Total Charge           Charge          ....    0
 Multiplicity           Mult            ....    1
 Number of Electrons    NEL             ....  134
 Basis Dimension        Dim             ....  322

ORBITAL ENERGIES
----------------

  NO   OCC          E(Eh)            E(eV)
   0   2.0000     -88.968268     -2420.9497
   1   2.0000     -88.959770     -2420.7184
   2   2.0000     -10.339535      -281.3530
   3   2.0000     -10.332620      -281.1649
   4   2.0000     -10.316370      -280.7227
   5   2.0000     -10.312933      -280.6292
   6   2.0000     -10.312065      -280.6056
   7   2.0000     -10.303399      -280.3697
   8   2.0000     -10.299307      -280.2584
   9   2.0000     -10.299131      -280.2536
  10   2.0000     -10.295565      -280.1566
  11   2.0000     -10.292578      -280.0753
  12   2.0000     -10.288269      -279.9580
  13   2.0000     -10.278868      -279.7022
  14   2.0000     -10.276132      -279.6278
  15   2.0000     -10.270737      -279.4810
  16   2.0000      -8.082165      -219.9269
  17   2.0000      -8.074388      -219.7153
  18   2.0000      -6.040860      -164.3802
  19   2.0000      -6.036821      -164.2703
  20   2.0000      -6.032986      -164.1659
  21   2.0000      -6.032726      -164.1588
  22   2.0000      -6.028921      -164.0553
  23   2.0000      -6.025034      -163.9495
  24   2.0000      -1.003546       -27.3079
  25   2.0000      -0.983747       -26.7691
  26   2.0000      -0.911522       -24.8038
  27   2.0000      -0.907792       -24.7023
  28   2.0000      -0.871557       -23.7163
  29   2.0000      -0.848820       -23.0976
  30   2.0000      -0.842173       -22.9167
  31   2.0000      -0.820048       -22.3146
  32   2.0000      -0.780089       -21.2273
  33   2.0000      -0.769868       -20.9492
  34   2.0000      -0.713727       -19.4215
  35   2.0000      -0.699263       -19.0279
  36   2.0000      -0.687107       -18.6971
  37   2.0000      -0.666274       -18.1302
  38   2.0000      -0.645714       -17.5708
  39   2.0000      -0.622216       -16.9314
  40   2.0000      -0.589841       -16.0504
  41   2.0000      -0.576348       -15.6832
  42   2.0000      -0.554198       -15.0805
  43   2.0000      -0.548579       -14.9276
  44   2.0000      -0.543862       -14.7992
  45   2.0000      -0.541601       -14.7377
  46   2.0000      -0.518633       -14.1127
  47   2.0000      -0.511840       -13.9279
  48   2.0000      -0.502257       -13.6671
  49   2.0000      -0.496680       -13.5154
  50   2.0000      -0.485555       -13.2126
  51   2.0000      -0.480215       -13.0673
  52   2.0000      -0.474293       -12.9062
  53   2.0000      -0.465965       -12.6796
  54   2.0000      -0.459440       -12.5020
  55   2.0000      -0.449004       -12.2180
  56   2.0000      -0.433922       -11.8076
  57   2.0000      -0.431946       -11.7539
  58   2.0000      -0.431441       -11.7401
  59   2.0000      -0.421276       -11.4635
  60   2.0000      -0.419307       -11.4099
  61   2.0000      -0.414822       -11.2879
  62   2.0000      -0.406115       -11.0510
  63   2.0000      -0.354640        -9.6502
  64   2.0000      -0.333560        -9.0766
  65   2.0000      -0.327745        -8.9184
  66   2.0000      -0.295448        -8.0395
  67   0.0000       0.026259         0.7145
  68   0.0000       0.066526         1.8103
  69   0.0000       0.107272         2.9190
  70   0.0000       0.117677         3.2021
  71   0.0000       0.126844         3.4516

MULLIKEN ATOMIC CHARGES
-----------------------
   0 S :    0.102101
   1 C :   -0.099875
   2 C :   -0.108533
   3 C :    0.027387
   4 C :   -0.128062
   5 H :    0.020534
   6 C :    0.066417
   7 H :    0.009408
   8 H :    0.028348
   9 C :   -0.028459
  10 H :    0.024990
  11 H :    0.030848
  12 C :   -0.094655
  13 H :    0.013051
  14 H :    0.056084
  15 H :    0.036357
  16 S :    0.070591
  17 C :   -0.053674
  18 C :   -0.021315
  19 C :   -0.037708
  20 C :   -0.120048
  21 H :    0.020813
  22 C :   -0.033812
  23 H :    0.035463
  24 H :    0.026174
  25 C :   -0.021498
  26 H :    0.033050
  27 H :    0.008889
  28 C :   -0.048009
  29 H :    0.031593
  30 H :    0.023950
  31 H :    0.045975
  32 H :    0.048914
  33 H :    0.034712
Sum of atomic charges:    0.0000000

LOEWDIN ATOMIC CHARGES
----------------------
   0 S :    0.382803
   1 C :   -0.190884
   2 C :   -0.063088
   3 C :   -0.057832
   4 C :   -0.172754
   5 H :    0.035960
   6 C :   -0.031610
   7 H :    0.023667
   8 H :    0.035720
   9 C :   -0.032822
  10 H :    0.017527
  11 H :    0.026532
  12 C :   -0.078816
  13 H :    0.021945
  14 H :    0.027608
  15 H :    0.029380
  16 S :    0.374890
  17 C :   -0.158751
  18 C :   -0.072309
  19 C :   -0.057786
  20 C :   -0.182046
  21 H :    0.036460
  22 C :   -0.043914
  23 H :    0.033861
  24 H :    0.032367
  25 C :   -0.042157
  26 H :    0.025235
  27 H :    0.019875
  28 C :   -0.066407
  29 H :    0.025801
  30 H :    0.025147
  31 H :    0.029321
  32 H :    0.030064
  33 H :    0.017011

  Mayer bond orders larger than 0.100000
B(  0-S ,  1-C ) :   1.1200 B(  0-S ,  4-C ) :   1.1382 B(  1-C ,  2-C ) :   1.6392
B(  1-C , 32-H ) :   0.9664 B(  2-C ,  3-C ) :   1.2012 B(  2-C ,  6-C ) :   1.0325
B(  3-C ,  4-C ) :   1.6042 B(  3-C ,  5-H ) :   0.9979 B(  4-C , 20-C ) :   1.0172
B(  6-C ,  7-H ) :   0.9426 B(  6-C ,  8-H ) :   0.9369 B(  6-C ,  9-C ) :   1.0635
B(  9-C , 10-H ) :   0.9603 B(  9-C , 11-H ) :   0.9562 B(  9-C , 12-C ) :   1.0647
B( 12-C , 13-H ) :   0.9750 B( 12-C , 14-H ) :   0.9753 B( 12-C , 15-H ) :   0.9733
B( 16-S , 17-C ) :   1.1518 B( 16-S , 20-C ) :   1.1084 B( 17-C , 18-C ) :   1.6379
B( 17-C , 33-H ) :   0.9704 B( 18-C , 19-C ) :   1.1990 B( 18-C , 21-H ) :   0.9997
B( 19-C , 20-C ) :   1.6387 B( 19-C , 22-C ) :   1.0301 B( 22-C , 23-H ) :   0.9355
B( 22-C , 24-H ) :   0.9449 B( 22-C , 25-C ) :   1.0847 B( 25-C , 26-H ) :   0.9467
B( 25-C , 27-H ) :   0.9442 B( 25-C , 28-C ) :   1.0833 B( 28-C , 29-H ) :   0.9726
B( 28-C , 30-H ) :   0.9725 B( 28-C , 31-H ) :   0.9752

Dispersion correction           -0.015340461
FINAL SINGLE POINT ENERGY     -1339.879519089323

DIPOLE MOMENT
-------------
                                X             Y             Z
Electronic contribution:     21.15281       5.38070      15.67962
Nuclear contribution   :    -21.58179      -5.26046     -16.27610
                        -----------------------------------------
Total Dipole Moment    :     -0.42898       0.12024      -0.59648
                        -----------------------------------------
Magnitude (a.u.)       :      0.74449
Magnitude (Debye)      :      1.89235

Rotational constants in cm-1:     0.020764     0.009095     0.007391
Rotational constants in MHz :   622.497993   272.674966   221.561687

                             ****ORCA TERMINATED NORMALLY****
TOTAL RUN TIME: 0 days 0 hours 0 minutes 22 seconds 579 msec
