                         Program Version 4.2.1 -  RELEASE  -
|  1> ! wB97X-D3 SP def2-SVP
|  2> %pal
|  3> nprocs 24
|  4> end
|  5>
|  6> * xyz 0 1
|  7> S 	 -39.8499 	 -8.1743 	 8.42956
|  8> C 	 -40.7045 	 -9.60564 	 8.6879
|  9> C 	 -40.3513 	 -10.6558 	 7.87211
| 10> C 	 -39.4948 	 -10.1917 	 6.79674
| 11> C 	 -39.0985 	 -8.89861 	 7.01197
| 12> H 	 -39.1403 	 -10.6889 	 5.98161
| 13> C 	 -40.9213 	 -12.0421 	 8.03646
| 14> H 	 -41.2411 	 -12.1677 	 7.03219
| 15> H 	 -41.8191 	 -12.0009 	 8.6746
| 16> C 	 -39.8821 	 -13.0586 	 8.50204
| 17> H 	 -39.1055 	 -12.9954 	 7.72944
| 18> H 	 -39.3933 	 -12.8454 	 9.47484
| 19> C 	 -40.4026 	 -14.4947 	 8.5389
| 20> H 	 -41.0193 	 -14.6526 	 9.43444
| 21> H 	 -41.088 	 -14.8008 	 7.67251
| 22> H 	 -39.594 	 -15.1987 	 8.57518
| 23> S 	 -37.0528 	 -7.07655 	 6.84957
| 24> C 	 -36.1482 	 -6.89855 	 5.39986
| 25> C 	 -36.7757 	 -7.52354 	 4.33512
| 26> C 	 -37.9407 	 -8.2727 	 4.72337
| 27> C 	 -38.2768 	 -8.12121 	 6.0694
| 28> H 	 -36.355 	 -7.42992 	 3.3446
| 29> C 	 -38.6057 	 -9.11638 	 3.62307
| 30> H 	 -39.232 	 -9.89319 	 4.02961
| 31> H 	 -37.8601 	 -9.68 	 3.09981
| 32> C 	 -39.4747 	 -8.27463 	 2.61334
| 33> H 	 -38.8819 	 -7.51284 	 2.19422
| 34> H 	 -40.2205 	 -7.87813 	 3.27668
| 35> C 	 -40.0268 	 -9.23914 	 1.54408
| 36> H 	 -40.8522 	 -8.84865 	 0.9782
| 37> H 	 -40.2025 	 -10.1848 	 2.08805
| 38> H 	 -39.2179 	 -9.51122 	 0.841216
| 39> H 	 -41.4291 	 -9.82662 	 9.45378
| 40> H 	 -35.2382 	 -6.29893 	 5.37774
| 41> *
| 42>
| 43>                          ****END OF INPUT****

CARTESIAN COORDINATES (ANGSTROEM)
---------------------------------
  S    -39.849900   -8.174300    8.429560
  C    -40.704500   -9.605640    8.687900
  C    -40.351300  -10.655800    7.872110
  C    -39.494800  -10.191700    6.796740
  C    -39.098500   -8.898610    7.011970
  H    -39.140300  -10.688900    5.981610
  C    -40.921300  -12.042100    8.036460
  H    -41.241100  -12.167700    7.032190
  H    -41.819100  -12.000900    8.674600
  C    -39.882100  -13.058600    8.502040
  H    -39.105500  -12.995400    7.729440
  H    -39.393300  -12.845400    9.474840
  C    -40.402600  -14.494700    8.538900
  H    -41.019300  -14.652600    9.434440
  H    -41.088000  -14.800800    7.672510
  H    -39.594000  -15.198700    8.575180
  S    -37.052800   -7.076550    6.849570
  C    -36.148200   -6.898550    5.399860
  C    -36.775700   -7.523540    4.335120
  C    -37.940700   -8.272700    4.723370
  C    -38.276800   -8.121210    6.069400
  H    -36.355000   -7.429920    3.344600
  C    -38.605700   -9.116380    3.623070
  H    -39.232000   -9.893190    4.029610
  H    -37.860100   -9.680000    3.099810
  C    -39.474700   -8.274630    2.613340
  H    -38.881900   -7.512840    2.194220
  H    -40.220500   -7.878130    3.276680
  C    -40.026800   -9.239140    1.544080
  H    -40.852200   -8.848650    0.978200
  H    -40.202500  -10.184800    2.088050
  H    -39.217900   -9.511220    0.841216
  H    -41.429100   -9.826620    9.453780
  H    -35.238200   -6.298930    5.377740

 Total Charge           Charge          ....    0
 Multiplicity           Mult            ....    1
 Number of Electrons    NEL             ....  134
 Basis Dimension        Dim             ....  322

ORBITAL ENERGIES
----------------

  NO   OCC          E(Eh)            E(eV)
   0   2.0000     -88.967364     -2420.9250
   1   2.0000     -88.960958     -2420.7507
   2   2.0000     -10.331020      -281.1213
   3   2.0000     -10.328868      -281.0628
   4   2.0000     -10.317796      -280.7615
   5   2.0000     -10.308568      -280.5104
   6   2.0000     -10.303513      -280.3729
   7   2.0000     -10.297405      -280.2066
   8   2.0000     -10.294536      -280.1286
   9   2.0000     -10.292064      -280.0613
  10   2.0000     -10.290498      -280.0187
  11   2.0000     -10.290057      -280.0067
  12   2.0000     -10.288521      -279.9649
  13   2.0000     -10.283303      -279.8229
  14   2.0000     -10.281858      -279.7836
  15   2.0000     -10.281327      -279.7691
  16   2.0000      -8.082990      -219.9494
  17   2.0000      -8.076240      -219.7657
  18   2.0000      -6.041466      -164.3967
  19   2.0000      -6.037512      -164.2890
  20   2.0000      -6.034762      -164.2142
  21   2.0000      -6.033600      -164.1826
  22   2.0000      -6.030581      -164.1004
  23   2.0000      -6.027049      -164.0043
  24   2.0000      -1.008346       -27.4385
  25   2.0000      -0.985667       -26.8214
  26   2.0000      -0.914284       -24.8789
  27   2.0000      -0.908485       -24.7211
  28   2.0000      -0.870624       -23.6909
  29   2.0000      -0.855280       -23.2733
  30   2.0000      -0.846518       -23.0349
  31   2.0000      -0.815585       -22.1932
  32   2.0000      -0.780096       -21.2275
  33   2.0000      -0.769639       -20.9429
  34   2.0000      -0.708540       -19.2803
  35   2.0000      -0.700656       -19.0658
  36   2.0000      -0.692750       -18.8507
  37   2.0000      -0.666195       -18.1281
  38   2.0000      -0.643592       -17.5130
  39   2.0000      -0.622468       -16.9382
  40   2.0000      -0.599703       -16.3187
  41   2.0000      -0.568247       -15.4628
  42   2.0000      -0.567167       -15.4334
  43   2.0000      -0.558618       -15.2008
  44   2.0000      -0.530612       -14.4387
  45   2.0000      -0.527106       -14.3433
  46   2.0000      -0.518723       -14.1152
  47   2.0000      -0.510829       -13.9004
  48   2.0000      -0.507281       -13.8038
  49   2.0000      -0.497923       -13.5492
  50   2.0000      -0.494767       -13.4633
  51   2.0000      -0.482556       -13.1310
  52   2.0000      -0.468839       -12.7578
  53   2.0000      -0.460678       -12.5357
  54   2.0000      -0.456826       -12.4309
  55   2.0000      -0.450494       -12.2586
  56   2.0000      -0.447604       -12.1799
  57   2.0000      -0.440787       -11.9944
  58   2.0000      -0.435729       -11.8568
  59   2.0000      -0.427457       -11.6317
  60   2.0000      -0.424404       -11.5486
  61   2.0000      -0.417524       -11.3614
  62   2.0000      -0.412797       -11.2328
  63   2.0000      -0.358818        -9.7639
  64   2.0000      -0.331355        -9.0166
  65   2.0000      -0.327428        -8.9098
  66   2.0000      -0.283803        -7.7227
  67   0.0000       0.030387         0.8269
  68   0.0000       0.075237         2.0473
  69   0.0000       0.110392         3.0039
  70   0.0000       0.117889         3.2079
  71   0.0000       0.141266         3.8440

MULLIKEN ATOMIC CHARGES
-----------------------
   0 S :    0.127908
   1 C :   -0.097064
   2 C :   -0.117249
   3 C :    0.022980
   4 C :   -0.105840
   5 H :   -0.025357
   6 C :    0.091201
   7 H :    0.020451
   8 H :    0.018426
   9 C :   -0.073923
  10 H :    0.025815
  11 H :    0.042802
  12 C :   -0.054538
  13 H :    0.031061
  14 H :    0.034901
  15 H :    0.033048
  16 S :    0.076408
  17 C :   -0.095257
  18 C :   -0.026690
  19 C :   -0.073555
  20 C :   -0.104828
  21 H :    0.019677
  22 C :    0.026786
  23 H :    0.005784
  24 H :    0.016964
  25 C :   -0.041987
  26 H :    0.022509
  27 H :    0.037170
  28 C :   -0.035880
  29 H :    0.045214
  30 H :    0.025201
  31 H :    0.028239
  32 H :    0.032867
  33 H :    0.066757
Sum of atomic charges:    0.0000000

LOEWDIN ATOMIC CHARGES
----------------------
   0 S :    0.420359
   1 C :   -0.218417
   2 C :   -0.057294
   3 C :   -0.052308
   4 C :   -0.183701
   5 H :    0.012773
   6 C :   -0.029427
   7 H :    0.030323
   8 H :    0.028321
   9 C :   -0.041614
  10 H :    0.024983
  11 H :    0.032572
  12 C :   -0.072187
  13 H :    0.024627
  14 H :    0.031509
  15 H :    0.022649
  16 S :    0.396107
  17 C :   -0.188533
  18 C :   -0.073702
  19 C :   -0.056208
  20 C :   -0.185792
  21 H :    0.031129
  22 C :   -0.029320
  23 H :    0.019469
  24 H :    0.023859
  25 C :   -0.025192
  26 H :    0.014820
  27 H :    0.026483
  28 C :   -0.064808
  29 H :    0.024805
  30 H :    0.027467
  31 H :    0.028341
  32 H :    0.026077
  33 H :    0.031829

  Mayer bond orders larger than 0.100000
B(  0-S ,  1-C ) :   1.1370 B(  0-S ,  4-C ) :   1.1355 B(  1-C ,  2-C ) :   1.6483
B(  1-C , 32-H ) :   0.9595 B(  2-C ,  3-C ) :   1.2025 B(  2-C ,  6-C ) :   1.0134
B(  3-C ,  4-C ) :   1.6111 B(  3-C ,  5-H ) :   1.0036 B(  4-C , 20-C ) :   1.0198
B(  6-C ,  7-H ) :   0.9326 B(  6-C ,  8-H ) :   0.9431 B(  6-C ,  9-C ) :   1.0607
B(  9-C , 10-H ) :   0.9564 B(  9-C , 11-H ) :   0.9555 B(  9-C , 12-C ) :   1.0827
B( 12-C , 13-H ) :   0.9746 B( 12-C , 14-H ) :   0.9740 B( 12-C , 15-H ) :   0.9749
B( 16-S , 17-C ) :   1.1748 B( 16-S , 20-C ) :   1.1200 B( 17-C , 18-C ) :   1.5906
B( 17-C , 33-H ) :   0.9667 B( 18-C , 19-C ) :   1.2381 B( 18-C , 21-H ) :   0.9952
B( 19-C , 20-C ) :   1.6161 B( 19-C , 22-C ) :   1.0340 B( 22-C , 23-H ) :   0.9385
B( 22-C , 24-H ) :   0.9384 B( 22-C , 25-C ) :   1.0536 B( 25-C , 26-H ) :   0.9624
B( 25-C , 27-H ) :   0.9567 B( 25-C , 28-C ) :   1.0733 B( 28-C , 29-H ) :   0.9749
B( 28-C , 30-H ) :   0.9740 B( 28-C , 31-H ) :   0.9732

Dispersion correction           -0.013346646
FINAL SINGLE POINT ENERGY     -1339.876239277741

DIPOLE MOMENT
-------------
                                X             Y             Z
Electronic contribution:      9.27940      23.55143      14.11746
Nuclear contribution   :     -9.30649     -24.08742     -14.57052
                        -----------------------------------------
Total Dipole Moment    :     -0.02708      -0.53599      -0.45306
                        -----------------------------------------
Magnitude (a.u.)       :      0.70234
Magnitude (Debye)      :      1.78520

Rotational constants in cm-1:     0.016758     0.008163     0.006386
Rotational constants in MHz :   502.406983   244.709253   191.461271

                             ****ORCA TERMINATED NORMALLY****
TOTAL RUN TIME: 0 days 0 hours 0 minutes 21 seconds 186 msec
