                         Program Version 4.2.1 -  RELEASE  -
|  1> ! wB97X-D3 SP def2-SVP
|  2> %pal
|  3> nprocs 24
|  4> end
|  5>
|  6> * xyz 0 1
|  7> S 	 -68.4439 	 -44.5061 	 -90.5786
|  8> C 	 -66.8279 	 -44.1383 	 -91.0479
|  9> C 	 -65.9392 	 -45.1227 	 -90.77
| 10> C 	 -66.6487 	 -46.3248 	 -90.3953
| 11> C 	 -67.9743 	 -46.1597 	 -90.3233
| 12> H 	 -66.2108 	 -47.3336 	 -90.08
| 13> C 	 -64.442 	 -45.0148 	 -90.8226
| 14> H 	 -64.2976 	 -44.309 	 -91.678
| 15> H 	 -64.0432 	 -45.8905 	 -91.2505
| 16> C 	 -63.8327 	 -44.5142 	 -89.4988
| 17> H 	 -62.7437 	 -44.5075 	 -89.6066
| 18> H 	 -64.0986 	 -43.4912 	 -89.3405
| 19> C 	 -64.1727 	 -45.3386 	 -88.246
| 20> H 	 -65.2501 	 -45.5377 	 -88.2088
| 21> H 	 -63.5413 	 -46.2628 	 -88.243
| 22> H 	 -63.8605 	 -44.6933 	 -87.3361
| 23> S 	 -70.2816 	 -46.8502 	 -88.9833
| 24> C 	 -70.9239 	 -48.4207 	 -89.0544
| 25> C 	 -70.2676 	 -49.2618 	 -90.0398
| 26> C 	 -69.2061 	 -48.5629 	 -90.6353
| 27> C 	 -68.9578 	 -47.2675 	 -90.1072
| 28> H 	 -70.6329 	 -50.2716 	 -90.1533
| 29> C 	 -68.3975 	 -49.3347 	 -91.6747
| 30> H 	 -67.7826 	 -48.6691 	 -92.3107
| 31> H 	 -69.12 	 -49.8285 	 -92.3697
| 32> C 	 -67.5641 	 -50.4571 	 -91.0786
| 33> H 	 -67.3448 	 -51.1264 	 -91.8758
| 34> H 	 -68.2293 	 -50.9718 	 -90.4057
| 35> C 	 -66.2671 	 -50.0805 	 -90.3989
| 36> H 	 -65.5844 	 -49.5167 	 -90.969
| 37> H 	 -65.6552 	 -50.9188 	 -90.0514
| 38> H 	 -66.3959 	 -49.4982 	 -89.4715
| 39> H 	 -66.565 	 -43.1135 	 -91.356
| 40> H 	 -71.7336 	 -48.6683 	 -88.4432
| 41> *
| 42>
| 43>                          ****END OF INPUT****

CARTESIAN COORDINATES (ANGSTROEM)
---------------------------------
  S    -68.443900  -44.506100  -90.578600
  C    -66.827900  -44.138300  -91.047900
  C    -65.939200  -45.122700  -90.770000
  C    -66.648700  -46.324800  -90.395300
  C    -67.974300  -46.159700  -90.323300
  H    -66.210800  -47.333600  -90.080000
  C    -64.442000  -45.014800  -90.822600
  H    -64.297600  -44.309000  -91.678000
  H    -64.043200  -45.890500  -91.250500
  C    -63.832700  -44.514200  -89.498800
  H    -62.743700  -44.507500  -89.606600
  H    -64.098600  -43.491200  -89.340500
  C    -64.172700  -45.338600  -88.246000
  H    -65.250100  -45.537700  -88.208800
  H    -63.541300  -46.262800  -88.243000
  H    -63.860500  -44.693300  -87.336100
  S    -70.281600  -46.850200  -88.983300
  C    -70.923900  -48.420700  -89.054400
  C    -70.267600  -49.261800  -90.039800
  C    -69.206100  -48.562900  -90.635300
  C    -68.957800  -47.267500  -90.107200
  H    -70.632900  -50.271600  -90.153300
  C    -68.397500  -49.334700  -91.674700
  H    -67.782600  -48.669100  -92.310700
  H    -69.120000  -49.828500  -92.369700
  C    -67.564100  -50.457100  -91.078600
  H    -67.344800  -51.126400  -91.875800
  H    -68.229300  -50.971800  -90.405700
  C    -66.267100  -50.080500  -90.398900
  H    -65.584400  -49.516700  -90.969000
  H    -65.655200  -50.918800  -90.051400
  H    -66.395900  -49.498200  -89.471500
  H    -66.565000  -43.113500  -91.356000
  H    -71.733600  -48.668300  -88.443200

 Total Charge           Charge          ....    0
 Multiplicity           Mult            ....    1
 Number of Electrons    NEL             ....  134
 Basis Dimension        Dim             ....  322

ORBITAL ENERGIES
----------------

  NO   OCC          E(Eh)            E(eV)
   0   2.0000     -88.966144     -2420.8919
   1   2.0000     -88.962854     -2420.8023
   2   2.0000     -10.333027      -281.1760
   3   2.0000     -10.324954      -280.9563
   4   2.0000     -10.317061      -280.7415
   5   2.0000     -10.309981      -280.5489
   6   2.0000     -10.309137      -280.5259
   7   2.0000     -10.298714      -280.2423
   8   2.0000     -10.296909      -280.1931
   9   2.0000     -10.293563      -280.1021
  10   2.0000     -10.291235      -280.0387
  11   2.0000     -10.290044      -280.0063
  12   2.0000     -10.285797      -279.8908
  13   2.0000     -10.285164      -279.8735
  14   2.0000     -10.281714      -279.7797
  15   2.0000     -10.274312      -279.5782
  16   2.0000      -8.081324      -219.9040
  17   2.0000      -8.078792      -219.8351
  18   2.0000      -6.039460      -164.3421
  19   2.0000      -6.037265      -164.2823
  20   2.0000      -6.035674      -164.2390
  21   2.0000      -6.033427      -164.1779
  22   2.0000      -6.032573      -164.1547
  23   2.0000      -6.029222      -164.0635
  24   2.0000      -1.009225       -27.4624
  25   2.0000      -0.985658       -26.8211
  26   2.0000      -0.914325       -24.8800
  27   2.0000      -0.910799       -24.7841
  28   2.0000      -0.863319       -23.4921
  29   2.0000      -0.853577       -23.2270
  30   2.0000      -0.844998       -22.9936
  31   2.0000      -0.811058       -22.0700
  32   2.0000      -0.786537       -21.4027
  33   2.0000      -0.773312       -21.0429
  34   2.0000      -0.706239       -19.2177
  35   2.0000      -0.699704       -19.0399
  36   2.0000      -0.688661       -18.7394
  37   2.0000      -0.661537       -18.0013
  38   2.0000      -0.640256       -17.4222
  39   2.0000      -0.613868       -16.7042
  40   2.0000      -0.598983       -16.2992
  41   2.0000      -0.575468       -15.6593
  42   2.0000      -0.551668       -15.0116
  43   2.0000      -0.546166       -14.8619
  44   2.0000      -0.543639       -14.7932
  45   2.0000      -0.534594       -14.5470
  46   2.0000      -0.518998       -14.1227
  47   2.0000      -0.511164       -13.9095
  48   2.0000      -0.500148       -13.6097
  49   2.0000      -0.493190       -13.4204
  50   2.0000      -0.492053       -13.3895
  51   2.0000      -0.473284       -12.8787
  52   2.0000      -0.471850       -12.8397
  53   2.0000      -0.466219       -12.6865
  54   2.0000      -0.460249       -12.5240
  55   2.0000      -0.445911       -12.1339
  56   2.0000      -0.444260       -12.0889
  57   2.0000      -0.434259       -11.8168
  58   2.0000      -0.433830       -11.8051
  59   2.0000      -0.426139       -11.5958
  60   2.0000      -0.421062       -11.4577
  61   2.0000      -0.416877       -11.3438
  62   2.0000      -0.411046       -11.1851
  63   2.0000      -0.348328        -9.4785
  64   2.0000      -0.333788        -9.0828
  65   2.0000      -0.329922        -8.9776
  66   2.0000      -0.286483        -7.7956
  67   0.0000       0.032695         0.8897
  68   0.0000       0.066200         1.8014
  69   0.0000       0.106788         2.9059
  70   0.0000       0.120601         3.2817
  71   0.0000       0.131063         3.5664

MULLIKEN ATOMIC CHARGES
-----------------------
   0 S :    0.111504
   1 C :   -0.133352
   2 C :   -0.109385
   3 C :   -0.022277
   4 C :   -0.104477
   5 H :    0.017963
   6 C :    0.097550
   7 H :    0.021975
   8 H :    0.009274
   9 C :   -0.041795
  10 H :    0.028629
  11 H :    0.021474
  12 C :   -0.095214
  13 H :    0.063393
  14 H :    0.040989
  15 H :    0.046557
  16 S :    0.099577
  17 C :   -0.082043
  18 C :   -0.061286
  19 C :   -0.013793
  20 C :   -0.170724
  21 H :    0.029923
  22 C :    0.038930
  23 H :    0.029249
  24 H :    0.032491
  25 C :   -0.025814
  26 H :    0.021121
  27 H :    0.016352
  28 C :   -0.047905
  29 H :    0.018573
  30 H :    0.027417
  31 H :    0.042511
  32 H :    0.049950
  33 H :    0.042664
Sum of atomic charges:    0.0000000

LOEWDIN ATOMIC CHARGES
----------------------
   0 S :    0.404902
   1 C :   -0.200205
   2 C :   -0.067650
   3 C :   -0.078080
   4 C :   -0.200170
   5 H :    0.044305
   6 C :   -0.033220
   7 H :    0.038849
   8 H :    0.021854
   9 C :   -0.038999
  10 H :    0.025088
  11 H :    0.020596
  12 C :   -0.072307
  13 H :    0.028626
  14 H :    0.028283
  15 H :    0.037888
  16 S :    0.421063
  17 C :   -0.187366
  18 C :   -0.074291
  19 C :   -0.055868
  20 C :   -0.189945
  21 H :    0.033615
  22 C :   -0.030517
  23 H :    0.028977
  24 H :    0.037950
  25 C :   -0.035407
  26 H :    0.022253
  27 H :    0.022723
  28 C :   -0.069216
  29 H :    0.015639
  30 H :    0.030950
  31 H :    0.027131
  32 H :    0.029423
  33 H :    0.013127

  Mayer bond orders larger than 0.100000
B(  0-S ,  1-C ) :   1.1335 B(  0-S ,  4-C ) :   1.1364 B(  1-C ,  2-C ) :   1.6474
B(  1-C , 32-H ) :   0.9624 B(  2-C ,  3-C ) :   1.1909 B(  2-C ,  6-C ) :   1.0137
B(  3-C ,  4-C ) :   1.6283 B(  3-C ,  5-H ) :   0.9815 B(  4-C , 20-C ) :   1.0142
B(  6-C ,  7-H ) :   0.9366 B(  6-C ,  8-H ) :   0.9396 B(  6-C ,  9-C ) :   1.0595
B(  9-C , 10-H ) :   0.9558 B(  9-C , 11-H ) :   0.9564 B(  9-C , 12-C ) :   1.0774
B( 12-C , 13-H ) :   0.9717 B( 12-C , 14-H ) :   0.9759 B( 12-C , 15-H ) :   0.9724
B( 16-S , 17-C ) :   1.2149 B( 16-S , 20-C ) :   1.1492 B( 17-C , 18-C ) :   1.5293
B( 17-C , 20-C ) :   0.1206 B( 17-C , 33-H ) :   0.9770 B( 18-C , 19-C ) :   1.2690
B( 18-C , 21-H ) :   0.9967 B( 19-C , 20-C ) :   1.5529 B( 19-C , 22-C ) :   1.0449
B( 22-C , 23-H ) :   0.9411 B( 22-C , 24-H ) :   0.9329 B( 22-C , 25-C ) :   1.0766
B( 25-C , 26-H ) :   0.9511 B( 25-C , 27-H ) :   0.9511 B( 25-C , 28-C ) :   1.0868
B( 28-C , 29-H ) :   0.9696 B( 28-C , 30-H ) :   0.9643 B( 28-C , 31-H ) :   0.9637

Dispersion correction           -0.015248548
FINAL SINGLE POINT ENERGY     -1339.875925230066

DIPOLE MOMENT
-------------
                                X             Y             Z
Electronic contribution:    -23.86920      11.27181       0.30881
Nuclear contribution   :     24.31793     -11.65272      -0.39461
                        -----------------------------------------
Total Dipole Moment    :      0.44873      -0.38091      -0.08579
                        -----------------------------------------
Magnitude (a.u.)       :      0.59482
Magnitude (Debye)      :      1.51191

Rotational constants in cm-1:     0.019040     0.009492     0.007465
Rotational constants in MHz :   570.803450   284.568784   223.791329

                             ****ORCA TERMINATED NORMALLY****
TOTAL RUN TIME: 0 days 0 hours 0 minutes 22 seconds 354 msec
