                         Program Version 4.2.1 -  RELEASE  -
|  1> ! wB97X-D3 SP def2-SVP
|  2> %pal
|  3> nprocs 24
|  4> end
|  5>
|  6> * xyz 0 1
|  7> S 	 -97.1212 	 -29.0347 	 -57.8321
|  8> C 	 -97.9735 	 -27.6271 	 -57.2664
|  9> C 	 -97.4256 	 -26.4668 	 -57.7636
| 10> C 	 -96.1448 	 -26.7282 	 -58.3387
| 11> C 	 -95.7675 	 -28.0749 	 -58.4587
| 12> H 	 -95.5529 	 -25.9278 	 -58.6589
| 13> C 	 -97.958 	 -25.0754 	 -57.6083
| 14> H 	 -97.1932 	 -24.4829 	 -57.0723
| 15> H 	 -98.7854 	 -25.0406 	 -56.9194
| 16> C 	 -98.3513 	 -24.3132 	 -58.8529
| 17> H 	 -98.4319 	 -23.2255 	 -58.6775
| 18> H 	 -97.514 	 -24.3199 	 -59.5743
| 19> C 	 -99.5083 	 -24.9768 	 -59.6125
| 20> H 	 -100.205 	 -25.4907 	 -58.9059
| 21> H 	 -100.107 	 -24.2059 	 -60.2041
| 22> H 	 -99.1649 	 -25.7631 	 -60.3112
| 23> S 	 -94.8811 	 -30.0014 	 -60.1833
| 24> C 	 -93.2074 	 -29.9317 	 -60.7588
| 25> C 	 -92.5185 	 -28.9318 	 -60.0789
| 26> C 	 -93.3092 	 -28.2664 	 -59.0808
| 27> C 	 -94.6352 	 -28.7207 	 -59.0821
| 28> H 	 -91.4541 	 -28.7964 	 -60.2334
| 29> C 	 -92.6545 	 -27.1617 	 -58.2711
| 30> H 	 -93.0511 	 -26.2302 	 -58.6527
| 31> H 	 -91.5521 	 -27.0675 	 -58.4809
| 32> C 	 -92.9198 	 -27.229 	 -56.7935
| 33> H 	 -92.7712 	 -28.2876 	 -56.5148
| 34> H 	 -93.9139 	 -26.8697 	 -56.4743
| 35> C 	 -91.9413 	 -26.2878 	 -56.0312
| 36> H 	 -90.9404 	 -26.8121 	 -55.9971
| 37> H 	 -92.2902 	 -26.2659 	 -54.9728
| 38> H 	 -91.8757 	 -25.2551 	 -56.4319
| 39> H 	 -98.9862 	 -27.6108 	 -56.8793
| 40> H 	 -92.8362 	 -30.3574 	 -61.6425
| 41> *
| 42>
| 43>                          ****END OF INPUT****

CARTESIAN COORDINATES (ANGSTROEM)
---------------------------------
  S    -97.121200  -29.034700  -57.832100
  C    -97.973500  -27.627100  -57.266400
  C    -97.425600  -26.466800  -57.763600
  C    -96.144800  -26.728200  -58.338700
  C    -95.767500  -28.074900  -58.458700
  H    -95.552900  -25.927800  -58.658900
  C    -97.958000  -25.075400  -57.608300
  H    -97.193200  -24.482900  -57.072300
  H    -98.785400  -25.040600  -56.919400
  C    -98.351300  -24.313200  -58.852900
  H    -98.431900  -23.225500  -58.677500
  H    -97.514000  -24.319900  -59.574300
  C    -99.508300  -24.976800  -59.612500
  H    -100.205000  -25.490700  -58.905900
  H    -100.107000  -24.205900  -60.204100
  H    -99.164900  -25.763100  -60.311200
  S    -94.881100  -30.001400  -60.183300
  C    -93.207400  -29.931700  -60.758800
  C    -92.518500  -28.931800  -60.078900
  C    -93.309200  -28.266400  -59.080800
  C    -94.635200  -28.720700  -59.082100
  H    -91.454100  -28.796400  -60.233400
  C    -92.654500  -27.161700  -58.271100
  H    -93.051100  -26.230200  -58.652700
  H    -91.552100  -27.067500  -58.480900
  C    -92.919800  -27.229000  -56.793500
  H    -92.771200  -28.287600  -56.514800
  H    -93.913900  -26.869700  -56.474300
  C    -91.941300  -26.287800  -56.031200
  H    -90.940400  -26.812100  -55.997100
  H    -92.290200  -26.265900  -54.972800
  H    -91.875700  -25.255100  -56.431900
  H    -98.986200  -27.610800  -56.879300
  H    -92.836200  -30.357400  -61.642500

 Total Charge           Charge          ....    0
 Multiplicity           Mult            ....    1
 Number of Electrons    NEL             ....  134
 Basis Dimension        Dim             ....  322

ORBITAL ENERGIES
----------------

  NO   OCC          E(Eh)            E(eV)
   0   2.0000     -88.970106     -2420.9997
   1   2.0000     -88.964421     -2420.8450
   2   2.0000     -10.335475      -281.2426
   3   2.0000     -10.328019      -281.0397
   4   2.0000     -10.317325      -280.7487
   5   2.0000     -10.312191      -280.6090
   6   2.0000     -10.304437      -280.3980
   7   2.0000     -10.299506      -280.2638
   8   2.0000     -10.296339      -280.1776
   9   2.0000     -10.292842      -280.0825
  10   2.0000     -10.292669      -280.0778
  11   2.0000     -10.292447      -280.0717
  12   2.0000     -10.289943      -280.0036
  13   2.0000     -10.285394      -279.8798
  14   2.0000     -10.284725      -279.8616
  15   2.0000     -10.283296      -279.8227
  16   2.0000      -8.085115      -220.0072
  17   2.0000      -8.079086      -219.8431
  18   2.0000      -6.043609      -164.4550
  19   2.0000      -6.039520      -164.3437
  20   2.0000      -6.037673      -164.2934
  21   2.0000      -6.035920      -164.2457
  22   2.0000      -6.033590      -164.1823
  23   2.0000      -6.029787      -164.0788
  24   2.0000      -1.008777       -27.4502
  25   2.0000      -0.985024       -26.8039
  26   2.0000      -0.915457       -24.9109
  27   2.0000      -0.910745       -24.7826
  28   2.0000      -0.871735       -23.7211
  29   2.0000      -0.849128       -23.1059
  30   2.0000      -0.843227       -22.9454
  31   2.0000      -0.814119       -22.1533
  32   2.0000      -0.781352       -21.2617
  33   2.0000      -0.770366       -20.9627
  34   2.0000      -0.712684       -19.3931
  35   2.0000      -0.696873       -18.9629
  36   2.0000      -0.685817       -18.6620
  37   2.0000      -0.664832       -18.0910
  38   2.0000      -0.638134       -17.3645
  39   2.0000      -0.628208       -17.0944
  40   2.0000      -0.596849       -16.2411
  41   2.0000      -0.568997       -15.4832
  42   2.0000      -0.567219       -15.4348
  43   2.0000      -0.552910       -15.0455
  44   2.0000      -0.537754       -14.6330
  45   2.0000      -0.525266       -14.2932
  46   2.0000      -0.515778       -14.0350
  47   2.0000      -0.511132       -13.9086
  48   2.0000      -0.506314       -13.7775
  49   2.0000      -0.497110       -13.5271
  50   2.0000      -0.493793       -13.4368
  51   2.0000      -0.483033       -13.1440
  52   2.0000      -0.472366       -12.8537
  53   2.0000      -0.462979       -12.5983
  54   2.0000      -0.456476       -12.4214
  55   2.0000      -0.446013       -12.1366
  56   2.0000      -0.439611       -11.9624
  57   2.0000      -0.436960       -11.8903
  58   2.0000      -0.432234       -11.7617
  59   2.0000      -0.423198       -11.5158
  60   2.0000      -0.420066       -11.4306
  61   2.0000      -0.413204       -11.2439
  62   2.0000      -0.409912       -11.1543
  63   2.0000      -0.355386        -9.6706
  64   2.0000      -0.331897        -9.0314
  65   2.0000      -0.327529        -8.9125
  66   2.0000      -0.286493        -7.7959
  67   0.0000       0.022492         0.6120
  68   0.0000       0.068600         1.8667
  69   0.0000       0.104592         2.8461
  70   0.0000       0.114604         3.1185
  71   0.0000       0.138359         3.7649

MULLIKEN ATOMIC CHARGES
-----------------------
   0 S :    0.093199
   1 C :   -0.101627
   2 C :   -0.101072
   3 C :    0.044579
   4 C :   -0.147749
   5 H :   -0.019226
   6 C :    0.056922
   7 H :    0.031023
   8 H :    0.013201
   9 C :   -0.072307
  10 H :    0.035456
  11 H :    0.023471
  12 C :   -0.085911
  13 H :    0.028921
  14 H :    0.046187
  15 H :    0.053473
  16 S :    0.116219
  17 C :   -0.074482
  18 C :   -0.052329
  19 C :   -0.048029
  20 C :   -0.111462
  21 H :    0.025763
  22 C :    0.071779
  23 H :    0.022321
  24 H :    0.024485
  25 C :   -0.094107
  26 H :    0.040828
  27 H :    0.048227
  28 C :   -0.084788
  29 H :    0.038955
  30 H :    0.039470
  31 H :    0.043796
  32 H :    0.048374
  33 H :    0.046440
Sum of atomic charges:   -0.0000000

LOEWDIN ATOMIC CHARGES
----------------------
   0 S :    0.395834
   1 C :   -0.200051
   2 C :   -0.065717
   3 C :   -0.055672
   4 C :   -0.177426
   5 H :    0.017073
   6 C :   -0.035085
   7 H :    0.036874
   8 H :    0.025987
   9 C :   -0.051424
  10 H :    0.028918
  11 H :    0.024972
  12 C :   -0.075356
  13 H :    0.023279
  14 H :    0.034544
  15 H :    0.032815
  16 S :    0.424522
  17 C :   -0.178120
  18 C :   -0.064519
  19 C :   -0.054467
  20 C :   -0.219608
  21 H :    0.032199
  22 C :   -0.037495
  23 H :    0.028648
  24 H :    0.035830
  25 C :   -0.045251
  26 H :    0.029279
  27 H :    0.027860
  28 C :   -0.074119
  29 H :    0.028513
  30 H :    0.029124
  31 H :    0.026774
  32 H :    0.029233
  33 H :    0.022031

  Mayer bond orders larger than 0.100000
B(  0-S ,  1-C ) :   1.1433 B(  0-S ,  4-C ) :   1.1425 B(  1-C ,  2-C ) :   1.6120
B(  1-C ,  4-C ) :   0.1009 B(  1-C , 32-H ) :   0.9570 B(  2-C ,  3-C ) :   1.2573
B(  2-C ,  6-C ) :   1.0298 B(  3-C ,  4-C ) :   1.5459 B(  3-C ,  5-H ) :   1.0023
B(  4-C , 20-C ) :   1.0597 B(  6-C ,  7-H ) :   0.9360 B(  6-C ,  8-H ) :   0.9419
B(  6-C ,  9-C ) :   1.0818 B(  9-C , 10-H ) :   0.9576 B(  9-C , 11-H ) :   0.9554
B(  9-C , 12-C ) :   1.0518 B( 12-C , 13-H ) :   0.9809 B( 12-C , 14-H ) :   0.9749
B( 12-C , 15-H ) :   0.9748 B( 16-S , 17-C ) :   1.1517 B( 16-S , 20-C ) :   1.1534
B( 17-C , 18-C ) :   1.5978 B( 17-C , 33-H ) :   0.9719 B( 18-C , 19-C ) :   1.2676
B( 18-C , 21-H ) :   0.9871 B( 19-C , 20-C ) :   1.5518 B( 19-C , 22-C ) :   1.0427
B( 22-C , 23-H ) :   0.9129 B( 22-C , 24-H ) :   0.9433 B( 22-C , 25-C ) :   1.0611
B( 25-C , 26-H ) :   0.9624 B( 25-C , 27-H ) :   0.9484 B( 25-C , 28-C ) :   1.0810
B( 28-C , 29-H ) :   0.9756 B( 28-C , 30-H ) :   0.9766 B( 28-C , 31-H ) :   0.9727

Dispersion correction           -0.014649293
FINAL SINGLE POINT ENERGY     -1339.881667621427

DIPOLE MOMENT
-------------
                                X             Y             Z
Electronic contribution:     -1.84598     -23.90052      -7.07272
Nuclear contribution   :      2.08809      24.62074       6.97585
                        -----------------------------------------
Total Dipole Moment    :      0.24210       0.72022      -0.09687
                        -----------------------------------------
Magnitude (a.u.)       :      0.76597
Magnitude (Debye)      :      1.94695

Rotational constants in cm-1:     0.017648     0.009071     0.007343
Rotational constants in MHz :   529.084565   271.937304   220.143130

                             ****ORCA TERMINATED NORMALLY****
TOTAL RUN TIME: 0 days 0 hours 0 minutes 22 seconds 53 msec
