                         Program Version 4.2.1 -  RELEASE  -
|  1> ! wB97X-D3 SP def2-SVP
|  2> %pal
|  3> nprocs 24
|  4> end
|  5>
|  6> * xyz 0 1
|  7> S 	 43.4197 	 -21.395 	 -114.239
|  8> C 	 42.678 	 -20.6158 	 -112.867
|  9> C 	 43.6827 	 -20.1465 	 -112.021
| 10> C 	 45.0105 	 -20.4465 	 -112.505
| 11> C 	 45.0452 	 -21.1418 	 -113.672
| 12> H 	 45.9035 	 -20.2707 	 -111.969
| 13> C 	 43.3985 	 -19.2865 	 -110.868
| 14> H 	 42.3632 	 -19.4997 	 -110.673
| 15> H 	 43.5036 	 -18.2572 	 -111.301
| 16> C 	 44.3089 	 -19.4985 	 -109.674
| 17> H 	 45.3231 	 -19.6472 	 -110.029
| 18> H 	 44.3319 	 -18.5873 	 -109.105
| 19> C 	 43.7386 	 -20.5091 	 -108.73
| 20> H 	 43.4836 	 -21.4836 	 -109.174
| 21> H 	 44.3733 	 -20.7033 	 -107.936
| 22> H 	 42.7888 	 -20.1861 	 -108.318
| 23> S 	 46.2344 	 -21.6067 	 -116.096
| 24> C 	 47.8581 	 -22.2563 	 -116.3
| 25> C 	 48.339 	 -22.5827 	 -115.029
| 26> C 	 47.5071 	 -22.1052 	 -113.897
| 27> C 	 46.3171 	 -21.5712 	 -114.376
| 28> H 	 49.385 	 -22.9473 	 -114.877
| 29> C 	 47.886 	 -22.3385 	 -112.401
| 30> H 	 47.9354 	 -23.4234 	 -112.338
| 31> H 	 47.0651 	 -22.0335 	 -111.846
| 32> C 	 49.0641 	 -21.5895 	 -111.904
| 33> H 	 48.7268 	 -20.5014 	 -111.898
| 34> H 	 49.8975 	 -21.7525 	 -112.586
| 35> C 	 49.562 	 -22.002 	 -110.478
| 36> H 	 48.7655 	 -22.0495 	 -109.829
| 37> H 	 50.3499 	 -21.4406 	 -110.065
| 38> H 	 49.8762 	 -23.0172 	 -110.577
| 39> H 	 41.5701 	 -20.4376 	 -112.76
| 40> H 	 48.3942 	 -22.4308 	 -117.193
| 41> *
| 42>
| 43>                          ****END OF INPUT****

CARTESIAN COORDINATES (ANGSTROEM)
---------------------------------
  S     43.419700  -21.395000  -114.239000
  C     42.678000  -20.615800  -112.867000
  C     43.682700  -20.146500  -112.021000
  C     45.010500  -20.446500  -112.505000
  C     45.045200  -21.141800  -113.672000
  H     45.903500  -20.270700  -111.969000
  C     43.398500  -19.286500  -110.868000
  H     42.363200  -19.499700  -110.673000
  H     43.503600  -18.257200  -111.301000
  C     44.308900  -19.498500  -109.674000
  H     45.323100  -19.647200  -110.029000
  H     44.331900  -18.587300  -109.105000
  C     43.738600  -20.509100  -108.730000
  H     43.483600  -21.483600  -109.174000
  H     44.373300  -20.703300  -107.936000
  H     42.788800  -20.186100  -108.318000
  S     46.234400  -21.606700  -116.096000
  C     47.858100  -22.256300  -116.300000
  C     48.339000  -22.582700  -115.029000
  C     47.507100  -22.105200  -113.897000
  C     46.317100  -21.571200  -114.376000
  H     49.385000  -22.947300  -114.877000
  C     47.886000  -22.338500  -112.401000
  H     47.935400  -23.423400  -112.338000
  H     47.065100  -22.033500  -111.846000
  C     49.064100  -21.589500  -111.904000
  H     48.726800  -20.501400  -111.898000
  H     49.897500  -21.752500  -112.586000
  C     49.562000  -22.002000  -110.478000
  H     48.765500  -22.049500  -109.829000
  H     50.349900  -21.440600  -110.065000
  H     49.876200  -23.017200  -110.577000
  H     41.570100  -20.437600  -112.760000
  H     48.394200  -22.430800  -117.193000

 Total Charge           Charge          ....    0
 Multiplicity           Mult            ....    1
 Number of Electrons    NEL             ....  134
 Basis Dimension        Dim             ....  322

ORBITAL ENERGIES
----------------

  NO   OCC          E(Eh)            E(eV)
   0   2.0000     -88.965093     -2420.8633
   1   2.0000     -88.965045     -2420.8620
   2   2.0000     -10.333527      -281.1896
   3   2.0000     -10.332812      -281.1701
   4   2.0000     -10.321142      -280.8525
   5   2.0000     -10.317255      -280.7468
   6   2.0000     -10.311610      -280.5932
   7   2.0000     -10.304741      -280.4063
   8   2.0000     -10.299135      -280.2537
   9   2.0000     -10.291879      -280.0563
  10   2.0000     -10.288463      -279.9633
  11   2.0000     -10.288282      -279.9584
  12   2.0000     -10.287071      -279.9254
  13   2.0000     -10.283420      -279.8261
  14   2.0000     -10.271019      -279.4886
  15   2.0000     -10.270040      -279.4620
  16   2.0000      -8.080126      -219.8714
  17   2.0000      -8.079869      -219.8644
  18   2.0000      -6.038742      -164.3225
  19   2.0000      -6.038557      -164.3175
  20   2.0000      -6.034477      -164.2065
  21   2.0000      -6.034214      -164.1993
  22   2.0000      -6.030846      -164.1077
  23   2.0000      -6.030581      -164.1005
  24   2.0000      -1.006698       -27.3936
  25   2.0000      -0.984782       -26.7973
  26   2.0000      -0.922961       -25.1150
  27   2.0000      -0.915048       -24.8997
  28   2.0000      -0.869168       -23.6513
  29   2.0000      -0.852573       -23.1997
  30   2.0000      -0.843705       -22.9584
  31   2.0000      -0.821523       -22.3548
  32   2.0000      -0.787119       -21.4186
  33   2.0000      -0.774746       -21.0819
  34   2.0000      -0.715462       -19.4687
  35   2.0000      -0.701240       -19.0817
  36   2.0000      -0.690641       -18.7933
  37   2.0000      -0.657388       -17.8884
  38   2.0000      -0.638727       -17.3806
  39   2.0000      -0.627579       -17.0773
  40   2.0000      -0.597890       -16.2694
  41   2.0000      -0.571402       -15.5486
  42   2.0000      -0.566885       -15.4257
  43   2.0000      -0.564269       -15.3546
  44   2.0000      -0.538736       -14.6598
  45   2.0000      -0.532601       -14.4928
  46   2.0000      -0.523163       -14.2360
  47   2.0000      -0.512553       -13.9473
  48   2.0000      -0.510486       -13.8910
  49   2.0000      -0.500592       -13.6218
  50   2.0000      -0.491780       -13.3820
  51   2.0000      -0.488257       -13.2861
  52   2.0000      -0.474402       -12.9091
  53   2.0000      -0.468597       -12.7512
  54   2.0000      -0.457707       -12.4548
  55   2.0000      -0.455332       -12.3902
  56   2.0000      -0.443026       -12.0554
  57   2.0000      -0.441722       -12.0199
  58   2.0000      -0.435673       -11.8553
  59   2.0000      -0.429669       -11.6919
  60   2.0000      -0.423916       -11.5353
  61   2.0000      -0.412342       -11.2204
  62   2.0000      -0.407000       -11.0750
  63   2.0000      -0.355810        -9.6821
  64   2.0000      -0.329438        -8.9645
  65   2.0000      -0.324025        -8.8172
  66   2.0000      -0.293653        -7.9907
  67   0.0000       0.031552         0.8586
  68   0.0000       0.077415         2.1066
  69   0.0000       0.115662         3.1473
  70   0.0000       0.117059         3.1853
  71   0.0000       0.123390         3.3576

MULLIKEN ATOMIC CHARGES
-----------------------
   0 S :    0.107502
   1 C :   -0.150051
   2 C :   -0.113323
   3 C :    0.023190
   4 C :   -0.104023
   5 H :   -0.012987
   6 C :    0.058878
   7 H :    0.008445
   8 H :    0.056249
   9 C :   -0.037242
  10 H :    0.022962
  11 H :    0.018801
  12 C :   -0.016343
  13 H :    0.027482
  14 H :    0.017819
  15 H :    0.020286
  16 S :    0.096329
  17 C :   -0.075128
  18 C :   -0.051047
  19 C :   -0.090707
  20 C :   -0.141086
  21 H :    0.038691
  22 C :    0.111095
  23 H :    0.033123
  24 H :   -0.011872
  25 C :   -0.109233
  26 H :    0.040298
  27 H :    0.029762
  28 C :    0.025952
  29 H :    0.003870
  30 H :    0.034037
  31 H :    0.012965
  32 H :    0.074466
  33 H :    0.050839
Sum of atomic charges:   -0.0000000

LOEWDIN ATOMIC CHARGES
----------------------
   0 S :    0.408091
   1 C :   -0.217760
   2 C :   -0.062616
   3 C :   -0.073479
   4 C :   -0.187982
   5 H :    0.018697
   6 C :   -0.033650
   7 H :    0.027157
   8 H :    0.045213
   9 C :   -0.038612
  10 H :    0.021823
  11 H :    0.025939
  12 C :   -0.056966
  13 H :    0.026788
  14 H :    0.016104
  15 H :    0.026309
  16 S :    0.411417
  17 C :   -0.180354
  18 C :   -0.073415
  19 C :   -0.055665
  20 C :   -0.198164
  21 H :    0.034405
  22 C :   -0.026725
  23 H :    0.033743
  24 H :    0.016394
  25 C :   -0.039169
  26 H :    0.030664
  27 H :    0.020723
  28 C :   -0.050768
  29 H :    0.013219
  30 H :    0.023168
  31 H :    0.024612
  32 H :    0.043968
  33 H :    0.026890

  Mayer bond orders larger than 0.100000
B(  0-S ,  1-C ) :   1.1291 B(  0-S ,  4-C ) :   1.1595 B(  1-C ,  2-C ) :   1.5969
B(  1-C , 32-H ) :   0.9620 B(  2-C ,  3-C ) :   1.2352 B(  2-C ,  6-C ) :   1.0307
B(  3-C ,  4-C ) :   1.5809 B(  3-C ,  5-H ) :   0.9946 B(  4-C , 20-C ) :   1.0100
B(  6-C ,  7-H ) :   0.9383 B(  6-C ,  8-H ) :   0.9307 B(  6-C ,  9-C ) :   1.0725
B(  9-C , 10-H ) :   0.9567 B(  9-C , 11-H ) :   0.9466 B(  9-C , 12-C ) :   1.0841
B( 12-C , 13-H ) :   0.9755 B( 12-C , 14-H ) :   0.9709 B( 12-C , 15-H ) :   0.9694
B( 16-S , 17-C ) :   1.1423 B( 16-S , 20-C ) :   1.1474 B( 17-C , 18-C ) :   1.6185
B( 17-C , 33-H ) :   0.9778 B( 18-C , 19-C ) :   1.2343 B( 18-C , 21-H ) :   0.9731
B( 19-C , 20-C ) :   1.6078 B( 19-C , 22-C ) :   1.0274 B( 22-C , 23-H ) :   0.9339
B( 22-C , 24-H ) :   0.9244 B( 22-C , 25-C ) :   1.0643 B( 25-C , 26-H ) :   0.9512
B( 25-C , 27-H ) :   0.9618 B( 25-C , 28-C ) :   1.0781 B( 28-C , 29-H ) :   0.9729
B( 28-C , 30-H ) :   0.9762 B( 28-C , 31-H ) :   0.9710

Dispersion correction           -0.013957625
FINAL SINGLE POINT ENERGY     -1339.869003976696

DIPOLE MOMENT
-------------
                                X             Y             Z
Electronic contribution:     -9.74446      -3.17802     -30.35037
Nuclear contribution   :     10.05741       3.29213      31.03215
                        -----------------------------------------
Total Dipole Moment    :      0.31295       0.11411       0.68178
                        -----------------------------------------
Magnitude (a.u.)       :      0.75880
Magnitude (Debye)      :      1.92871

Rotational constants in cm-1:     0.016144     0.010116     0.006510
Rotational constants in MHz :   483.974276   303.275338   195.172371

                             ****ORCA TERMINATED NORMALLY****
TOTAL RUN TIME: 0 days 0 hours 0 minutes 21 seconds 793 msec
