                         Program Version 4.2.1 -  RELEASE  -
|  1> ! wB97X-D3 SP def2-SVP
|  2> %pal
|  3> nprocs 24
|  4> end
|  5>
|  6> * xyz 0 1
|  7> S 	 -66.0808 	 14.2278 	 -70.9041
|  8> C 	 -66.1461 	 13.8243 	 -69.2477
|  9> C 	 -67.1497 	 14.4563 	 -68.5216
| 10> C 	 -67.8819 	 15.3557 	 -69.3445
| 11> C 	 -67.3669 	 15.4561 	 -70.6297
| 12> H 	 -68.7436 	 15.9088 	 -68.968
| 13> C 	 -67.4402 	 14.1992 	 -67.0754
| 14> H 	 -67.7276 	 13.1249 	 -66.8374
| 15> H 	 -68.2706 	 14.8325 	 -66.8414
| 16> C 	 -66.2795 	 14.6005 	 -66.1299
| 17> H 	 -66.5612 	 14.3123 	 -65.097
| 18> H 	 -65.411 	 13.9833 	 -66.4253
| 19> C 	 -65.7297 	 16.071 	 -66.1233
| 20> H 	 -65.3917 	 16.442 	 -67.0582
| 21> H 	 -66.5741 	 16.6399 	 -65.7171
| 22> H 	 -64.9013 	 16.1588 	 -65.4415
| 23> S 	 -68.8725 	 15.5805 	 -72.9702
| 24> C 	 -69.2005 	 17.1808 	 -73.738
| 25> C 	 -68.6147 	 18.1437 	 -72.9516
| 26> C 	 -68.0464 	 17.6931 	 -71.7173
| 27> C 	 -67.9161 	 16.3537 	 -71.6436
| 28> H 	 -68.6929 	 19.1901 	 -73.2973
| 29> C 	 -67.3536 	 18.6948 	 -70.7506
| 30> H 	 -66.9158 	 19.4922 	 -71.3539
| 31> H 	 -66.4247 	 18.2651 	 -70.3419
| 32> C 	 -68.1293 	 19.2539 	 -69.5251
| 33> H 	 -67.4187 	 19.7449 	 -68.9434
| 34> H 	 -68.5906 	 18.3978 	 -69.0031
| 35> C 	 -69.2681 	 20.1682 	 -70.1227
| 36> H 	 -69.8882 	 19.5271 	 -70.773
| 37> H 	 -68.9274 	 21.0613 	 -70.7249
| 38> H 	 -69.9726 	 20.455 	 -69.3776
| 39> H 	 -65.5675 	 13.1141 	 -68.7558
| 40> H 	 -69.8233 	 17.4049 	 -74.6391
| 41> *
| 42>
| 43>                          ****END OF INPUT****

CARTESIAN COORDINATES (ANGSTROEM)
---------------------------------
  S    -66.080800   14.227800  -70.904100
  C    -66.146100   13.824300  -69.247700
  C    -67.149700   14.456300  -68.521600
  C    -67.881900   15.355700  -69.344500
  C    -67.366900   15.456100  -70.629700
  H    -68.743600   15.908800  -68.968000
  C    -67.440200   14.199200  -67.075400
  H    -67.727600   13.124900  -66.837400
  H    -68.270600   14.832500  -66.841400
  C    -66.279500   14.600500  -66.129900
  H    -66.561200   14.312300  -65.097000
  H    -65.411000   13.983300  -66.425300
  C    -65.729700   16.071000  -66.123300
  H    -65.391700   16.442000  -67.058200
  H    -66.574100   16.639900  -65.717100
  H    -64.901300   16.158800  -65.441500
  S    -68.872500   15.580500  -72.970200
  C    -69.200500   17.180800  -73.738000
  C    -68.614700   18.143700  -72.951600
  C    -68.046400   17.693100  -71.717300
  C    -67.916100   16.353700  -71.643600
  H    -68.692900   19.190100  -73.297300
  C    -67.353600   18.694800  -70.750600
  H    -66.915800   19.492200  -71.353900
  H    -66.424700   18.265100  -70.341900
  C    -68.129300   19.253900  -69.525100
  H    -67.418700   19.744900  -68.943400
  H    -68.590600   18.397800  -69.003100
  C    -69.268100   20.168200  -70.122700
  H    -69.888200   19.527100  -70.773000
  H    -68.927400   21.061300  -70.724900
  H    -69.972600   20.455000  -69.377600
  H    -65.567500   13.114100  -68.755800
  H    -69.823300   17.404900  -74.639100

 Total Charge           Charge          ....    0
 Multiplicity           Mult            ....    1
 Number of Electrons    NEL             ....  134
 Basis Dimension        Dim             ....  322

ORBITAL ENERGIES
----------------

  NO   OCC          E(Eh)            E(eV)
   0   2.0000     -88.974469     -2421.1184
   1   2.0000     -88.958823     -2420.6926
   2   2.0000     -10.333269      -281.1825
   3   2.0000     -10.328064      -281.0409
   4   2.0000     -10.323778      -280.9243
   5   2.0000     -10.308410      -280.5061
   6   2.0000     -10.303225      -280.3650
   7   2.0000     -10.298856      -280.2461
   8   2.0000     -10.297204      -280.2012
   9   2.0000     -10.296748      -280.1888
  10   2.0000     -10.295170      -280.1458
  11   2.0000     -10.293492      -280.1002
  12   2.0000     -10.290661      -280.0231
  13   2.0000     -10.288678      -279.9691
  14   2.0000     -10.279498      -279.7194
  15   2.0000     -10.276811      -279.6462
  16   2.0000      -8.088716      -220.1051
  17   2.0000      -8.072279      -219.6579
  18   2.0000      -6.047172      -164.5519
  19   2.0000      -6.043334      -164.4475
  20   2.0000      -6.039509      -164.3434
  21   2.0000      -6.031053      -164.1133
  22   2.0000      -6.027004      -164.0031
  23   2.0000      -6.022778      -163.8881
  24   2.0000      -1.003180       -27.2979
  25   2.0000      -0.980742       -26.6873
  26   2.0000      -0.908769       -24.7289
  27   2.0000      -0.899376       -24.4733
  28   2.0000      -0.868658       -23.6374
  29   2.0000      -0.851171       -23.1615
  30   2.0000      -0.836653       -22.7665
  31   2.0000      -0.813329       -22.1318
  32   2.0000      -0.781866       -21.2756
  33   2.0000      -0.772018       -21.0077
  34   2.0000      -0.711590       -19.3633
  35   2.0000      -0.700452       -19.0603
  36   2.0000      -0.691592       -18.8192
  37   2.0000      -0.658282       -17.9128
  38   2.0000      -0.641571       -17.4580
  39   2.0000      -0.610444       -16.6110
  40   2.0000      -0.590176       -16.0595
  41   2.0000      -0.574228       -15.6255
  42   2.0000      -0.548791       -14.9334
  43   2.0000      -0.547424       -14.8962
  44   2.0000      -0.544354       -14.8126
  45   2.0000      -0.538595       -14.6559
  46   2.0000      -0.511175       -13.9098
  47   2.0000      -0.509222       -13.8566
  48   2.0000      -0.500901       -13.6302
  49   2.0000      -0.499307       -13.5868
  50   2.0000      -0.485429       -13.2092
  51   2.0000      -0.478280       -13.0146
  52   2.0000      -0.469988       -12.7890
  53   2.0000      -0.466434       -12.6923
  54   2.0000      -0.461363       -12.5543
  55   2.0000      -0.449507       -12.2317
  56   2.0000      -0.441097       -12.0028
  57   2.0000      -0.436292       -11.8721
  58   2.0000      -0.431230       -11.7344
  59   2.0000      -0.428985       -11.6733
  60   2.0000      -0.419359       -11.4113
  61   2.0000      -0.409834       -11.1521
  62   2.0000      -0.406995       -11.0749
  63   2.0000      -0.345050        -9.3893
  64   2.0000      -0.330083        -8.9820
  65   2.0000      -0.327215        -8.9040
  66   2.0000      -0.299441        -8.1482
  67   0.0000       0.031729         0.8634
  68   0.0000       0.056953         1.5498
  69   0.0000       0.112711         3.0670
  70   0.0000       0.119259         3.2452
  71   0.0000       0.122758         3.3404

MULLIKEN ATOMIC CHARGES
-----------------------
   0 S :    0.141872
   1 C :   -0.081374
   2 C :   -0.119324
   3 C :    0.042819
   4 C :   -0.167019
   5 H :    0.026262
   6 C :    0.093804
   7 H :    0.054650
   8 H :    0.002710
   9 C :   -0.123259
  10 H :    0.034108
  11 H :    0.025304
  12 C :   -0.031279
  13 H :    0.039126
  14 H :    0.029090
  15 H :    0.031813
  16 S :    0.070542
  17 C :   -0.110308
  18 C :   -0.043138
  19 C :   -0.003324
  20 C :   -0.157402
  21 H :    0.030235
  22 C :    0.002369
  23 H :    0.020547
  24 H :    0.027330
  25 C :   -0.011124
  26 H :    0.025269
  27 H :    0.029069
  28 C :   -0.074244
  29 H :    0.032880
  30 H :    0.042724
  31 H :    0.024109
  32 H :    0.017863
  33 H :    0.077299
Sum of atomic charges:    0.0000000

LOEWDIN ATOMIC CHARGES
----------------------
   0 S :    0.420268
   1 C :   -0.195574
   2 C :   -0.070067
   3 C :   -0.046549
   4 C :   -0.190995
   5 H :    0.034607
   6 C :   -0.034499
   7 H :    0.044158
   8 H :    0.022295
   9 C :   -0.041777
  10 H :    0.025064
  11 H :    0.018720
  12 C :   -0.059931
  13 H :    0.021173
  14 H :    0.025489
  15 H :    0.026588
  16 S :    0.346543
  17 C :   -0.176315
  18 C :   -0.077157
  19 C :   -0.062707
  20 C :   -0.170444
  21 H :    0.035308
  22 C :   -0.032662
  23 H :    0.027883
  24 H :    0.030200
  25 C :   -0.024523
  26 H :    0.016219
  27 H :    0.026777
  28 C :   -0.072792
  29 H :    0.028473
  30 H :    0.030368
  31 H :    0.016932
  32 H :    0.014126
  33 H :    0.044802

  Mayer bond orders larger than 0.100000
B(  0-S ,  1-C ) :   1.1574 B(  0-S ,  4-C ) :   1.1401 B(  1-C ,  2-C ) :   1.5923
B(  1-C , 32-H ) :   0.9692 B(  2-C ,  3-C ) :   1.2695 B(  2-C ,  6-C ) :   1.0220
B(  3-C ,  4-C ) :   1.5591 B(  3-C ,  5-H ) :   0.9851 B(  4-C , 20-C ) :   1.0312
B(  6-C ,  7-H ) :   0.9372 B(  6-C ,  8-H ) :   0.9364 B(  6-C ,  9-C ) :   1.0664
B(  9-C , 10-H ) :   0.9589 B(  9-C , 11-H ) :   0.9595 B(  9-C , 12-C ) :   1.0703
B( 12-C , 13-H ) :   0.9757 B( 12-C , 14-H ) :   0.9778 B( 12-C , 15-H ) :   0.9741
B( 16-S , 17-C ) :   1.1216 B( 16-S , 20-C ) :   1.1134 B( 17-C , 18-C ) :   1.6559
B( 17-C , 33-H ) :   0.9615 B( 18-C , 19-C ) :   1.1952 B( 18-C , 21-H ) :   0.9803
B( 19-C , 20-C ) :   1.6690 B( 19-C , 22-C ) :   1.0188 B( 22-C , 23-H ) :   0.9472
B( 22-C , 24-H ) :   0.9430 B( 22-C , 25-C ) :   1.0683 B( 25-C , 26-H ) :   0.9568
B( 25-C , 27-H ) :   0.9530 B( 25-C , 28-C ) :   1.0687 B( 28-C , 29-H ) :   0.9731
B( 28-C , 30-H ) :   0.9770 B( 28-C , 31-H ) :   0.9750

Dispersion correction           -0.015201837
FINAL SINGLE POINT ENERGY     -1339.873131323090

DIPOLE MOMENT
-------------
                                X             Y             Z
Electronic contribution:     -0.44685     -15.87946     -23.63452
Nuclear contribution   :      0.42836      16.22754      24.21905
                        -----------------------------------------
Total Dipole Moment    :     -0.01849       0.34809       0.58453
                        -----------------------------------------
Magnitude (a.u.)       :      0.68057
Magnitude (Debye)      :      1.72988

Rotational constants in cm-1:     0.018942     0.009374     0.006929
Rotational constants in MHz :   567.866828   281.031711   207.718592

                             ****ORCA TERMINATED NORMALLY****
TOTAL RUN TIME: 0 days 0 hours 0 minutes 22 seconds 191 msec
