                         Program Version 4.2.1 -  RELEASE  -
|  1> ! wB97X-D3 SP def2-SVP
|  2> %pal
|  3> nprocs 24
|  4> end
|  5>
|  6> * xyz 0 1
|  7> S 	 -101.877 	 -2.68344 	 -111.133
|  8> C 	 -103.435 	 -3.06063 	 -111.774
|  9> C 	 -104.437 	 -2.51305 	 -111.003
| 10> C 	 -103.942 	 -1.71769 	 -109.956
| 11> C 	 -102.58 	 -1.65136 	 -109.887
| 12> H 	 -104.653 	 -1.14588 	 -109.314
| 13> C 	 -105.925 	 -2.64244 	 -111.229
| 14> H 	 -106.139 	 -2.80659 	 -112.278
| 15> H 	 -106.354 	 -1.70284 	 -110.947
| 16> C 	 -106.672 	 -3.70886 	 -110.475
| 17> H 	 -106.247 	 -4.71347 	 -110.521
| 18> H 	 -106.514 	 -3.39237 	 -109.381
| 19> C 	 -108.201 	 -3.88074 	 -110.701
| 20> H 	 -108.509 	 -4.40754 	 -111.669
| 21> H 	 -108.516 	 -4.63258 	 -109.948
| 22> H 	 -108.751 	 -2.96638 	 -110.511
| 23> S 	 -100.227 	 -1.8252 	 -108.324
| 24> C 	 -100.082 	 -0.682016 	 -106.982
| 25> C 	 -101.143 	 0.158067 	 -106.901
| 26> C 	 -102.032 	 0.0380385 	 -107.96
| 27> C 	 -101.738 	 -1.06865 	 -108.802
| 28> H 	 -101.184 	 0.852321 	 -106.117
| 29> C 	 -103.117 	 0.983107 	 -108.27
| 30> H 	 -103.978 	 0.623995 	 -107.685
| 31> H 	 -103.479 	 0.800306 	 -109.204
| 32> C 	 -102.833 	 2.52766 	 -108.269
| 33> H 	 -102.318 	 2.85387 	 -107.418
| 34> H 	 -103.758 	 3.0387 	 -108.259
| 35> C 	 -101.896 	 3.0755 	 -109.404
| 36> H 	 -102.296 	 2.85777 	 -110.403
| 37> H 	 -100.892 	 2.63562 	 -109.264
| 38> H 	 -101.684 	 4.15956 	 -109.405
| 39> H 	 -103.557 	 -3.85609 	 -112.505
| 40> H 	 -99.314 	 -0.672787 	 -106.239
| 41> *
| 42>
| 43>                          ****END OF INPUT****

CARTESIAN COORDINATES (ANGSTROEM)
---------------------------------
  S    -101.877000   -2.683440  -111.133000
  C    -103.435000   -3.060630  -111.774000
  C    -104.437000   -2.513050  -111.003000
  C    -103.942000   -1.717690  -109.956000
  C    -102.580000   -1.651360  -109.887000
  H    -104.653000   -1.145880  -109.314000
  C    -105.925000   -2.642440  -111.229000
  H    -106.139000   -2.806590  -112.278000
  H    -106.354000   -1.702840  -110.947000
  C    -106.672000   -3.708860  -110.475000
  H    -106.247000   -4.713470  -110.521000
  H    -106.514000   -3.392370  -109.381000
  C    -108.201000   -3.880740  -110.701000
  H    -108.509000   -4.407540  -111.669000
  H    -108.516000   -4.632580  -109.948000
  H    -108.751000   -2.966380  -110.511000
  S    -100.227000   -1.825200  -108.324000
  C    -100.082000   -0.682016  -106.982000
  C    -101.143000    0.158067  -106.901000
  C    -102.032000    0.038039  -107.960000
  C    -101.738000   -1.068650  -108.802000
  H    -101.184000    0.852321  -106.117000
  C    -103.117000    0.983107  -108.270000
  H    -103.978000    0.623995  -107.685000
  H    -103.479000    0.800306  -109.204000
  C    -102.833000    2.527660  -108.269000
  H    -102.318000    2.853870  -107.418000
  H    -103.758000    3.038700  -108.259000
  C    -101.896000    3.075500  -109.404000
  H    -102.296000    2.857770  -110.403000
  H    -100.892000    2.635620  -109.264000
  H    -101.684000    4.159560  -109.405000
  H    -103.557000   -3.856090  -112.505000
  H    -99.314000   -0.672787  -106.239000

 Total Charge           Charge          ....    0
 Multiplicity           Mult            ....    1
 Number of Electrons    NEL             ....  134
 Basis Dimension        Dim             ....  322

ORBITAL ENERGIES
----------------

  NO   OCC          E(Eh)            E(eV)
   0   2.0000     -88.968787     -2420.9638
   1   2.0000     -88.966126     -2420.8914
   2   2.0000     -10.333723      -281.1949
   3   2.0000     -10.330610      -281.1102
   4   2.0000     -10.314428      -280.6699
   5   2.0000     -10.312937      -280.6293
   6   2.0000     -10.298473      -280.2357
   7   2.0000     -10.298092      -280.2253
   8   2.0000     -10.294373      -280.1241
   9   2.0000     -10.291833      -280.0550
  10   2.0000     -10.288788      -279.9722
  11   2.0000     -10.287219      -279.9295
  12   2.0000     -10.285331      -279.8781
  13   2.0000     -10.285046      -279.8703
  14   2.0000     -10.284048      -279.8432
  15   2.0000     -10.280322      -279.7418
  16   2.0000      -8.082846      -219.9454
  17   2.0000      -8.081229      -219.9014
  18   2.0000      -6.041304      -164.3922
  19   2.0000      -6.039713      -164.3489
  20   2.0000      -6.037517      -164.2892
  21   2.0000      -6.035664      -164.2388
  22   2.0000      -6.033653      -164.1841
  23   2.0000      -6.032037      -164.1401
  24   2.0000      -1.008881       -27.4531
  25   2.0000      -0.989116       -26.9152
  26   2.0000      -0.912553       -24.8318
  27   2.0000      -0.907356       -24.6904
  28   2.0000      -0.869202       -23.6522
  29   2.0000      -0.853676       -23.2297
  30   2.0000      -0.846875       -23.0446
  31   2.0000      -0.819165       -22.2906
  32   2.0000      -0.785638       -21.3783
  33   2.0000      -0.772226       -21.0133
  34   2.0000      -0.709994       -19.3199
  35   2.0000      -0.702424       -19.1139
  36   2.0000      -0.693699       -18.8765
  37   2.0000      -0.658110       -17.9081
  38   2.0000      -0.639863       -17.4116
  39   2.0000      -0.629740       -17.1361
  40   2.0000      -0.603261       -16.4156
  41   2.0000      -0.573448       -15.6043
  42   2.0000      -0.559483       -15.2243
  43   2.0000      -0.551542       -15.0082
  44   2.0000      -0.539300       -14.6751
  45   2.0000      -0.523528       -14.2459
  46   2.0000      -0.518077       -14.0976
  47   2.0000      -0.512666       -13.9503
  48   2.0000      -0.500140       -13.6095
  49   2.0000      -0.496992       -13.5238
  50   2.0000      -0.484927       -13.1955
  51   2.0000      -0.479030       -13.0351
  52   2.0000      -0.475613       -12.9421
  53   2.0000      -0.468298       -12.7430
  54   2.0000      -0.461483       -12.5576
  55   2.0000      -0.454050       -12.3553
  56   2.0000      -0.447266       -12.1707
  57   2.0000      -0.442077       -12.0295
  58   2.0000      -0.437294       -11.8994
  59   2.0000      -0.426925       -11.6172
  60   2.0000      -0.421202       -11.4615
  61   2.0000      -0.409451       -11.1417
  62   2.0000      -0.407287       -11.0829
  63   2.0000      -0.358297        -9.7498
  64   2.0000      -0.337281        -9.1779
  65   2.0000      -0.329593        -8.9687
  66   2.0000      -0.282185        -7.6786
  67   0.0000       0.021230         0.5777
  68   0.0000       0.082053         2.2328
  69   0.0000       0.100824         2.7436
  70   0.0000       0.123443         3.3591
  71   0.0000       0.138685         3.7738

MULLIKEN ATOMIC CHARGES
-----------------------
   0 S :    0.096604
   1 C :   -0.117488
   2 C :   -0.088874
   3 C :   -0.009241
   4 C :   -0.119694
   5 H :    0.021327
   6 C :    0.109897
   7 H :    0.014962
   8 H :    0.009092
   9 C :   -0.111540
  10 H :    0.029848
  11 H :    0.023811
  12 C :   -0.063241
  13 H :    0.046176
  14 H :    0.037736
  15 H :    0.036801
  16 S :    0.105376
  17 C :   -0.080519
  18 C :   -0.015061
  19 C :   -0.069173
  20 C :   -0.122932
  21 H :   -0.003577
  22 C :    0.095037
  23 H :    0.036698
  24 H :   -0.006441
  25 C :   -0.013108
  26 H :    0.011430
  27 H :    0.020181
  28 C :   -0.089109
  29 H :    0.035893
  30 H :    0.044192
  31 H :    0.038127
  32 H :    0.053412
  33 H :    0.043398
Sum of atomic charges:   -0.0000000

LOEWDIN ATOMIC CHARGES
----------------------
   0 S :    0.407208
   1 C :   -0.200125
   2 C :   -0.064621
   3 C :   -0.072202
   4 C :   -0.181850
   5 H :    0.037034
   6 C :   -0.032744
   7 H :    0.027448
   8 H :    0.026886
   9 C :   -0.049205
  10 H :    0.023344
  11 H :    0.028137
  12 C :   -0.074174
  13 H :    0.032781
  14 H :    0.033597
  15 H :    0.022223
  16 S :    0.395621
  17 C :   -0.171055
  18 C :   -0.064192
  19 C :   -0.057108
  20 C :   -0.194187
  21 H :    0.025901
  22 C :   -0.032726
  23 H :    0.039056
  24 H :    0.017349
  25 C :   -0.026258
  26 H :    0.014089
  27 H :    0.020964
  28 C :   -0.069248
  29 H :    0.022922
  30 H :    0.030737
  31 H :    0.029362
  32 H :    0.029669
  33 H :    0.025362

  Mayer bond orders larger than 0.100000
B(  0-S ,  1-C ) :   1.1451 B(  0-S ,  4-C ) :   1.1553 B(  1-C ,  2-C ) :   1.5986
B(  1-C , 32-H ) :   0.9664 B(  2-C ,  3-C ) :   1.2837 B(  2-C ,  6-C ) :   1.0257
B(  3-C ,  4-C ) :   1.5418 B(  3-C ,  5-H ) :   0.9794 B(  4-C , 20-C ) :   1.0520
B(  6-C ,  7-H ) :   0.9391 B(  6-C ,  8-H ) :   0.9338 B(  6-C ,  9-C ) :   1.0646
B(  9-C , 10-H ) :   0.9571 B(  9-C , 11-H ) :   0.9521 B(  9-C , 12-C ) :   1.0838
B( 12-C , 13-H ) :   0.9729 B( 12-C , 14-H ) :   0.9724 B( 12-C , 15-H ) :   0.9746
B( 16-S , 17-C ) :   1.1488 B( 16-S , 20-C ) :   1.1414 B( 17-C , 18-C ) :   1.6054
B( 17-C , 20-C ) :   0.1001 B( 17-C , 33-H ) :   0.9674 B( 18-C , 19-C ) :   1.2626
B( 18-C , 21-H ) :   1.0015 B( 19-C , 20-C ) :   1.5532 B( 19-C , 22-C ) :   1.0564
B( 22-C , 23-H ) :   0.9167 B( 22-C , 24-H ) :   0.9211 B( 22-C , 25-C ) :   1.0535
B( 25-C , 26-H ) :   0.9610 B( 25-C , 27-H ) :   0.9538 B( 25-C , 28-C ) :   1.0682
B( 28-C , 29-H ) :   0.9776 B( 28-C , 30-H ) :   0.9772 B( 28-C , 31-H ) :   0.9761

Dispersion correction           -0.013791210
FINAL SINGLE POINT ENERGY     -1339.872102283943

DIPOLE MOMENT
-------------
                                X             Y             Z
Electronic contribution:     24.07513     -10.16592       0.43282
Nuclear contribution   :    -24.65212      10.40286      -0.18090
                        -----------------------------------------
Total Dipole Moment    :     -0.57699       0.23695       0.25192
                        -----------------------------------------
Magnitude (a.u.)       :      0.67270
Magnitude (Debye)      :      1.70987

Rotational constants in cm-1:     0.019328     0.007688     0.006508
Rotational constants in MHz :   579.437467   230.490543   195.099360

                             ****ORCA TERMINATED NORMALLY****
TOTAL RUN TIME: 0 days 0 hours 0 minutes 21 seconds 296 msec
