                         Program Version 4.2.1 -  RELEASE  -
|  1> ! wB97X-D3 SP def2-SVP
|  2> %pal
|  3> nprocs 24
|  4> end
|  5>
|  6> * xyz 0 1
|  7> S 	 -56.801 	 8.43019 	 23.8713
|  8> C 	 -56.2072 	 8.96471 	 22.3982
|  9> C 	 -56.8927 	 8.27873 	 21.3522
| 10> C 	 -57.8894 	 7.39481 	 21.8116
| 11> C 	 -57.9036 	 7.1935 	 23.1579
| 12> H 	 -58.6753 	 6.87408 	 21.186
| 13> C 	 -56.7451 	 8.44355 	 19.8486
| 14> H 	 -56.4319 	 7.48569 	 19.4289
| 15> H 	 -55.9144 	 9.09983 	 19.6475
| 16> C 	 -57.9328 	 9.02973 	 19.0841
| 17> H 	 -58.7637 	 8.31571 	 19.1481
| 18> H 	 -58.1002 	 10.0868 	 19.3407
| 19> C 	 -57.591 	 8.86499 	 17.557
| 20> H 	 -56.6115 	 9.09144 	 17.1756
| 21> H 	 -57.6138 	 7.7898 	 17.4668
| 22> H 	 -58.2823 	 9.29882 	 16.868
| 23> S 	 -60.078 	 7.29771 	 24.7846
| 24> C 	 -60.7168 	 5.86019 	 25.4911
| 25> C 	 -60.017 	 4.74518 	 25.1686
| 26> C 	 -58.9503 	 5.07096 	 24.2789
| 27> C 	 -58.8639 	 6.42977 	 23.9525
| 28> H 	 -60.1465 	 3.87728 	 25.7733
| 29> C 	 -57.982 	 3.99093 	 23.8388
| 30> H 	 -57.1141 	 3.81449 	 24.5543
| 31> H 	 -57.506 	 4.36991 	 22.9781
| 32> C 	 -58.5151 	 2.64132 	 23.263
| 33> H 	 -57.9266 	 2.12412 	 22.5197
| 34> H 	 -59.4619 	 2.91529 	 22.769
| 35> C 	 -58.8034 	 1.51878 	 24.268
| 36> H 	 -57.9951 	 1.45185 	 25.0233
| 37> H 	 -59.1187 	 0.590917 	 23.7018
| 38> H 	 -59.6786 	 1.71294 	 24.8613
| 39> H 	 -55.5358 	 9.73787 	 22.2138
| 40> H 	 -61.462 	 5.8425 	 26.3067
| 41> *
| 42>
| 43>                          ****END OF INPUT****

CARTESIAN COORDINATES (ANGSTROEM)
---------------------------------
  S    -56.801000    8.430190   23.871300
  C    -56.207200    8.964710   22.398200
  C    -56.892700    8.278730   21.352200
  C    -57.889400    7.394810   21.811600
  C    -57.903600    7.193500   23.157900
  H    -58.675300    6.874080   21.186000
  C    -56.745100    8.443550   19.848600
  H    -56.431900    7.485690   19.428900
  H    -55.914400    9.099830   19.647500
  C    -57.932800    9.029730   19.084100
  H    -58.763700    8.315710   19.148100
  H    -58.100200   10.086800   19.340700
  C    -57.591000    8.864990   17.557000
  H    -56.611500    9.091440   17.175600
  H    -57.613800    7.789800   17.466800
  H    -58.282300    9.298820   16.868000
  S    -60.078000    7.297710   24.784600
  C    -60.716800    5.860190   25.491100
  C    -60.017000    4.745180   25.168600
  C    -58.950300    5.070960   24.278900
  C    -58.863900    6.429770   23.952500
  H    -60.146500    3.877280   25.773300
  C    -57.982000    3.990930   23.838800
  H    -57.114100    3.814490   24.554300
  H    -57.506000    4.369910   22.978100
  C    -58.515100    2.641320   23.263000
  H    -57.926600    2.124120   22.519700
  H    -59.461900    2.915290   22.769000
  C    -58.803400    1.518780   24.268000
  H    -57.995100    1.451850   25.023300
  H    -59.118700    0.590917   23.701800
  H    -59.678600    1.712940   24.861300
  H    -55.535800    9.737870   22.213800
  H    -61.462000    5.842500   26.306700

 Total Charge           Charge          ....    0
 Multiplicity           Mult            ....    1
 Number of Electrons    NEL             ....  134
 Basis Dimension        Dim             ....  322

ORBITAL ENERGIES
----------------

  NO   OCC          E(Eh)            E(eV)
   0   2.0000     -88.965758     -2420.8814
   1   2.0000     -88.965421     -2420.8722
   2   2.0000     -10.329590      -281.0824
   3   2.0000     -10.325774      -280.9786
   4   2.0000     -10.314803      -280.6801
   5   2.0000     -10.314798      -280.6799
   6   2.0000     -10.306569      -280.4560
   7   2.0000     -10.300325      -280.2861
   8   2.0000     -10.295497      -280.1547
   9   2.0000     -10.293878      -280.1107
  10   2.0000     -10.288887      -279.9748
  11   2.0000     -10.288825      -279.9732
  12   2.0000     -10.288222      -279.9568
  13   2.0000     -10.285455      -279.8815
  14   2.0000     -10.278293      -279.6866
  15   2.0000     -10.273904      -279.5671
  16   2.0000      -8.081807      -219.9171
  17   2.0000      -8.080616      -219.8847
  18   2.0000      -6.040174      -164.3615
  19   2.0000      -6.039004      -164.3296
  20   2.0000      -6.036014      -164.2483
  21   2.0000      -6.034894      -164.2178
  22   2.0000      -6.032737      -164.1591
  23   2.0000      -6.031625      -164.1289
  24   2.0000      -1.012817       -27.5601
  25   2.0000      -0.991846       -26.9895
  26   2.0000      -0.912089       -24.8192
  27   2.0000      -0.903566       -24.5873
  28   2.0000      -0.877083       -23.8666
  29   2.0000      -0.851584       -23.1728
  30   2.0000      -0.847609       -23.0646
  31   2.0000      -0.820676       -22.3317
  32   2.0000      -0.780243       -21.2315
  33   2.0000      -0.766742       -20.8641
  34   2.0000      -0.707866       -19.2620
  35   2.0000      -0.699213       -19.0266
  36   2.0000      -0.689901       -18.7731
  37   2.0000      -0.658834       -17.9278
  38   2.0000      -0.646493       -17.5920
  39   2.0000      -0.624103       -16.9827
  40   2.0000      -0.596777       -16.2391
  41   2.0000      -0.576719       -15.6933
  42   2.0000      -0.569951       -15.5092
  43   2.0000      -0.546964       -14.8836
  44   2.0000      -0.540470       -14.7069
  45   2.0000      -0.524618       -14.2756
  46   2.0000      -0.518489       -14.1088
  47   2.0000      -0.508990       -13.8503
  48   2.0000      -0.506796       -13.7906
  49   2.0000      -0.502026       -13.6608
  50   2.0000      -0.493385       -13.4257
  51   2.0000      -0.477135       -12.9835
  52   2.0000      -0.471676       -12.8350
  53   2.0000      -0.464985       -12.6529
  54   2.0000      -0.461531       -12.5589
  55   2.0000      -0.447414       -12.1748
  56   2.0000      -0.439746       -11.9661
  57   2.0000      -0.434782       -11.8310
  58   2.0000      -0.432311       -11.7638
  59   2.0000      -0.424022       -11.5382
  60   2.0000      -0.418656       -11.3922
  61   2.0000      -0.411782       -11.2052
  62   2.0000      -0.404997       -11.0205
  63   2.0000      -0.347818        -9.4646
  64   2.0000      -0.333358        -9.0711
  65   2.0000      -0.320680        -8.7262
  66   2.0000      -0.302441        -8.2298
  67   0.0000       0.037890         1.0310
  68   0.0000       0.058656         1.5961
  69   0.0000       0.117564         3.1991
  70   0.0000       0.124948         3.4000
  71   0.0000       0.129279         3.5179

MULLIKEN ATOMIC CHARGES
-----------------------
   0 S :    0.112711
   1 C :   -0.065256
   2 C :   -0.096774
   3 C :    0.021698
   4 C :   -0.168046
   5 H :    0.042858
   6 C :    0.040275
   7 H :    0.029151
   8 H :    0.003705
   9 C :   -0.055636
  10 H :    0.036503
  11 H :    0.049036
  12 C :   -0.046259
  13 H :    0.017928
  14 H :    0.011687
  15 H :    0.032715
  16 S :    0.126636
  17 C :   -0.096907
  18 C :   -0.023365
  19 C :   -0.036992
  20 C :   -0.173170
  21 H :    0.021634
  22 C :    0.073617
  23 H :    0.049058
  24 H :    0.010093
  25 C :   -0.091049
  26 H :    0.034049
  27 H :    0.028779
  28 C :   -0.066994
  29 H :    0.034323
  30 H :    0.042119
  31 H :    0.013823
  32 H :    0.026355
  33 H :    0.061692
Sum of atomic charges:    0.0000000

LOEWDIN ATOMIC CHARGES
----------------------
   0 S :    0.420017
   1 C :   -0.205929
   2 C :   -0.071646
   3 C :   -0.061421
   4 C :   -0.192470
   5 H :    0.045240
   6 C :   -0.036255
   7 H :    0.030618
   8 H :    0.024131
   9 C :   -0.029015
  10 H :    0.027576
  11 H :    0.028502
  12 C :   -0.066598
  13 H :    0.018255
  14 H :    0.023197
  15 H :    0.020920
  16 S :    0.440242
  17 C :   -0.190020
  18 C :   -0.075562
  19 C :   -0.049136
  20 C :   -0.222153
  21 H :    0.032643
  22 C :   -0.039930
  23 H :    0.039424
  24 H :    0.027974
  25 C :   -0.044410
  26 H :    0.025201
  27 H :    0.027442
  28 C :   -0.076990
  29 H :    0.026227
  30 H :    0.035185
  31 H :    0.013895
  32 H :    0.020624
  33 H :    0.034223

  Mayer bond orders larger than 0.100000
B(  0-S ,  1-C ) :   1.1731 B(  0-S ,  4-C ) :   1.1416 B(  1-C ,  2-C ) :   1.5562
B(  1-C ,  4-C ) :   0.1045 B(  1-C , 32-H ) :   0.9784 B(  2-C ,  3-C ) :   1.2712
B(  2-C ,  6-C ) :   1.0210 B(  3-C ,  4-C ) :   1.5822 B(  3-C ,  5-H ) :   0.9788
B(  4-C , 20-C ) :   1.0197 B(  6-C ,  7-H ) :   0.9449 B(  6-C ,  8-H ) :   0.9388
B(  6-C ,  9-C ) :   1.0700 B(  9-C , 10-H ) :   0.9578 B(  9-C , 11-H ) :   0.9588
B(  9-C , 12-C ) :   1.0531 B( 12-C , 13-H ) :   0.9770 B( 12-C , 14-H ) :   0.9798
B( 12-C , 15-H ) :   0.9762 B( 16-S , 17-C ) :   1.1730 B( 16-S , 20-C ) :   1.1626
B( 17-C , 18-C ) :   1.6176 B( 17-C , 33-H ) :   0.9566 B( 18-C , 19-C ) :   1.2473
B( 18-C , 21-H ) :   0.9902 B( 19-C , 20-C ) :   1.5885 B( 19-C , 22-C ) :   1.0530
B( 22-C , 23-H ) :   0.9354 B( 22-C , 24-H ) :   0.9206 B( 22-C , 25-C ) :   1.0539
B( 25-C , 26-H ) :   0.9665 B( 25-C , 27-H ) :   0.9547 B( 25-C , 28-C ) :   1.0756
B( 28-C , 29-H ) :   0.9749 B( 28-C , 30-H ) :   0.9709 B( 28-C , 31-H ) :   0.9742

Dispersion correction           -0.013511928
FINAL SINGLE POINT ENERGY     -1339.855701414080

DIPOLE MOMENT
-------------
                                X             Y             Z
Electronic contribution:     -2.30215      14.58333      20.23128
Nuclear contribution   :      2.31381     -14.77808     -20.58093
                        -----------------------------------------
Total Dipole Moment    :      0.01165      -0.19474      -0.34965
                        -----------------------------------------
Magnitude (a.u.)       :      0.40040
Magnitude (Debye)      :      1.01773

Rotational constants in cm-1:     0.019079     0.007335     0.006335
Rotational constants in MHz :   571.966004   219.886176   189.917778

                             ****ORCA TERMINATED NORMALLY****
TOTAL RUN TIME: 0 days 0 hours 0 minutes 20 seconds 830 msec
