                         Program Version 4.2.1 -  RELEASE  -
|  1> ! wB97X-D3 SP def2-SVP
|  2> %pal
|  3> nprocs 24
|  4> end
|  5>
|  6> * xyz 0 1
|  7> S 	 -85.4445 	 1.94876 	 -111.768
|  8> C 	 -85.6348 	 3.68862 	 -111.274
|  9> C 	 -86.5875 	 4.3312 	 -112.059
| 10> C 	 -87.1785 	 3.39726 	 -113.041
| 11> C 	 -86.666 	 2.1283 	 -113.09
| 12> H 	 -88.0876 	 3.54245 	 -113.545
| 13> C 	 -87.0063 	 5.74688 	 -111.984
| 14> H 	 -86.8602 	 6.16409 	 -111.001
| 15> H 	 -88.0674 	 5.84203 	 -112.048
| 16> C 	 -86.224 	 6.72466 	 -112.834
| 17> H 	 -86.6359 	 7.73799 	 -112.509
| 18> H 	 -85.1446 	 6.73069 	 -112.672
| 19> C 	 -86.3182 	 6.46157 	 -114.365
| 20> H 	 -87.3194 	 6.61479 	 -114.651
| 21> H 	 -85.7078 	 7.1523 	 -114.912
| 22> H 	 -86.0904 	 5.42182 	 -114.558
| 23> S 	 -88.0137 	 -0.19224 	 -112.825
| 24> C 	 -88.6752 	 -1.03973 	 -114.203
| 25> C 	 -88.3884 	 -0.384546 	 -115.362
| 26> C 	 -87.7064 	 0.848375 	 -115.162
| 27> C 	 -87.3118 	 1.03874 	 -113.823
| 28> H 	 -88.8352 	 -0.725998 	 -116.28
| 29> C 	 -87.301 	 1.8686 	 -116.268
| 30> H 	 -87.2147 	 2.92162 	 -115.882
| 31> H 	 -88.1346 	 1.83474 	 -116.977
| 32> C 	 -86.0844 	 1.51522 	 -117.091
| 33> H 	 -85.9806 	 2.16949 	 -118.045
| 34> H 	 -86.1837 	 0.524701 	 -117.396
| 35> C 	 -84.8421 	 1.87771 	 -116.284
| 36> H 	 -84.8139 	 2.93569 	 -115.961
| 37> H 	 -83.967 	 1.67419 	 -116.913
| 38> H 	 -84.6737 	 1.24546 	 -115.412
| 39> H 	 -85.0722 	 4.07975 	 -110.479
| 40> H 	 -89.2883 	 -1.94449 	 -114.242
| 41> *
| 42>
| 43>                          ****END OF INPUT****

CARTESIAN COORDINATES (ANGSTROEM)
---------------------------------
  S    -85.444500    1.948760  -111.768000
  C    -85.634800    3.688620  -111.274000
  C    -86.587500    4.331200  -112.059000
  C    -87.178500    3.397260  -113.041000
  C    -86.666000    2.128300  -113.090000
  H    -88.087600    3.542450  -113.545000
  C    -87.006300    5.746880  -111.984000
  H    -86.860200    6.164090  -111.001000
  H    -88.067400    5.842030  -112.048000
  C    -86.224000    6.724660  -112.834000
  H    -86.635900    7.737990  -112.509000
  H    -85.144600    6.730690  -112.672000
  C    -86.318200    6.461570  -114.365000
  H    -87.319400    6.614790  -114.651000
  H    -85.707800    7.152300  -114.912000
  H    -86.090400    5.421820  -114.558000
  S    -88.013700   -0.192240  -112.825000
  C    -88.675200   -1.039730  -114.203000
  C    -88.388400   -0.384546  -115.362000
  C    -87.706400    0.848375  -115.162000
  C    -87.311800    1.038740  -113.823000
  H    -88.835200   -0.725998  -116.280000
  C    -87.301000    1.868600  -116.268000
  H    -87.214700    2.921620  -115.882000
  H    -88.134600    1.834740  -116.977000
  C    -86.084400    1.515220  -117.091000
  H    -85.980600    2.169490  -118.045000
  H    -86.183700    0.524701  -117.396000
  C    -84.842100    1.877710  -116.284000
  H    -84.813900    2.935690  -115.961000
  H    -83.967000    1.674190  -116.913000
  H    -84.673700    1.245460  -115.412000
  H    -85.072200    4.079750  -110.479000
  H    -89.288300   -1.944490  -114.242000

 Total Charge           Charge          ....    0
 Multiplicity           Mult            ....    1
 Number of Electrons    NEL             ....  134
 Basis Dimension        Dim             ....  322

ORBITAL ENERGIES
----------------

  NO   OCC          E(Eh)            E(eV)
   0   2.0000     -88.966471     -2420.9008
   1   2.0000     -88.966039     -2420.8890
   2   2.0000     -10.335670      -281.2479
   3   2.0000     -10.328983      -281.0659
   4   2.0000     -10.323328      -280.9120
   5   2.0000     -10.317135      -280.7435
   6   2.0000     -10.310059      -280.5510
   7   2.0000     -10.309396      -280.5329
   8   2.0000     -10.294601      -280.1303
   9   2.0000     -10.293419      -280.0982
  10   2.0000     -10.292533      -280.0740
  11   2.0000     -10.292101      -280.0623
  12   2.0000     -10.288199      -279.9561
  13   2.0000     -10.283022      -279.8152
  14   2.0000     -10.269452      -279.4460
  15   2.0000     -10.268817      -279.4287
  16   2.0000      -8.081060      -219.8968
  17   2.0000      -8.079333      -219.8498
  18   2.0000      -6.039572      -164.3451
  19   2.0000      -6.038191      -164.3075
  20   2.0000      -6.035380      -164.2310
  21   2.0000      -6.034121      -164.1968
  22   2.0000      -6.031915      -164.1367
  23   2.0000      -6.029793      -164.0790
  24   2.0000      -1.005122       -27.3508
  25   2.0000      -0.977034       -26.5864
  26   2.0000      -0.916371       -24.9357
  27   2.0000      -0.907974       -24.7072
  28   2.0000      -0.872333       -23.7374
  29   2.0000      -0.844933       -22.9918
  30   2.0000      -0.839489       -22.8436
  31   2.0000      -0.817862       -22.2552
  32   2.0000      -0.786514       -21.4021
  33   2.0000      -0.771274       -20.9874
  34   2.0000      -0.706391       -19.2219
  35   2.0000      -0.700328       -19.0569
  36   2.0000      -0.689499       -18.7622
  37   2.0000      -0.657817       -17.9001
  38   2.0000      -0.648774       -17.6541
  39   2.0000      -0.617326       -16.7983
  40   2.0000      -0.595479       -16.2038
  41   2.0000      -0.578798       -15.7499
  42   2.0000      -0.551296       -15.0015
  43   2.0000      -0.549614       -14.9558
  44   2.0000      -0.544193       -14.8082
  45   2.0000      -0.535339       -14.5673
  46   2.0000      -0.522583       -14.2202
  47   2.0000      -0.510728       -13.8976
  48   2.0000      -0.503410       -13.6985
  49   2.0000      -0.497783       -13.5454
  50   2.0000      -0.493017       -13.4157
  51   2.0000      -0.477107       -12.9827
  52   2.0000      -0.470790       -12.8108
  53   2.0000      -0.467195       -12.7130
  54   2.0000      -0.457528       -12.4500
  55   2.0000      -0.444208       -12.0875
  56   2.0000      -0.441089       -12.0027
  57   2.0000      -0.437548       -11.9063
  58   2.0000      -0.433357       -11.7922
  59   2.0000      -0.421563       -11.4713
  60   2.0000      -0.419124       -11.4050
  61   2.0000      -0.407995       -11.1021
  62   2.0000      -0.401061       -10.9134
  63   2.0000      -0.350101        -9.5267
  64   2.0000      -0.331407        -9.0180
  65   2.0000      -0.326414        -8.8822
  66   2.0000      -0.297664        -8.0998
  67   0.0000       0.028001         0.7620
  68   0.0000       0.064776         1.7626
  69   0.0000       0.108642         2.9563
  70   0.0000       0.115688         3.1480
  71   0.0000       0.122460         3.3323

MULLIKEN ATOMIC CHARGES
-----------------------
   0 S :    0.079199
   1 C :   -0.102830
   2 C :   -0.074717
   3 C :    0.036050
   4 C :   -0.135827
   5 H :    0.012930
   6 C :    0.087157
   7 H :    0.010038
   8 H :    0.024232
   9 C :   -0.098737
  10 H :    0.035259
  11 H :    0.031000
  12 C :   -0.023774
  13 H :    0.007993
  14 H :    0.032038
  15 H :    0.044014
  16 S :    0.114603
  17 C :   -0.090132
  18 C :   -0.032428
  19 C :   -0.046522
  20 C :   -0.162530
  21 H :    0.015722
  22 C :    0.050531
  23 H :    0.030861
  24 H :    0.015120
  25 C :   -0.047356
  26 H :    0.038901
  27 H :    0.013174
  28 C :   -0.061013
  29 H :    0.039428
  30 H :    0.024526
  31 H :    0.034655
  32 H :    0.038385
  33 H :    0.060050
Sum of atomic charges:    0.0000000

LOEWDIN ATOMIC CHARGES
----------------------
   0 S :    0.346286
   1 C :   -0.155146
   2 C :   -0.055170
   3 C :   -0.054429
   4 C :   -0.179918
   5 H :    0.024371
   6 C :   -0.041488
   7 H :    0.033981
   8 H :    0.031506
   9 C :   -0.035598
  10 H :    0.029416
  11 H :    0.023982
  12 C :   -0.060607
  13 H :    0.014908
  14 H :    0.023736
  15 H :    0.025293
  16 S :    0.422127
  17 C :   -0.189268
  18 C :   -0.075508
  19 C :   -0.054421
  20 C :   -0.202936
  21 H :    0.031464
  22 C :   -0.034549
  23 H :    0.032570
  24 H :    0.027243
  25 C :   -0.039310
  26 H :    0.034570
  27 H :    0.014212
  28 C :   -0.069536
  29 H :    0.028770
  30 H :    0.023534
  31 H :    0.023547
  32 H :    0.019225
  33 H :    0.037143

  Mayer bond orders larger than 0.100000
B(  0-S ,  1-C ) :   1.1135 B(  0-S ,  4-C ) :   1.1102 B(  1-C ,  2-C ) :   1.6410
B(  1-C , 32-H ) :   0.9780 B(  2-C ,  3-C ) :   1.1852 B(  2-C ,  6-C ) :   1.0392
B(  3-C ,  4-C ) :   1.6313 B(  3-C ,  5-H ) :   0.9862 B(  4-C , 20-C ) :   1.0315
B(  6-C ,  7-H ) :   0.9290 B(  6-C ,  8-H ) :   0.9373 B(  6-C ,  9-C ) :   1.0702
B(  9-C , 10-H ) :   0.9557 B(  9-C , 11-H ) :   0.9586 B(  9-C , 12-C ) :   1.0741
B( 12-C , 13-H ) :   0.9742 B( 12-C , 14-H ) :   0.9746 B( 12-C , 15-H ) :   0.9717
B( 16-S , 17-C ) :   1.1551 B( 16-S , 20-C ) :   1.1571 B( 17-C , 18-C ) :   1.6184
B( 17-C , 33-H ) :   0.9630 B( 18-C , 19-C ) :   1.2572 B( 18-C , 21-H ) :   0.9871
B( 19-C , 20-C ) :   1.5734 B( 19-C , 22-C ) :   1.0351 B( 22-C , 23-H ) :   0.9416
B( 22-C , 24-H ) :   0.9259 B( 22-C , 25-C ) :   1.0837 B( 25-C , 26-H ) :   0.9526
B( 25-C , 27-H ) :   0.9503 B( 25-C , 28-C ) :   1.0808 B( 28-C , 29-H ) :   0.9734
B( 28-C , 30-H ) :   0.9720 B( 28-C , 31-H ) :   0.9739

Dispersion correction           -0.015688123
FINAL SINGLE POINT ENERGY     -1339.870003681884

DIPOLE MOMENT
-------------
                                X             Y             Z
Electronic contribution:     -4.38581     -20.49538      16.48294
Nuclear contribution   :      4.03798      20.96667     -16.75645
                        -----------------------------------------
Total Dipole Moment    :     -0.34782       0.47128      -0.27350
                        -----------------------------------------
Magnitude (a.u.)       :      0.64645
Magnitude (Debye)      :      1.64314

Rotational constants in cm-1:     0.019059     0.009669     0.007758
Rotational constants in MHz :   571.378242   289.878151   232.567578

                             ****ORCA TERMINATED NORMALLY****
TOTAL RUN TIME: 0 days 0 hours 0 minutes 22 seconds 756 msec
