                         Program Version 4.2.1 -  RELEASE  -
|  1> ! wB97X-D3 SP def2-SVP
|  2> %pal
|  3> nprocs 24
|  4> end
|  5>
|  6> * xyz 0 1
|  7> S 	 -71.5925 	 4.13624 	 -70.2786
|  8> C 	 -71.7136 	 5.711 	 -69.4378
|  9> C 	 -72.0276 	 5.55392 	 -68.0655
| 10> C 	 -72.3234 	 4.1826 	 -67.8088
| 11> C 	 -72.3243 	 3.35383 	 -68.9148
| 12> H 	 -72.7556 	 3.81298 	 -66.8647
| 13> C 	 -72.0556 	 6.63661 	 -67.021
| 14> H 	 -72.8629 	 6.3379 	 -66.3081
| 15> H 	 -72.4942 	 7.55452 	 -67.4501
| 16> C 	 -70.7482 	 6.84827 	 -66.2365
| 17> H 	 -70.6524 	 6.08636 	 -65.4055
| 18> H 	 -69.9553 	 6.79016 	 -66.8566
| 19> C 	 -70.6089 	 8.19271 	 -65.5823
| 20> H 	 -71.1079 	 8.21765 	 -64.64
| 21> H 	 -69.599 	 8.4108 	 -65.3688
| 22> H 	 -71.056 	 8.94474 	 -66.2651
| 23> S 	 -71.7227 	 0.935185 	 -70.1051
| 24> C 	 -72.3902 	 -0.553203 	 -69.4642
| 25> C 	 -73.1949 	 -0.296353 	 -68.408
| 26> C 	 -73.3752 	 1.09494 	 -68.1344
| 27> C 	 -72.601 	 1.89922 	 -68.9474
| 28> H 	 -73.622 	 -1.08716 	 -67.9141
| 29> C 	 -74.3982 	 1.46221 	 -67.0441
| 30> H 	 -74.8479 	 2.45987 	 -67.1573
| 31> H 	 -73.8807 	 1.30845 	 -66.1283
| 32> C 	 -75.6733 	 0.618694 	 -66.9556
| 33> H 	 -75.3957 	 -0.441276 	 -66.7612
| 34> H 	 -76.165 	 0.634312 	 -67.8457
| 35> C 	 -76.5881 	 1.15136 	 -65.9058
| 36> H 	 -76.0891 	 1.36653 	 -64.9832
| 37> H 	 -77.2838 	 0.371998 	 -65.6756
| 38> H 	 -77.0785 	 2.0443 	 -66.1646
| 39> H 	 -71.5855 	 6.6611 	 -69.859
| 40> H 	 -72.1704 	 -1.53399 	 -69.8023
| 41> *
| 42>
| 43>                          ****END OF INPUT****

CARTESIAN COORDINATES (ANGSTROEM)
---------------------------------
  S    -71.592500    4.136240  -70.278600
  C    -71.713600    5.711000  -69.437800
  C    -72.027600    5.553920  -68.065500
  C    -72.323400    4.182600  -67.808800
  C    -72.324300    3.353830  -68.914800
  H    -72.755600    3.812980  -66.864700
  C    -72.055600    6.636610  -67.021000
  H    -72.862900    6.337900  -66.308100
  H    -72.494200    7.554520  -67.450100
  C    -70.748200    6.848270  -66.236500
  H    -70.652400    6.086360  -65.405500
  H    -69.955300    6.790160  -66.856600
  C    -70.608900    8.192710  -65.582300
  H    -71.107900    8.217650  -64.640000
  H    -69.599000    8.410800  -65.368800
  H    -71.056000    8.944740  -66.265100
  S    -71.722700    0.935185  -70.105100
  C    -72.390200   -0.553203  -69.464200
  C    -73.194900   -0.296353  -68.408000
  C    -73.375200    1.094940  -68.134400
  C    -72.601000    1.899220  -68.947400
  H    -73.622000   -1.087160  -67.914100
  C    -74.398200    1.462210  -67.044100
  H    -74.847900    2.459870  -67.157300
  H    -73.880700    1.308450  -66.128300
  C    -75.673300    0.618694  -66.955600
  H    -75.395700   -0.441276  -66.761200
  H    -76.165000    0.634312  -67.845700
  C    -76.588100    1.151360  -65.905800
  H    -76.089100    1.366530  -64.983200
  H    -77.283800    0.371998  -65.675600
  H    -77.078500    2.044300  -66.164600
  H    -71.585500    6.661100  -69.859000
  H    -72.170400   -1.533990  -69.802300

 Total Charge           Charge          ....    0
 Multiplicity           Mult            ....    1
 Number of Electrons    NEL             ....  134
 Basis Dimension        Dim             ....  322

ORBITAL ENERGIES
----------------

  NO   OCC          E(Eh)            E(eV)
   0   2.0000     -88.967488     -2420.9284
   1   2.0000     -88.962680     -2420.7976
   2   2.0000     -10.330032      -281.0945
   3   2.0000     -10.328485      -281.0524
   4   2.0000     -10.314564      -280.6736
   5   2.0000     -10.311958      -280.6026
   6   2.0000     -10.304425      -280.3977
   7   2.0000     -10.302122      -280.3350
   8   2.0000     -10.297490      -280.2089
   9   2.0000     -10.292629      -280.0767
  10   2.0000     -10.290464      -280.0178
  11   2.0000     -10.283523      -279.8289
  12   2.0000     -10.279916      -279.7307
  13   2.0000     -10.277527      -279.6657
  14   2.0000     -10.270900      -279.4854
  15   2.0000     -10.268715      -279.4259
  16   2.0000      -8.081793      -219.9168
  17   2.0000      -8.077820      -219.8086
  18   2.0000      -6.040425      -164.3683
  19   2.0000      -6.036511      -164.2618
  20   2.0000      -6.036452      -164.2602
  21   2.0000      -6.032311      -164.1475
  22   2.0000      -6.032290      -164.1470
  23   2.0000      -6.028417      -164.0416
  24   2.0000      -1.006847       -27.3977
  25   2.0000      -0.982772       -26.7426
  26   2.0000      -0.919285       -25.0150
  27   2.0000      -0.914936       -24.8967
  28   2.0000      -0.871608       -23.7176
  29   2.0000      -0.856119       -23.2962
  30   2.0000      -0.847440       -23.0600
  31   2.0000      -0.815983       -22.2040
  32   2.0000      -0.783770       -21.3275
  33   2.0000      -0.775432       -21.1006
  34   2.0000      -0.708479       -19.2787
  35   2.0000      -0.701586       -19.0911
  36   2.0000      -0.699009       -19.0210
  37   2.0000      -0.663231       -18.0474
  38   2.0000      -0.639474       -17.4010
  39   2.0000      -0.618796       -16.8383
  40   2.0000      -0.602950       -16.4071
  41   2.0000      -0.581577       -15.8255
  42   2.0000      -0.575111       -15.6496
  43   2.0000      -0.564109       -15.3502
  44   2.0000      -0.531887       -14.4734
  45   2.0000      -0.525776       -14.3071
  46   2.0000      -0.520714       -14.1693
  47   2.0000      -0.514990       -14.0136
  48   2.0000      -0.505235       -13.7481
  49   2.0000      -0.500889       -13.6299
  50   2.0000      -0.494322       -13.4512
  51   2.0000      -0.485128       -13.2010
  52   2.0000      -0.476864       -12.9761
  53   2.0000      -0.460069       -12.5191
  54   2.0000      -0.459072       -12.4920
  55   2.0000      -0.453078       -12.3289
  56   2.0000      -0.448684       -12.2093
  57   2.0000      -0.435771       -11.8579
  58   2.0000      -0.433359       -11.7923
  59   2.0000      -0.428741       -11.6666
  60   2.0000      -0.421652       -11.4737
  61   2.0000      -0.416109       -11.3229
  62   2.0000      -0.412210       -11.2168
  63   2.0000      -0.356523        -9.7015
  64   2.0000      -0.334787        -9.1100
  65   2.0000      -0.326349        -8.8804
  66   2.0000      -0.282181        -7.6785
  67   0.0000       0.023194         0.6311
  68   0.0000       0.080728         2.1967
  69   0.0000       0.093995         2.5577
  70   0.0000       0.122244         3.3264
  71   0.0000       0.142324         3.8728

MULLIKEN ATOMIC CHARGES
-----------------------
   0 S :    0.097532
   1 C :   -0.091628
   2 C :   -0.093896
   3 C :    0.001422
   4 C :   -0.120864
   5 H :    0.016094
   6 C :    0.039714
   7 H :    0.025070
   8 H :    0.026225
   9 C :   -0.024898
  10 H :    0.036672
  11 H :    0.006673
  12 C :   -0.029689
  13 H :    0.021709
  14 H :    0.024900
  15 H :    0.027387
  16 S :    0.083200
  17 C :   -0.063274
  18 C :   -0.010102
  19 C :   -0.043714
  20 C :   -0.116517
  21 H :   -0.017647
  22 C :    0.040708
  23 H :    0.036287
  24 H :    0.030651
  25 C :   -0.066604
  26 H :    0.024695
  27 H :    0.013420
  28 C :    0.002508
  29 H :    0.009602
  30 H :    0.026426
  31 H :    0.024656
  32 H :    0.022952
  33 H :    0.040328
Sum of atomic charges:    0.0000000

LOEWDIN ATOMIC CHARGES
----------------------
   0 S :    0.392886
   1 C :   -0.179512
   2 C :   -0.055395
   3 C :   -0.069834
   4 C :   -0.188695
   5 H :    0.032641
   6 C :   -0.037295
   7 H :    0.035107
   8 H :    0.032048
   9 C :   -0.032394
  10 H :    0.033939
  11 H :    0.009320
  12 C :   -0.056670
  13 H :    0.020030
  14 H :    0.021983
  15 H :    0.026743
  16 S :    0.393705
  17 C :   -0.170792
  18 C :   -0.060872
  19 C :   -0.059650
  20 C :   -0.193157
  21 H :    0.016875
  22 C :   -0.030778
  23 H :    0.033132
  24 H :    0.028387
  25 C :   -0.033102
  26 H :    0.021675
  27 H :    0.013165
  28 C :   -0.053884
  29 H :    0.021464
  30 H :    0.028924
  31 H :    0.020604
  32 H :    0.014788
  33 H :    0.024614

  Mayer bond orders larger than 0.100000
B(  0-S ,  1-C ) :   1.1299 B(  0-S ,  4-C ) :   1.1462 B(  1-C ,  2-C ) :   1.5982
B(  1-C ,  4-C ) :   0.1029 B(  1-C , 32-H ) :   0.9772 B(  2-C ,  3-C ) :   1.2503
B(  2-C ,  6-C ) :   1.0342 B(  3-C ,  4-C ) :   1.5766 B(  3-C ,  5-H ) :   0.9810
B(  4-C , 20-C ) :   1.0492 B(  6-C ,  7-H ) :   0.9356 B(  6-C ,  8-H ) :   0.9425
B(  6-C ,  9-C ) :   1.0548 B(  9-C , 10-H ) :   0.9511 B(  9-C , 11-H ) :   0.9610
B(  9-C , 12-C ) :   1.0914 B( 12-C , 13-H ) :   0.9759 B( 12-C , 14-H ) :   0.9743
B( 12-C , 15-H ) :   0.9747 B( 16-S , 17-C ) :   1.1391 B( 16-S , 20-C ) :   1.1291
B( 17-C , 18-C ) :   1.6337 B( 17-C , 33-H ) :   0.9710 B( 18-C , 19-C ) :   1.2257
B( 18-C , 21-H ) :   1.0022 B( 19-C , 20-C ) :   1.6289 B( 19-C , 22-C ) :   1.0256
B( 22-C , 23-H ) :   0.9493 B( 22-C , 24-H ) :   0.9234 B( 22-C , 25-C ) :   1.0780
B( 25-C , 26-H ) :   0.9435 B( 25-C , 27-H ) :   0.9537 B( 25-C , 28-C ) :   1.0993
B( 28-C , 29-H ) :   0.9692 B( 28-C , 30-H ) :   0.9682 B( 28-C , 31-H ) :   0.9706

Dispersion correction           -0.012982557
FINAL SINGLE POINT ENERGY     -1339.861209780786

DIPOLE MOMENT
-------------
                                X             Y             Z
Electronic contribution:     11.11393     -10.99816     -25.19280
Nuclear contribution   :    -11.46423      11.04837      25.91171
                        -----------------------------------------
Total Dipole Moment    :     -0.35030       0.05022       0.71891
                        -----------------------------------------
Magnitude (a.u.)       :      0.80129
Magnitude (Debye)      :      2.03672

Rotational constants in cm-1:     0.017717     0.007830     0.005892
Rotational constants in MHz :   531.148127   234.741830   176.644892

                             ****ORCA TERMINATED NORMALLY****
TOTAL RUN TIME: 0 days 0 hours 0 minutes 20 seconds 766 msec
