                         Program Version 4.2.1 -  RELEASE  -
|  1> ! wB97X-D3 SP def2-SVP
|  2> %pal
|  3> nprocs 24
|  4> end
|  5>
|  6> * xyz 0 1
|  7> S 	 39.6552 	 -31.3908 	 -113.586
|  8> C 	 38.774 	 -32.6951 	 -114.262
|  9> C 	 39.5614 	 -33.4761 	 -115.063
| 10> C 	 40.8933 	 -32.9702 	 -115.177
| 11> C 	 41.0527 	 -31.7299 	 -114.531
| 12> H 	 41.7383 	 -33.3962 	 -115.656
| 13> C 	 39.2072 	 -34.6655 	 -115.94
| 14> H 	 38.5112 	 -35.1938 	 -115.318
| 15> H 	 39.9887 	 -35.4268 	 -116.046
| 16> C 	 38.4295 	 -34.3948 	 -117.209
| 17> H 	 37.6408 	 -33.6473 	 -117.034
| 18> H 	 39.0474 	 -33.8355 	 -117.867
| 19> C 	 37.9554 	 -35.6802 	 -117.95
| 20> H 	 37.309 	 -36.2756 	 -117.352
| 21> H 	 37.4244 	 -35.5984 	 -118.906
| 22> H 	 38.8281 	 -36.2443 	 -118.047
| 23> S 	 42.2244 	 -29.3218 	 -114.812
| 24> C 	 43.855 	 -29.0014 	 -114.235
| 25> C 	 44.3744 	 -30.1434 	 -113.666
| 26> C 	 43.4538 	 -31.2174 	 -113.719
| 27> C 	 42.2622 	 -30.9523 	 -114.372
| 28> H 	 45.3733 	 -30.024 	 -113.204
| 29> C 	 43.8885 	 -32.5224 	 -113.111
| 30> H 	 42.9353 	 -33.1853 	 -113.158
| 31> H 	 44.1062 	 -32.3357 	 -112.135
| 32> C 	 45.0559 	 -33.2169 	 -113.76
| 33> H 	 45.1388 	 -34.2221 	 -113.352
| 34> H 	 45.9737 	 -32.7944 	 -113.445
| 35> C 	 44.9408 	 -33.3754 	 -115.289
| 36> H 	 44.0087 	 -33.9897 	 -115.383
| 37> H 	 45.7814 	 -33.9002 	 -115.655
| 38> H 	 44.7201 	 -32.4236 	 -115.763
| 39> H 	 37.7393 	 -32.8276 	 -113.989
| 40> H 	 44.3587 	 -28.0586 	 -114.428
| 41> *
| 42>
| 43>                          ****END OF INPUT****

CARTESIAN COORDINATES (ANGSTROEM)
---------------------------------
  S     39.655200  -31.390800  -113.586000
  C     38.774000  -32.695100  -114.262000
  C     39.561400  -33.476100  -115.063000
  C     40.893300  -32.970200  -115.177000
  C     41.052700  -31.729900  -114.531000
  H     41.738300  -33.396200  -115.656000
  C     39.207200  -34.665500  -115.940000
  H     38.511200  -35.193800  -115.318000
  H     39.988700  -35.426800  -116.046000
  C     38.429500  -34.394800  -117.209000
  H     37.640800  -33.647300  -117.034000
  H     39.047400  -33.835500  -117.867000
  C     37.955400  -35.680200  -117.950000
  H     37.309000  -36.275600  -117.352000
  H     37.424400  -35.598400  -118.906000
  H     38.828100  -36.244300  -118.047000
  S     42.224400  -29.321800  -114.812000
  C     43.855000  -29.001400  -114.235000
  C     44.374400  -30.143400  -113.666000
  C     43.453800  -31.217400  -113.719000
  C     42.262200  -30.952300  -114.372000
  H     45.373300  -30.024000  -113.204000
  C     43.888500  -32.522400  -113.111000
  H     42.935300  -33.185300  -113.158000
  H     44.106200  -32.335700  -112.135000
  C     45.055900  -33.216900  -113.760000
  H     45.138800  -34.222100  -113.352000
  H     45.973700  -32.794400  -113.445000
  C     44.940800  -33.375400  -115.289000
  H     44.008700  -33.989700  -115.383000
  H     45.781400  -33.900200  -115.655000
  H     44.720100  -32.423600  -115.763000
  H     37.739300  -32.827600  -113.989000
  H     44.358700  -28.058600  -114.428000

 Total Charge           Charge          ....    0
 Multiplicity           Mult            ....    1
 Number of Electrons    NEL             ....  134
 Basis Dimension        Dim             ....  322

ORBITAL ENERGIES
----------------

  NO   OCC          E(Eh)            E(eV)
   0   2.0000     -88.965897     -2420.8851
   1   2.0000     -88.961346     -2420.7613
   2   2.0000     -10.326169      -280.9893
   3   2.0000     -10.320105      -280.8243
   4   2.0000     -10.317533      -280.7543
   5   2.0000     -10.312722      -280.6234
   6   2.0000     -10.302579      -280.3474
   7   2.0000     -10.298849      -280.2459
   8   2.0000     -10.294636      -280.1313
   9   2.0000     -10.292309      -280.0680
  10   2.0000     -10.289156      -279.9822
  11   2.0000     -10.283637      -279.8320
  12   2.0000     -10.281398      -279.7711
  13   2.0000     -10.277780      -279.6726
  14   2.0000     -10.274099      -279.5724
  15   2.0000     -10.273742      -279.5627
  16   2.0000      -8.081863      -219.9187
  17   2.0000      -8.077365      -219.7963
  18   2.0000      -6.040243      -164.3634
  19   2.0000      -6.036055      -164.2494
  20   2.0000      -6.035691      -164.2395
  21   2.0000      -6.032817      -164.1613
  22   2.0000      -6.031545      -164.1267
  23   2.0000      -6.028372      -164.0403
  24   2.0000      -1.015669       -27.6378
  25   2.0000      -0.992684       -27.0123
  26   2.0000      -0.914780       -24.8924
  27   2.0000      -0.912350       -24.8263
  28   2.0000      -0.874686       -23.8014
  29   2.0000      -0.851166       -23.1614
  30   2.0000      -0.846284       -23.0285
  31   2.0000      -0.816592       -22.2206
  32   2.0000      -0.784606       -21.3502
  33   2.0000      -0.775414       -21.1001
  34   2.0000      -0.710260       -19.3272
  35   2.0000      -0.705903       -19.2086
  36   2.0000      -0.693227       -18.8637
  37   2.0000      -0.662696       -18.0329
  38   2.0000      -0.650986       -17.7142
  39   2.0000      -0.619560       -16.8591
  40   2.0000      -0.590817       -16.0770
  41   2.0000      -0.576059       -15.6754
  42   2.0000      -0.565695       -15.3933
  43   2.0000      -0.554902       -15.0996
  44   2.0000      -0.546205       -14.8630
  45   2.0000      -0.523992       -14.2585
  46   2.0000      -0.521886       -14.2012
  47   2.0000      -0.514445       -13.9988
  48   2.0000      -0.509848       -13.8737
  49   2.0000      -0.502734       -13.6801
  50   2.0000      -0.491236       -13.3672
  51   2.0000      -0.483900       -13.1676
  52   2.0000      -0.471998       -12.8437
  53   2.0000      -0.464428       -12.6377
  54   2.0000      -0.452376       -12.3098
  55   2.0000      -0.450207       -12.2508
  56   2.0000      -0.445220       -12.1150
  57   2.0000      -0.441979       -12.0269
  58   2.0000      -0.436449       -11.8764
  59   2.0000      -0.426434       -11.6039
  60   2.0000      -0.418685       -11.3930
  61   2.0000      -0.408757       -11.1228
  62   2.0000      -0.403900       -10.9907
  63   2.0000      -0.342848        -9.3294
  64   2.0000      -0.332893        -9.0585
  65   2.0000      -0.327325        -8.9070
  66   2.0000      -0.300361        -8.1732
  67   0.0000       0.038531         1.0485
  68   0.0000       0.065194         1.7740
  69   0.0000       0.115458         3.1418
  70   0.0000       0.126323         3.4374
  71   0.0000       0.134403         3.6573

MULLIKEN ATOMIC CHARGES
-----------------------
   0 S :    0.132640
   1 C :   -0.135814
   2 C :   -0.055537
   3 C :    0.041822
   4 C :   -0.155236
   5 H :   -0.013297
   6 C :    0.059768
   7 H :    0.003679
   8 H :    0.023613
   9 C :   -0.031405
  10 H :    0.020072
  11 H :    0.010952
  12 C :   -0.020133
  13 H :    0.014598
  14 H :    0.043441
  15 H :    0.013895
  16 S :    0.103297
  17 C :   -0.110429
  18 C :   -0.039399
  19 C :   -0.055860
  20 C :   -0.175168
  21 H :    0.037424
  22 C :    0.099982
  23 H :    0.034788
  24 H :    0.004508
  25 C :   -0.064731
  26 H :    0.020883
  27 H :    0.008503
  28 C :   -0.038658
  29 H :    0.026856
  30 H :    0.033462
  31 H :    0.050569
  32 H :    0.048006
  33 H :    0.062913
Sum of atomic charges:   -0.0000000

LOEWDIN ATOMIC CHARGES
----------------------
   0 S :    0.443259
   1 C :   -0.204271
   2 C :   -0.061594
   3 C :   -0.053849
   4 C :   -0.208288
   5 H :    0.023032
   6 C :   -0.036199
   7 H :    0.026658
   8 H :    0.031454
   9 C :   -0.036197
  10 H :    0.024727
  11 H :    0.017110
  12 C :   -0.059364
  13 H :    0.018858
  14 H :    0.032440
  15 H :    0.018773
  16 S :    0.430104
  17 C :   -0.180094
  18 C :   -0.076983
  19 C :   -0.059868
  20 C :   -0.233074
  21 H :    0.042208
  22 C :   -0.029373
  23 H :    0.038426
  24 H :    0.018983
  25 C :   -0.039634
  26 H :    0.026515
  27 H :    0.011754
  28 C :   -0.057920
  29 H :    0.027643
  30 H :    0.021368
  31 H :    0.026335
  32 H :    0.027211
  33 H :    0.029851

  Mayer bond orders larger than 0.100000
B(  0-S ,  1-C ) :   1.1589 B(  0-S ,  4-C ) :   1.1862 B(  1-C ,  2-C ) :   1.5757
B(  1-C , 32-H ) :   0.9765 B(  2-C ,  3-C ) :   1.2512 B(  2-C ,  6-C ) :   1.0219
B(  3-C ,  4-C ) :   1.5423 B(  3-C ,  5-H ) :   1.0107 B(  4-C , 20-C ) :   1.0164
B(  6-C ,  7-H ) :   0.9282 B(  6-C ,  8-H ) :   0.9429 B(  6-C ,  9-C ) :   1.0623
B(  9-C , 10-H ) :   0.9530 B(  9-C , 11-H ) :   0.9539 B(  9-C , 12-C ) :   1.0641
B( 12-C , 13-H ) :   0.9783 B( 12-C , 14-H ) :   0.9755 B( 12-C , 15-H ) :   0.9741
B( 16-S , 17-C ) :   1.1744 B( 16-S , 20-C ) :   1.1619 B( 17-C , 18-C ) :   1.5831
B( 17-C , 20-C ) :   0.1014 B( 17-C , 33-H ) :   0.9693 B( 18-C , 19-C ) :   1.2403
B( 18-C , 21-H ) :   0.9935 B( 19-C , 20-C ) :   1.5665 B( 19-C , 22-C ) :   1.0459
B( 22-C , 23-H ) :   0.9332 B( 22-C , 24-H ) :   0.9224 B( 22-C , 25-C ) :   1.0854
B( 25-C , 26-H ) :   0.9516 B( 25-C , 27-H ) :   0.9492 B( 25-C , 28-C ) :   1.0725
B( 28-C , 29-H ) :   0.9724 B( 28-C , 30-H ) :   0.9710 B( 28-C , 31-H ) :   0.9742

Dispersion correction           -0.014854310
FINAL SINGLE POINT ENERGY     -1339.871826268039

DIPOLE MOMENT
-------------
                                X             Y             Z
Electronic contribution:     -3.14136      24.07208      10.77708
Nuclear contribution   :      3.41762     -24.51918     -10.74815
                        -----------------------------------------
Total Dipole Moment    :      0.27626      -0.44710       0.02892
                        -----------------------------------------
Magnitude (a.u.)       :      0.52636
Magnitude (Debye)      :      1.33790

Rotational constants in cm-1:     0.021126     0.007986     0.006717
Rotational constants in MHz :   633.334762   239.401346   201.375694

                             ****ORCA TERMINATED NORMALLY****
TOTAL RUN TIME: 0 days 0 hours 0 minutes 21 seconds 903 msec
