                         Program Version 4.2.1 -  RELEASE  -
|  1> ! wB97X-D3 SP def2-SVP
|  2> %pal
|  3> nprocs 24
|  4> end
|  5>
|  6> * xyz 0 1
|  7> S 	 -36.4919 	 -2.72523 	 11.5732
|  8> C 	 -36.2335 	 -2.65045 	 13.277
|  9> C 	 -36.6549 	 -3.90303 	 13.8395
| 10> C 	 -37.3873 	 -4.71554 	 12.8891
| 11> C 	 -37.4421 	 -4.18879 	 11.6008
| 12> H 	 -37.8197 	 -5.69423 	 13.1672
| 13> C 	 -36.6366 	 -4.17042 	 15.3099
| 14> H 	 -37.6665 	 -4.25269 	 15.6897
| 15> H 	 -36.2489 	 -3.29703 	 15.7987
| 16> C 	 -35.7731 	 -5.35293 	 15.7377
| 17> H 	 -35.5614 	 -5.14454 	 16.8043
| 18> H 	 -36.3488 	 -6.30116 	 15.5428
| 19> C 	 -34.3533 	 -5.24128 	 15.2046
| 20> H 	 -33.8015 	 -6.14478 	 15.4654
| 21> H 	 -34.4449 	 -5.21571 	 14.0815
| 22> H 	 -33.788 	 -4.39468 	 15.5706
| 23> S 	 -37.0628 	 -4.47143 	 8.91492
| 24> C 	 -38.0838 	 -5.54918 	 7.97014
| 25> C 	 -38.9883 	 -6.2179 	 8.78006
| 26> C 	 -38.9326 	 -5.77516 	 10.158
| 27> C 	 -37.8325 	 -4.90584 	 10.3904
| 28> H 	 -39.6905 	 -6.91717 	 8.31332
| 29> C 	 -39.9806 	 -6.3032 	 11.117
| 30> H 	 -41.0236 	 -6.02312 	 10.7612
| 31> H 	 -39.8241 	 -5.70993 	 12.0475
| 32> C 	 -40.0176 	 -7.90039 	 11.304
| 33> H 	 -39.1715 	 -8.43118 	 11.6626
| 34> H 	 -40.0215 	 -8.43442 	 10.3961
| 35> C 	 -41.2591 	 -8.31097 	 12.1315
| 36> H 	 -42.1509 	 -7.91367 	 11.6651
| 37> H 	 -41.1653 	 -7.86817 	 13.1468
| 38> H 	 -41.2695 	 -9.40565 	 12.3598
| 39> H 	 -35.5377 	 -2.0425 	 13.8146
| 40> H 	 -37.974 	 -5.73099 	 6.93461
| 41> *
| 42>
| 43>                          ****END OF INPUT****

CARTESIAN COORDINATES (ANGSTROEM)
---------------------------------
  S    -36.491900   -2.725230   11.573200
  C    -36.233500   -2.650450   13.277000
  C    -36.654900   -3.903030   13.839500
  C    -37.387300   -4.715540   12.889100
  C    -37.442100   -4.188790   11.600800
  H    -37.819700   -5.694230   13.167200
  C    -36.636600   -4.170420   15.309900
  H    -37.666500   -4.252690   15.689700
  H    -36.248900   -3.297030   15.798700
  C    -35.773100   -5.352930   15.737700
  H    -35.561400   -5.144540   16.804300
  H    -36.348800   -6.301160   15.542800
  C    -34.353300   -5.241280   15.204600
  H    -33.801500   -6.144780   15.465400
  H    -34.444900   -5.215710   14.081500
  H    -33.788000   -4.394680   15.570600
  S    -37.062800   -4.471430    8.914920
  C    -38.083800   -5.549180    7.970140
  C    -38.988300   -6.217900    8.780060
  C    -38.932600   -5.775160   10.158000
  C    -37.832500   -4.905840   10.390400
  H    -39.690500   -6.917170    8.313320
  C    -39.980600   -6.303200   11.117000
  H    -41.023600   -6.023120   10.761200
  H    -39.824100   -5.709930   12.047500
  C    -40.017600   -7.900390   11.304000
  H    -39.171500   -8.431180   11.662600
  H    -40.021500   -8.434420   10.396100
  C    -41.259100   -8.310970   12.131500
  H    -42.150900   -7.913670   11.665100
  H    -41.165300   -7.868170   13.146800
  H    -41.269500   -9.405650   12.359800
  H    -35.537700   -2.042500   13.814600
  H    -37.974000   -5.730990    6.934610

 Total Charge           Charge          ....    0
 Multiplicity           Mult            ....    1
 Number of Electrons    NEL             ....  134
 Basis Dimension        Dim             ....  322

ORBITAL ENERGIES
----------------

  NO   OCC          E(Eh)            E(eV)
   0   2.0000     -88.968479     -2420.9554
   1   2.0000     -88.967787     -2420.9366
   2   2.0000     -10.334373      -281.2126
   3   2.0000     -10.333094      -281.1778
   4   2.0000     -10.316893      -280.7369
   5   2.0000     -10.316428      -280.7243
   6   2.0000     -10.309442      -280.5342
   7   2.0000     -10.307499      -280.4813
   8   2.0000     -10.304825      -280.4085
   9   2.0000     -10.298856      -280.2461
  10   2.0000     -10.297659      -280.2136
  11   2.0000     -10.289273      -279.9853
  12   2.0000     -10.287646      -279.9411
  13   2.0000     -10.286491      -279.9097
  14   2.0000     -10.284157      -279.8461
  15   2.0000     -10.277178      -279.6562
  16   2.0000      -8.083329      -219.9586
  17   2.0000      -8.082875      -219.9462
  18   2.0000      -6.041857      -164.4073
  19   2.0000      -6.041419      -164.3954
  20   2.0000      -6.037682      -164.2937
  21   2.0000      -6.037283      -164.2828
  22   2.0000      -6.034180      -164.1984
  23   2.0000      -6.033629      -164.1834
  24   2.0000      -1.007755       -27.4224
  25   2.0000      -0.982958       -26.7476
  26   2.0000      -0.916731       -24.9455
  27   2.0000      -0.901508       -24.5313
  28   2.0000      -0.870439       -23.6859
  29   2.0000      -0.852889       -23.2083
  30   2.0000      -0.842423       -22.9235
  31   2.0000      -0.816163       -22.2089
  32   2.0000      -0.778804       -21.1923
  33   2.0000      -0.766463       -20.8565
  34   2.0000      -0.714363       -19.4388
  35   2.0000      -0.702825       -19.1248
  36   2.0000      -0.690938       -18.8014
  37   2.0000      -0.659089       -17.9347
  38   2.0000      -0.633844       -17.2478
  39   2.0000      -0.623519       -16.9668
  40   2.0000      -0.594586       -16.1795
  41   2.0000      -0.570565       -15.5259
  42   2.0000      -0.558352       -15.1935
  43   2.0000      -0.555823       -15.1247
  44   2.0000      -0.543548       -14.7907
  45   2.0000      -0.524844       -14.2817
  46   2.0000      -0.519454       -14.1351
  47   2.0000      -0.509635       -13.8679
  48   2.0000      -0.506530       -13.7834
  49   2.0000      -0.501280       -13.6405
  50   2.0000      -0.486311       -13.2332
  51   2.0000      -0.479329       -13.0432
  52   2.0000      -0.473359       -12.8807
  53   2.0000      -0.461531       -12.5589
  54   2.0000      -0.458660       -12.4808
  55   2.0000      -0.451722       -12.2920
  56   2.0000      -0.445612       -12.1257
  57   2.0000      -0.437222       -11.8974
  58   2.0000      -0.432613       -11.7720
  59   2.0000      -0.427758       -11.6399
  60   2.0000      -0.416678       -11.3384
  61   2.0000      -0.415074       -11.2947
  62   2.0000      -0.400934       -10.9100
  63   2.0000      -0.360675        -9.8145
  64   2.0000      -0.332901        -9.0587
  65   2.0000      -0.323317        -8.7979
  66   2.0000      -0.283491        -7.7142
  67   0.0000       0.018617         0.5066
  68   0.0000       0.077718         2.1148
  69   0.0000       0.106252         2.8913
  70   0.0000       0.109780         2.9873
  71   0.0000       0.127225         3.4620

MULLIKEN ATOMIC CHARGES
-----------------------
   0 S :    0.101473
   1 C :   -0.080603
   2 C :   -0.158222
   3 C :    0.003224
   4 C :   -0.111824
   5 H :    0.028359
   6 C :    0.066137
   7 H :    0.044301
   8 H :   -0.003182
   9 C :   -0.091159
  10 H :    0.032578
  11 H :    0.049203
  12 C :   -0.072592
  13 H :    0.036530
  14 H :    0.052372
  15 H :    0.033135
  16 S :    0.099497
  17 C :   -0.084911
  18 C :   -0.031094
  19 C :   -0.052329
  20 C :   -0.118369
  21 H :    0.031583
  22 C :    0.028772
  23 H :    0.043703
  24 H :    0.031965
  25 C :   -0.038836
  26 H :    0.011459
  27 H :    0.009241
  28 C :   -0.068594
  29 H :    0.035782
  30 H :    0.030023
  31 H :    0.042451
  32 H :    0.053498
  33 H :    0.046430
Sum of atomic charges:   -0.0000000

LOEWDIN ATOMIC CHARGES
----------------------
   0 S :    0.422329
   1 C :   -0.213085
   2 C :   -0.059937
   3 C :   -0.071248
   4 C :   -0.195206
   5 H :    0.033894
   6 C :   -0.039782
   7 H :    0.036187
   8 H :    0.024131
   9 C :   -0.049137
  10 H :    0.031045
  11 H :    0.029630
  12 C :   -0.069157
  13 H :    0.027271
  14 H :    0.030836
  15 H :    0.023944
  16 S :    0.414145
  17 C :   -0.178399
  18 C :   -0.066800
  19 C :   -0.060702
  20 C :   -0.204665
  21 H :    0.035793
  22 C :   -0.033859
  23 H :    0.040893
  24 H :    0.032045
  25 C :   -0.042833
  26 H :    0.021754
  27 H :    0.018289
  28 C :   -0.068283
  29 H :    0.021803
  30 H :    0.026755
  31 H :    0.031866
  32 H :    0.028222
  33 H :    0.022261

  Mayer bond orders larger than 0.100000
B(  0-S ,  1-C ) :   1.1534 B(  0-S ,  4-C ) :   1.1588 B(  1-C ,  2-C ) :   1.5571
B(  1-C , 32-H ) :   0.9639 B(  2-C ,  3-C ) :   1.2783 B(  2-C ,  6-C ) :   1.0415
B(  3-C ,  4-C ) :   1.5199 B(  3-C ,  5-H ) :   0.9852 B(  4-C , 20-C ) :   1.0787
B(  6-C ,  7-H ) :   0.9476 B(  6-C ,  8-H ) :   0.9355 B(  6-C ,  9-C ) :   1.0672
B(  9-C , 10-H ) :   0.9573 B(  9-C , 11-H ) :   0.9582 B(  9-C , 12-C ) :   1.0730
B( 12-C , 13-H ) :   0.9728 B( 12-C , 14-H ) :   0.9687 B( 12-C , 15-H ) :   0.9754
B( 16-S , 17-C ) :   1.1498 B( 16-S , 20-C ) :   1.1444 B( 17-C , 18-C ) :   1.6152
B( 17-C , 33-H ) :   0.9727 B( 18-C , 19-C ) :   1.2388 B( 18-C , 21-H ) :   0.9865
B( 19-C , 20-C ) :   1.5584 B( 19-C , 22-C ) :   1.0532 B( 22-C , 23-H ) :   0.9385
B( 22-C , 24-H ) :   0.9362 B( 22-C , 25-C ) :   1.0307 B( 25-C , 26-H ) :   0.9533
B( 25-C , 27-H ) :   0.9521 B( 25-C , 28-C ) :   1.0840 B( 28-C , 29-H ) :   0.9766
B( 28-C , 30-H ) :   0.9764 B( 28-C , 31-H ) :   0.9730

Dispersion correction           -0.013927569
FINAL SINGLE POINT ENERGY     -1339.865362395627

DIPOLE MOMENT
-------------
                                X             Y             Z
Electronic contribution:      6.69330      17.87090     -20.92681
Nuclear contribution   :     -6.86861     -18.40583      21.27871
                        -----------------------------------------
Total Dipole Moment    :     -0.17531      -0.53493       0.35190
                        -----------------------------------------
Magnitude (a.u.)       :      0.66387
Magnitude (Debye)      :      1.68743

Rotational constants in cm-1:     0.016755     0.009156     0.006564
Rotational constants in MHz :   502.291067   274.485532   196.794984

                             ****ORCA TERMINATED NORMALLY****
TOTAL RUN TIME: 0 days 0 hours 0 minutes 21 seconds 275 msec
