                         Program Version 4.2.1 -  RELEASE  -
|  1> ! wB97X-D3 SP def2-SVP
|  2> %pal
|  3> nprocs 24
|  4> end
|  5>
|  6> * xyz 0 1
|  7> S 	 -106.935 	 53.7719 	 -13.5886
|  8> C 	 -105.855 	 54.8591 	 -14.4302
|  9> C 	 -104.587 	 54.923 	 -13.8843
| 10> C 	 -104.534 	 54.2674 	 -12.603
| 11> C 	 -105.637 	 53.4431 	 -12.3739
| 12> H 	 -103.632 	 54.1959 	 -11.9853
| 13> C 	 -103.431 	 55.7189 	 -14.3721
| 14> H 	 -103.126 	 56.427 	 -13.5333
| 15> H 	 -103.726 	 56.3578 	 -15.2234
| 16> C 	 -102.176 	 55.0357 	 -14.7117
| 17> H 	 -101.993 	 54.3249 	 -13.9009
| 18> H 	 -102.225 	 54.3725 	 -15.5704
| 19> C 	 -101.029 	 56.0233 	 -14.886
| 20> H 	 -100.055 	 55.5401 	 -15.152
| 21> H 	 -101.234 	 56.697 	 -15.7274
| 22> H 	 -100.931 	 56.7073 	 -14.0287
| 23> S 	 -107.062 	 53.0321 	 -10.0187
| 24> C 	 -106.908 	 51.5382 	 -9.18889
| 25> C 	 -105.885 	 50.7908 	 -9.65161
| 26> C 	 -105.262 	 51.3528 	 -10.8244
| 27> C 	 -105.837 	 52.5788 	 -11.1917
| 28> H 	 -105.676 	 49.8507 	 -9.2438
| 29> C 	 -104.169 	 50.6206 	 -11.6659
| 30> H 	 -104.513 	 50.5933 	 -12.6802
| 31> H 	 -104.299 	 49.5704 	 -11.3118
| 32> C 	 -102.687 	 51.01 	 -11.5927
| 33> H 	 -102.247 	 50.9735 	 -10.6038
| 34> H 	 -102.613 	 52.1057 	 -11.9178
| 35> C 	 -101.737 	 50.346 	 -12.6497
| 36> H 	 -100.736 	 50.6089 	 -12.5541
| 37> H 	 -102.06 	 50.5021 	 -13.6988
| 38> H 	 -101.812 	 49.2936 	 -12.4676
| 39> H 	 -106.058 	 55.4432 	 -15.3195
| 40> H 	 -107.393 	 51.148 	 -8.36943
| 41> *
| 42>
| 43>                          ****END OF INPUT****

CARTESIAN COORDINATES (ANGSTROEM)
---------------------------------
  S    -106.935000   53.771900  -13.588600
  C    -105.855000   54.859100  -14.430200
  C    -104.587000   54.923000  -13.884300
  C    -104.534000   54.267400  -12.603000
  C    -105.637000   53.443100  -12.373900
  H    -103.632000   54.195900  -11.985300
  C    -103.431000   55.718900  -14.372100
  H    -103.126000   56.427000  -13.533300
  H    -103.726000   56.357800  -15.223400
  C    -102.176000   55.035700  -14.711700
  H    -101.993000   54.324900  -13.900900
  H    -102.225000   54.372500  -15.570400
  C    -101.029000   56.023300  -14.886000
  H    -100.055000   55.540100  -15.152000
  H    -101.234000   56.697000  -15.727400
  H    -100.931000   56.707300  -14.028700
  S    -107.062000   53.032100  -10.018700
  C    -106.908000   51.538200   -9.188890
  C    -105.885000   50.790800   -9.651610
  C    -105.262000   51.352800  -10.824400
  C    -105.837000   52.578800  -11.191700
  H    -105.676000   49.850700   -9.243800
  C    -104.169000   50.620600  -11.665900
  H    -104.513000   50.593300  -12.680200
  H    -104.299000   49.570400  -11.311800
  C    -102.687000   51.010000  -11.592700
  H    -102.247000   50.973500  -10.603800
  H    -102.613000   52.105700  -11.917800
  C    -101.737000   50.346000  -12.649700
  H    -100.736000   50.608900  -12.554100
  H    -102.060000   50.502100  -13.698800
  H    -101.812000   49.293600  -12.467600
  H    -106.058000   55.443200  -15.319500
  H    -107.393000   51.148000   -8.369430

 Total Charge           Charge          ....    0
 Multiplicity           Mult            ....    1
 Number of Electrons    NEL             ....  134
 Basis Dimension        Dim             ....  322

ORBITAL ENERGIES
----------------

  NO   OCC          E(Eh)            E(eV)
   0   2.0000     -88.970636     -2421.0141
   1   2.0000     -88.964821     -2420.8559
   2   2.0000     -10.336588      -281.2729
   3   2.0000     -10.327078      -281.0141
   4   2.0000     -10.315996      -280.7125
   5   2.0000     -10.308224      -280.5010
   6   2.0000     -10.305887      -280.4374
   7   2.0000     -10.299975      -280.2766
   8   2.0000     -10.299445      -280.2622
   9   2.0000     -10.295623      -280.1581
  10   2.0000     -10.293426      -280.0984
  11   2.0000     -10.293145      -280.0907
  12   2.0000     -10.286030      -279.8971
  13   2.0000     -10.284744      -279.8621
  14   2.0000     -10.283610      -279.8312
  15   2.0000     -10.275345      -279.6064
  16   2.0000      -8.084206      -219.9824
  17   2.0000      -8.080037      -219.8690
  18   2.0000      -6.042783      -164.4325
  19   2.0000      -6.038989      -164.3293
  20   2.0000      -6.038487      -164.3156
  21   2.0000      -6.034834      -164.2162
  22   2.0000      -6.034481      -164.2066
  23   2.0000      -6.030807      -164.1066
  24   2.0000      -1.003169       -27.2976
  25   2.0000      -0.983638       -26.7662
  26   2.0000      -0.922394       -25.0996
  27   2.0000      -0.900175       -24.4950
  28   2.0000      -0.870680       -23.6924
  29   2.0000      -0.849970       -23.1288
  30   2.0000      -0.847683       -23.0666
  31   2.0000      -0.817786       -22.2531
  32   2.0000      -0.782119       -21.2825
  33   2.0000      -0.771942       -21.0056
  34   2.0000      -0.711016       -19.3477
  35   2.0000      -0.699644       -19.0383
  36   2.0000      -0.693481       -18.8706
  37   2.0000      -0.660887       -17.9837
  38   2.0000      -0.639896       -17.4124
  39   2.0000      -0.622909       -16.9502
  40   2.0000      -0.593206       -16.1420
  41   2.0000      -0.578528       -15.7425
  42   2.0000      -0.565460       -15.3869
  43   2.0000      -0.556614       -15.1462
  44   2.0000      -0.527294       -14.3484
  45   2.0000      -0.520702       -14.1690
  46   2.0000      -0.516016       -14.0415
  47   2.0000      -0.510349       -13.8873
  48   2.0000      -0.504060       -13.7162
  49   2.0000      -0.498956       -13.5773
  50   2.0000      -0.493837       -13.4380
  51   2.0000      -0.477733       -12.9998
  52   2.0000      -0.471594       -12.8327
  53   2.0000      -0.464808       -12.6481
  54   2.0000      -0.459755       -12.5106
  55   2.0000      -0.453605       -12.3432
  56   2.0000      -0.449112       -12.2210
  57   2.0000      -0.443821       -12.0770
  58   2.0000      -0.435680       -11.8555
  59   2.0000      -0.428743       -11.6667
  60   2.0000      -0.427820       -11.6416
  61   2.0000      -0.412171       -11.2157
  62   2.0000      -0.398522       -10.8443
  63   2.0000      -0.340615        -9.2686
  64   2.0000      -0.329656        -8.9704
  65   2.0000      -0.326219        -8.8769
  66   2.0000      -0.303792        -8.2666
  67   0.0000       0.032424         0.8823
  68   0.0000       0.063759         1.7350
  69   0.0000       0.114138         3.1058
  70   0.0000       0.117471         3.1965
  71   0.0000       0.125811         3.4235

MULLIKEN ATOMIC CHARGES
-----------------------
   0 S :    0.120411
   1 C :   -0.108622
   2 C :   -0.067687
   3 C :    0.036240
   4 C :   -0.160823
   5 H :    0.035052
   6 C :    0.025774
   7 H :    0.036624
   8 H :    0.014130
   9 C :   -0.046164
  10 H :    0.014763
  11 H :    0.022872
  12 C :   -0.056602
  13 H :    0.044339
  14 H :    0.024666
  15 H :    0.030429
  16 S :    0.120753
  17 C :   -0.032208
  18 C :   -0.035538
  19 C :   -0.036973
  20 C :   -0.188792
  21 H :   -0.004518
  22 C :    0.084587
  23 H :    0.029575
  24 H :    0.013872
  25 C :   -0.085698
  26 H :    0.032689
  27 H :    0.025057
  28 C :   -0.030662
  29 H :    0.026189
  30 H :    0.036622
  31 H :    0.018958
  32 H :    0.041983
  33 H :    0.018702
Sum of atomic charges:   -0.0000000

LOEWDIN ATOMIC CHARGES
----------------------
   0 S :    0.386998
   1 C :   -0.193470
   2 C :   -0.067895
   3 C :   -0.048675
   4 C :   -0.181911
   5 H :    0.033423
   6 C :   -0.041168
   7 H :    0.041713
   8 H :    0.027861
   9 C :   -0.047182
  10 H :    0.021298
  11 H :    0.023949
  12 C :   -0.067054
  13 H :    0.032472
  14 H :    0.025537
  15 H :    0.024998
  16 S :    0.419632
  17 C :   -0.182392
  18 C :   -0.069000
  19 C :   -0.047716
  20 C :   -0.205894
  21 H :    0.022183
  22 C :   -0.032750
  23 H :    0.031942
  24 H :    0.030628
  25 C :   -0.043581
  26 H :    0.022895
  27 H :    0.026164
  28 C :   -0.058959
  29 H :    0.018317
  30 H :    0.029809
  31 H :    0.019178
  32 H :    0.029678
  33 H :    0.018972

  Mayer bond orders larger than 0.100000
B(  0-S ,  1-C ) :   1.1299 B(  0-S ,  4-C ) :   1.1264 B(  1-C ,  2-C ) :   1.6409
B(  1-C , 32-H ) :   0.9593 B(  2-C ,  3-C ) :   1.2143 B(  2-C ,  6-C ) :   1.0364
B(  3-C ,  4-C ) :   1.6062 B(  3-C ,  5-H ) :   0.9752 B(  4-C , 20-C ) :   1.0375
B(  6-C ,  7-H ) :   0.9376 B(  6-C ,  8-H ) :   0.9362 B(  6-C ,  9-C ) :   1.0659
B(  9-C , 10-H ) :   0.9505 B(  9-C , 11-H ) :   0.9454 B(  9-C , 12-C ) :   1.0825
B( 12-C , 13-H ) :   0.9731 B( 12-C , 14-H ) :   0.9721 B( 12-C , 15-H ) :   0.9733
B( 16-S , 17-C ) :   1.1519 B( 16-S , 20-C ) :   1.1455 B( 17-C , 18-C ) :   1.6303
B( 17-C , 33-H ) :   0.9671 B( 18-C , 19-C ) :   1.2505 B( 18-C , 21-H ) :   0.9937
B( 19-C , 20-C ) :   1.5988 B( 19-C , 22-C ) :   1.0253 B( 22-C , 23-H ) :   0.9344
B( 22-C , 24-H ) :   0.9327 B( 22-C , 25-C ) :   1.0625 B( 25-C , 26-H ) :   0.9568
B( 25-C , 27-H ) :   0.9519 B( 25-C , 28-C ) :   1.0755 B( 28-C , 29-H ) :   0.9750
B( 28-C , 30-H ) :   0.9757 B( 28-C , 31-H ) :   0.9772

Dispersion correction           -0.014231309
FINAL SINGLE POINT ENERGY     -1339.874618606719

DIPOLE MOMENT
-------------
                                X             Y             Z
Electronic contribution:    -30.86433       1.39907      10.90990
Nuclear contribution   :     31.49016      -1.54571     -11.04149
                        -----------------------------------------
Total Dipole Moment    :      0.62583      -0.14664      -0.13159
                        -----------------------------------------
Magnitude (a.u.)       :      0.65611
Magnitude (Debye)      :      1.66769

Rotational constants in cm-1:     0.017431     0.009155     0.006736
Rotational constants in MHz :   522.575733   274.461483   201.930157

                             ****ORCA TERMINATED NORMALLY****
TOTAL RUN TIME: 0 days 0 hours 0 minutes 21 seconds 679 msec
