                         Program Version 4.2.1 -  RELEASE  -
|  1> ! wB97X-D3 SP def2-SVP
|  2> %pal
|  3> nprocs 24
|  4> end
|  5>
|  6> * xyz 0 1
|  7> S 	 -101.65 	 -4.71371 	 -103.427
|  8> C 	 -100.907 	 -3.82335 	 -104.642
|  9> C 	 -101.787 	 -2.98908 	 -105.364
| 10> C 	 -103.087 	 -3.12126 	 -104.797
| 11> C 	 -103.168 	 -3.97667 	 -103.712
| 12> H 	 -104 	 -2.5811 	 -105.116
| 13> C 	 -101.449 	 -2.09601 	 -106.562
| 14> H 	 -100.827 	 -1.33363 	 -106.148
| 15> H 	 -102.324 	 -1.61042 	 -106.891
| 16> C 	 -100.788 	 -2.8498 	 -107.763
| 17> H 	 -99.7641 	 -3.22223 	 -107.571
| 18> H 	 -101.376 	 -3.77474 	 -107.871
| 19> C 	 -100.944 	 -1.9525 	 -108.987
| 20> H 	 -101.939 	 -1.45605 	 -108.957
| 21> H 	 -100.251 	 -1.13952 	 -109.152
| 22> H 	 -100.928 	 -2.64253 	 -109.835
| 23> S 	 -104.192 	 -3.76508 	 -101.168
| 24> C 	 -105.922 	 -4.09566 	 -100.876
| 25> C 	 -106.559 	 -4.48059 	 -102.039
| 26> C 	 -105.684 	 -4.47077 	 -103.179
| 27> C 	 -104.397 	 -4.13897 	 -102.879
| 28> H 	 -107.608 	 -4.62682 	 -102.012
| 29> C 	 -106.241 	 -4.44155 	 -104.621
| 30> H 	 -106.855 	 -5.34999 	 -104.82
| 31> H 	 -105.279 	 -4.50881 	 -105.199
| 32> C 	 -107.186 	 -3.29282 	 -104.99
| 33> H 	 -106.728 	 -2.32468 	 -104.668
| 34> H 	 -107.991 	 -3.39699 	 -104.223
| 35> C 	 -107.488 	 -3.21471 	 -106.481
| 36> H 	 -108.081 	 -2.38948 	 -106.703
| 37> H 	 -108.001 	 -4.09834 	 -106.855
| 38> H 	 -106.556 	 -3.0228 	 -106.941
| 39> H 	 -99.8427 	 -4.06679 	 -104.952
| 40> H 	 -106.405 	 -3.74353 	 -99.9276
| 41> *
| 42>
| 43>                          ****END OF INPUT****

CARTESIAN COORDINATES (ANGSTROEM)
---------------------------------
  S    -101.650000   -4.713710  -103.427000
  C    -100.907000   -3.823350  -104.642000
  C    -101.787000   -2.989080  -105.364000
  C    -103.087000   -3.121260  -104.797000
  C    -103.168000   -3.976670  -103.712000
  H    -104.000000   -2.581100  -105.116000
  C    -101.449000   -2.096010  -106.562000
  H    -100.827000   -1.333630  -106.148000
  H    -102.324000   -1.610420  -106.891000
  C    -100.788000   -2.849800  -107.763000
  H    -99.764100   -3.222230  -107.571000
  H    -101.376000   -3.774740  -107.871000
  C    -100.944000   -1.952500  -108.987000
  H    -101.939000   -1.456050  -108.957000
  H    -100.251000   -1.139520  -109.152000
  H    -100.928000   -2.642530  -109.835000
  S    -104.192000   -3.765080  -101.168000
  C    -105.922000   -4.095660  -100.876000
  C    -106.559000   -4.480590  -102.039000
  C    -105.684000   -4.470770  -103.179000
  C    -104.397000   -4.138970  -102.879000
  H    -107.608000   -4.626820  -102.012000
  C    -106.241000   -4.441550  -104.621000
  H    -106.855000   -5.349990  -104.820000
  H    -105.279000   -4.508810  -105.199000
  C    -107.186000   -3.292820  -104.990000
  H    -106.728000   -2.324680  -104.668000
  H    -107.991000   -3.396990  -104.223000
  C    -107.488000   -3.214710  -106.481000
  H    -108.081000   -2.389480  -106.703000
  H    -108.001000   -4.098340  -106.855000
  H    -106.556000   -3.022800  -106.941000
  H    -99.842700   -4.066790  -104.952000
  H    -106.405000   -3.743530  -99.927600

 Total Charge           Charge          ....    0
 Multiplicity           Mult            ....    1
 Number of Electrons    NEL             ....  134
 Basis Dimension        Dim             ....  322

ORBITAL ENERGIES
----------------

  NO   OCC          E(Eh)            E(eV)
   0   2.0000     -88.969897     -2420.9940
   1   2.0000     -88.961008     -2420.7521
   2   2.0000     -10.327591      -281.0280
   3   2.0000     -10.325330      -280.9665
   4   2.0000     -10.322525      -280.8902
   5   2.0000     -10.314882      -280.6822
   6   2.0000     -10.303000      -280.3589
   7   2.0000     -10.301564      -280.3198
   8   2.0000     -10.294168      -280.1185
   9   2.0000     -10.293988      -280.1136
  10   2.0000     -10.293578      -280.1025
  11   2.0000     -10.293544      -280.1016
  12   2.0000     -10.291950      -280.0582
  13   2.0000     -10.289458      -279.9904
  14   2.0000     -10.281483      -279.7734
  15   2.0000     -10.274556      -279.5849
  16   2.0000      -8.086141      -220.0351
  17   2.0000      -8.075464      -219.7446
  18   2.0000      -6.044367      -164.4756
  19   2.0000      -6.040277      -164.3643
  20   2.0000      -6.037277      -164.2827
  21   2.0000      -6.034027      -164.1942
  22   2.0000      -6.030078      -164.0868
  23   2.0000      -6.026107      -163.9787
  24   2.0000      -1.010733       -27.5034
  25   2.0000      -0.984877       -26.7999
  26   2.0000      -0.912022       -24.8174
  27   2.0000      -0.906502       -24.6672
  28   2.0000      -0.866289       -23.5729
  29   2.0000      -0.855676       -23.2841
  30   2.0000      -0.848233       -23.0816
  31   2.0000      -0.812626       -22.1127
  32   2.0000      -0.781675       -21.2704
  33   2.0000      -0.771072       -20.9819
  34   2.0000      -0.708530       -19.2801
  35   2.0000      -0.698339       -19.0028
  36   2.0000      -0.686028       -18.6678
  37   2.0000      -0.662419       -18.0253
  38   2.0000      -0.642748       -17.4901
  39   2.0000      -0.614323       -16.7166
  40   2.0000      -0.589961       -16.0537
  41   2.0000      -0.572828       -15.5875
  42   2.0000      -0.567317       -15.4375
  43   2.0000      -0.559272       -15.2186
  44   2.0000      -0.528173       -14.3723
  45   2.0000      -0.524722       -14.2784
  46   2.0000      -0.523399       -14.2424
  47   2.0000      -0.512295       -13.9402
  48   2.0000      -0.500940       -13.6313
  49   2.0000      -0.498035       -13.5522
  50   2.0000      -0.487809       -13.2740
  51   2.0000      -0.482380       -13.1262
  52   2.0000      -0.470958       -12.8154
  53   2.0000      -0.465926       -12.6785
  54   2.0000      -0.461731       -12.5643
  55   2.0000      -0.454189       -12.3591
  56   2.0000      -0.444166       -12.0864
  57   2.0000      -0.435745       -11.8572
  58   2.0000      -0.432608       -11.7719
  59   2.0000      -0.424414       -11.5489
  60   2.0000      -0.422136       -11.4869
  61   2.0000      -0.416477       -11.3329
  62   2.0000      -0.412144       -11.2150
  63   2.0000      -0.347470        -9.4551
  64   2.0000      -0.330288        -8.9876
  65   2.0000      -0.327985        -8.9249
  66   2.0000      -0.293647        -7.9905
  67   0.0000       0.039353         1.0708
  68   0.0000       0.065652         1.7865
  69   0.0000       0.113802         3.0967
  70   0.0000       0.124603         3.3906
  71   0.0000       0.129764         3.5311

MULLIKEN ATOMIC CHARGES
-----------------------
   0 S :    0.150790
   1 C :   -0.163556
   2 C :   -0.103942
   3 C :    0.006958
   4 C :   -0.163281
   5 H :    0.019048
   6 C :    0.119921
   7 H :    0.037387
   8 H :   -0.004219
   9 C :   -0.099333
  10 H :    0.039048
  11 H :    0.039247
  12 C :   -0.043088
  13 H :    0.026715
  14 H :    0.039515
  15 H :    0.033915
  16 S :    0.086522
  17 C :   -0.121404
  18 C :   -0.022448
  19 C :   -0.010665
  20 C :   -0.162766
  21 H :    0.014914
  22 C :    0.008290
  23 H :    0.027638
  24 H :    0.036479
  25 C :   -0.099134
  26 H :    0.024170
  27 H :    0.023612
  28 C :    0.029993
  29 H :    0.020003
  30 H :    0.035830
  31 H :    0.020382
  32 H :    0.072306
  33 H :    0.081150
Sum of atomic charges:    0.0000000

LOEWDIN ATOMIC CHARGES
----------------------
   0 S :    0.464299
   1 C :   -0.235303
   2 C :   -0.064295
   3 C :   -0.069645
   4 C :   -0.222544
   5 H :    0.033867
   6 C :   -0.023795
   7 H :    0.032861
   8 H :    0.020455
   9 C :   -0.039805
  10 H :    0.026157
  11 H :    0.029100
  12 C :   -0.067364
  13 H :    0.028380
  14 H :    0.024673
  15 H :    0.028422
  16 S :    0.377256
  17 C :   -0.178282
  18 C :   -0.066268
  19 C :   -0.062738
  20 C :   -0.185270
  21 H :    0.027212
  22 C :   -0.039701
  23 H :    0.030157
  24 H :    0.031463
  25 C :   -0.048124
  26 H :    0.022925
  27 H :    0.024175
  28 C :   -0.050230
  29 H :    0.021116
  30 H :    0.028270
  31 H :    0.025596
  32 H :    0.037806
  33 H :    0.039175

  Mayer bond orders larger than 0.100000
B(  0-S ,  1-C ) :   1.1866 B(  0-S ,  4-C ) :   1.1870 B(  1-C ,  2-C ) :   1.5430
B(  1-C , 32-H ) :   0.9606 B(  2-C ,  3-C ) :   1.3028 B(  2-C ,  6-C ) :   1.0171
B(  3-C ,  4-C ) :   1.5278 B(  3-C ,  5-H ) :   0.9877 B(  4-C , 20-C ) :   0.9971
B(  6-C ,  7-H ) :   0.9300 B(  6-C ,  8-H ) :   0.9421 B(  6-C ,  9-C ) :   1.0554
B(  9-C , 10-H ) :   0.9523 B(  9-C , 11-H ) :   0.9630 B(  9-C , 12-C ) :   1.0769
B( 12-C , 13-H ) :   0.9749 B( 12-C , 14-H ) :   0.9766 B( 12-C , 15-H ) :   0.9755
B( 16-S , 17-C ) :   1.1411 B( 16-S , 20-C ) :   1.1381 B( 17-C , 18-C ) :   1.6319
B( 17-C , 33-H ) :   0.9604 B( 18-C , 19-C ) :   1.1984 B( 18-C , 21-H ) :   0.9952
B( 19-C , 20-C ) :   1.6500 B( 19-C , 22-C ) :   1.0461 B( 22-C , 23-H ) :   0.9317
B( 22-C , 24-H ) :   0.9379 B( 22-C , 25-C ) :   1.0518 B( 25-C , 26-H ) :   0.9543
B( 25-C , 27-H ) :   0.9489 B( 25-C , 28-C ) :   1.0747 B( 28-C , 29-H ) :   0.9706
B( 28-C , 30-H ) :   0.9755 B( 28-C , 31-H ) :   0.9703

Dispersion correction           -0.014031905
FINAL SINGLE POINT ENERGY     -1339.875386226177

DIPOLE MOMENT
-------------
                                X             Y             Z
Electronic contribution:      7.15788      -9.51989      29.20023
Nuclear contribution   :     -7.42804       9.89597     -29.84070
                        -----------------------------------------
Total Dipole Moment    :     -0.27015       0.37608      -0.64046
                        -----------------------------------------
Magnitude (a.u.)       :      0.79032
Magnitude (Debye)      :      2.00884

Rotational constants in cm-1:     0.018204     0.008592     0.006208
Rotational constants in MHz :   545.740182   257.581362   186.124730

                             ****ORCA TERMINATED NORMALLY****
TOTAL RUN TIME: 0 days 0 hours 0 minutes 21 seconds 376 msec
