                         Program Version 4.2.1 -  RELEASE  -
|  1> ! wB97X-D3 SP def2-SVP
|  2> %pal
|  3> nprocs 24
|  4> end
|  5>
|  6> * xyz 0 1
|  7> S 	 -52.3705 	 21.3412 	 -98.3323
|  8> C 	 -51.647 	 20.4557 	 -97.0144
|  9> C 	 -51.3477 	 19.1717 	 -97.4275
| 10> C 	 -51.8768 	 18.875 	 -98.7403
| 11> C 	 -52.5195 	 19.9512 	 -99.365
| 12> H 	 -51.8605 	 18.0043 	 -99.3452
| 13> C 	 -50.5436 	 18.1892 	 -96.6117
| 14> H 	 -50.6337 	 18.3716 	 -95.5687
| 15> H 	 -49.4996 	 18.3915 	 -96.8766
| 16> C 	 -50.8268 	 16.6929 	 -96.9148
| 17> H 	 -50.5767 	 16.5771 	 -97.9932
| 18> H 	 -50.1029 	 16.1593 	 -96.2987
| 19> C 	 -52.3036 	 16.4434 	 -96.5804
| 20> H 	 -52.7392 	 16.7104 	 -95.5791
| 21> H 	 -52.8782 	 16.9488 	 -97.3548
| 22> H 	 -52.5503 	 15.405 	 -96.7659
| 23> S 	 -54.6206 	 20.2901 	 -100.937
| 24> C 	 -54.4924 	 19.818 	 -102.602
| 25> C 	 -53.1685 	 19.8169 	 -102.975
| 26> C 	 -52.2665 	 19.9611 	 -101.872
| 27> C 	 -52.9166 	 20.0749 	 -100.737
| 28> H 	 -52.9297 	 19.6423 	 -104.026
| 29> C 	 -50.7807 	 20.0163 	 -102
| 30> H 	 -50.3811 	 20.293 	 -101.014
| 31> H 	 -50.4986 	 20.8152 	 -102.75
| 32> C 	 -50.1003 	 18.8687 	 -102.632
| 33> H 	 -48.9873 	 18.8912 	 -102.614
| 34> H 	 -50.4214 	 18.7442 	 -103.674
| 35> C 	 -50.4669 	 17.5328 	 -101.903
| 36> H 	 -51.4584 	 17.3389 	 -101.724
| 37> H 	 -49.8748 	 17.3835 	 -101.004
| 38> H 	 -50.0699 	 16.7114 	 -102.476
| 39> H 	 -51.1815 	 20.8709 	 -96.1233
| 40> H 	 -55.257 	 19.5857 	 -103.303
| 41> *
| 42>
| 43>                          ****END OF INPUT****

CARTESIAN COORDINATES (ANGSTROEM)
---------------------------------
  S    -52.370500   21.341200  -98.332300
  C    -51.647000   20.455700  -97.014400
  C    -51.347700   19.171700  -97.427500
  C    -51.876800   18.875000  -98.740300
  C    -52.519500   19.951200  -99.365000
  H    -51.860500   18.004300  -99.345200
  C    -50.543600   18.189200  -96.611700
  H    -50.633700   18.371600  -95.568700
  H    -49.499600   18.391500  -96.876600
  C    -50.826800   16.692900  -96.914800
  H    -50.576700   16.577100  -97.993200
  H    -50.102900   16.159300  -96.298700
  C    -52.303600   16.443400  -96.580400
  H    -52.739200   16.710400  -95.579100
  H    -52.878200   16.948800  -97.354800
  H    -52.550300   15.405000  -96.765900
  S    -54.620600   20.290100  -100.937000
  C    -54.492400   19.818000  -102.602000
  C    -53.168500   19.816900  -102.975000
  C    -52.266500   19.961100  -101.872000
  C    -52.916600   20.074900  -100.737000
  H    -52.929700   19.642300  -104.026000
  C    -50.780700   20.016300  -102.000000
  H    -50.381100   20.293000  -101.014000
  H    -50.498600   20.815200  -102.750000
  C    -50.100300   18.868700  -102.632000
  H    -48.987300   18.891200  -102.614000
  H    -50.421400   18.744200  -103.674000
  C    -50.466900   17.532800  -101.903000
  H    -51.458400   17.338900  -101.724000
  H    -49.874800   17.383500  -101.004000
  H    -50.069900   16.711400  -102.476000
  H    -51.181500   20.870900  -96.123300
  H    -55.257000   19.585700  -103.303000

 Total Charge           Charge          ....    0
 Multiplicity           Mult            ....    1
 Number of Electrons    NEL             ....  134
 Basis Dimension        Dim             ....  322

ORBITAL ENERGIES
----------------

  NO   OCC          E(Eh)            E(eV)
   0   2.0000     -88.962016     -2420.7795
   1   2.0000     -88.960922     -2420.7498
   2   2.0000     -10.325707      -280.9768
   3   2.0000     -10.315302      -280.6936
   4   2.0000     -10.315100      -280.6881
   5   2.0000     -10.311126      -280.5800
   6   2.0000     -10.302487      -280.3449
   7   2.0000     -10.297611      -280.2122
   8   2.0000     -10.294068      -280.1158
   9   2.0000     -10.293818      -280.1090
  10   2.0000     -10.291643      -280.0499
  11   2.0000     -10.290478      -280.0181
  12   2.0000     -10.289944      -280.0036
  13   2.0000     -10.286941      -279.9219
  14   2.0000     -10.276077      -279.6263
  15   2.0000     -10.265978      -279.3515
  16   2.0000      -8.077015      -219.7867
  17   2.0000      -8.076960      -219.7853
  18   2.0000      -6.035530      -164.2351
  19   2.0000      -6.035432      -164.2325
  20   2.0000      -6.031489      -164.1252
  21   2.0000      -6.031334      -164.1209
  22   2.0000      -6.027836      -164.0258
  23   2.0000      -6.027488      -164.0163
  24   2.0000      -1.018381       -27.7116
  25   2.0000      -0.987890       -26.8819
  26   2.0000      -0.918322       -24.9888
  27   2.0000      -0.913646       -24.8616
  28   2.0000      -0.874844       -23.8057
  29   2.0000      -0.850317       -23.1383
  30   2.0000      -0.836944       -22.7744
  31   2.0000      -0.819113       -22.2892
  32   2.0000      -0.788572       -21.4581
  33   2.0000      -0.777125       -21.1466
  34   2.0000      -0.713620       -19.4186
  35   2.0000      -0.699904       -19.0454
  36   2.0000      -0.691599       -18.8194
  37   2.0000      -0.663746       -18.0614
  38   2.0000      -0.644410       -17.5353
  39   2.0000      -0.620554       -16.8861
  40   2.0000      -0.597995       -16.2723
  41   2.0000      -0.567760       -15.4495
  42   2.0000      -0.558921       -15.2090
  43   2.0000      -0.553039       -15.0490
  44   2.0000      -0.549734       -14.9590
  45   2.0000      -0.531046       -14.4505
  46   2.0000      -0.524425       -14.2703
  47   2.0000      -0.513631       -13.9766
  48   2.0000      -0.509805       -13.8725
  49   2.0000      -0.500468       -13.6184
  50   2.0000      -0.490656       -13.3514
  51   2.0000      -0.481943       -13.1143
  52   2.0000      -0.470647       -12.8069
  53   2.0000      -0.468529       -12.7493
  54   2.0000      -0.463394       -12.6096
  55   2.0000      -0.448726       -12.2105
  56   2.0000      -0.439693       -11.9647
  57   2.0000      -0.437774       -11.9124
  58   2.0000      -0.432964       -11.7816
  59   2.0000      -0.420564       -11.4441
  60   2.0000      -0.415835       -11.3155
  61   2.0000      -0.411966       -11.2102
  62   2.0000      -0.410220       -11.1627
  63   2.0000      -0.338910        -9.2222
  64   2.0000      -0.330630        -8.9969
  65   2.0000      -0.324020        -8.8170
  66   2.0000      -0.302656        -8.2357
  67   0.0000       0.043060         1.1717
  68   0.0000       0.056350         1.5334
  69   0.0000       0.109205         2.9716
  70   0.0000       0.118480         3.2240
  71   0.0000       0.136683         3.7193

MULLIKEN ATOMIC CHARGES
-----------------------
   0 S :    0.105576
   1 C :   -0.104767
   2 C :   -0.119350
   3 C :    0.047408
   4 C :   -0.160390
   5 H :   -0.012587
   6 C :    0.068093
   7 H :    0.015628
   8 H :    0.037455
   9 C :   -0.076269
  10 H :    0.041229
  11 H :    0.033361
  12 C :   -0.051598
  13 H :    0.048525
  14 H :    0.033563
  15 H :    0.024477
  16 S :    0.115469
  17 C :   -0.074308
  18 C :   -0.058954
  19 C :    0.000583
  20 C :   -0.204524
  21 H :    0.021579
  22 C :    0.101507
  23 H :    0.033583
  24 H :    0.039591
  25 C :   -0.094264
  26 H :    0.041055
  27 H :    0.030777
  28 C :   -0.049433
  29 H :    0.037558
  30 H :    0.020401
  31 H :    0.012971
  32 H :    0.051734
  33 H :    0.044322
Sum of atomic charges:   -0.0000000

LOEWDIN ATOMIC CHARGES
----------------------
   0 S :    0.411566
   1 C :   -0.207338
   2 C :   -0.060128
   3 C :   -0.064866
   4 C :   -0.201689
   5 H :    0.023310
   6 C :   -0.032278
   7 H :    0.022662
   8 H :    0.034022
   9 C :   -0.037977
  10 H :    0.029069
  11 H :    0.024353
  12 C :   -0.073414
  13 H :    0.034696
  14 H :    0.029587
  15 H :    0.022283
  16 S :    0.415907
  17 C :   -0.176969
  18 C :   -0.071331
  19 C :   -0.056221
  20 C :   -0.207588
  21 H :    0.031683
  22 C :   -0.034848
  23 H :    0.034025
  24 H :    0.044991
  25 C :   -0.040306
  26 H :    0.033581
  27 H :    0.022708
  28 C :   -0.066821
  29 H :    0.009505
  30 H :    0.023486
  31 H :    0.024437
  32 H :    0.033300
  33 H :    0.026602

  Mayer bond orders larger than 0.100000
B(  0-S ,  1-C ) :   1.1354 B(  0-S ,  4-C ) :   1.1697 B(  1-C ,  2-C ) :   1.6184
B(  1-C , 32-H ) :   0.9672 B(  2-C ,  3-C ) :   1.2173 B(  2-C ,  6-C ) :   1.0130
B(  3-C ,  4-C ) :   1.5813 B(  3-C ,  5-H ) :   0.9992 B(  4-C , 20-C ) :   0.9873
B(  6-C ,  7-H ) :   0.9439 B(  6-C ,  8-H ) :   0.9304 B(  6-C ,  9-C ) :   1.0830
B(  9-C , 10-H ) :   0.9458 B(  9-C , 11-H ) :   0.9561 B(  9-C , 12-C ) :   1.0747
B( 12-C , 13-H ) :   0.9760 B( 12-C , 14-H ) :   0.9673 B( 12-C , 15-H ) :   0.9718
B( 16-S , 17-C ) :   1.1477 B( 16-S , 20-C ) :   1.1240 B( 17-C , 18-C ) :   1.6449
B( 17-C , 33-H ) :   0.9728 B( 18-C , 19-C ) :   1.1702 B( 18-C , 21-H ) :   0.9914
B( 19-C , 20-C ) :   1.6688 B( 19-C , 22-C ) :   1.0525 B( 22-C , 23-H ) :   0.9305
B( 22-C , 24-H ) :   0.9293 B( 22-C , 25-C ) :   1.0717 B( 25-C , 26-H ) :   0.9543
B( 25-C , 27-H ) :   0.9548 B( 25-C , 28-C ) :   1.0808 B( 28-C , 29-H ) :   0.9716
B( 28-C , 30-H ) :   0.9722 B( 28-C , 31-H ) :   0.9672

Dispersion correction           -0.016022318
FINAL SINGLE POINT ENERGY     -1339.863651152689

DIPOLE MOMENT
-------------
                                X             Y             Z
Electronic contribution:    -15.99634      20.53881      -1.36416
Nuclear contribution   :     16.58937     -21.01439       1.08134
                        -----------------------------------------
Total Dipole Moment    :      0.59303      -0.47558      -0.28282
                        -----------------------------------------
Magnitude (a.u.)       :      0.81108
Magnitude (Debye)      :      2.06159

Rotational constants in cm-1:     0.018810     0.009928     0.008313
Rotational constants in MHz :   563.914202   297.626172   249.217588

                             ****ORCA TERMINATED NORMALLY****
TOTAL RUN TIME: 0 days 0 hours 0 minutes 23 seconds 490 msec
