                         Program Version 4.2.1 -  RELEASE  -
|  1> ! wB97X-D3 SP def2-SVP
|  2> %pal
|  3> nprocs 24
|  4> end
|  5>
|  6> * xyz 0 1
|  7> S 	 -62.985 	 8.72836 	 -104.643
|  8> C 	 -63.6454 	 9.72177 	 -105.941
|  9> C 	 -62.9553 	 10.9351 	 -106.009
| 10> C 	 -61.8568 	 10.9912 	 -105.082
| 11> C 	 -61.6356 	 9.79916 	 -104.361
| 12> H 	 -61.1974 	 11.8577 	 -104.846
| 13> C 	 -63.3723 	 12.0714 	 -106.941
| 14> H 	 -62.8183 	 12.9729 	 -106.77
| 15> H 	 -64.4412 	 12.1166 	 -106.611
| 16> C 	 -63.3902 	 11.8183 	 -108.386
| 17> H 	 -62.4923 	 11.2458 	 -108.703
| 18> H 	 -64.319 	 11.2757 	 -108.507
| 19> C 	 -63.5174 	 13.0724 	 -109.251
| 20> H 	 -63.4774 	 12.9784 	 -110.316
| 21> H 	 -64.4884 	 13.4823 	 -109.125
| 22> H 	 -62.8071 	 13.842 	 -108.995
| 23> S 	 -61.6794 	 9.2783 	 -101.689
| 24> C 	 -60.4032 	 9.93101 	 -100.724
| 25> C 	 -59.2598 	 10.2198 	 -101.471
| 26> C 	 -59.5157 	 10.0752 	 -102.87
| 27> C 	 -60.7837 	 9.72465 	 -103.147
| 28> H 	 -58.3634 	 10.4722 	 -101.055
| 29> C 	 -58.3523 	 10.4911 	 -103.772
| 30> H 	 -58.3931 	 9.8981 	 -104.72
| 31> H 	 -57.4298 	 10.1426 	 -103.248
| 32> C 	 -58.1515 	 11.9794 	 -104.069
| 33> H 	 -57.981 	 12.5613 	 -103.185
| 34> H 	 -59.0839 	 12.4115 	 -104.529
| 35> C 	 -56.8266 	 12.1999 	 -104.905
| 36> H 	 -55.9444 	 11.7321 	 -104.305
| 37> H 	 -56.6543 	 13.2347 	 -105.119
| 38> H 	 -57.0179 	 11.5778 	 -105.854
| 39> H 	 -64.5741 	 9.46234 	 -106.543
| 40> H 	 -60.433 	 9.94536 	 -99.6706
| 41> *
| 42>
| 43>                          ****END OF INPUT****

CARTESIAN COORDINATES (ANGSTROEM)
---------------------------------
  S    -62.985000    8.728360  -104.643000
  C    -63.645400    9.721770  -105.941000
  C    -62.955300   10.935100  -106.009000
  C    -61.856800   10.991200  -105.082000
  C    -61.635600    9.799160  -104.361000
  H    -61.197400   11.857700  -104.846000
  C    -63.372300   12.071400  -106.941000
  H    -62.818300   12.972900  -106.770000
  H    -64.441200   12.116600  -106.611000
  C    -63.390200   11.818300  -108.386000
  H    -62.492300   11.245800  -108.703000
  H    -64.319000   11.275700  -108.507000
  C    -63.517400   13.072400  -109.251000
  H    -63.477400   12.978400  -110.316000
  H    -64.488400   13.482300  -109.125000
  H    -62.807100   13.842000  -108.995000
  S    -61.679400    9.278300  -101.689000
  C    -60.403200    9.931010  -100.724000
  C    -59.259800   10.219800  -101.471000
  C    -59.515700   10.075200  -102.870000
  C    -60.783700    9.724650  -103.147000
  H    -58.363400   10.472200  -101.055000
  C    -58.352300   10.491100  -103.772000
  H    -58.393100    9.898100  -104.720000
  H    -57.429800   10.142600  -103.248000
  C    -58.151500   11.979400  -104.069000
  H    -57.981000   12.561300  -103.185000
  H    -59.083900   12.411500  -104.529000
  C    -56.826600   12.199900  -104.905000
  H    -55.944400   11.732100  -104.305000
  H    -56.654300   13.234700  -105.119000
  H    -57.017900   11.577800  -105.854000
  H    -64.574100    9.462340  -106.543000
  H    -60.433000    9.945360  -99.670600

 Total Charge           Charge          ....    0
 Multiplicity           Mult            ....    1
 Number of Electrons    NEL             ....  134
 Basis Dimension        Dim             ....  322

ORBITAL ENERGIES
----------------

  NO   OCC          E(Eh)            E(eV)
   0   2.0000     -88.968028     -2420.9431
   1   2.0000     -88.963532     -2420.8208
   2   2.0000     -10.333292      -281.1832
   3   2.0000     -10.326817      -281.0070
   4   2.0000     -10.322168      -280.8805
   5   2.0000     -10.314505      -280.6719
   6   2.0000     -10.307284      -280.4754
   7   2.0000     -10.301102      -280.3072
   8   2.0000     -10.299674      -280.2684
   9   2.0000     -10.298426      -280.2344
  10   2.0000     -10.294897      -280.1384
  11   2.0000     -10.292768      -280.0805
  12   2.0000     -10.289442      -279.9900
  13   2.0000     -10.287928      -279.9487
  14   2.0000     -10.283570      -279.8302
  15   2.0000     -10.272504      -279.5291
  16   2.0000      -8.082309      -219.9308
  17   2.0000      -8.078839      -219.8364
  18   2.0000      -6.040891      -164.3810
  19   2.0000      -6.037381      -164.2855
  20   2.0000      -6.036822      -164.2703
  21   2.0000      -6.033420      -164.1777
  22   2.0000      -6.033083      -164.1685
  23   2.0000      -6.029360      -164.0672
  24   2.0000      -1.007359       -27.4116
  25   2.0000      -0.983545       -26.7636
  26   2.0000      -0.922276       -25.0964
  27   2.0000      -0.906244       -24.6602
  28   2.0000      -0.867715       -23.6117
  29   2.0000      -0.852006       -23.1843
  30   2.0000      -0.844571       -22.9819
  31   2.0000      -0.811925       -22.0936
  32   2.0000      -0.782249       -21.2861
  33   2.0000      -0.771741       -21.0002
  34   2.0000      -0.702232       -19.1087
  35   2.0000      -0.699425       -19.0323
  36   2.0000      -0.689820       -18.7710
  37   2.0000      -0.674517       -18.3545
  38   2.0000      -0.636318       -17.3151
  39   2.0000      -0.610876       -16.6228
  40   2.0000      -0.597923       -16.2703
  41   2.0000      -0.585790       -15.9402
  42   2.0000      -0.568132       -15.4596
  43   2.0000      -0.560596       -15.2546
  44   2.0000      -0.530344       -14.4314
  45   2.0000      -0.523621       -14.2485
  46   2.0000      -0.517121       -14.0716
  47   2.0000      -0.511673       -13.9233
  48   2.0000      -0.504392       -13.7252
  49   2.0000      -0.495781       -13.4909
  50   2.0000      -0.492600       -13.4043
  51   2.0000      -0.476988       -12.9795
  52   2.0000      -0.473240       -12.8775
  53   2.0000      -0.466604       -12.6969
  54   2.0000      -0.454678       -12.3724
  55   2.0000      -0.451786       -12.2937
  56   2.0000      -0.447579       -12.1792
  57   2.0000      -0.443384       -12.0651
  58   2.0000      -0.431381       -11.7385
  59   2.0000      -0.424551       -11.5526
  60   2.0000      -0.417823       -11.3695
  61   2.0000      -0.411542       -11.1986
  62   2.0000      -0.410841       -11.1795
  63   2.0000      -0.348498        -9.4831
  64   2.0000      -0.332927        -9.0594
  65   2.0000      -0.326671        -8.8892
  66   2.0000      -0.289374        -7.8743
  67   0.0000       0.027494         0.7481
  68   0.0000       0.063537         1.7289
  69   0.0000       0.103483         2.8159
  70   0.0000       0.118849         3.2340
  71   0.0000       0.134736         3.6664

MULLIKEN ATOMIC CHARGES
-----------------------
   0 S :    0.094375
   1 C :   -0.154218
   2 C :   -0.080971
   3 C :    0.005495
   4 C :   -0.122203
   5 H :    0.025997
   6 C :    0.062708
   7 H :    0.011099
   8 H :    0.042622
   9 C :   -0.062846
  10 H :    0.043806
  11 H :    0.020115
  12 C :   -0.028130
  13 H :    0.027676
  14 H :    0.010968
  15 H :    0.023804
  16 S :    0.102583
  17 C :   -0.070665
  18 C :   -0.000571
  19 C :   -0.032210
  20 C :   -0.146544
  21 H :   -0.019684
  22 C :    0.026294
  23 H :    0.036704
  24 H :    0.021664
  25 C :   -0.069072
  26 H :    0.020997
  27 H :    0.035322
  28 C :   -0.084949
  29 H :    0.048744
  30 H :    0.044325
  31 H :    0.046468
  32 H :    0.079205
  33 H :    0.041090
Sum of atomic charges:    0.0000000

LOEWDIN ATOMIC CHARGES
----------------------
   0 S :    0.402854
   1 C :   -0.209842
   2 C :   -0.060774
   3 C :   -0.067321
   4 C :   -0.199371
   5 H :    0.034662
   6 C :   -0.034298
   7 H :    0.022915
   8 H :    0.043849
   9 C :   -0.043866
  10 H :    0.028967
  11 H :    0.023972
  12 C :   -0.063312
  13 H :    0.026219
  14 H :    0.021387
  15 H :    0.021803
  16 S :    0.401418
  17 C :   -0.173479
  18 C :   -0.054927
  19 C :   -0.062464
  20 C :   -0.185511
  21 H :    0.014084
  22 C :   -0.034527
  23 H :    0.034030
  24 H :    0.033575
  25 C :   -0.045064
  26 H :    0.017917
  27 H :    0.024136
  28 C :   -0.069904
  29 H :    0.036090
  30 H :    0.021001
  31 H :    0.033538
  32 H :    0.044626
  33 H :    0.017617

  Mayer bond orders larger than 0.100000
B(  0-S ,  1-C ) :   1.1410 B(  0-S ,  4-C ) :   1.1613 B(  1-C ,  2-C ) :   1.5776
B(  1-C ,  4-C ) :   0.1008 B(  1-C , 32-H ) :   0.9630 B(  2-C ,  3-C ) :   1.2747
B(  2-C ,  6-C ) :   1.0085 B(  3-C ,  4-C ) :   1.5402 B(  3-C ,  5-H ) :   0.9814
B(  4-C , 20-C ) :   1.0234 B(  6-C ,  7-H ) :   0.9490 B(  6-C ,  8-H ) :   0.9387
B(  6-C ,  9-C ) :   1.0640 B(  9-C , 10-H ) :   0.9603 B(  9-C , 11-H ) :   0.9521
B(  9-C , 12-C ) :   1.0917 B( 12-C , 13-H ) :   0.9735 B( 12-C , 14-H ) :   0.9712
B( 12-C , 15-H ) :   0.9746 B( 16-S , 17-C ) :   1.1641 B( 16-S , 20-C ) :   1.1151
B( 17-C , 18-C ) :   1.6036 B( 17-C , 33-H ) :   0.9733 B( 18-C , 19-C ) :   1.2160
B( 18-C , 21-H ) :   1.0090 B( 19-C , 20-C ) :   1.6667 B( 19-C , 22-C ) :   1.0411
B( 22-C , 23-H ) :   0.9363 B( 22-C , 24-H ) :   0.9345 B( 22-C , 25-C ) :   1.0644
B( 25-C , 26-H ) :   0.9518 B( 25-C , 27-H ) :   0.9497 B( 25-C , 28-C ) :   1.0682
B( 28-C , 29-H ) :   0.9732 B( 28-C , 30-H ) :   0.9748 B( 28-C , 31-H ) :   0.9767

Dispersion correction           -0.013472908
FINAL SINGLE POINT ENERGY     -1339.855270880930

DIPOLE MOMENT
-------------
                                X             Y             Z
Electronic contribution:    -10.65748     -20.36226      20.83763
Nuclear contribution   :     10.84376      21.00017     -21.02174
                        -----------------------------------------
Total Dipole Moment    :      0.18628       0.63791      -0.18412
                        -----------------------------------------
Magnitude (a.u.)       :      0.68958
Magnitude (Debye)      :      1.75278

Rotational constants in cm-1:     0.017259     0.008461     0.006076
Rotational constants in MHz :   517.419815   253.653822   182.139935

                             ****ORCA TERMINATED NORMALLY****
TOTAL RUN TIME: 0 days 0 hours 0 minutes 21 seconds 74 msec
