                         Program Version 4.2.1 -  RELEASE  -
|  1> ! wB97X-D3 SP def2-SVP
|  2> %pal
|  3> nprocs 24
|  4> end
|  5>
|  6> * xyz 0 1
|  7> S 	 -121.019 	 65.4382 	 -51.54
|  8> C 	 -121.102 	 66.8448 	 -52.5444
|  9> C 	 -122.311 	 66.8859 	 -53.2385
| 10> C 	 -123.266 	 65.9355 	 -52.7324
| 11> C 	 -122.661 	 64.9308 	 -51.9095
| 12> H 	 -124.351 	 65.794 	 -52.9412
| 13> C 	 -122.798 	 67.7778 	 -54.3733
| 14> H 	 -122.965 	 68.7892 	 -54.0131
| 15> H 	 -123.697 	 67.3988 	 -54.748
| 16> C 	 -121.864 	 67.9621 	 -55.5856
| 17> H 	 -122.297 	 68.5885 	 -56.3541
| 18> H 	 -120.936 	 68.3931 	 -55.1372
| 19> C 	 -121.355 	 66.5833 	 -56.0485
| 20> H 	 -120.543 	 66.6528 	 -56.7229
| 21> H 	 -120.974 	 66.0455 	 -55.1659
| 22> H 	 -122.098 	 65.9089 	 -56.4866
| 23> S 	 -124.321 	 62.6339 	 -51.9998
| 24> C 	 -124.562 	 61.7254 	 -50.4749
| 25> C 	 -123.841 	 62.2312 	 -49.4607
| 26> C 	 -123.125 	 63.3905 	 -49.8465
| 27> C 	 -123.235 	 63.8042 	 -51.1497
| 28> H 	 -123.844 	 61.7522 	 -48.4685
| 29> C 	 -122.276 	 64.1403 	 -48.8176
| 30> H 	 -122.728 	 64.2451 	 -47.8806
| 31> H 	 -121.983 	 65.1958 	 -49.1905
| 32> C 	 -120.882 	 63.4364 	 -48.537
| 33> H 	 -120.066 	 64.124 	 -48.2129
| 34> H 	 -120.553 	 63.0389 	 -49.4778
| 35> C 	 -121.05 	 62.3185 	 -47.4596
| 36> H 	 -120.045 	 61.7675 	 -47.2486
| 37> H 	 -121.777 	 61.5459 	 -47.7545
| 38> H 	 -121.437 	 62.5896 	 -46.4571
| 39> H 	 -120.182 	 67.366 	 -52.9002
| 40> H 	 -125.271 	 60.9818 	 -50.33
| 41> *
| 42>
| 43>                          ****END OF INPUT****

CARTESIAN COORDINATES (ANGSTROEM)
---------------------------------
  S    -121.019000   65.438200  -51.540000
  C    -121.102000   66.844800  -52.544400
  C    -122.311000   66.885900  -53.238500
  C    -123.266000   65.935500  -52.732400
  C    -122.661000   64.930800  -51.909500
  H    -124.351000   65.794000  -52.941200
  C    -122.798000   67.777800  -54.373300
  H    -122.965000   68.789200  -54.013100
  H    -123.697000   67.398800  -54.748000
  C    -121.864000   67.962100  -55.585600
  H    -122.297000   68.588500  -56.354100
  H    -120.936000   68.393100  -55.137200
  C    -121.355000   66.583300  -56.048500
  H    -120.543000   66.652800  -56.722900
  H    -120.974000   66.045500  -55.165900
  H    -122.098000   65.908900  -56.486600
  S    -124.321000   62.633900  -51.999800
  C    -124.562000   61.725400  -50.474900
  C    -123.841000   62.231200  -49.460700
  C    -123.125000   63.390500  -49.846500
  C    -123.235000   63.804200  -51.149700
  H    -123.844000   61.752200  -48.468500
  C    -122.276000   64.140300  -48.817600
  H    -122.728000   64.245100  -47.880600
  H    -121.983000   65.195800  -49.190500
  C    -120.882000   63.436400  -48.537000
  H    -120.066000   64.124000  -48.212900
  H    -120.553000   63.038900  -49.477800
  C    -121.050000   62.318500  -47.459600
  H    -120.045000   61.767500  -47.248600
  H    -121.777000   61.545900  -47.754500
  H    -121.437000   62.589600  -46.457100
  H    -120.182000   67.366000  -52.900200
  H    -125.271000   60.981800  -50.330000

 Total Charge           Charge          ....    0
 Multiplicity           Mult            ....    1
 Number of Electrons    NEL             ....  134
 Basis Dimension        Dim             ....  322

ORBITAL ENERGIES
----------------

  NO   OCC          E(Eh)            E(eV)
   0   2.0000     -88.971704     -2421.0432
   1   2.0000     -88.965392     -2420.8714
   2   2.0000     -10.340810      -281.3877
   3   2.0000     -10.335224      -281.2357
   4   2.0000     -10.321620      -280.8656
   5   2.0000     -10.316631      -280.7298
   6   2.0000     -10.311312      -280.5851
   7   2.0000     -10.307071      -280.4697
   8   2.0000     -10.305211      -280.4190
   9   2.0000     -10.295208      -280.1469
  10   2.0000     -10.290270      -280.0125
  11   2.0000     -10.290143      -280.0090
  12   2.0000     -10.289926      -280.0031
  13   2.0000     -10.287898      -279.9479
  14   2.0000     -10.287154      -279.9277
  15   2.0000     -10.269300      -279.4419
  16   2.0000      -8.085863      -220.0275
  17   2.0000      -8.078863      -219.8370
  18   2.0000      -6.044371      -164.4757
  19   2.0000      -6.040157      -164.3610
  20   2.0000      -6.037621      -164.2920
  21   2.0000      -6.036929      -164.2732
  22   2.0000      -6.033614      -164.1830
  23   2.0000      -6.029364      -164.0673
  24   2.0000      -1.004706       -27.3394
  25   2.0000      -0.985118       -26.8064
  26   2.0000      -0.914680       -24.8897
  27   2.0000      -0.897287       -24.4164
  28   2.0000      -0.871004       -23.7012
  29   2.0000      -0.848168       -23.0798
  30   2.0000      -0.837566       -22.7913
  31   2.0000      -0.813647       -22.1405
  32   2.0000      -0.783845       -21.3295
  33   2.0000      -0.769300       -20.9337
  34   2.0000      -0.707604       -19.2549
  35   2.0000      -0.702564       -19.1177
  36   2.0000      -0.692895       -18.8546
  37   2.0000      -0.665182       -18.1005
  38   2.0000      -0.640893       -17.4396
  39   2.0000      -0.604981       -16.4624
  40   2.0000      -0.597647       -16.2628
  41   2.0000      -0.582328       -15.8460
  42   2.0000      -0.555971       -15.1287
  43   2.0000      -0.548298       -14.9199
  44   2.0000      -0.542494       -14.7620
  45   2.0000      -0.535493       -14.5715
  46   2.0000      -0.514561       -14.0019
  47   2.0000      -0.509466       -13.8633
  48   2.0000      -0.498256       -13.5582
  49   2.0000      -0.494035       -13.4434
  50   2.0000      -0.487519       -13.2661
  51   2.0000      -0.481714       -13.1081
  52   2.0000      -0.473310       -12.8794
  53   2.0000      -0.469278       -12.7697
  54   2.0000      -0.460880       -12.5412
  55   2.0000      -0.443960       -12.0808
  56   2.0000      -0.437428       -11.9030
  57   2.0000      -0.432770       -11.7763
  58   2.0000      -0.430124       -11.7043
  59   2.0000      -0.427627       -11.6363
  60   2.0000      -0.416508       -11.3337
  61   2.0000      -0.412341       -11.2204
  62   2.0000      -0.404907       -11.0181
  63   2.0000      -0.354995        -9.6599
  64   2.0000      -0.334906        -9.1132
  65   2.0000      -0.326969        -8.8973
  66   2.0000      -0.294626        -8.0172
  67   0.0000       0.019826         0.5395
  68   0.0000       0.067580         1.8390
  69   0.0000       0.106852         2.9076
  70   0.0000       0.113691         3.0937
  71   0.0000       0.121260         3.2996

MULLIKEN ATOMIC CHARGES
-----------------------
   0 S :    0.097013
   1 C :   -0.116848
   2 C :   -0.132018
   3 C :    0.012952
   4 C :   -0.162732
   5 H :    0.039877
   6 C :    0.116503
   7 H :    0.040239
   8 H :    0.006029
   9 C :   -0.086147
  10 H :    0.042257
  11 H :    0.023797
  12 C :   -0.057009
  13 H :    0.022870
  14 H :    0.039484
  15 H :    0.029356
  16 S :    0.078309
  17 C :   -0.053135
  18 C :   -0.031964
  19 C :   -0.031278
  20 C :   -0.125896
  21 H :    0.037949
  22 C :    0.018380
  23 H :    0.014023
  24 H :    0.051366
  25 C :   -0.042938
  26 H :    0.041229
  27 H :    0.026125
  28 C :   -0.107243
  29 H :    0.046126
  30 H :    0.025756
  31 H :    0.032090
  32 H :    0.073945
  33 H :    0.031535
Sum of atomic charges:    0.0000000

LOEWDIN ATOMIC CHARGES
----------------------
   0 S :    0.441936
   1 C :   -0.219550
   2 C :   -0.059814
   3 C :   -0.062183
   4 C :   -0.188652
   5 H :    0.040518
   6 C :   -0.025121
   7 H :    0.035371
   8 H :    0.019919
   9 C :   -0.036455
  10 H :    0.025294
  11 H :    0.026024
  12 C :   -0.070136
  13 H :    0.016768
  14 H :    0.030514
  15 H :    0.022839
  16 S :    0.357352
  17 C :   -0.148506
  18 C :   -0.072821
  19 C :   -0.057023
  20 C :   -0.182530
  21 H :    0.041095
  22 C :   -0.038545
  23 H :    0.016972
  24 H :    0.028514
  25 C :   -0.037926
  26 H :    0.028928
  27 H :    0.017624
  28 C :   -0.085072
  29 H :    0.035185
  30 H :    0.020555
  31 H :    0.023401
  32 H :    0.037662
  33 H :    0.017863

  Mayer bond orders larger than 0.100000
B(  0-S ,  1-C ) :   1.1515 B(  0-S ,  4-C ) :   1.1683 B(  1-C ,  2-C ) :   1.5800
B(  1-C ,  4-C ) :   0.1049 B(  1-C , 32-H ) :   0.9572 B(  2-C ,  3-C ) :   1.2553
B(  2-C ,  6-C ) :   1.0128 B(  3-C ,  4-C ) :   1.5535 B(  3-C ,  5-H ) :   0.9791
B(  4-C , 20-C ) :   1.0282 B(  6-C ,  7-H ) :   0.9366 B(  6-C ,  8-H ) :   0.9436
B(  6-C ,  9-C ) :   1.0729 B(  9-C , 10-H ) :   0.9595 B(  9-C , 11-H ) :   0.9546
B(  9-C , 12-C ) :   1.0754 B( 12-C , 13-H ) :   0.9765 B( 12-C , 14-H ) :   0.9670
B( 12-C , 15-H ) :   0.9767 B( 16-S , 17-C ) :   1.1368 B( 16-S , 20-C ) :   1.1006
B( 17-C , 18-C ) :   1.6463 B( 17-C , 33-H ) :   0.9683 B( 18-C , 19-C ) :   1.2155
B( 18-C , 21-H ) :   0.9808 B( 19-C , 20-C ) :   1.6309 B( 19-C , 22-C ) :   1.0481
B( 22-C , 23-H ) :   0.9439 B( 22-C , 24-H ) :   0.9321 B( 22-C , 25-C ) :   1.0398
B( 25-C , 26-H ) :   0.9617 B( 25-C , 27-H ) :   0.9553 B( 25-C , 28-C ) :   1.0679
B( 28-C , 29-H ) :   0.9728 B( 28-C , 30-H ) :   0.9725 B( 28-C , 31-H ) :   0.9774

Dispersion correction           -0.014969082
FINAL SINGLE POINT ENERGY     -1339.864341462632

DIPOLE MOMENT
-------------
                                X             Y             Z
Electronic contribution:     -8.30612      -5.82089       0.11473
Nuclear contribution   :      8.25409       6.00549      -0.03741
                        -----------------------------------------
Total Dipole Moment    :     -0.05203       0.18461       0.07732
                        -----------------------------------------
Magnitude (a.u.)       :      0.20680
Magnitude (Debye)      :      0.52564

Rotational constants in cm-1:     0.025154     0.007783     0.006383
Rotational constants in MHz :   754.088991   233.318806   191.368916

                             ****ORCA TERMINATED NORMALLY****
TOTAL RUN TIME: 0 days 0 hours 0 minutes 21 seconds 603 msec
