                         Program Version 4.2.1 -  RELEASE  -
|  1> ! wB97X-D3 SP def2-SVP
|  2> %pal
|  3> nprocs 24
|  4> end
|  5>
|  6> * xyz 0 1
|  7> S 	 -128.626 	 66.8883 	 -58.6753
|  8> C 	 -128.407 	 68.5335 	 -58.114
|  9> C 	 -128.951 	 69.4477 	 -59.0355
| 10> C 	 -129.338 	 68.7501 	 -60.2522
| 11> C 	 -129.165 	 67.3953 	 -60.2409
| 12> H 	 -129.885 	 69.1982 	 -61.1075
| 13> C 	 -129.122 	 70.9656 	 -58.866
| 14> H 	 -129.662 	 71.1638 	 -57.8838
| 15> H 	 -129.816 	 71.1843 	 -59.6812
| 16> C 	 -127.869 	 71.7983 	 -59.049
| 17> H 	 -127.245 	 71.5329 	 -58.2331
| 18> H 	 -127.449 	 71.443 	 -60.0268
| 19> C 	 -128.036 	 73.297 	 -59.3272
| 20> H 	 -129.076 	 73.5157 	 -59.6645
| 21> H 	 -127.939 	 73.8641 	 -58.4901
| 22> H 	 -127.244 	 73.5704 	 -60.0389
| 23> S 	 -130.29 	 64.9842 	 -60.9517
| 24> C 	 -130.357 	 64.5057 	 -62.6647
| 25> C 	 -129.985 	 65.5624 	 -63.4105
| 26> C 	 -129.592 	 66.7532 	 -62.6823
| 27> C 	 -129.584 	 66.5686 	 -61.3257
| 28> H 	 -129.955 	 65.367 	 -64.447
| 29> C 	 -129.155 	 67.9634 	 -63.4344
| 30> H 	 -128.517 	 68.5752 	 -62.8041
| 31> H 	 -129.993 	 68.5928 	 -63.5251
| 32> C 	 -128.41 	 67.7818 	 -64.7635
| 33> H 	 -128.273 	 68.7403 	 -65.2473
| 34> H 	 -128.996 	 67.2933 	 -65.6045
| 35> C 	 -127.008 	 67.2286 	 -64.7525
| 36> H 	 -126.644 	 66.9377 	 -63.7759
| 37> H 	 -126.329 	 67.8908 	 -65.1922
| 38> H 	 -126.869 	 66.3204 	 -65.3987
| 39> H 	 -128.002 	 68.7694 	 -57.1898
| 40> H 	 -130.654 	 63.502 	 -62.9853
| 41> *
| 42>
| 43>                          ****END OF INPUT****

CARTESIAN COORDINATES (ANGSTROEM)
---------------------------------
  S    -128.626000   66.888300  -58.675300
  C    -128.407000   68.533500  -58.114000
  C    -128.951000   69.447700  -59.035500
  C    -129.338000   68.750100  -60.252200
  C    -129.165000   67.395300  -60.240900
  H    -129.885000   69.198200  -61.107500
  C    -129.122000   70.965600  -58.866000
  H    -129.662000   71.163800  -57.883800
  H    -129.816000   71.184300  -59.681200
  C    -127.869000   71.798300  -59.049000
  H    -127.245000   71.532900  -58.233100
  H    -127.449000   71.443000  -60.026800
  C    -128.036000   73.297000  -59.327200
  H    -129.076000   73.515700  -59.664500
  H    -127.939000   73.864100  -58.490100
  H    -127.244000   73.570400  -60.038900
  S    -130.290000   64.984200  -60.951700
  C    -130.357000   64.505700  -62.664700
  C    -129.985000   65.562400  -63.410500
  C    -129.592000   66.753200  -62.682300
  C    -129.584000   66.568600  -61.325700
  H    -129.955000   65.367000  -64.447000
  C    -129.155000   67.963400  -63.434400
  H    -128.517000   68.575200  -62.804100
  H    -129.993000   68.592800  -63.525100
  C    -128.410000   67.781800  -64.763500
  H    -128.273000   68.740300  -65.247300
  H    -128.996000   67.293300  -65.604500
  C    -127.008000   67.228600  -64.752500
  H    -126.644000   66.937700  -63.775900
  H    -126.329000   67.890800  -65.192200
  H    -126.869000   66.320400  -65.398700
  H    -128.002000   68.769400  -57.189800
  H    -130.654000   63.502000  -62.985300

 Total Charge           Charge          ....    0
 Multiplicity           Mult            ....    1
 Number of Electrons    NEL             ....  134
 Basis Dimension        Dim             ....  322

ORBITAL ENERGIES
----------------

  NO   OCC          E(Eh)            E(eV)
   0   2.0000     -88.968926     -2420.9676
   1   2.0000     -88.956275     -2420.6233
   2   2.0000     -10.326992      -281.0117
   3   2.0000     -10.326594      -281.0009
   4   2.0000     -10.316491      -280.7260
   5   2.0000     -10.315136      -280.6891
   6   2.0000     -10.309068      -280.5240
   7   2.0000     -10.303028      -280.3596
   8   2.0000     -10.297850      -280.2187
   9   2.0000     -10.296201      -280.1739
  10   2.0000     -10.288868      -279.9743
  11   2.0000     -10.288323      -279.9595
  12   2.0000     -10.288258      -279.9577
  13   2.0000     -10.285766      -279.8899
  14   2.0000     -10.276312      -279.6327
  15   2.0000     -10.270319      -279.4696
  16   2.0000      -8.083647      -219.9672
  17   2.0000      -8.070877      -219.6197
  18   2.0000      -6.042257      -164.4182
  19   2.0000      -6.038120      -164.3056
  20   2.0000      -6.034331      -164.2025
  21   2.0000      -6.029620      -164.0743
  22   2.0000      -6.025447      -163.9607
  23   2.0000      -6.021367      -163.8497
  24   2.0000      -1.009283       -27.4640
  25   2.0000      -0.983031       -26.7496
  26   2.0000      -0.913885       -24.8681
  27   2.0000      -0.910386       -24.7729
  28   2.0000      -0.877910       -23.8891
  29   2.0000      -0.853786       -23.2327
  30   2.0000      -0.843911       -22.9640
  31   2.0000      -0.818726       -22.2787
  32   2.0000      -0.785847       -21.3840
  33   2.0000      -0.778810       -21.1925
  34   2.0000      -0.710603       -19.3365
  35   2.0000      -0.704484       -19.1700
  36   2.0000      -0.696464       -18.9518
  37   2.0000      -0.659292       -17.9403
  38   2.0000      -0.642012       -17.4700
  39   2.0000      -0.618325       -16.8255
  40   2.0000      -0.598584       -16.2883
  41   2.0000      -0.573920       -15.6171
  42   2.0000      -0.567007       -15.4290
  43   2.0000      -0.563197       -15.3254
  44   2.0000      -0.535869       -14.5818
  45   2.0000      -0.530065       -14.4238
  46   2.0000      -0.522524       -14.2186
  47   2.0000      -0.514063       -13.9884
  48   2.0000      -0.506428       -13.7806
  49   2.0000      -0.505272       -13.7492
  50   2.0000      -0.495291       -13.4776
  51   2.0000      -0.477656       -12.9977
  52   2.0000      -0.471069       -12.8184
  53   2.0000      -0.469104       -12.7650
  54   2.0000      -0.458509       -12.4767
  55   2.0000      -0.450757       -12.2657
  56   2.0000      -0.444773       -12.1029
  57   2.0000      -0.436768       -11.8851
  58   2.0000      -0.433776       -11.8037
  59   2.0000      -0.423796       -11.5321
  60   2.0000      -0.415274       -11.3002
  61   2.0000      -0.412441       -11.2231
  62   2.0000      -0.399012       -10.8577
  63   2.0000      -0.361221        -9.8293
  64   2.0000      -0.330253        -8.9867
  65   2.0000      -0.325421        -8.8551
  66   2.0000      -0.288616        -7.8536
  67   0.0000       0.023870         0.6495
  68   0.0000       0.078969         2.1488
  69   0.0000       0.109580         2.9818
  70   0.0000       0.128420         3.4945
  71   0.0000       0.131190         3.5699

MULLIKEN ATOMIC CHARGES
-----------------------
   0 S :    0.120140
   1 C :   -0.100816
   2 C :   -0.083601
   3 C :   -0.046589
   4 C :   -0.103952
   5 H :    0.031308
   6 C :    0.052271
   7 H :    0.047206
   8 H :    0.011158
   9 C :   -0.081611
  10 H :    0.026338
  11 H :    0.031582
  12 C :   -0.004406
  13 H :    0.029994
  14 H :    0.010305
  15 H :    0.043577
  16 S :    0.064160
  17 C :   -0.098065
  18 C :   -0.011761
  19 C :   -0.040418
  20 C :   -0.137672
  21 H :    0.004226
  22 C :    0.090903
  23 H :    0.020653
  24 H :    0.028301
  25 C :   -0.090454
  26 H :    0.016267
  27 H :    0.031295
  28 C :   -0.027125
  29 H :    0.036002
  30 H :    0.016358
  31 H :    0.025856
  32 H :    0.023413
  33 H :    0.065157
Sum of atomic charges:    0.0000000

LOEWDIN ATOMIC CHARGES
----------------------
   0 S :    0.417439
   1 C :   -0.183784
   2 C :   -0.055355
   3 C :   -0.071638
   4 C :   -0.202680
   5 H :    0.036167
   6 C :   -0.038155
   7 H :    0.035966
   8 H :    0.026759
   9 C :   -0.043388
  10 H :    0.018917
  11 H :    0.032424
  12 C :   -0.058531
  13 H :    0.032616
  14 H :    0.009939
  15 H :    0.034367
  16 S :    0.359522
  17 C :   -0.167827
  18 C :   -0.067889
  19 C :   -0.057966
  20 C :   -0.177078
  21 H :    0.026864
  22 C :   -0.032688
  23 H :    0.032360
  24 H :    0.030434
  25 C :   -0.052878
  26 H :    0.027665
  27 H :    0.028537
  28 C :   -0.067193
  29 H :    0.027501
  30 H :    0.018676
  31 H :    0.032268
  32 H :    0.013329
  33 H :    0.035303

  Mayer bond orders larger than 0.100000
B(  0-S ,  1-C ) :   1.1435 B(  0-S ,  4-C ) :   1.1395 B(  1-C ,  2-C ) :   1.5810
B(  1-C , 32-H ) :   0.9852 B(  2-C ,  3-C ) :   1.2513 B(  2-C ,  6-C ) :   1.0173
B(  3-C ,  4-C ) :   1.5542 B(  3-C ,  5-H ) :   0.9819 B(  4-C , 20-C ) :   1.0960
B(  6-C ,  7-H ) :   0.9389 B(  6-C ,  8-H ) :   0.9335 B(  6-C ,  9-C ) :   1.0736
B(  9-C , 10-H ) :   0.9588 B(  9-C , 11-H ) :   0.9617 B(  9-C , 12-C ) :   1.0666
B( 12-C , 13-H ) :   0.9727 B( 12-C , 14-H ) :   0.9734 B( 12-C , 15-H ) :   0.9811
B( 16-S , 17-C ) :   1.1214 B( 16-S , 20-C ) :   1.1095 B( 17-C , 18-C ) :   1.6479
B( 17-C , 33-H ) :   0.9676 B( 18-C , 19-C ) :   1.1907 B( 18-C , 21-H ) :   0.9998
B( 19-C , 20-C ) :   1.6223 B( 19-C , 22-C ) :   1.0478 B( 22-C , 23-H ) :   0.9268
B( 22-C , 24-H ) :   0.9143 B( 22-C , 25-C ) :   1.0843 B( 25-C , 26-H ) :   0.9550
B( 25-C , 27-H ) :   0.9514 B( 25-C , 28-C ) :   1.0645 B( 28-C , 29-H ) :   0.9787
B( 28-C , 30-H ) :   0.9798 B( 28-C , 31-H ) :   0.9738

Dispersion correction           -0.013669931
FINAL SINGLE POINT ENERGY     -1339.861185711535

DIPOLE MOMENT
-------------
                                X             Y             Z
Electronic contribution:     -9.30167     -25.07085      13.18151
Nuclear contribution   :      9.40331      25.76034     -13.59172
                        -----------------------------------------
Total Dipole Moment    :      0.10164       0.68949      -0.41021
                        -----------------------------------------
Magnitude (a.u.)       :      0.80870
Magnitude (Debye)      :      2.05555

Rotational constants in cm-1:     0.018518     0.008339     0.006270
Rotational constants in MHz :   555.145262   250.010979   187.975444

                             ****ORCA TERMINATED NORMALLY****
TOTAL RUN TIME: 0 days 0 hours 0 minutes 20 seconds 269 msec
