                         Program Version 4.2.1 -  RELEASE  -
|  1> ! wB97X-D3 SP def2-SVP
|  2> %pal
|  3> nprocs 24
|  4> end
|  5>
|  6> * xyz 0 1
|  7> S 	 -109.139 	 53.6724 	 -85.567
|  8> C 	 -108.469 	 52.2177 	 -84.9705
|  9> C 	 -108.45 	 51.2233 	 -85.9203
| 10> C 	 -108.924 	 51.7388 	 -87.1809
| 11> C 	 -109.242 	 53.1165 	 -87.2082
| 12> H 	 -109.223 	 51.1502 	 -88.0144
| 13> C 	 -107.962 	 49.779 	 -85.8681
| 14> H 	 -108.629 	 49.1287 	 -86.4832
| 15> H 	 -108.068 	 49.4157 	 -84.8134
| 16> C 	 -106.555 	 49.5882 	 -86.3661
| 17> H 	 -106.526 	 48.54 	 -86.6293
| 18> H 	 -106.458 	 50.1476 	 -87.3226
| 19> C 	 -105.464 	 50.0137 	 -85.3077
| 20> H 	 -105.659 	 49.351 	 -84.4469
| 21> H 	 -104.396 	 49.8864 	 -85.6849
| 22> H 	 -105.53 	 51.0376 	 -84.8219
| 23> S 	 -111.633 	 53.4704 	 -88.7665
| 24> C 	 -111.672 	 54.7671 	 -89.9151
| 25> C 	 -110.606 	 55.6531 	 -89.7365
| 26> C 	 -109.689 	 55.2073 	 -88.7463
| 27> C 	 -109.985 	 53.8954 	 -88.2275
| 28> H 	 -110.501 	 56.5566 	 -90.39
| 29> C 	 -108.528 	 56.0556 	 -88.3854
| 30> H 	 -107.987 	 55.8013 	 -87.4617
| 31> H 	 -108.926 	 57.0934 	 -88.2233
| 32> C 	 -107.515 	 55.9599 	 -89.5808
| 33> H 	 -107.807 	 56.7074 	 -90.356
| 34> H 	 -107.54 	 54.9527 	 -90.0139
| 35> C 	 -106.036 	 56.117 	 -89.214
| 36> H 	 -105.802 	 57.2142 	 -89.0204
| 37> H 	 -105.306 	 55.8024 	 -89.9877
| 38> H 	 -105.868 	 55.7075 	 -88.2177
| 39> H 	 -108.09 	 51.9294 	 -84.0067
| 40> H 	 -112.442 	 54.8468 	 -90.6957
| 41> *
| 42>
| 43>                          ****END OF INPUT****

CARTESIAN COORDINATES (ANGSTROEM)
---------------------------------
  S    -109.139000   53.672400  -85.567000
  C    -108.469000   52.217700  -84.970500
  C    -108.450000   51.223300  -85.920300
  C    -108.924000   51.738800  -87.180900
  C    -109.242000   53.116500  -87.208200
  H    -109.223000   51.150200  -88.014400
  C    -107.962000   49.779000  -85.868100
  H    -108.629000   49.128700  -86.483200
  H    -108.068000   49.415700  -84.813400
  C    -106.555000   49.588200  -86.366100
  H    -106.526000   48.540000  -86.629300
  H    -106.458000   50.147600  -87.322600
  C    -105.464000   50.013700  -85.307700
  H    -105.659000   49.351000  -84.446900
  H    -104.396000   49.886400  -85.684900
  H    -105.530000   51.037600  -84.821900
  S    -111.633000   53.470400  -88.766500
  C    -111.672000   54.767100  -89.915100
  C    -110.606000   55.653100  -89.736500
  C    -109.689000   55.207300  -88.746300
  C    -109.985000   53.895400  -88.227500
  H    -110.501000   56.556600  -90.390000
  C    -108.528000   56.055600  -88.385400
  H    -107.987000   55.801300  -87.461700
  H    -108.926000   57.093400  -88.223300
  C    -107.515000   55.959900  -89.580800
  H    -107.807000   56.707400  -90.356000
  H    -107.540000   54.952700  -90.013900
  C    -106.036000   56.117000  -89.214000
  H    -105.802000   57.214200  -89.020400
  H    -105.306000   55.802400  -89.987700
  H    -105.868000   55.707500  -88.217700
  H    -108.090000   51.929400  -84.006700
  H    -112.442000   54.846800  -90.695700

 Total Charge           Charge          ....    0
 Multiplicity           Mult            ....    1
 Number of Electrons    NEL             ....  134
 Basis Dimension        Dim             ....  322

ORBITAL ENERGIES
----------------

  NO   OCC          E(Eh)            E(eV)
   0   2.0000     -88.967234     -2420.9215
   1   2.0000     -88.966851     -2420.9111
   2   2.0000     -10.333141      -281.1791
   3   2.0000     -10.331134      -281.1244
   4   2.0000     -10.322425      -280.8875
   5   2.0000     -10.312404      -280.6148
   6   2.0000     -10.308433      -280.5067
   7   2.0000     -10.299629      -280.2671
   8   2.0000     -10.298901      -280.2473
   9   2.0000     -10.298523      -280.2371
  10   2.0000     -10.294224      -280.1201
  11   2.0000     -10.293566      -280.1022
  12   2.0000     -10.292394      -280.0703
  13   2.0000     -10.291217      -280.0383
  14   2.0000     -10.287625      -279.9405
  15   2.0000     -10.279774      -279.7269
  16   2.0000      -8.081948      -219.9210
  17   2.0000      -8.081360      -219.9050
  18   2.0000      -6.040476      -164.3697
  19   2.0000      -6.039834      -164.3523
  20   2.0000      -6.036268      -164.2552
  21   2.0000      -6.035888      -164.2449
  22   2.0000      -6.032774      -164.1601
  23   2.0000      -6.032268      -164.1464
  24   2.0000      -1.003959       -27.3191
  25   2.0000      -0.983835       -26.7715
  26   2.0000      -0.912808       -24.8388
  27   2.0000      -0.906792       -24.6751
  28   2.0000      -0.863965       -23.5097
  29   2.0000      -0.846937       -23.0463
  30   2.0000      -0.840654       -22.8753
  31   2.0000      -0.808022       -21.9874
  32   2.0000      -0.780093       -21.2274
  33   2.0000      -0.768588       -20.9143
  34   2.0000      -0.703746       -19.1499
  35   2.0000      -0.695205       -18.9175
  36   2.0000      -0.689520       -18.7628
  37   2.0000      -0.655245       -17.8301
  38   2.0000      -0.636876       -17.3303
  39   2.0000      -0.616680       -16.7807
  40   2.0000      -0.597218       -16.2511
  41   2.0000      -0.574014       -15.6197
  42   2.0000      -0.558138       -15.1877
  43   2.0000      -0.544750       -14.8234
  44   2.0000      -0.537123       -14.6159
  45   2.0000      -0.524395       -14.2695
  46   2.0000      -0.517023       -14.0689
  47   2.0000      -0.508577       -13.8391
  48   2.0000      -0.502247       -13.6668
  49   2.0000      -0.492124       -13.3914
  50   2.0000      -0.486924       -13.2499
  51   2.0000      -0.479760       -13.0549
  52   2.0000      -0.467946       -12.7335
  53   2.0000      -0.462390       -12.5823
  54   2.0000      -0.453263       -12.3339
  55   2.0000      -0.444506       -12.0956
  56   2.0000      -0.441505       -12.0140
  57   2.0000      -0.438327       -11.9275
  58   2.0000      -0.429451       -11.6860
  59   2.0000      -0.426886       -11.6162
  60   2.0000      -0.421039       -11.4570
  61   2.0000      -0.414509       -11.2794
  62   2.0000      -0.407929       -11.1003
  63   2.0000      -0.335518        -9.1299
  64   2.0000      -0.327891        -8.9224
  65   2.0000      -0.325579        -8.8594
  66   2.0000      -0.297794        -8.1034
  67   0.0000       0.027664         0.7528
  68   0.0000       0.063011         1.7146
  69   0.0000       0.102845         2.7986
  70   0.0000       0.118393         3.2216
  71   0.0000       0.135717         3.6930

MULLIKEN ATOMIC CHARGES
-----------------------
   0 S :    0.127470
   1 C :   -0.084227
   2 C :   -0.111686
   3 C :    0.014679
   4 C :   -0.155294
   5 H :    0.004660
   6 C :    0.025002
   7 H :    0.035720
   8 H :    0.024059
   9 C :   -0.036252
  10 H :    0.030604
  11 H :    0.036955
  12 C :   -0.098263
  13 H :    0.026482
  14 H :    0.055420
  15 H :    0.048307
  16 S :    0.116976
  17 C :   -0.109075
  18 C :   -0.043057
  19 C :   -0.047419
  20 C :   -0.150090
  21 H :    0.042532
  22 C :    0.056391
  23 H :    0.022702
  24 H :    0.046396
  25 C :   -0.099430
  26 H :    0.040043
  27 H :    0.048997
  28 C :   -0.071999
  29 H :    0.020789
  30 H :    0.050972
  31 H :    0.032498
  32 H :    0.029885
  33 H :    0.069254
Sum of atomic charges:    0.0000000

LOEWDIN ATOMIC CHARGES
----------------------
   0 S :    0.438890
   1 C :   -0.209980
   2 C :   -0.068241
   3 C :   -0.055370
   4 C :   -0.210251
   5 H :    0.023343
   6 C :   -0.035789
   7 H :    0.036759
   8 H :    0.029168
   9 C :   -0.040864
  10 H :    0.025461
  11 H :    0.028240
  12 C :   -0.081085
  13 H :    0.023962
  14 H :    0.034816
  15 H :    0.032734
  16 S :    0.405335
  17 C :   -0.188475
  18 C :   -0.080491
  19 C :   -0.044960
  20 C :   -0.212253
  21 H :    0.041969
  22 C :   -0.037434
  23 H :    0.024502
  24 H :    0.040386
  25 C :   -0.043314
  26 H :    0.026148
  27 H :    0.030214
  28 C :   -0.077777
  29 H :    0.025840
  30 H :    0.031232
  31 H :    0.024417
  32 H :    0.028852
  33 H :    0.034014

  Mayer bond orders larger than 0.100000
B(  0-S ,  1-C ) :   1.1589 B(  0-S ,  4-C ) :   1.1556 B(  1-C ,  2-C ) :   1.6005
B(  1-C , 32-H ) :   0.9614 B(  2-C ,  3-C ) :   1.2615 B(  2-C ,  6-C ) :   1.0279
B(  3-C ,  4-C ) :   1.5507 B(  3-C ,  5-H ) :   0.9989 B(  4-C , 20-C ) :   1.0548
B(  6-C ,  7-H ) :   0.9404 B(  6-C ,  8-H ) :   0.9404 B(  6-C ,  9-C ) :   1.0723
B(  9-C , 10-H ) :   0.9560 B(  9-C , 11-H ) :   0.9541 B(  9-C , 12-C ) :   1.0539
B( 12-C , 13-H ) :   0.9747 B( 12-C , 14-H ) :   0.9761 B( 12-C , 15-H ) :   0.9770
B( 16-S , 17-C ) :   1.1827 B( 16-S , 20-C ) :   1.1297 B( 17-C , 18-C ) :   1.5709
B( 17-C , 20-C ) :   0.1050 B( 17-C , 33-H ) :   0.9646 B( 18-C , 19-C ) :   1.2674
B( 18-C , 21-H ) :   0.9844 B( 19-C , 20-C ) :   1.5302 B( 19-C , 22-C ) :   1.0676
B( 22-C , 23-H ) :   0.9382 B( 22-C , 24-H ) :   0.9343 B( 22-C , 25-C ) :   1.0321
B( 25-C , 26-H ) :   0.9540 B( 25-C , 27-H ) :   0.9645 B( 25-C , 28-C ) :   1.0842
B( 28-C , 29-H ) :   0.9716 B( 28-C , 30-H ) :   0.9766 B( 28-C , 31-H ) :   0.9744

Dispersion correction           -0.014279004
FINAL SINGLE POINT ENERGY     -1339.871146262927

DIPOLE MOMENT
-------------
                                X             Y             Z
Electronic contribution:    -23.94338       3.95224       1.36146
Nuclear contribution   :     24.19304      -4.08091      -1.52542
                        -----------------------------------------
Total Dipole Moment    :      0.24966      -0.12867      -0.16397
                        -----------------------------------------
Magnitude (a.u.)       :      0.32522
Magnitude (Debye)      :      0.82665

Rotational constants in cm-1:     0.019235     0.008204     0.006806
Rotational constants in MHz :   576.663688   245.935315   204.048041

                             ****ORCA TERMINATED NORMALLY****
TOTAL RUN TIME: 0 days 0 hours 0 minutes 21 seconds 243 msec
