                         Program Version 4.2.1 -  RELEASE  -
|  1> ! wB97X-D3 SP def2-SVP
|  2> %pal
|  3> nprocs 24
|  4> end
|  5>
|  6> * xyz 0 1
|  7> S 	 -83.5658 	 -10.4185 	 -61.7355
|  8> C 	 -83.5716 	 -8.68158 	 -62.2518
|  9> C 	 -84.0331 	 -7.93315 	 -61.1415
| 10> C 	 -84.2423 	 -8.64657 	 -59.9389
| 11> C 	 -84.117 	 -9.98057 	 -60.1599
| 12> H 	 -84.543 	 -8.30483 	 -58.9771
| 13> C 	 -84.2127 	 -6.39938 	 -61.1897
| 14> H 	 -85.2366 	 -6.13249 	 -61.5621
| 15> H 	 -83.5549 	 -5.93754 	 -61.8912
| 16> C 	 -83.943 	 -5.68718 	 -59.842
| 17> H 	 -84.2524 	 -4.60002 	 -59.7781
| 18> H 	 -84.5226 	 -6.15714 	 -59.0236
| 19> C 	 -82.4234 	 -5.66105 	 -59.5799
| 20> H 	 -81.9607 	 -6.61439 	 -59.5207
| 21> H 	 -81.8012 	 -5.03935 	 -60.2457
| 22> H 	 -82.2283 	 -5.33027 	 -58.6164
| 23> S 	 -83.0207 	 -11.6719 	 -58.3385
| 24> C 	 -84.0351 	 -12.6015 	 -57.2397
| 25> C 	 -85.3821 	 -12.2556 	 -57.4585
| 26> C 	 -85.6004 	 -11.4469 	 -58.663
| 27> C 	 -84.4007 	 -11.0019 	 -59.2096
| 28> H 	 -86.1306 	 -12.7827 	 -56.851
| 29> C 	 -86.977 	 -11.1236 	 -59.1423
| 30> H 	 -86.9326 	 -11.1816 	 -60.2297
| 31> H 	 -87.218 	 -10.0569 	 -58.9505
| 32> C 	 -88.2007 	 -11.934 	 -58.6508
| 33> H 	 -88.8612 	 -11.2233 	 -58.1704
| 34> H 	 -87.9907 	 -12.6822 	 -57.8399
| 35> C 	 -88.9362 	 -12.8015 	 -59.7235
| 36> H 	 -89.3272 	 -12.1876 	 -60.5041
| 37> H 	 -89.7934 	 -13.3509 	 -59.3133
| 38> H 	 -88.2888 	 -13.5584 	 -60.2016
| 39> H 	 -83.2958 	 -8.32212 	 -63.286
| 40> H 	 -83.7649 	 -13.1906 	 -56.3364
| 41> *
| 42>
| 43>                          ****END OF INPUT****

CARTESIAN COORDINATES (ANGSTROEM)
---------------------------------
  S    -83.565800  -10.418500  -61.735500
  C    -83.571600   -8.681580  -62.251800
  C    -84.033100   -7.933150  -61.141500
  C    -84.242300   -8.646570  -59.938900
  C    -84.117000   -9.980570  -60.159900
  H    -84.543000   -8.304830  -58.977100
  C    -84.212700   -6.399380  -61.189700
  H    -85.236600   -6.132490  -61.562100
  H    -83.554900   -5.937540  -61.891200
  C    -83.943000   -5.687180  -59.842000
  H    -84.252400   -4.600020  -59.778100
  H    -84.522600   -6.157140  -59.023600
  C    -82.423400   -5.661050  -59.579900
  H    -81.960700   -6.614390  -59.520700
  H    -81.801200   -5.039350  -60.245700
  H    -82.228300   -5.330270  -58.616400
  S    -83.020700  -11.671900  -58.338500
  C    -84.035100  -12.601500  -57.239700
  C    -85.382100  -12.255600  -57.458500
  C    -85.600400  -11.446900  -58.663000
  C    -84.400700  -11.001900  -59.209600
  H    -86.130600  -12.782700  -56.851000
  C    -86.977000  -11.123600  -59.142300
  H    -86.932600  -11.181600  -60.229700
  H    -87.218000  -10.056900  -58.950500
  C    -88.200700  -11.934000  -58.650800
  H    -88.861200  -11.223300  -58.170400
  H    -87.990700  -12.682200  -57.839900
  C    -88.936200  -12.801500  -59.723500
  H    -89.327200  -12.187600  -60.504100
  H    -89.793400  -13.350900  -59.313300
  H    -88.288800  -13.558400  -60.201600
  H    -83.295800   -8.322120  -63.286000
  H    -83.764900  -13.190600  -56.336400

 Total Charge           Charge          ....    0
 Multiplicity           Mult            ....    1
 Number of Electrons    NEL             ....  134
 Basis Dimension        Dim             ....  322

ORBITAL ENERGIES
----------------

  NO   OCC          E(Eh)            E(eV)
   0   2.0000     -88.966726     -2420.9077
   1   2.0000     -88.963677     -2420.8247
   2   2.0000     -10.326769      -281.0057
   3   2.0000     -10.323324      -280.9119
   4   2.0000     -10.322634      -280.8932
   5   2.0000     -10.321552      -280.8637
   6   2.0000     -10.309533      -280.5366
   7   2.0000     -10.308640      -280.5124
   8   2.0000     -10.297696      -280.2145
   9   2.0000     -10.294760      -280.1347
  10   2.0000     -10.293286      -280.0945
  11   2.0000     -10.293013      -280.0871
  12   2.0000     -10.292386      -280.0701
  13   2.0000     -10.291510      -280.0462
  14   2.0000     -10.279296      -279.7139
  15   2.0000     -10.266437      -279.3639
  16   2.0000      -8.080936      -219.8934
  17   2.0000      -8.077938      -219.8119
  18   2.0000      -6.039408      -164.3407
  19   2.0000      -6.036583      -164.2638
  20   2.0000      -6.035431      -164.2324
  21   2.0000      -6.032335      -164.1482
  22   2.0000      -6.031842      -164.1348
  23   2.0000      -6.028745      -164.0505
  24   2.0000      -1.006793       -27.3962
  25   2.0000      -0.976705       -26.5775
  26   2.0000      -0.907735       -24.7007
  27   2.0000      -0.903753       -24.5924
  28   2.0000      -0.867524       -23.6065
  29   2.0000      -0.846505       -23.0346
  30   2.0000      -0.842702       -22.9311
  31   2.0000      -0.813026       -22.1236
  32   2.0000      -0.782974       -21.3058
  33   2.0000      -0.770542       -20.9675
  34   2.0000      -0.711711       -19.3667
  35   2.0000      -0.700863       -19.0714
  36   2.0000      -0.690051       -18.7773
  37   2.0000      -0.648226       -17.6391
  38   2.0000      -0.643783       -17.5182
  39   2.0000      -0.624943       -17.0056
  40   2.0000      -0.595964       -16.2170
  41   2.0000      -0.559989       -15.2381
  42   2.0000      -0.554428       -15.0868
  43   2.0000      -0.550286       -14.9740
  44   2.0000      -0.532292       -14.4844
  45   2.0000      -0.523800       -14.2533
  46   2.0000      -0.521307       -14.1855
  47   2.0000      -0.516876       -14.0649
  48   2.0000      -0.504615       -13.7313
  49   2.0000      -0.495311       -13.4781
  50   2.0000      -0.488019       -13.2797
  51   2.0000      -0.478196       -13.0124
  52   2.0000      -0.466691       -12.6993
  53   2.0000      -0.462229       -12.5779
  54   2.0000      -0.456625       -12.4254
  55   2.0000      -0.445386       -12.1196
  56   2.0000      -0.441452       -12.0125
  57   2.0000      -0.436671       -11.8824
  58   2.0000      -0.434504       -11.8234
  59   2.0000      -0.425530       -11.5793
  60   2.0000      -0.421865       -11.4795
  61   2.0000      -0.411779       -11.2051
  62   2.0000      -0.409362       -11.1393
  63   2.0000      -0.337766        -9.1911
  64   2.0000      -0.326689        -8.8897
  65   2.0000      -0.319070        -8.6823
  66   2.0000      -0.306077        -8.3288
  67   0.0000       0.037731         1.0267
  68   0.0000       0.052758         1.4356
  69   0.0000       0.116019         3.1570
  70   0.0000       0.122883         3.3438
  71   0.0000       0.127668         3.4740

MULLIKEN ATOMIC CHARGES
-----------------------
   0 S :    0.112387
   1 C :   -0.153302
   2 C :   -0.075198
   3 C :    0.066654
   4 C :   -0.180839
   5 H :    0.004312
   6 C :    0.085481
   7 H :    0.044857
   8 H :    0.012411
   9 C :   -0.120986
  10 H :    0.039208
  11 H :    0.036161
  12 C :   -0.022730
  13 H :    0.023567
  14 H :    0.033624
  15 H :    0.004672
  16 S :    0.109550
  17 C :   -0.102286
  18 C :   -0.070099
  19 C :   -0.026772
  20 C :   -0.174189
  21 H :    0.032384
  22 C :    0.077929
  23 H :    0.033693
  24 H :    0.040706
  25 C :   -0.084692
  26 H :    0.027447
  27 H :    0.035680
  28 C :   -0.065758
  29 H :    0.027540
  30 H :    0.034077
  31 H :    0.043270
  32 H :    0.077295
  33 H :    0.073946
Sum of atomic charges:   -0.0000000

LOEWDIN ATOMIC CHARGES
----------------------
   0 S :    0.399995
   1 C :   -0.198253
   2 C :   -0.053099
   3 C :   -0.057942
   4 C :   -0.200688
   5 H :    0.032583
   6 C :   -0.032621
   7 H :    0.035669
   8 H :    0.023625
   9 C :   -0.046351
  10 H :    0.032942
  11 H :    0.022759
  12 C :   -0.066495
  13 H :    0.022431
  14 H :    0.028902
  15 H :    0.016849
  16 S :    0.400784
  17 C :   -0.195611
  18 C :   -0.079756
  19 C :   -0.049422
  20 C :   -0.209538
  21 H :    0.031031
  22 C :   -0.039741
  23 H :    0.037063
  24 H :    0.041356
  25 C :   -0.043609
  26 H :    0.024038
  27 H :    0.028130
  28 C :   -0.066449
  29 H :    0.017711
  30 H :    0.027881
  31 H :    0.029899
  32 H :    0.043565
  33 H :    0.042358

  Mayer bond orders larger than 0.100000
B(  0-S ,  1-C ) :   1.1199 B(  0-S ,  4-C ) :   1.1726 B(  1-C ,  2-C ) :   1.6017
B(  1-C ,  4-C ) :   0.1045 B(  1-C , 32-H ) :   0.9683 B(  2-C ,  3-C ) :   1.2235
B(  2-C ,  6-C ) :   1.0055 B(  3-C ,  4-C ) :   1.5843 B(  3-C ,  5-H ) :   0.9988
B(  4-C , 20-C ) :   1.0118 B(  6-C ,  7-H ) :   0.9369 B(  6-C ,  8-H ) :   0.9479
B(  6-C ,  9-C ) :   1.0716 B(  9-C , 10-H ) :   0.9559 B(  9-C , 11-H ) :   0.9510
B(  9-C , 12-C ) :   1.0765 B( 12-C , 13-H ) :   0.9729 B( 12-C , 14-H ) :   0.9745
B( 12-C , 15-H ) :   0.9687 B( 16-S , 17-C ) :   1.1522 B( 16-S , 20-C ) :   1.1399
B( 17-C , 18-C ) :   1.6316 B( 17-C , 33-H ) :   0.9586 B( 18-C , 19-C ) :   1.2292
B( 18-C , 21-H ) :   0.9740 B( 19-C , 20-C ) :   1.6012 B( 19-C , 22-C ) :   1.0488
B( 22-C , 23-H ) :   0.9364 B( 22-C , 24-H ) :   0.9283 B( 22-C , 25-C ) :   1.0372
B( 25-C , 26-H ) :   0.9586 B( 25-C , 27-H ) :   0.9627 B( 25-C , 28-C ) :   1.0828
B( 28-C , 29-H ) :   0.9775 B( 28-C , 30-H ) :   0.9749 B( 28-C , 31-H ) :   0.9767

Dispersion correction           -0.014113385
FINAL SINGLE POINT ENERGY     -1339.865598694733

DIPOLE MOMENT
-------------
                                X             Y             Z
Electronic contribution:     15.32098     -12.68107      -2.83683
Nuclear contribution   :    -15.83844      13.07862       3.04735
                        -----------------------------------------
Total Dipole Moment    :     -0.51746       0.39755       0.21052
                        -----------------------------------------
Magnitude (a.u.)       :      0.68566
Magnitude (Debye)      :      1.74282

Rotational constants in cm-1:     0.018640     0.007989     0.007229
Rotational constants in MHz :   558.807617   239.517403   216.718648

                             ****ORCA TERMINATED NORMALLY****
TOTAL RUN TIME: 0 days 0 hours 0 minutes 21 seconds 212 msec
