                         Program Version 4.2.1 -  RELEASE  -
|  1> ! wB97X-D3 SP def2-SVP
|  2> %pal
|  3> nprocs 24
|  4> end
|  5>
|  6> * xyz 0 1
|  7> S 	 -125.461 	 58.056 	 -53.8034
|  8> C 	 -125.959 	 58.6249 	 -55.3873
|  9> C 	 -125.744 	 59.9988 	 -55.5493
| 10> C 	 -125.294 	 60.597 	 -54.3112
| 11> C 	 -125.073 	 59.7049 	 -53.3093
| 12> H 	 -125.172 	 61.6686 	 -54.104
| 13> C 	 -126.101 	 60.8361 	 -56.7591
| 14> H 	 -125.722 	 60.331 	 -57.6308
| 15> H 	 -125.601 	 61.7539 	 -56.7625
| 16> C 	 -127.66 	 61.1082 	 -56.9789
| 17> H 	 -128.147 	 60.1256 	 -57.0081
| 18> H 	 -128.106 	 61.7463 	 -56.229
| 19> C 	 -128.048 	 61.7799 	 -58.3414
| 20> H 	 -129.106 	 61.9125 	 -58.5203
| 21> H 	 -127.529 	 62.7341 	 -58.3304
| 22> H 	 -127.647 	 61.1383 	 -59.1673
| 23> S 	 -125.839 	 60.9659 	 -51.1148
| 24> C 	 -124.803 	 61.1102 	 -49.7235
| 25> C 	 -123.569 	 60.5287 	 -49.9728
| 26> C 	 -123.509 	 59.7949 	 -51.1878
| 27> C 	 -124.643 	 59.9885 	 -51.9696
| 28> H 	 -122.76 	 60.5154 	 -49.2586
| 29> C 	 -122.249 	 59.1626 	 -51.7143
| 30> H 	 -122.417 	 58.2346 	 -52.2804
| 31> H 	 -121.552 	 58.8674 	 -50.8571
| 32> C 	 -121.352 	 60.2691 	 -52.3739
| 33> H 	 -121.142 	 61.0089 	 -51.6267
| 34> H 	 -121.905 	 60.7414 	 -53.1624
| 35> C 	 -119.932 	 59.856 	 -52.9657
| 36> H 	 -119.907 	 59.262 	 -53.8704
| 37> H 	 -119.399 	 59.2573 	 -52.2725
| 38> H 	 -119.34 	 60.7865 	 -53.1587
| 39> H 	 -126.393 	 58.0435 	 -56.1223
| 40> H 	 -124.95 	 61.6665 	 -48.8641
| 41> *
| 42>
| 43>                          ****END OF INPUT****

CARTESIAN COORDINATES (ANGSTROEM)
---------------------------------
  S    -125.461000   58.056000  -53.803400
  C    -125.959000   58.624900  -55.387300
  C    -125.744000   59.998800  -55.549300
  C    -125.294000   60.597000  -54.311200
  C    -125.073000   59.704900  -53.309300
  H    -125.172000   61.668600  -54.104000
  C    -126.101000   60.836100  -56.759100
  H    -125.722000   60.331000  -57.630800
  H    -125.601000   61.753900  -56.762500
  C    -127.660000   61.108200  -56.978900
  H    -128.147000   60.125600  -57.008100
  H    -128.106000   61.746300  -56.229000
  C    -128.048000   61.779900  -58.341400
  H    -129.106000   61.912500  -58.520300
  H    -127.529000   62.734100  -58.330400
  H    -127.647000   61.138300  -59.167300
  S    -125.839000   60.965900  -51.114800
  C    -124.803000   61.110200  -49.723500
  C    -123.569000   60.528700  -49.972800
  C    -123.509000   59.794900  -51.187800
  C    -124.643000   59.988500  -51.969600
  H    -122.760000   60.515400  -49.258600
  C    -122.249000   59.162600  -51.714300
  H    -122.417000   58.234600  -52.280400
  H    -121.552000   58.867400  -50.857100
  C    -121.352000   60.269100  -52.373900
  H    -121.142000   61.008900  -51.626700
  H    -121.905000   60.741400  -53.162400
  C    -119.932000   59.856000  -52.965700
  H    -119.907000   59.262000  -53.870400
  H    -119.399000   59.257300  -52.272500
  H    -119.340000   60.786500  -53.158700
  H    -126.393000   58.043500  -56.122300
  H    -124.950000   61.666500  -48.864100

 Total Charge           Charge          ....    0
 Multiplicity           Mult            ....    1
 Number of Electrons    NEL             ....  134
 Basis Dimension        Dim             ....  322

ORBITAL ENERGIES
----------------

  NO   OCC          E(Eh)            E(eV)
   0   2.0000     -88.967378     -2420.9254
   1   2.0000     -88.965670     -2420.8790
   2   2.0000     -10.326520      -280.9989
   3   2.0000     -10.324776      -280.9514
   4   2.0000     -10.312855      -280.6271
   5   2.0000     -10.312290      -280.6117
   6   2.0000     -10.306003      -280.4406
   7   2.0000     -10.303983      -280.3856
   8   2.0000     -10.298256      -280.2298
   9   2.0000     -10.295681      -280.1597
  10   2.0000     -10.293066      -280.0886
  11   2.0000     -10.292339      -280.0688
  12   2.0000     -10.291229      -280.0386
  13   2.0000     -10.286323      -279.9051
  14   2.0000     -10.281698      -279.7792
  15   2.0000     -10.277554      -279.6665
  16   2.0000      -8.081642      -219.9127
  17   2.0000      -8.080170      -219.8726
  18   2.0000      -6.040162      -164.3612
  19   2.0000      -6.038681      -164.3209
  20   2.0000      -6.036219      -164.2539
  21   2.0000      -6.034577      -164.2092
  22   2.0000      -6.032419      -164.1505
  23   2.0000      -6.031068      -164.1137
  24   2.0000      -1.007567       -27.4173
  25   2.0000      -0.982239       -26.7281
  26   2.0000      -0.904207       -24.6047
  27   2.0000      -0.901372       -24.5276
  28   2.0000      -0.871281       -23.7088
  29   2.0000      -0.848782       -23.0965
  30   2.0000      -0.843442       -22.9512
  31   2.0000      -0.814187       -22.1552
  32   2.0000      -0.782269       -21.2866
  33   2.0000      -0.770136       -20.9565
  34   2.0000      -0.707752       -19.2589
  35   2.0000      -0.699570       -19.0363
  36   2.0000      -0.696101       -18.9419
  37   2.0000      -0.669800       -18.2262
  38   2.0000      -0.645585       -17.5673
  39   2.0000      -0.615438       -16.7469
  40   2.0000      -0.595363       -16.2007
  41   2.0000      -0.572450       -15.5772
  42   2.0000      -0.560825       -15.2608
  43   2.0000      -0.556322       -15.1383
  44   2.0000      -0.525040       -14.2871
  45   2.0000      -0.519866       -14.1463
  46   2.0000      -0.514610       -14.0033
  47   2.0000      -0.513004       -13.9595
  48   2.0000      -0.508620       -13.8403
  49   2.0000      -0.501497       -13.6464
  50   2.0000      -0.488354       -13.2888
  51   2.0000      -0.482668       -13.1341
  52   2.0000      -0.468630       -12.7521
  53   2.0000      -0.466845       -12.7035
  54   2.0000      -0.457464       -12.4482
  55   2.0000      -0.443881       -12.0786
  56   2.0000      -0.441687       -12.0189
  57   2.0000      -0.436927       -11.8894
  58   2.0000      -0.433914       -11.8074
  59   2.0000      -0.428635       -11.6638
  60   2.0000      -0.423908       -11.5351
  61   2.0000      -0.416941       -11.3455
  62   2.0000      -0.413181       -11.2432
  63   2.0000      -0.339217        -9.2306
  64   2.0000      -0.333851        -9.0845
  65   2.0000      -0.326939        -8.8965
  66   2.0000      -0.297996        -8.1089
  67   0.0000       0.037183         1.0118
  68   0.0000       0.059266         1.6127
  69   0.0000       0.108218         2.9448
  70   0.0000       0.113735         3.0949
  71   0.0000       0.128309         3.4915

MULLIKEN ATOMIC CHARGES
-----------------------
   0 S :    0.120371
   1 C :   -0.093793
   2 C :   -0.084344
   3 C :    0.024792
   4 C :   -0.145848
   5 H :    0.024337
   6 C :    0.103617
   7 H :    0.018757
   8 H :    0.004378
   9 C :   -0.089332
  10 H :    0.028908
  11 H :    0.037238
  12 C :   -0.068548
  13 H :    0.045618
  14 H :    0.031364
  15 H :    0.032119
  16 S :    0.113728
  17 C :   -0.047424
  18 C :   -0.055598
  19 C :    0.001980
  20 C :   -0.194857
  21 H :    0.015397
  22 C :    0.038441
  23 H :    0.039610
  24 H :    0.022141
  25 C :   -0.066303
  26 H :    0.022806
  27 H :    0.028416
  28 C :   -0.044497
  29 H :    0.033912
  30 H :    0.013987
  31 H :    0.040651
  32 H :    0.018436
  33 H :    0.029540
Sum of atomic charges:    0.0000000

LOEWDIN ATOMIC CHARGES
----------------------
   0 S :    0.401385
   1 C :   -0.180139
   2 C :   -0.056447
   3 C :   -0.062409
   4 C :   -0.201065
   5 H :    0.036185
   6 C :   -0.026561
   7 H :    0.030900
   8 H :    0.021160
   9 C :   -0.034479
  10 H :    0.021583
  11 H :    0.022433
  12 C :   -0.069032
  13 H :    0.026490
  14 H :    0.022432
  15 H :    0.026387
  16 S :    0.417878
  17 C :   -0.180439
  18 C :   -0.066690
  19 C :   -0.056933
  20 C :   -0.193153
  21 H :    0.028754
  22 C :   -0.037558
  23 H :    0.030660
  24 H :    0.035026
  25 C :   -0.030292
  26 H :    0.022324
  27 H :    0.019422
  28 C :   -0.068808
  29 H :    0.023422
  30 H :    0.015190
  31 H :    0.033829
  32 H :    0.011909
  33 H :    0.016634

  Mayer bond orders larger than 0.100000
B(  0-S ,  1-C ) :   1.1411 B(  0-S ,  4-C ) :   1.1315 B(  1-C ,  2-C ) :   1.6125
B(  1-C , 32-H ) :   0.9788 B(  2-C ,  3-C ) :   1.2183 B(  2-C ,  6-C ) :   1.0418
B(  3-C ,  4-C ) :   1.6080 B(  3-C ,  5-H ) :   0.9892 B(  4-C , 20-C ) :   1.0218
B(  6-C ,  7-H ) :   0.9345 B(  6-C ,  8-H ) :   0.9376 B(  6-C ,  9-C ) :   1.0497
B(  9-C , 10-H ) :   0.9612 B(  9-C , 11-H ) :   0.9621 B(  9-C , 12-C ) :   1.0743
B( 12-C , 13-H ) :   0.9762 B( 12-C , 14-H ) :   0.9779 B( 12-C , 15-H ) :   0.9768
B( 16-S , 17-C ) :   1.1552 B( 16-S , 20-C ) :   1.1532 B( 17-C , 18-C ) :   1.6016
B( 17-C , 20-C ) :   0.1051 B( 17-C , 33-H ) :   0.9754 B( 18-C , 19-C ) :   1.2519
B( 18-C , 21-H ) :   0.9832 B( 19-C , 20-C ) :   1.5765 B( 19-C , 22-C ) :   1.0706
B( 22-C , 23-H ) :   0.9401 B( 22-C , 24-H ) :   0.9305 B( 22-C , 25-C ) :   1.0447
B( 25-C , 26-H ) :   0.9578 B( 25-C , 27-H ) :   0.9622 B( 25-C , 28-C ) :   1.0710
B( 28-C , 29-H ) :   0.9787 B( 28-C , 30-H ) :   0.9748 B( 28-C , 31-H ) :   0.9763

Dispersion correction           -0.013924212
FINAL SINGLE POINT ENERGY     -1339.877508267702

DIPOLE MOMENT
-------------
                                X             Y             Z
Electronic contribution:     -9.20793      -7.62073      17.17146
Nuclear contribution   :      9.43784       7.94855     -17.42260
                        -----------------------------------------
Total Dipole Moment    :      0.22991       0.32782      -0.25114
                        -----------------------------------------
Magnitude (a.u.)       :      0.47265
Magnitude (Debye)      :      1.20137

Rotational constants in cm-1:     0.019721     0.007425     0.006514
Rotational constants in MHz :   591.209963   222.597695   195.293741

                             ****ORCA TERMINATED NORMALLY****
TOTAL RUN TIME: 0 days 0 hours 0 minutes 19 seconds 901 msec
