                         Program Version 4.2.1 -  RELEASE  -
|  1> ! wB97X-D3 SP def2-SVP
|  2> %pal
|  3> nprocs 24
|  4> end
|  5>
|  6> * xyz 0 1
|  7> S 	 -76.7566 	 -42.981 	 -94.0798
|  8> C 	 -76.0635 	 -42.0513 	 -95.3631
|  9> C 	 -76.9594 	 -42.0376 	 -96.4592
| 10> C 	 -78.0926 	 -42.9285 	 -96.1965
| 11> C 	 -78.0553 	 -43.579 	 -94.9776
| 12> H 	 -78.9122 	 -43.2361 	 -96.8861
| 13> C 	 -76.6042 	 -41.4962 	 -97.7958
| 14> H 	 -77.2661 	 -41.9738 	 -98.4483
| 15> H 	 -75.6014 	 -41.8404 	 -97.9735
| 16> C 	 -76.8639 	 -40.0151 	 -98.0111
| 17> H 	 -77.9208 	 -39.8323 	 -97.9572
| 18> H 	 -76.4164 	 -39.4477 	 -97.195
| 19> C 	 -76.214 	 -39.3816 	 -99.2304
| 20> H 	 -76.7238 	 -39.5108 	 -100.171
| 21> H 	 -75.8992 	 -38.3685 	 -99.0286
| 22> H 	 -75.2549 	 -39.8685 	 -99.2938
| 23> S 	 -78.2007 	 -45.9134 	 -93.6714
| 24> C 	 -79.7033 	 -46.382 	 -92.8364
| 25> C 	 -80.7445 	 -45.7181 	 -93.3583
| 26> C 	 -80.3165 	 -44.6873 	 -94.2554
| 27> C 	 -78.9431 	 -44.5477 	 -94.3211
| 28> H 	 -81.7285 	 -45.9766 	 -93.1005
| 29> C 	 -81.2813 	 -43.7173 	 -94.8257
| 30> H 	 -82.2122 	 -44.2004 	 -95.2839
| 31> H 	 -80.8967 	 -43.0716 	 -95.5757
| 32> C 	 -81.9117 	 -42.7744 	 -93.822
| 33> H 	 -82.3492 	 -41.9486 	 -94.4163
| 34> H 	 -81.1589 	 -42.2439 	 -93.1921
| 35> C 	 -83.0192 	 -43.3858 	 -92.8974
| 36> H 	 -83.698 	 -42.6546 	 -92.5112
| 37> H 	 -82.5024 	 -43.7764 	 -92.0339
| 38> H 	 -83.6676 	 -44.0857 	 -93.4537
| 39> H 	 -75.1487 	 -41.5197 	 -95.4195
| 40> H 	 -79.7902 	 -47.1761 	 -92.1283
| 41> *
| 42>
| 43>                          ****END OF INPUT****

CARTESIAN COORDINATES (ANGSTROEM)
---------------------------------
  S    -76.756600  -42.981000  -94.079800
  C    -76.063500  -42.051300  -95.363100
  C    -76.959400  -42.037600  -96.459200
  C    -78.092600  -42.928500  -96.196500
  C    -78.055300  -43.579000  -94.977600
  H    -78.912200  -43.236100  -96.886100
  C    -76.604200  -41.496200  -97.795800
  H    -77.266100  -41.973800  -98.448300
  H    -75.601400  -41.840400  -97.973500
  C    -76.863900  -40.015100  -98.011100
  H    -77.920800  -39.832300  -97.957200
  H    -76.416400  -39.447700  -97.195000
  C    -76.214000  -39.381600  -99.230400
  H    -76.723800  -39.510800  -100.171000
  H    -75.899200  -38.368500  -99.028600
  H    -75.254900  -39.868500  -99.293800
  S    -78.200700  -45.913400  -93.671400
  C    -79.703300  -46.382000  -92.836400
  C    -80.744500  -45.718100  -93.358300
  C    -80.316500  -44.687300  -94.255400
  C    -78.943100  -44.547700  -94.321100
  H    -81.728500  -45.976600  -93.100500
  C    -81.281300  -43.717300  -94.825700
  H    -82.212200  -44.200400  -95.283900
  H    -80.896700  -43.071600  -95.575700
  C    -81.911700  -42.774400  -93.822000
  H    -82.349200  -41.948600  -94.416300
  H    -81.158900  -42.243900  -93.192100
  C    -83.019200  -43.385800  -92.897400
  H    -83.698000  -42.654600  -92.511200
  H    -82.502400  -43.776400  -92.033900
  H    -83.667600  -44.085700  -93.453700
  H    -75.148700  -41.519700  -95.419500
  H    -79.790200  -47.176100  -92.128300

 Total Charge           Charge          ....    0
 Multiplicity           Mult            ....    1
 Number of Electrons    NEL             ....  134
 Basis Dimension        Dim             ....  322

ORBITAL ENERGIES
----------------

  NO   OCC          E(Eh)            E(eV)
   0   2.0000     -88.964718     -2420.8530
   1   2.0000     -88.960540     -2420.7394
   2   2.0000     -10.325995      -280.9846
   3   2.0000     -10.323391      -280.9137
   4   2.0000     -10.312826      -280.6263
   5   2.0000     -10.311903      -280.6011
   6   2.0000     -10.304705      -280.4053
   7   2.0000     -10.299750      -280.2704
   8   2.0000     -10.298646      -280.2404
   9   2.0000     -10.288429      -279.9624
  10   2.0000     -10.287368      -279.9335
  11   2.0000     -10.285506      -279.8829
  12   2.0000     -10.282416      -279.7988
  13   2.0000     -10.281333      -279.7693
  14   2.0000     -10.276159      -279.6285
  15   2.0000     -10.273085      -279.5448
  16   2.0000      -8.080601      -219.8843
  17   2.0000      -8.076533      -219.7736
  18   2.0000      -6.038975      -164.3289
  19   2.0000      -6.034979      -164.2201
  20   2.0000      -6.034679      -164.2120
  21   2.0000      -6.031649      -164.1295
  22   2.0000      -6.031042      -164.1130
  23   2.0000      -6.027064      -164.0048
  24   2.0000      -1.017331       -27.6830
  25   2.0000      -0.991566       -26.9819
  26   2.0000      -0.920805       -25.0564
  27   2.0000      -0.910078       -24.7645
  28   2.0000      -0.876583       -23.8530
  29   2.0000      -0.849665       -23.1206
  30   2.0000      -0.842913       -22.9368
  31   2.0000      -0.821566       -22.3560
  32   2.0000      -0.786111       -21.3912
  33   2.0000      -0.775814       -21.1110
  34   2.0000      -0.707480       -19.2515
  35   2.0000      -0.702460       -19.1149
  36   2.0000      -0.686412       -18.6782
  37   2.0000      -0.668042       -18.1783
  38   2.0000      -0.643037       -17.4979
  39   2.0000      -0.618006       -16.8168
  40   2.0000      -0.601743       -16.3743
  41   2.0000      -0.578305       -15.7365
  42   2.0000      -0.570701       -15.5296
  43   2.0000      -0.551793       -15.0151
  44   2.0000      -0.539338       -14.6761
  45   2.0000      -0.525317       -14.2946
  46   2.0000      -0.519262       -14.1298
  47   2.0000      -0.515594       -14.0300
  48   2.0000      -0.513450       -13.9717
  49   2.0000      -0.506941       -13.7946
  50   2.0000      -0.489747       -13.3267
  51   2.0000      -0.487292       -13.2599
  52   2.0000      -0.475836       -12.9481
  53   2.0000      -0.466932       -12.7059
  54   2.0000      -0.460601       -12.5336
  55   2.0000      -0.444519       -12.0960
  56   2.0000      -0.439012       -11.9461
  57   2.0000      -0.435908       -11.8617
  58   2.0000      -0.434292       -11.8177
  59   2.0000      -0.424851       -11.5608
  60   2.0000      -0.416856       -11.3432
  61   2.0000      -0.411686       -11.2026
  62   2.0000      -0.409820       -11.1518
  63   2.0000      -0.350482        -9.5371
  64   2.0000      -0.328076        -8.9274
  65   2.0000      -0.324244        -8.8231
  66   2.0000      -0.293566        -7.9883
  67   0.0000       0.028796         0.7836
  68   0.0000       0.076627         2.0851
  69   0.0000       0.103726         2.8225
  70   0.0000       0.124804         3.3961
  71   0.0000       0.131055         3.5662

MULLIKEN ATOMIC CHARGES
-----------------------
   0 S :    0.127600
   1 C :   -0.089329
   2 C :   -0.135272
   3 C :    0.017350
   4 C :   -0.162818
   5 H :    0.029138
   6 C :    0.109097
   7 H :    0.001530
   8 H :    0.027852
   9 C :   -0.079901
  10 H :    0.023542
  11 H :    0.017176
  12 C :   -0.011934
  13 H :    0.039014
  14 H :    0.028447
  15 H :    0.006717
  16 S :    0.105157
  17 C :   -0.073362
  18 C :   -0.010620
  19 C :    0.003729
  20 C :   -0.147946
  21 H :    0.002587
  22 C :    0.060813
  23 H :    0.029771
  24 H :    0.003868
  25 C :   -0.112118
  26 H :    0.025352
  27 H :    0.033699
  28 C :   -0.041645
  29 H :    0.025996
  30 H :    0.041113
  31 H :    0.027456
  32 H :    0.035264
  33 H :    0.042678
Sum of atomic charges:    0.0000000

LOEWDIN ATOMIC CHARGES
----------------------
   0 S :    0.451543
   1 C :   -0.205980
   2 C :   -0.056446
   3 C :   -0.078377
   4 C :   -0.219513
   5 H :    0.035375
   6 C :   -0.030586
   7 H :    0.025292
   8 H :    0.032318
   9 C :   -0.038905
  10 H :    0.021879
  11 H :    0.023112
  12 C :   -0.063781
  13 H :    0.022755
  14 H :    0.028231
  15 H :    0.024367
  16 S :    0.415127
  17 C :   -0.163202
  18 C :   -0.057739
  19 C :   -0.057967
  20 C :   -0.217688
  21 H :    0.027191
  22 C :   -0.040374
  23 H :    0.039436
  24 H :    0.023792
  25 C :   -0.041481
  26 H :    0.023102
  27 H :    0.026766
  28 C :   -0.070170
  29 H :    0.023943
  30 H :    0.026128
  31 H :    0.023511
  32 H :    0.024219
  33 H :    0.024120

  Mayer bond orders larger than 0.100000
B(  0-S ,  1-C ) :   1.1554 B(  0-S ,  4-C ) :   1.1862 B(  1-C ,  2-C ) :   1.5697
B(  1-C ,  4-C ) :   0.1042 B(  1-C , 32-H ) :   0.9766 B(  2-C ,  3-C ) :   1.2528
B(  2-C ,  6-C ) :   1.0293 B(  3-C ,  4-C ) :   1.5723 B(  3-C ,  5-H ) :   0.9813
B(  4-C , 20-C ) :   0.9978 B(  6-C ,  7-H ) :   0.9325 B(  6-C ,  8-H ) :   0.9415
B(  6-C ,  9-C ) :   1.0644 B(  9-C , 10-H ) :   0.9539 B(  9-C , 11-H ) :   0.9619
B(  9-C , 12-C ) :   1.0801 B( 12-C , 13-H ) :   0.9760 B( 12-C , 14-H ) :   0.9754
B( 12-C , 15-H ) :   0.9687 B( 16-S , 17-C ) :   1.1356 B( 16-S , 20-C ) :   1.1624
B( 17-C , 18-C ) :   1.6218 B( 17-C , 33-H ) :   0.9733 B( 18-C , 19-C ) :   1.2129
B( 18-C , 21-H ) :   1.0006 B( 19-C , 20-C ) :   1.5877 B( 19-C , 22-C ) :   1.0722
B( 22-C , 23-H ) :   0.9299 B( 22-C , 24-H ) :   0.9315 B( 22-C , 25-C ) :   1.0739
B( 25-C , 26-H ) :   0.9593 B( 25-C , 27-H ) :   0.9531 B( 25-C , 28-C ) :   1.0751
B( 28-C , 29-H ) :   0.9720 B( 28-C , 30-H ) :   0.9729 B( 28-C , 31-H ) :   0.9732

Dispersion correction           -0.013836166
FINAL SINGLE POINT ENERGY     -1339.860328794002

DIPOLE MOMENT
-------------
                                X             Y             Z
Electronic contribution:     11.76531     -18.19576      13.32387
Nuclear contribution   :    -12.11497      18.43577     -13.64481
                        -----------------------------------------
Total Dipole Moment    :     -0.34966       0.24001      -0.32094
                        -----------------------------------------
Magnitude (a.u.)       :      0.53185
Magnitude (Debye)      :      1.35187

Rotational constants in cm-1:     0.022842     0.007297     0.006039
Rotational constants in MHz :   684.784379   218.743787   181.044434

                             ****ORCA TERMINATED NORMALLY****
TOTAL RUN TIME: 0 days 0 hours 0 minutes 21 seconds 223 msec
