                         Program Version 4.2.1 -  RELEASE  -
|  1> ! wB97X-D3 SP def2-SVP
|  2> %pal
|  3> nprocs 24
|  4> end
|  5>
|  6> * xyz 0 1
|  7> S 	 -28.9759 	 -36.3024 	 -93.7992
|  8> C 	 -28.674 	 -35.0262 	 -94.8694
|  9> C 	 -29.8294 	 -34.4522 	 -95.3955
| 10> C 	 -30.9967 	 -35.0407 	 -94.861
| 11> C 	 -30.697 	 -36.1105 	 -93.9894
| 12> H 	 -31.9826 	 -34.6986 	 -94.9409
| 13> C 	 -29.9968 	 -33.2343 	 -96.304
| 14> H 	 -30.9896 	 -33.3284 	 -96.9
| 15> H 	 -29.308 	 -33.2185 	 -97.0951
| 16> C 	 -29.9691 	 -31.9259 	 -95.5979
| 17> H 	 -30.0617 	 -31.131 	 -96.3902
| 18> H 	 -30.8419 	 -32.0004 	 -94.9889
| 19> C 	 -28.7151 	 -31.8239 	 -94.73
| 20> H 	 -27.8151 	 -31.7594 	 -95.3824
| 21> H 	 -28.6151 	 -30.7723 	 -94.345
| 22> H 	 -28.6214 	 -32.5619 	 -93.8976
| 23> S 	 -30.9718 	 -38.4328 	 -92.4346
| 24> C 	 -32.4771 	 -39.2874 	 -92.4268
| 25> C 	 -33.4025 	 -38.7187 	 -93.2392
| 26> C 	 -32.9292 	 -37.5089 	 -93.9052
| 27> C 	 -31.5691 	 -37.1363 	 -93.5609
| 28> H 	 -34.3924 	 -39.1776 	 -93.3518
| 29> C 	 -33.7838 	 -36.9192 	 -95.0037
| 30> H 	 -33.7758 	 -35.8701 	 -94.7918
| 31> H 	 -34.8287 	 -37.2738 	 -94.9222
| 32> C 	 -33.318 	 -37.2378 	 -96.3935
| 33> H 	 -32.2635 	 -37.0389 	 -96.484
| 34> H 	 -33.8741 	 -36.5682 	 -97.0876
| 35> C 	 -33.5272 	 -38.7186 	 -96.7438
| 36> H 	 -33.2368 	 -38.8593 	 -97.8098
| 37> H 	 -34.5705 	 -38.9158 	 -96.6936
| 38> H 	 -32.8631 	 -39.4012 	 -96.1513
| 39> H 	 -27.6521 	 -34.6591 	 -95.0634
| 40> H 	 -32.7072 	 -40.134 	 -91.8147
| 41> *
| 42>
| 43>                          ****END OF INPUT****

CARTESIAN COORDINATES (ANGSTROEM)
---------------------------------
  S    -28.975900  -36.302400  -93.799200
  C    -28.674000  -35.026200  -94.869400
  C    -29.829400  -34.452200  -95.395500
  C    -30.996700  -35.040700  -94.861000
  C    -30.697000  -36.110500  -93.989400
  H    -31.982600  -34.698600  -94.940900
  C    -29.996800  -33.234300  -96.304000
  H    -30.989600  -33.328400  -96.900000
  H    -29.308000  -33.218500  -97.095100
  C    -29.969100  -31.925900  -95.597900
  H    -30.061700  -31.131000  -96.390200
  H    -30.841900  -32.000400  -94.988900
  C    -28.715100  -31.823900  -94.730000
  H    -27.815100  -31.759400  -95.382400
  H    -28.615100  -30.772300  -94.345000
  H    -28.621400  -32.561900  -93.897600
  S    -30.971800  -38.432800  -92.434600
  C    -32.477100  -39.287400  -92.426800
  C    -33.402500  -38.718700  -93.239200
  C    -32.929200  -37.508900  -93.905200
  C    -31.569100  -37.136300  -93.560900
  H    -34.392400  -39.177600  -93.351800
  C    -33.783800  -36.919200  -95.003700
  H    -33.775800  -35.870100  -94.791800
  H    -34.828700  -37.273800  -94.922200
  C    -33.318000  -37.237800  -96.393500
  H    -32.263500  -37.038900  -96.484000
  H    -33.874100  -36.568200  -97.087600
  C    -33.527200  -38.718600  -96.743800
  H    -33.236800  -38.859300  -97.809800
  H    -34.570500  -38.915800  -96.693600
  H    -32.863100  -39.401200  -96.151300
  H    -27.652100  -34.659100  -95.063400
  H    -32.707200  -40.134000  -91.814700

 Total Charge           Charge          ....    0
 Multiplicity           Mult            ....    1
 Number of Electrons    NEL             ....  134
 Basis Dimension        Dim             ....  322

ORBITAL ENERGIES
----------------

  NO   OCC          E(Eh)            E(eV)
   0   2.0000     -88.971520     -2421.0382
   1   2.0000     -88.963423     -2420.8178
   2   2.0000     -10.336637      -281.2742
   3   2.0000     -10.330269      -281.1009
   4   2.0000     -10.315997      -280.7126
   5   2.0000     -10.313869      -280.6546
   6   2.0000     -10.310585      -280.5653
   7   2.0000     -10.302856      -280.3550
   8   2.0000     -10.293741      -280.1069
   9   2.0000     -10.293224      -280.0929
  10   2.0000     -10.290108      -280.0081
  11   2.0000     -10.287127      -279.9270
  12   2.0000     -10.286211      -279.9020
  13   2.0000     -10.283742      -279.8348
  14   2.0000     -10.281178      -279.7651
  15   2.0000     -10.275998      -279.6241
  16   2.0000      -8.087381      -220.0688
  17   2.0000      -8.077655      -219.8042
  18   2.0000      -6.045742      -164.5130
  19   2.0000      -6.041694      -164.4028
  20   2.0000      -6.038271      -164.3097
  21   2.0000      -6.036344      -164.2573
  22   2.0000      -6.032259      -164.1461
  23   2.0000      -6.028247      -164.0369
  24   2.0000      -1.010821       -27.5058
  25   2.0000      -0.980721       -26.6868
  26   2.0000      -0.921800       -25.0835
  27   2.0000      -0.913615       -24.8607
  28   2.0000      -0.874076       -23.7848
  29   2.0000      -0.855443       -23.2778
  30   2.0000      -0.839410       -22.8415
  31   2.0000      -0.808200       -21.9922
  32   2.0000      -0.784944       -21.3594
  33   2.0000      -0.773098       -21.0371
  34   2.0000      -0.713012       -19.4020
  35   2.0000      -0.695077       -18.9140
  36   2.0000      -0.684884       -18.6366
  37   2.0000      -0.664137       -18.0721
  38   2.0000      -0.639088       -17.3905
  39   2.0000      -0.627210       -17.0673
  40   2.0000      -0.593529       -16.1507
  41   2.0000      -0.576861       -15.6972
  42   2.0000      -0.558950       -15.2098
  43   2.0000      -0.549819       -14.9613
  44   2.0000      -0.546138       -14.8612
  45   2.0000      -0.539745       -14.6872
  46   2.0000      -0.514933       -14.0120
  47   2.0000      -0.507905       -13.8208
  48   2.0000      -0.502256       -13.6671
  49   2.0000      -0.496795       -13.5185
  50   2.0000      -0.493640       -13.4326
  51   2.0000      -0.479657       -13.0521
  52   2.0000      -0.472046       -12.8450
  53   2.0000      -0.469117       -12.7653
  54   2.0000      -0.462636       -12.5890
  55   2.0000      -0.453054       -12.3282
  56   2.0000      -0.435089       -11.8394
  57   2.0000      -0.434595       -11.8259
  58   2.0000      -0.426470       -11.6048
  59   2.0000      -0.421829       -11.4785
  60   2.0000      -0.417018       -11.3476
  61   2.0000      -0.414679       -11.2840
  62   2.0000      -0.406979       -11.0745
  63   2.0000      -0.367553       -10.0016
  64   2.0000      -0.339626        -9.2417
  65   2.0000      -0.325772        -8.8647
  66   2.0000      -0.271777        -7.3954
  67   0.0000       0.009934         0.2703
  68   0.0000       0.086380         2.3505
  69   0.0000       0.095108         2.5880
  70   0.0000       0.117278         3.1913
  71   0.0000       0.137335         3.7371

MULLIKEN ATOMIC CHARGES
-----------------------
   0 S :    0.121103
   1 C :   -0.128236
   2 C :   -0.089496
   3 C :   -0.003892
   4 C :   -0.110722
   5 H :   -0.003250
   6 C :    0.045513
   7 H :    0.030324
   8 H :    0.005590
   9 C :   -0.024779
  10 H :    0.042597
  11 H :    0.017018
  12 C :   -0.091818
  13 H :    0.021223
  14 H :    0.029946
  15 H :    0.076549
  16 S :    0.074712
  17 C :   -0.066799
  18 C :   -0.036126
  19 C :   -0.092394
  20 C :   -0.113056
  21 H :    0.026086
  22 C :    0.059350
  23 H :    0.022331
  24 H :    0.016993
  25 C :   -0.058078
  26 H :    0.036454
  27 H :    0.029961
  28 C :   -0.059315
  29 H :    0.032846
  30 H :    0.017618
  31 H :    0.059732
  32 H :    0.060236
  33 H :    0.051781
Sum of atomic charges:    0.0000000

LOEWDIN ATOMIC CHARGES
----------------------
   0 S :    0.442343
   1 C :   -0.216259
   2 C :   -0.062377
   3 C :   -0.054684
   4 C :   -0.196481
   5 H :    0.021861
   6 C :   -0.035595
   7 H :    0.037508
   8 H :    0.015296
   9 C :   -0.041069
  10 H :    0.034202
  11 H :    0.019607
  12 C :   -0.079886
  13 H :    0.025886
  14 H :    0.030557
  15 H :    0.036523
  16 S :    0.373114
  17 C :   -0.184098
  18 C :   -0.079437
  19 C :   -0.048862
  20 C :   -0.181204
  21 H :    0.036153
  22 C :   -0.038254
  23 H :    0.023166
  24 H :    0.031066
  25 C :   -0.039222
  26 H :    0.023737
  27 H :    0.026918
  28 C :   -0.064722
  29 H :    0.030048
  30 H :    0.015489
  31 H :    0.035702
  32 H :    0.033058
  33 H :    0.029918

  Mayer bond orders larger than 0.100000
B(  0-S ,  1-C ) :   1.1667 B(  0-S ,  4-C ) :   1.1581 B(  1-C ,  2-C ) :   1.5650
B(  1-C , 32-H ) :   0.9652 B(  2-C ,  3-C ) :   1.2896 B(  2-C ,  6-C ) :   1.0216
B(  3-C ,  4-C ) :   1.4965 B(  3-C ,  5-H ) :   1.0010 B(  4-C , 20-C ) :   1.1481
B(  6-C ,  7-H ) :   0.9433 B(  6-C ,  8-H ) :   0.9381 B(  6-C ,  9-C ) :   1.0672
B(  9-C , 10-H ) :   0.9520 B(  9-C , 11-H ) :   0.9513 B(  9-C , 12-C ) :   1.0869
B( 12-C , 13-H ) :   0.9701 B( 12-C , 14-H ) :   0.9679 B( 12-C , 15-H ) :   0.9647
B( 16-S , 17-C ) :   1.1496 B( 16-S , 20-C ) :   1.1100 B( 17-C , 18-C ) :   1.6209
B( 17-C , 33-H ) :   0.9645 B( 18-C , 19-C ) :   1.2496 B( 18-C , 21-H ) :   0.9856
B( 19-C , 20-C ) :   1.5356 B( 19-C , 22-C ) :   1.0414 B( 22-C , 23-H ) :   0.9285
B( 22-C , 24-H ) :   0.9324 B( 22-C , 25-C ) :   1.0787 B( 25-C , 26-H ) :   0.9509
B( 25-C , 27-H ) :   0.9522 B( 25-C , 28-C ) :   1.0789 B( 28-C , 29-H ) :   0.9721
B( 28-C , 30-H ) :   0.9757 B( 28-C , 31-H ) :   0.9731

Dispersion correction           -0.015411527
FINAL SINGLE POINT ENERGY     -1339.871738011013

DIPOLE MOMENT
-------------
                                X             Y             Z
Electronic contribution:      8.46369     -14.23360      17.21736
Nuclear contribution   :     -8.78308      14.53272     -17.68831
                        -----------------------------------------
Total Dipole Moment    :     -0.31939       0.29911      -0.47095
                        -----------------------------------------
Magnitude (a.u.)       :      0.64286
Magnitude (Debye)      :      1.63403

Rotational constants in cm-1:     0.022473     0.008789     0.007018
Rotational constants in MHz :   673.738156   263.500889   210.406041

                             ****ORCA TERMINATED NORMALLY****
TOTAL RUN TIME: 0 days 0 hours 0 minutes 22 seconds 734 msec
