                         Program Version 4.2.1 -  RELEASE  -
|  1> ! wB97X-D3 SP def2-SVP
|  2> %pal
|  3> nprocs 24
|  4> end
|  5>
|  6> * xyz 0 1
|  7> S 	 -144.577 	 14.2781 	 -7.1618
|  8> C 	 -144.55 	 12.4946 	 -7.08737
|  9> C 	 -145.401 	 11.9529 	 -7.95291
| 10> C 	 -146.324 	 12.9485 	 -8.4509
| 11> C 	 -146.164 	 14.2777 	 -7.91509
| 12> H 	 -147.168 	 12.6226 	 -9.06744
| 13> C 	 -145.631 	 10.4619 	 -8.1771
| 14> H 	 -146.687 	 10.2965 	 -8.07754
| 15> H 	 -145.284 	 9.93636 	 -7.29673
| 16> C 	 -145.049 	 9.9237 	 -9.49431
| 17> H 	 -145.154 	 8.8942 	 -9.50734
| 18> H 	 -145.652 	 10.2918 	 -10.3733
| 19> C 	 -143.582 	 10.2451 	 -9.78901
| 20> H 	 -143.14 	 9.71346 	 -10.6326
| 21> H 	 -143.4 	 11.3244 	 -10.0294
| 22> H 	 -142.944 	 10.001 	 -8.93844
| 23> S 	 -146.29 	 16.8793 	 -7.35501
| 24> C 	 -147.807 	 17.7292 	 -7.53338
| 25> C 	 -148.826 	 16.8557 	 -7.92271
| 26> C 	 -148.404 	 15.5805 	 -8.25543
| 27> C 	 -147.053 	 15.4482 	 -8.02927
| 28> H 	 -149.898 	 17.0143 	 -7.89528
| 29> C 	 -149.352 	 14.4535 	 -8.76006
| 30> H 	 -148.902 	 13.8645 	 -9.65353
| 31> H 	 -150.256 	 14.8678 	 -9.21824
| 32> C 	 -149.766 	 13.3371 	 -7.74686
| 33> H 	 -148.919 	 12.82 	 -7.28928
| 34> H 	 -150.387 	 12.5879 	 -8.20358
| 35> C 	 -150.754 	 13.8637 	 -6.72102
| 36> H 	 -151.648 	 14.3397 	 -7.1111
| 37> H 	 -150.358 	 14.6469 	 -6.06934
| 38> H 	 -151.03 	 13.0284 	 -6.04331
| 39> H 	 -143.765 	 12.0617 	 -6.5981
| 40> H 	 -147.921 	 18.8044 	 -7.51956
| 41> *
| 42>
| 43>                          ****END OF INPUT****

CARTESIAN COORDINATES (ANGSTROEM)
---------------------------------
  S    -144.577000   14.278100   -7.161800
  C    -144.550000   12.494600   -7.087370
  C    -145.401000   11.952900   -7.952910
  C    -146.324000   12.948500   -8.450900
  C    -146.164000   14.277700   -7.915090
  H    -147.168000   12.622600   -9.067440
  C    -145.631000   10.461900   -8.177100
  H    -146.687000   10.296500   -8.077540
  H    -145.284000    9.936360   -7.296730
  C    -145.049000    9.923700   -9.494310
  H    -145.154000    8.894200   -9.507340
  H    -145.652000   10.291800  -10.373300
  C    -143.582000   10.245100   -9.789010
  H    -143.140000    9.713460  -10.632600
  H    -143.400000   11.324400  -10.029400
  H    -142.944000   10.001000   -8.938440
  S    -146.290000   16.879300   -7.355010
  C    -147.807000   17.729200   -7.533380
  C    -148.826000   16.855700   -7.922710
  C    -148.404000   15.580500   -8.255430
  C    -147.053000   15.448200   -8.029270
  H    -149.898000   17.014300   -7.895280
  C    -149.352000   14.453500   -8.760060
  H    -148.902000   13.864500   -9.653530
  H    -150.256000   14.867800   -9.218240
  C    -149.766000   13.337100   -7.746860
  H    -148.919000   12.820000   -7.289280
  H    -150.387000   12.587900   -8.203580
  C    -150.754000   13.863700   -6.721020
  H    -151.648000   14.339700   -7.111100
  H    -150.358000   14.646900   -6.069340
  H    -151.030000   13.028400   -6.043310
  H    -143.765000   12.061700   -6.598100
  H    -147.921000   18.804400   -7.519560

 Total Charge           Charge          ....    0
 Multiplicity           Mult            ....    1
 Number of Electrons    NEL             ....  134
 Basis Dimension        Dim             ....  322

ORBITAL ENERGIES
----------------

  NO   OCC          E(Eh)            E(eV)
   0   2.0000     -88.970653     -2421.0145
   1   2.0000     -88.959764     -2420.7183
   2   2.0000     -10.338622      -281.3282
   3   2.0000     -10.331598      -281.1371
   4   2.0000     -10.321312      -280.8572
   5   2.0000     -10.308083      -280.4972
   6   2.0000     -10.305485      -280.4265
   7   2.0000     -10.304114      -280.3892
   8   2.0000     -10.297373      -280.2058
   9   2.0000     -10.297041      -280.1967
  10   2.0000     -10.294983      -280.1407
  11   2.0000     -10.293768      -280.1077
  12   2.0000     -10.288008      -279.9509
  13   2.0000     -10.287395      -279.9343
  14   2.0000     -10.278221      -279.6846
  15   2.0000     -10.274646      -279.5873
  16   2.0000      -8.085483      -220.0172
  17   2.0000      -8.074466      -219.7174
  18   2.0000      -6.043866      -164.4620
  19   2.0000      -6.040129      -164.3603
  20   2.0000      -6.036209      -164.2536
  21   2.0000      -6.033221      -164.1723
  22   2.0000      -6.029280      -164.0651
  23   2.0000      -6.024677      -163.9398
  24   2.0000      -1.009056       -27.4578
  25   2.0000      -0.984230       -26.7823
  26   2.0000      -0.911600       -24.8059
  27   2.0000      -0.906106       -24.6564
  28   2.0000      -0.869783       -23.6680
  29   2.0000      -0.856409       -23.3041
  30   2.0000      -0.838739       -22.8232
  31   2.0000      -0.806861       -21.9558
  32   2.0000      -0.785502       -21.3746
  33   2.0000      -0.778421       -21.1819
  34   2.0000      -0.708727       -19.2854
  35   2.0000      -0.703328       -19.1385
  36   2.0000      -0.692123       -18.8336
  37   2.0000      -0.671558       -18.2740
  38   2.0000      -0.639503       -17.4018
  39   2.0000      -0.618514       -16.8306
  40   2.0000      -0.598807       -16.2944
  41   2.0000      -0.567359       -15.4386
  42   2.0000      -0.554150       -15.0792
  43   2.0000      -0.549894       -14.9634
  44   2.0000      -0.540560       -14.7094
  45   2.0000      -0.538491       -14.6531
  46   2.0000      -0.518742       -14.1157
  47   2.0000      -0.507190       -13.8013
  48   2.0000      -0.499488       -13.5918
  49   2.0000      -0.493038       -13.4162
  50   2.0000      -0.490846       -13.3566
  51   2.0000      -0.482979       -13.1425
  52   2.0000      -0.474932       -12.9236
  53   2.0000      -0.464869       -12.6497
  54   2.0000      -0.453686       -12.3454
  55   2.0000      -0.449264       -12.2251
  56   2.0000      -0.447532       -12.1780
  57   2.0000      -0.441238       -12.0067
  58   2.0000      -0.434745       -11.8300
  59   2.0000      -0.422391       -11.4938
  60   2.0000      -0.417252       -11.3540
  61   2.0000      -0.413012       -11.2386
  62   2.0000      -0.409062       -11.1312
  63   2.0000      -0.360875        -9.8199
  64   2.0000      -0.342016        -9.3067
  65   2.0000      -0.323586        -8.8052
  66   2.0000      -0.277543        -7.5523
  67   0.0000       0.010129         0.2756
  68   0.0000       0.078996         2.1496
  69   0.0000       0.087884         2.3915
  70   0.0000       0.114514         3.1161
  71   0.0000       0.135499         3.6871

MULLIKEN ATOMIC CHARGES
-----------------------
   0 S :    0.066406
   1 C :   -0.105847
   2 C :   -0.054145
   3 C :   -0.008319
   4 C :   -0.105810
   5 H :    0.005648
   6 C :    0.073062
   7 H :    0.021173
   8 H :    0.016490
   9 C :   -0.037319
  10 H :    0.015717
  11 H :    0.034671
  12 C :   -0.073101
  13 H :    0.033623
  14 H :    0.047978
  15 H :    0.023152
  16 S :    0.099735
  17 C :   -0.081156
  18 C :   -0.025506
  19 C :   -0.037353
  20 C :   -0.112851
  21 H :    0.013501
  22 C :    0.001463
  23 H :    0.050675
  24 H :    0.020653
  25 C :   -0.040892
  26 H :    0.047531
  27 H :    0.023870
  28 C :   -0.079109
  29 H :    0.021906
  30 H :    0.030718
  31 H :    0.036321
  32 H :    0.013211
  33 H :    0.063905
Sum of atomic charges:    0.0000000

LOEWDIN ATOMIC CHARGES
----------------------
   0 S :    0.363503
   1 C :   -0.160860
   2 C :   -0.062763
   3 C :   -0.073941
   4 C :   -0.181895
   5 H :    0.023368
   6 C :   -0.025449
   7 H :    0.030578
   8 H :    0.030495
   9 C :   -0.037808
  10 H :    0.015440
  11 H :    0.031274
  12 C :   -0.072124
  13 H :    0.027429
  14 H :    0.032594
  15 H :    0.021764
  16 S :    0.413686
  17 C :   -0.185868
  18 C :   -0.066914
  19 C :   -0.060067
  20 C :   -0.178725
  21 H :    0.032273
  22 C :   -0.033239
  23 H :    0.040308
  24 H :    0.029287
  25 C :   -0.041131
  26 H :    0.027929
  27 H :    0.025224
  28 C :   -0.073194
  29 H :    0.020268
  30 H :    0.021823
  31 H :    0.030005
  32 H :    0.006548
  33 H :    0.030185

  Mayer bond orders larger than 0.100000
B(  0-S ,  1-C ) :   1.1093 B(  0-S ,  4-C ) :   1.1412 B(  1-C ,  2-C ) :   1.6303
B(  1-C , 32-H ) :   0.9834 B(  2-C ,  3-C ) :   1.2297 B(  2-C ,  6-C ) :   1.0132
B(  3-C ,  4-C ) :   1.5437 B(  3-C ,  5-H ) :   0.9870 B(  4-C , 20-C ) :   1.0882
B(  6-C ,  7-H ) :   0.9440 B(  6-C ,  8-H ) :   0.9435 B(  6-C ,  9-C ) :   1.0689
B(  9-C , 10-H ) :   0.9549 B(  9-C , 11-H ) :   0.9544 B(  9-C , 12-C ) :   1.0804
B( 12-C , 13-H ) :   0.9744 B( 12-C , 14-H ) :   0.9717 B( 12-C , 15-H ) :   0.9755
B( 16-S , 17-C ) :   1.1634 B( 16-S , 20-C ) :   1.1487 B( 17-C , 18-C ) :   1.5555
B( 17-C , 20-C ) :   0.1048 B( 17-C , 33-H ) :   0.9700 B( 18-C , 19-C ) :   1.3123
B( 18-C , 21-H ) :   0.9819 B( 19-C , 20-C ) :   1.5624 B( 19-C , 22-C ) :   1.0146
B( 22-C , 23-H ) :   0.9458 B( 22-C , 24-H ) :   0.9384 B( 22-C , 25-C ) :   1.0701
B( 25-C , 26-H ) :   0.9527 B( 25-C , 27-H ) :   0.9540 B( 25-C , 28-C ) :   1.0751
B( 28-C , 29-H ) :   0.9745 B( 28-C , 30-H ) :   0.9767 B( 28-C , 31-H ) :   0.9733

Dispersion correction           -0.014987533
FINAL SINGLE POINT ENERGY     -1339.857748773924

DIPOLE MOMENT
-------------
                                X             Y             Z
Electronic contribution:     11.46436      22.82473       6.41388
Nuclear contribution   :    -11.97498     -23.36582      -6.56542
                        -----------------------------------------
Total Dipole Moment    :     -0.51062      -0.54110      -0.15155
                        -----------------------------------------
Magnitude (a.u.)       :      0.75927
Magnitude (Debye)      :      1.92990

Rotational constants in cm-1:     0.020590     0.008863     0.006824
Rotational constants in MHz :   617.264109   265.718608   204.585078

                             ****ORCA TERMINATED NORMALLY****
TOTAL RUN TIME: 0 days 0 hours 0 minutes 23 seconds 568 msec
