                         Program Version 4.2.1 -  RELEASE  -
|  1> ! wB97X-D3 SP def2-SVP
|  2> %pal
|  3> nprocs 24
|  4> end
|  5>
|  6> * xyz 0 1
|  7> S 	 -67.1115 	 6.70864 	 -73.005
|  8> C 	 -68.6426 	 7.59882 	 -73.0368
|  9> C 	 -69.6991 	 6.71709 	 -72.8642
| 10> C 	 -69.2815 	 5.45508 	 -72.3489
| 11> C 	 -67.9324 	 5.2204 	 -72.3855
| 12> H 	 -69.9911 	 4.69259 	 -72.0685
| 13> C 	 -71.2563 	 7.0079 	 -73.088
| 14> H 	 -71.4465 	 7.99317 	 -72.5753
| 15> H 	 -71.9666 	 6.26647 	 -72.656
| 16> C 	 -71.4905 	 7.06017 	 -74.5543
| 17> H 	 -71.2367 	 6.16355 	 -74.9773
| 18> H 	 -72.5933 	 7.06269 	 -74.6022
| 19> C 	 -70.9155 	 8.20724 	 -75.3893
| 20> H 	 -69.8612 	 8.21963 	 -75.2466
| 21> H 	 -71.1482 	 8.03626 	 -76.4273
| 22> H 	 -71.3823 	 9.12342 	 -75.0474
| 23> S 	 -65.9243 	 4.40049 	 -70.7655
| 24> C 	 -65.8063 	 2.68954 	 -70.3364
| 25> C 	 -66.5838 	 1.91366 	 -71.088
| 26> C 	 -67.3992 	 2.68996 	 -72.0043
| 27> C 	 -67.2302 	 4.08304 	 -71.7883
| 28> H 	 -66.4954 	 0.845148 	 -70.9052
| 29> C 	 -68.3969 	 2.00878 	 -72.9691
| 30> H 	 -68.9839 	 2.74976 	 -73.5186
| 31> H 	 -69.1143 	 1.60104 	 -72.354
| 32> C 	 -67.6634 	 1.16705 	 -73.9699
| 33> H 	 -67.3884 	 0.236409 	 -73.4928
| 34> H 	 -66.6407 	 1.48759 	 -74.3301
| 35> C 	 -68.4262 	 0.864418 	 -75.1463
| 36> H 	 -68.8517 	 1.72615 	 -75.6333
| 37> H 	 -69.2288 	 0.144394 	 -74.8676
| 38> H 	 -67.7805 	 0.367718 	 -75.9538
| 39> H 	 -68.7198 	 8.63612 	 -73.2183
| 40> H 	 -65.0115 	 2.24162 	 -69.7478
| 41> *
| 42>
| 43>                          ****END OF INPUT****

CARTESIAN COORDINATES (ANGSTROEM)
---------------------------------
  S    -67.111500    6.708640  -73.005000
  C    -68.642600    7.598820  -73.036800
  C    -69.699100    6.717090  -72.864200
  C    -69.281500    5.455080  -72.348900
  C    -67.932400    5.220400  -72.385500
  H    -69.991100    4.692590  -72.068500
  C    -71.256300    7.007900  -73.088000
  H    -71.446500    7.993170  -72.575300
  H    -71.966600    6.266470  -72.656000
  C    -71.490500    7.060170  -74.554300
  H    -71.236700    6.163550  -74.977300
  H    -72.593300    7.062690  -74.602200
  C    -70.915500    8.207240  -75.389300
  H    -69.861200    8.219630  -75.246600
  H    -71.148200    8.036260  -76.427300
  H    -71.382300    9.123420  -75.047400
  S    -65.924300    4.400490  -70.765500
  C    -65.806300    2.689540  -70.336400
  C    -66.583800    1.913660  -71.088000
  C    -67.399200    2.689960  -72.004300
  C    -67.230200    4.083040  -71.788300
  H    -66.495400    0.845148  -70.905200
  C    -68.396900    2.008780  -72.969100
  H    -68.983900    2.749760  -73.518600
  H    -69.114300    1.601040  -72.354000
  C    -67.663400    1.167050  -73.969900
  H    -67.388400    0.236409  -73.492800
  H    -66.640700    1.487590  -74.330100
  C    -68.426200    0.864418  -75.146300
  H    -68.851700    1.726150  -75.633300
  H    -69.228800    0.144394  -74.867600
  H    -67.780500    0.367718  -75.953800
  H    -68.719800    8.636120  -73.218300
  H    -65.011500    2.241620  -69.747800

 Total Charge           Charge          ....    0
 Multiplicity           Mult            ....    1
 Number of Electrons    NEL             ....  134
 Basis Dimension        Dim             ....  322

ORBITAL ENERGIES
----------------

  NO   OCC          E(Eh)            E(eV)
   0   2.0000     -88.964800     -2420.8553
   1   2.0000     -88.962267     -2420.7864
   2   2.0000     -10.331839      -281.1436
   3   2.0000     -10.325199      -280.9630
   4   2.0000     -10.316154      -280.7168
   5   2.0000     -10.310041      -280.5505
   6   2.0000     -10.308858      -280.5183
   7   2.0000     -10.304576      -280.4018
   8   2.0000     -10.302126      -280.3351
   9   2.0000     -10.291423      -280.0439
  10   2.0000     -10.291374      -280.0425
  11   2.0000     -10.285919      -279.8941
  12   2.0000     -10.279042      -279.7070
  13   2.0000     -10.275854      -279.6202
  14   2.0000     -10.274868      -279.5934
  15   2.0000     -10.271561      -279.5034
  16   2.0000      -8.078372      -219.8237
  17   2.0000      -8.078074      -219.8156
  18   2.0000      -6.037092      -164.2776
  19   2.0000      -6.036471      -164.2607
  20   2.0000      -6.033148      -164.1703
  21   2.0000      -6.032575      -164.1547
  22   2.0000      -6.028859      -164.0536
  23   2.0000      -6.028710      -164.0496
  24   2.0000      -1.006329       -27.3836
  25   2.0000      -0.981329       -26.7033
  26   2.0000      -0.922201       -25.0944
  27   2.0000      -0.913772       -24.8650
  28   2.0000      -0.873206       -23.7611
  29   2.0000      -0.853147       -23.2153
  30   2.0000      -0.840913       -22.8824
  31   2.0000      -0.818128       -22.2624
  32   2.0000      -0.787200       -21.4208
  33   2.0000      -0.771823       -21.0024
  34   2.0000      -0.704164       -19.1613
  35   2.0000      -0.696888       -18.9633
  36   2.0000      -0.692012       -18.8306
  37   2.0000      -0.654356       -17.8059
  38   2.0000      -0.640258       -17.4223
  39   2.0000      -0.621366       -16.9082
  40   2.0000      -0.596629       -16.2351
  41   2.0000      -0.576013       -15.6741
  42   2.0000      -0.571135       -15.5414
  43   2.0000      -0.549644       -14.9566
  44   2.0000      -0.542564       -14.7639
  45   2.0000      -0.538415       -14.6510
  46   2.0000      -0.519034       -14.1236
  47   2.0000      -0.512291       -13.9402
  48   2.0000      -0.507146       -13.8002
  49   2.0000      -0.500820       -13.6280
  50   2.0000      -0.487895       -13.2763
  51   2.0000      -0.481343       -13.0980
  52   2.0000      -0.474074       -12.9002
  53   2.0000      -0.469319       -12.7708
  54   2.0000      -0.456754       -12.4289
  55   2.0000      -0.448382       -12.2011
  56   2.0000      -0.444554       -12.0969
  57   2.0000      -0.437691       -11.9102
  58   2.0000      -0.432621       -11.7722
  59   2.0000      -0.426419       -11.6035
  60   2.0000      -0.422216       -11.4891
  61   2.0000      -0.400065       -10.8863
  62   2.0000      -0.398584       -10.8460
  63   2.0000      -0.351189        -9.5563
  64   2.0000      -0.330644        -8.9973
  65   2.0000      -0.323991        -8.8162
  66   2.0000      -0.291764        -7.9393
  67   0.0000       0.027241         0.7413
  68   0.0000       0.075890         2.0651
  69   0.0000       0.107071         2.9136
  70   0.0000       0.127876         3.4797
  71   0.0000       0.130393         3.5482

MULLIKEN ATOMIC CHARGES
-----------------------
   0 S :    0.090045
   1 C :   -0.128548
   2 C :   -0.093976
   3 C :    0.032080
   4 C :   -0.132082
   5 H :    0.011622
   6 C :    0.040869
   7 H :    0.037925
   8 H :    0.036519
   9 C :   -0.054136
  10 H :    0.001337
  11 H :    0.018129
  12 C :   -0.011436
  13 H :    0.029221
  14 H :    0.034680
  15 H :    0.023974
  16 S :    0.110157
  17 C :   -0.089595
  18 C :   -0.037269
  19 C :   -0.069446
  20 C :   -0.150318
  21 H :    0.025762
  22 C :    0.135105
  23 H :    0.004275
  24 H :    0.017403
  25 C :   -0.069626
  26 H :    0.014820
  27 H :    0.039457
  28 C :   -0.062553
  29 H :    0.031009
  30 H :    0.028731
  31 H :    0.037259
  32 H :    0.046370
  33 H :    0.052235
Sum of atomic charges:   -0.0000000

LOEWDIN ATOMIC CHARGES
----------------------
   0 S :    0.363795
   1 C :   -0.184509
   2 C :   -0.058388
   3 C :   -0.062103
   4 C :   -0.174573
   5 H :    0.029814
   6 C :   -0.027299
   7 H :    0.033084
   8 H :    0.035665
   9 C :   -0.042576
  10 H :    0.011485
  11 H :    0.024656
  12 C :   -0.053887
  13 H :    0.019377
  14 H :    0.028651
  15 H :    0.023382
  16 S :    0.420656
  17 C :   -0.180979
  18 C :   -0.074203
  19 C :   -0.043116
  20 C :   -0.220954
  21 H :    0.037492
  22 C :   -0.023185
  23 H :    0.027738
  24 H :    0.022980
  25 C :   -0.055394
  26 H :    0.022231
  27 H :    0.036033
  28 C :   -0.068836
  29 H :    0.020073
  30 H :    0.026762
  31 H :    0.034459
  32 H :    0.020842
  33 H :    0.030829

  Mayer bond orders larger than 0.100000
B(  0-S ,  1-C ) :   1.1271 B(  0-S ,  4-C ) :   1.1212 B(  1-C ,  2-C ) :   1.6121
B(  1-C , 32-H ) :   0.9708 B(  2-C ,  3-C ) :   1.2505 B(  2-C ,  6-C ) :   0.9961
B(  3-C ,  4-C ) :   1.5944 B(  3-C ,  5-H ) :   0.9887 B(  4-C , 20-C ) :   1.0484
B(  6-C ,  7-H ) :   0.9460 B(  6-C ,  8-H ) :   0.9499 B(  6-C ,  9-C ) :   1.0724
B(  9-C , 10-H ) :   0.9473 B(  9-C , 11-H ) :   0.9518 B(  9-C , 12-C ) :   1.0834
B( 12-C , 13-H ) :   0.9690 B( 12-C , 14-H ) :   0.9704 B( 12-C , 15-H ) :   0.9752
B( 16-S , 17-C ) :   1.1377 B( 16-S , 20-C ) :   1.1527 B( 17-C , 18-C ) :   1.6631
B( 17-C , 33-H ) :   0.9612 B( 18-C , 19-C ) :   1.2113 B( 18-C , 21-H ) :   0.9890
B( 19-C , 20-C ) :   1.5812 B( 19-C , 22-C ) :   1.0346 B( 22-C , 23-H ) :   0.9354
B( 22-C , 24-H ) :   0.9298 B( 22-C , 25-C ) :   1.0401 B( 25-C , 26-H ) :   0.9412
B( 25-C , 27-H ) :   0.9589 B( 25-C , 28-C ) :   1.1157 B( 28-C , 29-H ) :   0.9722
B( 28-C , 30-H ) :   0.9672 B( 28-C , 31-H ) :   0.9710

Dispersion correction           -0.014016885
FINAL SINGLE POINT ENERGY     -1339.850636819492

DIPOLE MOMENT
-------------
                                X             Y             Z
Electronic contribution:     19.63377       6.87317      17.36770
Nuclear contribution   :    -20.18246      -7.31453     -17.55730
                        -----------------------------------------
Total Dipole Moment    :     -0.54869      -0.44136      -0.18960
                        -----------------------------------------
Magnitude (a.u.)       :      0.72925
Magnitude (Debye)      :      1.85361

Rotational constants in cm-1:     0.019004     0.008527     0.006584
Rotational constants in MHz :   569.733213   255.620250   197.375149

                             ****ORCA TERMINATED NORMALLY****
TOTAL RUN TIME: 0 days 0 hours 0 minutes 21 seconds 262 msec
