                         Program Version 4.2.1 -  RELEASE  -
|  1> ! wB97X-D3 SP def2-SVP
|  2> %pal
|  3> nprocs 24
|  4> end
|  5>
|  6> * xyz 0 1
|  7> S 	 -38.1309 	 6.92963 	 -5.14798
|  8> C 	 -37.6717 	 5.27536 	 -5.2902
|  9> C 	 -37.6921 	 4.6628 	 -4.02283
| 10> C 	 -38.11 	 5.5997 	 -2.97658
| 11> C 	 -38.1918 	 6.88261 	 -3.37347
| 12> H 	 -38.2078 	 5.31671 	 -1.95894
| 13> C 	 -37.4525 	 3.21451 	 -3.7957
| 14> H 	 -38.228 	 2.56158 	 -4.25095
| 15> H 	 -37.5328 	 3.05944 	 -2.72095
| 16> C 	 -36.1051 	 2.76334 	 -4.41166
| 17> H 	 -36.2202 	 2.95082 	 -5.49696
| 18> H 	 -35.2805 	 3.37734 	 -4.19921
| 19> C 	 -35.7424 	 1.23768 	 -4.30075
| 20> H 	 -35.2476 	 1.10526 	 -3.2915
| 21> H 	 -36.5087 	 0.453181 	 -4.58139
| 22> H 	 -34.8006 	 1.16509 	 -4.91946
| 23> S 	 -39.6322 	 9.12231 	 -3.28893
| 24> C 	 -39.5281 	 10.261 	 -2.0313
| 25> C 	 -39.026 	 9.68312 	 -0.890883
| 26> C 	 -38.3814 	 8.38977 	 -1.16127
| 27> C 	 -38.6092 	 8.00232 	 -2.52509
| 28> H 	 -39.0013 	 10.2597 	 0.0468153
| 29> C 	 -37.573 	 7.62342 	 -0.133013
| 30> H 	 -37.3904 	 6.61492 	 -0.446891
| 31> H 	 -38.2683 	 7.58382 	 0.737525
| 32> C 	 -36.2054 	 8.21172 	 0.147228
| 33> H 	 -35.7091 	 7.81053 	 1.05933
| 34> H 	 -36.2451 	 9.32653 	 0.313492
| 35> C 	 -35.1987 	 7.91159 	 -0.93835
| 36> H 	 -35.1116 	 6.85751 	 -1.03516
| 37> H 	 -34.1609 	 8.21443 	 -0.691741
| 38> H 	 -35.5511 	 8.25892 	 -1.91361
| 39> H 	 -37.5296 	 4.73437 	 -6.1897
| 40> H 	 -40.0178 	 11.2818 	 -2.07759
| 41> *
| 42>
| 43>                          ****END OF INPUT****

CARTESIAN COORDINATES (ANGSTROEM)
---------------------------------
  S    -38.130900    6.929630   -5.147980
  C    -37.671700    5.275360   -5.290200
  C    -37.692100    4.662800   -4.022830
  C    -38.110000    5.599700   -2.976580
  C    -38.191800    6.882610   -3.373470
  H    -38.207800    5.316710   -1.958940
  C    -37.452500    3.214510   -3.795700
  H    -38.228000    2.561580   -4.250950
  H    -37.532800    3.059440   -2.720950
  C    -36.105100    2.763340   -4.411660
  H    -36.220200    2.950820   -5.496960
  H    -35.280500    3.377340   -4.199210
  C    -35.742400    1.237680   -4.300750
  H    -35.247600    1.105260   -3.291500
  H    -36.508700    0.453181   -4.581390
  H    -34.800600    1.165090   -4.919460
  S    -39.632200    9.122310   -3.288930
  C    -39.528100   10.261000   -2.031300
  C    -39.026000    9.683120   -0.890883
  C    -38.381400    8.389770   -1.161270
  C    -38.609200    8.002320   -2.525090
  H    -39.001300   10.259700    0.046815
  C    -37.573000    7.623420   -0.133013
  H    -37.390400    6.614920   -0.446891
  H    -38.268300    7.583820    0.737525
  C    -36.205400    8.211720    0.147228
  H    -35.709100    7.810530    1.059330
  H    -36.245100    9.326530    0.313492
  C    -35.198700    7.911590   -0.938350
  H    -35.111600    6.857510   -1.035160
  H    -34.160900    8.214430   -0.691741
  H    -35.551100    8.258920   -1.913610
  H    -37.529600    4.734370   -6.189700
  H    -40.017800   11.281800   -2.077590

 Total Charge           Charge          ....    0
 Multiplicity           Mult            ....    1
 Number of Electrons    NEL             ....  134
 Basis Dimension        Dim             ....  322

ORBITAL ENERGIES
----------------

  NO   OCC          E(Eh)            E(eV)
   0   2.0000     -88.966627     -2420.9050
   1   2.0000     -88.962269     -2420.7864
   2   2.0000     -10.330190      -281.0988
   3   2.0000     -10.328887      -281.0633
   4   2.0000     -10.317198      -280.7452
   5   2.0000     -10.313706      -280.6502
   6   2.0000     -10.313519      -280.6451
   7   2.0000     -10.302744      -280.3519
   8   2.0000     -10.299835      -280.2728
   9   2.0000     -10.294425      -280.1256
  10   2.0000     -10.294423      -280.1255
  11   2.0000     -10.292992      -280.0866
  12   2.0000     -10.291447      -280.0445
  13   2.0000     -10.289474      -279.9908
  14   2.0000     -10.287163      -279.9279
  15   2.0000     -10.269258      -279.4407
  16   2.0000      -8.081160      -219.8995
  17   2.0000      -8.079139      -219.8445
  18   2.0000      -6.039837      -164.3523
  19   2.0000      -6.037506      -164.2889
  20   2.0000      -6.035684      -164.2393
  21   2.0000      -6.033223      -164.1723
  22   2.0000      -6.031747      -164.1322
  23   2.0000      -6.030048      -164.0859
  24   2.0000      -1.011881       -27.5347
  25   2.0000      -0.987470       -26.8704
  26   2.0000      -0.914575       -24.8868
  27   2.0000      -0.909991       -24.7621
  28   2.0000      -0.871123       -23.7045
  29   2.0000      -0.851318       -23.1655
  30   2.0000      -0.842908       -22.9367
  31   2.0000      -0.818245       -22.2656
  32   2.0000      -0.779985       -21.2245
  33   2.0000      -0.767187       -20.8762
  34   2.0000      -0.708269       -19.2730
  35   2.0000      -0.699945       -19.0465
  36   2.0000      -0.687436       -18.7061
  37   2.0000      -0.658854       -17.9283
  38   2.0000      -0.639727       -17.4079
  39   2.0000      -0.623141       -16.9565
  40   2.0000      -0.598053       -16.2739
  41   2.0000      -0.566208       -15.4073
  42   2.0000      -0.559997       -15.2383
  43   2.0000      -0.558833       -15.2066
  44   2.0000      -0.539770       -14.6879
  45   2.0000      -0.521247       -14.1838
  46   2.0000      -0.518042       -14.0966
  47   2.0000      -0.509079       -13.8527
  48   2.0000      -0.504369       -13.7246
  49   2.0000      -0.501746       -13.6532
  50   2.0000      -0.494017       -13.4429
  51   2.0000      -0.476500       -12.9662
  52   2.0000      -0.472356       -12.8535
  53   2.0000      -0.467048       -12.7090
  54   2.0000      -0.460605       -12.5337
  55   2.0000      -0.450110       -12.2481
  56   2.0000      -0.445825       -12.1315
  57   2.0000      -0.441184       -12.0052
  58   2.0000      -0.433143       -11.7864
  59   2.0000      -0.422808       -11.5052
  60   2.0000      -0.416612       -11.3366
  61   2.0000      -0.409148       -11.1335
  62   2.0000      -0.405508       -11.0344
  63   2.0000      -0.359828        -9.7914
  64   2.0000      -0.328983        -8.9521
  65   2.0000      -0.322338        -8.7713
  66   2.0000      -0.287227        -7.8158
  67   0.0000       0.023617         0.6427
  68   0.0000       0.080798         2.1986
  69   0.0000       0.099929         2.7192
  70   0.0000       0.122809         3.3418
  71   0.0000       0.133781         3.6404

MULLIKEN ATOMIC CHARGES
-----------------------
   0 S :    0.108892
   1 C :   -0.108245
   2 C :   -0.111185
   3 C :    0.019598
   4 C :   -0.099765
   5 H :    0.007602
   6 C :    0.102452
   7 H :    0.039320
   8 H :    0.012469
   9 C :   -0.110305
  10 H :    0.021371
  11 H :    0.022692
  12 C :   -0.076767
  13 H :    0.037995
  14 H :    0.063669
  15 H :    0.034886
  16 S :    0.107813
  17 C :   -0.120837
  18 C :   -0.038048
  19 C :   -0.083911
  20 C :   -0.151395
  21 H :    0.033290
  22 C :    0.091751
  23 H :    0.000196
  24 H :    0.042651
  25 C :   -0.080088
  26 H :    0.027824
  27 H :    0.033449
  28 C :   -0.041527
  29 H :    0.007763
  30 H :    0.036819
  31 H :    0.041769
  32 H :    0.045547
  33 H :    0.082257
Sum of atomic charges:    0.0000000

LOEWDIN ATOMIC CHARGES
----------------------
   0 S :    0.404161
   1 C :   -0.199461
   2 C :   -0.060596
   3 C :   -0.058137
   4 C :   -0.190027
   5 H :    0.023778
   6 C :   -0.037325
   7 H :    0.037449
   8 H :    0.024843
   9 C :   -0.040746
  10 H :    0.022642
  11 H :    0.019719
  12 C :   -0.083607
  13 H :    0.030776
  14 H :    0.035663
  15 H :    0.034031
  16 S :    0.443862
  17 C :   -0.213122
  18 C :   -0.076222
  19 C :   -0.054873
  20 C :   -0.211224
  21 H :    0.036373
  22 C :   -0.034649
  23 H :    0.023221
  24 H :    0.041361
  25 C :   -0.046600
  26 H :    0.026401
  27 H :    0.025352
  28 C :   -0.065007
  29 H :    0.016720
  30 H :    0.030436
  31 H :    0.027210
  32 H :    0.023662
  33 H :    0.043936

  Mayer bond orders larger than 0.100000
B(  0-S ,  1-C ) :   1.1418 B(  0-S ,  4-C ) :   1.1329 B(  1-C ,  2-C ) :   1.5828
B(  1-C , 32-H ) :   0.9749 B(  2-C ,  3-C ) :   1.2430 B(  2-C ,  6-C ) :   1.0394
B(  3-C ,  4-C ) :   1.5755 B(  3-C ,  5-H ) :   0.9931 B(  4-C , 20-C ) :   1.0599
B(  6-C ,  7-H ) :   0.9323 B(  6-C ,  8-H ) :   0.9427 B(  6-C ,  9-C ) :   1.0465
B(  9-C , 10-H ) :   0.9560 B(  9-C , 11-H ) :   0.9604 B(  9-C , 12-C ) :   1.0780
B( 12-C , 13-H ) :   0.9745 B( 12-C , 14-H ) :   0.9718 B( 12-C , 15-H ) :   0.9719
B( 16-S , 17-C ) :   1.1709 B( 16-S , 20-C ) :   1.1710 B( 17-C , 18-C ) :   1.5956
B( 17-C , 33-H ) :   0.9602 B( 18-C , 19-C ) :   1.2482 B( 18-C , 21-H ) :   0.9856
B( 19-C , 20-C ) :   1.5459 B( 19-C , 22-C ) :   1.0447 B( 22-C , 23-H ) :   0.9353
B( 22-C , 24-H ) :   0.9298 B( 22-C , 25-C ) :   1.0647 B( 25-C , 26-H ) :   0.9535
B( 25-C , 27-H ) :   0.9582 B( 25-C , 28-C ) :   1.0778 B( 28-C , 29-H ) :   0.9694
B( 28-C , 30-H ) :   0.9717 B( 28-C , 31-H ) :   0.9759

Dispersion correction           -0.014253949
FINAL SINGLE POINT ENERGY     -1339.869394047294

DIPOLE MOMENT
-------------
                                X             Y             Z
Electronic contribution:    -18.41652      19.22056     -10.61772
Nuclear contribution   :     18.60290     -19.61612      11.01754
                        -----------------------------------------
Total Dipole Moment    :      0.18639      -0.39556       0.39982
                        -----------------------------------------
Magnitude (a.u.)       :      0.59251
Magnitude (Debye)      :      1.50604

Rotational constants in cm-1:     0.021689     0.008064     0.006422
Rotational constants in MHz :   650.217733   241.749592   192.516404

                             ****ORCA TERMINATED NORMALLY****
TOTAL RUN TIME: 0 days 0 hours 0 minutes 21 seconds 493 msec
