                         Program Version 4.2.1 -  RELEASE  -
|  1> ! wB97X-D3 SP def2-SVP
|  2> %pal
|  3> nprocs 24
|  4> end
|  5>
|  6> * xyz 0 1
|  7> S 	 25.7183 	 -22.9987 	 -123.159
|  8> C 	 26.114 	 -22.8155 	 -124.838
|  9> C 	 24.9728 	 -22.8141 	 -125.655
| 10> C 	 23.7738 	 -22.7937 	 -124.893
| 11> C 	 23.9685 	 -22.8933 	 -123.532
| 12> H 	 22.7004 	 -22.7487 	 -125.197
| 13> C 	 25.0768 	 -22.749 	 -127.163
| 14> H 	 26.0403 	 -22.2056 	 -127.445
| 15> H 	 24.3548 	 -22.0238 	 -127.442
| 16> C 	 24.8442 	 -23.9586 	 -127.967
| 17> H 	 23.8179 	 -24.2489 	 -127.764
| 18> H 	 24.9152 	 -23.5019 	 -128.968
| 19> C 	 25.6755 	 -25.2679 	 -127.761
| 20> H 	 25.8465 	 -25.5544 	 -126.721
| 21> H 	 25.2285 	 -26.178 	 -128.265
| 22> H 	 26.6158 	 -25.0602 	 -128.207
| 23> S 	 22.7133 	 -24.5587 	 -121.719
| 24> C 	 21.5299 	 -23.8224 	 -120.681
| 25> C 	 21.3334 	 -22.4952 	 -121.007
| 26> C 	 22.0917 	 -21.9794 	 -122.098
| 27> C 	 22.9843 	 -22.946 	 -122.465
| 28> H 	 20.6301 	 -21.8703 	 -120.385
| 29> C 	 22.1439 	 -20.4502 	 -122.493
| 30> H 	 21.1771 	 -20.2836 	 -122.861
| 31> H 	 22.878 	 -20.1253 	 -123.287
| 32> C 	 22.2554 	 -19.378 	 -121.371
| 33> H 	 21.5292 	 -19.5617 	 -120.561
| 34> H 	 22.0547 	 -18.3688 	 -121.764
| 35> C 	 23.6433 	 -19.3976 	 -120.653
| 36> H 	 23.6595 	 -18.8383 	 -119.66
| 37> H 	 24.4528 	 -18.8899 	 -121.204
| 38> H 	 24.0196 	 -20.3979 	 -120.494
| 39> H 	 27.0976 	 -22.7971 	 -125.273
| 40> H 	 21.0247 	 -24.3309 	 -119.89
| 41> *
| 42>
| 43>                          ****END OF INPUT****

CARTESIAN COORDINATES (ANGSTROEM)
---------------------------------
  S     25.718300  -22.998700  -123.159000
  C     26.114000  -22.815500  -124.838000
  C     24.972800  -22.814100  -125.655000
  C     23.773800  -22.793700  -124.893000
  C     23.968500  -22.893300  -123.532000
  H     22.700400  -22.748700  -125.197000
  C     25.076800  -22.749000  -127.163000
  H     26.040300  -22.205600  -127.445000
  H     24.354800  -22.023800  -127.442000
  C     24.844200  -23.958600  -127.967000
  H     23.817900  -24.248900  -127.764000
  H     24.915200  -23.501900  -128.968000
  C     25.675500  -25.267900  -127.761000
  H     25.846500  -25.554400  -126.721000
  H     25.228500  -26.178000  -128.265000
  H     26.615800  -25.060200  -128.207000
  S     22.713300  -24.558700  -121.719000
  C     21.529900  -23.822400  -120.681000
  C     21.333400  -22.495200  -121.007000
  C     22.091700  -21.979400  -122.098000
  C     22.984300  -22.946000  -122.465000
  H     20.630100  -21.870300  -120.385000
  C     22.143900  -20.450200  -122.493000
  H     21.177100  -20.283600  -122.861000
  H     22.878000  -20.125300  -123.287000
  C     22.255400  -19.378000  -121.371000
  H     21.529200  -19.561700  -120.561000
  H     22.054700  -18.368800  -121.764000
  C     23.643300  -19.397600  -120.653000
  H     23.659500  -18.838300  -119.660000
  H     24.452800  -18.889900  -121.204000
  H     24.019600  -20.397900  -120.494000
  H     27.097600  -22.797100  -125.273000
  H     21.024700  -24.330900  -119.890000

 Total Charge           Charge          ....    0
 Multiplicity           Mult            ....    1
 Number of Electrons    NEL             ....  134
 Basis Dimension        Dim             ....  322

ORBITAL ENERGIES
----------------

  NO   OCC          E(Eh)            E(eV)
   0   2.0000     -88.966574     -2420.9036
   1   2.0000     -88.964562     -2420.8488
   2   2.0000     -10.326913      -281.0096
   3   2.0000     -10.325691      -280.9763
   4   2.0000     -10.316381      -280.7230
   5   2.0000     -10.312389      -280.6144
   6   2.0000     -10.310142      -280.5532
   7   2.0000     -10.301211      -280.3102
   8   2.0000     -10.299633      -280.2673
   9   2.0000     -10.299005      -280.2502
  10   2.0000     -10.297534      -280.2102
  11   2.0000     -10.294671      -280.1322
  12   2.0000     -10.289120      -279.9812
  13   2.0000     -10.285197      -279.8744
  14   2.0000     -10.278809      -279.7006
  15   2.0000     -10.276639      -279.6416
  16   2.0000      -8.081064      -219.8969
  17   2.0000      -8.078836      -219.8363
  18   2.0000      -6.039523      -164.3438
  19   2.0000      -6.037259      -164.2822
  20   2.0000      -6.035756      -164.2413
  21   2.0000      -6.033407      -164.1773
  22   2.0000      -6.031736      -164.1319
  23   2.0000      -6.029719      -164.0770
  24   2.0000      -1.003717       -27.3125
  25   2.0000      -0.981387       -26.7049
  26   2.0000      -0.914382       -24.8816
  27   2.0000      -0.901033       -24.5183
  28   2.0000      -0.866426       -23.5767
  29   2.0000      -0.846872       -23.0446
  30   2.0000      -0.843021       -22.9398
  31   2.0000      -0.809698       -22.0330
  32   2.0000      -0.786216       -21.3940
  33   2.0000      -0.776985       -21.1428
  34   2.0000      -0.706102       -19.2140
  35   2.0000      -0.693514       -18.8715
  36   2.0000      -0.690615       -18.7926
  37   2.0000      -0.654116       -17.7994
  38   2.0000      -0.640294       -17.4233
  39   2.0000      -0.612674       -16.6717
  40   2.0000      -0.599698       -16.3186
  41   2.0000      -0.566071       -15.4036
  42   2.0000      -0.548329       -14.9208
  43   2.0000      -0.547991       -14.9116
  44   2.0000      -0.539640       -14.6843
  45   2.0000      -0.535319       -14.5668
  46   2.0000      -0.516421       -14.0525
  47   2.0000      -0.508958       -13.8495
  48   2.0000      -0.494103       -13.4452
  49   2.0000      -0.488786       -13.3005
  50   2.0000      -0.487700       -13.2710
  51   2.0000      -0.474216       -12.9041
  52   2.0000      -0.470331       -12.7984
  53   2.0000      -0.467580       -12.7235
  54   2.0000      -0.461455       -12.5568
  55   2.0000      -0.444833       -12.1045
  56   2.0000      -0.443170       -12.0593
  57   2.0000      -0.438424       -11.9301
  58   2.0000      -0.433984       -11.8093
  59   2.0000      -0.423277       -11.5180
  60   2.0000      -0.416359       -11.3297
  61   2.0000      -0.414344       -11.2749
  62   2.0000      -0.402480       -10.9520
  63   2.0000      -0.340021        -9.2525
  64   2.0000      -0.335767        -9.1367
  65   2.0000      -0.325781        -8.8649
  66   2.0000      -0.299114        -8.1393
  67   0.0000       0.037597         1.0231
  68   0.0000       0.058855         1.6015
  69   0.0000       0.114207         3.1077
  70   0.0000       0.123331         3.3560
  71   0.0000       0.127235         3.4622

MULLIKEN ATOMIC CHARGES
-----------------------
   0 S :    0.110358
   1 C :   -0.103589
   2 C :   -0.106066
   3 C :    0.046385
   4 C :   -0.195569
   5 H :    0.028722
   6 C :    0.057344
   7 H :    0.022302
   8 H :    0.014275
   9 C :   -0.060249
  10 H :    0.021548
  11 H :    0.036815
  12 C :   -0.049266
  13 H :    0.043983
  14 H :    0.045412
  15 H :    0.019727
  16 S :    0.112481
  17 C :   -0.076628
  18 C :   -0.065787
  19 C :    0.016724
  20 C :   -0.198456
  21 H :    0.033177
  22 C :    0.076986
  23 H :    0.017295
  24 H :    0.054734
  25 C :   -0.079682
  26 H :    0.029010
  27 H :    0.037866
  28 C :   -0.086561
  29 H :    0.037912
  30 H :    0.028064
  31 H :    0.039708
  32 H :    0.041826
  33 H :    0.049199
Sum of atomic charges:    0.0000000

LOEWDIN ATOMIC CHARGES
----------------------
   0 S :    0.394378
   1 C :   -0.198760
   2 C :   -0.068546
   3 C :   -0.063799
   4 C :   -0.189763
   5 H :    0.042885
   6 C :   -0.039566
   7 H :    0.032792
   8 H :    0.030036
   9 C :   -0.044524
  10 H :    0.022405
  11 H :    0.032932
  12 C :   -0.067747
  13 H :    0.028750
  14 H :    0.035925
  15 H :    0.017717
  16 S :    0.390781
  17 C :   -0.184731
  18 C :   -0.075664
  19 C :   -0.051905
  20 C :   -0.186351
  21 H :    0.035920
  22 C :   -0.025029
  23 H :    0.026107
  24 H :    0.042850
  25 C :   -0.040411
  26 H :    0.022678
  27 H :    0.029183
  28 C :   -0.079145
  29 H :    0.031186
  30 H :    0.023588
  31 H :    0.024105
  32 H :    0.025917
  33 H :    0.025806

  Mayer bond orders larger than 0.100000
B(  0-S ,  1-C ) :   1.1478 B(  0-S ,  4-C ) :   1.1418 B(  1-C ,  2-C ) :   1.6025
B(  1-C ,  4-C ) :   0.1033 B(  1-C , 32-H ) :   0.9692 B(  2-C ,  3-C ) :   1.2276
B(  2-C ,  6-C ) :   1.0153 B(  3-C ,  4-C ) :   1.6019 B(  3-C ,  5-H ) :   0.9882
B(  4-C , 20-C ) :   1.0168 B(  6-C ,  7-H ) :   0.9409 B(  6-C ,  8-H ) :   0.9288
B(  6-C ,  9-C ) :   1.0815 B(  9-C , 10-H ) :   0.9533 B(  9-C , 11-H ) :   0.9546
B(  9-C , 12-C ) :   1.0651 B( 12-C , 13-H ) :   0.9750 B( 12-C , 14-H ) :   0.9763
B( 12-C , 15-H ) :   0.9766 B( 16-S , 17-C ) :   1.1353 B( 16-S , 20-C ) :   1.1444
B( 17-C , 18-C ) :   1.6427 B( 17-C , 33-H ) :   0.9715 B( 18-C , 19-C ) :   1.2080
B( 18-C , 21-H ) :   0.9752 B( 19-C , 20-C ) :   1.6277 B( 19-C , 22-C ) :   1.0204
B( 22-C , 23-H ) :   0.9210 B( 22-C , 24-H ) :   0.9501 B( 22-C , 25-C ) :   1.0808
B( 25-C , 26-H ) :   0.9549 B( 25-C , 27-H ) :   0.9554 B( 25-C , 28-C ) :   1.0619
B( 28-C , 29-H ) :   0.9771 B( 28-C , 30-H ) :   0.9765 B( 28-C , 31-H ) :   0.9787

Dispersion correction           -0.014652503
FINAL SINGLE POINT ENERGY     -1339.870989264293

DIPOLE MOMENT
-------------
                                X             Y             Z
Electronic contribution:     -0.40911     -11.17776      12.22863
Nuclear contribution   :      0.12726      11.56024     -12.52905
                        -----------------------------------------
Total Dipole Moment    :     -0.28185       0.38248      -0.30043
                        -----------------------------------------
Magnitude (a.u.)       :      0.56213
Magnitude (Debye)      :      1.42881

Rotational constants in cm-1:     0.021710     0.007810     0.006901
Rotational constants in MHz :   650.847026   234.129270   206.882997

                             ****ORCA TERMINATED NORMALLY****
TOTAL RUN TIME: 0 days 0 hours 0 minutes 22 seconds 429 msec
