                         Program Version 4.2.1 -  RELEASE  -
|  1> ! wB97X-D3 SP def2-SVP
|  2> %pal
|  3> nprocs 24
|  4> end
|  5>
|  6> * xyz 0 1
|  7> S 	 -70.9761 	 16.1471 	 -76.2807
|  8> C 	 -69.8322 	 15.1662 	 -77.2737
|  9> C 	 -68.4859 	 15.5948 	 -77.0496
| 10> C 	 -68.3625 	 16.5306 	 -76.0211
| 11> C 	 -69.5763 	 16.8831 	 -75.4074
| 12> H 	 -67.5055 	 16.8578 	 -75.5616
| 13> C 	 -67.2933 	 14.9783 	 -77.7115
| 14> H 	 -67.3597 	 13.9183 	 -77.6092
| 15> H 	 -66.5562 	 15.1033 	 -76.9395
| 16> C 	 -66.948 	 15.4447 	 -79.085
| 17> H 	 -66.1478 	 14.8262 	 -79.4977
| 18> H 	 -67.7611 	 15.2185 	 -79.7892
| 19> C 	 -66.4196 	 16.9084 	 -79.1972
| 20> H 	 -67.0967 	 17.6239 	 -78.6589
| 21> H 	 -65.3951 	 17.0161 	 -78.8251
| 22> H 	 -66.4936 	 17.3687 	 -80.1464
| 23> S 	 -71.0727 	 18.8482 	 -74.24
| 24> C 	 -70.7533 	 19.4544 	 -72.6382
| 25> C 	 -69.5461 	 18.9658 	 -72.2666
| 26> C 	 -68.9331 	 18.0117 	 -73.1371
| 27> C 	 -69.7056 	 17.8029 	 -74.2981
| 28> H 	 -69.1445 	 19.2609 	 -71.3014
| 29> C 	 -67.6665 	 17.2738 	 -72.7292
| 30> H 	 -67.6286 	 16.3784 	 -73.3268
| 31> H 	 -67.7835 	 17.1462 	 -71.6285
| 32> C 	 -66.2938 	 17.944 	 -72.9348
| 33> H 	 -66.1963 	 18.8551 	 -72.279
| 34> H 	 -66.3454 	 18.3295 	 -74.0001
| 35> C 	 -65.0745 	 17.098 	 -72.7333
| 36> H 	 -64.9796 	 16.8448 	 -71.6867
| 37> H 	 -64.1345 	 17.6639 	 -72.9889
| 38> H 	 -64.9958 	 16.2682 	 -73.5105
| 39> H 	 -70.1974 	 14.4274 	 -77.9673
| 40> H 	 -71.2839 	 20.1039 	 -71.9696
| 41> *
| 42>
| 43>                          ****END OF INPUT****

CARTESIAN COORDINATES (ANGSTROEM)
---------------------------------
  S    -70.976100   16.147100  -76.280700
  C    -69.832200   15.166200  -77.273700
  C    -68.485900   15.594800  -77.049600
  C    -68.362500   16.530600  -76.021100
  C    -69.576300   16.883100  -75.407400
  H    -67.505500   16.857800  -75.561600
  C    -67.293300   14.978300  -77.711500
  H    -67.359700   13.918300  -77.609200
  H    -66.556200   15.103300  -76.939500
  C    -66.948000   15.444700  -79.085000
  H    -66.147800   14.826200  -79.497700
  H    -67.761100   15.218500  -79.789200
  C    -66.419600   16.908400  -79.197200
  H    -67.096700   17.623900  -78.658900
  H    -65.395100   17.016100  -78.825100
  H    -66.493600   17.368700  -80.146400
  S    -71.072700   18.848200  -74.240000
  C    -70.753300   19.454400  -72.638200
  C    -69.546100   18.965800  -72.266600
  C    -68.933100   18.011700  -73.137100
  C    -69.705600   17.802900  -74.298100
  H    -69.144500   19.260900  -71.301400
  C    -67.666500   17.273800  -72.729200
  H    -67.628600   16.378400  -73.326800
  H    -67.783500   17.146200  -71.628500
  C    -66.293800   17.944000  -72.934800
  H    -66.196300   18.855100  -72.279000
  H    -66.345400   18.329500  -74.000100
  C    -65.074500   17.098000  -72.733300
  H    -64.979600   16.844800  -71.686700
  H    -64.134500   17.663900  -72.988900
  H    -64.995800   16.268200  -73.510500
  H    -70.197400   14.427400  -77.967300
  H    -71.283900   20.103900  -71.969600

 Total Charge           Charge          ....    0
 Multiplicity           Mult            ....    1
 Number of Electrons    NEL             ....  134
 Basis Dimension        Dim             ....  322

ORBITAL ENERGIES
----------------

  NO   OCC          E(Eh)            E(eV)
   0   2.0000     -88.972231     -2421.0575
   1   2.0000     -88.963964     -2420.8325
   2   2.0000     -10.337689      -281.3028
   3   2.0000     -10.329122      -281.0697
   4   2.0000     -10.324237      -280.9368
   5   2.0000     -10.312602      -280.6202
   6   2.0000     -10.305501      -280.4269
   7   2.0000     -10.304327      -280.3950
   8   2.0000     -10.293310      -280.0952
   9   2.0000     -10.293133      -280.0904
  10   2.0000     -10.291913      -280.0572
  11   2.0000     -10.290605      -280.0216
  12   2.0000     -10.288878      -279.9746
  13   2.0000     -10.287969      -279.9499
  14   2.0000     -10.285847      -279.8921
  15   2.0000     -10.278500      -279.6922
  16   2.0000      -8.084836      -219.9996
  17   2.0000      -8.079211      -219.8465
  18   2.0000      -6.043375      -164.4486
  19   2.0000      -6.039661      -164.3475
  20   2.0000      -6.037831      -164.2977
  21   2.0000      -6.035665      -164.2388
  22   2.0000      -6.033471      -164.1791
  23   2.0000      -6.029985      -164.0842
  24   2.0000      -1.007400       -27.4128
  25   2.0000      -0.980017       -26.6676
  26   2.0000      -0.915166       -24.9029
  27   2.0000      -0.910038       -24.7634
  28   2.0000      -0.870305       -23.6822
  29   2.0000      -0.854432       -23.2503
  30   2.0000      -0.846864       -23.0444
  31   2.0000      -0.817996       -22.2588
  32   2.0000      -0.784712       -21.3531
  33   2.0000      -0.772138       -21.0110
  34   2.0000      -0.712871       -19.3982
  35   2.0000      -0.707463       -19.2511
  36   2.0000      -0.686786       -18.6884
  37   2.0000      -0.663777       -18.0623
  38   2.0000      -0.643900       -17.5214
  39   2.0000      -0.620351       -16.8806
  40   2.0000      -0.592245       -16.1158
  41   2.0000      -0.574540       -15.6340
  42   2.0000      -0.573341       -15.6014
  43   2.0000      -0.553489       -15.0612
  44   2.0000      -0.543717       -14.7953
  45   2.0000      -0.522391       -14.2150
  46   2.0000      -0.517055       -14.0698
  47   2.0000      -0.514451       -13.9989
  48   2.0000      -0.511327       -13.9139
  49   2.0000      -0.502345       -13.6695
  50   2.0000      -0.487852       -13.2751
  51   2.0000      -0.484877       -13.1942
  52   2.0000      -0.479306       -13.0426
  53   2.0000      -0.461485       -12.5576
  54   2.0000      -0.457753       -12.4561
  55   2.0000      -0.450395       -12.2559
  56   2.0000      -0.444552       -12.0969
  57   2.0000      -0.440961       -11.9992
  58   2.0000      -0.425479       -11.5779
  59   2.0000      -0.420625       -11.4458
  60   2.0000      -0.416004       -11.3201
  61   2.0000      -0.411575       -11.1995
  62   2.0000      -0.408630       -11.1194
  63   2.0000      -0.355376        -9.6703
  64   2.0000      -0.338010        -9.1977
  65   2.0000      -0.326586        -8.8869
  66   2.0000      -0.282668        -7.6918
  67   0.0000       0.014436         0.3928
  68   0.0000       0.074039         2.0147
  69   0.0000       0.103199         2.8082
  70   0.0000       0.119169         3.2428
  71   0.0000       0.123800         3.3688

MULLIKEN ATOMIC CHARGES
-----------------------
   0 S :    0.107149
   1 C :   -0.124918
   2 C :   -0.081313
   3 C :    0.064568
   4 C :   -0.138836
   5 H :   -0.044446
   6 C :    0.096200
   7 H :    0.018609
   8 H :   -0.002486
   9 C :   -0.034322
  10 H :    0.025911
  11 H :    0.028921
  12 C :   -0.059867
  13 H :    0.033591
  14 H :    0.038426
  15 H :    0.023773
  16 S :    0.099045
  17 C :   -0.072528
  18 C :   -0.043307
  19 C :   -0.045609
  20 C :   -0.141760
  21 H :    0.011466
  22 C :    0.071827
  23 H :    0.015630
  24 H :    0.030588
  25 C :   -0.114244
  26 H :    0.030827
  27 H :    0.034719
  28 C :   -0.045372
  29 H :    0.039848
  30 H :    0.038021
  31 H :    0.037610
  32 H :    0.053789
  33 H :    0.048490
Sum of atomic charges:   -0.0000000

LOEWDIN ATOMIC CHARGES
----------------------
   0 S :    0.371607
   1 C :   -0.176645
   2 C :   -0.054998
   3 C :   -0.052234
   4 C :   -0.169438
   5 H :    0.015206
   6 C :   -0.038753
   7 H :    0.034150
   8 H :    0.029032
   9 C :   -0.040487
  10 H :    0.027216
  11 H :    0.028029
  12 C :   -0.070976
  13 H :    0.031557
  14 H :    0.027298
  15 H :    0.022444
  16 S :    0.418497
  17 C :   -0.192144
  18 C :   -0.073083
  19 C :   -0.062835
  20 C :   -0.203658
  21 H :    0.028539
  22 C :   -0.034368
  23 H :    0.025803
  24 H :    0.035223
  25 C :   -0.055426
  26 H :    0.026418
  27 H :    0.024830
  28 C :   -0.074020
  29 H :    0.025902
  30 H :    0.035319
  31 H :    0.031392
  32 H :    0.025584
  33 H :    0.035020

  Mayer bond orders larger than 0.100000
B(  0-S ,  1-C ) :   1.1383 B(  0-S ,  4-C ) :   1.1419 B(  1-C ,  2-C ) :   1.5583
B(  1-C ,  4-C ) :   0.1140 B(  1-C , 32-H ) :   0.9750 B(  2-C ,  3-C ) :   1.2673
B(  2-C ,  6-C ) :   1.0055 B(  3-C ,  4-C ) :   1.5248 B(  3-C ,  5-H ) :   1.0030
B(  4-C , 20-C ) :   1.0927 B(  6-C ,  7-H ) :   0.9317 B(  6-C ,  8-H ) :   0.9369
B(  6-C ,  9-C ) :   1.0707 B(  9-C , 10-H ) :   0.9517 B(  9-C , 11-H ) :   0.9561
B(  9-C , 12-C ) :   1.0693 B( 12-C , 13-H ) :   0.9755 B( 12-C , 14-H ) :   0.9765
B( 12-C , 15-H ) :   0.9737 B( 16-S , 17-C ) :   1.1394 B( 16-S , 20-C ) :   1.1469
B( 17-C , 18-C ) :   1.6144 B( 17-C , 33-H ) :   0.9701 B( 18-C , 19-C ) :   1.2643
B( 18-C , 21-H ) :   0.9848 B( 19-C , 20-C ) :   1.5405 B( 19-C , 22-C ) :   1.0557
B( 22-C , 23-H ) :   0.9262 B( 22-C , 24-H ) :   0.9295 B( 22-C , 25-C ) :   1.0646
B( 25-C , 26-H ) :   0.9487 B( 25-C , 27-H ) :   0.9491 B( 25-C , 28-C ) :   1.0976
B( 28-C , 29-H ) :   0.9717 B( 28-C , 30-H ) :   0.9686 B( 28-C , 31-H ) :   0.9687

Dispersion correction           -0.014257195
FINAL SINGLE POINT ENERGY     -1339.864199754471

DIPOLE MOMENT
-------------
                                X             Y             Z
Electronic contribution:    -29.63640       4.46269       3.65007
Nuclear contribution   :     30.33397      -4.64659      -3.54943
                        -----------------------------------------
Total Dipole Moment    :      0.69757      -0.18390       0.10064
                        -----------------------------------------
Magnitude (a.u.)       :      0.72839
Magnitude (Debye)      :      1.85141

Rotational constants in cm-1:     0.016583     0.009561     0.006790
Rotational constants in MHz :   497.139040   286.623631   203.547953

                             ****ORCA TERMINATED NORMALLY****
TOTAL RUN TIME: 0 days 0 hours 0 minutes 20 seconds 560 msec
