                         Program Version 4.2.1 -  RELEASE  -
|  1> ! wB97X-D3 SP def2-SVP
|  2> %pal
|  3> nprocs 24
|  4> end
|  5>
|  6> * xyz 0 1
|  7> S 	 -111.116 	 15.4389 	 -116.211
|  8> C 	 -111.096 	 16.7158 	 -117.377
|  9> C 	 -112.294 	 16.8609 	 -117.961
| 10> C 	 -113.35 	 16.2357 	 -117.31
| 11> C 	 -112.842 	 15.5563 	 -116.206
| 12> H 	 -114.397 	 16.2737 	 -117.541
| 13> C 	 -112.517 	 17.808 	 -119.125
| 14> H 	 -111.598 	 17.9171 	 -119.633
| 15> H 	 -112.799 	 18.8542 	 -118.851
| 16> C 	 -113.532 	 17.1953 	 -120.144
| 17> H 	 -113.419 	 16.0437 	 -120.207
| 18> H 	 -114.521 	 17.4448 	 -119.791
| 19> C 	 -113.35 	 17.6318 	 -121.542
| 20> H 	 -113.645 	 18.7037 	 -121.644
| 21> H 	 -112.448 	 17.2508 	 -122.002
| 22> H 	 -114.137 	 17.2693 	 -122.159
| 23> S 	 -112.77 	 13.5913 	 -114.286
| 24> C 	 -114.163 	 13.2721 	 -113.336
| 25> C 	 -115.163 	 14.1395 	 -113.669
| 26> C 	 -114.853 	 15.1265 	 -114.668
| 27> C 	 -113.605 	 14.9103 	 -115.176
| 28> H 	 -116.057 	 14.0592 	 -113.113
| 29> C 	 -115.934 	 16.1391 	 -115.059
| 30> H 	 -115.505 	 16.8393 	 -115.718
| 31> H 	 -116.103 	 16.8338 	 -114.23
| 32> C 	 -117.276 	 15.4979 	 -115.605
| 33> H 	 -118.09 	 16.2653 	 -115.582
| 34> H 	 -117.606 	 14.7591 	 -114.858
| 35> C 	 -117.203 	 14.9124 	 -116.991
| 36> H 	 -118.081 	 14.3847 	 -117.239
| 37> H 	 -116.313 	 14.3129 	 -117.24
| 38> H 	 -117.328 	 15.7036 	 -117.693
| 39> H 	 -110.237 	 17.0726 	 -117.906
| 40> H 	 -114.33 	 12.5144 	 -112.6
| 41> *
| 42>
| 43>                          ****END OF INPUT****

CARTESIAN COORDINATES (ANGSTROEM)
---------------------------------
  S    -111.116000   15.438900  -116.211000
  C    -111.096000   16.715800  -117.377000
  C    -112.294000   16.860900  -117.961000
  C    -113.350000   16.235700  -117.310000
  C    -112.842000   15.556300  -116.206000
  H    -114.397000   16.273700  -117.541000
  C    -112.517000   17.808000  -119.125000
  H    -111.598000   17.917100  -119.633000
  H    -112.799000   18.854200  -118.851000
  C    -113.532000   17.195300  -120.144000
  H    -113.419000   16.043700  -120.207000
  H    -114.521000   17.444800  -119.791000
  C    -113.350000   17.631800  -121.542000
  H    -113.645000   18.703700  -121.644000
  H    -112.448000   17.250800  -122.002000
  H    -114.137000   17.269300  -122.159000
  S    -112.770000   13.591300  -114.286000
  C    -114.163000   13.272100  -113.336000
  C    -115.163000   14.139500  -113.669000
  C    -114.853000   15.126500  -114.668000
  C    -113.605000   14.910300  -115.176000
  H    -116.057000   14.059200  -113.113000
  C    -115.934000   16.139100  -115.059000
  H    -115.505000   16.839300  -115.718000
  H    -116.103000   16.833800  -114.230000
  C    -117.276000   15.497900  -115.605000
  H    -118.090000   16.265300  -115.582000
  H    -117.606000   14.759100  -114.858000
  C    -117.203000   14.912400  -116.991000
  H    -118.081000   14.384700  -117.239000
  H    -116.313000   14.312900  -117.240000
  H    -117.328000   15.703600  -117.693000
  H    -110.237000   17.072600  -117.906000
  H    -114.330000   12.514400  -112.600000

 Total Charge           Charge          ....    0
 Multiplicity           Mult            ....    1
 Number of Electrons    NEL             ....  134
 Basis Dimension        Dim             ....  322

ORBITAL ENERGIES
----------------

  NO   OCC          E(Eh)            E(eV)
   0   2.0000     -88.965042     -2420.8619
   1   2.0000     -88.961616     -2420.7686
   2   2.0000     -10.326330      -280.9937
   3   2.0000     -10.325982      -280.9843
   4   2.0000     -10.310535      -280.5639
   5   2.0000     -10.302748      -280.3520
   6   2.0000     -10.299088      -280.2524
   7   2.0000     -10.296493      -280.1818
   8   2.0000     -10.293888      -280.1109
   9   2.0000     -10.289004      -279.9780
  10   2.0000     -10.288749      -279.9711
  11   2.0000     -10.288004      -279.9508
  12   2.0000     -10.287684      -279.9421
  13   2.0000     -10.284505      -279.8556
  14   2.0000     -10.273777      -279.5637
  15   2.0000     -10.272582      -279.5312
  16   2.0000      -8.080704      -219.8871
  17   2.0000      -8.076558      -219.7743
  18   2.0000      -6.039098      -164.3322
  19   2.0000      -6.035458      -164.2332
  20   2.0000      -6.035228      -164.2269
  21   2.0000      -6.031172      -164.1165
  22   2.0000      -6.031110      -164.1148
  23   2.0000      -6.027083      -164.0053
  24   2.0000      -1.015316       -27.6282
  25   2.0000      -0.989221       -26.9181
  26   2.0000      -0.914227       -24.8774
  27   2.0000      -0.906382       -24.6639
  28   2.0000      -0.875884       -23.8340
  29   2.0000      -0.859219       -23.3805
  30   2.0000      -0.846805       -23.0427
  31   2.0000      -0.817648       -22.2493
  32   2.0000      -0.788902       -21.4671
  33   2.0000      -0.776320       -21.1248
  34   2.0000      -0.715235       -19.4625
  35   2.0000      -0.702812       -19.1245
  36   2.0000      -0.686431       -18.6787
  37   2.0000      -0.658881       -17.9291
  38   2.0000      -0.636509       -17.3203
  39   2.0000      -0.627054       -17.0630
  40   2.0000      -0.599449       -16.3118
  41   2.0000      -0.578926       -15.7534
  42   2.0000      -0.561244       -15.2722
  43   2.0000      -0.555048       -15.1036
  44   2.0000      -0.536480       -14.5983
  45   2.0000      -0.522242       -14.2109
  46   2.0000      -0.517422       -14.0798
  47   2.0000      -0.510615       -13.8945
  48   2.0000      -0.509248       -13.8574
  49   2.0000      -0.499594       -13.5946
  50   2.0000      -0.495215       -13.4755
  51   2.0000      -0.482066       -13.1177
  52   2.0000      -0.479899       -13.0587
  53   2.0000      -0.466266       -12.6878
  54   2.0000      -0.464634       -12.6433
  55   2.0000      -0.456419       -12.4198
  56   2.0000      -0.441830       -12.0228
  57   2.0000      -0.438878       -11.9425
  58   2.0000      -0.433484       -11.7957
  59   2.0000      -0.419973       -11.4280
  60   2.0000      -0.417130       -11.3507
  61   2.0000      -0.412627       -11.2282
  62   2.0000      -0.406534       -11.0624
  63   2.0000      -0.361628        -9.8404
  64   2.0000      -0.336637        -9.1604
  65   2.0000      -0.326080        -8.8731
  66   2.0000      -0.279953        -7.6179
  67   0.0000       0.020702         0.5633
  68   0.0000       0.081806         2.2261
  69   0.0000       0.099633         2.7111
  70   0.0000       0.123182         3.3519
  71   0.0000       0.132176         3.5967

MULLIKEN ATOMIC CHARGES
-----------------------
   0 S :    0.108049
   1 C :   -0.091540
   2 C :   -0.087801
   3 C :   -0.004790
   4 C :   -0.107656
   5 H :    0.004078
   6 C :    0.106849
   7 H :   -0.008831
   8 H :    0.047863
   9 C :   -0.149343
  10 H :    0.049177
  11 H :    0.028587
  12 C :   -0.010229
  13 H :    0.023636
  14 H :    0.041805
  15 H :    0.011257
  16 S :    0.081690
  17 C :   -0.055830
  18 C :   -0.048211
  19 C :   -0.056738
  20 C :   -0.129317
  21 H :    0.001319
  22 C :    0.099329
  23 H :   -0.010089
  24 H :    0.030372
  25 C :   -0.088078
  26 H :    0.030338
  27 H :    0.033331
  28 C :   -0.013625
  29 H :    0.017041
  30 H :    0.058416
  31 H :    0.011339
  32 H :    0.031349
  33 H :    0.046256
Sum of atomic charges:   -0.0000000

LOEWDIN ATOMIC CHARGES
----------------------
   0 S :    0.413811
   1 C :   -0.204476
   2 C :   -0.064845
   3 C :   -0.061850
   4 C :   -0.178815
   5 H :    0.029608
   6 C :   -0.026599
   7 H :    0.017612
   8 H :    0.036850
   9 C :   -0.048230
  10 H :    0.036255
  11 H :    0.018789
  12 C :   -0.073310
  13 H :    0.031262
  14 H :    0.027706
  15 H :    0.024310
  16 S :    0.382229
  17 C :   -0.187936
  18 C :   -0.069814
  19 C :   -0.057338
  20 C :   -0.175395
  21 H :    0.021627
  22 C :   -0.030218
  23 H :    0.018447
  24 H :    0.038231
  25 C :   -0.036078
  26 H :    0.029287
  27 H :    0.022568
  28 C :   -0.069369
  29 H :    0.025386
  30 H :    0.033607
  31 H :    0.022629
  32 H :    0.023465
  33 H :    0.030597

  Mayer bond orders larger than 0.100000
B(  0-S ,  1-C ) :   1.1160 B(  0-S ,  4-C ) :   1.1602 B(  1-C ,  2-C ) :   1.6436
B(  1-C , 32-H ) :   0.9621 B(  2-C ,  3-C ) :   1.2297 B(  2-C ,  6-C ) :   1.0269
B(  3-C ,  4-C ) :   1.5336 B(  3-C ,  5-H ) :   1.0052 B(  4-C , 20-C ) :   1.0980
B(  6-C ,  7-H ) :   0.9361 B(  6-C ,  8-H ) :   0.9381 B(  6-C ,  9-C ) :   1.0449
B(  9-C , 10-H ) :   0.9626 B(  9-C , 11-H ) :   0.9483 B(  9-C , 12-C ) :   1.1162
B( 12-C , 13-H ) :   0.9611 B( 12-C , 14-H ) :   0.9710 B( 12-C , 15-H ) :   0.9624
B( 16-S , 17-C ) :   1.1348 B( 16-S , 20-C ) :   1.1108 B( 17-C , 18-C ) :   1.6539
B( 17-C , 33-H ) :   0.9674 B( 18-C , 19-C ) :   1.1996 B( 18-C , 21-H ) :   0.9916
B( 19-C , 20-C ) :   1.6265 B( 19-C , 22-C ) :   1.0440 B( 22-C , 23-H ) :   0.9297
B( 22-C , 24-H ) :   0.9265 B( 22-C , 25-C ) :   1.0554 B( 25-C , 26-H ) :   0.9542
B( 25-C , 27-H ) :   0.9608 B( 25-C , 28-C ) :   1.0831 B( 28-C , 29-H ) :   0.9641
B( 28-C , 30-H ) :   0.9737 B( 28-C , 31-H ) :   0.9661

Dispersion correction           -0.014423689
FINAL SINGLE POINT ENERGY     -1339.860348287768

DIPOLE MOMENT
-------------
                                X             Y             Z
Electronic contribution:     20.02744     -11.73013      20.80962
Nuclear contribution   :    -20.75270      12.01663     -21.19259
                        -----------------------------------------
Total Dipole Moment    :     -0.72526       0.28650      -0.38297
                        -----------------------------------------
Magnitude (a.u.)       :      0.86877
Magnitude (Debye)      :      2.20823

Rotational constants in cm-1:     0.018684     0.009464     0.006716
Rotational constants in MHz :   560.124850   283.732906   201.351991

                             ****ORCA TERMINATED NORMALLY****
TOTAL RUN TIME: 0 days 0 hours 0 minutes 20 seconds 941 msec
