                         Program Version 4.2.1 -  RELEASE  -
|  1> ! wB97X-D3 SP def2-SVP
|  2> %pal
|  3> nprocs 24
|  4> end
|  5>
|  6> * xyz 0 1
|  7> S 	 -73.0664 	 17.2159 	 -77.0291
|  8> C 	 -73.3499 	 18.7882 	 -76.3112
|  9> C 	 -72.1191 	 19.4207 	 -76.206
| 10> C 	 -70.9946 	 18.5763 	 -76.5186
| 11> C 	 -71.3111 	 17.3732 	 -77.0365
| 12> H 	 -69.9972 	 19.0129 	 -76.6437
| 13> C 	 -71.9931 	 20.8234 	 -75.7291
| 14> H 	 -72.7856 	 21.3412 	 -76.3192
| 15> H 	 -71.0829 	 21.2527 	 -76.0469
| 16> C 	 -72.1515 	 20.9879 	 -74.2043
| 17> H 	 -72.6549 	 20.1361 	 -73.7328
| 18> H 	 -71.1927 	 20.887 	 -73.7876
| 19> C 	 -72.8031 	 22.2811 	 -73.7723
| 20> H 	 -72.5073 	 23.1632 	 -74.2666
| 21> H 	 -73.8492 	 22.0764 	 -74.0171
| 22> H 	 -72.626 	 22.5058 	 -72.7279
| 23> S 	 -70.0277 	 14.88 	 -76.8671
| 24> C 	 -69.1388 	 14.3725 	 -78.305
| 25> C 	 -69.142 	 15.3674 	 -79.2564
| 26> C 	 -69.83 	 16.5332 	 -78.8747
| 27> C 	 -70.5043 	 16.4063 	 -77.6946
| 28> H 	 -68.5731 	 15.1283 	 -80.1608
| 29> C 	 -69.88 	 17.812 	 -79.7483
| 30> H 	 -70.4194 	 18.5998 	 -79.2323
| 31> H 	 -70.3655 	 17.6108 	 -80.6978
| 32> C 	 -68.5043 	 18.3258 	 -80.1154
| 33> H 	 -68.6179 	 19.1825 	 -80.7232
| 34> H 	 -68.0397 	 17.5462 	 -80.8356
| 35> C 	 -67.5148 	 18.5947 	 -78.9185
| 36> H 	 -66.4776 	 18.8061 	 -79.2311
| 37> H 	 -67.4129 	 17.7168 	 -78.3145
| 38> H 	 -67.765 	 19.3152 	 -78.1895
| 39> H 	 -74.3571 	 19.1712 	 -76.2355
| 40> H 	 -68.5825 	 13.429 	 -78.432
| 41> *
| 42>
| 43>                          ****END OF INPUT****

CARTESIAN COORDINATES (ANGSTROEM)
---------------------------------
  S    -73.066400   17.215900  -77.029100
  C    -73.349900   18.788200  -76.311200
  C    -72.119100   19.420700  -76.206000
  C    -70.994600   18.576300  -76.518600
  C    -71.311100   17.373200  -77.036500
  H    -69.997200   19.012900  -76.643700
  C    -71.993100   20.823400  -75.729100
  H    -72.785600   21.341200  -76.319200
  H    -71.082900   21.252700  -76.046900
  C    -72.151500   20.987900  -74.204300
  H    -72.654900   20.136100  -73.732800
  H    -71.192700   20.887000  -73.787600
  C    -72.803100   22.281100  -73.772300
  H    -72.507300   23.163200  -74.266600
  H    -73.849200   22.076400  -74.017100
  H    -72.626000   22.505800  -72.727900
  S    -70.027700   14.880000  -76.867100
  C    -69.138800   14.372500  -78.305000
  C    -69.142000   15.367400  -79.256400
  C    -69.830000   16.533200  -78.874700
  C    -70.504300   16.406300  -77.694600
  H    -68.573100   15.128300  -80.160800
  C    -69.880000   17.812000  -79.748300
  H    -70.419400   18.599800  -79.232300
  H    -70.365500   17.610800  -80.697800
  C    -68.504300   18.325800  -80.115400
  H    -68.617900   19.182500  -80.723200
  H    -68.039700   17.546200  -80.835600
  C    -67.514800   18.594700  -78.918500
  H    -66.477600   18.806100  -79.231100
  H    -67.412900   17.716800  -78.314500
  H    -67.765000   19.315200  -78.189500
  H    -74.357100   19.171200  -76.235500
  H    -68.582500   13.429000  -78.432000

 Total Charge           Charge          ....    0
 Multiplicity           Mult            ....    1
 Number of Electrons    NEL             ....  134
 Basis Dimension        Dim             ....  322

ORBITAL ENERGIES
----------------

  NO   OCC          E(Eh)            E(eV)
   0   2.0000     -88.964589     -2420.8495
   1   2.0000     -88.958366     -2420.6802
   2   2.0000     -10.323930      -280.9284
   3   2.0000     -10.323629      -280.9202
   4   2.0000     -10.321780      -280.8699
   5   2.0000     -10.314957      -280.6842
   6   2.0000     -10.303976      -280.3854
   7   2.0000     -10.299979      -280.2767
   8   2.0000     -10.293587      -280.1027
   9   2.0000     -10.293093      -280.0893
  10   2.0000     -10.292696      -280.0785
  11   2.0000     -10.290710      -280.0245
  12   2.0000     -10.287222      -279.9295
  13   2.0000     -10.278836      -279.7014
  14   2.0000     -10.274294      -279.5777
  15   2.0000     -10.272297      -279.5234
  16   2.0000      -8.078468      -219.8263
  17   2.0000      -8.073396      -219.6883
  18   2.0000      -6.037000      -164.2751
  19   2.0000      -6.033198      -164.1717
  20   2.0000      -6.031877      -164.1357
  21   2.0000      -6.029139      -164.0612
  22   2.0000      -6.027738      -164.0231
  23   2.0000      -6.024263      -163.9285
  24   2.0000      -1.007594       -27.4180
  25   2.0000      -0.984024       -26.7766
  26   2.0000      -0.914901       -24.8957
  27   2.0000      -0.906387       -24.6640
  28   2.0000      -0.874683       -23.8013
  29   2.0000      -0.848220       -23.0813
  30   2.0000      -0.840930       -22.8829
  31   2.0000      -0.818535       -22.2735
  32   2.0000      -0.789116       -21.4729
  33   2.0000      -0.772775       -21.0283
  34   2.0000      -0.711228       -19.3535
  35   2.0000      -0.703966       -19.1559
  36   2.0000      -0.696452       -18.9514
  37   2.0000      -0.654296       -17.8043
  38   2.0000      -0.648053       -17.6344
  39   2.0000      -0.619069       -16.8457
  40   2.0000      -0.594878       -16.1874
  41   2.0000      -0.575040       -15.6476
  42   2.0000      -0.560677       -15.2568
  43   2.0000      -0.550648       -14.9839
  44   2.0000      -0.541016       -14.7218
  45   2.0000      -0.525511       -14.2999
  46   2.0000      -0.519271       -14.1301
  47   2.0000      -0.517018       -14.0688
  48   2.0000      -0.515349       -14.0234
  49   2.0000      -0.501104       -13.6357
  50   2.0000      -0.491072       -13.3627
  51   2.0000      -0.476273       -12.9600
  52   2.0000      -0.469979       -12.7888
  53   2.0000      -0.463212       -12.6046
  54   2.0000      -0.458622       -12.4797
  55   2.0000      -0.444705       -12.1010
  56   2.0000      -0.441963       -12.0264
  57   2.0000      -0.440050       -11.9744
  58   2.0000      -0.436754       -11.8847
  59   2.0000      -0.422915       -11.5081
  60   2.0000      -0.416627       -11.3370
  61   2.0000      -0.412786       -11.2325
  62   2.0000      -0.410175       -11.1614
  63   2.0000      -0.337081        -9.1724
  64   2.0000      -0.331063        -9.0087
  65   2.0000      -0.324956        -8.8425
  66   2.0000      -0.306087        -8.3291
  67   0.0000       0.039310         1.0697
  68   0.0000       0.053820         1.4645
  69   0.0000       0.112064         3.0494
  70   0.0000       0.119564         3.2535
  71   0.0000       0.130464         3.5501

MULLIKEN ATOMIC CHARGES
-----------------------
   0 S :    0.095049
   1 C :   -0.119361
   2 C :   -0.147624
   3 C :    0.061168
   4 C :   -0.170357
   5 H :    0.013717
   6 C :    0.080971
   7 H :    0.029600
   8 H :    0.005692
   9 C :   -0.045496
  10 H :    0.033259
  11 H :    0.006794
  12 C :   -0.033513
  13 H :    0.020564
  14 H :    0.033061
  15 H :    0.032950
  16 S :    0.105128
  17 C :   -0.106758
  18 C :   -0.049838
  19 C :   -0.004122
  20 C :   -0.170577
  21 H :    0.025406
  22 C :    0.109592
  23 H :    0.028991
  24 H :    0.035358
  25 C :   -0.095151
  26 H :    0.024737
  27 H :    0.032778
  28 C :   -0.041521
  29 H :    0.032402
  30 H :    0.028411
  31 H :    0.022357
  32 H :    0.058475
  33 H :    0.067859
Sum of atomic charges:    0.0000000

LOEWDIN ATOMIC CHARGES
----------------------
   0 S :    0.400123
   1 C :   -0.192499
   2 C :   -0.064790
   3 C :   -0.066876
   4 C :   -0.191854
   5 H :    0.033442
   6 C :   -0.030796
   7 H :    0.035105
   8 H :    0.021978
   9 C :   -0.038329
  10 H :    0.027790
  11 H :    0.015667
  12 C :   -0.060531
  13 H :    0.017459
  14 H :    0.029127
  15 H :    0.027640
  16 S :    0.378635
  17 C :   -0.176366
  18 C :   -0.079765
  19 C :   -0.046727
  20 C :   -0.193572
  21 H :    0.036064
  22 C :   -0.024153
  23 H :    0.028886
  24 H :    0.035297
  25 C :   -0.038200
  26 H :    0.017864
  27 H :    0.029763
  28 C :   -0.071125
  29 H :    0.030843
  30 H :    0.025477
  31 H :    0.016910
  32 H :    0.029779
  33 H :    0.037731

  Mayer bond orders larger than 0.100000
B(  0-S ,  1-C ) :   1.1438 B(  0-S ,  4-C ) :   1.1569 B(  1-C ,  2-C ) :   1.5838
B(  1-C , 32-H ) :   0.9778 B(  2-C ,  3-C ) :   1.2469 B(  2-C ,  6-C ) :   1.0298
B(  3-C ,  4-C ) :   1.5884 B(  3-C ,  5-H ) :   0.9901 B(  4-C , 20-C ) :   1.0284
B(  6-C ,  7-H ) :   0.9490 B(  6-C ,  8-H ) :   0.9336 B(  6-C ,  9-C ) :   1.0410
B(  9-C , 10-H ) :   0.9662 B(  9-C , 11-H ) :   0.9498 B(  9-C , 12-C ) :   1.0732
B( 12-C , 13-H ) :   0.9773 B( 12-C , 14-H ) :   0.9804 B( 12-C , 15-H ) :   0.9728
B( 16-S , 17-C ) :   1.1503 B( 16-S , 20-C ) :   1.1202 B( 17-C , 18-C ) :   1.6360
B( 17-C , 20-C ) :   0.1018 B( 17-C , 33-H ) :   0.9620 B( 18-C , 19-C ) :   1.2078
B( 18-C , 21-H ) :   0.9901 B( 19-C , 20-C ) :   1.6244 B( 19-C , 22-C ) :   1.0360
B( 22-C , 23-H ) :   0.9315 B( 22-C , 24-H ) :   0.9353 B( 22-C , 25-C ) :   1.0795
B( 25-C , 26-H ) :   0.9582 B( 25-C , 27-H ) :   0.9533 B( 25-C , 28-C ) :   1.0607
B( 28-C , 29-H ) :   0.9745 B( 28-C , 30-H ) :   0.9715 B( 28-C , 31-H ) :   0.9760

Dispersion correction           -0.015093005
FINAL SINGLE POINT ENERGY     -1339.874860876377

DIPOLE MOMENT
-------------
                                X             Y             Z
Electronic contribution:     -7.49978     -24.89064      -0.74073
Nuclear contribution   :      7.85199      25.48479       0.43140
                        -----------------------------------------
Total Dipole Moment    :      0.35221       0.59415      -0.30933
                        -----------------------------------------
Magnitude (a.u.)       :      0.75681
Magnitude (Debye)      :      1.92365

Rotational constants in cm-1:     0.021766     0.007856     0.006671
Rotational constants in MHz :   652.536284   235.517799   200.006481

                             ****ORCA TERMINATED NORMALLY****
TOTAL RUN TIME: 0 days 0 hours 0 minutes 21 seconds 854 msec
