                         Program Version 4.2.1 -  RELEASE  -
|  1> ! wB97X-D3 SP def2-SVP
|  2> %pal
|  3> nprocs 24
|  4> end
|  5>
|  6> * xyz 0 1
|  7> S 	 -105.59 	 60.249 	 -99.9285
|  8> C 	 -106.941 	 59.4134 	 -100.799
|  9> C 	 -106.504 	 58.1195 	 -101.219
| 10> C 	 -105.087 	 58.0643 	 -101.073
| 11> C 	 -104.448 	 59.0798 	 -100.473
| 12> H 	 -104.513 	 57.2207 	 -101.458
| 13> C 	 -107.368 	 57.0429 	 -101.737
| 14> H 	 -108.398 	 57.4559 	 -101.645
| 15> H 	 -107.254 	 56.1762 	 -101.099
| 16> C 	 -107.141 	 56.533 	 -103.13
| 17> H 	 -106.222 	 56.0228 	 -103.179
| 18> H 	 -107.778 	 55.6202 	 -103.332
| 19> C 	 -107.267 	 57.5576 	 -104.297
| 20> H 	 -108.139 	 58.1307 	 -104.311
| 21> H 	 -106.372 	 58.2144 	 -104.46
| 22> H 	 -107.201 	 57.1229 	 -105.235
| 23> S 	 -102.477 	 59.1271 	 -98.5246
| 24> C 	 -100.824 	 59.0889 	 -99.0472
| 25> C 	 -100.69 	 59.3011 	 -100.401
| 26> C 	 -101.946 	 59.392 	 -101.076
| 27> C 	 -103.021 	 59.1645 	 -100.222
| 28> H 	 -99.6964 	 59.3488 	 -100.876
| 29> C 	 -102.037 	 59.5358 	 -102.545
| 30> H 	 -101.101 	 59.9845 	 -102.898
| 31> H 	 -102.721 	 60.3859 	 -102.756
| 32> C 	 -102.245 	 58.2902 	 -103.427
| 33> H 	 -103.204 	 57.8917 	 -103.222
| 34> H 	 -101.549 	 57.4652 	 -103.226
| 35> C 	 -102.161 	 58.6237 	 -104.895
| 36> H 	 -102.877 	 59.4546 	 -105.069
| 37> H 	 -102.465 	 57.8106 	 -105.538
| 38> H 	 -101.125 	 58.9615 	 -105.152
| 39> H 	 -107.916 	 59.7178 	 -100.778
| 40> H 	 -99.9957 	 58.8322 	 -98.4006
| 41> *
| 42>
| 43>                          ****END OF INPUT****

CARTESIAN COORDINATES (ANGSTROEM)
---------------------------------
  S    -105.590000   60.249000  -99.928500
  C    -106.941000   59.413400  -100.799000
  C    -106.504000   58.119500  -101.219000
  C    -105.087000   58.064300  -101.073000
  C    -104.448000   59.079800  -100.473000
  H    -104.513000   57.220700  -101.458000
  C    -107.368000   57.042900  -101.737000
  H    -108.398000   57.455900  -101.645000
  H    -107.254000   56.176200  -101.099000
  C    -107.141000   56.533000  -103.130000
  H    -106.222000   56.022800  -103.179000
  H    -107.778000   55.620200  -103.332000
  C    -107.267000   57.557600  -104.297000
  H    -108.139000   58.130700  -104.311000
  H    -106.372000   58.214400  -104.460000
  H    -107.201000   57.122900  -105.235000
  S    -102.477000   59.127100  -98.524600
  C    -100.824000   59.088900  -99.047200
  C    -100.690000   59.301100  -100.401000
  C    -101.946000   59.392000  -101.076000
  C    -103.021000   59.164500  -100.222000
  H    -99.696400   59.348800  -100.876000
  C    -102.037000   59.535800  -102.545000
  H    -101.101000   59.984500  -102.898000
  H    -102.721000   60.385900  -102.756000
  C    -102.245000   58.290200  -103.427000
  H    -103.204000   57.891700  -103.222000
  H    -101.549000   57.465200  -103.226000
  C    -102.161000   58.623700  -104.895000
  H    -102.877000   59.454600  -105.069000
  H    -102.465000   57.810600  -105.538000
  H    -101.125000   58.961500  -105.152000
  H    -107.916000   59.717800  -100.778000
  H    -99.995700   58.832200  -98.400600

 Total Charge           Charge          ....    0
 Multiplicity           Mult            ....    1
 Number of Electrons    NEL             ....  134
 Basis Dimension        Dim             ....  322

ORBITAL ENERGIES
----------------

  NO   OCC          E(Eh)            E(eV)
   0   2.0000     -88.964618     -2420.8503
   1   2.0000     -88.964103     -2420.8363
   2   2.0000     -10.325999      -280.9847
   3   2.0000     -10.322056      -280.8774
   4   2.0000     -10.315935      -280.7109
   5   2.0000     -10.315076      -280.6875
   6   2.0000     -10.304229      -280.3923
   7   2.0000     -10.302216      -280.3375
   8   2.0000     -10.293974      -280.1133
   9   2.0000     -10.293606      -280.1033
  10   2.0000     -10.290572      -280.0207
  11   2.0000     -10.289786      -279.9993
  12   2.0000     -10.286797      -279.9180
  13   2.0000     -10.281956      -279.7863
  14   2.0000     -10.279782      -279.7271
  15   2.0000     -10.271888      -279.5123
  16   2.0000      -8.079294      -219.8488
  17   2.0000      -8.078424      -219.8251
  18   2.0000      -6.037782      -164.2964
  19   2.0000      -6.037028      -164.2759
  20   2.0000      -6.033891      -164.1905
  21   2.0000      -6.033053      -164.1677
  22   2.0000      -6.030008      -164.0849
  23   2.0000      -6.029036      -164.0584
  24   2.0000      -1.005881       -27.3714
  25   2.0000      -0.982345       -26.7310
  26   2.0000      -0.918398       -24.9909
  27   2.0000      -0.912041       -24.8179
  28   2.0000      -0.866874       -23.5888
  29   2.0000      -0.855359       -23.2755
  30   2.0000      -0.843246       -22.9459
  31   2.0000      -0.815712       -22.1966
  32   2.0000      -0.789839       -21.4926
  33   2.0000      -0.772338       -21.0164
  34   2.0000      -0.715083       -19.4584
  35   2.0000      -0.706173       -19.2159
  36   2.0000      -0.694486       -18.8979
  37   2.0000      -0.659806       -17.9542
  38   2.0000      -0.642499       -17.4833
  39   2.0000      -0.620425       -16.8826
  40   2.0000      -0.597914       -16.2701
  41   2.0000      -0.566681       -15.4202
  42   2.0000      -0.566304       -15.4099
  43   2.0000      -0.560496       -15.2519
  44   2.0000      -0.533393       -14.5144
  45   2.0000      -0.530007       -14.4222
  46   2.0000      -0.521406       -14.1882
  47   2.0000      -0.514171       -13.9913
  48   2.0000      -0.508325       -13.8322
  49   2.0000      -0.502268       -13.6674
  50   2.0000      -0.489530       -13.3208
  51   2.0000      -0.474407       -12.9093
  52   2.0000      -0.473039       -12.8721
  53   2.0000      -0.459768       -12.5109
  54   2.0000      -0.458383       -12.4732
  55   2.0000      -0.450595       -12.2613
  56   2.0000      -0.444185       -12.0869
  57   2.0000      -0.437647       -11.9090
  58   2.0000      -0.435183       -11.8419
  59   2.0000      -0.429734       -11.6937
  60   2.0000      -0.421948       -11.4818
  61   2.0000      -0.411195       -11.1892
  62   2.0000      -0.410333       -11.1657
  63   2.0000      -0.337014        -9.1706
  64   2.0000      -0.330008        -8.9800
  65   2.0000      -0.327555        -8.9132
  66   2.0000      -0.297592        -8.0979
  67   0.0000       0.038973         1.0605
  68   0.0000       0.053699         1.4612
  69   0.0000       0.108030         2.9396
  70   0.0000       0.115707         3.1486
  71   0.0000       0.126078         3.4308

MULLIKEN ATOMIC CHARGES
-----------------------
   0 S :    0.103512
   1 C :   -0.092921
   2 C :   -0.090382
   3 C :    0.021509
   4 C :   -0.137520
   5 H :    0.011842
   6 C :    0.094571
   7 H :    0.021413
   8 H :    0.038323
   9 C :   -0.076153
  10 H :    0.007968
  11 H :    0.029687
  12 C :   -0.009800
  13 H :    0.022956
  14 H :    0.032575
  15 H :    0.003363
  16 S :    0.105822
  17 C :   -0.088242
  18 C :   -0.042847
  19 C :   -0.010001
  20 C :   -0.188497
  21 H :    0.028218
  22 C :    0.053633
  23 H :   -0.000651
  24 H :    0.036906
  25 C :   -0.026192
  26 H :    0.007171
  27 H :    0.026776
  28 C :   -0.057885
  29 H :    0.030237
  30 H :    0.034870
  31 H :    0.036625
  32 H :    0.014818
  33 H :    0.058299
Sum of atomic charges:   -0.0000000

LOEWDIN ATOMIC CHARGES
----------------------
   0 S :    0.391622
   1 C :   -0.164947
   2 C :   -0.052395
   3 C :   -0.065648
   4 C :   -0.207950
   5 H :    0.028136
   6 C :   -0.034976
   7 H :    0.035521
   8 H :    0.040288
   9 C :   -0.043776
  10 H :    0.016972
  11 H :    0.033806
  12 C :   -0.066049
  13 H :    0.017792
  14 H :    0.036085
  15 H :    0.019601
  16 S :    0.397436
  17 C :   -0.186495
  18 C :   -0.073995
  19 C :   -0.053179
  20 C :   -0.187444
  21 H :    0.037081
  22 C :   -0.039126
  23 H :    0.028304
  24 H :    0.040274
  25 C :   -0.036991
  26 H :    0.014188
  27 H :    0.026191
  28 C :   -0.064663
  29 H :    0.027822
  30 H :    0.024656
  31 H :    0.027131
  32 H :    0.004976
  33 H :    0.029752

  Mayer bond orders larger than 0.100000
B(  0-S ,  1-C ) :   1.1349 B(  0-S ,  4-C ) :   1.1346 B(  1-C ,  2-C ) :   1.5837
B(  1-C , 32-H ) :   0.9784 B(  2-C ,  3-C ) :   1.2281 B(  2-C ,  6-C ) :   1.0406
B(  3-C ,  4-C ) :   1.6152 B(  3-C ,  5-H ) :   0.9840 B(  4-C , 20-C ) :   1.0312
B(  6-C ,  7-H ) :   0.9350 B(  6-C ,  8-H ) :   0.9269 B(  6-C ,  9-C ) :   1.0882
B(  9-C , 10-H ) :   0.9473 B(  9-C , 11-H ) :   0.9511 B(  9-C , 12-C ) :   1.0703
B( 12-C , 13-H ) :   0.9796 B( 12-C , 14-H ) :   0.9692 B( 12-C , 15-H ) :   0.9668
B( 16-S , 17-C ) :   1.1586 B( 16-S , 20-C ) :   1.1334 B( 17-C , 18-C ) :   1.6147
B( 17-C , 20-C ) :   0.1006 B( 17-C , 33-H ) :   0.9654 B( 18-C , 19-C ) :   1.2342
B( 18-C , 21-H ) :   0.9864 B( 19-C , 20-C ) :   1.6010 B( 19-C , 22-C ) :   1.0642
B( 22-C , 23-H ) :   0.9277 B( 22-C , 24-H ) :   0.9172 B( 22-C , 25-C ) :   1.0595
B( 25-C , 26-H ) :   0.9442 B( 25-C , 27-H ) :   0.9533 B( 25-C , 28-C ) :   1.0921
B( 28-C , 29-H ) :   0.9726 B( 28-C , 30-H ) :   0.9719 B( 28-C , 31-H ) :   0.9747

Dispersion correction           -0.014946555
FINAL SINGLE POINT ENERGY     -1339.870156298679

DIPOLE MOMENT
-------------
                                X             Y             Z
Electronic contribution:      4.23026      11.09052      28.93557
Nuclear contribution   :     -4.17902     -11.60782     -29.54453
                        -----------------------------------------
Total Dipole Moment    :      0.05124      -0.51730      -0.60896
                        -----------------------------------------
Magnitude (a.u.)       :      0.80066
Magnitude (Debye)      :      2.03512

Rotational constants in cm-1:     0.017688     0.009963     0.007221
Rotational constants in MHz :   530.260728   298.668632   216.470937

                             ****ORCA TERMINATED NORMALLY****
TOTAL RUN TIME: 0 days 0 hours 0 minutes 21 seconds 247 msec
