                         Program Version 4.2.1 -  RELEASE  -
|  1> ! wB97X-D3 SP def2-SVP
|  2> %pal
|  3> nprocs 24
|  4> end
|  5>
|  6> * xyz 0 1
|  7> S 	 -71.5101 	 4.66639 	 14.1272
|  8> C 	 -69.8511 	 4.05887 	 14.0878
|  9> C 	 -69.5515 	 3.37229 	 15.2513
| 10> C 	 -70.6089 	 3.48595 	 16.2059
| 11> C 	 -71.7672 	 4.1757 	 15.7715
| 12> H 	 -70.6229 	 3.10723 	 17.1906
| 13> C 	 -68.247 	 2.62724 	 15.5022
| 14> H 	 -67.6054 	 3.17044 	 16.1878
| 15> H 	 -67.7391 	 2.65093 	 14.5204
| 16> C 	 -68.3236 	 1.16084 	 15.8895
| 17> H 	 -67.3638 	 0.647815 	 16.2046
| 18> H 	 -68.9412 	 1.05883 	 16.8036
| 19> C 	 -68.9126 	 0.178792 	 14.8799
| 20> H 	 -69.9288 	 0.387141 	 14.5623
| 21> H 	 -68.2692 	 0.0451527 	 13.9733
| 22> H 	 -68.9886 	 -0.81586 	 15.3509
| 23> S 	 -73.217 	 6.24312 	 16.8029
| 24> C 	 -74.3746 	 5.93747 	 18.0112
| 25> C 	 -74.6044 	 4.59739 	 18.2311
| 26> C 	 -73.8089 	 3.79695 	 17.3822
| 27> C 	 -72.9076 	 4.5061 	 16.5996
| 28> H 	 -75.3387 	 4.33147 	 18.9845
| 29> C 	 -73.823 	 2.30499 	 17.4774
| 30> H 	 -72.9815 	 1.82847 	 16.9338
| 31> H 	 -74.8169 	 1.86081 	 17.1851
| 32> C 	 -73.5424 	 1.68959 	 18.8761
| 33> H 	 -73.554 	 0.615228 	 18.8036
| 34> H 	 -74.3763 	 1.91164 	 19.4655
| 35> C 	 -72.2868 	 2.12864 	 19.5548
| 36> H 	 -72.4088 	 3.16358 	 19.7306
| 37> H 	 -71.4007 	 1.92385 	 19.0152
| 38> H 	 -72.1262 	 1.64883 	 20.5472
| 39> H 	 -69.0798 	 4.19266 	 13.3201
| 40> H 	 -74.7689 	 6.80775 	 18.6472
| 41> *
| 42>
| 43>                          ****END OF INPUT****

CARTESIAN COORDINATES (ANGSTROEM)
---------------------------------
  S    -71.510100    4.666390   14.127200
  C    -69.851100    4.058870   14.087800
  C    -69.551500    3.372290   15.251300
  C    -70.608900    3.485950   16.205900
  C    -71.767200    4.175700   15.771500
  H    -70.622900    3.107230   17.190600
  C    -68.247000    2.627240   15.502200
  H    -67.605400    3.170440   16.187800
  H    -67.739100    2.650930   14.520400
  C    -68.323600    1.160840   15.889500
  H    -67.363800    0.647815   16.204600
  H    -68.941200    1.058830   16.803600
  C    -68.912600    0.178792   14.879900
  H    -69.928800    0.387141   14.562300
  H    -68.269200    0.045153   13.973300
  H    -68.988600   -0.815860   15.350900
  S    -73.217000    6.243120   16.802900
  C    -74.374600    5.937470   18.011200
  C    -74.604400    4.597390   18.231100
  C    -73.808900    3.796950   17.382200
  C    -72.907600    4.506100   16.599600
  H    -75.338700    4.331470   18.984500
  C    -73.823000    2.304990   17.477400
  H    -72.981500    1.828470   16.933800
  H    -74.816900    1.860810   17.185100
  C    -73.542400    1.689590   18.876100
  H    -73.554000    0.615228   18.803600
  H    -74.376300    1.911640   19.465500
  C    -72.286800    2.128640   19.554800
  H    -72.408800    3.163580   19.730600
  H    -71.400700    1.923850   19.015200
  H    -72.126200    1.648830   20.547200
  H    -69.079800    4.192660   13.320100
  H    -74.768900    6.807750   18.647200

 Total Charge           Charge          ....    0
 Multiplicity           Mult            ....    1
 Number of Electrons    NEL             ....  134
 Basis Dimension        Dim             ....  322

ORBITAL ENERGIES
----------------

  NO   OCC          E(Eh)            E(eV)
   0   2.0000     -88.969112     -2420.9726
   1   2.0000     -88.964068     -2420.8354
   2   2.0000     -10.331958      -281.1469
   3   2.0000     -10.329150      -281.0705
   4   2.0000     -10.322819      -280.8982
   5   2.0000     -10.317635      -280.7571
   6   2.0000     -10.307176      -280.4725
   7   2.0000     -10.303190      -280.3640
   8   2.0000     -10.295917      -280.1661
   9   2.0000     -10.295541      -280.1559
  10   2.0000     -10.293385      -280.0973
  11   2.0000     -10.293098      -280.0894
  12   2.0000     -10.292049      -280.0609
  13   2.0000     -10.278132      -279.6822
  14   2.0000     -10.276360      -279.6340
  15   2.0000     -10.269124      -279.4371
  16   2.0000      -8.083372      -219.9597
  17   2.0000      -8.079870      -219.8644
  18   2.0000      -6.041915      -164.4089
  19   2.0000      -6.038094      -164.3049
  20   2.0000      -6.037862      -164.2986
  21   2.0000      -6.034223      -164.1996
  22   2.0000      -6.034185      -164.1985
  23   2.0000      -6.030835      -164.1074
  24   2.0000      -1.009636       -27.4736
  25   2.0000      -0.986497       -26.8439
  26   2.0000      -0.915053       -24.8998
  27   2.0000      -0.911534       -24.8041
  28   2.0000      -0.871119       -23.7044
  29   2.0000      -0.855397       -23.2765
  30   2.0000      -0.843854       -22.9624
  31   2.0000      -0.813615       -22.1396
  32   2.0000      -0.786985       -21.4149
  33   2.0000      -0.776738       -21.1361
  34   2.0000      -0.712986       -19.4013
  35   2.0000      -0.694161       -18.8891
  36   2.0000      -0.689282       -18.7563
  37   2.0000      -0.657507       -17.8917
  38   2.0000      -0.638657       -17.3787
  39   2.0000      -0.620816       -16.8933
  40   2.0000      -0.599799       -16.3214
  41   2.0000      -0.569872       -15.5070
  42   2.0000      -0.556138       -15.1333
  43   2.0000      -0.552165       -15.0252
  44   2.0000      -0.551452       -15.0058
  45   2.0000      -0.542653       -14.7663
  46   2.0000      -0.522066       -14.2061
  47   2.0000      -0.511122       -13.9083
  48   2.0000      -0.503565       -13.7027
  49   2.0000      -0.494730       -13.4623
  50   2.0000      -0.488950       -13.3050
  51   2.0000      -0.477171       -12.9845
  52   2.0000      -0.472151       -12.8479
  53   2.0000      -0.467392       -12.7184
  54   2.0000      -0.461104       -12.5473
  55   2.0000      -0.446386       -12.1468
  56   2.0000      -0.443442       -12.0667
  57   2.0000      -0.441406       -12.0113
  58   2.0000      -0.437278       -11.8989
  59   2.0000      -0.421790       -11.4775
  60   2.0000      -0.417054       -11.3486
  61   2.0000      -0.410618       -11.1735
  62   2.0000      -0.408892       -11.1265
  63   2.0000      -0.342283        -9.3140
  64   2.0000      -0.334454        -9.1010
  65   2.0000      -0.330434        -8.9916
  66   2.0000      -0.295489        -8.0407
  67   0.0000       0.031165         0.8481
  68   0.0000       0.062836         1.7099
  69   0.0000       0.116356         3.1662
  70   0.0000       0.124250         3.3810
  71   0.0000       0.126706         3.4479

MULLIKEN ATOMIC CHARGES
-----------------------
   0 S :    0.123399
   1 C :   -0.129895
   2 C :   -0.092319
   3 C :    0.063066
   4 C :   -0.157933
   5 H :   -0.033074
   6 C :    0.111160
   7 H :    0.043965
   8 H :    0.008772
   9 C :   -0.104218
  10 H :    0.037795
  11 H :    0.025109
  12 C :   -0.072446
  13 H :    0.039338
  14 H :    0.035225
  15 H :    0.030166
  16 S :    0.111638
  17 C :   -0.121510
  18 C :   -0.046523
  19 C :    0.003403
  20 C :   -0.172013
  21 H :    0.027494
  22 C :    0.033654
  23 H :    0.031589
  24 H :    0.045829
  25 C :   -0.073677
  26 H :    0.021728
  27 H :    0.005373
  28 C :   -0.027136
  29 H :    0.029962
  30 H :    0.027345
  31 H :    0.032259
  32 H :    0.054067
  33 H :    0.088408
Sum of atomic charges:    0.0000000

LOEWDIN ATOMIC CHARGES
----------------------
   0 S :    0.412506
   1 C :   -0.198296
   2 C :   -0.064705
   3 C :   -0.057601
   4 C :   -0.205382
   5 H :    0.017627
   6 C :   -0.031975
   7 H :    0.034947
   8 H :    0.030746
   9 C :   -0.052712
  10 H :    0.034581
  11 H :    0.022376
  12 C :   -0.071667
  13 H :    0.023099
  14 H :    0.026211
  15 H :    0.029238
  16 S :    0.419344
  17 C :   -0.199550
  18 C :   -0.082185
  19 C :   -0.054519
  20 C :   -0.193368
  21 H :    0.036814
  22 C :   -0.034343
  23 H :    0.032852
  24 H :    0.040901
  25 C :   -0.038520
  26 H :    0.021859
  27 H :    0.009866
  28 C :   -0.061546
  29 H :    0.023290
  30 H :    0.015551
  31 H :    0.033706
  32 H :    0.035222
  33 H :    0.045633

  Mayer bond orders larger than 0.100000
B(  0-S ,  1-C ) :   1.1409 B(  0-S ,  4-C ) :   1.1572 B(  1-C ,  2-C ) :   1.6035
B(  1-C , 32-H ) :   0.9598 B(  2-C ,  3-C ) :   1.2473 B(  2-C ,  6-C ) :   1.0185
B(  3-C ,  4-C ) :   1.5465 B(  3-C ,  5-H ) :   1.0009 B(  4-C , 20-C ) :   1.0492
B(  6-C ,  7-H ) :   0.9378 B(  6-C ,  8-H ) :   0.9374 B(  6-C ,  9-C ) :   1.0660
B(  9-C , 10-H ) :   0.9553 B(  9-C , 11-H ) :   0.9549 B(  9-C , 12-C ) :   1.0829
B( 12-C , 13-H ) :   0.9753 B( 12-C , 14-H ) :   0.9740 B( 12-C , 15-H ) :   0.9719
B( 16-S , 17-C ) :   1.1906 B( 16-S , 20-C ) :   1.1386 B( 17-C , 18-C ) :   1.5904
B( 17-C , 33-H ) :   0.9536 B( 18-C , 19-C ) :   1.2213 B( 18-C , 21-H ) :   0.9997
B( 19-C , 20-C ) :   1.5840 B( 19-C , 22-C ) :   1.0595 B( 22-C , 23-H ) :   0.9426
B( 22-C , 24-H ) :   0.9312 B( 22-C , 25-C ) :   1.0675 B( 25-C , 26-H ) :   0.9560
B( 25-C , 27-H ) :   0.9489 B( 25-C , 28-C ) :   1.0881 B( 28-C , 29-H ) :   0.9708
B( 28-C , 30-H ) :   0.9684 B( 28-C , 31-H ) :   0.9656

Dispersion correction           -0.015268656
FINAL SINGLE POINT ENERGY     -1339.882884560708

DIPOLE MOMENT
-------------
                                X             Y             Z
Electronic contribution:    -10.73371      25.39084     -10.85645
Nuclear contribution   :     10.89295     -25.81169      11.39912
                        -----------------------------------------
Total Dipole Moment    :      0.15924      -0.42085       0.54268
                        -----------------------------------------
Magnitude (a.u.)       :      0.70496
Magnitude (Debye)      :      1.79187

Rotational constants in cm-1:     0.018999     0.009717     0.007152
Rotational constants in MHz :   569.573109   291.320369   214.405678

                             ****ORCA TERMINATED NORMALLY****
TOTAL RUN TIME: 0 days 0 hours 0 minutes 22 seconds 400 msec
