                         Program Version 4.2.1 -  RELEASE  -
|  1> ! wB97X-D3 SP def2-SVP
|  2> %pal
|  3> nprocs 24
|  4> end
|  5>
|  6> * xyz 0 1
|  7> S 	 -101.645 	 -0.526845 	 -103.701
|  8> C 	 -101.515 	 -1.58683 	 -105.106
|  9> C 	 -100.89 	 -2.76775 	 -104.768
| 10> C 	 -100.429 	 -2.80551 	 -103.428
| 11> C 	 -100.661 	 -1.64545 	 -102.715
| 12> H 	 -99.925 	 -3.55404 	 -102.939
| 13> C 	 -100.737 	 -4.07117 	 -105.541
| 14> H 	 -100.585 	 -3.85056 	 -106.569
| 15> H 	 -101.602 	 -4.62227 	 -105.628
| 16> C 	 -99.4643 	 -4.99659 	 -105.202
| 17> H 	 -98.5285 	 -4.4938 	 -105.456
| 18> H 	 -99.5165 	 -5.23328 	 -104.177
| 19> C 	 -99.3756 	 -6.37431 	 -105.885
| 20> H 	 -100.248 	 -6.95795 	 -105.514
| 21> H 	 -99.5529 	 -6.40636 	 -107.041
| 22> H 	 -98.4446 	 -6.85432 	 -105.57
| 23> S 	 -99.095 	 -1.99081 	 -100.51
| 24> C 	 -99.7936 	 -1.63016 	 -98.9721
| 25> C 	 -101.137 	 -1.39198 	 -98.9867
| 26> C 	 -101.631 	 -1.50914 	 -100.309
| 27> C 	 -100.626 	 -1.54268 	 -101.303
| 28> H 	 -101.546 	 -1.04478 	 -98.0133
| 29> C 	 -103.118 	 -1.49886 	 -100.517
| 30> H 	 -103.392 	 -0.96042 	 -101.524
| 31> H 	 -103.362 	 -0.871357 	 -99.7718
| 32> C 	 -103.745 	 -2.90213 	 -100.512
| 33> H 	 -104.828 	 -2.7742 	 -100.392
| 34> H 	 -103.505 	 -3.5711 	 -99.5913
| 35> C 	 -103.309 	 -3.66775 	 -101.817
| 36> H 	 -103.857 	 -4.55087 	 -101.95
| 37> H 	 -102.255 	 -3.91156 	 -101.712
| 38> H 	 -103.381 	 -3.00035 	 -102.666
| 39> H 	 -102.122 	 -1.47177 	 -105.972
| 40> H 	 -99.3384 	 -1.54583 	 -98.0489
| 41> *
| 42>
| 43>                          ****END OF INPUT****

CARTESIAN COORDINATES (ANGSTROEM)
---------------------------------
  S    -101.645000   -0.526845  -103.701000
  C    -101.515000   -1.586830  -105.106000
  C    -100.890000   -2.767750  -104.768000
  C    -100.429000   -2.805510  -103.428000
  C    -100.661000   -1.645450  -102.715000
  H    -99.925000   -3.554040  -102.939000
  C    -100.737000   -4.071170  -105.541000
  H    -100.585000   -3.850560  -106.569000
  H    -101.602000   -4.622270  -105.628000
  C    -99.464300   -4.996590  -105.202000
  H    -98.528500   -4.493800  -105.456000
  H    -99.516500   -5.233280  -104.177000
  C    -99.375600   -6.374310  -105.885000
  H    -100.248000   -6.957950  -105.514000
  H    -99.552900   -6.406360  -107.041000
  H    -98.444600   -6.854320  -105.570000
  S    -99.095000   -1.990810  -100.510000
  C    -99.793600   -1.630160  -98.972100
  C    -101.137000   -1.391980  -98.986700
  C    -101.631000   -1.509140  -100.309000
  C    -100.626000   -1.542680  -101.303000
  H    -101.546000   -1.044780  -98.013300
  C    -103.118000   -1.498860  -100.517000
  H    -103.392000   -0.960420  -101.524000
  H    -103.362000   -0.871357  -99.771800
  C    -103.745000   -2.902130  -100.512000
  H    -104.828000   -2.774200  -100.392000
  H    -103.505000   -3.571100  -99.591300
  C    -103.309000   -3.667750  -101.817000
  H    -103.857000   -4.550870  -101.950000
  H    -102.255000   -3.911560  -101.712000
  H    -103.381000   -3.000350  -102.666000
  H    -102.122000   -1.471770  -105.972000
  H    -99.338400   -1.545830  -98.048900

 Total Charge           Charge          ....    0
 Multiplicity           Mult            ....    1
 Number of Electrons    NEL             ....  134
 Basis Dimension        Dim             ....  322

ORBITAL ENERGIES
----------------

  NO   OCC          E(Eh)            E(eV)
   0   2.0000     -88.968804     -2420.9642
   1   2.0000     -88.965273     -2420.8682
   2   2.0000     -10.327297      -281.0200
   3   2.0000     -10.325366      -280.9675
   4   2.0000     -10.316541      -280.7273
   5   2.0000     -10.306792      -280.4621
   6   2.0000     -10.305071      -280.4152
   7   2.0000     -10.304625      -280.4031
   8   2.0000     -10.293844      -280.1097
   9   2.0000     -10.291672      -280.0506
  10   2.0000     -10.291628      -280.0494
  11   2.0000     -10.290617      -280.0219
  12   2.0000     -10.288717      -279.9702
  13   2.0000     -10.287287      -279.9313
  14   2.0000     -10.285168      -279.8737
  15   2.0000     -10.268091      -279.4090
  16   2.0000      -8.082291      -219.9303
  17   2.0000      -8.079837      -219.8635
  18   2.0000      -6.040871      -164.3805
  19   2.0000      -6.038349      -164.3118
  20   2.0000      -6.036934      -164.2733
  21   2.0000      -6.034500      -164.2071
  22   2.0000      -6.033070      -164.1682
  23   2.0000      -6.030500      -164.0982
  24   2.0000      -1.007818       -27.4241
  25   2.0000      -0.984353       -26.7856
  26   2.0000      -0.906779       -24.6747
  27   2.0000      -0.905527       -24.6406
  28   2.0000      -0.877610       -23.8810
  29   2.0000      -0.851205       -23.1625
  30   2.0000      -0.841910       -22.9095
  31   2.0000      -0.816598       -22.2208
  32   2.0000      -0.785209       -21.3666
  33   2.0000      -0.770936       -20.9782
  34   2.0000      -0.716786       -19.5047
  35   2.0000      -0.698055       -18.9950
  36   2.0000      -0.690128       -18.7793
  37   2.0000      -0.665884       -18.1196
  38   2.0000      -0.643482       -17.5100
  39   2.0000      -0.624647       -16.9975
  40   2.0000      -0.587039       -15.9741
  41   2.0000      -0.570689       -15.5292
  42   2.0000      -0.566376       -15.4119
  43   2.0000      -0.558910       -15.2087
  44   2.0000      -0.535220       -14.5641
  45   2.0000      -0.528744       -14.3879
  46   2.0000      -0.516098       -14.0437
  47   2.0000      -0.510006       -13.8780
  48   2.0000      -0.507371       -13.8063
  49   2.0000      -0.493596       -13.4314
  50   2.0000      -0.489509       -13.3202
  51   2.0000      -0.482006       -13.1161
  52   2.0000      -0.468396       -12.7457
  53   2.0000      -0.464846       -12.6491
  54   2.0000      -0.454481       -12.3670
  55   2.0000      -0.450578       -12.2609
  56   2.0000      -0.443153       -12.0588
  57   2.0000      -0.437803       -11.9132
  58   2.0000      -0.429667       -11.6918
  59   2.0000      -0.426382       -11.6025
  60   2.0000      -0.416413       -11.3312
  61   2.0000      -0.414581       -11.2813
  62   2.0000      -0.407170       -11.0797
  63   2.0000      -0.347264        -9.4495
  64   2.0000      -0.331368        -9.0170
  65   2.0000      -0.330189        -8.9849
  66   2.0000      -0.287486        -7.8229
  67   0.0000       0.021849         0.5946
  68   0.0000       0.063231         1.7206
  69   0.0000       0.103139         2.8066
  70   0.0000       0.116485         3.1697
  71   0.0000       0.132849         3.6150

MULLIKEN ATOMIC CHARGES
-----------------------
   0 S :    0.092831
   1 C :   -0.114535
   2 C :   -0.044525
   3 C :    0.031504
   4 C :   -0.133098
   5 H :   -0.016192
   6 C :    0.103408
   7 H :    0.004986
   8 H :    0.014890
   9 C :   -0.099264
  10 H :    0.044259
  11 H :    0.035564
  12 C :   -0.092193
  13 H :    0.030783
  14 H :    0.045325
  15 H :    0.050368
  16 S :    0.096096
  17 C :   -0.042209
  18 C :   -0.064642
  19 C :   -0.056185
  20 C :   -0.154163
  21 H :    0.040292
  22 C :    0.080035
  23 H :    0.043346
  24 H :   -0.008424
  25 C :   -0.093112
  26 H :    0.032440
  27 H :    0.037402
  28 C :   -0.011514
  29 H :    0.024333
  30 H :    0.036432
  31 H :    0.025739
  32 H :    0.042867
  33 H :    0.017159
Sum of atomic charges:   -0.0000000

LOEWDIN ATOMIC CHARGES
----------------------
   0 S :    0.399369
   1 C :   -0.190650
   2 C :   -0.055345
   3 C :   -0.046113
   4 C :   -0.184079
   5 H :    0.012578
   6 C :   -0.027417
   7 H :    0.028427
   8 H :    0.021528
   9 C :   -0.034878
  10 H :    0.027471
  11 H :    0.016107
  12 C :   -0.074963
  13 H :    0.025095
  14 H :    0.032653
  15 H :    0.030880
  16 S :    0.398952
  17 C :   -0.175415
  18 C :   -0.080139
  19 C :   -0.046418
  20 C :   -0.196576
  21 H :    0.045284
  22 C :   -0.035166
  23 H :    0.034380
  24 H :    0.011084
  25 C :   -0.040716
  26 H :    0.021137
  27 H :    0.031173
  28 C :   -0.054381
  29 H :    0.016966
  30 H :    0.027639
  31 H :    0.022057
  32 H :    0.024803
  33 H :    0.014672

  Mayer bond orders larger than 0.100000
B(  0-S ,  1-C ) :   1.1321 B(  0-S ,  4-C ) :   1.1404 B(  1-C ,  2-C ) :   1.6145
B(  1-C , 32-H ) :   0.9722 B(  2-C ,  3-C ) :   1.2506 B(  2-C ,  6-C ) :   1.0083
B(  3-C ,  4-C ) :   1.5693 B(  3-C ,  5-H ) :   0.9947 B(  4-C , 20-C ) :   1.0593
B(  6-C ,  7-H ) :   0.9302 B(  6-C ,  8-H ) :   0.9380 B(  6-C ,  9-C ) :   1.0549
B(  9-C , 10-H ) :   0.9648 B(  9-C , 11-H ) :   0.9511 B(  9-C , 12-C ) :   1.0797
B( 12-C , 13-H ) :   0.9760 B( 12-C , 14-H ) :   0.9749 B( 12-C , 15-H ) :   0.9726
B( 16-S , 17-C ) :   1.1568 B( 16-S , 20-C ) :   1.1111 B( 17-C , 18-C ) :   1.6547
B( 17-C , 33-H ) :   0.9643 B( 18-C , 19-C ) :   1.2157 B( 18-C , 21-H ) :   0.9828
B( 19-C , 20-C ) :   1.5756 B( 19-C , 22-C ) :   1.0215 B( 22-C , 23-H ) :   0.9384
B( 22-C , 24-H ) :   0.9257 B( 22-C , 25-C ) :   1.0641 B( 25-C , 26-H ) :   0.9584
B( 25-C , 27-H ) :   0.9565 B( 25-C , 28-C ) :   1.0611 B( 28-C , 29-H ) :   0.9723
B( 28-C , 30-H ) :   0.9701 B( 28-C , 31-H ) :   0.9753

Dispersion correction           -0.016363833
FINAL SINGLE POINT ENERGY     -1339.830683650392

DIPOLE MOMENT
-------------
                                X             Y             Z
Electronic contribution:      7.37952      20.15708       8.29714
Nuclear contribution   :     -7.74236     -20.67970      -8.23190
                        -----------------------------------------
Total Dipole Moment    :     -0.36284      -0.52262       0.06524
                        -----------------------------------------
Magnitude (a.u.)       :      0.63957
Magnitude (Debye)      :      1.62565

Rotational constants in cm-1:     0.019387     0.008971     0.008245
Rotational constants in MHz :   581.212695   268.943201   247.188194

                             ****ORCA TERMINATED NORMALLY****
TOTAL RUN TIME: 0 days 0 hours 0 minutes 24 seconds 494 msec
