                         Program Version 4.2.1 -  RELEASE  -
|  1> ! wB97X-D3 SP def2-SVP
|  2> %pal
|  3> nprocs 24
|  4> end
|  5>
|  6> * xyz 0 1
|  7> S 	 -101.501 	 61.4719 	 -98.3581
|  8> C 	 -102.822 	 60.5427 	 -98.8367
|  9> C 	 -102.706 	 59.9994 	 -100.143
| 10> C 	 -101.342 	 60.1618 	 -100.634
| 11> C 	 -100.551 	 60.9474 	 -99.7712
| 12> H 	 -100.852 	 59.9414 	 -101.585
| 13> C 	 -103.768 	 59.1058 	 -100.75
| 14> H 	 -104.472 	 58.8273 	 -99.9701
| 15> H 	 -103.388 	 58.1387 	 -101.169
| 16> C 	 -104.693 	 59.7049 	 -101.836
| 17> H 	 -105.255 	 60.5749 	 -101.57
| 18> H 	 -103.978 	 59.9427 	 -102.712
| 19> C 	 -105.679 	 58.702 	 -102.501
| 20> H 	 -106.428 	 58.4392 	 -101.833
| 21> H 	 -106.057 	 59.2348 	 -103.385
| 22> H 	 -105.138 	 57.8063 	 -102.741
| 23> S 	 -98.5343 	 61.5015 	 -101.534
| 24> C 	 -97.1152 	 62.1035 	 -100.847
| 25> C 	 -96.9232 	 61.6902 	 -99.5122
| 26> C 	 -98.1162 	 61.2138 	 -98.9353
| 27> C 	 -99.1199 	 61.1736 	 -99.8599
| 28> H 	 -96.0081 	 61.9022 	 -98.9877
| 29> C 	 -98.2948 	 61.0667 	 -97.4534
| 30> H 	 -99.1582 	 61.6433 	 -96.9871
| 31> H 	 -97.3926 	 61.4485 	 -97.0505
| 32> C 	 -98.3426 	 59.569 	 -97.1158
| 33> H 	 -97.4873 	 59.1209 	 -97.5795
| 34> H 	 -99.2086 	 59.1279 	 -97.5988
| 35> C 	 -98.408 	 59.341 	 -95.5948
| 36> H 	 -98.5897 	 58.3158 	 -95.2847
| 37> H 	 -99.2283 	 59.9266 	 -95.2456
| 38> H 	 -97.4842 	 59.6704 	 -95.1882
| 39> H 	 -103.699 	 60.4707 	 -98.231
| 40> H 	 -96.3118 	 62.5936 	 -101.398
| 41> *
| 42>
| 43>                          ****END OF INPUT****

CARTESIAN COORDINATES (ANGSTROEM)
---------------------------------
  S    -101.501000   61.471900  -98.358100
  C    -102.822000   60.542700  -98.836700
  C    -102.706000   59.999400  -100.143000
  C    -101.342000   60.161800  -100.634000
  C    -100.551000   60.947400  -99.771200
  H    -100.852000   59.941400  -101.585000
  C    -103.768000   59.105800  -100.750000
  H    -104.472000   58.827300  -99.970100
  H    -103.388000   58.138700  -101.169000
  C    -104.693000   59.704900  -101.836000
  H    -105.255000   60.574900  -101.570000
  H    -103.978000   59.942700  -102.712000
  C    -105.679000   58.702000  -102.501000
  H    -106.428000   58.439200  -101.833000
  H    -106.057000   59.234800  -103.385000
  H    -105.138000   57.806300  -102.741000
  S    -98.534300   61.501500  -101.534000
  C    -97.115200   62.103500  -100.847000
  C    -96.923200   61.690200  -99.512200
  C    -98.116200   61.213800  -98.935300
  C    -99.119900   61.173600  -99.859900
  H    -96.008100   61.902200  -98.987700
  C    -98.294800   61.066700  -97.453400
  H    -99.158200   61.643300  -96.987100
  H    -97.392600   61.448500  -97.050500
  C    -98.342600   59.569000  -97.115800
  H    -97.487300   59.120900  -97.579500
  H    -99.208600   59.127900  -97.598800
  C    -98.408000   59.341000  -95.594800
  H    -98.589700   58.315800  -95.284700
  H    -99.228300   59.926600  -95.245600
  H    -97.484200   59.670400  -95.188200
  H    -103.699000   60.470700  -98.231000
  H    -96.311800   62.593600  -101.398000

 Total Charge           Charge          ....    0
 Multiplicity           Mult            ....    1
 Number of Electrons    NEL             ....  134
 Basis Dimension        Dim             ....  322

ORBITAL ENERGIES
----------------

  NO   OCC          E(Eh)            E(eV)
   0   2.0000     -88.968520     -2420.9565
   1   2.0000     -88.966605     -2420.9044
   2   2.0000     -10.330784      -281.1149
   3   2.0000     -10.324157      -280.9346
   4   2.0000     -10.318009      -280.7673
   5   2.0000     -10.311645      -280.5941
   6   2.0000     -10.310006      -280.5495
   7   2.0000     -10.300208      -280.2829
   8   2.0000     -10.300117      -280.2804
   9   2.0000     -10.294592      -280.1301
  10   2.0000     -10.293879      -280.1107
  11   2.0000     -10.290349      -280.0146
  12   2.0000     -10.287157      -279.9278
  13   2.0000     -10.277507      -279.6652
  14   2.0000     -10.272295      -279.5234
  15   2.0000     -10.268853      -279.4297
  16   2.0000      -8.083409      -219.9607
  17   2.0000      -8.082043      -219.9236
  18   2.0000      -6.041780      -164.4052
  19   2.0000      -6.040288      -164.3646
  20   2.0000      -6.037850      -164.2983
  21   2.0000      -6.036794      -164.2695
  22   2.0000      -6.034381      -164.2038
  23   2.0000      -6.032711      -164.1584
  24   2.0000      -1.008523       -27.4433
  25   2.0000      -0.984818       -26.7983
  26   2.0000      -0.915069       -24.9003
  27   2.0000      -0.904874       -24.6229
  28   2.0000      -0.868632       -23.6367
  29   2.0000      -0.857889       -23.3443
  30   2.0000      -0.848680       -23.0938
  31   2.0000      -0.808079       -21.9889
  32   2.0000      -0.784771       -21.3547
  33   2.0000      -0.767283       -20.8788
  34   2.0000      -0.704095       -19.1594
  35   2.0000      -0.693524       -18.8717
  36   2.0000      -0.686223       -18.6731
  37   2.0000      -0.672483       -18.2992
  38   2.0000      -0.641880       -17.4664
  39   2.0000      -0.611690       -16.6449
  40   2.0000      -0.597346       -16.2546
  41   2.0000      -0.572849       -15.5880
  42   2.0000      -0.568897       -15.4805
  43   2.0000      -0.556707       -15.1488
  44   2.0000      -0.525579       -14.3017
  45   2.0000      -0.519996       -14.1498
  46   2.0000      -0.515517       -14.0279
  47   2.0000      -0.513037       -13.9605
  48   2.0000      -0.510066       -13.8796
  49   2.0000      -0.495126       -13.4731
  50   2.0000      -0.488886       -13.3033
  51   2.0000      -0.480429       -13.0732
  52   2.0000      -0.475666       -12.9435
  53   2.0000      -0.469779       -12.7833
  54   2.0000      -0.459969       -12.5164
  55   2.0000      -0.453631       -12.3439
  56   2.0000      -0.441157       -12.0045
  57   2.0000      -0.439446       -11.9579
  58   2.0000      -0.433460       -11.7951
  59   2.0000      -0.426517       -11.6061
  60   2.0000      -0.422716       -11.5027
  61   2.0000      -0.413825       -11.2607
  62   2.0000      -0.405644       -11.0381
  63   2.0000      -0.353082        -9.6078
  64   2.0000      -0.335791        -9.1373
  65   2.0000      -0.326324        -8.8797
  66   2.0000      -0.276342        -7.5196
  67   0.0000       0.021102         0.5742
  68   0.0000       0.068170         1.8550
  69   0.0000       0.096463         2.6249
  70   0.0000       0.120961         3.2915
  71   0.0000       0.129569         3.5258

MULLIKEN ATOMIC CHARGES
-----------------------
   0 S :    0.114753
   1 C :   -0.123495
   2 C :   -0.033662
   3 C :    0.006838
   4 C :   -0.147916
   5 H :    0.025155
   6 C :    0.043561
   7 H :    0.012075
   8 H :    0.033657
   9 C :   -0.127903
  10 H :    0.032155
  11 H :    0.031614
  12 C :   -0.014912
  13 H :    0.018456
  14 H :    0.045204
  15 H :    0.020488
  16 S :    0.102900
  17 C :   -0.082106
  18 C :   -0.048335
  19 C :   -0.035340
  20 C :   -0.151819
  21 H :    0.015397
  22 C :    0.060248
  23 H :    0.056839
  24 H :   -0.004447
  25 C :   -0.092876
  26 H :    0.019974
  27 H :    0.034354
  28 C :    0.014256
  29 H :    0.032585
  30 H :    0.019599
  31 H :    0.018166
  32 H :    0.045835
  33 H :    0.058702
Sum of atomic charges:    0.0000000

LOEWDIN ATOMIC CHARGES
----------------------
   0 S :    0.431186
   1 C :   -0.214723
   2 C :   -0.058712
   3 C :   -0.067506
   4 C :   -0.185065
   5 H :    0.029395
   6 C :   -0.040625
   7 H :    0.026773
   8 H :    0.035195
   9 C :   -0.042624
  10 H :    0.017832
  11 H :    0.027364
  12 C :   -0.055587
  13 H :    0.011719
  14 H :    0.034022
  15 H :    0.020739
  16 S :    0.408129
  17 C :   -0.193656
  18 C :   -0.070844
  19 C :   -0.054569
  20 C :   -0.177763
  21 H :    0.028423
  22 C :   -0.031825
  23 H :    0.030515
  24 H :    0.021235
  25 C :   -0.033223
  26 H :    0.019479
  27 H :    0.022283
  28 C :   -0.056274
  29 H :    0.025886
  30 H :    0.022566
  31 H :    0.018846
  32 H :    0.022234
  33 H :    0.029175

  Mayer bond orders larger than 0.100000
B(  0-S ,  1-C ) :   1.1695 B(  0-S ,  4-C ) :   1.1441 B(  1-C ,  2-C ) :   1.5742
B(  1-C , 32-H ) :   0.9676 B(  2-C ,  3-C ) :   1.2390 B(  2-C ,  6-C ) :   1.0358
B(  3-C ,  4-C ) :   1.5676 B(  3-C ,  5-H ) :   0.9814 B(  4-C , 20-C ) :   1.0592
B(  6-C ,  7-H ) :   0.9423 B(  6-C ,  8-H ) :   0.9452 B(  6-C ,  9-C ) :   1.0543
B(  9-C , 10-H ) :   0.9595 B(  9-C , 11-H ) :   0.9618 B(  9-C , 12-C ) :   1.0764
B( 12-C , 13-H ) :   0.9772 B( 12-C , 14-H ) :   0.9760 B( 12-C , 15-H ) :   0.9732
B( 16-S , 17-C ) :   1.1776 B( 16-S , 20-C ) :   1.1191 B( 17-C , 18-C ) :   1.6000
B( 17-C , 33-H ) :   0.9650 B( 18-C , 19-C ) :   1.2364 B( 18-C , 21-H ) :   0.9892
B( 19-C , 20-C ) :   1.5944 B( 19-C , 22-C ) :   1.0360 B( 22-C , 23-H ) :   0.9418
B( 22-C , 24-H ) :   0.9214 B( 22-C , 25-C ) :   1.0467 B( 25-C , 26-H ) :   0.9542
B( 25-C , 27-H ) :   0.9625 B( 25-C , 28-C ) :   1.0779 B( 28-C , 29-H ) :   0.9747
B( 28-C , 30-H ) :   0.9710 B( 28-C , 31-H ) :   0.9749

Dispersion correction           -0.013841256
FINAL SINGLE POINT ENERGY     -1339.863590180703

DIPOLE MOMENT
-------------
                                X             Y             Z
Electronic contribution:     11.11761      13.13663      -4.59655
Nuclear contribution   :    -11.08837     -13.29058       4.74784
                        -----------------------------------------
Total Dipole Moment    :      0.02923      -0.15395       0.15129
                        -----------------------------------------
Magnitude (a.u.)       :      0.21781
Magnitude (Debye)      :      0.55364

Rotational constants in cm-1:     0.020613     0.007797     0.006208
Rotational constants in MHz :   617.948971   233.746951   186.107792

                             ****ORCA TERMINATED NORMALLY****
TOTAL RUN TIME: 0 days 0 hours 0 minutes 23 seconds 154 msec
