                         Program Version 4.2.1 -  RELEASE  -
|  1> ! wB97X-D3 SP def2-SVP
|  2> %pal
|  3> nprocs 24
|  4> end
|  5>
|  6> * xyz 0 1
|  7> S 	 -65.3851 	 -56.7629 	 -82.8472
|  8> C 	 -66.531 	 -58.0229 	 -83.2612
|  9> C 	 -66.904 	 -58.6937 	 -82.115
| 10> C 	 -66.219 	 -58.2009 	 -81.0048
| 11> C 	 -65.2834 	 -57.2143 	 -81.2109
| 12> H 	 -66.4076 	 -58.5462 	 -79.9943
| 13> C 	 -68.0276 	 -59.6798 	 -81.9281
| 14> H 	 -67.8411 	 -60.2554 	 -81.0351
| 15> H 	 -67.9507 	 -60.4372 	 -82.8106
| 16> C 	 -69.4164 	 -59.0118 	 -81.968
| 17> H 	 -69.5652 	 -58.5263 	 -82.8683
| 18> H 	 -70.0381 	 -59.8514 	 -81.9986
| 19> C 	 -69.8294 	 -58.0736 	 -80.7329
| 20> H 	 -69.0586 	 -57.3356 	 -80.5188
| 21> H 	 -70.8248 	 -57.5954 	 -80.8482
| 22> H 	 -69.9283 	 -58.6197 	 -79.8447
| 23> S 	 -63.3383 	 -55.2794 	 -80.9265
| 24> C 	 -62.9769 	 -54.6754 	 -79.3396
| 25> C 	 -63.5609 	 -55.4197 	 -78.3276
| 26> C 	 -64.3832 	 -56.4346 	 -78.8323
| 27> C 	 -64.4887 	 -56.4908 	 -80.2605
| 28> H 	 -63.5166 	 -55.2133 	 -77.2677
| 29> C 	 -65.1506 	 -57.3001 	 -77.8224
| 30> H 	 -66.2209 	 -57.192 	 -77.9504
| 31> H 	 -64.9501 	 -56.9634 	 -76.8396
| 32> C 	 -64.7505 	 -58.8213 	 -77.708
| 33> H 	 -63.6702 	 -58.9336 	 -77.8635
| 34> H 	 -65.3157 	 -59.331 	 -78.4652
| 35> C 	 -65.102 	 -59.3586 	 -76.3171
| 36> H 	 -66.1451 	 -59.3845 	 -76.3192
| 37> H 	 -64.5738 	 -58.7075 	 -75.6515
| 38> H 	 -64.7371 	 -60.4002 	 -76.1088
| 39> H 	 -67.0368 	 -58.0488 	 -84.2195
| 40> H 	 -62.2127 	 -53.9676 	 -78.9929
| 41> *
| 42>
| 43>                          ****END OF INPUT****

CARTESIAN COORDINATES (ANGSTROEM)
---------------------------------
  S    -65.385100  -56.762900  -82.847200
  C    -66.531000  -58.022900  -83.261200
  C    -66.904000  -58.693700  -82.115000
  C    -66.219000  -58.200900  -81.004800
  C    -65.283400  -57.214300  -81.210900
  H    -66.407600  -58.546200  -79.994300
  C    -68.027600  -59.679800  -81.928100
  H    -67.841100  -60.255400  -81.035100
  H    -67.950700  -60.437200  -82.810600
  C    -69.416400  -59.011800  -81.968000
  H    -69.565200  -58.526300  -82.868300
  H    -70.038100  -59.851400  -81.998600
  C    -69.829400  -58.073600  -80.732900
  H    -69.058600  -57.335600  -80.518800
  H    -70.824800  -57.595400  -80.848200
  H    -69.928300  -58.619700  -79.844700
  S    -63.338300  -55.279400  -80.926500
  C    -62.976900  -54.675400  -79.339600
  C    -63.560900  -55.419700  -78.327600
  C    -64.383200  -56.434600  -78.832300
  C    -64.488700  -56.490800  -80.260500
  H    -63.516600  -55.213300  -77.267700
  C    -65.150600  -57.300100  -77.822400
  H    -66.220900  -57.192000  -77.950400
  H    -64.950100  -56.963400  -76.839600
  C    -64.750500  -58.821300  -77.708000
  H    -63.670200  -58.933600  -77.863500
  H    -65.315700  -59.331000  -78.465200
  C    -65.102000  -59.358600  -76.317100
  H    -66.145100  -59.384500  -76.319200
  H    -64.573800  -58.707500  -75.651500
  H    -64.737100  -60.400200  -76.108800
  H    -67.036800  -58.048800  -84.219500
  H    -62.212700  -53.967600  -78.992900

 Total Charge           Charge          ....    0
 Multiplicity           Mult            ....    1
 Number of Electrons    NEL             ....  134
 Basis Dimension        Dim             ....  322

ORBITAL ENERGIES
----------------

  NO   OCC          E(Eh)            E(eV)
   0   2.0000     -88.971675     -2421.0424
   1   2.0000     -88.964767     -2420.8544
   2   2.0000     -10.336815      -281.2790
   3   2.0000     -10.326950      -281.0106
   4   2.0000     -10.319780      -280.8155
   5   2.0000     -10.312680      -280.6223
   6   2.0000     -10.308500      -280.5086
   7   2.0000     -10.300201      -280.2827
   8   2.0000     -10.296004      -280.1685
   9   2.0000     -10.292367      -280.0696
  10   2.0000     -10.291093      -280.0349
  11   2.0000     -10.285116      -279.8722
  12   2.0000     -10.285054      -279.8705
  13   2.0000     -10.283811      -279.8367
  14   2.0000     -10.279552      -279.7208
  15   2.0000     -10.277284      -279.6591
  16   2.0000      -8.085505      -220.0178
  17   2.0000      -8.080383      -219.8784
  18   2.0000      -6.044080      -164.4678
  19   2.0000      -6.040098      -164.3594
  20   2.0000      -6.038862      -164.3258
  21   2.0000      -6.036306      -164.2562
  22   2.0000      -6.034738      -164.2136
  23   2.0000      -6.031138      -164.1156
  24   2.0000      -1.013811       -27.5872
  25   2.0000      -0.986500       -26.8440
  26   2.0000      -0.913549       -24.8589
  27   2.0000      -0.909219       -24.7411
  28   2.0000      -0.870840       -23.6968
  29   2.0000      -0.856019       -23.2935
  30   2.0000      -0.843939       -22.9647
  31   2.0000      -0.812890       -22.1198
  32   2.0000      -0.786183       -21.3931
  33   2.0000      -0.772984       -21.0340
  34   2.0000      -0.715502       -19.4698
  35   2.0000      -0.709206       -19.2985
  36   2.0000      -0.692393       -18.8410
  37   2.0000      -0.665879       -18.1195
  38   2.0000      -0.639610       -17.4047
  39   2.0000      -0.620239       -16.8776
  40   2.0000      -0.594048       -16.1649
  41   2.0000      -0.581940       -15.8354
  42   2.0000      -0.576079       -15.6759
  43   2.0000      -0.541451       -14.7336
  44   2.0000      -0.540396       -14.7049
  45   2.0000      -0.526513       -14.3272
  46   2.0000      -0.512981       -13.9589
  47   2.0000      -0.511196       -13.9104
  48   2.0000      -0.509292       -13.8585
  49   2.0000      -0.499726       -13.5982
  50   2.0000      -0.487569       -13.2674
  51   2.0000      -0.485290       -13.2054
  52   2.0000      -0.475235       -12.9318
  53   2.0000      -0.469325       -12.7710
  54   2.0000      -0.462375       -12.5819
  55   2.0000      -0.454957       -12.3800
  56   2.0000      -0.446558       -12.1515
  57   2.0000      -0.440890       -11.9972
  58   2.0000      -0.433009       -11.7828
  59   2.0000      -0.425787       -11.5863
  60   2.0000      -0.418180       -11.3792
  61   2.0000      -0.415842       -11.3156
  62   2.0000      -0.411225       -11.1900
  63   2.0000      -0.364418        -9.9163
  64   2.0000      -0.338343        -9.2068
  65   2.0000      -0.329975        -8.9791
  66   2.0000      -0.275948        -7.5089
  67   0.0000       0.011736         0.3194
  68   0.0000       0.086725         2.3599
  69   0.0000       0.094984         2.5846
  70   0.0000       0.123982         3.3737
  71   0.0000       0.127680         3.4744

MULLIKEN ATOMIC CHARGES
-----------------------
   0 S :    0.093286
   1 C :   -0.133655
   2 C :   -0.055717
   3 C :   -0.038725
   4 C :   -0.072090
   5 H :   -0.020164
   6 C :    0.017173
   7 H :    0.024235
   8 H :    0.043812
   9 C :    0.002849
  10 H :    0.010506
  11 H :    0.014850
  12 C :   -0.055946
  13 H :    0.045302
  14 H :    0.042124
  15 H :    0.011891
  16 S :    0.101979
  17 C :   -0.065695
  18 C :   -0.049732
  19 C :   -0.055648
  20 C :   -0.117222
  21 H :    0.020169
  22 C :    0.053976
  23 H :    0.039586
  24 H :   -0.018171
  25 C :   -0.071991
  26 H :    0.036845
  27 H :    0.022413
  28 C :   -0.042000
  29 H :    0.025802
  30 H :    0.032388
  31 H :    0.041682
  32 H :    0.052447
  33 H :    0.063441
Sum of atomic charges:    0.0000000

LOEWDIN ATOMIC CHARGES
----------------------
   0 S :    0.424906
   1 C :   -0.199674
   2 C :   -0.067132
   3 C :   -0.078064
   4 C :   -0.205241
   5 H :    0.022593
   6 C :   -0.029827
   7 H :    0.026476
   8 H :    0.043993
   9 C :   -0.022886
  10 H :    0.014127
  11 H :    0.018482
  12 C :   -0.064904
  13 H :    0.027245
  14 H :    0.033530
  15 H :    0.015046
  16 S :    0.401086
  17 C :   -0.194029
  18 C :   -0.075369
  19 C :   -0.050066
  20 C :   -0.178918
  21 H :    0.033755
  22 C :   -0.030521
  23 H :    0.029650
  24 H :    0.018137
  25 C :   -0.033294
  26 H :    0.026027
  27 H :    0.012628
  28 C :   -0.058760
  29 H :    0.018086
  30 H :    0.021971
  31 H :    0.033004
  32 H :    0.028876
  33 H :    0.039064

  Mayer bond orders larger than 0.100000
B(  0-S ,  1-C ) :   1.1459 B(  0-S ,  4-C ) :   1.1632 B(  1-C ,  2-C ) :   1.5613
B(  1-C ,  4-C ) :   0.1019 B(  1-C , 32-H ) :   0.9733 B(  2-C ,  3-C ) :   1.3007
B(  2-C ,  6-C ) :   1.0227 B(  3-C ,  4-C ) :   1.5163 B(  3-C ,  5-H ) :   0.9928
B(  4-C , 20-C ) :   1.1154 B(  6-C ,  7-H ) :   0.9436 B(  6-C ,  8-H ) :   0.9385
B(  6-C ,  9-C ) :   1.0684 B(  9-C , 10-H ) :   0.9581 B(  9-C , 11-H ) :   0.9548
B(  9-C , 12-C ) :   1.0619 B( 12-C , 13-H ) :   0.9787 B( 12-C , 14-H ) :   0.9759
B( 12-C , 15-H ) :   0.9763 B( 16-S , 17-C ) :   1.1658 B( 16-S , 20-C ) :   1.1283
B( 17-C , 18-C ) :   1.5741 B( 17-C , 20-C ) :   0.1077 B( 17-C , 33-H ) :   0.9567
B( 18-C , 19-C ) :   1.3154 B( 18-C , 21-H ) :   0.9824 B( 19-C , 20-C ) :   1.5190
B( 19-C , 22-C ) :   1.0475 B( 22-C , 23-H ) :   0.9283 B( 22-C , 24-H ) :   0.9337
B( 22-C , 25-C ) :   1.0498 B( 25-C , 26-H ) :   0.9566 B( 25-C , 27-H ) :   0.9550
B( 25-C , 28-C ) :   1.0826 B( 28-C , 29-H ) :   0.9785 B( 28-C , 30-H ) :   0.9761
B( 28-C , 31-H ) :   0.9741

Dispersion correction           -0.014431960
FINAL SINGLE POINT ENERGY     -1339.862622893613

DIPOLE MOMENT
-------------
                                X             Y             Z
Electronic contribution:     18.24705      16.67669     -17.39398
Nuclear contribution   :    -18.70505     -16.97811      17.96389
                        -----------------------------------------
Total Dipole Moment    :     -0.45800      -0.30142       0.56991
                        -----------------------------------------
Magnitude (a.u.)       :      0.79084
Magnitude (Debye)      :      2.01014

Rotational constants in cm-1:     0.016698     0.010054     0.006999
Rotational constants in MHz :   500.594207   301.425166   209.815812

                             ****ORCA TERMINATED NORMALLY****
TOTAL RUN TIME: 0 days 0 hours 0 minutes 22 seconds 63 msec
