                         Program Version 4.2.1 -  RELEASE  -
|  1> ! wB97X-D3 SP def2-SVP
|  2> %pal
|  3> nprocs 24
|  4> end
|  5>
|  6> * xyz 0 1
|  7> S 	 -41.7488 	 19.638 	 20.4522
|  8> C 	 -43.3904 	 18.9797 	 20.6739
|  9> C 	 -43.809 	 19.0665 	 21.9891
| 10> C 	 -42.7996 	 19.675 	 22.7603
| 11> C 	 -41.6311 	 19.9773 	 22.1535
| 12> H 	 -42.869 	 19.9276 	 23.8074
| 13> C 	 -45.1356 	 18.5482 	 22.501
| 14> H 	 -45.6503 	 18.2215 	 21.6039
| 15> H 	 -45.7127 	 19.2685 	 22.9916
| 16> C 	 -44.9401 	 17.2777 	 23.3872
| 17> H 	 -44.1783 	 16.6499 	 22.9731
| 18> H 	 -44.5959 	 17.536 	 24.3984
| 19> C 	 -46.2852 	 16.4165 	 23.4683
| 20> H 	 -46.065 	 15.4215 	 23.8669
| 21> H 	 -47.155 	 16.8649 	 24.0299
| 22> H 	 -46.7122 	 16.2358 	 22.4646
| 23> S 	 -39.4545 	 21.6922 	 22.0494
| 24> C 	 -38.1949 	 21.6883 	 23.2699
| 25> C 	 -38.4117 	 20.6373 	 24.1945
| 26> C 	 -39.705 	 19.9583 	 23.8894
| 27> C 	 -40.4171 	 20.4809 	 22.7918
| 28> H 	 -37.7013 	 20.4414 	 24.9369
| 29> C 	 -40.1608 	 18.8231 	 24.7975
| 30> H 	 -39.4166 	 18.0065 	 24.9334
| 31> H 	 -41.0007 	 18.4754 	 24.2559
| 32> C 	 -40.4526 	 19.4259 	 26.1802
| 33> H 	 -39.4763 	 19.7802 	 26.6056
| 34> H 	 -40.9012 	 18.5827 	 26.7878
| 35> C 	 -41.5154 	 20.4301 	 26.4413
| 36> H 	 -41.4227 	 21.2829 	 25.8323
| 37> H 	 -41.5096 	 20.8288 	 27.5172
| 38> H 	 -42.5163 	 19.9745 	 26.2632
| 39> H 	 -43.9157 	 18.4366 	 19.8895
| 40> H 	 -37.311 	 22.3218 	 23.2311
| 41> *
| 42>
| 43>                          ****END OF INPUT****

CARTESIAN COORDINATES (ANGSTROEM)
---------------------------------
  S    -41.748800   19.638000   20.452200
  C    -43.390400   18.979700   20.673900
  C    -43.809000   19.066500   21.989100
  C    -42.799600   19.675000   22.760300
  C    -41.631100   19.977300   22.153500
  H    -42.869000   19.927600   23.807400
  C    -45.135600   18.548200   22.501000
  H    -45.650300   18.221500   21.603900
  H    -45.712700   19.268500   22.991600
  C    -44.940100   17.277700   23.387200
  H    -44.178300   16.649900   22.973100
  H    -44.595900   17.536000   24.398400
  C    -46.285200   16.416500   23.468300
  H    -46.065000   15.421500   23.866900
  H    -47.155000   16.864900   24.029900
  H    -46.712200   16.235800   22.464600
  S    -39.454500   21.692200   22.049400
  C    -38.194900   21.688300   23.269900
  C    -38.411700   20.637300   24.194500
  C    -39.705000   19.958300   23.889400
  C    -40.417100   20.480900   22.791800
  H    -37.701300   20.441400   24.936900
  C    -40.160800   18.823100   24.797500
  H    -39.416600   18.006500   24.933400
  H    -41.000700   18.475400   24.255900
  C    -40.452600   19.425900   26.180200
  H    -39.476300   19.780200   26.605600
  H    -40.901200   18.582700   26.787800
  C    -41.515400   20.430100   26.441300
  H    -41.422700   21.282900   25.832300
  H    -41.509600   20.828800   27.517200
  H    -42.516300   19.974500   26.263200
  H    -43.915700   18.436600   19.889500
  H    -37.311000   22.321800   23.231100

 Total Charge           Charge          ....    0
 Multiplicity           Mult            ....    1
 Number of Electrons    NEL             ....  134
 Basis Dimension        Dim             ....  322

ORBITAL ENERGIES
----------------

  NO   OCC          E(Eh)            E(eV)
   0   2.0000     -88.966225     -2420.8941
   1   2.0000     -88.965060     -2420.8624
   2   2.0000     -10.329215      -281.0722
   3   2.0000     -10.328330      -281.0481
   4   2.0000     -10.325252      -280.9644
   5   2.0000     -10.317592      -280.7559
   6   2.0000     -10.310837      -280.5721
   7   2.0000     -10.301993      -280.3315
   8   2.0000     -10.301418      -280.3158
   9   2.0000     -10.294964      -280.1402
  10   2.0000     -10.292785      -280.0809
  11   2.0000     -10.289753      -279.9984
  12   2.0000     -10.289554      -279.9930
  13   2.0000     -10.289310      -279.9864
  14   2.0000     -10.287594      -279.9397
  15   2.0000     -10.277789      -279.6729
  16   2.0000      -8.080838      -219.8908
  17   2.0000      -8.080238      -219.8744
  18   2.0000      -6.039353      -164.3391
  19   2.0000      -6.038827      -164.3248
  20   2.0000      -6.035462      -164.2333
  21   2.0000      -6.034461      -164.2060
  22   2.0000      -6.031489      -164.1252
  23   2.0000      -6.031122      -164.1152
  24   2.0000      -1.008940       -27.4547
  25   2.0000      -0.983532       -26.7633
  26   2.0000      -0.912062       -24.8185
  27   2.0000      -0.909961       -24.7613
  28   2.0000      -0.868024       -23.6201
  29   2.0000      -0.848314       -23.0838
  30   2.0000      -0.842023       -22.9126
  31   2.0000      -0.818773       -22.2799
  32   2.0000      -0.783405       -21.3175
  33   2.0000      -0.772320       -21.0159
  34   2.0000      -0.710145       -19.3240
  35   2.0000      -0.697656       -18.9842
  36   2.0000      -0.692006       -18.8304
  37   2.0000      -0.657709       -17.8972
  38   2.0000      -0.645785       -17.5727
  39   2.0000      -0.623327       -16.9616
  40   2.0000      -0.593101       -16.1391
  41   2.0000      -0.577622       -15.7179
  42   2.0000      -0.561567       -15.2810
  43   2.0000      -0.551740       -15.0136
  44   2.0000      -0.543803       -14.7976
  45   2.0000      -0.527004       -14.3405
  46   2.0000      -0.523118       -14.2348
  47   2.0000      -0.508366       -13.8333
  48   2.0000      -0.506707       -13.7882
  49   2.0000      -0.503255       -13.6943
  50   2.0000      -0.494443       -13.4545
  51   2.0000      -0.477325       -12.9887
  52   2.0000      -0.469157       -12.7664
  53   2.0000      -0.462338       -12.5808
  54   2.0000      -0.457923       -12.4607
  55   2.0000      -0.445169       -12.1137
  56   2.0000      -0.444151       -12.0860
  57   2.0000      -0.443042       -12.0558
  58   2.0000      -0.431415       -11.7394
  59   2.0000      -0.430101       -11.7036
  60   2.0000      -0.423143       -11.5143
  61   2.0000      -0.417761       -11.3678
  62   2.0000      -0.398297       -10.8382
  63   2.0000      -0.351093        -9.5537
  64   2.0000      -0.334110        -9.0916
  65   2.0000      -0.324881        -8.8404
  66   2.0000      -0.293211        -7.9787
  67   0.0000       0.031313         0.8521
  68   0.0000       0.069900         1.9021
  69   0.0000       0.110116         2.9964
  70   0.0000       0.116217         3.1624
  71   0.0000       0.128856         3.5063

MULLIKEN ATOMIC CHARGES
-----------------------
   0 S :    0.107601
   1 C :   -0.138007
   2 C :   -0.088757
   3 C :    0.014506
   4 C :   -0.131391
   5 H :   -0.011765
   6 C :    0.131692
   7 H :    0.006798
   8 H :    0.028707
   9 C :   -0.078936
  10 H :    0.033484
  11 H :    0.036349
  12 C :   -0.089638
  13 H :    0.040114
  14 H :    0.044775
  15 H :    0.028032
  16 S :    0.100323
  17 C :   -0.101625
  18 C :   -0.014667
  19 C :   -0.098948
  20 C :   -0.131876
  21 H :    0.012103
  22 C :    0.127026
  23 H :    0.043101
  24 H :    0.006820
  25 C :   -0.126574
  26 H :    0.037945
  27 H :    0.033933
  28 C :   -0.053846
  29 H :    0.028233
  30 H :    0.046398
  31 H :    0.037383
  32 H :    0.052731
  33 H :    0.067975
Sum of atomic charges:   -0.0000000

LOEWDIN ATOMIC CHARGES
----------------------
   0 S :    0.394212
   1 C :   -0.185393
   2 C :   -0.061111
   3 C :   -0.069493
   4 C :   -0.191614
   5 H :    0.028132
   6 C :   -0.018064
   7 H :    0.029872
   8 H :    0.025236
   9 C :   -0.031687
  10 H :    0.023515
  11 H :    0.023498
  12 C :   -0.076568
  13 H :    0.026369
  14 H :    0.030424
  15 H :    0.023635
  16 S :    0.416923
  17 C :   -0.182211
  18 C :   -0.064473
  19 C :   -0.046434
  20 C :   -0.221500
  21 H :    0.022824
  22 C :   -0.031527
  23 H :    0.040372
  24 H :    0.021591
  25 C :   -0.051707
  26 H :    0.026113
  27 H :    0.031308
  28 C :   -0.071471
  29 H :    0.012969
  30 H :    0.040816
  31 H :    0.024801
  32 H :    0.028522
  33 H :    0.032120

  Mayer bond orders larger than 0.100000
B(  0-S ,  1-C ) :   1.1345 B(  0-S ,  4-C ) :   1.1392 B(  1-C ,  2-C ) :   1.6173
B(  1-C , 32-H ) :   0.9622 B(  2-C ,  3-C ) :   1.2238 B(  2-C ,  6-C ) :   1.0345
B(  3-C ,  4-C ) :   1.5945 B(  3-C ,  5-H ) :   0.9997 B(  4-C , 20-C ) :   1.0406
B(  6-C ,  7-H ) :   0.9365 B(  6-C ,  8-H ) :   0.9384 B(  6-C ,  9-C ) :   1.0532
B(  9-C , 10-H ) :   0.9596 B(  9-C , 11-H ) :   0.9569 B(  9-C , 12-C ) :   1.0720
B( 12-C , 13-H ) :   0.9781 B( 12-C , 14-H ) :   0.9773 B( 12-C , 15-H ) :   0.9770
B( 16-S , 17-C ) :   1.1699 B( 16-S , 20-C ) :   1.1340 B( 17-C , 18-C ) :   1.5902
B( 17-C , 33-H ) :   0.9683 B( 18-C , 19-C ) :   1.2232 B( 18-C , 21-H ) :   0.9997
B( 19-C , 20-C ) :   1.5705 B( 19-C , 22-C ) :   1.0422 B( 22-C , 23-H ) :   0.9353
B( 22-C , 24-H ) :   0.9273 B( 22-C , 25-C ) :   1.0634 B( 25-C , 26-H ) :   0.9556
B( 25-C , 27-H ) :   0.9557 B( 25-C , 28-C ) :   1.0874 B( 28-C , 29-H ) :   0.9686
B( 28-C , 30-H ) :   0.9659 B( 28-C , 31-H ) :   0.9672

Dispersion correction           -0.014951193
FINAL SINGLE POINT ENERGY     -1339.873799244637

DIPOLE MOMENT
-------------
                                X             Y             Z
Electronic contribution:     17.39280      14.46441     -21.34861
Nuclear contribution   :    -17.57696     -14.87666      21.88168
                        -----------------------------------------
Total Dipole Moment    :     -0.18415      -0.41225       0.53307
                        -----------------------------------------
Magnitude (a.u.)       :      0.69859
Magnitude (Debye)      :      1.77568

Rotational constants in cm-1:     0.019941     0.009052     0.006676
Rotational constants in MHz :   597.817581   271.370241   200.146315

                             ****ORCA TERMINATED NORMALLY****
TOTAL RUN TIME: 0 days 0 hours 0 minutes 22 seconds 191 msec
