                         Program Version 4.2.1 -  RELEASE  -
|  1> ! wB97X-D3 SP def2-SVP
|  2> %pal
|  3> nprocs 24
|  4> end
|  5>
|  6> * xyz 0 1
|  7> S 	 -72.2184 	 3.2191 	 12.2447
|  8> C 	 -70.6563 	 3.69329 	 11.4652
|  9> C 	 -69.9375 	 4.52204 	 12.3992
| 10> C 	 -70.5928 	 4.62894 	 13.6539
| 11> C 	 -71.7738 	 3.91568 	 13.7857
| 12> H 	 -70.1645 	 5.23661 	 14.353
| 13> C 	 -68.5417 	 5.05818 	 12.1065
| 14> H 	 -68.5361 	 6.16661 	 12.2989
| 15> H 	 -68.2385 	 4.96412 	 11.0665
| 16> C 	 -67.3637 	 4.64785 	 13.0331
| 17> H 	 -66.4488 	 4.95977 	 12.5992
| 18> H 	 -67.3033 	 5.18272 	 14.003
| 19> C 	 -67.3622 	 3.10175 	 13.318
| 20> H 	 -66.6149 	 2.91667 	 14.1064
| 21> H 	 -68.2429 	 2.726 	 13.7522
| 22> H 	 -67.0173 	 2.53354 	 12.431
| 23> S 	 -74.3393 	 4.48062 	 14.5622
| 24> C 	 -74.8319 	 4.3038 	 16.284
| 25> C 	 -73.8676 	 3.53915 	 16.9742
| 26> C 	 -72.6743 	 3.35162 	 16.2313
| 27> C 	 -72.7297 	 3.79346 	 14.9067
| 28> H 	 -74.1586 	 3.14517 	 17.943
| 29> C 	 -71.4066 	 2.69687 	 16.8436
| 30> H 	 -70.7537 	 2.30317 	 16.0356
| 31> H 	 -71.946 	 1.88669 	 17.3492
| 32> C 	 -70.569 	 3.43075 	 17.9713
| 33> H 	 -69.5236 	 2.90712 	 17.9371
| 34> H 	 -71.1169 	 3.28503 	 18.9088
| 35> C 	 -70.4343 	 4.97949 	 17.8036
| 36> H 	 -69.9525 	 5.12742 	 16.7926
| 37> H 	 -69.8299 	 5.55944 	 18.5324
| 38> H 	 -71.4914 	 5.45826 	 17.6955
| 39> H 	 -70.4281 	 3.5939 	 10.4133
| 40> H 	 -75.7829 	 4.67412 	 16.7349
| 41> *
| 42>
| 43>                          ****END OF INPUT****

CARTESIAN COORDINATES (ANGSTROEM)
---------------------------------
  S    -72.218400    3.219100   12.244700
  C    -70.656300    3.693290   11.465200
  C    -69.937500    4.522040   12.399200
  C    -70.592800    4.628940   13.653900
  C    -71.773800    3.915680   13.785700
  H    -70.164500    5.236610   14.353000
  C    -68.541700    5.058180   12.106500
  H    -68.536100    6.166610   12.298900
  H    -68.238500    4.964120   11.066500
  C    -67.363700    4.647850   13.033100
  H    -66.448800    4.959770   12.599200
  H    -67.303300    5.182720   14.003000
  C    -67.362200    3.101750   13.318000
  H    -66.614900    2.916670   14.106400
  H    -68.242900    2.726000   13.752200
  H    -67.017300    2.533540   12.431000
  S    -74.339300    4.480620   14.562200
  C    -74.831900    4.303800   16.284000
  C    -73.867600    3.539150   16.974200
  C    -72.674300    3.351620   16.231300
  C    -72.729700    3.793460   14.906700
  H    -74.158600    3.145170   17.943000
  C    -71.406600    2.696870   16.843600
  H    -70.753700    2.303170   16.035600
  H    -71.946000    1.886690   17.349200
  C    -70.569000    3.430750   17.971300
  H    -69.523600    2.907120   17.937100
  H    -71.116900    3.285030   18.908800
  C    -70.434300    4.979490   17.803600
  H    -69.952500    5.127420   16.792600
  H    -69.829900    5.559440   18.532400
  H    -71.491400    5.458260   17.695500
  H    -70.428100    3.593900   10.413300
  H    -75.782900    4.674120   16.734900

 Total Charge           Charge          ....    0
 Multiplicity           Mult            ....    1
 Number of Electrons    NEL             ....  134
 Basis Dimension        Dim             ....  322

ORBITAL ENERGIES
----------------

  NO   OCC          E(Eh)            E(eV)
   0   2.0000     -88.967337     -2420.9243
   1   2.0000     -88.966978     -2420.9146
   2   2.0000     -10.337759      -281.3047
   3   2.0000     -10.333783      -281.1965
   4   2.0000     -10.331686      -281.1395
   5   2.0000     -10.324018      -280.9308
   6   2.0000     -10.312532      -280.6183
   7   2.0000     -10.309514      -280.5362
   8   2.0000     -10.303549      -280.3738
   9   2.0000     -10.302871      -280.3554
  10   2.0000     -10.299402      -280.2610
  11   2.0000     -10.298568      -280.2383
  12   2.0000     -10.291256      -280.0393
  13   2.0000     -10.291069      -280.0342
  14   2.0000     -10.290570      -280.0207
  15   2.0000     -10.273716      -279.5620
  16   2.0000      -8.081052      -219.8966
  17   2.0000      -8.080440      -219.8800
  18   2.0000      -6.039668      -164.3477
  19   2.0000      -6.039090      -164.3320
  20   2.0000      -6.035543      -164.2355
  21   2.0000      -6.035074      -164.2227
  22   2.0000      -6.031910      -164.1366
  23   2.0000      -6.031151      -164.1160
  24   2.0000      -0.999175       -27.1889
  25   2.0000      -0.975293       -26.5391
  26   2.0000      -0.906014       -24.6539
  27   2.0000      -0.895293       -24.3622
  28   2.0000      -0.862466       -23.4689
  29   2.0000      -0.842558       -22.9272
  30   2.0000      -0.839707       -22.8496
  31   2.0000      -0.812902       -22.1202
  32   2.0000      -0.781201       -21.2575
  33   2.0000      -0.769741       -20.9457
  34   2.0000      -0.709154       -19.2970
  35   2.0000      -0.696727       -18.9589
  36   2.0000      -0.685509       -18.6536
  37   2.0000      -0.660388       -17.9701
  38   2.0000      -0.639331       -17.3971
  39   2.0000      -0.628702       -17.1078
  40   2.0000      -0.585083       -15.9209
  41   2.0000      -0.562575       -15.3085
  42   2.0000      -0.550602       -14.9826
  43   2.0000      -0.546951       -14.8833
  44   2.0000      -0.539617       -14.6837
  45   2.0000      -0.534831       -14.5535
  46   2.0000      -0.517481       -14.0814
  47   2.0000      -0.510950       -13.9037
  48   2.0000      -0.502502       -13.6738
  49   2.0000      -0.497220       -13.5301
  50   2.0000      -0.484120       -13.1736
  51   2.0000      -0.473526       -12.8853
  52   2.0000      -0.469695       -12.7810
  53   2.0000      -0.462269       -12.5790
  54   2.0000      -0.457663       -12.4536
  55   2.0000      -0.451541       -12.2870
  56   2.0000      -0.440832       -11.9957
  57   2.0000      -0.432786       -11.7767
  58   2.0000      -0.426076       -11.5941
  59   2.0000      -0.421911       -11.4808
  60   2.0000      -0.420184       -11.4338
  61   2.0000      -0.411163       -11.1883
  62   2.0000      -0.404435       -11.0052
  63   2.0000      -0.341779        -9.3003
  64   2.0000      -0.329512        -8.9665
  65   2.0000      -0.327397        -8.9089
  66   2.0000      -0.294503        -8.0138
  67   0.0000       0.027080         0.7369
  68   0.0000       0.051137         1.3915
  69   0.0000       0.102212         2.7813
  70   0.0000       0.116862         3.1800
  71   0.0000       0.122133         3.3234

MULLIKEN ATOMIC CHARGES
-----------------------
   0 S :    0.096495
   1 C :   -0.121461
   2 C :   -0.109112
   3 C :    0.090408
   4 C :   -0.130139
   5 H :   -0.036793
   6 C :    0.054267
   7 H :    0.037846
   8 H :    0.026938
   9 C :   -0.080894
  10 H :    0.018867
  11 H :    0.026572
  12 C :   -0.049396
  13 H :    0.020488
  14 H :    0.036605
  15 H :    0.039226
  16 S :    0.096067
  17 C :   -0.121799
  18 C :   -0.045844
  19 C :   -0.027232
  20 C :   -0.154262
  21 H :    0.028388
  22 C :    0.040788
  23 H :    0.047880
  24 H :    0.034691
  25 C :   -0.083152
  26 H :    0.057395
  27 H :    0.035607
  28 C :   -0.106051
  29 H :    0.028558
  30 H :    0.051646
  31 H :    0.059843
  32 H :    0.058290
  33 H :    0.079266
Sum of atomic charges:    0.0000000

LOEWDIN ATOMIC CHARGES
----------------------
   0 S :    0.391388
   1 C :   -0.187378
   2 C :   -0.054154
   3 C :   -0.055155
   4 C :   -0.188948
   5 H :    0.014415
   6 C :   -0.039706
   7 H :    0.040862
   8 H :    0.030166
   9 C :   -0.040997
  10 H :    0.021191
  11 H :    0.023826
  12 C :   -0.066698
  13 H :    0.025362
  14 H :    0.018105
  15 H :    0.028811
  16 S :    0.378331
  17 C :   -0.172305
  18 C :   -0.076916
  19 C :   -0.056844
  20 C :   -0.194093
  21 H :    0.035028
  22 C :   -0.035595
  23 H :    0.034543
  24 H :    0.037900
  25 C :   -0.046866
  26 H :    0.040534
  27 H :    0.022212
  28 C :   -0.087974
  29 H :    0.024281
  30 H :    0.028361
  31 H :    0.039435
  32 H :    0.028823
  33 H :    0.040055

  Mayer bond orders larger than 0.100000
B(  0-S ,  1-C ) :   1.1366 B(  0-S ,  4-C ) :   1.1639 B(  1-C ,  2-C ) :   1.5644
B(  1-C ,  4-C ) :   0.1131 B(  1-C , 32-H ) :   0.9696 B(  2-C ,  3-C ) :   1.2679
B(  2-C ,  6-C ) :   1.0401 B(  3-C ,  4-C ) :   1.5337 B(  3-C ,  5-H ) :   1.0167
B(  4-C , 20-C ) :   1.0062 B(  6-C ,  7-H ) :   0.9337 B(  6-C ,  8-H ) :   0.9507
B(  6-C ,  9-C ) :   1.0624 B(  9-C , 10-H ) :   0.9538 B(  9-C , 11-H ) :   0.9569
B(  9-C , 12-C ) :   1.0779 B( 12-C , 13-H ) :   0.9745 B( 12-C , 14-H ) :   0.9738
B( 12-C , 15-H ) :   0.9781 B( 16-S , 17-C ) :   1.1560 B( 16-S , 20-C ) :   1.1312
B( 17-C , 18-C ) :   1.6025 B( 17-C , 20-C ) :   0.1109 B( 17-C , 33-H ) :   0.9625
B( 18-C , 19-C ) :   1.2265 B( 18-C , 21-H ) :   0.9906 B( 19-C , 20-C ) :   1.6084
B( 19-C , 22-C ) :   1.0225 B( 22-C , 23-H ) :   0.9448 B( 22-C , 24-H ) :   0.9411
B( 22-C , 25-C ) :   1.0481 B( 25-C , 26-H ) :   0.9578 B( 25-C , 27-H ) :   0.9569
B( 25-C , 28-C ) :   1.0734 B( 28-C , 29-H ) :   0.9758 B( 28-C , 30-H ) :   0.9746
B( 28-C , 31-H ) :   0.9656

Dispersion correction           -0.015432282
FINAL SINGLE POINT ENERGY     -1339.852798026167

DIPOLE MOMENT
-------------
                                X             Y             Z
Electronic contribution:    -26.25604      -1.32388     -11.72671
Nuclear contribution   :     26.73642       1.47301      12.14444
                        -----------------------------------------
Total Dipole Moment    :      0.48037       0.14912       0.41773
                        -----------------------------------------
Magnitude (a.u.)       :      0.65383
Magnitude (Debye)      :      1.66190

Rotational constants in cm-1:     0.018506     0.009920     0.007221
Rotational constants in MHz :   554.786118   297.396809   216.493170

                             ****ORCA TERMINATED NORMALLY****
TOTAL RUN TIME: 0 days 0 hours 0 minutes 22 seconds 323 msec
