                         Program Version 4.2.1 -  RELEASE  -
|  1> ! wB97X-D3 SP def2-SVP
|  2> %pal
|  3> nprocs 24
|  4> end
|  5>
|  6> * xyz 0 1
|  7> S 	 -64.8213 	 -50.9204 	 -84.7232
|  8> C 	 -63.0718 	 -50.5991 	 -85.1089
|  9> C 	 -62.4386 	 -49.819 	 -84.1771
| 10> C 	 -63.3823 	 -49.4389 	 -83.1273
| 11> C 	 -64.6952 	 -49.8694 	 -83.3243
| 12> H 	 -63.1389 	 -48.8571 	 -82.2249
| 13> C 	 -60.9816 	 -49.6149 	 -84.212
| 14> H 	 -60.7324 	 -48.6447 	 -83.7665
| 15> H 	 -60.6081 	 -49.6799 	 -85.2939
| 16> C 	 -60.2289 	 -50.6596 	 -83.319
| 17> H 	 -59.2268 	 -50.3445 	 -83.1581
| 18> H 	 -60.6307 	 -50.5369 	 -82.2983
| 19> C 	 -60.1453 	 -52.106 	 -83.8781
| 20> H 	 -61.2082 	 -52.4105 	 -84.1217
| 21> H 	 -59.6159 	 -51.9518 	 -84.8367
| 22> H 	 -59.6392 	 -52.7198 	 -83.158
| 23> S 	 -67.1178 	 -48.7246 	 -83.6061
| 24> C 	 -68.06 	 -48.2006 	 -82.2428
| 25> C 	 -67.4638 	 -48.6154 	 -81.1054
| 26> C 	 -66.1891 	 -49.2009 	 -81.2542
| 27> C 	 -65.8802 	 -49.3959 	 -82.614
| 28> H 	 -67.9617 	 -48.5197 	 -80.1456
| 29> C 	 -65.5085 	 -49.7496 	 -80.0068
| 30> H 	 -65.9232 	 -49.1706 	 -79.1811
| 31> H 	 -64.3823 	 -49.6839 	 -79.9657
| 32> C 	 -65.6438 	 -51.2472 	 -79.8309
| 33> H 	 -66.6729 	 -51.6465 	 -79.8517
| 34> H 	 -65.1707 	 -51.3045 	 -78.8554
| 35> C 	 -64.8991 	 -52.1436 	 -80.8551
| 36> H 	 -65.5095 	 -52.1088 	 -81.7746
| 37> H 	 -64.8759 	 -53.2109 	 -80.4658
| 38> H 	 -63.8631 	 -51.7829 	 -81.0769
| 39> H 	 -62.5411 	 -51.0956 	 -85.9175
| 40> H 	 -69.0035 	 -47.769 	 -82.4531
| 41> *
| 42>
| 43>                          ****END OF INPUT****

CARTESIAN COORDINATES (ANGSTROEM)
---------------------------------
  S    -64.821300  -50.920400  -84.723200
  C    -63.071800  -50.599100  -85.108900
  C    -62.438600  -49.819000  -84.177100
  C    -63.382300  -49.438900  -83.127300
  C    -64.695200  -49.869400  -83.324300
  H    -63.138900  -48.857100  -82.224900
  C    -60.981600  -49.614900  -84.212000
  H    -60.732400  -48.644700  -83.766500
  H    -60.608100  -49.679900  -85.293900
  C    -60.228900  -50.659600  -83.319000
  H    -59.226800  -50.344500  -83.158100
  H    -60.630700  -50.536900  -82.298300
  C    -60.145300  -52.106000  -83.878100
  H    -61.208200  -52.410500  -84.121700
  H    -59.615900  -51.951800  -84.836700
  H    -59.639200  -52.719800  -83.158000
  S    -67.117800  -48.724600  -83.606100
  C    -68.060000  -48.200600  -82.242800
  C    -67.463800  -48.615400  -81.105400
  C    -66.189100  -49.200900  -81.254200
  C    -65.880200  -49.395900  -82.614000
  H    -67.961700  -48.519700  -80.145600
  C    -65.508500  -49.749600  -80.006800
  H    -65.923200  -49.170600  -79.181100
  H    -64.382300  -49.683900  -79.965700
  C    -65.643800  -51.247200  -79.830900
  H    -66.672900  -51.646500  -79.851700
  H    -65.170700  -51.304500  -78.855400
  C    -64.899100  -52.143600  -80.855100
  H    -65.509500  -52.108800  -81.774600
  H    -64.875900  -53.210900  -80.465800
  H    -63.863100  -51.782900  -81.076900
  H    -62.541100  -51.095600  -85.917500
  H    -69.003500  -47.769000  -82.453100

 Total Charge           Charge          ....    0
 Multiplicity           Mult            ....    1
 Number of Electrons    NEL             ....  134
 Basis Dimension        Dim             ....  322

ORBITAL ENERGIES
----------------

  NO   OCC          E(Eh)            E(eV)
   0   2.0000     -88.967568     -2420.9306
   1   2.0000     -88.961737     -2420.7719
   2   2.0000     -10.333633      -281.1925
   3   2.0000     -10.327384      -281.0224
   4   2.0000     -10.316901      -280.7371
   5   2.0000     -10.311246      -280.5833
   6   2.0000     -10.303963      -280.3851
   7   2.0000     -10.302304      -280.3399
   8   2.0000     -10.301285      -280.3122
   9   2.0000     -10.300454      -280.2896
  10   2.0000     -10.296484      -280.1816
  11   2.0000     -10.290304      -280.0134
  12   2.0000     -10.287373      -279.9336
  13   2.0000     -10.284278      -279.8494
  14   2.0000     -10.283532      -279.8291
  15   2.0000     -10.280499      -279.7466
  16   2.0000      -8.081045      -219.8964
  17   2.0000      -8.077591      -219.8024
  18   2.0000      -6.039695      -164.3485
  19   2.0000      -6.035965      -164.2469
  20   2.0000      -6.035848      -164.2438
  21   2.0000      -6.031772      -164.1329
  22   2.0000      -6.031602      -164.1282
  23   2.0000      -6.028577      -164.0459
  24   2.0000      -1.009157       -27.4605
  25   2.0000      -0.981810       -26.7164
  26   2.0000      -0.914630       -24.8884
  27   2.0000      -0.911176       -24.7944
  28   2.0000      -0.869063       -23.6484
  29   2.0000      -0.845408       -23.0047
  30   2.0000      -0.842060       -22.9136
  31   2.0000      -0.812187       -22.1007
  32   2.0000      -0.782845       -21.3023
  33   2.0000      -0.775012       -21.0891
  34   2.0000      -0.708445       -19.2778
  35   2.0000      -0.693052       -18.8589
  36   2.0000      -0.684152       -18.6167
  37   2.0000      -0.664046       -18.0696
  38   2.0000      -0.636454       -17.3188
  39   2.0000      -0.617444       -16.8015
  40   2.0000      -0.605778       -16.4841
  41   2.0000      -0.568761       -15.4768
  42   2.0000      -0.553005       -15.0480
  43   2.0000      -0.548828       -14.9344
  44   2.0000      -0.545187       -14.8353
  45   2.0000      -0.539993       -14.6940
  46   2.0000      -0.518801       -14.1173
  47   2.0000      -0.508491       -13.8368
  48   2.0000      -0.498327       -13.5602
  49   2.0000      -0.493020       -13.4158
  50   2.0000      -0.486676       -13.2431
  51   2.0000      -0.478746       -13.0273
  52   2.0000      -0.467713       -12.7271
  53   2.0000      -0.465605       -12.6697
  54   2.0000      -0.462904       -12.5963
  55   2.0000      -0.444370       -12.0919
  56   2.0000      -0.440885       -11.9971
  57   2.0000      -0.434726       -11.8295
  58   2.0000      -0.433760       -11.8032
  59   2.0000      -0.427895       -11.6436
  60   2.0000      -0.418654       -11.3921
  61   2.0000      -0.414037       -11.2665
  62   2.0000      -0.405557       -11.0358
  63   2.0000      -0.349516        -9.5108
  64   2.0000      -0.329983        -8.9793
  65   2.0000      -0.328201        -8.9308
  66   2.0000      -0.290548        -7.9062
  67   0.0000       0.028842         0.7848
  68   0.0000       0.070352         1.9144
  69   0.0000       0.103995         2.8299
  70   0.0000       0.119089         3.2406
  71   0.0000       0.127332         3.4649

MULLIKEN ATOMIC CHARGES
-----------------------
   0 S :    0.096584
   1 C :   -0.134846
   2 C :   -0.059420
   3 C :    0.028350
   4 C :   -0.150878
   5 H :    0.019601
   6 C :    0.030581
   7 H :    0.029078
   8 H :    0.042182
   9 C :   -0.083864
  10 H :    0.016818
  11 H :    0.020697
  12 C :   -0.048144
  13 H :    0.050788
  14 H :    0.031613
  15 H :    0.048655
  16 S :    0.102425
  17 C :   -0.085741
  18 C :   -0.025576
  19 C :   -0.024901
  20 C :   -0.164729
  21 H :    0.018734
  22 C :    0.050967
  23 H :    0.024989
  24 H :    0.024966
  25 C :   -0.069025
  26 H :    0.031072
  27 H :    0.026383
  28 C :   -0.075820
  29 H :    0.044317
  30 H :    0.048858
  31 H :    0.036728
  32 H :    0.049200
  33 H :    0.049357
Sum of atomic charges:    0.0000000

LOEWDIN ATOMIC CHARGES
----------------------
   0 S :    0.370206
   1 C :   -0.176545
   2 C :   -0.061577
   3 C :   -0.063360
   4 C :   -0.187545
   5 H :    0.032262
   6 C :   -0.034568
   7 H :    0.034196
   8 H :    0.039061
   9 C :   -0.041307
  10 H :    0.015669
  11 H :    0.021737
  12 C :   -0.065196
  13 H :    0.032494
  14 H :    0.028174
  15 H :    0.026914
  16 S :    0.428578
  17 C :   -0.181929
  18 C :   -0.071789
  19 C :   -0.063385
  20 C :   -0.210363
  21 H :    0.032428
  22 C :   -0.034973
  23 H :    0.030952
  24 H :    0.035111
  25 C :   -0.042684
  26 H :    0.024533
  27 H :    0.022851
  28 C :   -0.072193
  29 H :    0.025596
  30 H :    0.034638
  31 H :    0.024366
  32 H :    0.025697
  33 H :    0.021950

  Mayer bond orders larger than 0.100000
B(  0-S ,  1-C ) :   1.1032 B(  0-S ,  4-C ) :   1.1369 B(  1-C ,  2-C ) :   1.6444
B(  1-C , 32-H ) :   0.9631 B(  2-C ,  3-C ) :   1.2006 B(  2-C ,  6-C ) :   1.0450
B(  3-C ,  4-C ) :   1.6068 B(  3-C ,  5-H ) :   0.9856 B(  4-C , 20-C ) :   1.0276
B(  6-C ,  7-H ) :   0.9288 B(  6-C ,  8-H ) :   0.9439 B(  6-C ,  9-C ) :   1.0691
B(  9-C , 10-H ) :   0.9569 B(  9-C , 11-H ) :   0.9528 B(  9-C , 12-C ) :   1.0625
B( 12-C , 13-H ) :   0.9746 B( 12-C , 14-H ) :   0.9739 B( 12-C , 15-H ) :   0.9729
B( 16-S , 17-C ) :   1.1651 B( 16-S , 20-C ) :   1.1737 B( 17-C , 18-C ) :   1.5657
B( 17-C , 20-C ) :   0.1048 B( 17-C , 33-H ) :   0.9797 B( 18-C , 19-C ) :   1.2740
B( 18-C , 21-H ) :   0.9889 B( 19-C , 20-C ) :   1.5483 B( 19-C , 22-C ) :   1.0462
B( 22-C , 23-H ) :   0.9322 B( 22-C , 24-H ) :   0.9365 B( 22-C , 25-C ) :   1.0609
B( 25-C , 26-H ) :   0.9539 B( 25-C , 27-H ) :   0.9561 B( 25-C , 28-C ) :   1.0809
B( 28-C , 29-H ) :   0.9678 B( 28-C , 30-H ) :   0.9715 B( 28-C , 31-H ) :   0.9715

Dispersion correction           -0.015865675
FINAL SINGLE POINT ENERGY     -1339.879383596852

DIPOLE MOMENT
-------------
                                X             Y             Z
Electronic contribution:    -20.11664      10.21993     -12.43784
Nuclear contribution   :     20.52268     -10.19800      12.93298
                        -----------------------------------------
Total Dipole Moment    :      0.40604       0.02193       0.49514
                        -----------------------------------------
Magnitude (a.u.)       :      0.64071
Magnitude (Debye)      :      1.62856

Rotational constants in cm-1:     0.022603     0.008882     0.007483
Rotational constants in MHz :   677.608674   266.278488   224.322980

                             ****ORCA TERMINATED NORMALLY****
TOTAL RUN TIME: 0 days 0 hours 0 minutes 22 seconds 879 msec
