                         Program Version 4.2.1 -  RELEASE  -
|  1> ! wB97X-D3 SP def2-SVP
|  2> %pal
|  3> nprocs 24
|  4> end
|  5>
|  6> * xyz 0 1
|  7> S 	 35.5502 	 -5.84832 	 -117.582
|  8> C 	 36.69 	 -7.14483 	 -117.932
|  9> C 	 37.5126 	 -7.36627 	 -116.835
| 10> C 	 37.1119 	 -6.69093 	 -115.672
| 11> C 	 36.0244 	 -5.84722 	 -115.868
| 12> H 	 37.6199 	 -6.82118 	 -114.702
| 13> C 	 38.7208 	 -8.30834 	 -116.88
| 14> H 	 38.7066 	 -8.83576 	 -117.842
| 15> H 	 38.4704 	 -9.09642 	 -116.247
| 16> C 	 40.1177 	 -7.53125 	 -116.59
| 17> H 	 40.2776 	 -6.69538 	 -117.339
| 18> H 	 40.0774 	 -6.91342 	 -115.607
| 19> C 	 41.3712 	 -8.42826 	 -116.658
| 20> H 	 41.3287 	 -9.37342 	 -116.259
| 21> H 	 41.5913 	 -8.41733 	 -117.727
| 22> H 	 42.1819 	 -7.98758 	 -116.07
| 23> S 	 33.7801 	 -4.28603 	 -115.407
| 24> C 	 33.6061 	 -3.4759 	 -113.903
| 25> C 	 34.5984 	 -3.70256 	 -113.018
| 26> C 	 35.5588 	 -4.72266 	 -113.525
| 27> C 	 35.2528 	 -5.12016 	 -114.864
| 28> H 	 34.6941 	 -3.07712 	 -112.161
| 29> C 	 36.834 	 -5.01296 	 -112.809
| 30> H 	 37.1558 	 -4.19687 	 -112.123
| 31> H 	 37.5761 	 -5.18717 	 -113.535
| 32> C 	 36.8068 	 -6.31631 	 -111.942
| 33> H 	 37.7365 	 -6.47424 	 -111.51
| 34> H 	 36.7592 	 -7.1444 	 -112.712
| 35> C 	 35.7052 	 -6.3865 	 -110.881
| 36> H 	 35.8296 	 -5.58711 	 -110.187
| 37> H 	 35.7916 	 -7.32887 	 -110.322
| 38> H 	 34.709 	 -6.36682 	 -111.259
| 39> H 	 36.6611 	 -7.65551 	 -118.857
| 40> H 	 32.9342 	 -2.64133 	 -113.759
| 41> *
| 42>
| 43>                          ****END OF INPUT****

CARTESIAN COORDINATES (ANGSTROEM)
---------------------------------
  S     35.550200   -5.848320  -117.582000
  C     36.690000   -7.144830  -117.932000
  C     37.512600   -7.366270  -116.835000
  C     37.111900   -6.690930  -115.672000
  C     36.024400   -5.847220  -115.868000
  H     37.619900   -6.821180  -114.702000
  C     38.720800   -8.308340  -116.880000
  H     38.706600   -8.835760  -117.842000
  H     38.470400   -9.096420  -116.247000
  C     40.117700   -7.531250  -116.590000
  H     40.277600   -6.695380  -117.339000
  H     40.077400   -6.913420  -115.607000
  C     41.371200   -8.428260  -116.658000
  H     41.328700   -9.373420  -116.259000
  H     41.591300   -8.417330  -117.727000
  H     42.181900   -7.987580  -116.070000
  S     33.780100   -4.286030  -115.407000
  C     33.606100   -3.475900  -113.903000
  C     34.598400   -3.702560  -113.018000
  C     35.558800   -4.722660  -113.525000
  C     35.252800   -5.120160  -114.864000
  H     34.694100   -3.077120  -112.161000
  C     36.834000   -5.012960  -112.809000
  H     37.155800   -4.196870  -112.123000
  H     37.576100   -5.187170  -113.535000
  C     36.806800   -6.316310  -111.942000
  H     37.736500   -6.474240  -111.510000
  H     36.759200   -7.144400  -112.712000
  C     35.705200   -6.386500  -110.881000
  H     35.829600   -5.587110  -110.187000
  H     35.791600   -7.328870  -110.322000
  H     34.709000   -6.366820  -111.259000
  H     36.661100   -7.655510  -118.857000
  H     32.934200   -2.641330  -113.759000

 Total Charge           Charge          ....    0
 Multiplicity           Mult            ....    1
 Number of Electrons    NEL             ....  134
 Basis Dimension        Dim             ....  322

ORBITAL ENERGIES
----------------

  NO   OCC          E(Eh)            E(eV)
   0   2.0000     -88.965939     -2420.8863
   1   2.0000     -88.964282     -2420.8412
   2   2.0000     -10.336310      -281.2653
   3   2.0000     -10.334834      -281.2251
   4   2.0000     -10.312948      -280.6296
   5   2.0000     -10.312830      -280.6264
   6   2.0000     -10.311890      -280.6008
   7   2.0000     -10.307642      -280.4852
   8   2.0000     -10.300929      -280.3025
   9   2.0000     -10.296084      -280.1707
  10   2.0000     -10.295143      -280.1451
  11   2.0000     -10.294636      -280.1313
  12   2.0000     -10.290251      -280.0120
  13   2.0000     -10.285717      -279.8886
  14   2.0000     -10.275229      -279.6032
  15   2.0000     -10.271686      -279.5068
  16   2.0000      -8.080155      -219.8722
  17   2.0000      -8.079380      -219.8511
  18   2.0000      -6.038768      -164.3232
  19   2.0000      -6.038017      -164.3028
  20   2.0000      -6.034819      -164.2158
  21   2.0000      -6.033888      -164.1905
  22   2.0000      -6.030765      -164.1055
  23   2.0000      -6.029934      -164.0828
  24   2.0000      -1.003292       -27.3010
  25   2.0000      -0.981361       -26.7042
  26   2.0000      -0.909940       -24.7607
  27   2.0000      -0.900342       -24.4995
  28   2.0000      -0.869013       -23.6471
  29   2.0000      -0.851891       -23.1811
  30   2.0000      -0.843206       -22.9448
  31   2.0000      -0.819077       -22.2882
  32   2.0000      -0.786616       -21.4049
  33   2.0000      -0.770956       -20.9788
  34   2.0000      -0.713242       -19.4083
  35   2.0000      -0.700462       -19.0605
  36   2.0000      -0.690008       -18.7761
  37   2.0000      -0.662344       -18.0233
  38   2.0000      -0.637852       -17.3568
  39   2.0000      -0.625367       -17.0171
  40   2.0000      -0.590236       -16.0611
  41   2.0000      -0.564218       -15.3531
  42   2.0000      -0.559674       -15.2295
  43   2.0000      -0.553609       -15.0645
  44   2.0000      -0.546513       -14.8714
  45   2.0000      -0.526575       -14.3288
  46   2.0000      -0.521206       -14.1827
  47   2.0000      -0.506029       -13.7697
  48   2.0000      -0.501157       -13.6372
  49   2.0000      -0.499445       -13.5906
  50   2.0000      -0.492553       -13.4030
  51   2.0000      -0.487945       -13.2777
  52   2.0000      -0.471192       -12.8218
  53   2.0000      -0.464577       -12.6418
  54   2.0000      -0.462277       -12.5792
  55   2.0000      -0.454562       -12.3692
  56   2.0000      -0.444100       -12.0846
  57   2.0000      -0.438020       -11.9191
  58   2.0000      -0.430786       -11.7223
  59   2.0000      -0.424600       -11.5539
  60   2.0000      -0.416673       -11.3383
  61   2.0000      -0.415795       -11.3144
  62   2.0000      -0.409548       -11.1444
  63   2.0000      -0.362751        -9.8709
  64   2.0000      -0.334747        -9.1089
  65   2.0000      -0.325160        -8.8480
  66   2.0000      -0.278220        -7.5707
  67   0.0000       0.014319         0.3896
  68   0.0000       0.084669         2.3040
  69   0.0000       0.095514         2.5991
  70   0.0000       0.119354         3.2478
  71   0.0000       0.133919         3.6441

MULLIKEN ATOMIC CHARGES
-----------------------
   0 S :    0.091264
   1 C :   -0.127822
   2 C :   -0.083122
   3 C :   -0.019635
   4 C :   -0.100795
   5 H :    0.015025
   6 C :    0.115742
   7 H :    0.010129
   8 H :    0.020019
   9 C :   -0.145947
  10 H :    0.046361
  11 H :    0.041519
  12 C :   -0.009483
  13 H :    0.018165
  14 H :    0.040771
  15 H :    0.030053
  16 S :    0.088677
  17 C :   -0.072518
  18 C :   -0.021885
  19 C :   -0.066165
  20 C :   -0.106596
  21 H :    0.015327
  22 C :    0.046997
  23 H :    0.031968
  24 H :    0.013390
  25 C :   -0.078552
  26 H :    0.011044
  27 H :    0.028072
  28 C :   -0.019072
  29 H :    0.018105
  30 H :    0.031518
  31 H :    0.039977
  32 H :    0.040874
  33 H :    0.056595
Sum of atomic charges:    0.0000000

LOEWDIN ATOMIC CHARGES
----------------------
   0 S :    0.382699
   1 C :   -0.188137
   2 C :   -0.060574
   3 C :   -0.075140
   4 C :   -0.172198
   5 H :    0.033550
   6 C :   -0.026267
   7 H :    0.030406
   8 H :    0.022683
   9 C :   -0.045142
  10 H :    0.033315
  11 H :    0.027159
  12 C :   -0.065273
  13 H :    0.012545
  14 H :    0.032050
  15 H :    0.031741
  16 S :    0.397932
  17 C :   -0.191377
  18 C :   -0.067745
  19 C :   -0.043938
  20 C :   -0.186897
  21 H :    0.029951
  22 C :   -0.033540
  23 H :    0.033918
  24 H :    0.020919
  25 C :   -0.034659
  26 H :    0.012052
  27 H :    0.023368
  28 C :   -0.060541
  29 H :    0.019869
  30 H :    0.031127
  31 H :    0.024651
  32 H :    0.020748
  33 H :    0.030745

  Mayer bond orders larger than 0.100000
B(  0-S ,  1-C ) :   1.1285 B(  0-S ,  4-C ) :   1.1409 B(  1-C ,  2-C ) :   1.5890
B(  1-C , 32-H ) :   0.9778 B(  2-C ,  3-C ) :   1.2688 B(  2-C ,  6-C ) :   1.0216
B(  3-C ,  4-C ) :   1.5430 B(  3-C ,  5-H ) :   0.9779 B(  4-C , 20-C ) :   1.1100
B(  6-C ,  7-H ) :   0.9428 B(  6-C ,  8-H ) :   0.9388 B(  6-C ,  9-C ) :   1.0252
B(  9-C , 10-H ) :   0.9634 B(  9-C , 11-H ) :   0.9641 B(  9-C , 12-C ) :   1.0668
B( 12-C , 13-H ) :   0.9786 B( 12-C , 14-H ) :   0.9804 B( 12-C , 15-H ) :   0.9730
B( 16-S , 17-C ) :   1.1482 B( 16-S , 20-C ) :   1.1205 B( 17-C , 18-C ) :   1.6538
B( 17-C , 33-H ) :   0.9589 B( 18-C , 19-C ) :   1.2093 B( 18-C , 21-H ) :   0.9927
B( 19-C , 20-C ) :   1.5721 B( 19-C , 22-C ) :   1.0541 B( 22-C , 23-H ) :   0.9399
B( 22-C , 24-H ) :   0.9291 B( 22-C , 25-C ) :   1.0751 B( 25-C , 26-H ) :   0.9567
B( 25-C , 27-H ) :   0.9491 B( 25-C , 28-C ) :   1.0794 B( 28-C , 29-H ) :   0.9747
B( 28-C , 30-H ) :   0.9714 B( 28-C , 31-H ) :   0.9735

Dispersion correction           -0.014229874
FINAL SINGLE POINT ENERGY     -1339.864246769806

DIPOLE MOMENT
-------------
                                X             Y             Z
Electronic contribution:    -23.52293      12.56004     -14.27075
Nuclear contribution   :     24.15691     -12.68667      14.66476
                        -----------------------------------------
Total Dipole Moment    :      0.63398      -0.12663       0.39401
                        -----------------------------------------
Magnitude (a.u.)       :      0.75710
Magnitude (Debye)      :      1.92441

Rotational constants in cm-1:     0.018663     0.008786     0.006362
Rotational constants in MHz :   559.488706   263.382724   190.736266

                             ****ORCA TERMINATED NORMALLY****
TOTAL RUN TIME: 0 days 0 hours 0 minutes 21 seconds 656 msec
