                         Program Version 4.2.1 -  RELEASE  -
|  1> ! wB97X-D3 SP def2-SVP
|  2> %pal
|  3> nprocs 24
|  4> end
|  5>
|  6> * xyz 0 1
|  7> S 	 -144.304 	 30.0574 	 -13.073
|  8> C 	 -144.108 	 29.5918 	 -14.7431
|  9> C 	 -145.361 	 29.3999 	 -15.3069
| 10> C 	 -146.494 	 29.7041 	 -14.3935
| 11> C 	 -146.037 	 30.0897 	 -13.1375
| 12> H 	 -147.556 	 29.7197 	 -14.7327
| 13> C 	 -145.547 	 28.988 	 -16.713
| 14> H 	 -144.643 	 28.6122 	 -17.1703
| 15> H 	 -145.746 	 29.8309 	 -17.3571
| 16> C 	 -146.523 	 27.8316 	 -16.946
| 17> H 	 -146.335 	 26.9775 	 -16.2776
| 18> H 	 -147.491 	 28.1721 	 -16.6893
| 19> C 	 -146.525 	 27.3556 	 -18.4713
| 20> H 	 -145.553 	 27.2637 	 -18.8776
| 21> H 	 -146.976 	 26.4225 	 -18.7376
| 22> H 	 -147.012 	 28.1034 	 -19.1243
| 23> S 	 -146.129 	 29.9171 	 -10.3627
| 24> C 	 -147.299 	 30.7469 	 -9.44029
| 25> C 	 -148.077 	 31.5532 	 -10.2286
| 26> C 	 -147.795 	 31.4259 	 -11.6684
| 27> C 	 -146.743 	 30.5441 	 -11.9195
| 28> H 	 -148.782 	 32.2124 	 -9.82547
| 29> C 	 -148.543 	 32.1979 	 -12.6389
| 30> H 	 -149.6 	 32.2084 	 -12.2755
| 31> H 	 -148.603 	 31.5666 	 -13.4929
| 32> C 	 -148.019 	 33.6508 	 -12.9589
| 33> H 	 -148.783 	 34.0795 	 -13.6724
| 34> H 	 -147.036 	 33.6944 	 -13.4619
| 35> C 	 -148.1 	 34.6196 	 -11.75
| 36> H 	 -148.072 	 35.5781 	 -12.2478
| 37> H 	 -147.152 	 34.5381 	 -11.2519
| 38> H 	 -148.957 	 34.4124 	 -11.1059
| 39> H 	 -143.218 	 29.6132 	 -15.3287
| 40> H 	 -147.487 	 30.4985 	 -8.41804
| 41> *
| 42>
| 43>                          ****END OF INPUT****

CARTESIAN COORDINATES (ANGSTROEM)
---------------------------------
  S    -144.304000   30.057400  -13.073000
  C    -144.108000   29.591800  -14.743100
  C    -145.361000   29.399900  -15.306900
  C    -146.494000   29.704100  -14.393500
  C    -146.037000   30.089700  -13.137500
  H    -147.556000   29.719700  -14.732700
  C    -145.547000   28.988000  -16.713000
  H    -144.643000   28.612200  -17.170300
  H    -145.746000   29.830900  -17.357100
  C    -146.523000   27.831600  -16.946000
  H    -146.335000   26.977500  -16.277600
  H    -147.491000   28.172100  -16.689300
  C    -146.525000   27.355600  -18.471300
  H    -145.553000   27.263700  -18.877600
  H    -146.976000   26.422500  -18.737600
  H    -147.012000   28.103400  -19.124300
  S    -146.129000   29.917100  -10.362700
  C    -147.299000   30.746900   -9.440290
  C    -148.077000   31.553200  -10.228600
  C    -147.795000   31.425900  -11.668400
  C    -146.743000   30.544100  -11.919500
  H    -148.782000   32.212400   -9.825470
  C    -148.543000   32.197900  -12.638900
  H    -149.600000   32.208400  -12.275500
  H    -148.603000   31.566600  -13.492900
  C    -148.019000   33.650800  -12.958900
  H    -148.783000   34.079500  -13.672400
  H    -147.036000   33.694400  -13.461900
  C    -148.100000   34.619600  -11.750000
  H    -148.072000   35.578100  -12.247800
  H    -147.152000   34.538100  -11.251900
  H    -148.957000   34.412400  -11.105900
  H    -143.218000   29.613200  -15.328700
  H    -147.487000   30.498500   -8.418040

 Total Charge           Charge          ....    0
 Multiplicity           Mult            ....    1
 Number of Electrons    NEL             ....  134
 Basis Dimension        Dim             ....  322

ORBITAL ENERGIES
----------------

  NO   OCC          E(Eh)            E(eV)
   0   2.0000     -88.963839     -2420.8291
   1   2.0000     -88.961275     -2420.7594
   2   2.0000     -10.336883      -281.2809
   3   2.0000     -10.331920      -281.1458
   4   2.0000     -10.313738      -280.6511
   5   2.0000     -10.311697      -280.5956
   6   2.0000     -10.304819      -280.4084
   7   2.0000     -10.304544      -280.4009
   8   2.0000     -10.303920      -280.3839
   9   2.0000     -10.294879      -280.1379
  10   2.0000     -10.291057      -280.0339
  11   2.0000     -10.289399      -279.9888
  12   2.0000     -10.288643      -279.9682
  13   2.0000     -10.285697      -279.8880
  14   2.0000     -10.278210      -279.6843
  15   2.0000     -10.275887      -279.6211
  16   2.0000      -8.078988      -219.8404
  17   2.0000      -8.076592      -219.7752
  18   2.0000      -6.037606      -164.2916
  19   2.0000      -6.035182      -164.2256
  20   2.0000      -6.033346      -164.1757
  21   2.0000      -6.030867      -164.1082
  22   2.0000      -6.029669      -164.0756
  23   2.0000      -6.027369      -164.0130
  24   2.0000      -1.004887       -27.3444
  25   2.0000      -0.983142       -26.7527
  26   2.0000      -0.912519       -24.8309
  27   2.0000      -0.909978       -24.7618
  28   2.0000      -0.867990       -23.6192
  29   2.0000      -0.851262       -23.1640
  30   2.0000      -0.838363       -22.8130
  31   2.0000      -0.817836       -22.2545
  32   2.0000      -0.784181       -21.3386
  33   2.0000      -0.772945       -21.0329
  34   2.0000      -0.715738       -19.4762
  35   2.0000      -0.700141       -19.0518
  36   2.0000      -0.687788       -18.7157
  37   2.0000      -0.665205       -18.1012
  38   2.0000      -0.642330       -17.4787
  39   2.0000      -0.620734       -16.8910
  40   2.0000      -0.592887       -16.1333
  41   2.0000      -0.569752       -15.5037
  42   2.0000      -0.562485       -15.3060
  43   2.0000      -0.557295       -15.1648
  44   2.0000      -0.546245       -14.8641
  45   2.0000      -0.526482       -14.3263
  46   2.0000      -0.514323       -13.9954
  47   2.0000      -0.511188       -13.9101
  48   2.0000      -0.509509       -13.8645
  49   2.0000      -0.502121       -13.6634
  50   2.0000      -0.488200       -13.2846
  51   2.0000      -0.480341       -13.0707
  52   2.0000      -0.469874       -12.7859
  53   2.0000      -0.464651       -12.6438
  54   2.0000      -0.456925       -12.4336
  55   2.0000      -0.455160       -12.3855
  56   2.0000      -0.444256       -12.0888
  57   2.0000      -0.438628       -11.9357
  58   2.0000      -0.433442       -11.7945
  59   2.0000      -0.425503       -11.5785
  60   2.0000      -0.416500       -11.3335
  61   2.0000      -0.412576       -11.2268
  62   2.0000      -0.408162       -11.1067
  63   2.0000      -0.354552        -9.6479
  64   2.0000      -0.326185        -8.8759
  65   2.0000      -0.324698        -8.8355
  66   2.0000      -0.290681        -7.9098
  67   0.0000       0.032079         0.8729
  68   0.0000       0.068590         1.8664
  69   0.0000       0.112196         3.0530
  70   0.0000       0.117017         3.1842
  71   0.0000       0.133000         3.6191

MULLIKEN ATOMIC CHARGES
-----------------------
   0 S :    0.101827
   1 C :   -0.096987
   2 C :   -0.107161
   3 C :    0.012970
   4 C :   -0.127982
   5 H :    0.041566
   6 C :    0.063009
   7 H :    0.001583
   8 H :    0.032569
   9 C :   -0.070627
  10 H :    0.041714
  11 H :    0.018289
  12 C :   -0.047282
  13 H :    0.014207
  14 H :    0.029770
  15 H :    0.027393
  16 S :    0.092017
  17 C :   -0.073227
  18 C :   -0.017786
  19 C :   -0.051942
  20 C :   -0.143738
  21 H :   -0.004983
  22 C :    0.076447
  23 H :    0.025994
  24 H :   -0.001551
  25 C :   -0.102675
  26 H :    0.034592
  27 H :    0.049678
  28 C :   -0.034256
  29 H :    0.033198
  30 H :    0.039675
  31 H :    0.040193
  32 H :    0.044533
  33 H :    0.058972
Sum of atomic charges:   -0.0000000

LOEWDIN ATOMIC CHARGES
----------------------
   0 S :    0.412542
   1 C :   -0.201118
   2 C :   -0.056661
   3 C :   -0.075660
   4 C :   -0.189255
   5 H :    0.037828
   6 C :   -0.040138
   7 H :    0.026855
   8 H :    0.032041
   9 C :   -0.029103
  10 H :    0.029779
  11 H :    0.013028
  12 C :   -0.067863
  13 H :    0.017307
  14 H :    0.024131
  15 H :    0.028277
  16 S :    0.402524
  17 C :   -0.189296
  18 C :   -0.066671
  19 C :   -0.053754
  20 C :   -0.191225
  21 H :    0.019274
  22 C :   -0.043505
  23 H :    0.037998
  24 H :    0.025257
  25 C :   -0.034330
  26 H :    0.026697
  27 H :    0.030890
  28 C :   -0.064007
  29 H :    0.029424
  30 H :    0.026126
  31 H :    0.024924
  32 H :    0.028673
  33 H :    0.029015

  Mayer bond orders larger than 0.100000
B(  0-S ,  1-C ) :   1.1175 B(  0-S ,  4-C ) :   1.1677 B(  1-C ,  2-C ) :   1.6309
B(  1-C , 32-H ) :   0.9729 B(  2-C ,  3-C ) :   1.2053 B(  2-C ,  6-C ) :   1.0437
B(  3-C ,  4-C ) :   1.5835 B(  3-C ,  5-H ) :   0.9842 B(  4-C , 20-C ) :   1.0212
B(  6-C ,  7-H ) :   0.9434 B(  6-C ,  8-H ) :   0.9312 B(  6-C ,  9-C ) :   1.0490
B(  9-C , 10-H ) :   0.9629 B(  9-C , 11-H ) :   0.9572 B(  9-C , 12-C ) :   1.0691
B( 12-C , 13-H ) :   0.9774 B( 12-C , 14-H ) :   0.9783 B( 12-C , 15-H ) :   0.9762
B( 16-S , 17-C ) :   1.1653 B( 16-S , 20-C ) :   1.1301 B( 17-C , 18-C ) :   1.5989
B( 17-C , 33-H ) :   0.9693 B( 18-C , 19-C ) :   1.2243 B( 18-C , 21-H ) :   0.9999
B( 19-C , 20-C ) :   1.5958 B( 19-C , 22-C ) :   1.0587 B( 22-C , 23-H ) :   0.9295
B( 22-C , 24-H ) :   0.9241 B( 22-C , 25-C ) :   1.0635 B( 25-C , 26-H ) :   0.9624
B( 25-C , 27-H ) :   0.9585 B( 25-C , 28-C ) :   1.0666 B( 28-C , 29-H ) :   0.9744
B( 28-C , 30-H ) :   0.9750 B( 28-C , 31-H ) :   0.9744

Dispersion correction           -0.013894971
FINAL SINGLE POINT ENERGY     -1339.872775143058

DIPOLE MOMENT
-------------
                                X             Y             Z
Electronic contribution:     12.25019      -5.30333      21.07874
Nuclear contribution   :    -12.68526       5.59499     -21.55888
                        -----------------------------------------
Total Dipole Moment    :     -0.43507       0.29166      -0.48014
                        -----------------------------------------
Magnitude (a.u.)       :      0.71056
Magnitude (Debye)      :      1.80610

Rotational constants in cm-1:     0.021171     0.007391     0.006423
Rotational constants in MHz :   634.676530   221.562788   192.554972

                             ****ORCA TERMINATED NORMALLY****
TOTAL RUN TIME: 0 days 0 hours 0 minutes 21 seconds 147 msec
