                         Program Version 4.2.1 -  RELEASE  -
|  1> ! wB97X-D3 SP def2-SVP
|  2> %pal
|  3> nprocs 24
|  4> end
|  5>
|  6> * xyz 0 1
|  7> S 	 6.81376 	 -14.9102 	 -109.633
|  8> C 	 5.87804 	 -15.541 	 -111.01
|  9> C 	 4.52549 	 -15.6515 	 -110.769
| 10> C 	 4.20076 	 -15.2602 	 -109.41
| 11> C 	 5.34084 	 -14.955 	 -108.688
| 12> H 	 3.27927 	 -15.2386 	 -108.925
| 13> C 	 3.47487 	 -16.1191 	 -111.728
| 14> H 	 2.89166 	 -15.2571 	 -112.031
| 15> H 	 2.82353 	 -16.8123 	 -111.135
| 16> C 	 3.93931 	 -16.7119 	 -113.07
| 17> H 	 4.39659 	 -16.0106 	 -113.703
| 18> H 	 4.58278 	 -17.5106 	 -112.89
| 19> C 	 2.80811 	 -17.2464 	 -113.906
| 20> H 	 3.19977 	 -17.676 	 -114.769
| 21> H 	 2.16761 	 -17.9758 	 -113.381
| 22> H 	 2.1186 	 -16.4956 	 -114.243
| 23> S 	 6.46325 	 -15.543 	 -106.268
| 24> C 	 6.09516 	 -14.4682 	 -104.926
| 25> C 	 4.92279 	 -13.8502 	 -105.101
| 26> C 	 4.43563 	 -13.8673 	 -106.45
| 27> C 	 5.29328 	 -14.6532 	 -107.262
| 28> H 	 4.51478 	 -13.1601 	 -104.388
| 29> C 	 3.08985 	 -13.1912 	 -106.828
| 30> H 	 2.85851 	 -13.558 	 -107.844
| 31> H 	 3.30109 	 -12.1119 	 -106.992
| 32> C 	 1.91262 	 -13.2336 	 -105.871
| 33> H 	 1.21034 	 -12.5036 	 -106.136
| 34> H 	 2.21311 	 -12.8675 	 -104.938
| 35> C 	 1.38521 	 -14.667 	 -105.784
| 36> H 	 1.04714 	 -14.9777 	 -106.69
| 37> H 	 0.688476 	 -14.9141 	 -104.943
| 38> H 	 2.33195 	 -15.206 	 -105.585
| 39> H 	 6.2321 	 -15.6772 	 -111.992
| 40> H 	 6.64747 	 -14.5075 	 -103.963
| 41> *
| 42>
| 43>                          ****END OF INPUT****

CARTESIAN COORDINATES (ANGSTROEM)
---------------------------------
  S      6.813760  -14.910200  -109.633000
  C      5.878040  -15.541000  -111.010000
  C      4.525490  -15.651500  -110.769000
  C      4.200760  -15.260200  -109.410000
  C      5.340840  -14.955000  -108.688000
  H      3.279270  -15.238600  -108.925000
  C      3.474870  -16.119100  -111.728000
  H      2.891660  -15.257100  -112.031000
  H      2.823530  -16.812300  -111.135000
  C      3.939310  -16.711900  -113.070000
  H      4.396590  -16.010600  -113.703000
  H      4.582780  -17.510600  -112.890000
  C      2.808110  -17.246400  -113.906000
  H      3.199770  -17.676000  -114.769000
  H      2.167610  -17.975800  -113.381000
  H      2.118600  -16.495600  -114.243000
  S      6.463250  -15.543000  -106.268000
  C      6.095160  -14.468200  -104.926000
  C      4.922790  -13.850200  -105.101000
  C      4.435630  -13.867300  -106.450000
  C      5.293280  -14.653200  -107.262000
  H      4.514780  -13.160100  -104.388000
  C      3.089850  -13.191200  -106.828000
  H      2.858510  -13.558000  -107.844000
  H      3.301090  -12.111900  -106.992000
  C      1.912620  -13.233600  -105.871000
  H      1.210340  -12.503600  -106.136000
  H      2.213110  -12.867500  -104.938000
  C      1.385210  -14.667000  -105.784000
  H      1.047140  -14.977700  -106.690000
  H      0.688476  -14.914100  -104.943000
  H      2.331950  -15.206000  -105.585000
  H      6.232100  -15.677200  -111.992000
  H      6.647470  -14.507500  -103.963000

 Total Charge           Charge          ....    0
 Multiplicity           Mult            ....    1
 Number of Electrons    NEL             ....  134
 Basis Dimension        Dim             ....  322

ORBITAL ENERGIES
----------------

  NO   OCC          E(Eh)            E(eV)
   0   2.0000     -88.969269     -2420.9769
   1   2.0000     -88.960994     -2420.7517
   2   2.0000     -10.328674      -281.0575
   3   2.0000     -10.327581      -281.0278
   4   2.0000     -10.313796      -280.6527
   5   2.0000     -10.309184      -280.5272
   6   2.0000     -10.308305      -280.5032
   7   2.0000     -10.301968      -280.3308
   8   2.0000     -10.297387      -280.2061
   9   2.0000     -10.295365      -280.1511
  10   2.0000     -10.290302      -280.0134
  11   2.0000     -10.287262      -279.9306
  12   2.0000     -10.280618      -279.7498
  13   2.0000     -10.278606      -279.6951
  14   2.0000     -10.272400      -279.5262
  15   2.0000     -10.271337      -279.4973
  16   2.0000      -8.083250      -219.9564
  17   2.0000      -8.075698      -219.7509
  18   2.0000      -6.041841      -164.4069
  19   2.0000      -6.038086      -164.3047
  20   2.0000      -6.034247      -164.2002
  21   2.0000      -6.033731      -164.1862
  22   2.0000      -6.030449      -164.0969
  23   2.0000      -6.026171      -163.9805
  24   2.0000      -1.002702       -27.2849
  25   2.0000      -0.980396       -26.6779
  26   2.0000      -0.918673       -24.9984
  27   2.0000      -0.914340       -24.8805
  28   2.0000      -0.871066       -23.7029
  29   2.0000      -0.855058       -23.2673
  30   2.0000      -0.844351       -22.9760
  31   2.0000      -0.813305       -22.1312
  32   2.0000      -0.783890       -21.3307
  33   2.0000      -0.772931       -21.0325
  34   2.0000      -0.717666       -19.5287
  35   2.0000      -0.712833       -19.3972
  36   2.0000      -0.691031       -18.8039
  37   2.0000      -0.657275       -17.8854
  38   2.0000      -0.640214       -17.4211
  39   2.0000      -0.614269       -16.7151
  40   2.0000      -0.596974       -16.2445
  41   2.0000      -0.582224       -15.8431
  42   2.0000      -0.564617       -15.3640
  43   2.0000      -0.556850       -15.1527
  44   2.0000      -0.543397       -14.7866
  45   2.0000      -0.529642       -14.4123
  46   2.0000      -0.521534       -14.1917
  47   2.0000      -0.509371       -13.8607
  48   2.0000      -0.503182       -13.6923
  49   2.0000      -0.493850       -13.4384
  50   2.0000      -0.488023       -13.2798
  51   2.0000      -0.483843       -13.1660
  52   2.0000      -0.471687       -12.8352
  53   2.0000      -0.469284       -12.7699
  54   2.0000      -0.455782       -12.4025
  55   2.0000      -0.451428       -12.2840
  56   2.0000      -0.442265       -12.0346
  57   2.0000      -0.435948       -11.8628
  58   2.0000      -0.434283       -11.8174
  59   2.0000      -0.431046       -11.7294
  60   2.0000      -0.429152       -11.6778
  61   2.0000      -0.425544       -11.5796
  62   2.0000      -0.415955       -11.3187
  63   2.0000      -0.346373        -9.4253
  64   2.0000      -0.329908        -8.9772
  65   2.0000      -0.326132        -8.8745
  66   2.0000      -0.287156        -7.8139
  67   0.0000       0.025074         0.6823
  68   0.0000       0.076313         2.0766
  69   0.0000       0.100532         2.7356
  70   0.0000       0.112678         3.0661
  71   0.0000       0.134299         3.6545

MULLIKEN ATOMIC CHARGES
-----------------------
   0 S :    0.128489
   1 C :   -0.102967
   2 C :   -0.078682
   3 C :    0.036136
   4 C :   -0.132797
   5 H :   -0.012527
   6 C :    0.051041
   7 H :    0.034908
   8 H :    0.040416
   9 C :   -0.059782
  10 H :    0.024138
  11 H :    0.020799
  12 C :   -0.015334
  13 H :    0.017734
  14 H :    0.024188
  15 H :    0.016499
  16 S :    0.094406
  17 C :   -0.099262
  18 C :   -0.019245
  19 C :   -0.054560
  20 C :   -0.185603
  21 H :    0.018619
  22 C :    0.030089
  23 H :    0.007875
  24 H :    0.038602
  25 C :    0.007703
  26 H :    0.011254
  27 H :    0.001215
  28 C :   -0.024673
  29 H :    0.006438
  30 H :    0.045466
  31 H :    0.036660
  32 H :    0.025483
  33 H :    0.067273
Sum of atomic charges:   -0.0000000

LOEWDIN ATOMIC CHARGES
----------------------
   0 S :    0.395940
   1 C :   -0.190078
   2 C :   -0.054920
   3 C :   -0.051284
   4 C :   -0.192204
   5 H :    0.018384
   6 C :   -0.032974
   7 H :    0.035927
   8 H :    0.038692
   9 C :   -0.034214
  10 H :    0.021479
  11 H :    0.017500
  12 C :   -0.054078
  13 H :    0.019398
  14 H :    0.025321
  15 H :    0.020750
  16 S :    0.381881
  17 C :   -0.180341
  18 C :   -0.076856
  19 C :   -0.056778
  20 C :   -0.186318
  21 H :    0.029174
  22 C :   -0.033025
  23 H :    0.026869
  24 H :    0.039271
  25 C :   -0.032057
  26 H :    0.019422
  27 H :    0.015979
  28 C :   -0.058018
  29 H :    0.007680
  30 H :    0.031454
  31 H :    0.035315
  32 H :    0.016957
  33 H :    0.035754

  Mayer bond orders larger than 0.100000
B(  0-S ,  1-C ) :   1.1019 B(  0-S ,  4-C ) :   1.1432 B(  1-C ,  2-C ) :   1.6665
B(  1-C , 32-H ) :   0.9599 B(  2-C ,  3-C ) :   1.2014 B(  2-C ,  6-C ) :   1.0154
B(  3-C ,  4-C ) :   1.5893 B(  3-C ,  5-H ) :   0.9989 B(  4-C , 20-C ) :   1.0527
B(  6-C ,  7-H ) :   0.9270 B(  6-C ,  8-H ) :   0.9430 B(  6-C ,  9-C ) :   1.0900
B(  9-C , 10-H ) :   0.9446 B(  9-C , 11-H ) :   0.9515 B(  9-C , 12-C ) :   1.1009
B( 12-C , 13-H ) :   0.9698 B( 12-C , 14-H ) :   0.9737 B( 12-C , 15-H ) :   0.9716
B( 16-S , 17-C ) :   1.1300 B( 16-S , 20-C ) :   1.1480 B( 17-C , 18-C ) :   1.6430
B( 17-C , 33-H ) :   0.9621 B( 18-C , 19-C ) :   1.2249 B( 18-C , 21-H ) :   0.9829
B( 19-C , 20-C ) :   1.5943 B( 19-C , 22-C ) :   1.0283 B( 22-C , 23-H ) :   0.9393
B( 22-C , 24-H ) :   0.9227 B( 22-C , 25-C ) :   1.0882 B( 25-C , 26-H ) :   0.9451
B( 25-C , 27-H ) :   0.9421 B( 25-C , 28-C ) :   1.0626 B( 28-C , 29-H ) :   0.9756
B( 28-C , 30-H ) :   0.9748 B( 28-C , 31-H ) :   0.9759

Dispersion correction           -0.013952336
FINAL SINGLE POINT ENERGY     -1339.857995095742

DIPOLE MOMENT
-------------
                                X             Y             Z
Electronic contribution:     25.37251       1.79982      10.80261
Nuclear contribution   :    -26.06103      -1.62343     -10.99610
                        -----------------------------------------
Total Dipole Moment    :     -0.68852       0.17640      -0.19349
                        -----------------------------------------
Magnitude (a.u.)       :      0.73663
Magnitude (Debye)      :      1.87235

Rotational constants in cm-1:     0.020550     0.007678     0.006008
Rotational constants in MHz :   616.064557   230.183298   180.114026

                             ****ORCA TERMINATED NORMALLY****
TOTAL RUN TIME: 0 days 0 hours 0 minutes 21 seconds 431 msec
