                         Program Version 4.2.1 -  RELEASE  -
|  1> ! wB97X-D3 SP def2-SVP
|  2> %pal
|  3> nprocs 24
|  4> end
|  5>
|  6> * xyz 0 1
|  7> S 	 -39.6173 	 -6.53817 	 5.68048
|  8> C 	 -40.507 	 -7.79527 	 6.50363
|  9> C 	 -41.5993 	 -7.2345 	 7.14287
| 10> C 	 -41.7056 	 -5.83402 	 6.88651
| 11> C 	 -40.7887 	 -5.3111 	 6.0691
| 12> H 	 -42.3911 	 -5.09694 	 7.18734
| 13> C 	 -42.4838 	 -8.00761 	 8.1065
| 14> H 	 -42.7672 	 -8.81615 	 7.44013
| 15> H 	 -43.3547 	 -7.48187 	 8.27568
| 16> C 	 -41.871 	 -8.39158 	 9.43557
| 17> H 	 -42.443 	 -9.14796 	 9.96282
| 18> H 	 -40.8466 	 -8.86692 	 9.37038
| 19> C 	 -41.8355 	 -7.30742 	 10.5772
| 20> H 	 -42.8106 	 -7.17441 	 11.0702
| 21> H 	 -41.0434 	 -7.54084 	 11.2867
| 22> H 	 -41.5611 	 -6.36157 	 10.0715
| 23> S 	 -41.5097 	 -3.00488 	 4.70478
| 24> C 	 -40.4951 	 -1.63526 	 4.84978
| 25> C 	 -39.4668 	 -1.85658 	 5.72501
| 26> C 	 -39.4928 	 -3.13544 	 6.34822
| 27> C 	 -40.5245 	 -3.94226 	 5.81379
| 28> H 	 -38.8627 	 -0.987771 	 5.95429
| 29> C 	 -38.5558 	 -3.44577 	 7.46585
| 30> H 	 -37.6575 	 -2.99432 	 7.14533
| 31> H 	 -38.4186 	 -4.5471 	 7.43739
| 32> C 	 -38.933 	 -2.73045 	 8.80124
| 33> H 	 -39.9132 	 -3.02146 	 9.10451
| 34> H 	 -38.8778 	 -1.67352 	 8.63661
| 35> C 	 -37.941 	 -3.04941 	 9.89143
| 36> H 	 -37.5754 	 -4.09225 	 9.75131
| 37> H 	 -38.2966 	 -3.11454 	 10.9015
| 38> H 	 -37.0603 	 -2.43972 	 9.97656
| 39> H 	 -40.4545 	 -8.83968 	 6.56947
| 40> H 	 -40.8081 	 -0.631458 	 4.57407
| 41> *
| 42>
| 43>                          ****END OF INPUT****

CARTESIAN COORDINATES (ANGSTROEM)
---------------------------------
  S    -39.617300   -6.538170    5.680480
  C    -40.507000   -7.795270    6.503630
  C    -41.599300   -7.234500    7.142870
  C    -41.705600   -5.834020    6.886510
  C    -40.788700   -5.311100    6.069100
  H    -42.391100   -5.096940    7.187340
  C    -42.483800   -8.007610    8.106500
  H    -42.767200   -8.816150    7.440130
  H    -43.354700   -7.481870    8.275680
  C    -41.871000   -8.391580    9.435570
  H    -42.443000   -9.147960    9.962820
  H    -40.846600   -8.866920    9.370380
  C    -41.835500   -7.307420   10.577200
  H    -42.810600   -7.174410   11.070200
  H    -41.043400   -7.540840   11.286700
  H    -41.561100   -6.361570   10.071500
  S    -41.509700   -3.004880    4.704780
  C    -40.495100   -1.635260    4.849780
  C    -39.466800   -1.856580    5.725010
  C    -39.492800   -3.135440    6.348220
  C    -40.524500   -3.942260    5.813790
  H    -38.862700   -0.987771    5.954290
  C    -38.555800   -3.445770    7.465850
  H    -37.657500   -2.994320    7.145330
  H    -38.418600   -4.547100    7.437390
  C    -38.933000   -2.730450    8.801240
  H    -39.913200   -3.021460    9.104510
  H    -38.877800   -1.673520    8.636610
  C    -37.941000   -3.049410    9.891430
  H    -37.575400   -4.092250    9.751310
  H    -38.296600   -3.114540   10.901500
  H    -37.060300   -2.439720    9.976560
  H    -40.454500   -8.839680    6.569470
  H    -40.808100   -0.631458    4.574070

 Total Charge           Charge          ....    0
 Multiplicity           Mult            ....    1
 Number of Electrons    NEL             ....  134
 Basis Dimension        Dim             ....  322

ORBITAL ENERGIES
----------------

  NO   OCC          E(Eh)            E(eV)
   0   2.0000     -88.965423     -2420.8722
   1   2.0000     -88.964572     -2420.8491
   2   2.0000     -10.323402      -280.9141
   3   2.0000     -10.317890      -280.7641
   4   2.0000     -10.311417      -280.5879
   5   2.0000     -10.310203      -280.5549
   6   2.0000     -10.302602      -280.3481
   7   2.0000     -10.299693      -280.2689
   8   2.0000     -10.291245      -280.0390
   9   2.0000     -10.288863      -279.9742
  10   2.0000     -10.287669      -279.9417
  11   2.0000     -10.286097      -279.8989
  12   2.0000     -10.284684      -279.8605
  13   2.0000     -10.284383      -279.8523
  14   2.0000     -10.282403      -279.7984
  15   2.0000     -10.271330      -279.4971
  16   2.0000      -8.079910      -219.8655
  17   2.0000      -8.079865      -219.8643
  18   2.0000      -6.038517      -164.3164
  19   2.0000      -6.038288      -164.3102
  20   2.0000      -6.034248      -164.2002
  21   2.0000      -6.034217      -164.1994
  22   2.0000      -6.030896      -164.1090
  23   2.0000      -6.030610      -164.1012
  24   2.0000      -1.013263       -27.5723
  25   2.0000      -0.989185       -26.9171
  26   2.0000      -0.914222       -24.8773
  27   2.0000      -0.912343       -24.8261
  28   2.0000      -0.875327       -23.8189
  29   2.0000      -0.854482       -23.2516
  30   2.0000      -0.845528       -23.0080
  31   2.0000      -0.820781       -22.3346
  32   2.0000      -0.787256       -21.4223
  33   2.0000      -0.771819       -21.0023
  34   2.0000      -0.713100       -19.4044
  35   2.0000      -0.702501       -19.1160
  36   2.0000      -0.700117       -19.0511
  37   2.0000      -0.660769       -17.9804
  38   2.0000      -0.644919       -17.5491
  39   2.0000      -0.612817       -16.6756
  40   2.0000      -0.591535       -16.0965
  41   2.0000      -0.579004       -15.7555
  42   2.0000      -0.570336       -15.5196
  43   2.0000      -0.556199       -15.1349
  44   2.0000      -0.545694       -14.8491
  45   2.0000      -0.523815       -14.2537
  46   2.0000      -0.517853       -14.0915
  47   2.0000      -0.517436       -14.0801
  48   2.0000      -0.509600       -13.8669
  49   2.0000      -0.507061       -13.7978
  50   2.0000      -0.484649       -13.1880
  51   2.0000      -0.477775       -13.0009
  52   2.0000      -0.469867       -12.7857
  53   2.0000      -0.466111       -12.6835
  54   2.0000      -0.461239       -12.5509
  55   2.0000      -0.451516       -12.2864
  56   2.0000      -0.446885       -12.1604
  57   2.0000      -0.435133       -11.8406
  58   2.0000      -0.428788       -11.6679
  59   2.0000      -0.425277       -11.5724
  60   2.0000      -0.422894       -11.5075
  61   2.0000      -0.418783       -11.3957
  62   2.0000      -0.403546       -10.9810
  63   2.0000      -0.340471        -9.2647
  64   2.0000      -0.332398        -9.0450
  65   2.0000      -0.323998        -8.8164
  66   2.0000      -0.301779        -8.2118
  67   0.0000       0.037683         1.0254
  68   0.0000       0.060902         1.6572
  69   0.0000       0.114247         3.1088
  70   0.0000       0.123345         3.3564
  71   0.0000       0.134226         3.6525

MULLIKEN ATOMIC CHARGES
-----------------------
   0 S :    0.115467
   1 C :   -0.071898
   2 C :   -0.134146
   3 C :    0.066050
   4 C :   -0.166732
   5 H :   -0.016745
   6 C :    0.139744
   7 H :    0.031264
   8 H :   -0.004720
   9 C :   -0.087741
  10 H :    0.026352
  11 H :    0.033338
  12 C :   -0.070624
  13 H :    0.042641
  14 H :    0.040768
  15 H :    0.030592
  16 S :    0.116604
  17 C :   -0.092888
  18 C :   -0.050442
  19 C :   -0.044771
  20 C :   -0.198317
  21 H :    0.018944
  22 C :    0.103160
  23 H :    0.007149
  24 H :    0.030624
  25 C :   -0.023644
  26 H :    0.026677
  27 H :    0.024338
  28 C :   -0.042618
  29 H :    0.021557
  30 H :    0.022219
  31 H :    0.027604
  32 H :    0.018882
  33 H :    0.061314
Sum of atomic charges:   -0.0000000

LOEWDIN ATOMIC CHARGES
----------------------
   0 S :    0.418697
   1 C :   -0.192894
   2 C :   -0.060133
   3 C :   -0.060103
   4 C :   -0.201163
   5 H :    0.025206
   6 C :   -0.029884
   7 H :    0.039745
   8 H :    0.020852
   9 C :   -0.047632
  10 H :    0.023753
  11 H :    0.028379
  12 C :   -0.066388
  13 H :    0.025534
  14 H :    0.029108
  15 H :    0.024281
  16 S :    0.422505
  17 C :   -0.199904
  18 C :   -0.076179
  19 C :   -0.047667
  20 C :   -0.213482
  21 H :    0.031464
  22 C :   -0.030734
  23 H :    0.026740
  24 H :    0.028665
  25 C :   -0.025376
  26 H :    0.022910
  27 H :    0.024410
  28 C :   -0.072363
  29 H :    0.029973
  30 H :    0.024193
  31 H :    0.022026
  32 H :    0.023430
  33 H :    0.032028

  Mayer bond orders larger than 0.100000
B(  0-S ,  1-C ) :   1.1383 B(  0-S ,  4-C ) :   1.1290 B(  1-C ,  2-C ) :   1.6190
B(  1-C , 32-H ) :   0.9706 B(  2-C ,  3-C ) :   1.2117 B(  2-C ,  6-C ) :   1.0113
B(  3-C ,  4-C ) :   1.6193 B(  3-C ,  5-H ) :   1.0007 B(  4-C , 20-C ) :   1.0306
B(  6-C ,  7-H ) :   0.9311 B(  6-C ,  8-H ) :   0.9379 B(  6-C ,  9-C ) :   1.0659
B(  9-C , 10-H ) :   0.9572 B(  9-C , 11-H ) :   0.9613 B(  9-C , 12-C ) :   1.0650
B( 12-C , 13-H ) :   0.9783 B( 12-C , 14-H ) :   0.9750 B( 12-C , 15-H ) :   0.9812
B( 16-S , 17-C ) :   1.1718 B( 16-S , 20-C ) :   1.1487 B( 17-C , 18-C ) :   1.6039
B( 17-C , 20-C ) :   0.1012 B( 17-C , 33-H ) :   0.9599 B( 18-C , 19-C ) :   1.2570
B( 18-C , 21-H ) :   0.9869 B( 19-C , 20-C ) :   1.5543 B( 19-C , 22-C ) :   1.0533
B( 22-C , 23-H ) :   0.9220 B( 22-C , 24-H ) :   0.9178 B( 22-C , 25-C ) :   1.0672
B( 25-C , 26-H ) :   0.9571 B( 25-C , 27-H ) :   0.9550 B( 25-C , 28-C ) :   1.0828
B( 28-C , 29-H ) :   0.9712 B( 28-C , 30-H ) :   0.9742 B( 28-C , 31-H ) :   0.9760

Dispersion correction           -0.014577787
FINAL SINGLE POINT ENERGY     -1339.859276698567

DIPOLE MOMENT
-------------
                                X             Y             Z
Electronic contribution:     -3.07843       3.81261     -27.64403
Nuclear contribution   :      2.98926      -3.72076      28.35433
                        -----------------------------------------
Total Dipole Moment    :     -0.08917       0.09185       0.71030
                        -----------------------------------------
Magnitude (a.u.)       :      0.72174
Magnitude (Debye)      :      1.83452

Rotational constants in cm-1:     0.017628     0.009322     0.007376
Rotational constants in MHz :   528.481176   279.461859   221.127192

                             ****ORCA TERMINATED NORMALLY****
TOTAL RUN TIME: 0 days 0 hours 0 minutes 20 seconds 891 msec
