                         Program Version 4.2.1 -  RELEASE  -
|  1> ! wB97X-D3 SP def2-SVP
|  2> %pal
|  3> nprocs 24
|  4> end
|  5>
|  6> * xyz 0 1
|  7> S 	 -101.589 	 22.9359 	 -115.676
|  8> C 	 -102.67 	 21.5241 	 -115.696
|  9> C 	 -103.486 	 21.5366 	 -116.778
| 10> C 	 -103.306 	 22.684 	 -117.621
| 11> C 	 -102.165 	 23.4145 	 -117.343
| 12> H 	 -103.928 	 22.9271 	 -118.465
| 13> C 	 -104.54 	 20.4084 	 -117
| 14> H 	 -105.4 	 20.8302 	 -117.541
| 15> H 	 -104.964 	 20.021 	 -116.063
| 16> C 	 -104.07 	 19.1684 	 -117.848
| 17> H 	 -103.684 	 19.6725 	 -118.769
| 18> H 	 -103.112 	 18.7783 	 -117.441
| 19> C 	 -105.118 	 18.0809 	 -118.071
| 20> H 	 -104.8 	 17.4266 	 -118.912
| 21> H 	 -105.546 	 17.5173 	 -117.24
| 22> H 	 -105.984 	 18.629 	 -118.526
| 23> S 	 -102.775 	 25.8796 	 -118.524
| 24> C 	 -101.566 	 26.9756 	 -119.055
| 25> C 	 -100.331 	 26.3587 	 -118.771
| 26> C 	 -100.405 	 25.0628 	 -118.202
| 27> C 	 -101.689 	 24.5943 	 -118.031
| 28> H 	 -99.3954 	 26.8367 	 -118.892
| 29> C 	 -99.1582 	 24.3272 	 -117.864
| 30> H 	 -99.2984 	 23.9667 	 -116.825
| 31> H 	 -98.3359 	 25.0153 	 -117.836
| 32> C 	 -98.8242 	 23.2192 	 -118.807
| 33> H 	 -98.6052 	 23.7109 	 -119.748
| 34> H 	 -99.6792 	 22.5596 	 -118.894
| 35> C 	 -97.6413 	 22.3581 	 -118.291
| 36> H 	 -97.2488 	 21.8242 	 -119.121
| 37> H 	 -98.043 	 21.5797 	 -117.609
| 38> H 	 -96.8723 	 23.0113 	 -117.964
| 39> H 	 -102.807 	 20.8764 	 -114.82
| 40> H 	 -101.679 	 28.0524 	 -119.326
| 41> *
| 42>
| 43>                          ****END OF INPUT****

CARTESIAN COORDINATES (ANGSTROEM)
---------------------------------
  S    -101.589000   22.935900  -115.676000
  C    -102.670000   21.524100  -115.696000
  C    -103.486000   21.536600  -116.778000
  C    -103.306000   22.684000  -117.621000
  C    -102.165000   23.414500  -117.343000
  H    -103.928000   22.927100  -118.465000
  C    -104.540000   20.408400  -117.000000
  H    -105.400000   20.830200  -117.541000
  H    -104.964000   20.021000  -116.063000
  C    -104.070000   19.168400  -117.848000
  H    -103.684000   19.672500  -118.769000
  H    -103.112000   18.778300  -117.441000
  C    -105.118000   18.080900  -118.071000
  H    -104.800000   17.426600  -118.912000
  H    -105.546000   17.517300  -117.240000
  H    -105.984000   18.629000  -118.526000
  S    -102.775000   25.879600  -118.524000
  C    -101.566000   26.975600  -119.055000
  C    -100.331000   26.358700  -118.771000
  C    -100.405000   25.062800  -118.202000
  C    -101.689000   24.594300  -118.031000
  H    -99.395400   26.836700  -118.892000
  C    -99.158200   24.327200  -117.864000
  H    -99.298400   23.966700  -116.825000
  H    -98.335900   25.015300  -117.836000
  C    -98.824200   23.219200  -118.807000
  H    -98.605200   23.710900  -119.748000
  H    -99.679200   22.559600  -118.894000
  C    -97.641300   22.358100  -118.291000
  H    -97.248800   21.824200  -119.121000
  H    -98.043000   21.579700  -117.609000
  H    -96.872300   23.011300  -117.964000
  H    -102.807000   20.876400  -114.820000
  H    -101.679000   28.052400  -119.326000

 Total Charge           Charge          ....    0
 Multiplicity           Mult            ....    1
 Number of Electrons    NEL             ....  134
 Basis Dimension        Dim             ....  322

ORBITAL ENERGIES
----------------

  NO   OCC          E(Eh)            E(eV)
   0   2.0000     -88.967898     -2420.9396
   1   2.0000     -88.966891     -2420.9122
   2   2.0000     -10.339174      -281.3432
   3   2.0000     -10.325143      -280.9614
   4   2.0000     -10.324198      -280.9357
   5   2.0000     -10.318097      -280.7697
   6   2.0000     -10.305830      -280.4359
   7   2.0000     -10.300394      -280.2880
   8   2.0000     -10.299164      -280.2545
   9   2.0000     -10.295574      -280.1568
  10   2.0000     -10.293769      -280.1077
  11   2.0000     -10.290684      -280.0238
  12   2.0000     -10.287634      -279.9407
  13   2.0000     -10.279799      -279.7275
  14   2.0000     -10.275733      -279.6169
  15   2.0000     -10.269973      -279.4602
  16   2.0000      -8.081761      -219.9159
  17   2.0000      -8.080854      -219.8912
  18   2.0000      -6.040319      -164.3654
  19   2.0000      -6.039596      -164.3458
  20   2.0000      -6.035966      -164.2470
  21   2.0000      -6.035777      -164.2418
  22   2.0000      -6.032708      -164.1583
  23   2.0000      -6.031287      -164.1197
  24   2.0000      -1.007884       -27.4259
  25   2.0000      -0.983404       -26.7598
  26   2.0000      -0.915553       -24.9135
  27   2.0000      -0.902276       -24.5522
  28   2.0000      -0.871848       -23.7242
  29   2.0000      -0.851357       -23.1666
  30   2.0000      -0.843055       -22.9407
  31   2.0000      -0.814134       -22.1537
  32   2.0000      -0.780946       -21.2506
  33   2.0000      -0.771010       -20.9802
  34   2.0000      -0.708144       -19.2696
  35   2.0000      -0.696025       -18.9398
  36   2.0000      -0.689692       -18.7675
  37   2.0000      -0.671657       -18.2767
  38   2.0000      -0.638282       -17.3685
  39   2.0000      -0.616741       -16.7824
  40   2.0000      -0.594924       -16.1887
  41   2.0000      -0.573536       -15.6067
  42   2.0000      -0.567695       -15.4478
  43   2.0000      -0.553763       -15.0687
  44   2.0000      -0.523195       -14.2369
  45   2.0000      -0.520592       -14.1660
  46   2.0000      -0.517372       -14.0784
  47   2.0000      -0.514590       -14.0027
  48   2.0000      -0.508999       -13.8506
  49   2.0000      -0.505359       -13.7515
  50   2.0000      -0.493498       -13.4288
  51   2.0000      -0.485984       -13.2243
  52   2.0000      -0.472532       -12.8583
  53   2.0000      -0.467890       -12.7319
  54   2.0000      -0.459062       -12.4917
  55   2.0000      -0.448982       -12.2174
  56   2.0000      -0.434709       -11.8290
  57   2.0000      -0.432560       -11.7706
  58   2.0000      -0.428690       -11.6652
  59   2.0000      -0.426031       -11.5929
  60   2.0000      -0.417206       -11.3528
  61   2.0000      -0.410951       -11.1825
  62   2.0000      -0.407778       -11.0962
  63   2.0000      -0.352523        -9.5926
  64   2.0000      -0.332878        -9.0581
  65   2.0000      -0.328771        -8.9463
  66   2.0000      -0.291347        -7.9280
  67   0.0000       0.020906         0.5689
  68   0.0000       0.062120         1.6904
  69   0.0000       0.099899         2.7184
  70   0.0000       0.121559         3.3078
  71   0.0000       0.128833         3.5057

MULLIKEN ATOMIC CHARGES
-----------------------
   0 S :    0.084200
   1 C :   -0.125468
   2 C :   -0.064566
   3 C :    0.011649
   4 C :   -0.125980
   5 H :    0.016524
   6 C :    0.040076
   7 H :    0.020324
   8 H :    0.023241
   9 C :   -0.084334
  10 H :    0.028033
  11 H :    0.026737
  12 C :   -0.047478
  13 H :    0.046256
  14 H :    0.049378
  15 H :    0.022754
  16 S :    0.109739
  17 C :   -0.104744
  18 C :   -0.029489
  19 C :   -0.072224
  20 C :   -0.134957
  21 H :   -0.000424
  22 C :    0.080369
  23 H :    0.021951
  24 H :    0.000834
  25 C :   -0.073676
  26 H :    0.020175
  27 H :    0.032733
  28 C :   -0.008865
  29 H :    0.018252
  30 H :    0.047956
  31 H :    0.022269
  32 H :    0.063116
  33 H :    0.085639
Sum of atomic charges:    0.0000000

LOEWDIN ATOMIC CHARGES
----------------------
   0 S :    0.365128
   1 C :   -0.180620
   2 C :   -0.066420
   3 C :   -0.056126
   4 C :   -0.162152
   5 H :    0.030819
   6 C :   -0.031691
   7 H :    0.026966
   8 H :    0.025318
   9 C :   -0.050359
  10 H :    0.029336
  11 H :    0.021394
  12 C :   -0.076018
  13 H :    0.036402
  14 H :    0.028835
  15 H :    0.030271
  16 S :    0.430672
  17 C :   -0.207842
  18 C :   -0.071848
  19 C :   -0.057836
  20 C :   -0.208230
  21 H :    0.021116
  22 C :   -0.036953
  23 H :    0.023301
  24 H :    0.022417
  25 C :   -0.033573
  26 H :    0.021718
  27 H :    0.024114
  28 C :   -0.058319
  29 H :    0.021508
  30 H :    0.035582
  31 H :    0.019095
  32 H :    0.035894
  33 H :    0.048102

  Mayer bond orders larger than 0.100000
B(  0-S ,  1-C ) :   1.1183 B(  0-S ,  4-C ) :   1.1100 B(  1-C ,  2-C ) :   1.6475
B(  1-C , 32-H ) :   0.9634 B(  2-C ,  3-C ) :   1.2204 B(  2-C ,  6-C ) :   1.0200
B(  3-C ,  4-C ) :   1.5780 B(  3-C ,  5-H ) :   0.9990 B(  4-C , 20-C ) :   1.1041
B(  6-C ,  7-H ) :   0.9432 B(  6-C ,  8-H ) :   0.9485 B(  6-C ,  9-C ) :   1.0485
B(  9-C , 10-H ) :   0.9546 B(  9-C , 11-H ) :   0.9572 B(  9-C , 12-C ) :   1.0712
B( 12-C , 13-H ) :   0.9718 B( 12-C , 14-H ) :   0.9762 B( 12-C , 15-H ) :   0.9703
B( 16-S , 17-C ) :   1.1870 B( 16-S , 20-C ) :   1.1353 B( 17-C , 18-C ) :   1.5293
B( 17-C , 20-C ) :   0.1031 B( 17-C , 33-H ) :   0.9637 B( 18-C , 19-C ) :   1.3165
B( 18-C , 21-H ) :   0.9911 B( 19-C , 20-C ) :   1.5236 B( 19-C , 22-C ) :   1.0538
B( 22-C , 23-H ) :   0.9185 B( 22-C , 24-H ) :   0.9223 B( 22-C , 25-C ) :   1.0735
B( 25-C , 26-H ) :   0.9512 B( 25-C , 27-H ) :   0.9588 B( 25-C , 28-C ) :   1.0861
B( 28-C , 29-H ) :   0.9726 B( 28-C , 30-H ) :   0.9750 B( 28-C , 31-H ) :   0.9729

Dispersion correction           -0.014007671
FINAL SINGLE POINT ENERGY     -1339.876910036230

DIPOLE MOMENT
-------------
                                X             Y             Z
Electronic contribution:     -4.11819      22.17051       5.92346
Nuclear contribution   :      4.10912     -22.37591      -6.03986
                        -----------------------------------------
Total Dipole Moment    :     -0.00907      -0.20540      -0.11640
                        -----------------------------------------
Magnitude (a.u.)       :      0.23626
Magnitude (Debye)      :      0.60053

Rotational constants in cm-1:     0.019178     0.007805     0.006637
Rotational constants in MHz :   574.932071   233.984046   198.979494

                             ****ORCA TERMINATED NORMALLY****
TOTAL RUN TIME: 0 days 0 hours 0 minutes 20 seconds 100 msec
