                         Program Version 4.2.1 -  RELEASE  -
|  1> ! wB97X-D3 SP def2-SVP
|  2> %pal
|  3> nprocs 24
|  4> end
|  5>
|  6> * xyz 0 1
|  7> S 	 -106.492 	 2.05846 	 -110.863
|  8> C 	 -106.884 	 3.75672 	 -110.94
|  9> C 	 -105.859 	 4.51483 	 -110.508
| 10> C 	 -104.789 	 3.80644 	 -109.897
| 11> C 	 -104.899 	 2.41312 	 -110.149
| 12> H 	 -103.915 	 4.15992 	 -109.313
| 13> C 	 -105.854 	 6.00473 	 -110.69
| 14> H 	 -105.894 	 6.41533 	 -109.636
| 15> H 	 -106.656 	 6.36614 	 -111.255
| 16> C 	 -104.627 	 6.58199 	 -111.449
| 17> H 	 -103.83 	 6.62872 	 -110.72
| 18> H 	 -104.28 	 6.06093 	 -112.33
| 19> C 	 -104.831 	 8.12402 	 -111.775
| 20> H 	 -103.941 	 8.47264 	 -112.267
| 21> H 	 -105.746 	 8.26665 	 -112.365
| 22> H 	 -104.997 	 8.66933 	 -110.789
| 23> S 	 -103.814 	 0.452864 	 -108.508
| 24> C 	 -102.364 	 -0.445565 	 -109.037
| 25> C 	 -102.025 	 -0.0364777 	 -110.275
| 26> C 	 -102.856 	 0.984396 	 -110.787
| 27> C 	 -103.834 	 1.41894 	 -109.959
| 28> H 	 -101.233 	 -0.610696 	 -110.86
| 29> C 	 -102.742 	 1.49785 	 -112.161
| 30> H 	 -103.223 	 2.45644 	 -112.249
| 31> H 	 -103.386 	 0.811555 	 -112.813
| 32> C 	 -101.262 	 1.69421 	 -112.758
| 33> H 	 -101.125 	 2.17796 	 -113.743
| 34> H 	 -100.785 	 0.649668 	 -112.775
| 35> C 	 -100.216 	 2.48543 	 -111.862
| 36> H 	 -100.315 	 2.02708 	 -110.849
| 37> H 	 -100.54 	 3.498 	 -111.658
| 38> H 	 -99.187 	 2.34988 	 -112.347
| 39> H 	 -107.836 	 4.17957 	 -111.319
| 40> H 	 -101.888 	 -1.24855 	 -108.436
| 41> *
| 42>
| 43>                          ****END OF INPUT****

CARTESIAN COORDINATES (ANGSTROEM)
---------------------------------
  S    -106.492000    2.058460  -110.863000
  C    -106.884000    3.756720  -110.940000
  C    -105.859000    4.514830  -110.508000
  C    -104.789000    3.806440  -109.897000
  C    -104.899000    2.413120  -110.149000
  H    -103.915000    4.159920  -109.313000
  C    -105.854000    6.004730  -110.690000
  H    -105.894000    6.415330  -109.636000
  H    -106.656000    6.366140  -111.255000
  C    -104.627000    6.581990  -111.449000
  H    -103.830000    6.628720  -110.720000
  H    -104.280000    6.060930  -112.330000
  C    -104.831000    8.124020  -111.775000
  H    -103.941000    8.472640  -112.267000
  H    -105.746000    8.266650  -112.365000
  H    -104.997000    8.669330  -110.789000
  S    -103.814000    0.452864  -108.508000
  C    -102.364000   -0.445565  -109.037000
  C    -102.025000   -0.036478  -110.275000
  C    -102.856000    0.984396  -110.787000
  C    -103.834000    1.418940  -109.959000
  H    -101.233000   -0.610696  -110.860000
  C    -102.742000    1.497850  -112.161000
  H    -103.223000    2.456440  -112.249000
  H    -103.386000    0.811555  -112.813000
  C    -101.262000    1.694210  -112.758000
  H    -101.125000    2.177960  -113.743000
  H    -100.785000    0.649668  -112.775000
  C    -100.216000    2.485430  -111.862000
  H    -100.315000    2.027080  -110.849000
  H    -100.540000    3.498000  -111.658000
  H    -99.187000    2.349880  -112.347000
  H    -107.836000    4.179570  -111.319000
  H    -101.888000   -1.248550  -108.436000

 Total Charge           Charge          ....    0
 Multiplicity           Mult            ....    1
 Number of Electrons    NEL             ....  134
 Basis Dimension        Dim             ....  322

ORBITAL ENERGIES
----------------

  NO   OCC          E(Eh)            E(eV)
   0   2.0000     -88.967043     -2420.9163
   1   2.0000     -88.960155     -2420.7289
   2   2.0000     -10.336629      -281.2740
   3   2.0000     -10.322797      -280.8976
   4   2.0000     -10.322761      -280.8966
   5   2.0000     -10.313332      -280.6400
   6   2.0000     -10.304115      -280.3892
   7   2.0000     -10.298692      -280.2417
   8   2.0000     -10.298160      -280.2272
   9   2.0000     -10.297693      -280.2145
  10   2.0000     -10.296862      -280.1919
  11   2.0000     -10.294321      -280.1227
  12   2.0000     -10.292014      -280.0599
  13   2.0000     -10.288511      -279.9646
  14   2.0000     -10.286509      -279.9102
  15   2.0000     -10.283483      -279.8278
  16   2.0000      -8.081239      -219.9017
  17   2.0000      -8.075011      -219.7322
  18   2.0000      -6.039763      -164.3503
  19   2.0000      -6.035804      -164.2426
  20   2.0000      -6.033587      -164.1822
  21   2.0000      -6.032028      -164.1398
  22   2.0000      -6.029459      -164.0699
  23   2.0000      -6.025705      -163.9678
  24   2.0000      -1.009249       -27.4631
  25   2.0000      -0.988849       -26.9080
  26   2.0000      -0.908923       -24.7331
  27   2.0000      -0.897249       -24.4154
  28   2.0000      -0.872446       -23.7405
  29   2.0000      -0.846178       -23.0257
  30   2.0000      -0.840143       -22.8615
  31   2.0000      -0.819309       -22.2945
  32   2.0000      -0.776517       -21.1301
  33   2.0000      -0.766354       -20.8535
  34   2.0000      -0.709716       -19.3124
  35   2.0000      -0.691768       -18.8240
  36   2.0000      -0.689810       -18.7707
  37   2.0000      -0.656298       -17.8588
  38   2.0000      -0.641655       -17.4603
  39   2.0000      -0.616543       -16.7770
  40   2.0000      -0.596137       -16.2217
  41   2.0000      -0.570828       -15.5330
  42   2.0000      -0.565295       -15.3824
  43   2.0000      -0.545845       -14.8532
  44   2.0000      -0.533096       -14.5063
  45   2.0000      -0.523434       -14.2434
  46   2.0000      -0.520911       -14.1747
  47   2.0000      -0.512073       -13.9342
  48   2.0000      -0.504211       -13.7203
  49   2.0000      -0.500558       -13.6209
  50   2.0000      -0.492948       -13.4138
  51   2.0000      -0.481586       -13.1046
  52   2.0000      -0.473083       -12.8732
  53   2.0000      -0.466241       -12.6871
  54   2.0000      -0.453833       -12.3494
  55   2.0000      -0.445764       -12.1299
  56   2.0000      -0.440599       -11.9893
  57   2.0000      -0.440030       -11.9738
  58   2.0000      -0.425098       -11.5675
  59   2.0000      -0.420938       -11.4543
  60   2.0000      -0.413904       -11.2629
  61   2.0000      -0.410737       -11.1767
  62   2.0000      -0.405734       -11.0406
  63   2.0000      -0.336272        -9.1504
  64   2.0000      -0.331236        -9.0134
  65   2.0000      -0.318012        -8.6535
  66   2.0000      -0.315125        -8.5750
  67   0.0000       0.043779         1.1913
  68   0.0000       0.050699         1.3796
  69   0.0000       0.119162         3.2426
  70   0.0000       0.123614         3.3637
  71   0.0000       0.126759         3.4493

MULLIKEN ATOMIC CHARGES
-----------------------
   0 S :    0.115327
   1 C :   -0.131566
   2 C :   -0.069140
   3 C :    0.041696
   4 C :   -0.189606
   5 H :    0.039272
   6 C :    0.076581
   7 H :    0.044922
   8 H :   -0.003881
   9 C :   -0.091978
  10 H :    0.023081
  11 H :    0.042567
  12 C :   -0.076348
  13 H :    0.042736
  14 H :    0.037250
  15 H :    0.037207
  16 S :    0.089462
  17 C :   -0.111140
  18 C :   -0.040097
  19 C :   -0.040125
  20 C :   -0.174635
  21 H :    0.050174
  22 C :    0.078137
  23 H :    0.029338
  24 H :    0.057567
  25 C :   -0.131276
  26 H :    0.046704
  27 H :    0.032416
  28 C :   -0.087432
  29 H :    0.037266
  30 H :    0.031394
  31 H :    0.060379
  32 H :    0.060007
  33 H :    0.073743
Sum of atomic charges:   -0.0000000

LOEWDIN ATOMIC CHARGES
----------------------
   0 S :    0.394822
   1 C :   -0.201666
   2 C :   -0.074269
   3 C :   -0.052380
   4 C :   -0.187094
   5 H :    0.042873
   6 C :   -0.027955
   7 H :    0.041916
   8 H :    0.016115
   9 C :   -0.037312
  10 H :    0.019876
  11 H :    0.023192
  12 C :   -0.065625
  13 H :    0.024275
  14 H :    0.021132
  15 H :    0.031560
  16 S :    0.387658
  17 C :   -0.169172
  18 C :   -0.085438
  19 C :   -0.066156
  20 C :   -0.207679
  21 H :    0.047486
  22 C :   -0.036017
  23 H :    0.028334
  24 H :    0.047476
  25 C :   -0.050863
  26 H :    0.027141
  27 H :    0.023710
  28 C :   -0.079574
  29 H :    0.027107
  30 H :    0.018817
  31 H :    0.038980
  32 H :    0.038673
  33 H :    0.040056

  Mayer bond orders larger than 0.100000
B(  0-S ,  1-C ) :   1.1248 B(  0-S ,  4-C ) :   1.1535 B(  1-C ,  2-C ) :   1.6407
B(  1-C , 32-H ) :   0.9618 B(  2-C ,  3-C ) :   1.2139 B(  2-C ,  6-C ) :   1.0320
B(  3-C ,  4-C ) :   1.5788 B(  3-C ,  5-H ) :   0.9891 B(  4-C , 20-C ) :   1.0093
B(  6-C ,  7-H ) :   0.9311 B(  6-C ,  8-H ) :   0.9505 B(  6-C ,  9-C ) :   1.0537
B(  9-C , 10-H ) :   0.9532 B(  9-C , 11-H ) :   0.9643 B(  9-C , 12-C ) :   1.0783
B( 12-C , 13-H ) :   0.9765 B( 12-C , 14-H ) :   0.9782 B( 12-C , 15-H ) :   0.9761
B( 16-S , 17-C ) :   1.1523 B( 16-S , 20-C ) :   1.1314 B( 17-C , 18-C ) :   1.6211
B( 17-C , 33-H ) :   0.9629 B( 18-C , 19-C ) :   1.2218 B( 18-C , 21-H ) :   0.9774
B( 19-C , 20-C ) :   1.6340 B( 19-C , 22-C ) :   1.0537 B( 22-C , 23-H ) :   0.9290
B( 22-C , 24-H ) :   0.9316 B( 22-C , 25-C ) :   1.0418 B( 25-C , 26-H ) :   0.9653
B( 25-C , 27-H ) :   0.9574 B( 25-C , 28-C ) :   1.0628 B( 28-C , 29-H ) :   0.9713
B( 28-C , 30-H ) :   0.9759 B( 28-C , 31-H ) :   0.9741

Dispersion correction           -0.014580036
FINAL SINGLE POINT ENERGY     -1339.862552894415

DIPOLE MOMENT
-------------
                                X             Y             Z
Electronic contribution:    -13.86594     -21.68627      13.55386
Nuclear contribution   :     14.15729      22.05649     -13.87876
                        -----------------------------------------
Total Dipole Moment    :      0.29135       0.37022      -0.32489
                        -----------------------------------------
Magnitude (a.u.)       :      0.57228
Magnitude (Debye)      :      1.45463

Rotational constants in cm-1:     0.018160     0.008745     0.006853
Rotational constants in MHz :   544.415542   262.166584   205.438422

                             ****ORCA TERMINATED NORMALLY****
TOTAL RUN TIME: 0 days 0 hours 0 minutes 21 seconds 912 msec
