                         Program Version 4.2.1 -  RELEASE  -
|  1> ! wB97X-D3 SP def2-SVP
|  2> %pal
|  3> nprocs 24
|  4> end
|  5>
|  6> * xyz 0 1
|  7> S 	 -108.241 	 50.2752 	 -115.006
|  8> C 	 -108.457 	 48.6159 	 -115.552
|  9> C 	 -109.589 	 48.0805 	 -115.042
| 10> C 	 -110.411 	 49.0384 	 -114.406
| 11> C 	 -109.802 	 50.2766 	 -114.19
| 12> H 	 -111.438 	 49.0042 	 -113.995
| 13> C 	 -110.127 	 46.6542 	 -115.316
| 14> H 	 -110.883 	 46.4317 	 -114.637
| 15> H 	 -109.247 	 45.982 	 -115.335
| 16> C 	 -110.961 	 46.3648 	 -116.601
| 17> H 	 -110.36 	 46.4188 	 -117.534
| 18> H 	 -111.281 	 45.3267 	 -116.601
| 19> C 	 -112.315 	 47.131 	 -116.637
| 20> H 	 -112.263 	 47.7475 	 -115.677
| 21> H 	 -112.412 	 47.6616 	 -117.566
| 22> H 	 -113.177 	 46.3388 	 -116.548
| 23> S 	 -111.962 	 52.0649 	 -114.017
| 24> C 	 -111.754 	 53.3987 	 -112.982
| 25> C 	 -110.64 	 53.3231 	 -112.166
| 26> C 	 -109.845 	 52.2173 	 -112.508
| 27> C 	 -110.38 	 51.4586 	 -113.509
| 28> H 	 -110.427 	 54.0434 	 -111.386
| 29> C 	 -108.48 	 52.0663 	 -111.798
| 30> H 	 -107.919 	 52.9915 	 -111.939
| 31> H 	 -107.968 	 51.4464 	 -112.494
| 32> C 	 -108.52 	 51.4607 	 -110.411
| 33> H 	 -107.493 	 51.4242 	 -110.06
| 34> H 	 -108.877 	 50.4742 	 -110.545
| 35> C 	 -109.404 	 52.2259 	 -109.355
| 36> H 	 -110.443 	 52.1246 	 -109.522
| 37> H 	 -109.062 	 53.2941 	 -109.367
| 38> H 	 -109.113 	 51.8695 	 -108.357
| 39> H 	 -107.658 	 48.0652 	 -116.026
| 40> H 	 -112.297 	 54.2851 	 -112.94
| 41> *
| 42>
| 43>                          ****END OF INPUT****

CARTESIAN COORDINATES (ANGSTROEM)
---------------------------------
  S    -108.241000   50.275200  -115.006000
  C    -108.457000   48.615900  -115.552000
  C    -109.589000   48.080500  -115.042000
  C    -110.411000   49.038400  -114.406000
  C    -109.802000   50.276600  -114.190000
  H    -111.438000   49.004200  -113.995000
  C    -110.127000   46.654200  -115.316000
  H    -110.883000   46.431700  -114.637000
  H    -109.247000   45.982000  -115.335000
  C    -110.961000   46.364800  -116.601000
  H    -110.360000   46.418800  -117.534000
  H    -111.281000   45.326700  -116.601000
  C    -112.315000   47.131000  -116.637000
  H    -112.263000   47.747500  -115.677000
  H    -112.412000   47.661600  -117.566000
  H    -113.177000   46.338800  -116.548000
  S    -111.962000   52.064900  -114.017000
  C    -111.754000   53.398700  -112.982000
  C    -110.640000   53.323100  -112.166000
  C    -109.845000   52.217300  -112.508000
  C    -110.380000   51.458600  -113.509000
  H    -110.427000   54.043400  -111.386000
  C    -108.480000   52.066300  -111.798000
  H    -107.919000   52.991500  -111.939000
  H    -107.968000   51.446400  -112.494000
  C    -108.520000   51.460700  -110.411000
  H    -107.493000   51.424200  -110.060000
  H    -108.877000   50.474200  -110.545000
  C    -109.404000   52.225900  -109.355000
  H    -110.443000   52.124600  -109.522000
  H    -109.062000   53.294100  -109.367000
  H    -109.113000   51.869500  -108.357000
  H    -107.658000   48.065200  -116.026000
  H    -112.297000   54.285100  -112.940000

 Total Charge           Charge          ....    0
 Multiplicity           Mult            ....    1
 Number of Electrons    NEL             ....  134
 Basis Dimension        Dim             ....  322

ORBITAL ENERGIES
----------------

  NO   OCC          E(Eh)            E(eV)
   0   2.0000     -88.970862     -2421.0202
   1   2.0000     -88.966403     -2420.8989
   2   2.0000     -10.331810      -281.1428
   3   2.0000     -10.326386      -280.9952
   4   2.0000     -10.312977      -280.6304
   5   2.0000     -10.309465      -280.5348
   6   2.0000     -10.301798      -280.3262
   7   2.0000     -10.297210      -280.2013
   8   2.0000     -10.294827      -280.1365
   9   2.0000     -10.292757      -280.0801
  10   2.0000     -10.287469      -279.9363
  11   2.0000     -10.287147      -279.9275
  12   2.0000     -10.285494      -279.8825
  13   2.0000     -10.284316      -279.8505
  14   2.0000     -10.283405      -279.8257
  15   2.0000     -10.280396      -279.7438
  16   2.0000      -8.085907      -220.0287
  17   2.0000      -8.080466      -219.8807
  18   2.0000      -6.044334      -164.4747
  19   2.0000      -6.040446      -164.3689
  20   2.0000      -6.039016      -164.3300
  21   2.0000      -6.036667      -164.2661
  22   2.0000      -6.034998      -164.2207
  23   2.0000      -6.031282      -164.1195
  24   2.0000      -1.009411       -27.4675
  25   2.0000      -0.989415       -26.9234
  26   2.0000      -0.908955       -24.7339
  27   2.0000      -0.906351       -24.6631
  28   2.0000      -0.868291       -23.6274
  29   2.0000      -0.850187       -23.1348
  30   2.0000      -0.841561       -22.9000
  31   2.0000      -0.813613       -22.1395
  32   2.0000      -0.786228       -21.3944
  33   2.0000      -0.773682       -21.0530
  34   2.0000      -0.708433       -19.2774
  35   2.0000      -0.693885       -18.8816
  36   2.0000      -0.692490       -18.8436
  37   2.0000      -0.666351       -18.1323
  38   2.0000      -0.641434       -17.4543
  39   2.0000      -0.607489       -16.5306
  40   2.0000      -0.593072       -16.1383
  41   2.0000      -0.577835       -15.7237
  42   2.0000      -0.558414       -15.1952
  43   2.0000      -0.550582       -14.9821
  44   2.0000      -0.540838       -14.7170
  45   2.0000      -0.535238       -14.5646
  46   2.0000      -0.520647       -14.1675
  47   2.0000      -0.515519       -14.0280
  48   2.0000      -0.500009       -13.6060
  49   2.0000      -0.489192       -13.3116
  50   2.0000      -0.485764       -13.2183
  51   2.0000      -0.478308       -13.0154
  52   2.0000      -0.475316       -12.9340
  53   2.0000      -0.468705       -12.7541
  54   2.0000      -0.462715       -12.5911
  55   2.0000      -0.450310       -12.2536
  56   2.0000      -0.439615       -11.9625
  57   2.0000      -0.433490       -11.7959
  58   2.0000      -0.432346       -11.7647
  59   2.0000      -0.425204       -11.5704
  60   2.0000      -0.418688       -11.3931
  61   2.0000      -0.408773       -11.1233
  62   2.0000      -0.401673       -10.9301
  63   2.0000      -0.345669        -9.4061
  64   2.0000      -0.337083        -9.1725
  65   2.0000      -0.332160        -9.0385
  66   2.0000      -0.293407        -7.9840
  67   0.0000       0.034126         0.9286
  68   0.0000       0.063874         1.7381
  69   0.0000       0.106752         2.9049
  70   0.0000       0.118744         3.2312
  71   0.0000       0.131358         3.5744

MULLIKEN ATOMIC CHARGES
-----------------------
   0 S :    0.103228
   1 C :   -0.130557
   2 C :   -0.044174
   3 C :   -0.020026
   4 C :   -0.153899
   5 H :    0.030845
   6 C :    0.076574
   7 H :    0.009650
   8 H :    0.033727
   9 C :   -0.087426
  10 H :    0.027874
  11 H :    0.026563
  12 C :   -0.086909
  13 H :    0.036502
  14 H :    0.050447
  15 H :    0.044545
  16 S :    0.135495
  17 C :   -0.050257
  18 C :   -0.051685
  19 C :   -0.066174
  20 C :   -0.177004
  21 H :    0.016999
  22 C :    0.102755
  23 H :    0.027645
  24 H :   -0.013463
  25 C :   -0.027599
  26 H :    0.031797
  27 H :    0.024913
  28 C :   -0.065758
  29 H :    0.050335
  30 H :    0.030581
  31 H :    0.034859
  32 H :    0.051639
  33 H :    0.027958
Sum of atomic charges:   -0.0000000

LOEWDIN ATOMIC CHARGES
----------------------
   0 S :    0.402377
   1 C :   -0.189383
   2 C :   -0.067338
   3 C :   -0.079900
   4 C :   -0.184237
   5 H :    0.034098
   6 C :   -0.025246
   7 H :    0.021425
   8 H :    0.035152
   9 C :   -0.047888
  10 H :    0.019571
  11 H :    0.023415
  12 C :   -0.075002
  13 H :    0.033065
  14 H :    0.026451
  15 H :    0.035787
  16 S :    0.424568
  17 C :   -0.187344
  18 C :   -0.069268
  19 C :   -0.053220
  20 C :   -0.203095
  21 H :    0.032074
  22 C :   -0.032054
  23 H :    0.030887
  24 H :    0.014756
  25 C :   -0.029272
  26 H :    0.027138
  27 H :    0.023088
  28 C :   -0.064750
  29 H :    0.020635
  30 H :    0.027360
  31 H :    0.028800
  32 H :    0.028905
  33 H :    0.018447

  Mayer bond orders larger than 0.100000
B(  0-S ,  1-C ) :   1.1366 B(  0-S ,  4-C ) :   1.1497 B(  1-C ,  2-C ) :   1.6168
B(  1-C , 32-H ) :   0.9680 B(  2-C ,  3-C ) :   1.2191 B(  2-C ,  6-C ) :   1.0349
B(  3-C ,  4-C ) :   1.5945 B(  3-C ,  5-H ) :   0.9787 B(  4-C , 20-C ) :   1.0269
B(  6-C ,  7-H ) :   0.9399 B(  6-C ,  8-H ) :   0.9390 B(  6-C ,  9-C ) :   1.0763
B(  9-C , 10-H ) :   0.9608 B(  9-C , 11-H ) :   0.9630 B(  9-C , 12-C ) :   1.0393
B( 12-C , 13-H ) :   0.9798 B( 12-C , 14-H ) :   0.9766 B( 12-C , 15-H ) :   0.9800
B( 16-S , 17-C ) :   1.1664 B( 16-S , 20-C ) :   1.1298 B( 17-C , 18-C ) :   1.6029
B( 17-C , 33-H ) :   0.9670 B( 18-C , 19-C ) :   1.2532 B( 18-C , 21-H ) :   0.9889
B( 19-C , 20-C ) :   1.6121 B( 19-C , 22-C ) :   1.0121 B( 22-C , 23-H ) :   0.9380
B( 22-C , 24-H ) :   0.9140 B( 22-C , 25-C ) :   1.0814 B( 25-C , 26-H ) :   0.9546
B( 25-C , 27-H ) :   0.9498 B( 25-C , 28-C ) :   1.0844 B( 28-C , 29-H ) :   0.9722
B( 28-C , 30-H ) :   0.9732 B( 28-C , 31-H ) :   0.9734

Dispersion correction           -0.014510916
FINAL SINGLE POINT ENERGY     -1339.858249508082

DIPOLE MOMENT
-------------
                                X             Y             Z
Electronic contribution:      1.07516      11.23589      -7.52788
Nuclear contribution   :     -1.02148     -11.38946       7.75713
                        -----------------------------------------
Total Dipole Moment    :      0.05368      -0.15357       0.22925
                        -----------------------------------------
Magnitude (a.u.)       :      0.28111
Magnitude (Debye)      :      0.71452

Rotational constants in cm-1:     0.022315     0.007854     0.006824
Rotational constants in MHz :   668.995813   235.446074   204.589477

                             ****ORCA TERMINATED NORMALLY****
TOTAL RUN TIME: 0 days 0 hours 0 minutes 21 seconds 820 msec
