                         Program Version 4.2.1 -  RELEASE  -
|  1> ! wB97X-D3 SP def2-SVP
|  2> %pal
|  3> nprocs 24
|  4> end
|  5>
|  6> * xyz 0 1
|  7> S 	 -101.47 	 1.83909 	 -104.297
|  8> C 	 -101.449 	 2.65704 	 -105.774
|  9> C 	 -101.326 	 4.02524 	 -105.635
| 10> C 	 -100.971 	 4.34047 	 -104.263
| 11> C 	 -100.911 	 3.2189 	 -103.434
| 12> H 	 -100.976 	 5.30157 	 -103.89
| 13> C 	 -101.486 	 5.04251 	 -106.747
| 14> H 	 -101.936 	 5.92987 	 -106.399
| 15> H 	 -102.106 	 4.63136 	 -107.563
| 16> C 	 -100.118 	 5.37392 	 -107.385
| 17> H 	 -99.5365 	 5.64333 	 -106.602
| 18> H 	 -99.656 	 4.51375 	 -107.905
| 19> C 	 -100.221 	 6.54766 	 -108.328
| 20> H 	 -101.011 	 6.37304 	 -109.068
| 21> H 	 -100.516 	 7.4922 	 -107.901
| 22> H 	 -99.3792 	 6.63113 	 -109.01
| 23> S 	 -102.249 	 3.25461 	 -101.024
| 24> C 	 -101.34 	 3.1509 	 -99.5889
| 25> C 	 -99.9814 	 2.95847 	 -99.85
| 26> C 	 -99.677 	 3.05682 	 -101.232
| 27> C 	 -100.763 	 3.1634 	 -101.995
| 28> H 	 -99.2431 	 2.69766 	 -99.0673
| 29> C 	 -98.2575 	 2.90388 	 -101.816
| 30> H 	 -98.447 	 2.46917 	 -102.871
| 31> H 	 -97.7178 	 2.15601 	 -101.32
| 32> C 	 -97.4753 	 4.22711 	 -101.912
| 33> H 	 -97.5688 	 4.78814 	 -100.951
| 34> H 	 -98.1215 	 4.796 	 -102.488
| 35> C 	 -96.0562 	 3.97177 	 -102.509
| 36> H 	 -95.4305 	 3.4595 	 -101.802
| 37> H 	 -95.6208 	 4.87991 	 -102.926
| 38> H 	 -95.9292 	 3.40032 	 -103.447
| 39> H 	 -101.629 	 2.10023 	 -106.696
| 40> H 	 -101.668 	 3.01758 	 -98.5705
| 41> *
| 42>
| 43>                          ****END OF INPUT****

CARTESIAN COORDINATES (ANGSTROEM)
---------------------------------
  S    -101.470000    1.839090  -104.297000
  C    -101.449000    2.657040  -105.774000
  C    -101.326000    4.025240  -105.635000
  C    -100.971000    4.340470  -104.263000
  C    -100.911000    3.218900  -103.434000
  H    -100.976000    5.301570  -103.890000
  C    -101.486000    5.042510  -106.747000
  H    -101.936000    5.929870  -106.399000
  H    -102.106000    4.631360  -107.563000
  C    -100.118000    5.373920  -107.385000
  H    -99.536500    5.643330  -106.602000
  H    -99.656000    4.513750  -107.905000
  C    -100.221000    6.547660  -108.328000
  H    -101.011000    6.373040  -109.068000
  H    -100.516000    7.492200  -107.901000
  H    -99.379200    6.631130  -109.010000
  S    -102.249000    3.254610  -101.024000
  C    -101.340000    3.150900  -99.588900
  C    -99.981400    2.958470  -99.850000
  C    -99.677000    3.056820  -101.232000
  C    -100.763000    3.163400  -101.995000
  H    -99.243100    2.697660  -99.067300
  C    -98.257500    2.903880  -101.816000
  H    -98.447000    2.469170  -102.871000
  H    -97.717800    2.156010  -101.320000
  C    -97.475300    4.227110  -101.912000
  H    -97.568800    4.788140  -100.951000
  H    -98.121500    4.796000  -102.488000
  C    -96.056200    3.971770  -102.509000
  H    -95.430500    3.459500  -101.802000
  H    -95.620800    4.879910  -102.926000
  H    -95.929200    3.400320  -103.447000
  H    -101.629000    2.100230  -106.696000
  H    -101.668000    3.017580  -98.570500

 Total Charge           Charge          ....    0
 Multiplicity           Mult            ....    1
 Number of Electrons    NEL             ....  134
 Basis Dimension        Dim             ....  322

ORBITAL ENERGIES
----------------

  NO   OCC          E(Eh)            E(eV)
   0   2.0000     -88.964263     -2420.8407
   1   2.0000     -88.964076     -2420.8356
   2   2.0000     -10.324418      -280.9417
   3   2.0000     -10.317020      -280.7404
   4   2.0000     -10.313209      -280.6367
   5   2.0000     -10.309955      -280.5482
   6   2.0000     -10.301860      -280.3279
   7   2.0000     -10.294259      -280.1210
   8   2.0000     -10.292739      -280.0797
   9   2.0000     -10.291751      -280.0528
  10   2.0000     -10.290934      -280.0306
  11   2.0000     -10.288229      -279.9570
  12   2.0000     -10.283886      -279.8388
  13   2.0000     -10.279684      -279.7244
  14   2.0000     -10.277996      -279.6785
  15   2.0000     -10.273957      -279.5686
  16   2.0000      -8.080612      -219.8846
  17   2.0000      -8.079526      -219.8551
  18   2.0000      -6.038915      -164.3272
  19   2.0000      -6.038020      -164.3029
  20   2.0000      -6.034846      -164.2165
  21   2.0000      -6.034006      -164.1936
  22   2.0000      -6.031505      -164.1256
  23   2.0000      -6.030216      -164.0905
  24   2.0000      -1.013596       -27.5813
  25   2.0000      -0.990964       -26.9655
  26   2.0000      -0.916953       -24.9516
  27   2.0000      -0.904125       -24.6025
  28   2.0000      -0.870696       -23.6928
  29   2.0000      -0.851705       -23.1761
  30   2.0000      -0.847876       -23.0719
  31   2.0000      -0.811832       -22.0911
  32   2.0000      -0.782468       -21.2920
  33   2.0000      -0.772447       -21.0194
  34   2.0000      -0.709109       -19.2958
  35   2.0000      -0.705705       -19.2032
  36   2.0000      -0.695048       -18.9132
  37   2.0000      -0.661737       -18.0068
  38   2.0000      -0.652771       -17.7628
  39   2.0000      -0.620295       -16.8791
  40   2.0000      -0.592238       -16.1156
  41   2.0000      -0.577210       -15.7067
  42   2.0000      -0.562707       -15.3120
  43   2.0000      -0.555324       -15.1111
  44   2.0000      -0.523908       -14.2563
  45   2.0000      -0.522229       -14.2106
  46   2.0000      -0.517873       -14.0920
  47   2.0000      -0.509017       -13.8510
  48   2.0000      -0.507677       -13.8146
  49   2.0000      -0.500978       -13.6323
  50   2.0000      -0.493723       -13.4349
  51   2.0000      -0.474381       -12.9086
  52   2.0000      -0.472979       -12.8704
  53   2.0000      -0.465976       -12.6799
  54   2.0000      -0.460821       -12.5396
  55   2.0000      -0.453217       -12.3327
  56   2.0000      -0.445324       -12.1179
  57   2.0000      -0.439655       -11.9636
  58   2.0000      -0.432654       -11.7731
  59   2.0000      -0.430588       -11.7169
  60   2.0000      -0.419203       -11.4071
  61   2.0000      -0.412079       -11.2132
  62   2.0000      -0.411366       -11.1938
  63   2.0000      -0.335792        -9.1374
  64   2.0000      -0.330417        -8.9911
  65   2.0000      -0.319871        -8.7041
  66   2.0000      -0.309273        -8.4157
  67   0.0000       0.047329         1.2879
  68   0.0000       0.055455         1.5090
  69   0.0000       0.110176         2.9980
  70   0.0000       0.126390         3.4393
  71   0.0000       0.138387         3.7657

MULLIKEN ATOMIC CHARGES
-----------------------
   0 S :    0.130992
   1 C :   -0.128316
   2 C :   -0.100356
   3 C :    0.079703
   4 C :   -0.192105
   5 H :   -0.012379
   6 C :    0.075469
   7 H :    0.015153
   8 H :    0.024252
   9 C :   -0.036512
  10 H :    0.003120
  11 H :    0.033223
  12 C :   -0.028050
  13 H :    0.006773
  14 H :    0.028196
  15 H :    0.028915
  16 S :    0.125347
  17 C :   -0.072391
  18 C :   -0.069693
  19 C :   -0.009610
  20 C :   -0.192757
  21 H :    0.027651
  22 C :    0.044157
  23 H :    0.040906
  24 H :    0.006686
  25 C :   -0.018737
  26 H :    0.031871
  27 H :   -0.004376
  28 C :   -0.034061
  29 H :    0.035823
  30 H :    0.029216
  31 H :    0.027138
  32 H :    0.052466
  33 H :    0.052285
Sum of atomic charges:    0.0000000

LOEWDIN ATOMIC CHARGES
----------------------
   0 S :    0.448888
   1 C :   -0.213147
   2 C :   -0.061646
   3 C :   -0.048048
   4 C :   -0.211569
   5 H :    0.017494
   6 C :   -0.023032
   7 H :    0.024469
   8 H :    0.031760
   9 C :   -0.030385
  10 H :    0.008578
  11 H :    0.030553
  12 C :   -0.069375
  13 H :    0.023327
  14 H :    0.022780
  15 H :    0.027147
  16 S :    0.413396
  17 C :   -0.200362
  18 C :   -0.078356
  19 C :   -0.057701
  20 C :   -0.201956
  21 H :    0.035385
  22 C :   -0.023618
  23 H :    0.039186
  24 H :    0.014351
  25 C :   -0.037041
  26 H :    0.031939
  27 H :    0.013431
  28 C :   -0.071981
  29 H :    0.024573
  30 H :    0.028809
  31 H :    0.033354
  32 H :    0.028128
  33 H :    0.030669

  Mayer bond orders larger than 0.100000
B(  0-S ,  1-C ) :   1.1753 B(  0-S ,  4-C ) :   1.1774 B(  1-C ,  2-C ) :   1.5779
B(  1-C , 32-H ) :   0.9680 B(  2-C ,  3-C ) :   1.2594 B(  2-C ,  6-C ) :   1.0377
B(  3-C ,  4-C ) :   1.5541 B(  3-C ,  5-H ) :   1.0050 B(  4-C , 20-C ) :   1.0033
B(  6-C ,  7-H ) :   0.9405 B(  6-C ,  8-H ) :   0.9388 B(  6-C ,  9-C ) :   1.0633
B(  9-C , 10-H ) :   0.9561 B(  9-C , 11-H ) :   0.9541 B(  9-C , 12-C ) :   1.0899
B( 12-C , 13-H ) :   0.9671 B( 12-C , 14-H ) :   0.9740 B( 12-C , 15-H ) :   0.9718
B( 16-S , 17-C ) :   1.1635 B( 16-S , 20-C ) :   1.1306 B( 17-C , 18-C ) :   1.6123
B( 17-C , 33-H ) :   0.9639 B( 18-C , 19-C ) :   1.2360 B( 18-C , 21-H ) :   0.9835
B( 19-C , 20-C ) :   1.6602 B( 19-C , 22-C ) :   1.0244 B( 22-C , 23-H ) :   0.9342
B( 22-C , 24-H ) :   0.9447 B( 22-C , 25-C ) :   1.0493 B( 25-C , 26-H ) :   0.9582
B( 25-C , 27-H ) :   0.9489 B( 25-C , 28-C ) :   1.0631 B( 28-C , 29-H ) :   0.9778
B( 28-C , 30-H ) :   0.9735 B( 28-C , 31-H ) :   0.9728

Dispersion correction           -0.014058750
FINAL SINGLE POINT ENERGY     -1339.864299081021

DIPOLE MOMENT
-------------
                                X             Y             Z
Electronic contribution:    -19.63991     -14.43878      15.67301
Nuclear contribution   :     19.90419      14.65320     -15.95200
                        -----------------------------------------
Total Dipole Moment    :      0.26428       0.21442      -0.27898
                        -----------------------------------------
Magnitude (a.u.)       :      0.44005
Magnitude (Debye)      :      1.11853

Rotational constants in cm-1:     0.017953     0.008484     0.006704
Rotational constants in MHz :   538.205325   254.333994   200.991617

                             ****ORCA TERMINATED NORMALLY****
TOTAL RUN TIME: 0 days 0 hours 0 minutes 20 seconds 356 msec
