                         Program Version 4.2.1 -  RELEASE  -
|  1> ! wB97X-D3 SP def2-SVP
|  2> %pal
|  3> nprocs 24
|  4> end
|  5>
|  6> * xyz 0 1
|  7> S 	 -117.301 	 61.317 	 -67.1694
|  8> C 	 -117.143 	 60.4838 	 -65.655
|  9> C 	 -116.558 	 61.3547 	 -64.6617
| 10> C 	 -116.332 	 62.6588 	 -65.1857
| 11> C 	 -116.712 	 62.8349 	 -66.4887
| 12> H 	 -116.066 	 63.509 	 -64.6297
| 13> C 	 -116.437 	 60.9754 	 -63.2159
| 14> H 	 -115.426 	 61.3014 	 -62.9185
| 15> H 	 -116.339 	 59.9058 	 -63.2106
| 16> C 	 -117.483 	 61.5323 	 -62.2735
| 17> H 	 -117.635 	 62.5939 	 -62.4155
| 18> H 	 -118.508 	 61.1604 	 -62.4001
| 19> C 	 -117.241 	 61.1562 	 -60.8366
| 20> H 	 -117.562 	 60.1207 	 -60.7882
| 21> H 	 -116.222 	 61.3124 	 -60.3812
| 22> H 	 -117.858 	 61.6877 	 -60.0983
| 23> S 	 -115.768 	 63.6322 	 -68.9
| 24> C 	 -115.93 	 65.2584 	 -69.3613
| 25> C 	 -116.495 	 66.0163 	 -68.3384
| 26> C 	 -116.841 	 65.3254 	 -67.1366
| 27> C 	 -116.54 	 64.0066 	 -67.3583
| 28> H 	 -116.701 	 67.0338 	 -68.5316
| 29> C 	 -117.348 	 66.0064 	 -65.8731
| 30> H 	 -116.548 	 66.6862 	 -65.4698
| 31> H 	 -117.596 	 65.2118 	 -65.1389
| 32> C 	 -118.601 	 67.0022 	 -65.9647
| 33> H 	 -118.382 	 67.7812 	 -66.7259
| 34> H 	 -118.806 	 67.4492 	 -64.9635
| 35> C 	 -119.965 	 66.3044 	 -66.415
| 36> H 	 -120.356 	 65.5921 	 -65.6442
| 37> H 	 -119.717 	 65.7724 	 -67.3099
| 38> H 	 -120.665 	 67.1212 	 -66.6909
| 39> H 	 -117.521 	 59.5201 	 -65.4488
| 40> H 	 -115.825 	 65.6122 	 -70.3266
| 41> *
| 42>
| 43>                          ****END OF INPUT****

CARTESIAN COORDINATES (ANGSTROEM)
---------------------------------
  S    -117.301000   61.317000  -67.169400
  C    -117.143000   60.483800  -65.655000
  C    -116.558000   61.354700  -64.661700
  C    -116.332000   62.658800  -65.185700
  C    -116.712000   62.834900  -66.488700
  H    -116.066000   63.509000  -64.629700
  C    -116.437000   60.975400  -63.215900
  H    -115.426000   61.301400  -62.918500
  H    -116.339000   59.905800  -63.210600
  C    -117.483000   61.532300  -62.273500
  H    -117.635000   62.593900  -62.415500
  H    -118.508000   61.160400  -62.400100
  C    -117.241000   61.156200  -60.836600
  H    -117.562000   60.120700  -60.788200
  H    -116.222000   61.312400  -60.381200
  H    -117.858000   61.687700  -60.098300
  S    -115.768000   63.632200  -68.900000
  C    -115.930000   65.258400  -69.361300
  C    -116.495000   66.016300  -68.338400
  C    -116.841000   65.325400  -67.136600
  C    -116.540000   64.006600  -67.358300
  H    -116.701000   67.033800  -68.531600
  C    -117.348000   66.006400  -65.873100
  H    -116.548000   66.686200  -65.469800
  H    -117.596000   65.211800  -65.138900
  C    -118.601000   67.002200  -65.964700
  H    -118.382000   67.781200  -66.725900
  H    -118.806000   67.449200  -64.963500
  C    -119.965000   66.304400  -66.415000
  H    -120.356000   65.592100  -65.644200
  H    -119.717000   65.772400  -67.309900
  H    -120.665000   67.121200  -66.690900
  H    -117.521000   59.520100  -65.448800
  H    -115.825000   65.612200  -70.326600

 Total Charge           Charge          ....    0
 Multiplicity           Mult            ....    1
 Number of Electrons    NEL             ....  134
 Basis Dimension        Dim             ....  322

ORBITAL ENERGIES
----------------

  NO   OCC          E(Eh)            E(eV)
   0   2.0000     -88.966812     -2420.9100
   1   2.0000     -88.966318     -2420.8966
   2   2.0000     -10.327343      -281.0213
   3   2.0000     -10.326569      -281.0002
   4   2.0000     -10.315005      -280.6855
   5   2.0000     -10.307353      -280.4773
   6   2.0000     -10.307240      -280.4743
   7   2.0000     -10.305763      -280.4341
   8   2.0000     -10.304179      -280.3910
   9   2.0000     -10.301047      -280.3057
  10   2.0000     -10.291099      -280.0350
  11   2.0000     -10.289621      -279.9948
  12   2.0000     -10.288204      -279.9563
  13   2.0000     -10.286347      -279.9057
  14   2.0000     -10.280951      -279.7589
  15   2.0000     -10.280141      -279.7369
  16   2.0000      -8.082331      -219.9314
  17   2.0000      -8.080808      -219.8900
  18   2.0000      -6.040767      -164.3776
  19   2.0000      -6.039233      -164.3359
  20   2.0000      -6.036747      -164.2682
  21   2.0000      -6.035220      -164.2267
  22   2.0000      -6.033093      -164.1688
  23   2.0000      -6.031805      -164.1338
  24   2.0000      -1.009147       -27.4603
  25   2.0000      -0.983446       -26.7609
  26   2.0000      -0.916154       -24.9298
  27   2.0000      -0.900082       -24.4925
  28   2.0000      -0.867193       -23.5975
  29   2.0000      -0.854367       -23.2485
  30   2.0000      -0.846265       -23.0281
  31   2.0000      -0.815196       -22.1826
  32   2.0000      -0.783632       -21.3237
  33   2.0000      -0.768520       -20.9125
  34   2.0000      -0.706855       -19.2345
  35   2.0000      -0.697603       -18.9827
  36   2.0000      -0.694893       -18.9090
  37   2.0000      -0.660366       -17.9695
  38   2.0000      -0.646689       -17.5973
  39   2.0000      -0.622255       -16.9324
  40   2.0000      -0.598222       -16.2785
  41   2.0000      -0.568040       -15.4571
  42   2.0000      -0.561281       -15.2732
  43   2.0000      -0.546267       -14.8647
  44   2.0000      -0.539845       -14.6899
  45   2.0000      -0.528804       -14.3895
  46   2.0000      -0.524219       -14.2647
  47   2.0000      -0.510730       -13.8977
  48   2.0000      -0.502664       -13.6782
  49   2.0000      -0.501299       -13.6410
  50   2.0000      -0.493953       -13.4412
  51   2.0000      -0.478863       -13.0305
  52   2.0000      -0.472705       -12.8630
  53   2.0000      -0.461363       -12.5543
  54   2.0000      -0.459052       -12.4914
  55   2.0000      -0.446846       -12.1593
  56   2.0000      -0.444068       -12.0837
  57   2.0000      -0.435875       -11.8608
  58   2.0000      -0.432024       -11.7560
  59   2.0000      -0.424755       -11.5582
  60   2.0000      -0.421477       -11.4690
  61   2.0000      -0.419039       -11.4026
  62   2.0000      -0.411209       -11.1896
  63   2.0000      -0.348234        -9.4759
  64   2.0000      -0.334498        -9.1021
  65   2.0000      -0.327119        -8.9014
  66   2.0000      -0.288060        -7.8385
  67   0.0000       0.030905         0.8410
  68   0.0000       0.069547         1.8925
  69   0.0000       0.111666         3.0386
  70   0.0000       0.117065         3.1855
  71   0.0000       0.130880         3.5614

MULLIKEN ATOMIC CHARGES
-----------------------
   0 S :    0.110437
   1 C :   -0.101738
   2 C :   -0.117512
   3 C :    0.057945
   4 C :   -0.163953
   5 H :   -0.005793
   6 C :    0.091257
   7 H :    0.024284
   8 H :    0.009899
   9 C :   -0.037289
  10 H :    0.019385
  11 H :    0.024184
  12 C :   -0.073446
  13 H :    0.031982
  14 H :    0.036290
  15 H :    0.029463
  16 S :    0.123288
  17 C :   -0.058505
  18 C :   -0.045432
  19 C :    0.000748
  20 C :   -0.174900
  21 H :   -0.002889
  22 C :    0.038952
  23 H :    0.058091
  24 H :    0.034688
  25 C :   -0.119700
  26 H :    0.040423
  27 H :    0.045046
  28 C :   -0.073509
  29 H :    0.049321
  30 H :    0.037282
  31 H :    0.044376
  32 H :    0.036670
  33 H :    0.030654
Sum of atomic charges:    0.0000000

LOEWDIN ATOMIC CHARGES
----------------------
   0 S :    0.408550
   1 C :   -0.200312
   2 C :   -0.056256
   3 C :   -0.063029
   4 C :   -0.189787
   5 H :    0.023162
   6 C :   -0.033796
   7 H :    0.035985
   8 H :    0.028268
   9 C :   -0.044116
  10 H :    0.020386
  11 H :    0.031187
  12 C :   -0.073214
  13 H :    0.026341
  14 H :    0.026678
  15 H :    0.027373
  16 S :    0.423923
  17 C :   -0.195588
  18 C :   -0.062673
  19 C :   -0.061685
  20 C :   -0.185909
  21 H :    0.019357
  22 C :   -0.036401
  23 H :    0.044426
  24 H :    0.032326
  25 C :   -0.041667
  26 H :    0.023439
  27 H :    0.028276
  28 C :   -0.071845
  29 H :    0.030529
  30 H :    0.021614
  31 H :    0.030380
  32 H :    0.019066
  33 H :    0.015008

  Mayer bond orders larger than 0.100000
B(  0-S ,  1-C ) :   1.1571 B(  0-S ,  4-C ) :   1.1552 B(  1-C ,  2-C ) :   1.5628
B(  1-C ,  4-C ) :   0.1054 B(  1-C , 32-H ) :   0.9759 B(  2-C ,  3-C ) :   1.2603
B(  2-C ,  6-C ) :   1.0386 B(  3-C ,  4-C ) :   1.5633 B(  3-C ,  5-H ) :   0.9979
B(  4-C , 20-C ) :   1.0142 B(  6-C ,  7-H ) :   0.9315 B(  6-C ,  8-H ) :   0.9351
B(  6-C ,  9-C ) :   1.0592 B(  9-C , 10-H ) :   0.9561 B(  9-C , 11-H ) :   0.9528
B(  9-C , 12-C ) :   1.0744 B( 12-C , 13-H ) :   0.9795 B( 12-C , 14-H ) :   0.9756
B( 12-C , 15-H ) :   0.9723 B( 16-S , 17-C ) :   1.1456 B( 16-S , 20-C ) :   1.1623
B( 17-C , 18-C ) :   1.6194 B( 17-C , 33-H ) :   0.9756 B( 18-C , 19-C ) :   1.2143
B( 18-C , 21-H ) :   0.9930 B( 19-C , 20-C ) :   1.6060 B( 19-C , 22-C ) :   1.0392
B( 22-C , 23-H ) :   0.9370 B( 22-C , 24-H ) :   0.9322 B( 22-C , 25-C ) :   1.0596
B( 25-C , 26-H ) :   0.9598 B( 25-C , 27-H ) :   0.9591 B( 25-C , 28-C ) :   1.0643
B( 28-C , 29-H ) :   0.9770 B( 28-C , 30-H ) :   0.9785 B( 28-C , 31-H ) :   0.9761

Dispersion correction           -0.013870447
FINAL SINGLE POINT ENERGY     -1339.875911014761

DIPOLE MOMENT
-------------
                                X             Y             Z
Electronic contribution:     10.70248      -8.13986     -25.81418
Nuclear contribution   :    -10.93317       8.47753      26.34019
                        -----------------------------------------
Total Dipole Moment    :     -0.23069       0.33768       0.52601
                        -----------------------------------------
Magnitude (a.u.)       :      0.66628
Magnitude (Debye)      :      1.69355

Rotational constants in cm-1:     0.018351     0.008482     0.006543
Rotational constants in MHz :   550.142439   254.274136   196.161894

                             ****ORCA TERMINATED NORMALLY****
TOTAL RUN TIME: 0 days 0 hours 0 minutes 20 seconds 130 msec
