                         Program Version 4.2.1 -  RELEASE  -
|  1> ! wB97X-D3 SP def2-SVP
|  2> %pal
|  3> nprocs 24
|  4> end
|  5>
|  6> * xyz 0 1
|  7> S 	 -71.2101 	 0.166439 	 14.3891
|  8> C 	 -71.1133 	 1.89127 	 14.0761
|  9> C 	 -71.9749 	 2.51837 	 14.9421
| 10> C 	 -72.8362 	 1.64754 	 15.6971
| 11> C 	 -72.5929 	 0.284797 	 15.4855
| 12> H 	 -73.6892 	 2.02365 	 16.356
| 13> C 	 -72.0818 	 4.02593 	 15.0998
| 14> H 	 -71.1187 	 4.54414 	 14.9237
| 15> H 	 -72.3254 	 4.26054 	 16.2057
| 16> C 	 -73.1027 	 4.69462 	 14.2046
| 17> H 	 -73.1959 	 5.68873 	 14.6378
| 18> H 	 -72.6286 	 4.74203 	 13.2144
| 19> C 	 -74.5129 	 4.07624 	 14.213
| 20> H 	 -74.6526 	 3.1026 	 13.757
| 21> H 	 -74.8446 	 3.97906 	 15.2585
| 22> H 	 -75.2252 	 4.72758 	 13.6979
| 23> S 	 -74.836 	 -1.23027 	 15.0953
| 24> C 	 -74.9206 	 -2.81146 	 15.7187
| 25> C 	 -73.8905 	 -3.00614 	 16.5937
| 26> C 	 -72.9409 	 -1.96271 	 16.7091
| 27> C 	 -73.3373 	 -0.849125 	 15.9784
| 28> H 	 -73.9489 	 -3.85301 	 17.1068
| 29> C 	 -71.6709 	 -2.0283 	 17.4908
| 30> H 	 -71.0675 	 -1.36134 	 16.8509
| 31> H 	 -71.32 	 -3.00796 	 17.2498
| 32> C 	 -71.8779 	 -1.62462 	 18.9893
| 33> H 	 -72.5075 	 -2.32368 	 19.565
| 34> H 	 -72.3782 	 -0.693206 	 18.9092
| 35> C 	 -70.5806 	 -1.51219 	 19.7797
| 36> H 	 -69.8984 	 -0.85564 	 19.1824
| 37> H 	 -70.2216 	 -2.50134 	 19.7607
| 38> H 	 -70.6816 	 -1.21404 	 20.8616
| 39> H 	 -70.4954 	 2.41021 	 13.4145
| 40> H 	 -75.6045 	 -3.60593 	 15.4884
| 41> *
| 42>
| 43>                          ****END OF INPUT****

CARTESIAN COORDINATES (ANGSTROEM)
---------------------------------
  S    -71.210100    0.166439   14.389100
  C    -71.113300    1.891270   14.076100
  C    -71.974900    2.518370   14.942100
  C    -72.836200    1.647540   15.697100
  C    -72.592900    0.284797   15.485500
  H    -73.689200    2.023650   16.356000
  C    -72.081800    4.025930   15.099800
  H    -71.118700    4.544140   14.923700
  H    -72.325400    4.260540   16.205700
  C    -73.102700    4.694620   14.204600
  H    -73.195900    5.688730   14.637800
  H    -72.628600    4.742030   13.214400
  C    -74.512900    4.076240   14.213000
  H    -74.652600    3.102600   13.757000
  H    -74.844600    3.979060   15.258500
  H    -75.225200    4.727580   13.697900
  S    -74.836000   -1.230270   15.095300
  C    -74.920600   -2.811460   15.718700
  C    -73.890500   -3.006140   16.593700
  C    -72.940900   -1.962710   16.709100
  C    -73.337300   -0.849125   15.978400
  H    -73.948900   -3.853010   17.106800
  C    -71.670900   -2.028300   17.490800
  H    -71.067500   -1.361340   16.850900
  H    -71.320000   -3.007960   17.249800
  C    -71.877900   -1.624620   18.989300
  H    -72.507500   -2.323680   19.565000
  H    -72.378200   -0.693206   18.909200
  C    -70.580600   -1.512190   19.779700
  H    -69.898400   -0.855640   19.182400
  H    -70.221600   -2.501340   19.760700
  H    -70.681600   -1.214040   20.861600
  H    -70.495400    2.410210   13.414500
  H    -75.604500   -3.605930   15.488400

 Total Charge           Charge          ....    0
 Multiplicity           Mult            ....    1
 Number of Electrons    NEL             ....  134
 Basis Dimension        Dim             ....  322

ORBITAL ENERGIES
----------------

  NO   OCC          E(Eh)            E(eV)
   0   2.0000     -88.965322     -2420.8695
   1   2.0000     -88.962161     -2420.7835
   2   2.0000     -10.332790      -281.1695
   3   2.0000     -10.323187      -280.9082
   4   2.0000     -10.312697      -280.6227
   5   2.0000     -10.312670      -280.6220
   6   2.0000     -10.301613      -280.3211
   7   2.0000     -10.301471      -280.3173
   8   2.0000     -10.299380      -280.2604
   9   2.0000     -10.295468      -280.1539
  10   2.0000     -10.289414      -279.9892
  11   2.0000     -10.286576      -279.9120
  12   2.0000     -10.286131      -279.8998
  13   2.0000     -10.277486      -279.6646
  14   2.0000     -10.276912      -279.6490
  15   2.0000     -10.276423      -279.6357
  16   2.0000      -8.079211      -219.8465
  17   2.0000      -8.077438      -219.7983
  18   2.0000      -6.037845      -164.2981
  19   2.0000      -6.035876      -164.2445
  20   2.0000      -6.033721      -164.1859
  21   2.0000      -6.031739      -164.1320
  22   2.0000      -6.029966      -164.0837
  23   2.0000      -6.028335      -164.0393
  24   2.0000      -1.007840       -27.4247
  25   2.0000      -0.985684       -26.8218
  26   2.0000      -0.912818       -24.8391
  27   2.0000      -0.910047       -24.7636
  28   2.0000      -0.873119       -23.7588
  29   2.0000      -0.854730       -23.2584
  30   2.0000      -0.837414       -22.7872
  31   2.0000      -0.817326       -22.2406
  32   2.0000      -0.783942       -21.3321
  33   2.0000      -0.772637       -21.0245
  34   2.0000      -0.710491       -19.3334
  35   2.0000      -0.699397       -19.0315
  36   2.0000      -0.695073       -18.9139
  37   2.0000      -0.664222       -18.0744
  38   2.0000      -0.635799       -17.3010
  39   2.0000      -0.612971       -16.6798
  40   2.0000      -0.588062       -16.0020
  41   2.0000      -0.578051       -15.7296
  42   2.0000      -0.569033       -15.4842
  43   2.0000      -0.555765       -15.1231
  44   2.0000      -0.537023       -14.6131
  45   2.0000      -0.528963       -14.3938
  46   2.0000      -0.524404       -14.2698
  47   2.0000      -0.516446       -14.0532
  48   2.0000      -0.506179       -13.7738
  49   2.0000      -0.499077       -13.5806
  50   2.0000      -0.495216       -13.4755
  51   2.0000      -0.475187       -12.9305
  52   2.0000      -0.466018       -12.6810
  53   2.0000      -0.462961       -12.5978
  54   2.0000      -0.457784       -12.4569
  55   2.0000      -0.445885       -12.1331
  56   2.0000      -0.439724       -11.9655
  57   2.0000      -0.432619       -11.7722
  58   2.0000      -0.429229       -11.6799
  59   2.0000      -0.422007       -11.4834
  60   2.0000      -0.421139       -11.4598
  61   2.0000      -0.416231       -11.3262
  62   2.0000      -0.406868       -11.0714
  63   2.0000      -0.336847        -9.1661
  64   2.0000      -0.330259        -8.9868
  65   2.0000      -0.326293        -8.8789
  66   2.0000      -0.301671        -8.2089
  67   0.0000       0.039667         1.0794
  68   0.0000       0.049650         1.3511
  69   0.0000       0.105955         2.8832
  70   0.0000       0.123523         3.3612
  71   0.0000       0.132036         3.5929

MULLIKEN ATOMIC CHARGES
-----------------------
   0 S :    0.111612
   1 C :   -0.090634
   2 C :   -0.079302
   3 C :    0.004484
   4 C :   -0.158204
   5 H :    0.042656
   6 C :   -0.003015
   7 H :    0.029479
   8 H :    0.036383
   9 C :   -0.046580
  10 H :    0.031026
  11 H :    0.030471
  12 C :   -0.058065
  13 H :    0.046279
  14 H :    0.021554
  15 H :    0.033946
  16 S :    0.111584
  17 C :   -0.077439
  18 C :    0.001438
  19 C :   -0.073658
  20 C :   -0.160993
  21 H :   -0.045951
  22 C :    0.108258
  23 H :    0.016809
  24 H :    0.013131
  25 C :   -0.050180
  26 H :    0.031589
  27 H :    0.024517
  28 C :   -0.034620
  29 H :    0.038450
  30 H :    0.017400
  31 H :    0.049699
  32 H :    0.024696
  33 H :    0.053180
Sum of atomic charges:   -0.0000000

LOEWDIN ATOMIC CHARGES
----------------------
   0 S :    0.398777
   1 C :   -0.184600
   2 C :   -0.068615
   3 C :   -0.067411
   4 C :   -0.198170
   5 H :    0.043979
   6 C :   -0.043223
   7 H :    0.031422
   8 H :    0.035060
   9 C :   -0.040726
  10 H :    0.027733
  11 H :    0.023913
  12 C :   -0.069304
  13 H :    0.026674
  14 H :    0.024252
  15 H :    0.027808
  16 S :    0.419337
  17 C :   -0.186433
  18 C :   -0.067721
  19 C :   -0.043567
  20 C :   -0.206086
  21 H :    0.005789
  22 C :   -0.030137
  23 H :    0.030254
  24 H :    0.026213
  25 C :   -0.030821
  26 H :    0.027244
  27 H :    0.020143
  28 C :   -0.067794
  29 H :    0.030287
  30 H :    0.017747
  31 H :    0.033404
  32 H :    0.021125
  33 H :    0.033447

  Mayer bond orders larger than 0.100000
B(  0-S ,  1-C ) :   1.1325 B(  0-S ,  4-C ) :   1.1320 B(  1-C ,  2-C ) :   1.6086
B(  1-C , 32-H ) :   0.9803 B(  2-C ,  3-C ) :   1.2368 B(  2-C ,  6-C ) :   1.0197
B(  3-C ,  4-C ) :   1.5675 B(  3-C ,  5-H ) :   0.9824 B(  4-C , 20-C ) :   1.0420
B(  6-C ,  7-H ) :   0.9455 B(  6-C ,  8-H ) :   0.9441 B(  6-C ,  9-C ) :   1.0803
B(  9-C , 10-H ) :   0.9520 B(  9-C , 11-H ) :   0.9545 B(  9-C , 12-C ) :   1.0845
B( 12-C , 13-H ) :   0.9703 B( 12-C , 14-H ) :   0.9712 B( 12-C , 15-H ) :   0.9731
B( 16-S , 17-C ) :   1.1746 B( 16-S , 20-C ) :   1.1379 B( 17-C , 18-C ) :   1.5969
B( 17-C , 33-H ) :   0.9662 B( 18-C , 19-C ) :   1.2418 B( 18-C , 21-H ) :   1.0148
B( 19-C , 20-C ) :   1.5706 B( 19-C , 22-C ) :   1.0286 B( 22-C , 23-H ) :   0.9222
B( 22-C , 24-H ) :   0.9242 B( 22-C , 25-C ) :   1.0469 B( 25-C , 26-H ) :   0.9590
B( 25-C , 27-H ) :   0.9558 B( 25-C , 28-C ) :   1.0807 B( 28-C , 29-H ) :   0.9750
B( 28-C , 30-H ) :   0.9733 B( 28-C , 31-H ) :   0.9737

Dispersion correction           -0.014630871
FINAL SINGLE POINT ENERGY     -1339.863643951424

DIPOLE MOMENT
-------------
                                X             Y             Z
Electronic contribution:     -3.55802     -11.88915     -11.81240
Nuclear contribution   :      3.54877      11.99033      12.05026
                        -----------------------------------------
Total Dipole Moment    :     -0.00925       0.10118       0.23787
                        -----------------------------------------
Magnitude (a.u.)       :      0.25866
Magnitude (Debye)      :      0.65745

Rotational constants in cm-1:     0.019110     0.008588     0.007149
Rotational constants in MHz :   572.914769   257.468901   214.327101

                             ****ORCA TERMINATED NORMALLY****
TOTAL RUN TIME: 0 days 0 hours 0 minutes 21 seconds 645 msec
