                         Program Version 4.2.1 -  RELEASE  -
|  1> ! wB97X-D3 SP def2-SVP
|  2> %pal
|  3> nprocs 24
|  4> end
|  5>
|  6> * xyz 0 1
|  7> S 	 -64.7563 	 12.0169 	 -88.4745
|  8> C 	 -64.9161 	 13.0542 	 -89.9307
|  9> C 	 -64.6515 	 14.3997 	 -89.7128
| 10> C 	 -64.0557 	 14.5585 	 -88.3818
| 11> C 	 -63.9899 	 13.3908 	 -87.6374
| 12> H 	 -63.8039 	 15.4717 	 -87.9443
| 13> C 	 -64.7707 	 15.5882 	 -90.6411
| 14> H 	 -65.1466 	 15.2727 	 -91.5871
| 15> H 	 -63.7491 	 15.9599 	 -90.803
| 16> C 	 -65.5603 	 16.8094 	 -90.1581
| 17> H 	 -65.133 	 17.0946 	 -89.2222
| 18> H 	 -65.4918 	 17.565 	 -90.8819
| 19> C 	 -67.0546 	 16.5159 	 -89.9095
| 20> H 	 -67.6093 	 16.473 	 -90.8842
| 21> H 	 -67.3752 	 15.5778 	 -89.4443
| 22> H 	 -67.4983 	 17.3337 	 -89.3607
| 23> S 	 -64.8639 	 12.5015 	 -85.2661
| 24> C 	 -64.0647 	 12.9028 	 -83.7636
| 25> C 	 -62.8789 	 13.5461 	 -83.9959
| 26> C 	 -62.7352 	 13.8758 	 -85.3967
| 27> C 	 -63.7104 	 13.285 	 -86.2268
| 28> H 	 -62.193 	 13.7908 	 -83.2359
| 29> C 	 -61.4364 	 14.3589 	 -85.9703
| 30> H 	 -60.8848 	 14.8947 	 -85.1777
| 31> H 	 -61.6362 	 15.0818 	 -86.799
| 32> C 	 -60.4732 	 13.3262 	 -86.5526
| 33> H 	 -59.764 	 13.8376 	 -87.221
| 34> H 	 -61.0776 	 12.792 	 -87.2822
| 35> C 	 -59.7865 	 12.3888 	 -85.5783
| 36> H 	 -59.1499 	 13.0581 	 -85.0053
| 37> H 	 -59.0161 	 11.6913 	 -85.975
| 38> H 	 -60.5131 	 11.8207 	 -84.9771
| 39> H 	 -65.3781 	 12.6175 	 -90.8345
| 40> H 	 -64.4877 	 12.6914 	 -82.7939
| 41> *
| 42>
| 43>                          ****END OF INPUT****

CARTESIAN COORDINATES (ANGSTROEM)
---------------------------------
  S    -64.756300   12.016900  -88.474500
  C    -64.916100   13.054200  -89.930700
  C    -64.651500   14.399700  -89.712800
  C    -64.055700   14.558500  -88.381800
  C    -63.989900   13.390800  -87.637400
  H    -63.803900   15.471700  -87.944300
  C    -64.770700   15.588200  -90.641100
  H    -65.146600   15.272700  -91.587100
  H    -63.749100   15.959900  -90.803000
  C    -65.560300   16.809400  -90.158100
  H    -65.133000   17.094600  -89.222200
  H    -65.491800   17.565000  -90.881900
  C    -67.054600   16.515900  -89.909500
  H    -67.609300   16.473000  -90.884200
  H    -67.375200   15.577800  -89.444300
  H    -67.498300   17.333700  -89.360700
  S    -64.863900   12.501500  -85.266100
  C    -64.064700   12.902800  -83.763600
  C    -62.878900   13.546100  -83.995900
  C    -62.735200   13.875800  -85.396700
  C    -63.710400   13.285000  -86.226800
  H    -62.193000   13.790800  -83.235900
  C    -61.436400   14.358900  -85.970300
  H    -60.884800   14.894700  -85.177700
  H    -61.636200   15.081800  -86.799000
  C    -60.473200   13.326200  -86.552600
  H    -59.764000   13.837600  -87.221000
  H    -61.077600   12.792000  -87.282200
  C    -59.786500   12.388800  -85.578300
  H    -59.149900   13.058100  -85.005300
  H    -59.016100   11.691300  -85.975000
  H    -60.513100   11.820700  -84.977100
  H    -65.378100   12.617500  -90.834500
  H    -64.487700   12.691400  -82.793900

 Total Charge           Charge          ....    0
 Multiplicity           Mult            ....    1
 Number of Electrons    NEL             ....  134
 Basis Dimension        Dim             ....  322

ORBITAL ENERGIES
----------------

  NO   OCC          E(Eh)            E(eV)
   0   2.0000     -88.968409     -2420.9535
   1   2.0000     -88.964768     -2420.8544
   2   2.0000     -10.334450      -281.2147
   3   2.0000     -10.323727      -280.9229
   4   2.0000     -10.322765      -280.8967
   5   2.0000     -10.315577      -280.7011
   6   2.0000     -10.310851      -280.5725
   7   2.0000     -10.300633      -280.2945
   8   2.0000     -10.295528      -280.1556
   9   2.0000     -10.293902      -280.1113
  10   2.0000     -10.293732      -280.1067
  11   2.0000     -10.288505      -279.9644
  12   2.0000     -10.286433      -279.9081
  13   2.0000     -10.278608      -279.6951
  14   2.0000     -10.277014      -279.6518
  15   2.0000     -10.275670      -279.6152
  16   2.0000      -8.082167      -219.9269
  17   2.0000      -8.080682      -219.8865
  18   2.0000      -6.040852      -164.3799
  19   2.0000      -6.039109      -164.3325
  20   2.0000      -6.037066      -164.2769
  21   2.0000      -6.034818      -164.2157
  22   2.0000      -6.032551      -164.1541
  23   2.0000      -6.031651      -164.1296
  24   2.0000      -1.010312       -27.4920
  25   2.0000      -0.979381       -26.6503
  26   2.0000      -0.915265       -24.9056
  27   2.0000      -0.907514       -24.6947
  28   2.0000      -0.873561       -23.7708
  29   2.0000      -0.848249       -23.0820
  30   2.0000      -0.842462       -22.9246
  31   2.0000      -0.815701       -22.1963
  32   2.0000      -0.784562       -21.3490
  33   2.0000      -0.770883       -20.9768
  34   2.0000      -0.712538       -19.3891
  35   2.0000      -0.700122       -19.0513
  36   2.0000      -0.684696       -18.6315
  37   2.0000      -0.668338       -18.1864
  38   2.0000      -0.640551       -17.4303
  39   2.0000      -0.626086       -17.0367
  40   2.0000      -0.590707       -16.0740
  41   2.0000      -0.568781       -15.4773
  42   2.0000      -0.552027       -15.0214
  43   2.0000      -0.549725       -14.9588
  44   2.0000      -0.548233       -14.9182
  45   2.0000      -0.544493       -14.8164
  46   2.0000      -0.518741       -14.1157
  47   2.0000      -0.512648       -13.9498
  48   2.0000      -0.499433       -13.5903
  49   2.0000      -0.497016       -13.5245
  50   2.0000      -0.483925       -13.1683
  51   2.0000      -0.481652       -13.1064
  52   2.0000      -0.472157       -12.8480
  53   2.0000      -0.463228       -12.6051
  54   2.0000      -0.456876       -12.4322
  55   2.0000      -0.450762       -12.2658
  56   2.0000      -0.444187       -12.0869
  57   2.0000      -0.434286       -11.8175
  58   2.0000      -0.431327       -11.7370
  59   2.0000      -0.426594       -11.6082
  60   2.0000      -0.423275       -11.5179
  61   2.0000      -0.417288       -11.3550
  62   2.0000      -0.402470       -10.9518
  63   2.0000      -0.356069        -9.6891
  64   2.0000      -0.331981        -9.0337
  65   2.0000      -0.327024        -8.8988
  66   2.0000      -0.286019        -7.7830
  67   0.0000       0.024966         0.6793
  68   0.0000       0.066154         1.8001
  69   0.0000       0.102074         2.7776
  70   0.0000       0.114001         3.1021
  71   0.0000       0.132887         3.6160

MULLIKEN ATOMIC CHARGES
-----------------------
   0 S :    0.085906
   1 C :   -0.141420
   2 C :   -0.065478
   3 C :    0.023662
   4 C :   -0.119930
   5 H :    0.000546
   6 C :    0.080202
   7 H :    0.004630
   8 H :    0.039140
   9 C :   -0.029079
  10 H :    0.022226
  11 H :    0.026773
  12 C :   -0.082512
  13 H :    0.022748
  14 H :    0.046216
  15 H :    0.032773
  16 S :    0.106755
  17 C :   -0.093343
  18 C :   -0.005028
  19 C :   -0.052730
  20 C :   -0.137037
  21 H :    0.008403
  22 C :    0.026350
  23 H :    0.012065
  24 H :    0.026194
  25 C :   -0.048043
  26 H :    0.021737
  27 H :    0.019594
  28 C :   -0.049297
  29 H :    0.014623
  30 H :    0.037012
  31 H :    0.050976
  32 H :    0.059306
  33 H :    0.056060
Sum of atomic charges:    0.0000000

LOEWDIN ATOMIC CHARGES
----------------------
   0 S :    0.365668
   1 C :   -0.184572
   2 C :   -0.052869
   3 C :   -0.050245
   4 C :   -0.176540
   5 H :    0.019186
   6 C :   -0.027376
   7 H :    0.022538
   8 H :    0.038343
   9 C :   -0.026921
  10 H :    0.019285
  11 H :    0.023224
  12 C :   -0.073084
  13 H :    0.027032
  14 H :    0.028643
  15 H :    0.024401
  16 S :    0.434295
  17 C :   -0.186309
  18 C :   -0.061124
  19 C :   -0.068707
  20 C :   -0.215057
  21 H :    0.026944
  22 C :   -0.039125
  23 H :    0.024134
  24 H :    0.034609
  25 C :   -0.044061
  26 H :    0.025663
  27 H :    0.020499
  28 C :   -0.071619
  29 H :    0.022357
  30 H :    0.032169
  31 H :    0.030474
  32 H :    0.029792
  33 H :    0.028357

  Mayer bond orders larger than 0.100000
B(  0-S ,  1-C ) :   1.1153 B(  0-S ,  4-C ) :   1.1199 B(  1-C ,  2-C ) :   1.6459
B(  1-C , 32-H ) :   0.9620 B(  2-C ,  3-C ) :   1.1899 B(  2-C ,  6-C ) :   1.0293
B(  3-C ,  4-C ) :   1.6138 B(  3-C ,  5-H ) :   0.9926 B(  4-C , 20-C ) :   1.0519
B(  6-C ,  7-H ) :   0.9393 B(  6-C ,  8-H ) :   0.9371 B(  6-C ,  9-C ) :   1.0792
B(  9-C , 10-H ) :   0.9572 B(  9-C , 11-H ) :   0.9536 B(  9-C , 12-C ) :   1.0709
B( 12-C , 13-H ) :   0.9745 B( 12-C , 14-H ) :   0.9789 B( 12-C , 15-H ) :   0.9761
B( 16-S , 17-C ) :   1.1632 B( 16-S , 20-C ) :   1.1679 B( 17-C , 18-C ) :   1.5755
B( 17-C , 33-H ) :   0.9722 B( 18-C , 19-C ) :   1.2586 B( 18-C , 21-H ) :   0.9996
B( 19-C , 20-C ) :   1.5348 B( 19-C , 22-C ) :   1.0740 B( 22-C , 23-H ) :   0.9361
B( 22-C , 24-H ) :   0.9276 B( 22-C , 25-C ) :   1.0708 B( 25-C , 26-H ) :   0.9519
B( 25-C , 27-H ) :   0.9501 B( 25-C , 28-C ) :   1.0733 B( 28-C , 29-H ) :   0.9725
B( 28-C , 30-H ) :   0.9724 B( 28-C , 31-H ) :   0.9749

Dispersion correction           -0.014789183
FINAL SINGLE POINT ENERGY     -1339.880038350984

DIPOLE MOMENT
-------------
                                X             Y             Z
Electronic contribution:     -9.15675     -15.02957       7.38731
Nuclear contribution   :      9.28802      15.58348      -7.52911
                        -----------------------------------------
Total Dipole Moment    :      0.13127       0.55391      -0.14180
                        -----------------------------------------
Magnitude (a.u.)       :      0.58665
Magnitude (Debye)      :      1.49114

Rotational constants in cm-1:     0.020846     0.008158     0.007548
Rotational constants in MHz :   624.958004   244.582465   226.272315

                             ****ORCA TERMINATED NORMALLY****
TOTAL RUN TIME: 0 days 0 hours 0 minutes 22 seconds 34 msec
