                         Program Version 4.2.1 -  RELEASE  -
|  1> ! wB97X-D3 SP def2-SVP
|  2> %pal
|  3> nprocs 24
|  4> end
|  5>
|  6> * xyz 0 1
|  7> S 	 18.6474 	 2.12676 	 -113.251
|  8> C 	 18.3622 	 0.384679 	 -113.202
|  9> C 	 18.7426 	 -0.0834726 	 -111.95
| 10> C 	 19.4501 	 0.881566 	 -111.196
| 11> C 	 19.6753 	 2.03399 	 -111.909
| 12> H 	 19.9603 	 0.796652 	 -110.197
| 13> C 	 18.3559 	 -1.49208 	 -111.451
| 14> H 	 19.1485 	 -2.12791 	 -111.024
| 15> H 	 17.9934 	 -2.13457 	 -112.352
| 16> C 	 17.224 	 -1.45458 	 -110.434
| 17> H 	 17.0239 	 -2.43718 	 -109.953
| 18> H 	 17.489 	 -0.890483 	 -109.592
| 19> C 	 15.8478 	 -0.974729 	 -110.957
| 20> H 	 15.8017 	 -0.0280673 	 -111.341
| 21> H 	 15.4115 	 -1.59487 	 -111.75
| 22> H 	 15.0895 	 -0.983236 	 -110.207
| 23> S 	 19.9416 	 4.66288 	 -111.443
| 24> C 	 21.3911 	 5.31593 	 -110.685
| 25> C 	 22.3551 	 4.35257 	 -110.469
| 26> C 	 21.8543 	 3.06392 	 -110.899
| 27> C 	 20.5967 	 3.05832 	 -111.474
| 28> H 	 23.2843 	 4.64999 	 -110.054
| 29> C 	 22.8303 	 1.79345 	 -110.859
| 30> H 	 22.2358 	 0.920678 	 -111.272
| 31> H 	 23.0221 	 1.50696 	 -109.845
| 32> C 	 24.1088 	 1.96128 	 -111.611
| 33> H 	 24.8198 	 1.1907 	 -111.421
| 34> H 	 24.4552 	 2.87381 	 -111.268
| 35> C 	 23.8932 	 2.0511 	 -113.158
| 36> H 	 23.2159 	 2.8763 	 -113.377
| 37> H 	 23.5276 	 1.1253 	 -113.614
| 38> H 	 24.8538 	 2.35899 	 -113.601
| 39> H 	 17.8072 	 -0.203445 	 -113.89
| 40> H 	 21.6335 	 6.28121 	 -110.449
| 41> *
| 42>
| 43>                          ****END OF INPUT****

CARTESIAN COORDINATES (ANGSTROEM)
---------------------------------
  S     18.647400    2.126760  -113.251000
  C     18.362200    0.384679  -113.202000
  C     18.742600   -0.083473  -111.950000
  C     19.450100    0.881566  -111.196000
  C     19.675300    2.033990  -111.909000
  H     19.960300    0.796652  -110.197000
  C     18.355900   -1.492080  -111.451000
  H     19.148500   -2.127910  -111.024000
  H     17.993400   -2.134570  -112.352000
  C     17.224000   -1.454580  -110.434000
  H     17.023900   -2.437180  -109.953000
  H     17.489000   -0.890483  -109.592000
  C     15.847800   -0.974729  -110.957000
  H     15.801700   -0.028067  -111.341000
  H     15.411500   -1.594870  -111.750000
  H     15.089500   -0.983236  -110.207000
  S     19.941600    4.662880  -111.443000
  C     21.391100    5.315930  -110.685000
  C     22.355100    4.352570  -110.469000
  C     21.854300    3.063920  -110.899000
  C     20.596700    3.058320  -111.474000
  H     23.284300    4.649990  -110.054000
  C     22.830300    1.793450  -110.859000
  H     22.235800    0.920678  -111.272000
  H     23.022100    1.506960  -109.845000
  C     24.108800    1.961280  -111.611000
  H     24.819800    1.190700  -111.421000
  H     24.455200    2.873810  -111.268000
  C     23.893200    2.051100  -113.158000
  H     23.215900    2.876300  -113.377000
  H     23.527600    1.125300  -113.614000
  H     24.853800    2.358990  -113.601000
  H     17.807200   -0.203445  -113.890000
  H     21.633500    6.281210  -110.449000

 Total Charge           Charge          ....    0
 Multiplicity           Mult            ....    1
 Number of Electrons    NEL             ....  134
 Basis Dimension        Dim             ....  322

ORBITAL ENERGIES
----------------

  NO   OCC          E(Eh)            E(eV)
   0   2.0000     -88.968304     -2420.9506
   1   2.0000     -88.965666     -2420.8788
   2   2.0000     -10.327600      -281.0283
   3   2.0000     -10.325743      -280.9778
   4   2.0000     -10.315365      -280.6953
   5   2.0000     -10.314166      -280.6627
   6   2.0000     -10.311044      -280.5778
   7   2.0000     -10.306543      -280.4553
   8   2.0000     -10.303329      -280.3678
   9   2.0000     -10.296503      -280.1821
  10   2.0000     -10.295469      -280.1539
  11   2.0000     -10.290194      -280.0104
  12   2.0000     -10.285044      -279.8703
  13   2.0000     -10.274399      -279.5806
  14   2.0000     -10.272316      -279.5239
  15   2.0000     -10.264914      -279.3225
  16   2.0000      -8.083903      -219.9742
  17   2.0000      -8.080799      -219.8897
  18   2.0000      -6.042343      -164.4205
  19   2.0000      -6.039431      -164.3413
  20   2.0000      -6.038507      -164.3161
  21   2.0000      -6.035210      -164.2264
  22   2.0000      -6.034451      -164.2058
  23   2.0000      -6.031440      -164.1238
  24   2.0000      -1.016286       -27.6545
  25   2.0000      -0.988655       -26.9027
  26   2.0000      -0.910746       -24.7827
  27   2.0000      -0.905879       -24.6502
  28   2.0000      -0.874796       -23.8044
  29   2.0000      -0.849004       -23.1026
  30   2.0000      -0.838857       -22.8265
  31   2.0000      -0.816647       -22.2221
  32   2.0000      -0.786286       -21.3959
  33   2.0000      -0.774351       -21.0712
  34   2.0000      -0.714299       -19.4371
  35   2.0000      -0.699473       -19.0336
  36   2.0000      -0.694802       -18.9065
  37   2.0000      -0.661763       -18.0075
  38   2.0000      -0.643191       -17.5021
  39   2.0000      -0.618968       -16.8430
  40   2.0000      -0.595584       -16.2067
  41   2.0000      -0.575916       -15.6715
  42   2.0000      -0.551681       -15.0120
  43   2.0000      -0.546176       -14.8622
  44   2.0000      -0.543209       -14.7815
  45   2.0000      -0.539557       -14.6821
  46   2.0000      -0.520768       -14.1708
  47   2.0000      -0.512531       -13.9467
  48   2.0000      -0.511625       -13.9220
  49   2.0000      -0.494332       -13.4514
  50   2.0000      -0.488902       -13.3037
  51   2.0000      -0.478285       -13.0148
  52   2.0000      -0.468945       -12.7606
  53   2.0000      -0.462292       -12.5796
  54   2.0000      -0.456747       -12.4287
  55   2.0000      -0.451681       -12.2909
  56   2.0000      -0.444760       -12.1025
  57   2.0000      -0.435511       -11.8509
  58   2.0000      -0.429335       -11.6828
  59   2.0000      -0.422956       -11.5092
  60   2.0000      -0.416972       -11.3464
  61   2.0000      -0.415424       -11.3043
  62   2.0000      -0.409068       -11.1313
  63   2.0000      -0.353086        -9.6079
  64   2.0000      -0.332929        -9.0595
  65   2.0000      -0.331267        -9.0142
  66   2.0000      -0.292708        -7.9650
  67   0.0000       0.024969         0.6794
  68   0.0000       0.069918         1.9026
  69   0.0000       0.101099         2.7511
  70   0.0000       0.120901         3.2899
  71   0.0000       0.140132         3.8132

MULLIKEN ATOMIC CHARGES
-----------------------
   0 S :    0.119067
   1 C :   -0.092764
   2 C :   -0.076519
   3 C :    0.015359
   4 C :   -0.147574
   5 H :    0.040550
   6 C :    0.036311
   7 H :    0.037926
   8 H :    0.030089
   9 C :   -0.056127
  10 H :    0.027060
  11 H :    0.016118
  12 C :   -0.022583
  13 H :    0.014873
  14 H :    0.015324
  15 H :    0.015935
  16 S :    0.093770
  17 C :   -0.036656
  18 C :   -0.043509
  19 C :   -0.069893
  20 C :   -0.129682
  21 H :    0.016954
  22 C :    0.049000
  23 H :    0.027067
  24 H :    0.022303
  25 C :   -0.019848
  26 H :    0.026426
  27 H :   -0.000954
  28 C :   -0.067270
  29 H :    0.039427
  30 H :    0.040993
  31 H :    0.028448
  32 H :    0.034519
  33 H :    0.015862
Sum of atomic charges:   -0.0000000

LOEWDIN ATOMIC CHARGES
----------------------
   0 S :    0.419939
   1 C :   -0.185153
   2 C :   -0.059228
   3 C :   -0.068785
   4 C :   -0.211464
   5 H :    0.043970
   6 C :   -0.035737
   7 H :    0.031834
   8 H :    0.036549
   9 C :   -0.039929
  10 H :    0.029701
  11 H :    0.016424
  12 C :   -0.061698
  13 H :    0.011767
  14 H :    0.024781
  15 H :    0.023908
  16 S :    0.404049
  17 C :   -0.162433
  18 C :   -0.065854
  19 C :   -0.054489
  20 C :   -0.199377
  21 H :    0.029646
  22 C :   -0.031370
  23 H :    0.029563
  24 H :    0.023009
  25 C :   -0.034639
  26 H :    0.022780
  27 H :    0.011593
  28 C :   -0.061782
  29 H :    0.026570
  30 H :    0.025620
  31 H :    0.025449
  32 H :    0.022696
  33 H :    0.012089

  Mayer bond orders larger than 0.100000
B(  0-S ,  1-C ) :   1.1254 B(  0-S ,  4-C ) :   1.1664 B(  1-C ,  2-C ) :   1.6033
B(  1-C ,  4-C ) :   0.1028 B(  1-C , 32-H ) :   0.9760 B(  2-C ,  3-C ) :   1.2302
B(  2-C ,  6-C ) :   1.0180 B(  3-C ,  4-C ) :   1.5494 B(  3-C ,  5-H ) :   0.9921
B(  4-C , 20-C ) :   1.0354 B(  6-C ,  7-H ) :   0.9461 B(  6-C ,  8-H ) :   0.9469
B(  6-C ,  9-C ) :   1.0698 B(  9-C , 10-H ) :   0.9543 B(  9-C , 11-H ) :   0.9554
B(  9-C , 12-C ) :   1.0743 B( 12-C , 13-H ) :   0.9761 B( 12-C , 14-H ) :   0.9737
B( 12-C , 15-H ) :   0.9717 B( 16-S , 17-C ) :   1.1499 B( 16-S , 20-C ) :   1.1283
B( 17-C , 18-C ) :   1.6397 B( 17-C , 33-H ) :   0.9725 B( 18-C , 19-C ) :   1.2061
B( 18-C , 21-H ) :   0.9954 B( 19-C , 20-C ) :   1.6382 B( 19-C , 22-C ) :   1.0153
B( 22-C , 23-H ) :   0.9423 B( 22-C , 24-H ) :   0.9371 B( 22-C , 25-C ) :   1.0766
B( 25-C , 26-H ) :   0.9526 B( 25-C , 27-H ) :   0.9524 B( 25-C , 28-C ) :   1.0791
B( 28-C , 29-H ) :   0.9766 B( 28-C , 30-H ) :   0.9771 B( 28-C , 31-H ) :   0.9748

Dispersion correction           -0.014865332
FINAL SINGLE POINT ENERGY     -1339.858319027432

DIPOLE MOMENT
-------------
                                X             Y             Z
Electronic contribution:     -4.91546      18.99332      -4.27753
Nuclear contribution   :      5.19276     -19.34583       4.65743
                        -----------------------------------------
Total Dipole Moment    :      0.27730      -0.35250       0.37989
                        -----------------------------------------
Magnitude (a.u.)       :      0.58777
Magnitude (Debye)      :      1.49400

Rotational constants in cm-1:     0.021701     0.008201     0.007197
Rotational constants in MHz :   650.567104   245.844926   215.765278

                             ****ORCA TERMINATED NORMALLY****
TOTAL RUN TIME: 0 days 0 hours 0 minutes 22 seconds 49 msec
