                         Program Version 4.2.1 -  RELEASE  -
|  1> ! wB97X-D3 SP def2-SVP
|  2> %pal
|  3> nprocs 24
|  4> end
|  5>
|  6> * xyz 0 1
|  7> S 	 -37.5913 	 -10.9749 	 20.547
|  8> C 	 -36.6974 	 -11.8656 	 21.7349
|  9> C 	 -36.275 	 -13.079 	 21.2047
| 10> C 	 -36.673 	 -13.2375 	 19.8355
| 11> C 	 -37.3311 	 -12.1661 	 19.3004
| 12> H 	 -36.3946 	 -14.0627 	 19.2295
| 13> C 	 -35.3738 	 -14.1099 	 21.9399
| 14> H 	 -36.0039 	 -14.9435 	 22.0672
| 15> H 	 -35.1119 	 -13.7039 	 22.9275
| 16> C 	 -34.0979 	 -14.4103 	 21.2705
| 17> H 	 -33.5226 	 -15.0775 	 21.9137
| 18> H 	 -34.2618 	 -15.0299 	 20.3721
| 19> C 	 -33.1873 	 -13.1961 	 21.0315
| 20> H 	 -32.3701 	 -13.6541 	 20.4601
| 21> H 	 -33.6933 	 -12.3548 	 20.406
| 22> H 	 -32.9291 	 -12.8064 	 22.0423
| 23> S 	 -39.6852 	 -11.7758 	 18.0397
| 24> C 	 -39.8177 	 -12.0108 	 16.2832
| 25> C 	 -38.5642 	 -12.1665 	 15.6811
| 26> C 	 -37.4917 	 -12.1227 	 16.6851
| 27> C 	 -37.945 	 -12.0328 	 17.9899
| 28> H 	 -38.5305 	 -12.3876 	 14.658
| 29> C 	 -36.0339 	 -12.2682 	 16.2984
| 30> H 	 -36.0542 	 -12.0511 	 15.1908
| 31> H 	 -35.7638 	 -13.3111 	 16.2472
| 32> C 	 -34.9949 	 -11.443 	 17.0453
| 33> H 	 -34.8533 	 -11.9075 	 18.0671
| 34> H 	 -35.3592 	 -10.4462 	 17.2297
| 35> C 	 -33.5961 	 -11.3425 	 16.3767
| 36> H 	 -33.5172 	 -10.8249 	 15.4324
| 37> H 	 -33.182 	 -12.3224 	 16.0251
| 38> H 	 -32.968 	 -10.8439 	 17.0792
| 39> H 	 -36.3875 	 -11.5549 	 22.6875
| 40> H 	 -40.7079 	 -12.0362 	 15.7218
| 41> *
| 42>
| 43>                          ****END OF INPUT****

CARTESIAN COORDINATES (ANGSTROEM)
---------------------------------
  S    -37.591300  -10.974900   20.547000
  C    -36.697400  -11.865600   21.734900
  C    -36.275000  -13.079000   21.204700
  C    -36.673000  -13.237500   19.835500
  C    -37.331100  -12.166100   19.300400
  H    -36.394600  -14.062700   19.229500
  C    -35.373800  -14.109900   21.939900
  H    -36.003900  -14.943500   22.067200
  H    -35.111900  -13.703900   22.927500
  C    -34.097900  -14.410300   21.270500
  H    -33.522600  -15.077500   21.913700
  H    -34.261800  -15.029900   20.372100
  C    -33.187300  -13.196100   21.031500
  H    -32.370100  -13.654100   20.460100
  H    -33.693300  -12.354800   20.406000
  H    -32.929100  -12.806400   22.042300
  S    -39.685200  -11.775800   18.039700
  C    -39.817700  -12.010800   16.283200
  C    -38.564200  -12.166500   15.681100
  C    -37.491700  -12.122700   16.685100
  C    -37.945000  -12.032800   17.989900
  H    -38.530500  -12.387600   14.658000
  C    -36.033900  -12.268200   16.298400
  H    -36.054200  -12.051100   15.190800
  H    -35.763800  -13.311100   16.247200
  C    -34.994900  -11.443000   17.045300
  H    -34.853300  -11.907500   18.067100
  H    -35.359200  -10.446200   17.229700
  C    -33.596100  -11.342500   16.376700
  H    -33.517200  -10.824900   15.432400
  H    -33.182000  -12.322400   16.025100
  H    -32.968000  -10.843900   17.079200
  H    -36.387500  -11.554900   22.687500
  H    -40.707900  -12.036200   15.721800

 Total Charge           Charge          ....    0
 Multiplicity           Mult            ....    1
 Number of Electrons    NEL             ....  134
 Basis Dimension        Dim             ....  322

ORBITAL ENERGIES
----------------

  NO   OCC          E(Eh)            E(eV)
   0   2.0000     -88.964924     -2420.8587
   1   2.0000     -88.963429     -2420.8180
   2   2.0000     -10.329135      -281.0701
   3   2.0000     -10.326606      -281.0012
   4   2.0000     -10.319066      -280.7961
   5   2.0000     -10.310416      -280.5607
   6   2.0000     -10.309429      -280.5338
   7   2.0000     -10.301334      -280.3135
   8   2.0000     -10.297966      -280.2219
   9   2.0000     -10.291799      -280.0541
  10   2.0000     -10.290370      -280.0152
  11   2.0000     -10.288448      -279.9629
  12   2.0000     -10.288292      -279.9587
  13   2.0000     -10.287428      -279.9351
  14   2.0000     -10.284785      -279.8632
  15   2.0000     -10.277284      -279.6591
  16   2.0000      -8.080026      -219.8687
  17   2.0000      -8.077774      -219.8074
  18   2.0000      -6.038620      -164.3192
  19   2.0000      -6.036418      -164.2593
  20   2.0000      -6.034311      -164.2020
  21   2.0000      -6.032354      -164.1487
  22   2.0000      -6.030832      -164.1073
  23   2.0000      -6.028374      -164.0404
  24   2.0000      -1.007223       -27.4079
  25   2.0000      -0.980087       -26.6695
  26   2.0000      -0.918906       -25.0047
  27   2.0000      -0.903179       -24.5768
  28   2.0000      -0.871158       -23.7054
  29   2.0000      -0.847436       -23.0599
  30   2.0000      -0.842124       -22.9154
  31   2.0000      -0.817859       -22.2551
  32   2.0000      -0.783790       -21.3280
  33   2.0000      -0.772876       -21.0310
  34   2.0000      -0.713432       -19.4135
  35   2.0000      -0.695685       -18.9306
  36   2.0000      -0.688296       -18.7295
  37   2.0000      -0.665661       -18.1136
  38   2.0000      -0.642299       -17.4779
  39   2.0000      -0.624462       -16.9925
  40   2.0000      -0.591442       -16.0940
  41   2.0000      -0.570072       -15.5124
  42   2.0000      -0.565635       -15.3917
  43   2.0000      -0.555233       -15.1087
  44   2.0000      -0.542708       -14.7678
  45   2.0000      -0.532212       -14.4822
  46   2.0000      -0.514544       -14.0015
  47   2.0000      -0.512421       -13.9437
  48   2.0000      -0.506469       -13.7817
  49   2.0000      -0.494793       -13.4640
  50   2.0000      -0.493752       -13.4357
  51   2.0000      -0.482975       -13.1424
  52   2.0000      -0.475221       -12.9314
  53   2.0000      -0.460061       -12.5189
  54   2.0000      -0.453443       -12.3388
  55   2.0000      -0.446756       -12.1569
  56   2.0000      -0.444034       -12.0828
  57   2.0000      -0.438646       -11.9362
  58   2.0000      -0.434908       -11.8344
  59   2.0000      -0.424196       -11.5430
  60   2.0000      -0.416553       -11.3350
  61   2.0000      -0.408196       -11.1076
  62   2.0000      -0.407625       -11.0920
  63   2.0000      -0.346449        -9.4274
  64   2.0000      -0.329398        -8.9634
  65   2.0000      -0.326315        -8.8795
  66   2.0000      -0.296148        -8.0586
  67   0.0000       0.035476         0.9654
  68   0.0000       0.063647         1.7319
  69   0.0000       0.112450         3.0599
  70   0.0000       0.119787         3.2596
  71   0.0000       0.129229         3.5165

MULLIKEN ATOMIC CHARGES
-----------------------
   0 S :    0.111217
   1 C :   -0.088593
   2 C :   -0.139285
   3 C :    0.059862
   4 C :   -0.163724
   5 H :   -0.003237
   6 C :    0.126881
   7 H :    0.028608
   8 H :    0.006477
   9 C :   -0.099108
  10 H :    0.025558
  11 H :    0.024921
  12 C :   -0.081943
  13 H :    0.046058
  14 H :    0.070328
  15 H :    0.036908
  16 S :    0.099959
  17 C :   -0.074526
  18 C :   -0.020569
  19 C :   -0.042980
  20 C :   -0.145136
  21 H :    0.007879
  22 C :    0.059785
  23 H :    0.012387
  24 H :    0.029430
  25 C :   -0.078959
  26 H :    0.051557
  27 H :    0.031946
  28 C :   -0.038648
  29 H :    0.023318
  30 H :    0.023026
  31 H :    0.035284
  32 H :    0.023335
  33 H :    0.041983
Sum of atomic charges:   -0.0000000

LOEWDIN ATOMIC CHARGES
----------------------
   0 S :    0.413617
   1 C :   -0.198632
   2 C :   -0.058703
   3 C :   -0.060832
   4 C :   -0.195937
   5 H :    0.025295
   6 C :   -0.026819
   7 H :    0.028409
   8 H :    0.028059
   9 C :   -0.052379
  10 H :    0.026781
  11 H :    0.020370
  12 C :   -0.069032
  13 H :    0.031227
  14 H :    0.036243
  15 H :    0.028179
  16 S :    0.390601
  17 C :   -0.164737
  18 C :   -0.062726
  19 C :   -0.051972
  20 C :   -0.197031
  21 H :    0.024968
  22 C :   -0.042580
  23 H :    0.033907
  24 H :    0.030228
  25 C :   -0.042687
  26 H :    0.033417
  27 H :    0.025280
  28 C :   -0.066789
  29 H :    0.021751
  30 H :    0.027244
  31 H :    0.025249
  32 H :    0.019243
  33 H :    0.020786

  Mayer bond orders larger than 0.100000
B(  0-S ,  1-C ) :   1.1378 B(  0-S ,  4-C ) :   1.1544 B(  1-C ,  2-C ) :   1.6101
B(  1-C , 32-H ) :   0.9727 B(  2-C ,  3-C ) :   1.2412 B(  2-C ,  6-C ) :   1.0103
B(  3-C ,  4-C ) :   1.5782 B(  3-C ,  5-H ) :   1.0008 B(  4-C , 20-C ) :   1.0275
B(  6-C ,  7-H ) :   0.9323 B(  6-C ,  8-H ) :   0.9380 B(  6-C ,  9-C ) :   1.0925
B(  9-C , 10-H ) :   0.9502 B(  9-C , 11-H ) :   0.9494 B(  9-C , 12-C ) :   1.0662
B( 12-C , 13-H ) :   0.9730 B( 12-C , 14-H ) :   0.9681 B( 12-C , 15-H ) :   0.9718
B( 16-S , 17-C ) :   1.1459 B( 16-S , 20-C ) :   1.1226 B( 17-C , 18-C ) :   1.6395
B( 17-C , 33-H ) :   0.9708 B( 18-C , 19-C ) :   1.2042 B( 18-C , 21-H ) :   0.9965
B( 19-C , 20-C ) :   1.6276 B( 19-C , 22-C ) :   1.0401 B( 22-C , 23-H ) :   0.9327
B( 22-C , 24-H ) :   0.9227 B( 22-C , 25-C ) :   1.0634 B( 25-C , 26-H ) :   0.9392
B( 25-C , 27-H ) :   0.9600 B( 25-C , 28-C ) :   1.0846 B( 28-C , 29-H ) :   0.9740
B( 28-C , 30-H ) :   0.9733 B( 28-C , 31-H ) :   0.9750

Dispersion correction           -0.015558443
FINAL SINGLE POINT ENERGY     -1339.878829758197

DIPOLE MOMENT
-------------
                                X             Y             Z
Electronic contribution:    -28.52116       7.82296       2.10562
Nuclear contribution   :     29.07960      -8.30643      -2.29192
                        -----------------------------------------
Total Dipole Moment    :      0.55844      -0.48348      -0.18630
                        -----------------------------------------
Magnitude (a.u.)       :      0.76178
Magnitude (Debye)      :      1.93629

Rotational constants in cm-1:     0.018397     0.010067     0.007529
Rotational constants in MHz :   551.538120   301.815567   225.720344

                             ****ORCA TERMINATED NORMALLY****
TOTAL RUN TIME: 0 days 0 hours 0 minutes 22 seconds 776 msec
