                         Program Version 4.2.1 -  RELEASE  -
|  1> ! wB97X-D3 SP def2-SVP
|  2> %pal
|  3> nprocs 24
|  4> end
|  5>
|  6> * xyz 0 1
|  7> S 	 -38.5223 	 -7.87935 	 19.3485
|  8> C 	 -37.9826 	 -8.80308 	 20.6915
|  9> C 	 -37.1934 	 -9.85786 	 20.2393
| 10> C 	 -37.1912 	 -10.0186 	 18.815
| 11> C 	 -37.8953 	 -9.03978 	 18.186
| 12> H 	 -36.6484 	 -10.754 	 18.3082
| 13> C 	 -36.3836 	 -10.7592 	 21.169
| 14> H 	 -36.6345 	 -10.6499 	 22.2039
| 15> H 	 -35.3546 	 -10.4609 	 21.168
| 16> C 	 -36.4096 	 -12.3139 	 20.9868
| 17> H 	 -36.0055 	 -12.8261 	 21.8566
| 18> H 	 -37.4572 	 -12.6996 	 20.9119
| 19> C 	 -35.5766 	 -12.838 	 19.7992
| 20> H 	 -34.687 	 -12.2092 	 19.7037
| 21> H 	 -35.2537 	 -13.9046 	 20.0389
| 22> H 	 -36.1222 	 -12.8046 	 18.8899
| 23> S 	 -39.8255 	 -8.84201 	 16.2764
| 24> C 	 -39.386 	 -8.7209 	 14.6264
| 25> C 	 -37.9895 	 -8.88739 	 14.443
| 26> C 	 -37.27 	 -8.99085 	 15.6819
| 27> C 	 -38.1153 	 -8.90673 	 16.7202
| 28> H 	 -37.5335 	 -8.84451 	 13.4293
| 29> C 	 -35.7486 	 -8.97689 	 15.7604
| 30> H 	 -35.4827 	 -9.81767 	 15.3032
| 31> H 	 -35.3952 	 -9.10159 	 16.7889
| 32> C 	 -35.0586 	 -7.7181 	 15.1469
| 33> H 	 -35.2714 	 -7.69373 	 14.0503
| 34> H 	 -33.9781 	 -7.53912 	 15.3507
| 35> C 	 -35.7439 	 -6.36327 	 15.6683
| 36> H 	 -35.7864 	 -6.38243 	 16.7697
| 37> H 	 -36.7657 	 -6.23957 	 15.3541
| 38> H 	 -35.2253 	 -5.395 	 15.3086
| 39> H 	 -38.1085 	 -8.63075 	 21.7636
| 40> H 	 -40.1704 	 -8.61217 	 13.8812
| 41> *
| 42>
| 43>                          ****END OF INPUT****

CARTESIAN COORDINATES (ANGSTROEM)
---------------------------------
  S    -38.522300   -7.879350   19.348500
  C    -37.982600   -8.803080   20.691500
  C    -37.193400   -9.857860   20.239300
  C    -37.191200  -10.018600   18.815000
  C    -37.895300   -9.039780   18.186000
  H    -36.648400  -10.754000   18.308200
  C    -36.383600  -10.759200   21.169000
  H    -36.634500  -10.649900   22.203900
  H    -35.354600  -10.460900   21.168000
  C    -36.409600  -12.313900   20.986800
  H    -36.005500  -12.826100   21.856600
  H    -37.457200  -12.699600   20.911900
  C    -35.576600  -12.838000   19.799200
  H    -34.687000  -12.209200   19.703700
  H    -35.253700  -13.904600   20.038900
  H    -36.122200  -12.804600   18.889900
  S    -39.825500   -8.842010   16.276400
  C    -39.386000   -8.720900   14.626400
  C    -37.989500   -8.887390   14.443000
  C    -37.270000   -8.990850   15.681900
  C    -38.115300   -8.906730   16.720200
  H    -37.533500   -8.844510   13.429300
  C    -35.748600   -8.976890   15.760400
  H    -35.482700   -9.817670   15.303200
  H    -35.395200   -9.101590   16.788900
  C    -35.058600   -7.718100   15.146900
  H    -35.271400   -7.693730   14.050300
  H    -33.978100   -7.539120   15.350700
  C    -35.743900   -6.363270   15.668300
  H    -35.786400   -6.382430   16.769700
  H    -36.765700   -6.239570   15.354100
  H    -35.225300   -5.395000   15.308600
  H    -38.108500   -8.630750   21.763600
  H    -40.170400   -8.612170   13.881200

 Total Charge           Charge          ....    0
 Multiplicity           Mult            ....    1
 Number of Electrons    NEL             ....  134
 Basis Dimension        Dim             ....  322

ORBITAL ENERGIES
----------------

  NO   OCC          E(Eh)            E(eV)
   0   2.0000     -88.966927     -2420.9132
   1   2.0000     -88.965068     -2420.8626
   2   2.0000     -10.328137      -281.0429
   3   2.0000     -10.324268      -280.9376
   4   2.0000     -10.321397      -280.8595
   5   2.0000     -10.312904      -280.6284
   6   2.0000     -10.303692      -280.3777
   7   2.0000     -10.302922      -280.3568
   8   2.0000     -10.301414      -280.3157
   9   2.0000     -10.299059      -280.2516
  10   2.0000     -10.289248      -279.9847
  11   2.0000     -10.289134      -279.9816
  12   2.0000     -10.288958      -279.9768
  13   2.0000     -10.288111      -279.9537
  14   2.0000     -10.279841      -279.7287
  15   2.0000     -10.279011      -279.7061
  16   2.0000      -8.081814      -219.9173
  17   2.0000      -8.080569      -219.8835
  18   2.0000      -6.040375      -164.3669
  19   2.0000      -6.038886      -164.3264
  20   2.0000      -6.036241      -164.2545
  21   2.0000      -6.035034      -164.2216
  22   2.0000      -6.032561      -164.1543
  23   2.0000      -6.031408      -164.1230
  24   2.0000      -1.009895       -27.4806
  25   2.0000      -0.988084       -26.8871
  26   2.0000      -0.906527       -24.6678
  27   2.0000      -0.904821       -24.6214
  28   2.0000      -0.866611       -23.5817
  29   2.0000      -0.847531       -23.0625
  30   2.0000      -0.841307       -22.8931
  31   2.0000      -0.813642       -22.1403
  32   2.0000      -0.786879       -21.4121
  33   2.0000      -0.773155       -21.0386
  34   2.0000      -0.700748       -19.0683
  35   2.0000      -0.694540       -18.8994
  36   2.0000      -0.691949       -18.8289
  37   2.0000      -0.664126       -18.0718
  38   2.0000      -0.643167       -17.5015
  39   2.0000      -0.623366       -16.9626
  40   2.0000      -0.599362       -16.3095
  41   2.0000      -0.566644       -15.4192
  42   2.0000      -0.554713       -15.0945
  43   2.0000      -0.545675       -14.8486
  44   2.0000      -0.539902       -14.6915
  45   2.0000      -0.535738       -14.5782
  46   2.0000      -0.516574       -14.0567
  47   2.0000      -0.506116       -13.7721
  48   2.0000      -0.502724       -13.6798
  49   2.0000      -0.500013       -13.6061
  50   2.0000      -0.487655       -13.2698
  51   2.0000      -0.481121       -13.0920
  52   2.0000      -0.470893       -12.8137
  53   2.0000      -0.462454       -12.5840
  54   2.0000      -0.461142       -12.5483
  55   2.0000      -0.443562       -12.0699
  56   2.0000      -0.440739       -11.9931
  57   2.0000      -0.437242       -11.8980
  58   2.0000      -0.433301       -11.7907
  59   2.0000      -0.423707       -11.5297
  60   2.0000      -0.418294       -11.3823
  61   2.0000      -0.415167       -11.2973
  62   2.0000      -0.412542       -11.2258
  63   2.0000      -0.346680        -9.4336
  64   2.0000      -0.337424        -9.1818
  65   2.0000      -0.325316        -8.8523
  66   2.0000      -0.297960        -8.1079
  67   0.0000       0.035191         0.9576
  68   0.0000       0.071554         1.9471
  69   0.0000       0.115617         3.1461
  70   0.0000       0.117288         3.1916
  71   0.0000       0.133854         3.6423

MULLIKEN ATOMIC CHARGES
-----------------------
   0 S :    0.121124
   1 C :   -0.116671
   2 C :   -0.086888
   3 C :    0.072246
   4 C :   -0.149710
   5 H :   -0.022684
   6 C :    0.074148
   7 H :    0.005904
   8 H :    0.028496
   9 C :   -0.105666
  10 H :    0.027226
  11 H :    0.039795
  12 C :   -0.071898
  13 H :    0.026733
  14 H :    0.043330
  15 H :    0.045134
  16 S :    0.114843
  17 C :   -0.097546
  18 C :   -0.065344
  19 C :   -0.043731
  20 C :   -0.184149
  21 H :    0.035035
  22 C :    0.169947
  23 H :   -0.003613
  24 H :    0.025150
  25 C :   -0.107661
  26 H :    0.038592
  27 H :    0.054713
  28 C :   -0.099216
  29 H :    0.034398
  30 H :    0.037850
  31 H :    0.044164
  32 H :    0.052039
  33 H :    0.063907
Sum of atomic charges:    0.0000000

LOEWDIN ATOMIC CHARGES
----------------------
   0 S :    0.416330
   1 C :   -0.213643
   2 C :   -0.059767
   3 C :   -0.058979
   4 C :   -0.190104
   5 H :    0.021361
   6 C :   -0.034175
   7 H :    0.027337
   8 H :    0.028808
   9 C :   -0.044971
  10 H :    0.024205
  11 H :    0.028755
  12 C :   -0.070886
  13 H :    0.022233
  14 H :    0.035239
  15 H :    0.016239
  16 S :    0.416221
  17 C :   -0.192458
  18 C :   -0.074638
  19 C :   -0.054563
  20 C :   -0.189871
  21 H :    0.036330
  22 C :   -0.016952
  23 H :    0.013957
  24 H :    0.033992
  25 C :   -0.040580
  26 H :    0.024784
  27 H :    0.033349
  28 C :   -0.077835
  29 H :    0.023570
  30 H :    0.020232
  31 H :    0.032738
  32 H :    0.036006
  33 H :    0.027735

  Mayer bond orders larger than 0.100000
B(  0-S ,  1-C ) :   1.1359 B(  0-S ,  4-C ) :   1.1630 B(  1-C ,  2-C ) :   1.6098
B(  1-C , 32-H ) :   0.9663 B(  2-C ,  3-C ) :   1.2397 B(  2-C ,  6-C ) :   1.0233
B(  3-C ,  4-C ) :   1.5749 B(  3-C ,  5-H ) :   1.0025 B(  4-C , 20-C ) :   0.9910
B(  6-C ,  7-H ) :   0.9390 B(  6-C ,  8-H ) :   0.9373 B(  6-C ,  9-C ) :   1.0714
B(  9-C , 10-H ) :   0.9609 B(  9-C , 11-H ) :   0.9582 B(  9-C , 12-C ) :   1.0689
B( 12-C , 13-H ) :   0.9769 B( 12-C , 14-H ) :   0.9730 B( 12-C , 15-H ) :   0.9733
B( 16-S , 17-C ) :   1.1701 B( 16-S , 20-C ) :   1.1509 B( 17-C , 18-C ) :   1.5881
B( 17-C , 33-H ) :   0.9718 B( 18-C , 19-C ) :   1.2140 B( 18-C , 21-H ) :   0.9870
B( 19-C , 20-C ) :   1.6472 B( 19-C , 22-C ) :   1.0288 B( 22-C , 23-H ) :   0.9198
B( 22-C , 24-H ) :   0.9328 B( 22-C , 25-C ) :   1.0605 B( 25-C , 26-H ) :   0.9577
B( 25-C , 27-H ) :   0.9639 B( 25-C , 28-C ) :   1.0592 B( 28-C , 29-H ) :   0.9788
B( 28-C , 30-H ) :   0.9730 B( 28-C , 31-H ) :   0.9775

Dispersion correction           -0.015207739
FINAL SINGLE POINT ENERGY     -1339.874234867949

DIPOLE MOMENT
-------------
                                X             Y             Z
Electronic contribution:    -21.25734       8.42662      -1.57090
Nuclear contribution   :     21.73879      -8.72912       1.56013
                        -----------------------------------------
Total Dipole Moment    :      0.48145      -0.30250      -0.01078
                        -----------------------------------------
Magnitude (a.u.)       :      0.56870
Magnitude (Debye)      :      1.44551

Rotational constants in cm-1:     0.018931     0.008690     0.007858
Rotational constants in MHz :   567.541218   260.533894   235.569364

                             ****ORCA TERMINATED NORMALLY****
TOTAL RUN TIME: 0 days 0 hours 0 minutes 22 seconds 79 msec
