                         Program Version 4.2.1 -  RELEASE  -
|  1> ! wB97X-D3 SP def2-SVP
|  2> %pal
|  3> nprocs 24
|  4> end
|  5>
|  6> * xyz 0 1
|  7> S 	 -115.03 	 16.4867 	 -111.354
|  8> C 	 -114.41 	 17.3745 	 -112.684
|  9> C 	 -114.881 	 16.9051 	 -113.874
| 10> C 	 -115.79 	 15.8287 	 -113.658
| 11> C 	 -116.034 	 15.553 	 -112.393
| 12> H 	 -116.318 	 15.2429 	 -114.348
| 13> C 	 -114.649 	 17.5491 	 -115.229
| 14> H 	 -115.489 	 18.2272 	 -115.42
| 15> H 	 -114.873 	 16.8036 	 -116.061
| 16> C 	 -113.238 	 18.0888 	 -115.484
| 17> H 	 -112.798 	 18.688 	 -114.728
| 18> H 	 -112.519 	 17.2694 	 -115.622
| 19> C 	 -113.317 	 18.9999 	 -116.778
| 20> H 	 -113.858 	 18.4844 	 -117.552
| 21> H 	 -113.763 	 19.9425 	 -116.58
| 22> H 	 -112.265 	 19.1044 	 -117.211
| 23> S 	 -118.355 	 15.2269 	 -111.006
| 24> C 	 -118.914 	 13.6032 	 -110.587
| 25> C 	 -118.086 	 12.6504 	 -111.087
| 26> C 	 -117.006 	 13.2353 	 -111.785
| 27> C 	 -116.98 	 14.5807 	 -111.767
| 28> H 	 -118.381 	 11.611 	 -111.011
| 29> C 	 -116.008 	 12.3207 	 -112.509
| 30> H 	 -115.782 	 11.2999 	 -111.994
| 31> H 	 -115.027 	 12.7922 	 -112.407
| 32> C 	 -116.367 	 11.8829 	 -113.941
| 33> H 	 -116.828 	 12.6433 	 -114.533
| 34> H 	 -117.077 	 11.0867 	 -114.02
| 35> C 	 -115.182 	 11.4083 	 -114.722
| 36> H 	 -115.42 	 10.9281 	 -115.726
| 37> H 	 -114.515 	 10.6684 	 -114.197
| 38> H 	 -114.695 	 12.2991 	 -115.102
| 39> H 	 -113.7 	 18.1779 	 -112.711
| 40> H 	 -119.667 	 13.3102 	 -109.825
| 41> *
| 42>
| 43>                          ****END OF INPUT****

CARTESIAN COORDINATES (ANGSTROEM)
---------------------------------
  S    -115.030000   16.486700  -111.354000
  C    -114.410000   17.374500  -112.684000
  C    -114.881000   16.905100  -113.874000
  C    -115.790000   15.828700  -113.658000
  C    -116.034000   15.553000  -112.393000
  H    -116.318000   15.242900  -114.348000
  C    -114.649000   17.549100  -115.229000
  H    -115.489000   18.227200  -115.420000
  H    -114.873000   16.803600  -116.061000
  C    -113.238000   18.088800  -115.484000
  H    -112.798000   18.688000  -114.728000
  H    -112.519000   17.269400  -115.622000
  C    -113.317000   18.999900  -116.778000
  H    -113.858000   18.484400  -117.552000
  H    -113.763000   19.942500  -116.580000
  H    -112.265000   19.104400  -117.211000
  S    -118.355000   15.226900  -111.006000
  C    -118.914000   13.603200  -110.587000
  C    -118.086000   12.650400  -111.087000
  C    -117.006000   13.235300  -111.785000
  C    -116.980000   14.580700  -111.767000
  H    -118.381000   11.611000  -111.011000
  C    -116.008000   12.320700  -112.509000
  H    -115.782000   11.299900  -111.994000
  H    -115.027000   12.792200  -112.407000
  C    -116.367000   11.882900  -113.941000
  H    -116.828000   12.643300  -114.533000
  H    -117.077000   11.086700  -114.020000
  C    -115.182000   11.408300  -114.722000
  H    -115.420000   10.928100  -115.726000
  H    -114.515000   10.668400  -114.197000
  H    -114.695000   12.299100  -115.102000
  H    -113.700000   18.177900  -112.711000
  H    -119.667000   13.310200  -109.825000

 Total Charge           Charge          ....    0
 Multiplicity           Mult            ....    1
 Number of Electrons    NEL             ....  134
 Basis Dimension        Dim             ....  322

ORBITAL ENERGIES
----------------

  NO   OCC          E(Eh)            E(eV)
   0   2.0000     -88.964566     -2420.8489
   1   2.0000     -88.961736     -2420.7719
   2   2.0000     -10.321323      -280.8575
   3   2.0000     -10.320231      -280.8278
   4   2.0000     -10.315425      -280.6970
   5   2.0000     -10.305827      -280.4358
   6   2.0000     -10.299424      -280.2616
   7   2.0000     -10.297809      -280.2176
   8   2.0000     -10.297701      -280.2147
   9   2.0000     -10.295881      -280.1652
  10   2.0000     -10.291410      -280.0435
  11   2.0000     -10.288194      -279.9560
  12   2.0000     -10.282628      -279.8045
  13   2.0000     -10.282154      -279.7916
  14   2.0000     -10.280447      -279.7452
  15   2.0000     -10.279377      -279.7161
  16   2.0000      -8.080153      -219.8721
  17   2.0000      -8.077865      -219.8099
  18   2.0000      -6.038645      -164.3199
  19   2.0000      -6.036280      -164.2555
  20   2.0000      -6.034540      -164.2082
  21   2.0000      -6.032176      -164.1438
  22   2.0000      -6.030859      -164.1080
  23   2.0000      -6.028628      -164.0473
  24   2.0000      -1.019266       -27.7356
  25   2.0000      -0.996935       -27.1280
  26   2.0000      -0.910743       -24.7826
  27   2.0000      -0.907714       -24.7002
  28   2.0000      -0.871834       -23.7238
  29   2.0000      -0.853837       -23.2341
  30   2.0000      -0.850185       -23.1347
  31   2.0000      -0.823356       -22.4047
  32   2.0000      -0.777600       -21.1596
  33   2.0000      -0.767310       -20.8796
  34   2.0000      -0.714352       -19.4385
  35   2.0000      -0.699436       -19.0326
  36   2.0000      -0.692113       -18.8334
  37   2.0000      -0.663414       -18.0524
  38   2.0000      -0.649661       -17.6782
  39   2.0000      -0.617338       -16.7986
  40   2.0000      -0.596600       -16.2343
  41   2.0000      -0.578651       -15.7459
  42   2.0000      -0.562940       -15.3184
  43   2.0000      -0.560002       -15.2384
  44   2.0000      -0.527109       -14.3434
  45   2.0000      -0.523653       -14.2493
  46   2.0000      -0.519726       -14.1425
  47   2.0000      -0.510124       -13.8812
  48   2.0000      -0.503565       -13.7027
  49   2.0000      -0.502227       -13.6663
  50   2.0000      -0.493120       -13.4185
  51   2.0000      -0.479944       -13.0599
  52   2.0000      -0.475511       -12.9393
  53   2.0000      -0.464375       -12.6363
  54   2.0000      -0.461036       -12.5454
  55   2.0000      -0.450392       -12.2558
  56   2.0000      -0.444040       -12.0829
  57   2.0000      -0.438300       -11.9268
  58   2.0000      -0.427064       -11.6210
  59   2.0000      -0.422917       -11.5082
  60   2.0000      -0.421444       -11.4681
  61   2.0000      -0.415153       -11.2969
  62   2.0000      -0.404566       -11.0088
  63   2.0000      -0.344311        -9.3692
  64   2.0000      -0.331300        -9.0151
  65   2.0000      -0.327121        -8.9014
  66   2.0000      -0.311228        -8.4690
  67   0.0000       0.046924         1.2769
  68   0.0000       0.070909         1.9295
  69   0.0000       0.118961         3.2371
  70   0.0000       0.125923         3.4265
  71   0.0000       0.131403         3.5757

MULLIKEN ATOMIC CHARGES
-----------------------
   0 S :    0.121881
   1 C :   -0.102833
   2 C :   -0.069653
   3 C :    0.066608
   4 C :   -0.165236
   5 H :   -0.026655
   6 C :    0.030481
   7 H :    0.046450
   8 H :    0.027150
   9 C :   -0.074702
  10 H :    0.027263
  11 H :    0.039470
  12 C :   -0.062610
  13 H :    0.023700
  14 H :    0.040724
  15 H :    0.038250
  16 S :    0.118991
  17 C :   -0.103361
  18 C :   -0.040315
  19 C :    0.006445
  20 C :   -0.172743
  21 H :    0.024472
  22 C :    0.023477
  23 H :    0.032284
  24 H :    0.033314
  25 C :   -0.014216
  26 H :    0.011827
  27 H :    0.016062
  28 C :   -0.094106
  29 H :    0.029243
  30 H :    0.044675
  31 H :    0.028837
  32 H :    0.027250
  33 H :    0.067574
Sum of atomic charges:    0.0000000

LOEWDIN ATOMIC CHARGES
----------------------
   0 S :    0.426559
   1 C :   -0.202829
   2 C :   -0.067565
   3 C :   -0.059288
   4 C :   -0.198198
   5 H :    0.023613
   6 C :   -0.039379
   7 H :    0.036087
   8 H :    0.037450
   9 C :   -0.036042
  10 H :    0.015373
  11 H :    0.029972
  12 C :   -0.061018
  13 H :    0.019124
  14 H :    0.020600
  15 H :    0.032926
  16 S :    0.422019
  17 C :   -0.186494
  18 C :   -0.069894
  19 C :   -0.063410
  20 C :   -0.216396
  21 H :    0.036306
  22 C :   -0.035832
  23 H :    0.040240
  24 H :    0.030906
  25 C :   -0.045009
  26 H :    0.018365
  27 H :    0.020000
  28 C :   -0.074543
  29 H :    0.030487
  30 H :    0.028469
  31 H :    0.023686
  32 H :    0.024284
  33 H :    0.039431

  Mayer bond orders larger than 0.100000
B(  0-S ,  1-C ) :   1.1391 B(  0-S ,  4-C ) :   1.1529 B(  1-C ,  2-C ) :   1.6399
B(  1-C , 32-H ) :   0.9690 B(  2-C ,  3-C ) :   1.2049 B(  2-C ,  6-C ) :   1.0062
B(  3-C ,  4-C ) :   1.6488 B(  3-C ,  5-H ) :   1.0111 B(  4-C , 20-C ) :   0.9479
B(  6-C ,  7-H ) :   0.9459 B(  6-C ,  8-H ) :   0.9392 B(  6-C ,  9-C ) :   1.0486
B(  9-C , 10-H ) :   0.9616 B(  9-C , 11-H ) :   0.9594 B(  9-C , 12-C ) :   1.0720
B( 12-C , 13-H ) :   0.9753 B( 12-C , 14-H ) :   0.9808 B( 12-C , 15-H ) :   0.9755
B( 16-S , 17-C ) :   1.1474 B( 16-S , 20-C ) :   1.1579 B( 17-C , 18-C ) :   1.6371
B( 17-C , 33-H ) :   0.9566 B( 18-C , 19-C ) :   1.2320 B( 18-C , 21-H ) :   0.9927
B( 19-C , 20-C ) :   1.6404 B( 19-C , 22-C ) :   1.0398 B( 22-C , 23-H ) :   0.9390
B( 22-C , 24-H ) :   0.9413 B( 22-C , 25-C ) :   1.0450 B( 25-C , 26-H ) :   0.9543
B( 25-C , 27-H ) :   0.9528 B( 25-C , 28-C ) :   1.0868 B( 28-C , 29-H ) :   0.9706
B( 28-C , 30-H ) :   0.9726 B( 28-C , 31-H ) :   0.9768

Dispersion correction           -0.013975526
FINAL SINGLE POINT ENERGY     -1339.865558682775

DIPOLE MOMENT
-------------
                                X             Y             Z
Electronic contribution:    -13.47726       4.73822      25.57552
Nuclear contribution   :     13.56948      -4.96276     -26.11992
                        -----------------------------------------
Total Dipole Moment    :      0.09222      -0.22454      -0.54441
                        -----------------------------------------
Magnitude (a.u.)       :      0.59607
Magnitude (Debye)      :      1.51509

Rotational constants in cm-1:     0.019951     0.007956     0.006321
Rotational constants in MHz :   598.118523   238.521111   189.488460

                             ****ORCA TERMINATED NORMALLY****
TOTAL RUN TIME: 0 days 0 hours 0 minutes 21 seconds 177 msec
