                         Program Version 4.2.1 -  RELEASE  -
|  1> ! wB97X-D3 SP def2-SVP
|  2> %pal
|  3> nprocs 24
|  4> end
|  5>
|  6> * xyz 0 1
|  7> S 	 -127.932 	 29.748 	 -20.4327
|  8> C 	 -129.209 	 31.037 	 -20.6969
|  9> C 	 -130.094 	 30.7189 	 -21.712
| 10> C 	 -129.596 	 29.5864 	 -22.4358
| 11> C 	 -128.623 	 28.8391 	 -21.788
| 12> H 	 -130.106 	 29.1992 	 -23.2474
| 13> C 	 -131.201 	 31.5906 	 -22.2256
| 14> H 	 -131.703 	 31.0605 	 -23.0317
| 15> H 	 -130.818 	 32.4818 	 -22.6682
| 16> C 	 -132.358 	 31.8721 	 -21.2366
| 17> H 	 -131.871 	 32.2581 	 -20.3323
| 18> H 	 -132.979 	 32.6922 	 -21.6467
| 19> C 	 -133.249 	 30.7535 	 -20.6919
| 20> H 	 -133.874 	 31.0831 	 -19.9161
| 21> H 	 -133.975 	 30.3313 	 -21.4465
| 22> H 	 -132.588 	 29.9868 	 -20.3586
| 23> S 	 -126.22 	 28.2371 	 -22.8623
| 24> C 	 -125.868 	 26.6754 	 -23.5189
| 25> C 	 -126.947 	 25.8492 	 -23.4578
| 26> C 	 -128.036 	 26.4289 	 -22.7899
| 27> C 	 -127.811 	 27.7644 	 -22.4558
| 28> H 	 -126.863 	 24.7655 	 -23.6331
| 29> C 	 -129.194 	 25.5629 	 -22.3623
| 30> H 	 -128.761 	 24.6169 	 -22.0261
| 31> H 	 -129.874 	 25.5281 	 -23.1317
| 32> C 	 -130.025 	 26.122 	 -21.2127
| 33> H 	 -130.499 	 27.0194 	 -21.4652
| 34> H 	 -129.218 	 26.2697 	 -20.4304
| 35> C 	 -131.065 	 25.098 	 -20.6853
| 36> H 	 -130.593 	 24.2695 	 -20.2422
| 37> H 	 -131.807 	 24.7692 	 -21.4332
| 38> H 	 -131.576 	 25.6402 	 -19.8118
| 39> H 	 -129.194 	 32.0235 	 -20.2451
| 40> H 	 -124.941 	 26.4603 	 -24.0525
| 41> *
| 42>
| 43>                          ****END OF INPUT****

CARTESIAN COORDINATES (ANGSTROEM)
---------------------------------
  S    -127.932000   29.748000  -20.432700
  C    -129.209000   31.037000  -20.696900
  C    -130.094000   30.718900  -21.712000
  C    -129.596000   29.586400  -22.435800
  C    -128.623000   28.839100  -21.788000
  H    -130.106000   29.199200  -23.247400
  C    -131.201000   31.590600  -22.225600
  H    -131.703000   31.060500  -23.031700
  H    -130.818000   32.481800  -22.668200
  C    -132.358000   31.872100  -21.236600
  H    -131.871000   32.258100  -20.332300
  H    -132.979000   32.692200  -21.646700
  C    -133.249000   30.753500  -20.691900
  H    -133.874000   31.083100  -19.916100
  H    -133.975000   30.331300  -21.446500
  H    -132.588000   29.986800  -20.358600
  S    -126.220000   28.237100  -22.862300
  C    -125.868000   26.675400  -23.518900
  C    -126.947000   25.849200  -23.457800
  C    -128.036000   26.428900  -22.789900
  C    -127.811000   27.764400  -22.455800
  H    -126.863000   24.765500  -23.633100
  C    -129.194000   25.562900  -22.362300
  H    -128.761000   24.616900  -22.026100
  H    -129.874000   25.528100  -23.131700
  C    -130.025000   26.122000  -21.212700
  H    -130.499000   27.019400  -21.465200
  H    -129.218000   26.269700  -20.430400
  C    -131.065000   25.098000  -20.685300
  H    -130.593000   24.269500  -20.242200
  H    -131.807000   24.769200  -21.433200
  H    -131.576000   25.640200  -19.811800
  H    -129.194000   32.023500  -20.245100
  H    -124.941000   26.460300  -24.052500

 Total Charge           Charge          ....    0
 Multiplicity           Mult            ....    1
 Number of Electrons    NEL             ....  134
 Basis Dimension        Dim             ....  322

ORBITAL ENERGIES
----------------

  NO   OCC          E(Eh)            E(eV)
   0   2.0000     -88.969785     -2420.9909
   1   2.0000     -88.962637     -2420.7964
   2   2.0000     -10.334187      -281.2075
   3   2.0000     -10.324291      -280.9383
   4   2.0000     -10.321053      -280.8501
   5   2.0000     -10.312268      -280.6111
   6   2.0000     -10.302643      -280.3492
   7   2.0000     -10.296741      -280.1886
   8   2.0000     -10.292808      -280.0815
   9   2.0000     -10.290244      -280.0118
  10   2.0000     -10.289409      -279.9891
  11   2.0000     -10.287764      -279.9443
  12   2.0000     -10.279624      -279.7228
  13   2.0000     -10.278099      -279.6813
  14   2.0000     -10.277360      -279.6612
  15   2.0000     -10.275283      -279.6047
  16   2.0000      -8.082729      -219.9422
  17   2.0000      -8.078548      -219.8285
  18   2.0000      -6.041416      -164.3953
  19   2.0000      -6.037540      -164.2898
  20   2.0000      -6.036834      -164.2706
  21   2.0000      -6.033334      -164.1754
  22   2.0000      -6.032797      -164.1608
  23   2.0000      -6.029552      -164.0725
  24   2.0000      -1.009277       -27.4638
  25   2.0000      -0.981307       -26.7027
  26   2.0000      -0.912235       -24.8232
  27   2.0000      -0.911040       -24.7907
  28   2.0000      -0.867177       -23.5971
  29   2.0000      -0.847717       -23.0675
  30   2.0000      -0.844471       -22.9792
  31   2.0000      -0.814144       -22.1540
  32   2.0000      -0.787068       -21.4172
  33   2.0000      -0.772328       -21.0161
  34   2.0000      -0.707814       -19.2606
  35   2.0000      -0.699782       -19.0420
  36   2.0000      -0.682470       -18.5709
  37   2.0000      -0.657929       -17.9031
  38   2.0000      -0.637869       -17.3573
  39   2.0000      -0.614061       -16.7094
  40   2.0000      -0.596872       -16.2417
  41   2.0000      -0.583576       -15.8799
  42   2.0000      -0.574947       -15.6451
  43   2.0000      -0.558428       -15.1956
  44   2.0000      -0.538344       -14.6491
  45   2.0000      -0.515286       -14.0216
  46   2.0000      -0.511184       -13.9100
  47   2.0000      -0.507721       -13.8158
  48   2.0000      -0.505023       -13.7424
  49   2.0000      -0.494556       -13.4576
  50   2.0000      -0.487513       -13.2659
  51   2.0000      -0.486636       -13.2420
  52   2.0000      -0.474876       -12.9220
  53   2.0000      -0.465486       -12.6665
  54   2.0000      -0.460866       -12.5408
  55   2.0000      -0.453488       -12.3400
  56   2.0000      -0.442057       -12.0290
  57   2.0000      -0.438482       -11.9317
  58   2.0000      -0.431487       -11.7414
  59   2.0000      -0.423385       -11.5209
  60   2.0000      -0.417982       -11.3739
  61   2.0000      -0.407387       -11.0856
  62   2.0000      -0.405588       -11.0366
  63   2.0000      -0.342515        -9.3203
  64   2.0000      -0.330855        -9.0030
  65   2.0000      -0.325662        -8.8617
  66   2.0000      -0.298333        -8.1181
  67   0.0000       0.031537         0.8582
  68   0.0000       0.063376         1.7245
  69   0.0000       0.102197         2.7809
  70   0.0000       0.119658         3.2561
  71   0.0000       0.128455         3.4954

MULLIKEN ATOMIC CHARGES
-----------------------
   0 S :    0.094013
   1 C :   -0.136418
   2 C :   -0.093076
   3 C :    0.073486
   4 C :   -0.140328
   5 H :   -0.009429
   6 C :    0.097117
   7 H :    0.011389
   8 H :    0.040144
   9 C :   -0.105879
  10 H :    0.020576
  11 H :    0.031639
  12 C :   -0.033788
  13 H :    0.029550
  14 H :    0.029586
  15 H :    0.037639
  16 S :    0.118974
  17 C :   -0.101630
  18 C :   -0.039344
  19 C :   -0.051607
  20 C :   -0.181363
  21 H :    0.028713
  22 C :    0.116992
  23 H :    0.027081
  24 H :    0.009387
  25 C :   -0.128797
  26 H :    0.033268
  27 H :    0.034529
  28 C :   -0.027137
  29 H :    0.018484
  30 H :    0.037985
  31 H :    0.041139
  32 H :    0.055660
  33 H :    0.061444
Sum of atomic charges:   -0.0000000

LOEWDIN ATOMIC CHARGES
----------------------
   0 S :    0.365603
   1 C :   -0.169144
   2 C :   -0.064556
   3 C :   -0.047486
   4 C :   -0.185320
   5 H :    0.017156
   6 C :   -0.029119
   7 H :    0.029069
   8 H :    0.034614
   9 C :   -0.043051
  10 H :    0.021511
  11 H :    0.025159
  12 C :   -0.061447
  13 H :    0.022667
  14 H :    0.027360
  15 H :    0.024917
  16 S :    0.435942
  17 C :   -0.191476
  18 C :   -0.079562
  19 C :   -0.061959
  20 C :   -0.216408
  21 H :    0.037597
  22 C :   -0.023792
  23 H :    0.033809
  24 H :    0.020267
  25 C :   -0.038701
  26 H :    0.013446
  27 H :    0.030654
  28 C :   -0.064441
  29 H :    0.014893
  30 H :    0.025538
  31 H :    0.037556
  32 H :    0.027984
  33 H :    0.030721

  Mayer bond orders larger than 0.100000
B(  0-S ,  1-C ) :   1.1255 B(  0-S ,  4-C ) :   1.1324 B(  1-C ,  2-C ) :   1.6165
B(  1-C , 32-H ) :   0.9625 B(  2-C ,  3-C ) :   1.2391 B(  2-C ,  6-C ) :   1.0186
B(  3-C ,  4-C ) :   1.6018 B(  3-C ,  5-H ) :   0.9858 B(  4-C , 20-C ) :   0.9881
B(  6-C ,  7-H ) :   0.9407 B(  6-C ,  8-H ) :   0.9387 B(  6-C ,  9-C ) :   1.0649
B(  9-C , 10-H ) :   0.9587 B(  9-C , 11-H ) :   0.9563 B(  9-C , 12-C ) :   1.0820
B( 12-C , 13-H ) :   0.9724 B( 12-C , 14-H ) :   0.9733 B( 12-C , 15-H ) :   0.9737
B( 16-S , 17-C ) :   1.1727 B( 16-S , 20-C ) :   1.1697 B( 17-C , 18-C ) :   1.5908
B( 17-C , 33-H ) :   0.9646 B( 18-C , 19-C ) :   1.2858 B( 18-C , 21-H ) :   0.9844
B( 19-C , 20-C ) :   1.5862 B( 19-C , 22-C ) :   1.0288 B( 22-C , 23-H ) :   0.9466
B( 22-C , 24-H ) :   0.9122 B( 22-C , 25-C ) :   1.0870 B( 25-C , 26-H ) :   0.9454
B( 25-C , 27-H ) :   0.9576 B( 25-C , 28-C ) :   1.0830 B( 28-C , 29-H ) :   0.9734
B( 28-C , 30-H ) :   0.9733 B( 28-C , 31-H ) :   0.9741

Dispersion correction           -0.014506699
FINAL SINGLE POINT ENERGY     -1339.857769845368

DIPOLE MOMENT
-------------
                                X             Y             Z
Electronic contribution:     27.54274       3.46252      -4.07801
Nuclear contribution   :    -27.98057      -3.47678       3.86058
                        -----------------------------------------
Total Dipole Moment    :     -0.43782      -0.01427      -0.21742
                        -----------------------------------------
Magnitude (a.u.)       :      0.48905
Magnitude (Debye)      :      1.24306

Rotational constants in cm-1:     0.019484     0.008982     0.007017
Rotational constants in MHz :   584.106420   269.281472   210.377251

                             ****ORCA TERMINATED NORMALLY****
TOTAL RUN TIME: 0 days 0 hours 0 minutes 22 seconds 109 msec
