                         Program Version 4.2.1 -  RELEASE  -
|  1> ! wB97X-D3 SP def2-SVP
|  2> %pal
|  3> nprocs 24
|  4> end
|  5>
|  6> * xyz 0 1
|  7> S 	 40.6917 	 -18.8029 	 -111.983
|  8> C 	 39.616 	 -18.2745 	 -113.338
|  9> C 	 38.305 	 -18.394 	 -112.959
| 10> C 	 38.1772 	 -18.7693 	 -111.539
| 11> C 	 39.4235 	 -19.0242 	 -110.9
| 12> H 	 37.2459 	 -18.9566 	 -110.987
| 13> C 	 37.1269 	 -18.2196 	 -113.981
| 14> H 	 37.4884 	 -17.7458 	 -114.913
| 15> H 	 36.5603 	 -17.469 	 -113.485
| 16> C 	 36.3294 	 -19.5446 	 -114.181
| 17> H 	 36.9643 	 -20.314 	 -114.648
| 18> H 	 35.8833 	 -19.9436 	 -113.267
| 19> C 	 35.109 	 -19.2544 	 -115.054
| 20> H 	 34.3622 	 -20.1121 	 -115.123
| 21> H 	 34.5226 	 -18.3949 	 -114.692
| 22> H 	 35.4892 	 -19.0425 	 -116.061
| 23> S 	 40.3218 	 -17.845 	 -108.516
| 24> C 	 40.1989 	 -18.728 	 -107.026
| 25> C 	 39.564 	 -19.9572 	 -107.236
| 26> C 	 39.3721 	 -20.2519 	 -108.616
| 27> C 	 39.6602 	 -19.1831 	 -109.438
| 28> H 	 39.3058 	 -20.6191 	 -106.392
| 29> C 	 38.7723 	 -21.5539 	 -109.117
| 30> H 	 37.759 	 -21.3756 	 -109.409
| 31> H 	 38.7386 	 -22.1686 	 -108.172
| 32> C 	 39.4784 	 -22.3912 	 -110.252
| 33> H 	 40.5716 	 -22.3944 	 -109.99
| 34> H 	 39.5148 	 -21.8779 	 -111.181
| 35> C 	 39.0093 	 -23.8583 	 -110.362
| 36> H 	 37.9913 	 -23.8837 	 -110.777
| 37> H 	 38.9248 	 -24.385 	 -109.455
| 38> H 	 39.6274 	 -24.4337 	 -111.072
| 39> H 	 39.8954 	 -18.2154 	 -114.403
| 40> H 	 40.2766 	 -18.3919 	 -106.042
| 41> *
| 42>
| 43>                          ****END OF INPUT****

CARTESIAN COORDINATES (ANGSTROEM)
---------------------------------
  S     40.691700  -18.802900  -111.983000
  C     39.616000  -18.274500  -113.338000
  C     38.305000  -18.394000  -112.959000
  C     38.177200  -18.769300  -111.539000
  C     39.423500  -19.024200  -110.900000
  H     37.245900  -18.956600  -110.987000
  C     37.126900  -18.219600  -113.981000
  H     37.488400  -17.745800  -114.913000
  H     36.560300  -17.469000  -113.485000
  C     36.329400  -19.544600  -114.181000
  H     36.964300  -20.314000  -114.648000
  H     35.883300  -19.943600  -113.267000
  C     35.109000  -19.254400  -115.054000
  H     34.362200  -20.112100  -115.123000
  H     34.522600  -18.394900  -114.692000
  H     35.489200  -19.042500  -116.061000
  S     40.321800  -17.845000  -108.516000
  C     40.198900  -18.728000  -107.026000
  C     39.564000  -19.957200  -107.236000
  C     39.372100  -20.251900  -108.616000
  C     39.660200  -19.183100  -109.438000
  H     39.305800  -20.619100  -106.392000
  C     38.772300  -21.553900  -109.117000
  H     37.759000  -21.375600  -109.409000
  H     38.738600  -22.168600  -108.172000
  C     39.478400  -22.391200  -110.252000
  H     40.571600  -22.394400  -109.990000
  H     39.514800  -21.877900  -111.181000
  C     39.009300  -23.858300  -110.362000
  H     37.991300  -23.883700  -110.777000
  H     38.924800  -24.385000  -109.455000
  H     39.627400  -24.433700  -111.072000
  H     39.895400  -18.215400  -114.403000
  H     40.276600  -18.391900  -106.042000

 Total Charge           Charge          ....    0
 Multiplicity           Mult            ....    1
 Number of Electrons    NEL             ....  134
 Basis Dimension        Dim             ....  322

ORBITAL ENERGIES
----------------

  NO   OCC          E(Eh)            E(eV)
   0   2.0000     -88.968273     -2420.9498
   1   2.0000     -88.964899     -2420.8580
   2   2.0000     -10.333669      -281.1934
   3   2.0000     -10.326745      -281.0050
   4   2.0000     -10.316852      -280.7358
   5   2.0000     -10.314378      -280.6685
   6   2.0000     -10.309462      -280.5347
   7   2.0000     -10.303919      -280.3839
   8   2.0000     -10.301886      -280.3286
   9   2.0000     -10.301737      -280.3245
  10   2.0000     -10.296752      -280.1889
  11   2.0000     -10.294264      -280.1212
  12   2.0000     -10.293675      -280.1051
  13   2.0000     -10.286257      -279.9033
  14   2.0000     -10.285377      -279.8793
  15   2.0000     -10.276408      -279.6353
  16   2.0000      -8.082814      -219.9446
  17   2.0000      -8.079858      -219.8641
  18   2.0000      -6.041364      -164.3939
  19   2.0000      -6.038392      -164.3130
  20   2.0000      -6.037253      -164.2820
  21   2.0000      -6.034162      -164.1979
  22   2.0000      -6.033618      -164.1831
  23   2.0000      -6.030714      -164.1041
  24   2.0000      -1.005058       -27.3490
  25   2.0000      -0.981957       -26.7204
  26   2.0000      -0.910837       -24.7851
  27   2.0000      -0.899277       -24.4706
  28   2.0000      -0.867958       -23.6183
  29   2.0000      -0.850331       -23.1387
  30   2.0000      -0.839359       -22.8401
  31   2.0000      -0.809802       -22.0358
  32   2.0000      -0.780750       -21.2453
  33   2.0000      -0.771761       -21.0007
  34   2.0000      -0.710524       -19.3343
  35   2.0000      -0.700060       -19.0496
  36   2.0000      -0.690475       -18.7888
  37   2.0000      -0.660186       -17.9646
  38   2.0000      -0.637132       -17.3373
  39   2.0000      -0.611610       -16.6427
  40   2.0000      -0.589663       -16.0455
  41   2.0000      -0.569200       -15.4887
  42   2.0000      -0.566659       -15.4196
  43   2.0000      -0.556355       -15.1392
  44   2.0000      -0.525067       -14.2878
  45   2.0000      -0.520035       -14.1509
  46   2.0000      -0.511384       -13.9155
  47   2.0000      -0.508176       -13.8282
  48   2.0000      -0.503745       -13.7076
  49   2.0000      -0.502607       -13.6766
  50   2.0000      -0.490960       -13.3597
  51   2.0000      -0.484038       -13.1714
  52   2.0000      -0.465522       -12.6675
  53   2.0000      -0.464616       -12.6428
  54   2.0000      -0.461622       -12.5614
  55   2.0000      -0.450095       -12.2477
  56   2.0000      -0.445685       -12.1277
  57   2.0000      -0.439158       -11.9501
  58   2.0000      -0.433523       -11.7968
  59   2.0000      -0.428807       -11.6684
  60   2.0000      -0.418221       -11.3804
  61   2.0000      -0.410191       -11.1619
  62   2.0000      -0.408894       -11.1266
  63   2.0000      -0.335122        -9.1191
  64   2.0000      -0.334352        -9.0982
  65   2.0000      -0.325357        -8.8534
  66   2.0000      -0.303945        -8.2708
  67   0.0000       0.038451         1.0463
  68   0.0000       0.056916         1.5488
  69   0.0000       0.112537         3.0623
  70   0.0000       0.122477         3.3328
  71   0.0000       0.130331         3.5465

MULLIKEN ATOMIC CHARGES
-----------------------
   0 S :    0.106849
   1 C :   -0.132238
   2 C :   -0.104660
   3 C :    0.038870
   4 C :   -0.185396
   5 H :    0.021106
   6 C :    0.065916
   7 H :    0.027654
   8 H :    0.028843
   9 C :   -0.066305
  10 H :    0.042984
  11 H :    0.034630
  12 C :   -0.078856
  13 H :    0.044526
  14 H :    0.034635
  15 H :    0.030174
  16 S :    0.129698
  17 C :   -0.058530
  18 C :   -0.071034
  19 C :   -0.037938
  20 C :   -0.158034
  21 H :    0.031862
  22 C :    0.071665
  23 H :    0.029577
  24 H :    0.016850
  25 C :   -0.077164
  26 H :    0.028179
  27 H :    0.035954
  28 C :   -0.034560
  29 H :    0.023908
  30 H :    0.021729
  31 H :    0.039512
  32 H :    0.061665
  33 H :    0.037930
Sum of atomic charges:    0.0000000

LOEWDIN ATOMIC CHARGES
----------------------
   0 S :    0.413438
   1 C :   -0.198115
   2 C :   -0.057447
   3 C :   -0.069965
   4 C :   -0.216452
   5 H :    0.031308
   6 C :   -0.022793
   7 H :    0.032830
   8 H :    0.028809
   9 C :   -0.039466
  10 H :    0.029292
  11 H :    0.026245
  12 C :   -0.073513
  13 H :    0.030966
  14 H :    0.025287
  15 H :    0.022519
  16 S :    0.422450
  17 C :   -0.186490
  18 C :   -0.072487
  19 C :   -0.060364
  20 C :   -0.205620
  21 H :    0.035780
  22 C :   -0.031864
  23 H :    0.026385
  24 H :    0.033323
  25 C :   -0.040741
  26 H :    0.028485
  27 H :    0.019825
  28 C :   -0.063554
  29 H :    0.025657
  30 H :    0.017638
  31 H :    0.031792
  32 H :    0.035507
  33 H :    0.021333

  Mayer bond orders larger than 0.100000
B(  0-S ,  1-C ) :   1.1169 B(  0-S ,  4-C ) :   1.1817 B(  1-C ,  2-C ) :   1.6399
B(  1-C , 32-H ) :   0.9614 B(  2-C ,  3-C ) :   1.2258 B(  2-C ,  6-C ) :   1.0060
B(  3-C ,  4-C ) :   1.5665 B(  3-C ,  5-H ) :   0.9882 B(  4-C , 20-C ) :   0.9972
B(  6-C ,  7-H ) :   0.9498 B(  6-C ,  8-H ) :   0.9385 B(  6-C ,  9-C ) :   1.0564
B(  9-C , 10-H ) :   0.9593 B(  9-C , 11-H ) :   0.9567 B(  9-C , 12-C ) :   1.0771
B( 12-C , 13-H ) :   0.9754 B( 12-C , 14-H ) :   0.9748 B( 12-C , 15-H ) :   0.9760
B( 16-S , 17-C ) :   1.1656 B( 16-S , 20-C ) :   1.1470 B( 17-C , 18-C ) :   1.6037
B( 17-C , 33-H ) :   0.9674 B( 18-C , 19-C ) :   1.2713 B( 18-C , 21-H ) :   0.9787
B( 19-C , 20-C ) :   1.5923 B( 19-C , 22-C ) :   1.0361 B( 22-C , 23-H ) :   0.9290
B( 22-C , 24-H ) :   0.9379 B( 22-C , 25-C ) :   1.0495 B( 25-C , 26-H ) :   0.9587
B( 25-C , 27-H ) :   0.9539 B( 25-C , 28-C ) :   1.0847 B( 28-C , 29-H ) :   0.9741
B( 28-C , 30-H ) :   0.9759 B( 28-C , 31-H ) :   0.9745

Dispersion correction           -0.014238940
FINAL SINGLE POINT ENERGY     -1339.875644412763

DIPOLE MOMENT
-------------
                                X             Y             Z
Electronic contribution:     19.35360      17.52665      13.62902
Nuclear contribution   :    -20.02504     -17.87867     -13.78356
                        -----------------------------------------
Total Dipole Moment    :     -0.67144      -0.35202      -0.15454
                        -----------------------------------------
Magnitude (a.u.)       :      0.77371
Magnitude (Debye)      :      1.96662

Rotational constants in cm-1:     0.017895     0.008341     0.006848
Rotational constants in MHz :   536.463913   250.061609   205.308030

                             ****ORCA TERMINATED NORMALLY****
TOTAL RUN TIME: 0 days 0 hours 0 minutes 21 seconds 249 msec
