                         Program Version 4.2.1 -  RELEASE  -
|  1> ! wB97X-D3 SP def2-SVP
|  2> %pal
|  3> nprocs 24
|  4> end
|  5>
|  6> * xyz 0 1
|  7> S 	 -101.486 	 13.2928 	 -122.41
|  8> C 	 -100.952 	 14.4598 	 -121.275
|  9> C 	 -99.664 	 14.9305 	 -121.53
| 10> C 	 -99.0677 	 14.2046 	 -122.641
| 11> C 	 -99.9005 	 13.2917 	 -123.216
| 12> H 	 -98.0426 	 14.368 	 -122.978
| 13> C 	 -98.8796 	 15.8883 	 -120.646
| 14> H 	 -99.6353 	 16.1391 	 -119.903
| 15> H 	 -98.8304 	 16.8134 	 -121.233
| 16> C 	 -97.5023 	 15.3938 	 -120.328
| 17> H 	 -97.1364 	 14.8921 	 -121.255
| 18> H 	 -96.8243 	 16.2734 	 -120.166
| 19> C 	 -97.4677 	 14.3841 	 -119.155
| 20> H 	 -96.4989 	 13.8966 	 -119.087
| 21> H 	 -97.6038 	 14.9592 	 -118.185
| 22> H 	 -98.3172 	 13.6964 	 -119.147
| 23> S 	 -99.0008 	 13.2297 	 -125.821
| 24> C 	 -99.0493 	 11.8085 	 -126.72
| 25> C 	 -99.5042 	 10.7373 	 -125.95
| 26> C 	 -99.7679 	 11.1075 	 -124.622
| 27> C 	 -99.7087 	 12.4852 	 -124.406
| 28> H 	 -99.4042 	 9.77804 	 -126.442
| 29> C 	 -100.229 	 10.1684 	 -123.5
| 30> H 	 -101.192 	 9.63473 	 -123.784
| 31> H 	 -100.432 	 10.9041 	 -122.725
| 32> C 	 -99.2552 	 9.17816 	 -122.94
| 33> H 	 -98.9743 	 8.63834 	 -123.83
| 34> H 	 -99.8445 	 8.49843 	 -122.28
| 35> C 	 -97.9957 	 9.67479 	 -122.244
| 36> H 	 -98.2925 	 9.84157 	 -121.289
| 37> H 	 -97.5671 	 10.6677 	 -122.509
| 38> H 	 -97.2472 	 8.91326 	 -122.124
| 39> H 	 -101.539 	 14.7993 	 -120.398
| 40> H 	 -98.7211 	 11.6801 	 -127.789
| 41> *
| 42>
| 43>                          ****END OF INPUT****

CARTESIAN COORDINATES (ANGSTROEM)
---------------------------------
  S    -101.486000   13.292800  -122.410000
  C    -100.952000   14.459800  -121.275000
  C    -99.664000   14.930500  -121.530000
  C    -99.067700   14.204600  -122.641000
  C    -99.900500   13.291700  -123.216000
  H    -98.042600   14.368000  -122.978000
  C    -98.879600   15.888300  -120.646000
  H    -99.635300   16.139100  -119.903000
  H    -98.830400   16.813400  -121.233000
  C    -97.502300   15.393800  -120.328000
  H    -97.136400   14.892100  -121.255000
  H    -96.824300   16.273400  -120.166000
  C    -97.467700   14.384100  -119.155000
  H    -96.498900   13.896600  -119.087000
  H    -97.603800   14.959200  -118.185000
  H    -98.317200   13.696400  -119.147000
  S    -99.000800   13.229700  -125.821000
  C    -99.049300   11.808500  -126.720000
  C    -99.504200   10.737300  -125.950000
  C    -99.767900   11.107500  -124.622000
  C    -99.708700   12.485200  -124.406000
  H    -99.404200    9.778040  -126.442000
  C    -100.229000   10.168400  -123.500000
  H    -101.192000    9.634730  -123.784000
  H    -100.432000   10.904100  -122.725000
  C    -99.255200    9.178160  -122.940000
  H    -98.974300    8.638340  -123.830000
  H    -99.844500    8.498430  -122.280000
  C    -97.995700    9.674790  -122.244000
  H    -98.292500    9.841570  -121.289000
  H    -97.567100   10.667700  -122.509000
  H    -97.247200    8.913260  -122.124000
  H    -101.539000   14.799300  -120.398000
  H    -98.721100   11.680100  -127.789000

 Total Charge           Charge          ....    0
 Multiplicity           Mult            ....    1
 Number of Electrons    NEL             ....  134
 Basis Dimension        Dim             ....  322

ORBITAL ENERGIES
----------------

  NO   OCC          E(Eh)            E(eV)
   0   2.0000     -88.966009     -2420.8882
   1   2.0000     -88.965982     -2420.8874
   2   2.0000     -10.330640      -281.1110
   3   2.0000     -10.323651      -280.9208
   4   2.0000     -10.317225      -280.7460
   5   2.0000     -10.314530      -280.6726
   6   2.0000     -10.302521      -280.3459
   7   2.0000     -10.301909      -280.3292
   8   2.0000     -10.296498      -280.1820
   9   2.0000     -10.294910      -280.1387
  10   2.0000     -10.291706      -280.0515
  11   2.0000     -10.290361      -280.0150
  12   2.0000     -10.285966      -279.8954
  13   2.0000     -10.282932      -279.8128
  14   2.0000     -10.280725      -279.7527
  15   2.0000     -10.263935      -279.2959
  16   2.0000      -8.081823      -219.9176
  17   2.0000      -8.080581      -219.8838
  18   2.0000      -6.040031      -164.3576
  19   2.0000      -6.039092      -164.3321
  20   2.0000      -6.036070      -164.2498
  21   2.0000      -6.035148      -164.2247
  22   2.0000      -6.032933      -164.1645
  23   2.0000      -6.031279      -164.1194
  24   2.0000      -1.011303       -27.5189
  25   2.0000      -0.988269       -26.8922
  26   2.0000      -0.916372       -24.9358
  27   2.0000      -0.909906       -24.7598
  28   2.0000      -0.871248       -23.7079
  29   2.0000      -0.852260       -23.1912
  30   2.0000      -0.842643       -22.9295
  31   2.0000      -0.815396       -22.1881
  32   2.0000      -0.787152       -21.4195
  33   2.0000      -0.773610       -21.0510
  34   2.0000      -0.713486       -19.4149
  35   2.0000      -0.698045       -18.9948
  36   2.0000      -0.684440       -18.6246
  37   2.0000      -0.655244       -17.8301
  38   2.0000      -0.634066       -17.2538
  39   2.0000      -0.624554       -16.9950
  40   2.0000      -0.592114       -16.1122
  41   2.0000      -0.569482       -15.4964
  42   2.0000      -0.556543       -15.1443
  43   2.0000      -0.548511       -14.9257
  44   2.0000      -0.541992       -14.7484
  45   2.0000      -0.529710       -14.4141
  46   2.0000      -0.521248       -14.1839
  47   2.0000      -0.519196       -14.1280
  48   2.0000      -0.500069       -13.6076
  49   2.0000      -0.496215       -13.5027
  50   2.0000      -0.488057       -13.2807
  51   2.0000      -0.480580       -13.0772
  52   2.0000      -0.472515       -12.8578
  53   2.0000      -0.458225       -12.4689
  54   2.0000      -0.455702       -12.4003
  55   2.0000      -0.450244       -12.2518
  56   2.0000      -0.442729       -12.0473
  57   2.0000      -0.441717       -12.0197
  58   2.0000      -0.439285       -11.9535
  59   2.0000      -0.427930       -11.6446
  60   2.0000      -0.415222       -11.2988
  61   2.0000      -0.408816       -11.1244
  62   2.0000      -0.399813       -10.8795
  63   2.0000      -0.348753        -9.4900
  64   2.0000      -0.333189        -9.0665
  65   2.0000      -0.327423        -8.9096
  66   2.0000      -0.291986        -7.9453
  67   0.0000       0.032008         0.8710
  68   0.0000       0.073389         1.9970
  69   0.0000       0.111824         3.0429
  70   0.0000       0.115382         3.1397
  71   0.0000       0.133398         3.6299

MULLIKEN ATOMIC CHARGES
-----------------------
   0 S :    0.118112
   1 C :   -0.131516
   2 C :   -0.148902
   3 C :    0.005474
   4 C :   -0.162909
   5 H :    0.023428
   6 C :    0.103964
   7 H :    0.008429
   8 H :    0.034023
   9 C :   -0.083897
  10 H :    0.034934
  11 H :    0.039265
  12 C :   -0.050006
  13 H :    0.041436
  14 H :    0.030036
  15 H :    0.041239
  16 S :    0.126406
  17 C :   -0.126599
  18 C :   -0.035529
  19 C :   -0.031393
  20 C :   -0.147095
  21 H :    0.020699
  22 C :    0.054347
  23 H :    0.048275
  24 H :    0.004339
  25 C :   -0.066111
  26 H :    0.015059
  27 H :    0.035184
  28 C :   -0.001285
  29 H :   -0.003956
  30 H :    0.040811
  31 H :    0.025752
  32 H :    0.059611
  33 H :    0.078375
Sum of atomic charges:    0.0000000

LOEWDIN ATOMIC CHARGES
----------------------
   0 S :    0.417772
   1 C :   -0.219028
   2 C :   -0.063581
   3 C :   -0.068824
   4 C :   -0.184017
   5 H :    0.031096
   6 C :   -0.037523
   7 H :    0.029129
   8 H :    0.037756
   9 C :   -0.046356
  10 H :    0.028918
  11 H :    0.030567
  12 C :   -0.066889
  13 H :    0.026141
  14 H :    0.030824
  15 H :    0.027430
  16 S :    0.444584
  17 C :   -0.213802
  18 C :   -0.082438
  19 C :   -0.053032
  20 C :   -0.212853
  21 H :    0.033294
  22 C :   -0.038453
  23 H :    0.041108
  24 H :    0.012830
  25 C :   -0.041869
  26 H :    0.016507
  27 H :    0.031635
  28 C :   -0.065668
  29 H :    0.014348
  30 H :    0.035143
  31 H :    0.027368
  32 H :    0.034162
  33 H :    0.043721

  Mayer bond orders larger than 0.100000
B(  0-S ,  1-C ) :   1.1427 B(  0-S ,  4-C ) :   1.1378 B(  1-C ,  2-C ) :   1.6263
B(  1-C , 32-H ) :   0.9565 B(  2-C ,  3-C ) :   1.2177 B(  2-C ,  6-C ) :   1.0199
B(  3-C ,  4-C ) :   1.6124 B(  3-C ,  5-H ) :   0.9841 B(  4-C , 20-C ) :   1.0256
B(  6-C ,  7-H ) :   0.9430 B(  6-C ,  8-H ) :   0.9234 B(  6-C ,  9-C ) :   1.0616
B(  9-C , 10-H ) :   0.9535 B(  9-C , 11-H ) :   0.9525 B(  9-C , 12-C ) :   1.0660
B( 12-C , 13-H ) :   0.9755 B( 12-C , 14-H ) :   0.9750 B( 12-C , 15-H ) :   0.9782
B( 16-S , 17-C ) :   1.2004 B( 16-S , 20-C ) :   1.1520 B( 17-C , 18-C ) :   1.5634
B( 17-C , 20-C ) :   0.1026 B( 17-C , 33-H ) :   0.9583 B( 18-C , 19-C ) :   1.2696
B( 18-C , 21-H ) :   0.9961 B( 19-C , 20-C ) :   1.5410 B( 19-C , 22-C ) :   1.0315
B( 22-C , 23-H ) :   0.9386 B( 22-C , 24-H ) :   0.9197 B( 22-C , 25-C ) :   1.0818
B( 25-C , 26-H ) :   0.9598 B( 25-C , 27-H ) :   0.9547 B( 25-C , 28-C ) :   1.0660
B( 28-C , 29-H ) :   0.9662 B( 28-C , 30-H ) :   0.9754 B( 28-C , 31-H ) :   0.9708

Dispersion correction           -0.014975451
FINAL SINGLE POINT ENERGY     -1339.874423533587

DIPOLE MOMENT
-------------
                                X             Y             Z
Electronic contribution:    -12.58256       5.98374     -18.75206
Nuclear contribution   :     12.93936      -6.04175      19.01983
                        -----------------------------------------
Total Dipole Moment    :      0.35680      -0.05802       0.26777
                        -----------------------------------------
Magnitude (a.u.)       :      0.44986
Magnitude (Debye)      :      1.14344

Rotational constants in cm-1:     0.019176     0.008941     0.008056
Rotational constants in MHz :   574.880470   268.039867   241.512542

                             ****ORCA TERMINATED NORMALLY****
TOTAL RUN TIME: 0 days 0 hours 0 minutes 21 seconds 28 msec
