                         Program Version 4.2.1 -  RELEASE  -
|  1> ! wB97X-D3 SP def2-SVP
|  2> %pal
|  3> nprocs 24
|  4> end
|  5>
|  6> * xyz 0 1
|  7> S 	 -50.6943 	 16.1004 	 -88.1881
|  8> C 	 -49.3571 	 17.3113 	 -88.3145
|  9> C 	 -48.3444 	 16.7587 	 -89.0877
| 10> C 	 -48.6214 	 15.4004 	 -89.5188
| 11> C 	 -49.8052 	 14.8638 	 -89.042
| 12> H 	 -48.0456 	 14.7596 	 -90.1558
| 13> C 	 -47.0228 	 17.4453 	 -89.2725
| 14> H 	 -46.8536 	 17.223 	 -90.2739
| 15> H 	 -46.2578 	 17.0897 	 -88.5885
| 16> C 	 -46.932 	 18.9572 	 -89.086
| 17> H 	 -46.931 	 19.1777 	 -87.9961
| 18> H 	 -45.9356 	 19.158 	 -89.4649
| 19> C 	 -47.8846 	 19.8351 	 -89.9679
| 20> H 	 -48.8438 	 19.3938 	 -89.8924
| 21> H 	 -47.9719 	 20.842 	 -89.6399
| 22> H 	 -47.5795 	 20.0352 	 -91.0249
| 23> S 	 -50.6372 	 12.4861 	 -88.0224
| 24> C 	 -51.1557 	 11.2773 	 -89.0693
| 25> C 	 -50.9839 	 11.5842 	 -90.4109
| 26> C 	 -50.4787 	 12.9196 	 -90.595
| 27> C 	 -50.4024 	 13.5906 	 -89.353
| 28> H 	 -51.3214 	 10.8715 	 -91.1047
| 29> C 	 -50.4061 	 13.5579 	 -91.9832
| 30> H 	 -49.4786 	 13.1942 	 -92.3588
| 31> H 	 -50.406 	 14.6933 	 -91.8412
| 32> C 	 -51.4289 	 13.2394 	 -93.0918
| 33> H 	 -52.2598 	 13.9531 	 -92.9228
| 34> H 	 -51.7887 	 12.2368 	 -92.8929
| 35> C 	 -50.8512 	 13.3762 	 -94.5497
| 36> H 	 -50.2114 	 12.4865 	 -94.8997
| 37> H 	 -50.2542 	 14.3241 	 -94.6368
| 38> H 	 -51.6993 	 13.4817 	 -95.3459
| 39> H 	 -49.3277 	 18.2444 	 -87.7622
| 40> H 	 -51.6464 	 10.3826 	 -88.7566
| 41> *
| 42>
| 43>                          ****END OF INPUT****

CARTESIAN COORDINATES (ANGSTROEM)
---------------------------------
  S    -50.694300   16.100400  -88.188100
  C    -49.357100   17.311300  -88.314500
  C    -48.344400   16.758700  -89.087700
  C    -48.621400   15.400400  -89.518800
  C    -49.805200   14.863800  -89.042000
  H    -48.045600   14.759600  -90.155800
  C    -47.022800   17.445300  -89.272500
  H    -46.853600   17.223000  -90.273900
  H    -46.257800   17.089700  -88.588500
  C    -46.932000   18.957200  -89.086000
  H    -46.931000   19.177700  -87.996100
  H    -45.935600   19.158000  -89.464900
  C    -47.884600   19.835100  -89.967900
  H    -48.843800   19.393800  -89.892400
  H    -47.971900   20.842000  -89.639900
  H    -47.579500   20.035200  -91.024900
  S    -50.637200   12.486100  -88.022400
  C    -51.155700   11.277300  -89.069300
  C    -50.983900   11.584200  -90.410900
  C    -50.478700   12.919600  -90.595000
  C    -50.402400   13.590600  -89.353000
  H    -51.321400   10.871500  -91.104700
  C    -50.406100   13.557900  -91.983200
  H    -49.478600   13.194200  -92.358800
  H    -50.406000   14.693300  -91.841200
  C    -51.428900   13.239400  -93.091800
  H    -52.259800   13.953100  -92.922800
  H    -51.788700   12.236800  -92.892900
  C    -50.851200   13.376200  -94.549700
  H    -50.211400   12.486500  -94.899700
  H    -50.254200   14.324100  -94.636800
  H    -51.699300   13.481700  -95.345900
  H    -49.327700   18.244400  -87.762200
  H    -51.646400   10.382600  -88.756600

 Total Charge           Charge          ....    0
 Multiplicity           Mult            ....    1
 Number of Electrons    NEL             ....  134
 Basis Dimension        Dim             ....  322

ORBITAL ENERGIES
----------------

  NO   OCC          E(Eh)            E(eV)
   0   2.0000     -88.966552     -2420.9029
   1   2.0000     -88.959444     -2420.7095
   2   2.0000     -10.326456      -280.9972
   3   2.0000     -10.325024      -280.9582
   4   2.0000     -10.317402      -280.7508
   5   2.0000     -10.312037      -280.6048
   6   2.0000     -10.311825      -280.5990
   7   2.0000     -10.303465      -280.3716
   8   2.0000     -10.301387      -280.3150
   9   2.0000     -10.294418      -280.1253
  10   2.0000     -10.294277      -280.1215
  11   2.0000     -10.293534      -280.1013
  12   2.0000     -10.291815      -280.0545
  13   2.0000     -10.290554      -280.0202
  14   2.0000     -10.284122      -279.8452
  15   2.0000     -10.273903      -279.5671
  16   2.0000      -8.082796      -219.9441
  17   2.0000      -8.073582      -219.6933
  18   2.0000      -6.041077      -164.3861
  19   2.0000      -6.037036      -164.2761
  20   2.0000      -6.033752      -164.1867
  21   2.0000      -6.032237      -164.1455
  22   2.0000      -6.028044      -164.0314
  23   2.0000      -6.024343      -163.9307
  24   2.0000      -1.008501       -27.4427
  25   2.0000      -0.981010       -26.6946
  26   2.0000      -0.914735       -24.8912
  27   2.0000      -0.906408       -24.6646
  28   2.0000      -0.867050       -23.5936
  29   2.0000      -0.849166       -23.1070
  30   2.0000      -0.839667       -22.8485
  31   2.0000      -0.810776       -22.0623
  32   2.0000      -0.786942       -21.4138
  33   2.0000      -0.771955       -21.0060
  34   2.0000      -0.707885       -19.2625
  35   2.0000      -0.705616       -19.2008
  36   2.0000      -0.694205       -18.8903
  37   2.0000      -0.657327       -17.8868
  38   2.0000      -0.638010       -17.3611
  39   2.0000      -0.608461       -16.5571
  40   2.0000      -0.594149       -16.1676
  41   2.0000      -0.574649       -15.6370
  42   2.0000      -0.566431       -15.4134
  43   2.0000      -0.564422       -15.3587
  44   2.0000      -0.538534       -14.6542
  45   2.0000      -0.520000       -14.1499
  46   2.0000      -0.518124       -14.0989
  47   2.0000      -0.510009       -13.8780
  48   2.0000      -0.507871       -13.8199
  49   2.0000      -0.495701       -13.4887
  50   2.0000      -0.492376       -13.3982
  51   2.0000      -0.481124       -13.0921
  52   2.0000      -0.467847       -12.7308
  53   2.0000      -0.462944       -12.5973
  54   2.0000      -0.457620       -12.4525
  55   2.0000      -0.452929       -12.3248
  56   2.0000      -0.441468       -12.0130
  57   2.0000      -0.431111       -11.7311
  58   2.0000      -0.428197       -11.6518
  59   2.0000      -0.426164       -11.5965
  60   2.0000      -0.424662       -11.5557
  61   2.0000      -0.416103       -11.3227
  62   2.0000      -0.402807       -10.9609
  63   2.0000      -0.339631        -9.2418
  64   2.0000      -0.331514        -9.0209
  65   2.0000      -0.323923        -8.8144
  66   2.0000      -0.298283        -8.1167
  67   0.0000       0.028979         0.7885
  68   0.0000       0.071509         1.9459
  69   0.0000       0.117683         3.2023
  70   0.0000       0.122358         3.3295
  71   0.0000       0.125218         3.4074

MULLIKEN ATOMIC CHARGES
-----------------------
   0 S :    0.087749
   1 C :   -0.128397
   2 C :   -0.111382
   3 C :    0.039499
   4 C :   -0.151952
   5 H :    0.001701
   6 C :    0.109803
   7 H :    0.008895
   8 H :    0.050898
   9 C :   -0.112180
  10 H :    0.039126
  11 H :    0.027344
  12 C :   -0.041866
  13 H :    0.029277
  14 H :    0.020243
  15 H :    0.037275
  16 S :    0.132087
  17 C :   -0.079097
  18 C :   -0.047736
  19 C :   -0.004179
  20 C :   -0.176870
  21 H :    0.005888
  22 C :    0.034905
  23 H :    0.021626
  24 H :    0.056637
  25 C :   -0.049631
  26 H :    0.043119
  27 H :    0.023906
  28 C :   -0.132264
  29 H :    0.055625
  30 H :    0.049220
  31 H :    0.052301
  32 H :    0.060828
  33 H :    0.047602
Sum of atomic charges:    0.0000000

LOEWDIN ATOMIC CHARGES
----------------------
   0 S :    0.377946
   1 C :   -0.185695
   2 C :   -0.061872
   3 C :   -0.061724
   4 C :   -0.198427
   5 H :    0.027817
   6 C :   -0.029070
   7 H :    0.023838
   8 H :    0.041161
   9 C :   -0.043533
  10 H :    0.026180
  11 H :    0.028403
  12 C :   -0.071314
  13 H :    0.018208
  14 H :    0.022726
  15 H :    0.033504
  16 S :    0.447160
  17 C :   -0.196895
  18 C :   -0.072513
  19 C :   -0.042604
  20 C :   -0.216588
  21 H :    0.023390
  22 C :   -0.039587
  23 H :    0.026942
  24 H :    0.042256
  25 C :   -0.042164
  26 H :    0.031116
  27 H :    0.019076
  28 C :   -0.084498
  29 H :    0.034266
  30 H :    0.029567
  31 H :    0.037543
  32 H :    0.030843
  33 H :    0.024542

  Mayer bond orders larger than 0.100000
B(  0-S ,  1-C ) :   1.1187 B(  0-S ,  4-C ) :   1.1482 B(  1-C ,  2-C ) :   1.6117
B(  1-C , 32-H ) :   0.9660 B(  2-C ,  3-C ) :   1.2199 B(  2-C ,  6-C ) :   1.0068
B(  3-C ,  4-C ) :   1.5934 B(  3-C ,  5-H ) :   1.0035 B(  4-C , 20-C ) :   1.0137
B(  6-C ,  7-H ) :   0.9301 B(  6-C ,  8-H ) :   0.9378 B(  6-C ,  9-C ) :   1.0934
B(  9-C , 10-H ) :   0.9532 B(  9-C , 11-H ) :   0.9551 B(  9-C , 12-C ) :   1.0656
B( 12-C , 13-H ) :   0.9781 B( 12-C , 14-H ) :   0.9731 B( 12-C , 15-H ) :   0.9750
B( 16-S , 17-C ) :   1.1883 B( 16-S , 20-C ) :   1.1591 B( 17-C , 18-C ) :   1.5950
B( 17-C , 33-H ) :   0.9674 B( 18-C , 19-C ) :   1.2346 B( 18-C , 21-H ) :   0.9979
B( 19-C , 20-C ) :   1.5701 B( 19-C , 22-C ) :   1.0305 B( 22-C , 23-H ) :   0.9266
B( 22-C , 24-H ) :   0.9452 B( 22-C , 25-C ) :   1.0603 B( 25-C , 26-H ) :   0.9591
B( 25-C , 27-H ) :   0.9560 B( 25-C , 28-C ) :   1.0661 B( 28-C , 29-H ) :   0.9733
B( 28-C , 30-H ) :   0.9764 B( 28-C , 31-H ) :   0.9752

Dispersion correction           -0.013753460
FINAL SINGLE POINT ENERGY     -1339.860520214919

DIPOLE MOMENT
-------------
                                X             Y             Z
Electronic contribution:     -8.94426     -13.06543      22.08086
Nuclear contribution   :      9.28040      13.04306     -22.60056
                        -----------------------------------------
Total Dipole Moment    :      0.33614      -0.02237      -0.51970
                        -----------------------------------------
Magnitude (a.u.)       :      0.61934
Magnitude (Debye)      :      1.57423

Rotational constants in cm-1:     0.018704     0.007886     0.006129
Rotational constants in MHz :   560.740621   236.417565   183.735325

                             ****ORCA TERMINATED NORMALLY****
TOTAL RUN TIME: 0 days 0 hours 0 minutes 21 seconds 51 msec
