                         Program Version 4.2.1 -  RELEASE  -
|  1> ! wB97X-D3 SP def2-SVP
|  2> %pal
|  3> nprocs 24
|  4> end
|  5>
|  6> * xyz 0 1
|  7> S 	 4.51206 	 -23.5004 	 -113.616
|  8> C 	 4.2357 	 -22.4108 	 -112.324
|  9> C 	 3.06555 	 -21.6901 	 -112.562
| 10> C 	 2.5006 	 -21.881 	 -113.867
| 11> C 	 3.14999 	 -22.8573 	 -114.533
| 12> H 	 1.65175 	 -21.3941 	 -114.247
| 13> C 	 2.50712 	 -20.6347 	 -111.578
| 14> H 	 2.05545 	 -19.8001 	 -112.068
| 15> H 	 3.41739 	 -20.2118 	 -111.063
| 16> C 	 1.6168 	 -21.1653 	 -110.524
| 17> H 	 2.22882 	 -21.4002 	 -109.632
| 18> H 	 0.829462 	 -20.3021 	 -110.364
| 19> C 	 0.80942 	 -22.4276 	 -110.871
| 20> H 	 0.167879 	 -22.5725 	 -110.042
| 21> H 	 0.313131 	 -22.3908 	 -111.873
| 22> H 	 1.42141 	 -23.3117 	 -110.981
| 23> S 	 1.338 	 -24.0722 	 -116.304
| 24> C 	 1.96646 	 -24.6397 	 -117.822
| 25> C 	 3.18532 	 -24.0381 	 -118.073
| 26> C 	 3.77515 	 -23.2671 	 -116.962
| 27> C 	 2.89443 	 -23.3088 	 -115.889
| 28> H 	 3.64589 	 -24.1645 	 -119.074
| 29> C 	 5.13114 	 -22.6097 	 -116.971
| 30> H 	 5.42881 	 -22.3683 	 -115.926
| 31> H 	 5.01549 	 -21.6762 	 -117.571
| 32> C 	 6.2638 	 -23.4277 	 -117.736
| 33> H 	 7.15639 	 -22.8377 	 -117.578
| 34> H 	 6.12364 	 -23.5018 	 -118.871
| 35> C 	 6.40913 	 -24.8899 	 -117.255
| 36> H 	 6.92092 	 -24.9626 	 -116.241
| 37> H 	 7.0159 	 -25.4621 	 -117.922
| 38> H 	 5.43479 	 -25.3491 	 -117.151
| 39> H 	 4.76163 	 -22.4827 	 -111.386
| 40> H 	 1.53674 	 -25.3821 	 -118.472
| 41> *
| 42>
| 43>                          ****END OF INPUT****

CARTESIAN COORDINATES (ANGSTROEM)
---------------------------------
  S      4.512060  -23.500400  -113.616000
  C      4.235700  -22.410800  -112.324000
  C      3.065550  -21.690100  -112.562000
  C      2.500600  -21.881000  -113.867000
  C      3.149990  -22.857300  -114.533000
  H      1.651750  -21.394100  -114.247000
  C      2.507120  -20.634700  -111.578000
  H      2.055450  -19.800100  -112.068000
  H      3.417390  -20.211800  -111.063000
  C      1.616800  -21.165300  -110.524000
  H      2.228820  -21.400200  -109.632000
  H      0.829462  -20.302100  -110.364000
  C      0.809420  -22.427600  -110.871000
  H      0.167879  -22.572500  -110.042000
  H      0.313131  -22.390800  -111.873000
  H      1.421410  -23.311700  -110.981000
  S      1.338000  -24.072200  -116.304000
  C      1.966460  -24.639700  -117.822000
  C      3.185320  -24.038100  -118.073000
  C      3.775150  -23.267100  -116.962000
  C      2.894430  -23.308800  -115.889000
  H      3.645890  -24.164500  -119.074000
  C      5.131140  -22.609700  -116.971000
  H      5.428810  -22.368300  -115.926000
  H      5.015490  -21.676200  -117.571000
  C      6.263800  -23.427700  -117.736000
  H      7.156390  -22.837700  -117.578000
  H      6.123640  -23.501800  -118.871000
  C      6.409130  -24.889900  -117.255000
  H      6.920920  -24.962600  -116.241000
  H      7.015900  -25.462100  -117.922000
  H      5.434790  -25.349100  -117.151000
  H      4.761630  -22.482700  -111.386000
  H      1.536740  -25.382100  -118.472000

 Total Charge           Charge          ....    0
 Multiplicity           Mult            ....    1
 Number of Electrons    NEL             ....  134
 Basis Dimension        Dim             ....  322

ORBITAL ENERGIES
----------------

  NO   OCC          E(Eh)            E(eV)
   0   2.0000     -88.966471     -2420.9008
   1   2.0000     -88.964335     -2420.8426
   2   2.0000     -10.325460      -280.9700
   3   2.0000     -10.325017      -280.9580
   4   2.0000     -10.318523      -280.7813
   5   2.0000     -10.312583      -280.6197
   6   2.0000     -10.307969      -280.4941
   7   2.0000     -10.302579      -280.3474
   8   2.0000     -10.299671      -280.2683
   9   2.0000     -10.299227      -280.2562
  10   2.0000     -10.294841      -280.1369
  11   2.0000     -10.289700      -279.9970
  12   2.0000     -10.288800      -279.9725
  13   2.0000     -10.285868      -279.8927
  14   2.0000     -10.273650      -279.5602
  15   2.0000     -10.270473      -279.4738
  16   2.0000      -8.081404      -219.9062
  17   2.0000      -8.078907      -219.8382
  18   2.0000      -6.039904      -164.3542
  19   2.0000      -6.037516      -164.2892
  20   2.0000      -6.035776      -164.2418
  21   2.0000      -6.033549      -164.1812
  22   2.0000      -6.032252      -164.1459
  23   2.0000      -6.029463      -164.0700
  24   2.0000      -1.007798       -27.4236
  25   2.0000      -0.982563       -26.7369
  26   2.0000      -0.912318       -24.8254
  27   2.0000      -0.900350       -24.4998
  28   2.0000      -0.871176       -23.7059
  29   2.0000      -0.847970       -23.0744
  30   2.0000      -0.838294       -22.8111
  31   2.0000      -0.812799       -22.1174
  32   2.0000      -0.784691       -21.3525
  33   2.0000      -0.772300       -21.0153
  34   2.0000      -0.703132       -19.1332
  35   2.0000      -0.692535       -18.8448
  36   2.0000      -0.687252       -18.7011
  37   2.0000      -0.653942       -17.7947
  38   2.0000      -0.645085       -17.5537
  39   2.0000      -0.608031       -16.5454
  40   2.0000      -0.591277       -16.0895
  41   2.0000      -0.575227       -15.6527
  42   2.0000      -0.553638       -15.0653
  43   2.0000      -0.550038       -14.9673
  44   2.0000      -0.543234       -14.7822
  45   2.0000      -0.535809       -14.5801
  46   2.0000      -0.519888       -14.1469
  47   2.0000      -0.512159       -13.9366
  48   2.0000      -0.500993       -13.6327
  49   2.0000      -0.494453       -13.4548
  50   2.0000      -0.491667       -13.3790
  51   2.0000      -0.476865       -12.9762
  52   2.0000      -0.470438       -12.8013
  53   2.0000      -0.463490       -12.6122
  54   2.0000      -0.455201       -12.3866
  55   2.0000      -0.444050       -12.0832
  56   2.0000      -0.440508       -11.9868
  57   2.0000      -0.439451       -11.9581
  58   2.0000      -0.430030       -11.7017
  59   2.0000      -0.420744       -11.4490
  60   2.0000      -0.414907       -11.2902
  61   2.0000      -0.407409       -11.0862
  62   2.0000      -0.402971       -10.9654
  63   2.0000      -0.349214        -9.5026
  64   2.0000      -0.328444        -8.9374
  65   2.0000      -0.324826        -8.8390
  66   2.0000      -0.295453        -8.0397
  67   0.0000       0.036428         0.9913
  68   0.0000       0.061307         1.6683
  69   0.0000       0.104954         2.8559
  70   0.0000       0.117069         3.1856
  71   0.0000       0.127198         3.4612

MULLIKEN ATOMIC CHARGES
-----------------------
   0 S :    0.113790
   1 C :   -0.119239
   2 C :   -0.122851
   3 C :    0.056796
   4 C :   -0.161986
   5 H :   -0.002525
   6 C :    0.087811
   7 H :    0.017250
   8 H :    0.029864
   9 C :   -0.126086
  10 H :    0.035319
  11 H :    0.042424
  12 C :   -0.021764
  13 H :    0.033660
  14 H :    0.028854
  15 H :    0.028977
  16 S :    0.107559
  17 C :   -0.089195
  18 C :   -0.050594
  19 C :   -0.047249
  20 C :   -0.169342
  21 H :    0.030435
  22 C :    0.075670
  23 H :    0.043634
  24 H :    0.050262
  25 C :   -0.110890
  26 H :    0.034746
  27 H :    0.040168
  28 C :   -0.057851
  29 H :    0.035929
  30 H :    0.027708
  31 H :    0.045504
  32 H :    0.052960
  33 H :    0.060251
Sum of atomic charges:   -0.0000000

LOEWDIN ATOMIC CHARGES
----------------------
   0 S :    0.424027
   1 C :   -0.213486
   2 C :   -0.055445
   3 C :   -0.057241
   4 C :   -0.182505
   5 H :    0.026765
   6 C :   -0.041851
   7 H :    0.024114
   8 H :    0.038425
   9 C :   -0.052206
  10 H :    0.026664
  11 H :    0.037592
  12 C :   -0.069292
  13 H :    0.022161
  14 H :    0.029047
  15 H :    0.024338
  16 S :    0.388003
  17 C :   -0.187830
  18 C :   -0.074394
  19 C :   -0.053028
  20 C :   -0.195895
  21 H :    0.033166
  22 C :   -0.036456
  23 H :    0.027960
  24 H :    0.044277
  25 C :   -0.045265
  26 H :    0.023683
  27 H :    0.028921
  28 C :   -0.072171
  29 H :    0.031233
  30 H :    0.020137
  31 H :    0.025274
  32 H :    0.028229
  33 H :    0.033051

  Mayer bond orders larger than 0.100000
B(  0-S ,  1-C ) :   1.1388 B(  0-S ,  4-C ) :   1.1511 B(  1-C ,  2-C ) :   1.6060
B(  1-C , 32-H ) :   0.9701 B(  2-C ,  3-C ) :   1.2273 B(  2-C ,  6-C ) :   1.0187
B(  3-C ,  4-C ) :   1.5859 B(  3-C ,  5-H ) :   1.0057 B(  4-C , 20-C ) :   1.0229
B(  6-C ,  7-H ) :   0.9451 B(  6-C ,  8-H ) :   0.9475 B(  6-C ,  9-C ) :   1.0609
B(  9-C , 10-H ) :   0.9529 B(  9-C , 11-H ) :   0.9591 B(  9-C , 12-C ) :   1.1039
B( 12-C , 13-H ) :   0.9744 B( 12-C , 14-H ) :   0.9715 B( 12-C , 15-H ) :   0.9599
B( 16-S , 17-C ) :   1.1381 B( 16-S , 20-C ) :   1.1248 B( 17-C , 18-C ) :   1.6411
B( 17-C , 33-H ) :   0.9693 B( 18-C , 19-C ) :   1.1931 B( 18-C , 21-H ) :   0.9799
B( 19-C , 20-C ) :   1.6033 B( 19-C , 22-C ) :   1.0515 B( 22-C , 23-H ) :   0.9276
B( 22-C , 24-H ) :   0.9258 B( 22-C , 25-C ) :   1.0616 B( 25-C , 26-H ) :   0.9584
B( 25-C , 27-H ) :   0.9553 B( 25-C , 28-C ) :   1.0712 B( 28-C , 29-H ) :   0.9744
B( 28-C , 30-H ) :   0.9764 B( 28-C , 31-H ) :   0.9721

Dispersion correction           -0.015566243
FINAL SINGLE POINT ENERGY     -1339.875345827440

DIPOLE MOMENT
-------------
                                X             Y             Z
Electronic contribution:     -5.38663      -4.86849      -5.72824
Nuclear contribution   :      5.56326       5.06793       5.67929
                        -----------------------------------------
Total Dipole Moment    :      0.17663       0.19945      -0.04895
                        -----------------------------------------
Magnitude (a.u.)       :      0.27087
Magnitude (Debye)      :      0.68851

Rotational constants in cm-1:     0.024205     0.008361     0.006858
Rotational constants in MHz :   725.651153   250.668782   205.591787

                             ****ORCA TERMINATED NORMALLY****
TOTAL RUN TIME: 0 days 0 hours 0 minutes 22 seconds 21 msec
