                         Program Version 4.2.1 -  RELEASE  -
|  1> ! wB97X-D3 SP def2-SVP
|  2> %pal
|  3> nprocs 24
|  4> end
|  5>
|  6> * xyz 0 1
|  7> S 	 -73.7917 	 0.405717 	 14.9381
|  8> C 	 -72.4116 	 1.34712 	 15.4943
|  9> C 	 -72.6194 	 1.83948 	 16.7549
| 10> C 	 -73.7304 	 1.19541 	 17.3868
| 11> C 	 -74.3875 	 0.230047 	 16.6276
| 12> H 	 -74.0713 	 1.35233 	 18.3991
| 13> C 	 -71.8777 	 2.99501 	 17.4285
| 14> H 	 -70.9404 	 3.07069 	 16.8609
| 15> H 	 -71.4843 	 2.63059 	 18.3404
| 16> C 	 -72.5189 	 4.44682 	 17.5426
| 17> H 	 -71.8098 	 5.20527 	 17.8483
| 18> H 	 -72.8907 	 4.74903 	 16.5026
| 19> C 	 -73.7288 	 4.57195 	 18.497
| 20> H 	 -74.1773 	 5.57464 	 18.3966
| 21> H 	 -74.5607 	 3.89344 	 18.2134
| 22> H 	 -73.4855 	 4.28203 	 19.5209
| 23> S 	 -76.6814 	 -0.956717 	 15.8212
| 24> C 	 -77.6123 	 -1.89426 	 16.9157
| 25> C 	 -76.9653 	 -2.13291 	 18.1412
| 26> C 	 -75.7046 	 -1.34536 	 18.1985
| 27> C 	 -75.4047 	 -0.70817 	 17.0217
| 28> H 	 -77.4295 	 -2.63721 	 18.9827
| 29> C 	 -74.8737 	 -1.25935 	 19.4425
| 30> H 	 -73.9098 	 -0.855636 	 19.325
| 31> H 	 -74.9325 	 -2.29943 	 19.854
| 32> C 	 -75.4071 	 -0.42338 	 20.591
| 33> H 	 -76.3852 	 -0.678988 	 20.9906
| 34> H 	 -75.4929 	 0.618207 	 20.2392
| 35> C 	 -74.4785 	 -0.441591 	 21.7544
| 36> H 	 -73.5791 	 0.00141185 	 21.4286
| 37> H 	 -74.3205 	 -1.43109 	 22.1546
| 38> H 	 -74.8398 	 0.208038 	 22.5382
| 39> H 	 -71.8025 	 1.88553 	 14.7028
| 40> H 	 -78.5955 	 -2.21379 	 16.7031
| 41> *
| 42>
| 43>                          ****END OF INPUT****

CARTESIAN COORDINATES (ANGSTROEM)
---------------------------------
  S    -73.791700    0.405717   14.938100
  C    -72.411600    1.347120   15.494300
  C    -72.619400    1.839480   16.754900
  C    -73.730400    1.195410   17.386800
  C    -74.387500    0.230047   16.627600
  H    -74.071300    1.352330   18.399100
  C    -71.877700    2.995010   17.428500
  H    -70.940400    3.070690   16.860900
  H    -71.484300    2.630590   18.340400
  C    -72.518900    4.446820   17.542600
  H    -71.809800    5.205270   17.848300
  H    -72.890700    4.749030   16.502600
  C    -73.728800    4.571950   18.497000
  H    -74.177300    5.574640   18.396600
  H    -74.560700    3.893440   18.213400
  H    -73.485500    4.282030   19.520900
  S    -76.681400   -0.956717   15.821200
  C    -77.612300   -1.894260   16.915700
  C    -76.965300   -2.132910   18.141200
  C    -75.704600   -1.345360   18.198500
  C    -75.404700   -0.708170   17.021700
  H    -77.429500   -2.637210   18.982700
  C    -74.873700   -1.259350   19.442500
  H    -73.909800   -0.855636   19.325000
  H    -74.932500   -2.299430   19.854000
  C    -75.407100   -0.423380   20.591000
  H    -76.385200   -0.678988   20.990600
  H    -75.492900    0.618207   20.239200
  C    -74.478500   -0.441591   21.754400
  H    -73.579100    0.001412   21.428600
  H    -74.320500   -1.431090   22.154600
  H    -74.839800    0.208038   22.538200
  H    -71.802500    1.885530   14.702800
  H    -78.595500   -2.213790   16.703100

 Total Charge           Charge          ....    0
 Multiplicity           Mult            ....    1
 Number of Electrons    NEL             ....  134
 Basis Dimension        Dim             ....  322

ORBITAL ENERGIES
----------------

  NO   OCC          E(Eh)            E(eV)
   0   2.0000     -88.965136     -2420.8644
   1   2.0000     -88.963205     -2420.8119
   2   2.0000     -10.335307      -281.2380
   3   2.0000     -10.326996      -281.0119
   4   2.0000     -10.322237      -280.8823
   5   2.0000     -10.318299      -280.7752
   6   2.0000     -10.310882      -280.5734
   7   2.0000     -10.305434      -280.4251
   8   2.0000     -10.305279      -280.4209
   9   2.0000     -10.301162      -280.3089
  10   2.0000     -10.296240      -280.1749
  11   2.0000     -10.294817      -280.1362
  12   2.0000     -10.290414      -280.0164
  13   2.0000     -10.283156      -279.8189
  14   2.0000     -10.282109      -279.7904
  15   2.0000     -10.270757      -279.4815
  16   2.0000      -8.080652      -219.8857
  17   2.0000      -8.077367      -219.7963
  18   2.0000      -6.039169      -164.3342
  19   2.0000      -6.036064      -164.2496
  20   2.0000      -6.035087      -164.2231
  21   2.0000      -6.032264      -164.1462
  22   2.0000      -6.031325      -164.1207
  23   2.0000      -6.027650      -164.0207
  24   2.0000      -1.005849       -27.3705
  25   2.0000      -0.981946       -26.7201
  26   2.0000      -0.923583       -25.1320
  27   2.0000      -0.901803       -24.5393
  28   2.0000      -0.871983       -23.7279
  29   2.0000      -0.858698       -23.3664
  30   2.0000      -0.842021       -22.9126
  31   2.0000      -0.815679       -22.1957
  32   2.0000      -0.786217       -21.3940
  33   2.0000      -0.773854       -21.0576
  34   2.0000      -0.705075       -19.1861
  35   2.0000      -0.700075       -19.0500
  36   2.0000      -0.694656       -18.9026
  37   2.0000      -0.669994       -18.2315
  38   2.0000      -0.636793       -17.3280
  39   2.0000      -0.620919       -16.8961
  40   2.0000      -0.604370       -16.4457
  41   2.0000      -0.579731       -15.7753
  42   2.0000      -0.567255       -15.4358
  43   2.0000      -0.542262       -14.7557
  44   2.0000      -0.539500       -14.6806
  45   2.0000      -0.525469       -14.2987
  46   2.0000      -0.517556       -14.0834
  47   2.0000      -0.515688       -14.0326
  48   2.0000      -0.511253       -13.9119
  49   2.0000      -0.501628       -13.6500
  50   2.0000      -0.488458       -13.2916
  51   2.0000      -0.482877       -13.1398
  52   2.0000      -0.472905       -12.8684
  53   2.0000      -0.465456       -12.6657
  54   2.0000      -0.457137       -12.4393
  55   2.0000      -0.456390       -12.4190
  56   2.0000      -0.437963       -11.9176
  57   2.0000      -0.436690       -11.8830
  58   2.0000      -0.430361       -11.7107
  59   2.0000      -0.425936       -11.5903
  60   2.0000      -0.423534       -11.5250
  61   2.0000      -0.420440       -11.4408
  62   2.0000      -0.414620       -11.2824
  63   2.0000      -0.359890        -9.7931
  64   2.0000      -0.330620        -8.9966
  65   2.0000      -0.325711        -8.8631
  66   2.0000      -0.287063        -7.8114
  67   0.0000       0.019997         0.5441
  68   0.0000       0.064901         1.7661
  69   0.0000       0.096579         2.6281
  70   0.0000       0.118236         3.2174
  71   0.0000       0.123050         3.3483

MULLIKEN ATOMIC CHARGES
-----------------------
   0 S :    0.085363
   1 C :   -0.129421
   2 C :   -0.102524
   3 C :    0.015351
   4 C :   -0.124312
   5 H :   -0.007503
   6 C :    0.086354
   7 H :    0.012625
   8 H :    0.015775
   9 C :   -0.065839
  10 H :    0.039713
  11 H :    0.038643
  12 C :   -0.078544
  13 H :    0.042806
  14 H :    0.037714
  15 H :    0.031547
  16 S :    0.094419
  17 C :   -0.069209
  18 C :   -0.020827
  19 C :   -0.050813
  20 C :   -0.114426
  21 H :    0.027985
  22 C :    0.054607
  23 H :    0.012829
  24 H :    0.028907
  25 C :   -0.091506
  26 H :    0.016946
  27 H :    0.022363
  28 C :    0.000928
  29 H :    0.008491
  30 H :    0.027576
  31 H :    0.028891
  32 H :    0.075862
  33 H :    0.049230
Sum of atomic charges:   -0.0000000

LOEWDIN ATOMIC CHARGES
----------------------
   0 S :    0.368702
   1 C :   -0.200775
   2 C :   -0.065430
   3 C :   -0.068768
   4 C :   -0.168353
   5 H :    0.024092
   6 C :   -0.033874
   7 H :    0.034069
   8 H :    0.023675
   9 C :   -0.036564
  10 H :    0.025880
  11 H :    0.033223
  12 C :   -0.076312
  13 H :    0.031407
  14 H :    0.027521
  15 H :    0.021407
  16 S :    0.405112
  17 C :   -0.174585
  18 C :   -0.069495
  19 C :   -0.044411
  20 C :   -0.194332
  21 H :    0.033124
  22 C :   -0.031451
  23 H :    0.023759
  24 H :    0.040315
  25 C :   -0.041183
  26 H :    0.018048
  27 H :    0.020102
  28 C :   -0.054878
  29 H :    0.016836
  30 H :    0.023366
  31 H :    0.028092
  32 H :    0.040048
  33 H :    0.021632

  Mayer bond orders larger than 0.100000
B(  0-S ,  1-C ) :   1.1249 B(  0-S ,  4-C ) :   1.1273 B(  1-C ,  2-C ) :   1.6383
B(  1-C ,  4-C ) :   0.1015 B(  1-C , 32-H ) :   0.9514 B(  2-C ,  3-C ) :   1.2270
B(  2-C ,  6-C ) :   1.0215 B(  3-C ,  4-C ) :   1.5670 B(  3-C ,  5-H ) :   0.9953
B(  4-C , 20-C ) :   1.0791 B(  6-C ,  7-H ) :   0.9343 B(  6-C ,  8-H ) :   0.9394
B(  6-C ,  9-C ) :   1.0525 B(  9-C , 10-H ) :   0.9578 B(  9-C , 11-H ) :   0.9567
B(  9-C , 12-C ) :   1.0791 B( 12-C , 13-H ) :   0.9722 B( 12-C , 14-H ) :   0.9726
B( 12-C , 15-H ) :   0.9763 B( 16-S , 17-C ) :   1.1741 B( 16-S , 20-C ) :   1.1006
B( 17-C , 18-C ) :   1.6099 B( 17-C , 33-H ) :   0.9720 B( 18-C , 19-C ) :   1.2003
B( 18-C , 21-H ) :   0.9878 B( 19-C , 20-C ) :   1.6335 B( 19-C , 22-C ) :   1.0645
B( 22-C , 23-H ) :   0.9373 B( 22-C , 24-H ) :   0.9230 B( 22-C , 25-C ) :   1.0662
B( 25-C , 26-H ) :   0.9495 B( 25-C , 27-H ) :   0.9468 B( 25-C , 28-C ) :   1.0993
B( 28-C , 29-H ) :   0.9684 B( 28-C , 30-H ) :   0.9718 B( 28-C , 31-H ) :   0.9694

Dispersion correction           -0.014384008
FINAL SINGLE POINT ENERGY     -1339.869210256031

DIPOLE MOMENT
-------------
                                X             Y             Z
Electronic contribution:     -7.74364     -14.37187     -25.66741
Nuclear contribution   :      7.66114      14.73492      26.40559
                        -----------------------------------------
Total Dipole Moment    :     -0.08250       0.36305       0.73819
                        -----------------------------------------
Magnitude (a.u.)       :      0.82676
Magnitude (Debye)      :      2.10145

Rotational constants in cm-1:     0.016240     0.009990     0.007052
Rotational constants in MHz :   486.856743   299.503046   211.411926

                             ****ORCA TERMINATED NORMALLY****
TOTAL RUN TIME: 0 days 0 hours 0 minutes 22 seconds 30 msec
