                         Program Version 4.2.1 -  RELEASE  -
|  1> ! wB97X-D3 SP def2-SVP
|  2> %pal
|  3> nprocs 24
|  4> end
|  5>
|  6> * xyz 0 1
|  7> S 	 -52.5846 	 19.2539 	 24.1706
|  8> C 	 -53.7856 	 19.7597 	 25.3241
|  9> C 	 -54.9266 	 18.9401 	 25.2635
| 10> C 	 -54.8211 	 17.9345 	 24.2402
| 11> C 	 -53.6594 	 18.0066 	 23.4517
| 12> H 	 -55.6559 	 17.2787 	 24.0205
| 13> C 	 -56.0151 	 19.0598 	 26.2964
| 14> H 	 -56.8539 	 18.5999 	 25.867
| 15> H 	 -56.2851 	 20.1382 	 26.2691
| 16> C 	 -55.6256 	 18.5172 	 27.7517
| 17> H 	 -55.143 	 17.5377 	 27.6592
| 18> H 	 -54.8624 	 19.1906 	 28.1967
| 19> C 	 -56.737 	 18.3794 	 28.8498
| 20> H 	 -56.3652 	 18.2284 	 29.8705
| 21> H 	 -57.3875 	 19.288 	 28.8948
| 22> H 	 -57.3517 	 17.4537 	 28.6598
| 23> S 	 -52.4091 	 18.2172 	 21.0169
| 24> C 	 -52.5598 	 16.9075 	 19.853
| 25> C 	 -53.1515 	 15.8216 	 20.4217
| 26> C 	 -53.6964 	 16.1135 	 21.6934
| 27> C 	 -53.3609 	 17.3508 	 22.1892
| 28> H 	 -53.1333 	 14.8681 	 19.881
| 29> C 	 -54.5858 	 15.109 	 22.4674
| 30> H 	 -55.7134 	 15.3829 	 22.4165
| 31> H 	 -54.2927 	 15.3929 	 23.4835
| 32> C 	 -54.3332 	 13.5223 	 22.3006
| 33> H 	 -54.67 	 13.3 	 21.2595
| 34> H 	 -55.029 	 12.9033 	 22.8584
| 35> C 	 -52.895 	 13.0472 	 22.5832
| 36> H 	 -52.1884 	 13.2686 	 21.7766
| 37> H 	 -52.9162 	 11.9297 	 22.6616
| 38> H 	 -52.5729 	 13.4474 	 23.5743
| 39> H 	 -53.5569 	 20.5445 	 26.0772
| 40> H 	 -52.2249 	 16.8653 	 18.8278
| 41> *
| 42>
| 43>                          ****END OF INPUT****

CARTESIAN COORDINATES (ANGSTROEM)
---------------------------------
  S    -52.584600   19.253900   24.170600
  C    -53.785600   19.759700   25.324100
  C    -54.926600   18.940100   25.263500
  C    -54.821100   17.934500   24.240200
  C    -53.659400   18.006600   23.451700
  H    -55.655900   17.278700   24.020500
  C    -56.015100   19.059800   26.296400
  H    -56.853900   18.599900   25.867000
  H    -56.285100   20.138200   26.269100
  C    -55.625600   18.517200   27.751700
  H    -55.143000   17.537700   27.659200
  H    -54.862400   19.190600   28.196700
  C    -56.737000   18.379400   28.849800
  H    -56.365200   18.228400   29.870500
  H    -57.387500   19.288000   28.894800
  H    -57.351700   17.453700   28.659800
  S    -52.409100   18.217200   21.016900
  C    -52.559800   16.907500   19.853000
  C    -53.151500   15.821600   20.421700
  C    -53.696400   16.113500   21.693400
  C    -53.360900   17.350800   22.189200
  H    -53.133300   14.868100   19.881000
  C    -54.585800   15.109000   22.467400
  H    -55.713400   15.382900   22.416500
  H    -54.292700   15.392900   23.483500
  C    -54.333200   13.522300   22.300600
  H    -54.670000   13.300000   21.259500
  H    -55.029000   12.903300   22.858400
  C    -52.895000   13.047200   22.583200
  H    -52.188400   13.268600   21.776600
  H    -52.916200   11.929700   22.661600
  H    -52.572900   13.447400   23.574300
  H    -53.556900   20.544500   26.077200
  H    -52.224900   16.865300   18.827800

 Total Charge           Charge          ....    0
 Multiplicity           Mult            ....    1
 Number of Electrons    NEL             ....  134
 Basis Dimension        Dim             ....  322

ORBITAL ENERGIES
----------------

  NO   OCC          E(Eh)            E(eV)
   0   2.0000     -88.967663     -2420.9332
   1   2.0000     -88.965569     -2420.8762
   2   2.0000     -10.338838      -281.3341
   3   2.0000     -10.327092      -281.0145
   4   2.0000     -10.319092      -280.7968
   5   2.0000     -10.315131      -280.6890
   6   2.0000     -10.304347      -280.3955
   7   2.0000     -10.303819      -280.3812
   8   2.0000     -10.303698      -280.3779
   9   2.0000     -10.300246      -280.2839
  10   2.0000     -10.298983      -280.2496
  11   2.0000     -10.297210      -280.2013
  12   2.0000     -10.295603      -280.1576
  13   2.0000     -10.291875      -280.0562
  14   2.0000     -10.289132      -279.9815
  15   2.0000     -10.286229      -279.9025
  16   2.0000      -8.081714      -219.9146
  17   2.0000      -8.080352      -219.8776
  18   2.0000      -6.040288      -164.3646
  19   2.0000      -6.039004      -164.3297
  20   2.0000      -6.036222      -164.2539
  21   2.0000      -6.034834      -164.2162
  22   2.0000      -6.032546      -164.1539
  23   2.0000      -6.030957      -164.1107
  24   2.0000      -1.007688       -27.4206
  25   2.0000      -0.981861       -26.7178
  26   2.0000      -0.901857       -24.5408
  27   2.0000      -0.895038       -24.3552
  28   2.0000      -0.869219       -23.6526
  29   2.0000      -0.849866       -23.1260
  30   2.0000      -0.842376       -22.9222
  31   2.0000      -0.817157       -22.2360
  32   2.0000      -0.778422       -21.1819
  33   2.0000      -0.766130       -20.8475
  34   2.0000      -0.705658       -19.2019
  35   2.0000      -0.703117       -19.1328
  36   2.0000      -0.697233       -18.9727
  37   2.0000      -0.658676       -17.9235
  38   2.0000      -0.636259       -17.3135
  39   2.0000      -0.619738       -16.8639
  40   2.0000      -0.585789       -15.9401
  41   2.0000      -0.563923       -15.3451
  42   2.0000      -0.553800       -15.0697
  43   2.0000      -0.545012       -14.8305
  44   2.0000      -0.536192       -14.5905
  45   2.0000      -0.526125       -14.3166
  46   2.0000      -0.518318       -14.1041
  47   2.0000      -0.507774       -13.8172
  48   2.0000      -0.506996       -13.7961
  49   2.0000      -0.500373       -13.6158
  50   2.0000      -0.487435       -13.2638
  51   2.0000      -0.478876       -13.0309
  52   2.0000      -0.464736       -12.6461
  53   2.0000      -0.463228       -12.6051
  54   2.0000      -0.456260       -12.4155
  55   2.0000      -0.448722       -12.2103
  56   2.0000      -0.446313       -12.1448
  57   2.0000      -0.437651       -11.9091
  58   2.0000      -0.431269       -11.7354
  59   2.0000      -0.425358       -11.5746
  60   2.0000      -0.420553       -11.4438
  61   2.0000      -0.413980       -11.2650
  62   2.0000      -0.408201       -11.1077
  63   2.0000      -0.359489        -9.7822
  64   2.0000      -0.332176        -9.0390
  65   2.0000      -0.328284        -8.9331
  66   2.0000      -0.282683        -7.6922
  67   0.0000       0.020290         0.5521
  68   0.0000       0.074319         2.0223
  69   0.0000       0.107416         2.9229
  70   0.0000       0.124529         3.3886
  71   0.0000       0.131960         3.5908

MULLIKEN ATOMIC CHARGES
-----------------------
   0 S :    0.101895
   1 C :   -0.138658
   2 C :   -0.127934
   3 C :    0.018137
   4 C :   -0.140629
   5 H :    0.010456
   6 C :    0.104707
   7 H :   -0.000350
   8 H :    0.036534
   9 C :   -0.078131
  10 H :    0.040091
  11 H :    0.032922
  12 C :   -0.080970
  13 H :    0.038773
  14 H :    0.040386
  15 H :    0.040049
  16 S :    0.107074
  17 C :   -0.086994
  18 C :   -0.044913
  19 C :   -0.046942
  20 C :   -0.120206
  21 H :    0.029755
  22 C :   -0.003380
  23 H :    0.065790
  24 H :    0.031421
  25 C :   -0.069158
  26 H :    0.025706
  27 H :    0.028714
  28 C :   -0.065782
  29 H :    0.043511
  30 H :    0.037601
  31 H :    0.047901
  32 H :    0.071236
  33 H :    0.051388
Sum of atomic charges:    0.0000000

LOEWDIN ATOMIC CHARGES
----------------------
   0 S :    0.392463
   1 C :   -0.201342
   2 C :   -0.067294
   3 C :   -0.066676
   4 C :   -0.176366
   5 H :    0.029873
   6 C :   -0.032319
   7 H :    0.019278
   8 H :    0.039508
   9 C :   -0.040647
  10 H :    0.027999
  11 H :    0.026173
  12 C :   -0.078182
  13 H :    0.028254
  14 H :    0.027983
  15 H :    0.029044
  16 S :    0.405793
  17 C :   -0.180332
  18 C :   -0.074750
  19 C :   -0.060895
  20 C :   -0.200936
  21 H :    0.037543
  22 C :   -0.043353
  23 H :    0.041148
  24 H :    0.027383
  25 C :   -0.046836
  26 H :    0.022568
  27 H :    0.025727
  28 C :   -0.070314
  29 H :    0.025912
  30 H :    0.032165
  31 H :    0.032853
  32 H :    0.036746
  33 H :    0.031828

  Mayer bond orders larger than 0.100000
B(  0-S ,  1-C ) :   1.1485 B(  0-S ,  4-C ) :   1.1440 B(  1-C ,  2-C ) :   1.5699
B(  1-C ,  4-C ) :   0.1021 B(  1-C , 32-H ) :   0.9670 B(  2-C ,  3-C ) :   1.2768
B(  2-C ,  6-C ) :   1.0311 B(  3-C ,  4-C ) :   1.5240 B(  3-C ,  5-H ) :   0.9881
B(  4-C , 20-C ) :   1.0828 B(  6-C ,  7-H ) :   0.9370 B(  6-C ,  8-H ) :   0.9365
B(  6-C ,  9-C ) :   1.0371 B(  9-C , 10-H ) :   0.9620 B(  9-C , 11-H ) :   0.9591
B(  9-C , 12-C ) :   1.0747 B( 12-C , 13-H ) :   0.9758 B( 12-C , 14-H ) :   0.9766
B( 12-C , 15-H ) :   0.9776 B( 16-S , 17-C ) :   1.1480 B( 16-S , 20-C ) :   1.1265
B( 17-C , 18-C ) :   1.6226 B( 17-C , 33-H ) :   0.9639 B( 18-C , 19-C ) :   1.2442
B( 18-C , 21-H ) :   0.9864 B( 19-C , 20-C ) :   1.5985 B( 19-C , 22-C ) :   1.0122
B( 22-C , 23-H ) :   0.9401 B( 22-C , 24-H ) :   0.9327 B( 22-C , 25-C ) :   1.0559
B( 25-C , 26-H ) :   0.9513 B( 25-C , 27-H ) :   0.9592 B( 25-C , 28-C ) :   1.0730
B( 28-C , 29-H ) :   0.9747 B( 28-C , 30-H ) :   0.9740 B( 28-C , 31-H ) :   0.9751

Dispersion correction           -0.013736834
FINAL SINGLE POINT ENERGY     -1339.875669520461

DIPOLE MOMENT
-------------
                                X             Y             Z
Electronic contribution:     15.14802      16.53112     -17.50032
Nuclear contribution   :    -15.57432     -16.99493      17.74175
                        -----------------------------------------
Total Dipole Moment    :     -0.42630      -0.46382       0.24142
                        -----------------------------------------
Magnitude (a.u.)       :      0.67464
Magnitude (Debye)      :      1.71480

Rotational constants in cm-1:     0.019731     0.007678     0.005953
Rotational constants in MHz :   591.526350   230.187080   178.456018

                             ****ORCA TERMINATED NORMALLY****
TOTAL RUN TIME: 0 days 0 hours 0 minutes 20 seconds 855 msec
