                         Program Version 4.2.1 -  RELEASE  -
|  1> ! wB97X-D3 SP def2-SVP
|  2> %pal
|  3> nprocs 24
|  4> end
|  5>
|  6> * xyz 0 1
|  7> S 	 -51.0385 	 6.92622 	 -16.3648
|  8> C 	 -49.3109 	 6.76831 	 -16.3939
|  9> C 	 -48.7485 	 7.99379 	 -16.7273
| 10> C 	 -49.6869 	 8.97321 	 -17.0399
| 11> C 	 -51.0117 	 8.57026 	 -17.0046
| 12> H 	 -49.4285 	 9.98336 	 -17.3538
| 13> C 	 -47.2375 	 8.29192 	 -16.7199
| 14> H 	 -47.1748 	 8.92025 	 -17.6225
| 15> H 	 -46.6973 	 7.4472 	 -16.9454
| 16> C 	 -46.5142 	 9.08828 	 -15.5864
| 17> H 	 -45.4728 	 9.03143 	 -15.6189
| 18> H 	 -46.7371 	 10.1493 	 -15.732
| 19> C 	 -46.9558 	 8.77331 	 -14.1039
| 20> H 	 -47.0815 	 9.6761 	 -13.4866
| 21> H 	 -47.909 	 8.24654 	 -14.0907
| 22> H 	 -46.1551 	 8.21169 	 -13.6029
| 23> S 	 -52.9175 	 9.71319 	 -18.5797
| 24> C 	 -54.2184 	 10.6049 	 -17.8332
| 25> C 	 -54.0407 	 10.728 	 -16.5253
| 26> C 	 -52.8527 	 10.1198 	 -16.0568
| 27> C 	 -52.1548 	 9.43712 	 -17.0589
| 28> H 	 -54.8229 	 11.1656 	 -16.0428
| 29> C 	 -52.5669 	 9.89753 	 -14.5127
| 30> H 	 -52.629 	 8.79732 	 -14.436
| 31> H 	 -53.4124 	 10.3303 	 -14.065
| 32> C 	 -51.1892 	 10.2674 	 -13.9796
| 33> H 	 -50.9911 	 11.2948 	 -14.176
| 34> H 	 -50.4447 	 9.62072 	 -14.4339
| 35> C 	 -51.0963 	 10.0198 	 -12.4721
| 36> H 	 -51.7304 	 10.7883 	 -11.9144
| 37> H 	 -50.1653 	 10.1431 	 -12.029
| 38> H 	 -51.4254 	 9.03291 	 -12.1672
| 39> H 	 -48.8004 	 5.88753 	 -16.1813
| 40> H 	 -55.1798 	 10.7971 	 -18.3129
| 41> *
| 42>
| 43>                          ****END OF INPUT****

CARTESIAN COORDINATES (ANGSTROEM)
---------------------------------
  S    -51.038500    6.926220  -16.364800
  C    -49.310900    6.768310  -16.393900
  C    -48.748500    7.993790  -16.727300
  C    -49.686900    8.973210  -17.039900
  C    -51.011700    8.570260  -17.004600
  H    -49.428500    9.983360  -17.353800
  C    -47.237500    8.291920  -16.719900
  H    -47.174800    8.920250  -17.622500
  H    -46.697300    7.447200  -16.945400
  C    -46.514200    9.088280  -15.586400
  H    -45.472800    9.031430  -15.618900
  H    -46.737100   10.149300  -15.732000
  C    -46.955800    8.773310  -14.103900
  H    -47.081500    9.676100  -13.486600
  H    -47.909000    8.246540  -14.090700
  H    -46.155100    8.211690  -13.602900
  S    -52.917500    9.713190  -18.579700
  C    -54.218400   10.604900  -17.833200
  C    -54.040700   10.728000  -16.525300
  C    -52.852700   10.119800  -16.056800
  C    -52.154800    9.437120  -17.058900
  H    -54.822900   11.165600  -16.042800
  C    -52.566900    9.897530  -14.512700
  H    -52.629000    8.797320  -14.436000
  H    -53.412400   10.330300  -14.065000
  C    -51.189200   10.267400  -13.979600
  H    -50.991100   11.294800  -14.176000
  H    -50.444700    9.620720  -14.433900
  C    -51.096300   10.019800  -12.472100
  H    -51.730400   10.788300  -11.914400
  H    -50.165300   10.143100  -12.029000
  H    -51.425400    9.032910  -12.167200
  H    -48.800400    5.887530  -16.181300
  H    -55.179800   10.797100  -18.312900

 Total Charge           Charge          ....    0
 Multiplicity           Mult            ....    1
 Number of Electrons    NEL             ....  134
 Basis Dimension        Dim             ....  322

ORBITAL ENERGIES
----------------

  NO   OCC          E(Eh)            E(eV)
   0   2.0000     -88.969596     -2420.9858
   1   2.0000     -88.960627     -2420.7417
   2   2.0000     -10.328662      -281.0572
   3   2.0000     -10.320891      -280.8457
   4   2.0000     -10.315532      -280.6999
   5   2.0000     -10.308937      -280.5204
   6   2.0000     -10.304208      -280.3917
   7   2.0000     -10.302352      -280.3413
   8   2.0000     -10.293661      -280.1048
   9   2.0000     -10.289894      -280.0022
  10   2.0000     -10.288305      -279.9590
  11   2.0000     -10.287386      -279.9340
  12   2.0000     -10.280674      -279.7514
  13   2.0000     -10.278705      -279.6978
  14   2.0000     -10.277491      -279.6648
  15   2.0000     -10.271829      -279.5107
  16   2.0000      -8.083885      -219.9737
  17   2.0000      -8.076283      -219.7668
  18   2.0000      -6.042303      -164.4194
  19   2.0000      -6.038286      -164.3101
  20   2.0000      -6.034922      -164.2186
  21   2.0000      -6.034650      -164.2112
  22   2.0000      -6.030570      -164.1001
  23   2.0000      -6.027225      -164.0091
  24   2.0000      -1.012231       -27.5442
  25   2.0000      -0.991515       -26.9805
  26   2.0000      -0.905667       -24.6445
  27   2.0000      -0.903054       -24.5734
  28   2.0000      -0.877319       -23.8731
  29   2.0000      -0.848711       -23.0946
  30   2.0000      -0.846717       -23.0404
  31   2.0000      -0.820608       -22.3299
  32   2.0000      -0.784196       -21.3391
  33   2.0000      -0.770885       -20.9769
  34   2.0000      -0.715275       -19.4636
  35   2.0000      -0.702321       -19.1111
  36   2.0000      -0.693837       -18.8803
  37   2.0000      -0.660574       -17.9751
  38   2.0000      -0.646861       -17.6020
  39   2.0000      -0.625464       -17.0197
  40   2.0000      -0.589508       -16.0413
  41   2.0000      -0.573232       -15.5984
  42   2.0000      -0.569147       -15.4873
  43   2.0000      -0.552618       -15.0375
  44   2.0000      -0.543091       -14.7783
  45   2.0000      -0.519875       -14.1465
  46   2.0000      -0.518947       -14.1213
  47   2.0000      -0.516524       -14.0553
  48   2.0000      -0.507374       -13.8063
  49   2.0000      -0.498565       -13.5666
  50   2.0000      -0.487849       -13.2750
  51   2.0000      -0.478857       -13.0304
  52   2.0000      -0.472507       -12.8576
  53   2.0000      -0.469767       -12.7830
  54   2.0000      -0.464250       -12.6329
  55   2.0000      -0.449138       -12.2217
  56   2.0000      -0.443047       -12.0559
  57   2.0000      -0.436223       -11.8702
  58   2.0000      -0.430292       -11.7088
  59   2.0000      -0.422419       -11.4946
  60   2.0000      -0.421852       -11.4792
  61   2.0000      -0.409879       -11.1534
  62   2.0000      -0.407592       -11.0911
  63   2.0000      -0.339325        -9.2335
  64   2.0000      -0.336868        -9.1666
  65   2.0000      -0.320164        -8.7121
  66   2.0000      -0.308767        -8.4020
  67   0.0000       0.040665         1.1066
  68   0.0000       0.048685         1.3248
  69   0.0000       0.117466         3.1964
  70   0.0000       0.124073         3.3762
  71   0.0000       0.131362         3.5745

MULLIKEN ATOMIC CHARGES
-----------------------
   0 S :    0.110784
   1 C :   -0.096363
   2 C :   -0.093760
   3 C :    0.035246
   4 C :   -0.153301
   5 H :    0.015922
   6 C :    0.099564
   7 H :    0.024966
   8 H :    0.002061
   9 C :   -0.043489
  10 H :    0.021343
  11 H :    0.022871
  12 C :   -0.085194
  13 H :    0.034217
  14 H :    0.047845
  15 H :    0.032568
  16 S :    0.107515
  17 C :   -0.095669
  18 C :   -0.014474
  19 C :   -0.008095
  20 C :   -0.193708
  21 H :   -0.018696
  22 C :    0.075572
  23 H :    0.030041
  24 H :    0.001751
  25 C :   -0.037929
  26 H :    0.021642
  27 H :    0.044931
  28 C :   -0.037079
  29 H :    0.024398
  30 H :    0.014545
  31 H :    0.022054
  32 H :    0.027988
  33 H :    0.059932
Sum of atomic charges:    0.0000000

LOEWDIN ATOMIC CHARGES
----------------------
   0 S :    0.418330
   1 C :   -0.184806
   2 C :   -0.069272
   3 C :   -0.052853
   4 C :   -0.202415
   5 H :    0.034334
   6 C :   -0.025448
   7 H :    0.037468
   8 H :    0.015989
   9 C :   -0.034672
  10 H :    0.018959
  11 H :    0.024268
  12 C :   -0.073524
  13 H :    0.027398
  14 H :    0.024643
  15 H :    0.025284
  16 S :    0.417799
  17 C :   -0.182524
  18 C :   -0.071344
  19 C :   -0.047723
  20 C :   -0.217699
  21 H :    0.020231
  22 C :   -0.021097
  23 H :    0.032374
  24 H :    0.018103
  25 C :   -0.034859
  26 H :    0.020097
  27 H :    0.028248
  28 C :   -0.062838
  29 H :    0.028972
  30 H :    0.013951
  31 H :    0.022285
  32 H :    0.017988
  33 H :    0.034356

  Mayer bond orders larger than 0.100000
B(  0-S ,  1-C ) :   1.1653 B(  0-S ,  4-C ) :   1.1541 B(  1-C ,  2-C ) :   1.5459
B(  1-C ,  4-C ) :   0.1078 B(  1-C , 32-H ) :   0.9833 B(  2-C ,  3-C ) :   1.2879
B(  2-C ,  6-C ) :   1.0142 B(  3-C ,  4-C ) :   1.5499 B(  3-C ,  5-H ) :   0.9963
B(  4-C , 20-C ) :   1.0189 B(  6-C ,  7-H ) :   0.9423 B(  6-C ,  8-H ) :   0.9431
B(  6-C ,  9-C ) :   1.0640 B(  9-C , 10-H ) :   0.9624 B(  9-C , 11-H ) :   0.9625
B(  9-C , 12-C ) :   1.0632 B( 12-C , 13-H ) :   0.9802 B( 12-C , 14-H ) :   0.9771
B( 12-C , 15-H ) :   0.9796 B( 16-S , 17-C ) :   1.1558 B( 16-S , 20-C ) :   1.1608
B( 17-C , 18-C ) :   1.6357 B( 17-C , 33-H ) :   0.9590 B( 18-C , 19-C ) :   1.2262
B( 18-C , 21-H ) :   1.0076 B( 19-C , 20-C ) :   1.5857 B( 19-C , 22-C ) :   1.0208
B( 22-C , 23-H ) :   0.9368 B( 22-C , 24-H ) :   0.9417 B( 22-C , 25-C ) :   1.0651
B( 25-C , 26-H ) :   0.9565 B( 25-C , 27-H ) :   0.9477 B( 25-C , 28-C ) :   1.0928
B( 28-C , 29-H ) :   0.9735 B( 28-C , 30-H ) :   0.9739 B( 28-C , 31-H ) :   0.9728

Dispersion correction           -0.016036300
FINAL SINGLE POINT ENERGY     -1339.860032665657

DIPOLE MOMENT
-------------
                                X             Y             Z
Electronic contribution:    -17.74583      -6.52211     -21.66775
Nuclear contribution   :     18.01784       6.66732      22.05148
                        -----------------------------------------
Total Dipole Moment    :      0.27201       0.14521       0.38373
                        -----------------------------------------
Magnitude (a.u.)       :      0.49226
Magnitude (Debye)      :      1.25123

Rotational constants in cm-1:     0.019699     0.009532     0.007759
Rotational constants in MHz :   590.573481   285.765148   232.610823

                             ****ORCA TERMINATED NORMALLY****
TOTAL RUN TIME: 0 days 0 hours 0 minutes 23 seconds 110 msec
