                         Program Version 4.2.1 -  RELEASE  -
|  1> ! wB97X-D3 SP def2-SVP
|  2> %pal
|  3> nprocs 24
|  4> end
|  5>
|  6> * xyz 0 1
|  7> S 	 -99.0392 	 -23.042 	 -65.4715
|  8> C 	 -99.8938 	 -21.6298 	 -64.9321
|  9> C 	 -99.3392 	 -20.9917 	 -63.8794
| 10> C 	 -98.0734 	 -21.6445 	 -63.5389
| 11> C 	 -97.745 	 -22.7315 	 -64.3584
| 12> H 	 -97.3306 	 -21.3624 	 -62.8362
| 13> C 	 -99.7507 	 -19.6137 	 -63.3286
| 14> H 	 -100.718 	 -19.3632 	 -63.7928
| 15> H 	 -98.9286 	 -18.8378 	 -63.5893
| 16> C 	 -99.7959 	 -19.5203 	 -61.7555
| 17> H 	 -100.517 	 -20.2789 	 -61.3923
| 18> H 	 -98.7874 	 -19.6552 	 -61.2582
| 19> C 	 -100.158 	 -18.0937 	 -61.4393
| 20> H 	 -101.208 	 -17.8781 	 -61.6175
| 21> H 	 -99.9718 	 -17.8645 	 -60.3211
| 22> H 	 -99.6283 	 -17.2839 	 -61.9785
| 23> S 	 -95.8711 	 -23.9003 	 -65.9153
| 24> C 	 -94.7218 	 -25.0567 	 -65.1882
| 25> C 	 -94.8069 	 -25.0087 	 -63.8026
| 26> C 	 -95.8058 	 -24.1582 	 -63.3189
| 27> C 	 -96.4903 	 -23.4981 	 -64.3477
| 28> H 	 -94.0695 	 -25.6082 	 -63.2763
| 29> C 	 -96.2173 	 -24.0269 	 -61.8862
| 30> H 	 -97.3059 	 -23.6207 	 -61.9463
| 31> H 	 -95.566 	 -23.3002 	 -61.4582
| 32> C 	 -96.1021 	 -25.2994 	 -61.0249
| 33> H 	 -95.0828 	 -25.696 	 -60.8961
| 34> H 	 -96.6599 	 -26.1228 	 -61.511
| 35> C 	 -96.47 	 -25.1346 	 -59.5813
| 36> H 	 -95.901 	 -24.2762 	 -59.1656
| 37> H 	 -96.5655 	 -26.0105 	 -58.9455
| 38> H 	 -97.5056 	 -24.8375 	 -59.581
| 39> H 	 -100.762 	 -21.3408 	 -65.5065
| 40> H 	 -93.8994 	 -25.7077 	 -65.645
| 41> *
| 42>
| 43>                          ****END OF INPUT****

CARTESIAN COORDINATES (ANGSTROEM)
---------------------------------
  S    -99.039200  -23.042000  -65.471500
  C    -99.893800  -21.629800  -64.932100
  C    -99.339200  -20.991700  -63.879400
  C    -98.073400  -21.644500  -63.538900
  C    -97.745000  -22.731500  -64.358400
  H    -97.330600  -21.362400  -62.836200
  C    -99.750700  -19.613700  -63.328600
  H    -100.718000  -19.363200  -63.792800
  H    -98.928600  -18.837800  -63.589300
  C    -99.795900  -19.520300  -61.755500
  H    -100.517000  -20.278900  -61.392300
  H    -98.787400  -19.655200  -61.258200
  C    -100.158000  -18.093700  -61.439300
  H    -101.208000  -17.878100  -61.617500
  H    -99.971800  -17.864500  -60.321100
  H    -99.628300  -17.283900  -61.978500
  S    -95.871100  -23.900300  -65.915300
  C    -94.721800  -25.056700  -65.188200
  C    -94.806900  -25.008700  -63.802600
  C    -95.805800  -24.158200  -63.318900
  C    -96.490300  -23.498100  -64.347700
  H    -94.069500  -25.608200  -63.276300
  C    -96.217300  -24.026900  -61.886200
  H    -97.305900  -23.620700  -61.946300
  H    -95.566000  -23.300200  -61.458200
  C    -96.102100  -25.299400  -61.024900
  H    -95.082800  -25.696000  -60.896100
  H    -96.659900  -26.122800  -61.511000
  C    -96.470000  -25.134600  -59.581300
  H    -95.901000  -24.276200  -59.165600
  H    -96.565500  -26.010500  -58.945500
  H    -97.505600  -24.837500  -59.581000
  H    -100.762000  -21.340800  -65.506500
  H    -93.899400  -25.707700  -65.645000

 Total Charge           Charge          ....    0
 Multiplicity           Mult            ....    1
 Number of Electrons    NEL             ....  134
 Basis Dimension        Dim             ....  322

ORBITAL ENERGIES
----------------

  NO   OCC          E(Eh)            E(eV)
   0   2.0000     -88.968173     -2420.9471
   1   2.0000     -88.963732     -2420.8262
   2   2.0000     -10.329842      -281.0893
   3   2.0000     -10.325745      -280.9778
   4   2.0000     -10.323708      -280.9224
   5   2.0000     -10.310648      -280.5670
   6   2.0000     -10.307634      -280.4850
   7   2.0000     -10.304356      -280.3958
   8   2.0000     -10.301867      -280.3280
   9   2.0000     -10.297401      -280.2065
  10   2.0000     -10.294911      -280.1388
  11   2.0000     -10.294792      -280.1355
  12   2.0000     -10.292364      -280.0695
  13   2.0000     -10.285726      -279.8888
  14   2.0000     -10.284637      -279.8592
  15   2.0000     -10.274509      -279.5836
  16   2.0000      -8.082345      -219.9318
  17   2.0000      -8.079283      -219.8485
  18   2.0000      -6.040869      -164.3804
  19   2.0000      -6.037818      -164.2974
  20   2.0000      -6.036841      -164.2708
  21   2.0000      -6.033654      -164.1841
  22   2.0000      -6.033201      -164.1718
  23   2.0000      -6.029978      -164.0840
  24   2.0000      -1.007872       -27.4256
  25   2.0000      -0.984620       -26.7929
  26   2.0000      -0.911547       -24.8045
  27   2.0000      -0.908270       -24.7153
  28   2.0000      -0.871867       -23.7247
  29   2.0000      -0.856229       -23.2992
  30   2.0000      -0.845545       -23.0084
  31   2.0000      -0.815351       -22.1868
  32   2.0000      -0.776546       -21.1309
  33   2.0000      -0.766621       -20.8608
  34   2.0000      -0.704691       -19.1756
  35   2.0000      -0.696341       -18.9484
  36   2.0000      -0.689748       -18.7690
  37   2.0000      -0.656300       -17.8588
  38   2.0000      -0.643845       -17.5199
  39   2.0000      -0.616001       -16.7622
  40   2.0000      -0.590010       -16.0550
  41   2.0000      -0.573163       -15.5966
  42   2.0000      -0.570457       -15.5229
  43   2.0000      -0.562312       -15.3013
  44   2.0000      -0.527413       -14.3516
  45   2.0000      -0.523074       -14.2336
  46   2.0000      -0.516913       -14.0659
  47   2.0000      -0.511718       -13.9246
  48   2.0000      -0.500870       -13.6294
  49   2.0000      -0.493078       -13.4173
  50   2.0000      -0.490870       -13.3572
  51   2.0000      -0.479662       -13.0523
  52   2.0000      -0.467284       -12.7154
  53   2.0000      -0.463759       -12.6195
  54   2.0000      -0.458622       -12.4797
  55   2.0000      -0.449255       -12.2248
  56   2.0000      -0.446315       -12.1448
  57   2.0000      -0.435573       -11.8526
  58   2.0000      -0.428398       -11.6573
  59   2.0000      -0.427700       -11.6383
  60   2.0000      -0.424821       -11.5600
  61   2.0000      -0.412413       -11.2223
  62   2.0000      -0.405869       -11.0442
  63   2.0000      -0.348541        -9.4843
  64   2.0000      -0.334438        -9.1005
  65   2.0000      -0.326853        -8.8941
  66   2.0000      -0.290365        -7.9012
  67   0.0000       0.028097         0.7646
  68   0.0000       0.076950         2.0939
  69   0.0000       0.110941         3.0189
  70   0.0000       0.117567         3.1992
  71   0.0000       0.132610         3.6085

MULLIKEN ATOMIC CHARGES
-----------------------
   0 S :    0.114215
   1 C :   -0.146831
   2 C :   -0.011194
   3 C :    0.017765
   4 C :   -0.162180
   5 H :    0.003360
   6 C :    0.008847
   7 H :    0.031133
   8 H :    0.057385
   9 C :   -0.093855
  10 H :    0.048547
  11 H :    0.048814
  12 C :   -0.073178
  13 H :    0.027238
  14 H :    0.040408
  15 H :    0.033926
  16 S :    0.110012
  17 C :   -0.121640
  18 C :   -0.056010
  19 C :   -0.004974
  20 C :   -0.170605
  21 H :    0.020495
  22 C :    0.058088
  23 H :    0.057725
  24 H :    0.028170
  25 C :   -0.103855
  26 H :    0.028064
  27 H :    0.035319
  28 C :   -0.027937
  29 H :    0.032161
  30 H :    0.038352
  31 H :    0.007352
  32 H :    0.046797
  33 H :    0.078085
Sum of atomic charges:   -0.0000000

LOEWDIN ATOMIC CHARGES
----------------------
   0 S :    0.408586
   1 C :   -0.193769
   2 C :   -0.069596
   3 C :   -0.060619
   4 C :   -0.200659
   5 H :    0.022789
   6 C :   -0.031047
   7 H :    0.030692
   8 H :    0.044685
   9 C :   -0.048488
  10 H :    0.030650
  11 H :    0.032786
  12 C :   -0.078527
  13 H :    0.021462
  14 H :    0.032528
  15 H :    0.027192
  16 S :    0.406651
  17 C :   -0.193684
  18 C :   -0.074638
  19 C :   -0.058580
  20 C :   -0.205976
  21 H :    0.034053
  22 C :   -0.035643
  23 H :    0.048393
  24 H :    0.028515
  25 C :   -0.050472
  26 H :    0.023854
  27 H :    0.027035
  28 C :   -0.071710
  29 H :    0.029455
  30 H :    0.030182
  31 H :    0.020321
  32 H :    0.024519
  33 H :    0.049061

  Mayer bond orders larger than 0.100000
B(  0-S ,  1-C ) :   1.1357 B(  0-S ,  4-C ) :   1.1464 B(  1-C ,  2-C ) :   1.6313
B(  1-C , 32-H ) :   0.9683 B(  2-C ,  3-C ) :   1.1940 B(  2-C ,  6-C ) :   1.0229
B(  3-C ,  4-C ) :   1.5863 B(  3-C ,  5-H ) :   0.9992 B(  4-C , 20-C ) :   1.0477
B(  6-C ,  7-H ) :   0.9484 B(  6-C ,  8-H ) :   0.9447 B(  6-C ,  9-C ) :   1.0485
B(  9-C , 10-H ) :   0.9564 B(  9-C , 11-H ) :   0.9556 B(  9-C , 12-C ) :   1.0777
B( 12-C , 13-H ) :   0.9737 B( 12-C , 14-H ) :   0.9745 B( 12-C , 15-H ) :   0.9713
B( 16-S , 17-C ) :   1.1451 B( 16-S , 20-C ) :   1.1492 B( 17-C , 18-C ) :   1.6138
B( 17-C , 20-C ) :   0.1027 B( 17-C , 33-H ) :   0.9540 B( 18-C , 19-C ) :   1.2555
B( 18-C , 21-H ) :   0.9884 B( 19-C , 20-C ) :   1.5575 B( 19-C , 22-C ) :   1.0382
B( 22-C , 23-H ) :   0.9275 B( 22-C , 24-H ) :   0.9172 B( 22-C , 25-C ) :   1.0715
B( 25-C , 26-H ) :   0.9473 B( 25-C , 27-H ) :   0.9565 B( 25-C , 28-C ) :   1.0872
B( 28-C , 29-H ) :   0.9699 B( 28-C , 30-H ) :   0.9711 B( 28-C , 31-H ) :   0.9692

Dispersion correction           -0.013350606
FINAL SINGLE POINT ENERGY     -1339.870601305950

DIPOLE MOMENT
-------------
                                X             Y             Z
Electronic contribution:      4.64342     -10.33346     -28.31936
Nuclear contribution   :     -4.60374      10.56123      28.85484
                        -----------------------------------------
Total Dipole Moment    :      0.03968       0.22777       0.53547
                        -----------------------------------------
Magnitude (a.u.)       :      0.58325
Magnitude (Debye)      :      1.48251

Rotational constants in cm-1:     0.016885     0.008445     0.006214
Rotational constants in MHz :   506.187394   253.185113   186.301154

                             ****ORCA TERMINATED NORMALLY****
TOTAL RUN TIME: 0 days 0 hours 0 minutes 20 seconds 957 msec
