                         Program Version 4.2.1 -  RELEASE  -
|  1> ! wB97X-D3 SP def2-SVP
|  2> %pal
|  3> nprocs 24
|  4> end
|  5>
|  6> * xyz 0 1
|  7> S 	 -75.6661 	 -0.502378 	 3.68881
|  8> C 	 -75.7688 	 -0.172697 	 5.38704
|  9> C 	 -77.0666 	 -0.26743 	 5.81709
| 10> C 	 -77.9043 	 -0.801867 	 4.81783
| 11> C 	 -77.358 	 -0.86302 	 3.55668
| 12> H 	 -78.9174 	 -1.17047 	 4.8806
| 13> C 	 -77.5305 	 -0.2366 	 7.24539
| 14> H 	 -76.6722 	 -0.413053 	 7.83186
| 15> H 	 -78.2548 	 -0.925935 	 7.44204
| 16> C 	 -78.2376 	 1.04031 	 7.71247
| 17> H 	 -78.7089 	 0.788624 	 8.67392
| 18> H 	 -77.4988 	 1.81434 	 7.88238
| 19> C 	 -79.1849 	 1.61861 	 6.63374
| 20> H 	 -79.6609 	 2.59579 	 6.87443
| 21> H 	 -78.6408 	 1.91289 	 5.72904
| 22> H 	 -79.9983 	 1.01258 	 6.19832
| 23> S 	 -78.9282 	 -0.489592 	 1.23185
| 24> C 	 -79.3709 	 -1.94807 	 0.254187
| 25> C 	 -78.6744 	 -3.0125 	 0.69324
| 26> C 	 -78.0703 	 -2.80616 	 1.9787
| 27> C 	 -78.0716 	 -1.50347 	 2.40909
| 28> H 	 -78.7553 	 -3.95897 	 0.192964
| 29> C 	 -77.4349 	 -4.0212 	 2.63046
| 30> H 	 -76.4885 	 -3.82561 	 3.01107
| 31> H 	 -77.3906 	 -4.78875 	 1.768
| 32> C 	 -78.2889 	 -4.78141 	 3.75655
| 33> H 	 -79.3135 	 -5.0103 	 3.48446
| 34> H 	 -78.28 	 -4.29918 	 4.6913
| 35> C 	 -77.9137 	 -6.23334 	 3.93873
| 36> H 	 -78.5917 	 -6.73536 	 4.61758
| 37> H 	 -76.9484 	 -6.31978 	 4.43858
| 38> H 	 -78.0451 	 -6.85329 	 3.0179
| 39> H 	 -74.9953 	 0.187225 	 6.00877
| 40> H 	 -80.0236 	 -1.93704 	 -0.648998
| 41> *
| 42>
| 43>                          ****END OF INPUT****

CARTESIAN COORDINATES (ANGSTROEM)
---------------------------------
  S    -75.666100   -0.502378    3.688810
  C    -75.768800   -0.172697    5.387040
  C    -77.066600   -0.267430    5.817090
  C    -77.904300   -0.801867    4.817830
  C    -77.358000   -0.863020    3.556680
  H    -78.917400   -1.170470    4.880600
  C    -77.530500   -0.236600    7.245390
  H    -76.672200   -0.413053    7.831860
  H    -78.254800   -0.925935    7.442040
  C    -78.237600    1.040310    7.712470
  H    -78.708900    0.788624    8.673920
  H    -77.498800    1.814340    7.882380
  C    -79.184900    1.618610    6.633740
  H    -79.660900    2.595790    6.874430
  H    -78.640800    1.912890    5.729040
  H    -79.998300    1.012580    6.198320
  S    -78.928200   -0.489592    1.231850
  C    -79.370900   -1.948070    0.254187
  C    -78.674400   -3.012500    0.693240
  C    -78.070300   -2.806160    1.978700
  C    -78.071600   -1.503470    2.409090
  H    -78.755300   -3.958970    0.192964
  C    -77.434900   -4.021200    2.630460
  H    -76.488500   -3.825610    3.011070
  H    -77.390600   -4.788750    1.768000
  C    -78.288900   -4.781410    3.756550
  H    -79.313500   -5.010300    3.484460
  H    -78.280000   -4.299180    4.691300
  C    -77.913700   -6.233340    3.938730
  H    -78.591700   -6.735360    4.617580
  H    -76.948400   -6.319780    4.438580
  H    -78.045100   -6.853290    3.017900
  H    -74.995300    0.187225    6.008770
  H    -80.023600   -1.937040   -0.648998

 Total Charge           Charge          ....    0
 Multiplicity           Mult            ....    1
 Number of Electrons    NEL             ....  134
 Basis Dimension        Dim             ....  322

ORBITAL ENERGIES
----------------

  NO   OCC          E(Eh)            E(eV)
   0   2.0000     -88.968269     -2420.9497
   1   2.0000     -88.961515     -2420.7659
   2   2.0000     -10.329000      -281.0664
   3   2.0000     -10.326540      -280.9994
   4   2.0000     -10.322758      -280.8965
   5   2.0000     -10.312858      -280.6271
   6   2.0000     -10.302543      -280.3464
   7   2.0000     -10.296237      -280.1749
   8   2.0000     -10.296091      -280.1709
   9   2.0000     -10.290643      -280.0226
  10   2.0000     -10.288525      -279.9650
  11   2.0000     -10.288380      -279.9611
  12   2.0000     -10.281939      -279.7858
  13   2.0000     -10.278590      -279.6946
  14   2.0000     -10.277702      -279.6705
  15   2.0000     -10.276329      -279.6331
  16   2.0000      -8.083118      -219.9528
  17   2.0000      -8.075290      -219.7398
  18   2.0000      -6.041625      -164.4010
  19   2.0000      -6.037502      -164.2888
  20   2.0000      -6.034002      -164.1936
  21   2.0000      -6.033963      -164.1925
  22   2.0000      -6.029996      -164.0845
  23   2.0000      -6.025817      -163.9708
  24   2.0000      -1.008252       -27.4359
  25   2.0000      -0.985757       -26.8238
  26   2.0000      -0.915806       -24.9203
  27   2.0000      -0.901286       -24.5252
  28   2.0000      -0.869904       -23.6713
  29   2.0000      -0.850540       -23.1444
  30   2.0000      -0.844049       -22.9677
  31   2.0000      -0.819674       -22.3045
  32   2.0000      -0.785983       -21.3877
  33   2.0000      -0.768758       -20.9190
  34   2.0000      -0.705193       -19.1893
  35   2.0000      -0.701917       -19.1001
  36   2.0000      -0.690273       -18.7833
  37   2.0000      -0.661872       -18.0104
  38   2.0000      -0.647600       -17.6221
  39   2.0000      -0.613087       -16.6829
  40   2.0000      -0.594096       -16.1662
  41   2.0000      -0.583737       -15.8843
  42   2.0000      -0.567744       -15.4491
  43   2.0000      -0.555758       -15.1230
  44   2.0000      -0.538781       -14.6610
  45   2.0000      -0.524633       -14.2760
  46   2.0000      -0.515259       -14.0209
  47   2.0000      -0.510119       -13.8811
  48   2.0000      -0.506107       -13.7719
  49   2.0000      -0.499714       -13.5979
  50   2.0000      -0.487578       -13.2677
  51   2.0000      -0.473643       -12.8885
  52   2.0000      -0.468784       -12.7563
  53   2.0000      -0.465163       -12.6577
  54   2.0000      -0.463093       -12.6014
  55   2.0000      -0.452635       -12.3168
  56   2.0000      -0.437438       -11.9033
  57   2.0000      -0.433293       -11.7905
  58   2.0000      -0.423729       -11.5302
  59   2.0000      -0.422831       -11.5058
  60   2.0000      -0.420175       -11.4335
  61   2.0000      -0.417516       -11.3612
  62   2.0000      -0.407331       -11.0840
  63   2.0000      -0.334878        -9.1125
  64   2.0000      -0.332519        -9.0483
  65   2.0000      -0.320995        -8.7347
  66   2.0000      -0.314961        -8.5705
  67   0.0000       0.044877         1.2212
  68   0.0000       0.053998         1.4694
  69   0.0000       0.105333         2.8663
  70   0.0000       0.117848         3.2068
  71   0.0000       0.135860         3.6969

MULLIKEN ATOMIC CHARGES
-----------------------
   0 S :    0.123325
   1 C :   -0.109196
   2 C :   -0.076468
   3 C :    0.013661
   4 C :   -0.151981
   5 H :    0.016873
   6 C :    0.126817
   7 H :    0.009108
   8 H :    0.002955
   9 C :   -0.049845
  10 H :    0.036092
  11 H :    0.024466
  12 C :   -0.093299
  13 H :    0.032216
  14 H :    0.039541
  15 H :    0.032358
  16 S :    0.082064
  17 C :   -0.107989
  18 C :   -0.013651
  19 C :   -0.022833
  20 C :   -0.182094
  21 H :    0.020600
  22 C :    0.082672
  23 H :    0.019478
  24 H :    0.023482
  25 C :   -0.044815
  26 H :    0.019514
  27 H :    0.027247
  28 C :   -0.078150
  29 H :    0.022665
  30 H :    0.029250
  31 H :    0.036429
  32 H :    0.036294
  33 H :    0.073215
Sum of atomic charges:   -0.0000000

LOEWDIN ATOMIC CHARGES
----------------------
   0 S :    0.423839
   1 C :   -0.190574
   2 C :   -0.067307
   3 C :   -0.052736
   4 C :   -0.210985
   5 H :    0.031597
   6 C :   -0.019498
   7 H :    0.025647
   8 H :    0.020263
   9 C :   -0.031778
  10 H :    0.025860
  11 H :    0.022361
  12 C :   -0.083029
  13 H :    0.029032
  14 H :    0.030887
  15 H :    0.024182
  16 S :    0.363367
  17 C :   -0.162419
  18 C :   -0.072524
  19 C :   -0.055316
  20 C :   -0.192981
  21 H :    0.031054
  22 C :   -0.019662
  23 H :    0.018953
  24 H :    0.038861
  25 C :   -0.037285
  26 H :    0.026770
  27 H :    0.017222
  28 C :   -0.069848
  29 H :    0.024196
  30 H :    0.019922
  31 H :    0.028109
  32 H :    0.023549
  33 H :    0.040272

  Mayer bond orders larger than 0.100000
B(  0-S ,  1-C ) :   1.1578 B(  0-S ,  4-C ) :   1.1456 B(  1-C ,  2-C ) :   1.5951
B(  1-C , 32-H ) :   0.9688 B(  2-C ,  3-C ) :   1.2311 B(  2-C ,  6-C ) :   1.0292
B(  3-C ,  4-C ) :   1.5956 B(  3-C ,  5-H ) :   0.9911 B(  4-C , 20-C ) :   1.0112
B(  6-C ,  7-H ) :   0.9411 B(  6-C ,  8-H ) :   0.9412 B(  6-C ,  9-C ) :   1.0656
B(  9-C , 10-H ) :   0.9627 B(  9-C , 11-H ) :   0.9528 B(  9-C , 12-C ) :   1.0785
B( 12-C , 13-H ) :   0.9748 B( 12-C , 14-H ) :   0.9616 B( 12-C , 15-H ) :   0.9769
B( 16-S , 17-C ) :   1.1341 B( 16-S , 20-C ) :   1.1166 B( 17-C , 18-C ) :   1.6517
B( 17-C , 33-H ) :   0.9602 B( 18-C , 19-C ) :   1.2220 B( 18-C , 21-H ) :   0.9826
B( 19-C , 20-C ) :   1.6423 B( 19-C , 22-C ) :   1.0419 B( 22-C , 23-H ) :   0.9303
B( 22-C , 24-H ) :   0.9429 B( 22-C , 25-C ) :   1.0515 B( 25-C , 26-H ) :   0.9624
B( 25-C , 27-H ) :   0.9560 B( 25-C , 28-C ) :   1.0849 B( 28-C , 29-H ) :   0.9738
B( 28-C , 30-H ) :   0.9735 B( 28-C , 31-H ) :   0.9732

Dispersion correction           -0.014640981
FINAL SINGLE POINT ENERGY     -1339.853040941722

DIPOLE MOMENT
-------------
                                X             Y             Z
Electronic contribution:      6.58988      10.99889     -17.92204
Nuclear contribution   :     -6.74871     -11.48263      18.32099
                        -----------------------------------------
Total Dipole Moment    :     -0.15883      -0.48374       0.39895
                        -----------------------------------------
Magnitude (a.u.)       :      0.64683
Magnitude (Debye)      :      1.64412

Rotational constants in cm-1:     0.017383     0.008771     0.007384
Rotational constants in MHz :   521.135017   262.941116   221.352376

                             ****ORCA TERMINATED NORMALLY****
TOTAL RUN TIME: 0 days 0 hours 0 minutes 21 seconds 839 msec
