                         Program Version 4.2.1 -  RELEASE  -
|  1> ! wB97X-D3 SP def2-SVP
|  2> %pal
|  3> nprocs 24
|  4> end
|  5>
|  6> * xyz 0 1
|  7> S 	 -56.6322 	 -1.83502 	 -32.284
|  8> C 	 -57.4192 	 -0.496877 	 -33.0544
|  9> C 	 -58.4629 	 0.0657086 	 -32.3678
| 10> C 	 -58.6581 	 -0.601919 	 -31.1578
| 11> C 	 -57.6977 	 -1.53938 	 -30.9417
| 12> H 	 -59.4019 	 -0.392786 	 -30.4838
| 13> C 	 -59.3559 	 1.1803 	 -32.7527
| 14> H 	 -60.2843 	 0.749667 	 -33.2338
| 15> H 	 -58.8323 	 1.57333 	 -33.7095
| 16> C 	 -59.7074 	 2.22664 	 -31.6751
| 17> H 	 -60.2534 	 1.75815 	 -30.8755
| 18> H 	 -58.8139 	 2.59082 	 -31.2137
| 19> C 	 -60.6701 	 3.29359 	 -32.1471
| 20> H 	 -61.5565 	 3.05846 	 -32.6984
| 21> H 	 -60.7974 	 4.09192 	 -31.3842
| 22> H 	 -59.9617 	 3.7087 	 -32.8834
| 23> S 	 -58.1503 	 -4.05482 	 -29.7486
| 24> C 	 -57.7011 	 -4.35101 	 -28.0985
| 25> C 	 -57.1055 	 -3.20281 	 -27.5905
| 26> C 	 -56.9999 	 -2.0727 	 -28.5086
| 27> C 	 -57.5232 	 -2.36685 	 -29.7322
| 28> H 	 -56.695 	 -3.22764 	 -26.5931
| 29> C 	 -56.2129 	 -0.748202 	 -28.2513
| 30> H 	 -55.7634 	 -0.251402 	 -29.1093
| 31> H 	 -55.2939 	 -0.917298 	 -27.7819
| 32> C 	 -57.0684 	 0.276297 	 -27.4378
| 33> H 	 -57.6641 	 -0.0717401 	 -26.6387
| 34> H 	 -57.7463 	 0.708277 	 -28.2809
| 35> C 	 -56.1591 	 1.41079 	 -26.8848
| 36> H 	 -55.7854 	 1.99757 	 -27.7327
| 37> H 	 -55.2933 	 0.988171 	 -26.3513
| 38> H 	 -56.6768 	 2.16774 	 -26.2717
| 39> H 	 -57.0051 	 -0.156395 	 -34.009
| 40> H 	 -57.7485 	 -5.23932 	 -27.4894
| 41> *
| 42>
| 43>                          ****END OF INPUT****

CARTESIAN COORDINATES (ANGSTROEM)
---------------------------------
  S    -56.632200   -1.835020  -32.284000
  C    -57.419200   -0.496877  -33.054400
  C    -58.462900    0.065709  -32.367800
  C    -58.658100   -0.601919  -31.157800
  C    -57.697700   -1.539380  -30.941700
  H    -59.401900   -0.392786  -30.483800
  C    -59.355900    1.180300  -32.752700
  H    -60.284300    0.749667  -33.233800
  H    -58.832300    1.573330  -33.709500
  C    -59.707400    2.226640  -31.675100
  H    -60.253400    1.758150  -30.875500
  H    -58.813900    2.590820  -31.213700
  C    -60.670100    3.293590  -32.147100
  H    -61.556500    3.058460  -32.698400
  H    -60.797400    4.091920  -31.384200
  H    -59.961700    3.708700  -32.883400
  S    -58.150300   -4.054820  -29.748600
  C    -57.701100   -4.351010  -28.098500
  C    -57.105500   -3.202810  -27.590500
  C    -56.999900   -2.072700  -28.508600
  C    -57.523200   -2.366850  -29.732200
  H    -56.695000   -3.227640  -26.593100
  C    -56.212900   -0.748202  -28.251300
  H    -55.763400   -0.251402  -29.109300
  H    -55.293900   -0.917298  -27.781900
  C    -57.068400    0.276297  -27.437800
  H    -57.664100   -0.071740  -26.638700
  H    -57.746300    0.708277  -28.280900
  C    -56.159100    1.410790  -26.884800
  H    -55.785400    1.997570  -27.732700
  H    -55.293300    0.988171  -26.351300
  H    -56.676800    2.167740  -26.271700
  H    -57.005100   -0.156395  -34.009000
  H    -57.748500   -5.239320  -27.489400

 Total Charge           Charge          ....    0
 Multiplicity           Mult            ....    1
 Number of Electrons    NEL             ....  134
 Basis Dimension        Dim             ....  322

ORBITAL ENERGIES
----------------

  NO   OCC          E(Eh)            E(eV)
   0   2.0000     -88.968176     -2420.9471
   1   2.0000     -88.959478     -2420.7105
   2   2.0000     -10.324078      -280.9324
   3   2.0000     -10.323423      -280.9146
   4   2.0000     -10.316490      -280.7260
   5   2.0000     -10.311756      -280.5971
   6   2.0000     -10.305771      -280.4343
   7   2.0000     -10.302550      -280.3466
   8   2.0000     -10.294698      -280.1330
   9   2.0000     -10.293546      -280.1016
  10   2.0000     -10.290798      -280.0268
  11   2.0000     -10.290506      -280.0189
  12   2.0000     -10.289392      -279.9886
  13   2.0000     -10.282799      -279.8092
  14   2.0000     -10.280827      -279.7555
  15   2.0000     -10.279963      -279.7320
  16   2.0000      -8.083695      -219.9685
  17   2.0000      -8.073814      -219.6997
  18   2.0000      -6.041876      -164.4078
  19   2.0000      -6.038326      -164.3112
  20   2.0000      -6.034509      -164.2073
  21   2.0000      -6.032450      -164.1513
  22   2.0000      -6.028324      -164.0390
  23   2.0000      -6.024507      -163.9352
  24   2.0000      -1.010441       -27.4955
  25   2.0000      -0.981873       -26.7181
  26   2.0000      -0.918066       -24.9818
  27   2.0000      -0.900255       -24.4972
  28   2.0000      -0.870287       -23.6817
  29   2.0000      -0.859516       -23.3886
  30   2.0000      -0.839575       -22.8460
  31   2.0000      -0.814650       -22.1677
  32   2.0000      -0.780577       -21.2406
  33   2.0000      -0.770156       -20.9570
  34   2.0000      -0.712151       -19.3786
  35   2.0000      -0.697222       -18.9724
  36   2.0000      -0.691227       -18.8092
  37   2.0000      -0.656061       -17.8523
  38   2.0000      -0.649322       -17.6689
  39   2.0000      -0.626962       -17.0605
  40   2.0000      -0.595518       -16.2049
  41   2.0000      -0.572528       -15.5793
  42   2.0000      -0.560891       -15.2626
  43   2.0000      -0.555783       -15.1236
  44   2.0000      -0.534226       -14.5370
  45   2.0000      -0.521763       -14.1979
  46   2.0000      -0.520009       -14.1502
  47   2.0000      -0.509339       -13.8598
  48   2.0000      -0.508595       -13.8396
  49   2.0000      -0.504552       -13.7296
  50   2.0000      -0.483355       -13.1528
  51   2.0000      -0.477065       -12.9816
  52   2.0000      -0.475957       -12.9514
  53   2.0000      -0.463129       -12.6024
  54   2.0000      -0.453092       -12.3293
  55   2.0000      -0.448169       -12.1953
  56   2.0000      -0.441562       -12.0155
  57   2.0000      -0.440146       -11.9770
  58   2.0000      -0.438705       -11.9378
  59   2.0000      -0.436671       -11.8824
  60   2.0000      -0.411860       -11.2073
  61   2.0000      -0.409338       -11.1386
  62   2.0000      -0.400367       -10.8945
  63   2.0000      -0.340201        -9.2573
  64   2.0000      -0.327209        -8.9038
  65   2.0000      -0.322855        -8.7853
  66   2.0000      -0.307107        -8.3568
  67   0.0000       0.045945         1.2502
  68   0.0000       0.059787         1.6269
  69   0.0000       0.115052         3.1307
  70   0.0000       0.124038         3.3752
  71   0.0000       0.129094         3.5128

MULLIKEN ATOMIC CHARGES
-----------------------
   0 S :    0.130074
   1 C :   -0.141064
   2 C :   -0.053824
   3 C :    0.078646
   4 C :   -0.176561
   5 H :   -0.020802
   6 C :    0.027556
   7 H :    0.047432
   8 H :    0.021181
   9 C :   -0.056886
  10 H :    0.025665
  11 H :    0.032114
  12 C :   -0.047288
  13 H :    0.041512
  14 H :    0.044915
  15 H :    0.017329
  16 S :    0.095306
  17 C :   -0.077723
  18 C :   -0.051972
  19 C :    0.027858
  20 C :   -0.187518
  21 H :    0.013556
  22 C :    0.072747
  23 H :    0.023397
  24 H :   -0.000192
  25 C :   -0.098676
  26 H :    0.036137
  27 H :    0.041558
  28 C :   -0.065467
  29 H :    0.025062
  30 H :    0.037480
  31 H :    0.039319
  32 H :    0.042463
  33 H :    0.056663
Sum of atomic charges:    0.0000000

LOEWDIN ATOMIC CHARGES
----------------------
   0 S :    0.421995
   1 C :   -0.198405
   2 C :   -0.071475
   3 C :   -0.040214
   4 C :   -0.191460
   5 H :    0.020143
   6 C :   -0.041794
   7 H :    0.041682
   8 H :    0.036115
   9 C :   -0.038612
  10 H :    0.018856
  11 H :    0.026215
  12 C :   -0.069380
  13 H :    0.025176
  14 H :    0.033605
  15 H :    0.030129
  16 S :    0.380672
  17 C :   -0.191691
  18 C :   -0.074358
  19 C :   -0.052070
  20 C :   -0.188729
  21 H :    0.026460
  22 C :   -0.026817
  23 H :    0.034967
  24 H :    0.018193
  25 C :   -0.039019
  26 H :    0.016357
  27 H :    0.033800
  28 C :   -0.074129
  29 H :    0.024677
  30 H :    0.024739
  31 H :    0.026881
  32 H :    0.022353
  33 H :    0.035138

  Mayer bond orders larger than 0.100000
B(  0-S ,  1-C ) :   1.1458 B(  0-S ,  4-C ) :   1.1652 B(  1-C ,  2-C ) :   1.6137
B(  1-C , 32-H ) :   0.9621 B(  2-C ,  3-C ) :   1.2270 B(  2-C ,  6-C ) :   1.0309
B(  3-C ,  4-C ) :   1.6020 B(  3-C ,  5-H ) :   1.0117 B(  4-C , 20-C ) :   0.9824
B(  6-C ,  7-H ) :   0.9286 B(  6-C ,  8-H ) :   0.9360 B(  6-C ,  9-C ) :   1.0539
B(  9-C , 10-H ) :   0.9465 B(  9-C , 11-H ) :   0.9590 B(  9-C , 12-C ) :   1.0704
B( 12-C , 13-H ) :   0.9760 B( 12-C , 14-H ) :   0.9719 B( 12-C , 15-H ) :   0.9763
B( 16-S , 17-C ) :   1.1404 B( 16-S , 20-C ) :   1.1296 B( 17-C , 18-C ) :   1.6362
B( 17-C , 33-H ) :   0.9679 B( 18-C , 19-C ) :   1.2147 B( 18-C , 21-H ) :   0.9863
B( 19-C , 20-C ) :   1.6501 B( 19-C , 22-C ) :   1.0207 B( 22-C , 23-H ) :   0.9408
B( 22-C , 24-H ) :   0.9472 B( 22-C , 25-C ) :   1.0351 B( 25-C , 26-H ) :   0.9703
B( 25-C , 27-H ) :   0.9561 B( 25-C , 28-C ) :   1.0717 B( 28-C , 29-H ) :   0.9740
B( 28-C , 30-H ) :   0.9769 B( 28-C , 31-H ) :   0.9755

Dispersion correction           -0.014216242
FINAL SINGLE POINT ENERGY     -1339.856612513516

DIPOLE MOMENT
-------------
                                X             Y             Z
Electronic contribution:      5.03269     -29.28604      -7.57959
Nuclear contribution   :     -5.04376      29.88586       7.76016
                        -----------------------------------------
Total Dipole Moment    :     -0.01106       0.59982       0.18058
                        -----------------------------------------
Magnitude (a.u.)       :      0.62651
Magnitude (Debye)      :      1.59247

Rotational constants in cm-1:     0.016414     0.009097     0.007009
Rotational constants in MHz :   492.078190   272.731725   210.135421

                             ****ORCA TERMINATED NORMALLY****
TOTAL RUN TIME: 0 days 0 hours 0 minutes 21 seconds 581 msec
