                         Program Version 4.2.1 -  RELEASE  -
|  1> ! wB97X-D3 SP def2-SVP
|  2> %pal
|  3> nprocs 24
|  4> end
|  5>
|  6> * xyz 0 1
|  7> S 	 -128.808 	 64.5732 	 -56.0217
|  8> C 	 -129.445 	 66.1782 	 -55.6567
|  9> C 	 -130.094 	 66.7476 	 -56.7311
| 10> C 	 -130.049 	 65.8935 	 -57.8914
| 11> C 	 -129.36 	 64.67 	 -57.6977
| 12> H 	 -130.275 	 66.2963 	 -58.8925
| 13> C 	 -130.491 	 68.2109 	 -56.7515
| 14> H 	 -130.393 	 68.5687 	 -55.6941
| 15> H 	 -131.563 	 68.1974 	 -56.8932
| 16> C 	 -129.782 	 69.0275 	 -57.8801
| 17> H 	 -129.896 	 68.6161 	 -58.7759
| 18> H 	 -130.347 	 69.8807 	 -58.0079
| 19> C 	 -128.293 	 69.3987 	 -57.5714
| 20> H 	 -128.218 	 69.9953 	 -56.641
| 21> H 	 -127.61 	 68.5506 	 -57.3679
| 22> H 	 -127.757 	 69.9286 	 -58.347
| 23> S 	 -130.258 	 62.319 	 -58.8023
| 24> C 	 -129.382 	 61.5571 	 -60.1133
| 25> C 	 -128.213 	 62.2556 	 -60.4011
| 26> C 	 -128.02 	 63.4556 	 -59.6498
| 27> C 	 -129.095 	 63.6265 	 -58.662
| 28> H 	 -127.547 	 61.9959 	 -61.2104
| 29> C 	 -126.879 	 64.3978 	 -59.9644
| 30> H 	 -126.676 	 64.3234 	 -61.0273
| 31> H 	 -126.015 	 63.9754 	 -59.5175
| 32> C 	 -127.083 	 65.9237 	 -59.5669
| 33> H 	 -127.504 	 65.9479 	 -58.5325
| 34> H 	 -127.872 	 66.3004 	 -60.1193
| 35> C 	 -125.837 	 66.7407 	 -59.8051
| 36> H 	 -125.061 	 66.424 	 -59.1327
| 37> H 	 -126.147 	 67.7764 	 -59.6622
| 38> H 	 -125.514 	 66.7913 	 -60.9394
| 39> H 	 -129.362 	 66.8026 	 -54.7385
| 40> H 	 -129.872 	 60.693 	 -60.6474
| 41> *
| 42>
| 43>                          ****END OF INPUT****

CARTESIAN COORDINATES (ANGSTROEM)
---------------------------------
  S    -128.808000   64.573200  -56.021700
  C    -129.445000   66.178200  -55.656700
  C    -130.094000   66.747600  -56.731100
  C    -130.049000   65.893500  -57.891400
  C    -129.360000   64.670000  -57.697700
  H    -130.275000   66.296300  -58.892500
  C    -130.491000   68.210900  -56.751500
  H    -130.393000   68.568700  -55.694100
  H    -131.563000   68.197400  -56.893200
  C    -129.782000   69.027500  -57.880100
  H    -129.896000   68.616100  -58.775900
  H    -130.347000   69.880700  -58.007900
  C    -128.293000   69.398700  -57.571400
  H    -128.218000   69.995300  -56.641000
  H    -127.610000   68.550600  -57.367900
  H    -127.757000   69.928600  -58.347000
  S    -130.258000   62.319000  -58.802300
  C    -129.382000   61.557100  -60.113300
  C    -128.213000   62.255600  -60.401100
  C    -128.020000   63.455600  -59.649800
  C    -129.095000   63.626500  -58.662000
  H    -127.547000   61.995900  -61.210400
  C    -126.879000   64.397800  -59.964400
  H    -126.676000   64.323400  -61.027300
  H    -126.015000   63.975400  -59.517500
  C    -127.083000   65.923700  -59.566900
  H    -127.504000   65.947900  -58.532500
  H    -127.872000   66.300400  -60.119300
  C    -125.837000   66.740700  -59.805100
  H    -125.061000   66.424000  -59.132700
  H    -126.147000   67.776400  -59.662200
  H    -125.514000   66.791300  -60.939400
  H    -129.362000   66.802600  -54.738500
  H    -129.872000   60.693000  -60.647400

 Total Charge           Charge          ....    0
 Multiplicity           Mult            ....    1
 Number of Electrons    NEL             ....  134
 Basis Dimension        Dim             ....  322

ORBITAL ENERGIES
----------------

  NO   OCC          E(Eh)            E(eV)
   0   2.0000     -88.968378     -2420.9526
   1   2.0000     -88.965478     -2420.8737
   2   2.0000     -10.333341      -281.1845
   3   2.0000     -10.329870      -281.0901
   4   2.0000     -10.324675      -280.9487
   5   2.0000     -10.315498      -280.6990
   6   2.0000     -10.312304      -280.6121
   7   2.0000     -10.299600      -280.2664
   8   2.0000     -10.299418      -280.2614
   9   2.0000     -10.297381      -280.2060
  10   2.0000     -10.295779      -280.1624
  11   2.0000     -10.289086      -279.9803
  12   2.0000     -10.283498      -279.8282
  13   2.0000     -10.283368      -279.8247
  14   2.0000     -10.282826      -279.8099
  15   2.0000     -10.279333      -279.7149
  16   2.0000      -8.081960      -219.9213
  17   2.0000      -8.079936      -219.8662
  18   2.0000      -6.040533      -164.3713
  19   2.0000      -6.038297      -164.3104
  20   2.0000      -6.036531      -164.2624
  21   2.0000      -6.034257      -164.2005
  22   2.0000      -6.032799      -164.1608
  23   2.0000      -6.031098      -164.1145
  24   2.0000      -0.996985       -27.1293
  25   2.0000      -0.976052       -26.5597
  26   2.0000      -0.910302       -24.7706
  27   2.0000      -0.903483       -24.5850
  28   2.0000      -0.866686       -23.5837
  29   2.0000      -0.850453       -23.1420
  30   2.0000      -0.841171       -22.8894
  31   2.0000      -0.808683       -22.0054
  32   2.0000      -0.782459       -21.2918
  33   2.0000      -0.767701       -20.8902
  34   2.0000      -0.722339       -19.6558
  35   2.0000      -0.706573       -19.2268
  36   2.0000      -0.688130       -18.7250
  37   2.0000      -0.654291       -17.8042
  38   2.0000      -0.630525       -17.1575
  39   2.0000      -0.615696       -16.7539
  40   2.0000      -0.594400       -16.1744
  41   2.0000      -0.565383       -15.3848
  42   2.0000      -0.563267       -15.3273
  43   2.0000      -0.552453       -15.0330
  44   2.0000      -0.534228       -14.5371
  45   2.0000      -0.522257       -14.2113
  46   2.0000      -0.513168       -13.9640
  47   2.0000      -0.508848       -13.8465
  48   2.0000      -0.502539       -13.6748
  49   2.0000      -0.493490       -13.4285
  50   2.0000      -0.484063       -13.1720
  51   2.0000      -0.479077       -13.0363
  52   2.0000      -0.471984       -12.8433
  53   2.0000      -0.464125       -12.6295
  54   2.0000      -0.457045       -12.4368
  55   2.0000      -0.452302       -12.3078
  56   2.0000      -0.445492       -12.1225
  57   2.0000      -0.442564       -12.0428
  58   2.0000      -0.435743       -11.8572
  59   2.0000      -0.431048       -11.7294
  60   2.0000      -0.424244       -11.5443
  61   2.0000      -0.415756       -11.3133
  62   2.0000      -0.404857       -11.0167
  63   2.0000      -0.334532        -9.1031
  64   2.0000      -0.327365        -8.9081
  65   2.0000      -0.312490        -8.5033
  66   2.0000      -0.305337        -8.3086
  67   0.0000       0.041007         1.1159
  68   0.0000       0.046903         1.2763
  69   0.0000       0.117004         3.1839
  70   0.0000       0.121464         3.3052
  71   0.0000       0.126890         3.4529

MULLIKEN ATOMIC CHARGES
-----------------------
   0 S :    0.126352
   1 C :   -0.129366
   2 C :   -0.114764
   3 C :    0.044996
   4 C :   -0.215664
   5 H :    0.024457
   6 C :    0.046342
   7 H :    0.021840
   8 H :    0.031865
   9 C :    0.048861
  10 H :   -0.015024
  11 H :    0.004989
  12 C :   -0.077981
  13 H :    0.029645
  14 H :    0.040291
  15 H :    0.035250
  16 S :    0.119775
  17 C :   -0.122854
  18 C :   -0.024999
  19 C :   -0.022656
  20 C :   -0.187830
  21 H :    0.017174
  22 C :    0.082673
  23 H :    0.015906
  24 H :    0.024681
  25 C :   -0.092220
  26 H :    0.072180
  27 H :    0.004995
  28 C :   -0.039686
  29 H :    0.042893
  30 H :    0.026946
  31 H :    0.039436
  32 H :    0.054322
  33 H :    0.087173
Sum of atomic charges:    0.0000000

LOEWDIN ATOMIC CHARGES
----------------------
   0 S :    0.400403
   1 C :   -0.205621
   2 C :   -0.072692
   3 C :   -0.057036
   4 C :   -0.205607
   5 H :    0.031417
   6 C :   -0.025832
   7 H :    0.033489
   8 H :    0.032595
   9 C :   -0.019218
  10 H :    0.006241
  11 H :    0.021071
  12 C :   -0.069619
  13 H :    0.028333
  14 H :    0.028958
  15 H :    0.024026
  16 S :    0.419554
  17 C :   -0.194206
  18 C :   -0.077084
  19 C :   -0.039978
  20 C :   -0.223655
  21 H :    0.030473
  22 C :   -0.029244
  23 H :    0.028868
  24 H :    0.029349
  25 C :   -0.039802
  26 H :    0.034346
  27 H :    0.011249
  28 C :   -0.068165
  29 H :    0.024584
  30 H :    0.026220
  31 H :    0.037092
  32 H :    0.037336
  33 H :    0.042156

  Mayer bond orders larger than 0.100000
B(  0-S ,  1-C ) :   1.1344 B(  0-S ,  4-C ) :   1.1437 B(  1-C ,  2-C ) :   1.6275
B(  1-C , 32-H ) :   0.9544 B(  2-C ,  3-C ) :   1.2458 B(  2-C ,  6-C ) :   1.0237
B(  3-C ,  4-C ) :   1.5791 B(  3-C ,  5-H ) :   0.9846 B(  4-C , 20-C ) :   1.0376
B(  6-C ,  7-H ) :   0.9469 B(  6-C ,  8-H ) :   0.9297 B(  6-C ,  9-C ) :   1.0679
B(  9-C , 10-H ) :   0.9510 B(  9-C , 11-H ) :   0.9442 B(  9-C , 12-C ) :   1.0592
B( 12-C , 13-H ) :   0.9748 B( 12-C , 14-H ) :   0.9772 B( 12-C , 15-H ) :   0.9760
B( 16-S , 17-C ) :   1.1814 B( 16-S , 20-C ) :   1.1700 B( 17-C , 18-C ) :   1.5490
B( 17-C , 20-C ) :   0.1132 B( 17-C , 33-H ) :   0.9624 B( 18-C , 19-C ) :   1.2988
B( 18-C , 21-H ) :   0.9875 B( 19-C , 20-C ) :   1.5194 B( 19-C , 22-C ) :   1.0316
B( 22-C , 23-H ) :   0.9368 B( 22-C , 24-H ) :   0.9257 B( 22-C , 25-C ) :   1.0563
B( 25-C , 26-H ) :   0.9434 B( 25-C , 27-H ) :   0.9536 B( 25-C , 28-C ) :   1.0937
B( 28-C , 29-H ) :   0.9751 B( 28-C , 30-H ) :   0.9687 B( 28-C , 31-H ) :   0.9682

Dispersion correction           -0.016586079
FINAL SINGLE POINT ENERGY     -1339.858879517978

DIPOLE MOMENT
-------------
                                X             Y             Z
Electronic contribution:    -11.47859     -26.66575       7.57653
Nuclear contribution   :     11.62643      27.30026      -8.02109
                        -----------------------------------------
Total Dipole Moment    :      0.14784       0.63451      -0.44457
                        -----------------------------------------
Magnitude (a.u.)       :      0.78873
Magnitude (Debye)      :      2.00480

Rotational constants in cm-1:     0.019562     0.009844     0.007736
Rotational constants in MHz :   586.455844   295.103663   231.933485

                             ****ORCA TERMINATED NORMALLY****
TOTAL RUN TIME: 0 days 0 hours 0 minutes 23 seconds 148 msec
