                         Program Version 4.2.1 -  RELEASE  -
|  1> ! wB97X-D3 SP def2-SVP
|  2> %pal
|  3> nprocs 24
|  4> end
|  5>
|  6> * xyz 0 1
|  7> S 	 -63.7339 	 16.7363 	 -118.144
|  8> C 	 -64.3712 	 15.1924 	 -117.616
|  9> C 	 -63.3274 	 14.4128 	 -117.143
| 10> C 	 -62.1245 	 15.1419 	 -117.059
| 11> C 	 -62.1828 	 16.5087 	 -117.452
| 12> H 	 -61.173 	 14.7729 	 -116.64
| 13> C 	 -63.4342 	 12.9706 	 -116.641
| 14> H 	 -62.5095 	 12.4259 	 -116.999
| 15> H 	 -64.2309 	 12.5274 	 -117.169
| 16> C 	 -63.6045 	 12.8285 	 -115.128
| 17> H 	 -62.6992 	 12.9491 	 -114.56
| 18> H 	 -64.4394 	 13.4028 	 -114.831
| 19> C 	 -64.1259 	 11.4038 	 -114.765
| 20> H 	 -64.3541 	 11.2749 	 -113.685
| 21> H 	 -65.0454 	 11.1815 	 -115.315
| 22> H 	 -63.42 	 10.6261 	 -115.132
| 23> S 	 -60.8182 	 18.5545 	 -118.717
| 24> C 	 -59.6882 	 19.5407 	 -117.878
| 25> C 	 -59.5984 	 19.167 	 -116.556
| 26> C 	 -60.4091 	 18.074 	 -116.261
| 27> C 	 -61.2638 	 17.6644 	 -117.294
| 28> H 	 -58.9237 	 19.6246 	 -115.865
| 29> C 	 -60.2114 	 17.3721 	 -114.86
| 30> H 	 -61.0496 	 16.7741 	 -114.524
| 31> H 	 -60.1829 	 18.2131 	 -114.193
| 32> C 	 -58.8933 	 16.5906 	 -114.633
| 33> H 	 -58.0274 	 17.0699 	 -115.078
| 34> H 	 -59.0578 	 15.6118 	 -115.027
| 35> C 	 -58.6283 	 16.4587 	 -113.121
| 36> H 	 -57.672 	 15.9381 	 -113.063
| 37> H 	 -59.2736 	 15.8987 	 -112.487
| 38> H 	 -58.2886 	 17.4386 	 -112.693
| 39> H 	 -65.4399 	 14.8958 	 -117.746
| 40> H 	 -59.1585 	 20.4093 	 -118.244
| 41> *
| 42>
| 43>                          ****END OF INPUT****

CARTESIAN COORDINATES (ANGSTROEM)
---------------------------------
  S    -63.733900   16.736300  -118.144000
  C    -64.371200   15.192400  -117.616000
  C    -63.327400   14.412800  -117.143000
  C    -62.124500   15.141900  -117.059000
  C    -62.182800   16.508700  -117.452000
  H    -61.173000   14.772900  -116.640000
  C    -63.434200   12.970600  -116.641000
  H    -62.509500   12.425900  -116.999000
  H    -64.230900   12.527400  -117.169000
  C    -63.604500   12.828500  -115.128000
  H    -62.699200   12.949100  -114.560000
  H    -64.439400   13.402800  -114.831000
  C    -64.125900   11.403800  -114.765000
  H    -64.354100   11.274900  -113.685000
  H    -65.045400   11.181500  -115.315000
  H    -63.420000   10.626100  -115.132000
  S    -60.818200   18.554500  -118.717000
  C    -59.688200   19.540700  -117.878000
  C    -59.598400   19.167000  -116.556000
  C    -60.409100   18.074000  -116.261000
  C    -61.263800   17.664400  -117.294000
  H    -58.923700   19.624600  -115.865000
  C    -60.211400   17.372100  -114.860000
  H    -61.049600   16.774100  -114.524000
  H    -60.182900   18.213100  -114.193000
  C    -58.893300   16.590600  -114.633000
  H    -58.027400   17.069900  -115.078000
  H    -59.057800   15.611800  -115.027000
  C    -58.628300   16.458700  -113.121000
  H    -57.672000   15.938100  -113.063000
  H    -59.273600   15.898700  -112.487000
  H    -58.288600   17.438600  -112.693000
  H    -65.439900   14.895800  -117.746000
  H    -59.158500   20.409300  -118.244000

 Total Charge           Charge          ....    0
 Multiplicity           Mult            ....    1
 Number of Electrons    NEL             ....  134
 Basis Dimension        Dim             ....  322

ORBITAL ENERGIES
----------------

  NO   OCC          E(Eh)            E(eV)
   0   2.0000     -88.966762     -2420.9087
   1   2.0000     -88.963377     -2420.8166
   2   2.0000     -10.333350      -281.1847
   3   2.0000     -10.330103      -281.0964
   4   2.0000     -10.318908      -280.7918
   5   2.0000     -10.315935      -280.7109
   6   2.0000     -10.304118      -280.3893
   7   2.0000     -10.301976      -280.3310
   8   2.0000     -10.297214      -280.2014
   9   2.0000     -10.294947      -280.1397
  10   2.0000     -10.288732      -279.9706
  11   2.0000     -10.288457      -279.9631
  12   2.0000     -10.287973      -279.9500
  13   2.0000     -10.285298      -279.8772
  14   2.0000     -10.282849      -279.8105
  15   2.0000     -10.279529      -279.7202
  16   2.0000      -8.082112      -219.9254
  17   2.0000      -8.078759      -219.8342
  18   2.0000      -6.040583      -164.3726
  19   2.0000      -6.037174      -164.2799
  20   2.0000      -6.036341      -164.2572
  21   2.0000      -6.033066      -164.1681
  22   2.0000      -6.032934      -164.1645
  23   2.0000      -6.029815      -164.0796
  24   2.0000      -1.009991       -27.4832
  25   2.0000      -0.990357       -26.9490
  26   2.0000      -0.913341       -24.8533
  27   2.0000      -0.905883       -24.6503
  28   2.0000      -0.869822       -23.6691
  29   2.0000      -0.851163       -23.1613
  30   2.0000      -0.843910       -22.9640
  31   2.0000      -0.811332       -22.0775
  32   2.0000      -0.781006       -21.2523
  33   2.0000      -0.771750       -21.0004
  34   2.0000      -0.706148       -19.2153
  35   2.0000      -0.699984       -19.0475
  36   2.0000      -0.693408       -18.8686
  37   2.0000      -0.663117       -18.0443
  38   2.0000      -0.640127       -17.4187
  39   2.0000      -0.620307       -16.8794
  40   2.0000      -0.597249       -16.2520
  41   2.0000      -0.576309       -15.6822
  42   2.0000      -0.568394       -15.4668
  43   2.0000      -0.565217       -15.3803
  44   2.0000      -0.527772       -14.3614
  45   2.0000      -0.519932       -14.1481
  46   2.0000      -0.515464       -14.0265
  47   2.0000      -0.510950       -13.9037
  48   2.0000      -0.505274       -13.7492
  49   2.0000      -0.502854       -13.6834
  50   2.0000      -0.489674       -13.3247
  51   2.0000      -0.482266       -13.1231
  52   2.0000      -0.474291       -12.9061
  53   2.0000      -0.467074       -12.7097
  54   2.0000      -0.458321       -12.4715
  55   2.0000      -0.448207       -12.1963
  56   2.0000      -0.442295       -12.0355
  57   2.0000      -0.437700       -11.9104
  58   2.0000      -0.433475       -11.7955
  59   2.0000      -0.429251       -11.6805
  60   2.0000      -0.425117       -11.5680
  61   2.0000      -0.412529       -11.2255
  62   2.0000      -0.407986       -11.1019
  63   2.0000      -0.347777        -9.4635
  64   2.0000      -0.331319        -9.0156
  65   2.0000      -0.328579        -8.9411
  66   2.0000      -0.292395        -7.9565
  67   0.0000       0.028926         0.7871
  68   0.0000       0.068527         1.8647
  69   0.0000       0.113185         3.0799
  70   0.0000       0.125303         3.4097
  71   0.0000       0.129745         3.5305

MULLIKEN ATOMIC CHARGES
-----------------------
   0 S :    0.107357
   1 C :   -0.148409
   2 C :   -0.083808
   3 C :    0.022143
   4 C :   -0.159751
   5 H :    0.010810
   6 C :    0.063449
   7 H :    0.036443
   8 H :    0.004864
   9 C :   -0.019581
  10 H :    0.037313
  11 H :    0.026135
  12 C :   -0.094902
  13 H :    0.047378
  14 H :    0.023134
  15 H :    0.029381
  16 S :    0.113512
  17 C :   -0.078701
  18 C :   -0.038290
  19 C :   -0.033830
  20 C :   -0.132050
  21 H :    0.010569
  22 C :    0.058831
  23 H :    0.026841
  24 H :    0.008575
  25 C :   -0.045698
  26 H :    0.030239
  27 H :    0.025523
  28 C :   -0.062183
  29 H :    0.018945
  30 H :    0.039367
  31 H :    0.031397
  32 H :    0.068307
  33 H :    0.056690
Sum of atomic charges:   -0.0000000

LOEWDIN ATOMIC CHARGES
----------------------
   0 S :    0.427175
   1 C :   -0.205755
   2 C :   -0.069859
   3 C :   -0.070294
   4 C :   -0.207628
   5 H :    0.030317
   6 C :   -0.027455
   7 H :    0.038882
   8 H :    0.021621
   9 C :   -0.031749
  10 H :    0.025229
  11 H :    0.023560
  12 C :   -0.071632
  13 H :    0.029023
  14 H :    0.020364
  15 H :    0.023412
  16 S :    0.432737
  17 C :   -0.191932
  18 C :   -0.074660
  19 C :   -0.053367
  20 C :   -0.214824
  21 H :    0.029560
  22 C :   -0.029287
  23 H :    0.027848
  24 H :    0.023628
  25 C :   -0.030603
  26 H :    0.026220
  27 H :    0.019128
  28 C :   -0.069753
  29 H :    0.027918
  30 H :    0.020928
  31 H :    0.029904
  32 H :    0.038890
  33 H :    0.032454

  Mayer bond orders larger than 0.100000
B(  0-S ,  1-C ) :   1.1603 B(  0-S ,  4-C ) :   1.1895 B(  1-C ,  2-C ) :   1.5591
B(  1-C ,  4-C ) :   0.1142 B(  1-C , 32-H ) :   0.9693 B(  2-C ,  3-C ) :   1.2788
B(  2-C ,  6-C ) :   1.0240 B(  3-C ,  4-C ) :   1.5242 B(  3-C ,  5-H ) :   0.9991
B(  4-C , 20-C ) :   0.9998 B(  6-C ,  7-H ) :   0.9370 B(  6-C ,  8-H ) :   0.9412
B(  6-C ,  9-C ) :   1.0726 B(  9-C , 10-H ) :   0.9563 B(  9-C , 11-H ) :   0.9557
B(  9-C , 12-C ) :   1.0774 B( 12-C , 13-H ) :   0.9762 B( 12-C , 14-H ) :   0.9767
B( 12-C , 15-H ) :   0.9749 B( 16-S , 17-C ) :   1.1822 B( 16-S , 20-C ) :   1.1553
B( 17-C , 18-C ) :   1.5616 B( 17-C , 20-C ) :   0.1069 B( 17-C , 33-H ) :   0.9662
B( 18-C , 19-C ) :   1.2905 B( 18-C , 21-H ) :   0.9951 B( 19-C , 20-C ) :   1.5771
B( 19-C , 22-C ) :   1.0226 B( 22-C , 23-H ) :   0.9432 B( 22-C , 24-H ) :   0.9404
B( 22-C , 25-C ) :   1.0653 B( 25-C , 26-H ) :   0.9538 B( 25-C , 27-H ) :   0.9557
B( 25-C , 28-C ) :   1.0881 B( 28-C , 29-H ) :   0.9694 B( 28-C , 30-H ) :   0.9778
B( 28-C , 31-H ) :   0.9716

Dispersion correction           -0.013509551
FINAL SINGLE POINT ENERGY     -1339.871910037187

DIPOLE MOMENT
-------------
                                X             Y             Z
Electronic contribution:     -5.56930      21.02777     -24.81670
Nuclear contribution   :      5.87398     -21.40894      25.39511
                        -----------------------------------------
Total Dipole Moment    :      0.30468      -0.38117       0.57840
                        -----------------------------------------
Magnitude (a.u.)       :      0.75675
Magnitude (Debye)      :      1.92351

Rotational constants in cm-1:     0.017053     0.008773     0.006061
Rotational constants in MHz :   511.245432   263.014632   181.704100

                             ****ORCA TERMINATED NORMALLY****
TOTAL RUN TIME: 0 days 0 hours 0 minutes 21 seconds 88 msec
