                         Program Version 4.2.1 -  RELEASE  -
|  1> ! wB97X-D3 SP def2-SVP
|  2> %pal
|  3> nprocs 24
|  4> end
|  5>
|  6> * xyz 0 1
|  7> S 	 -55.1697 	 0.342463 	 -18.5706
|  8> C 	 -53.7698 	 1.35688 	 -18.8901
|  9> C 	 -54.1455 	 2.6944 	 -19.0946
| 10> C 	 -55.6084 	 2.86324 	 -19.0603
| 11> C 	 -56.2778 	 1.64104 	 -19.0296
| 12> H 	 -56.1108 	 3.77641 	 -19.338
| 13> C 	 -53.1624 	 3.80094 	 -19.4553
| 14> H 	 -52.0625 	 3.63008 	 -19.4255
| 15> H 	 -53.3347 	 4.65468 	 -18.7792
| 16> C 	 -53.4208 	 4.4403 	 -20.8116
| 17> H 	 -53.6238 	 3.70748 	 -21.6121
| 18> H 	 -54.2569 	 5.05294 	 -20.8072
| 19> C 	 -52.2006 	 5.22948 	 -21.3131
| 20> H 	 -51.8503 	 5.91941 	 -20.6026
| 21> H 	 -51.3907 	 4.56059 	 -21.5423
| 22> H 	 -52.5078 	 5.76677 	 -22.2407
| 23> S 	 -58.5933 	 2.44769 	 -20.2599
| 24> C 	 -60.151 	 1.73185 	 -19.8627
| 25> C 	 -59.9499 	 0.692536 	 -18.9684
| 26> C 	 -58.6141 	 0.568239 	 -18.4904
| 27> C 	 -57.7358 	 1.51064 	 -19.0701
| 28> H 	 -60.7993 	 0.0792055 	 -18.6756
| 29> C 	 -58.171 	 -0.445611 	 -17.3977
| 30> H 	 -57.4772 	 -0.0630059 	 -16.6315
| 31> H 	 -57.5738 	 -1.27349 	 -17.7974
| 32> C 	 -59.2646 	 -1.2124 	 -16.5286
| 33> H 	 -60.0141 	 -1.63146 	 -17.2146
| 34> H 	 -59.8002 	 -0.581204 	 -15.796
| 35> C 	 -58.715 	 -2.28674 	 -15.6269
| 36> H 	 -57.824 	 -2.0416 	 -15.0652
| 37> H 	 -58.4129 	 -3.15996 	 -16.1828
| 38> H 	 -59.4641 	 -2.70565 	 -14.9274
| 39> H 	 -52.6889 	 1.14014 	 -18.9085
| 40> H 	 -61.0546 	 1.88709 	 -20.3717
| 41> *
| 42>
| 43>                          ****END OF INPUT****

CARTESIAN COORDINATES (ANGSTROEM)
---------------------------------
  S    -55.169700    0.342463  -18.570600
  C    -53.769800    1.356880  -18.890100
  C    -54.145500    2.694400  -19.094600
  C    -55.608400    2.863240  -19.060300
  C    -56.277800    1.641040  -19.029600
  H    -56.110800    3.776410  -19.338000
  C    -53.162400    3.800940  -19.455300
  H    -52.062500    3.630080  -19.425500
  H    -53.334700    4.654680  -18.779200
  C    -53.420800    4.440300  -20.811600
  H    -53.623800    3.707480  -21.612100
  H    -54.256900    5.052940  -20.807200
  C    -52.200600    5.229480  -21.313100
  H    -51.850300    5.919410  -20.602600
  H    -51.390700    4.560590  -21.542300
  H    -52.507800    5.766770  -22.240700
  S    -58.593300    2.447690  -20.259900
  C    -60.151000    1.731850  -19.862700
  C    -59.949900    0.692536  -18.968400
  C    -58.614100    0.568239  -18.490400
  C    -57.735800    1.510640  -19.070100
  H    -60.799300    0.079205  -18.675600
  C    -58.171000   -0.445611  -17.397700
  H    -57.477200   -0.063006  -16.631500
  H    -57.573800   -1.273490  -17.797400
  C    -59.264600   -1.212400  -16.528600
  H    -60.014100   -1.631460  -17.214600
  H    -59.800200   -0.581204  -15.796000
  C    -58.715000   -2.286740  -15.626900
  H    -57.824000   -2.041600  -15.065200
  H    -58.412900   -3.159960  -16.182800
  H    -59.464100   -2.705650  -14.927400
  H    -52.688900    1.140140  -18.908500
  H    -61.054600    1.887090  -20.371700

 Total Charge           Charge          ....    0
 Multiplicity           Mult            ....    1
 Number of Electrons    NEL             ....  134
 Basis Dimension        Dim             ....  322

ORBITAL ENERGIES
----------------

  NO   OCC          E(Eh)            E(eV)
   0   2.0000     -88.971676     -2421.0424
   1   2.0000     -88.969206     -2420.9752
   2   2.0000     -10.337507      -281.2979
   3   2.0000     -10.332229      -281.1543
   4   2.0000     -10.317820      -280.7622
   5   2.0000     -10.316673      -280.7309
   6   2.0000     -10.311741      -280.5967
   7   2.0000     -10.309633      -280.5394
   8   2.0000     -10.300733      -280.2972
   9   2.0000     -10.299540      -280.2647
  10   2.0000     -10.297764      -280.2164
  11   2.0000     -10.296454      -280.1808
  12   2.0000     -10.290920      -280.0302
  13   2.0000     -10.277751      -279.6718
  14   2.0000     -10.275269      -279.6043
  15   2.0000     -10.274679      -279.5882
  16   2.0000      -8.085083      -220.0063
  17   2.0000      -8.083566      -219.9650
  18   2.0000      -6.043891      -164.4626
  19   2.0000      -6.042085      -164.4135
  20   2.0000      -6.039834      -164.3522
  21   2.0000      -6.038007      -164.3025
  22   2.0000      -6.035538      -164.2353
  23   2.0000      -6.034458      -164.2060
  24   2.0000      -1.004270       -27.3276
  25   2.0000      -0.980072       -26.6691
  26   2.0000      -0.914007       -24.8714
  27   2.0000      -0.901131       -24.5210
  28   2.0000      -0.871491       -23.7145
  29   2.0000      -0.853081       -23.2135
  30   2.0000      -0.843190       -22.9444
  31   2.0000      -0.814434       -22.1619
  32   2.0000      -0.780139       -21.2287
  33   2.0000      -0.771507       -20.9938
  34   2.0000      -0.708648       -19.2833
  35   2.0000      -0.701360       -19.0850
  36   2.0000      -0.693049       -18.8588
  37   2.0000      -0.660144       -17.9634
  38   2.0000      -0.632059       -17.1992
  39   2.0000      -0.620175       -16.8758
  40   2.0000      -0.602068       -16.3831
  41   2.0000      -0.573487       -15.6054
  42   2.0000      -0.566538       -15.4163
  43   2.0000      -0.560793       -15.2600
  44   2.0000      -0.526496       -14.3267
  45   2.0000      -0.521725       -14.1969
  46   2.0000      -0.512831       -13.9548
  47   2.0000      -0.508153       -13.8276
  48   2.0000      -0.504636       -13.7318
  49   2.0000      -0.501770       -13.6538
  50   2.0000      -0.485500       -13.2111
  51   2.0000      -0.481712       -13.1081
  52   2.0000      -0.474913       -12.9230
  53   2.0000      -0.468420       -12.7464
  54   2.0000      -0.459612       -12.5067
  55   2.0000      -0.457138       -12.4394
  56   2.0000      -0.441409       -12.0113
  57   2.0000      -0.439547       -11.9607
  58   2.0000      -0.431638       -11.7455
  59   2.0000      -0.425079       -11.5670
  60   2.0000      -0.417750       -11.3675
  61   2.0000      -0.413508       -11.2521
  62   2.0000      -0.408668       -11.1204
  63   2.0000      -0.357644        -9.7320
  64   2.0000      -0.333118        -9.0646
  65   2.0000      -0.326201        -8.8764
  66   2.0000      -0.286409        -7.7936
  67   0.0000       0.019268         0.5243
  68   0.0000       0.074856         2.0369
  69   0.0000       0.107165         2.9161
  70   0.0000       0.119729         3.2580
  71   0.0000       0.131090         3.5671

MULLIKEN ATOMIC CHARGES
-----------------------
   0 S :    0.102236
   1 C :   -0.102391
   2 C :   -0.082755
   3 C :    0.013892
   4 C :   -0.120964
   5 H :    0.024076
   6 C :    0.045586
   7 H :    0.027772
   8 H :    0.032821
   9 C :   -0.083021
  10 H :    0.032473
  11 H :    0.013841
  12 C :   -0.050038
  13 H :    0.019367
  14 H :    0.031571
  15 H :    0.040168
  16 S :    0.099819
  17 C :   -0.069213
  18 C :   -0.053758
  19 C :   -0.001670
  20 C :   -0.132741
  21 H :    0.025707
  22 C :   -0.004806
  23 H :    0.041503
  24 H :    0.039503
  25 C :   -0.083548
  26 H :    0.033108
  27 H :    0.038061
  28 C :   -0.058661
  29 H :    0.030278
  30 H :    0.017594
  31 H :    0.037608
  32 H :    0.053446
  33 H :    0.043134
Sum of atomic charges:    0.0000000

LOEWDIN ATOMIC CHARGES
----------------------
   0 S :    0.404542
   1 C :   -0.207034
   2 C :   -0.053843
   3 C :   -0.062242
   4 C :   -0.180057
   5 H :    0.026534
   6 C :   -0.040143
   7 H :    0.032986
   8 H :    0.037648
   9 C :   -0.039798
  10 H :    0.026369
  11 H :    0.009955
  12 C :   -0.059266
  13 H :    0.014320
  14 H :    0.022315
  15 H :    0.033712
  16 S :    0.418648
  17 C :   -0.181417
  18 C :   -0.067073
  19 C :   -0.061226
  20 C :   -0.194325
  21 H :    0.033821
  22 C :   -0.046779
  23 H :    0.031867
  24 H :    0.028973
  25 C :   -0.044446
  26 H :    0.021914
  27 H :    0.026456
  28 C :   -0.071170
  29 H :    0.024539
  30 H :    0.020259
  31 H :    0.033023
  32 H :    0.038309
  33 H :    0.022628

  Mayer bond orders larger than 0.100000
B(  0-S ,  1-C ) :   1.1146 B(  0-S ,  4-C ) :   1.1340 B(  1-C ,  2-C ) :   1.6364
B(  1-C , 32-H ) :   0.9632 B(  2-C ,  3-C ) :   1.2170 B(  2-C ,  6-C ) :   1.0347
B(  3-C ,  4-C ) :   1.5665 B(  3-C ,  5-H ) :   0.9849 B(  4-C , 20-C ) :   1.0681
B(  6-C ,  7-H ) :   0.9573 B(  6-C ,  8-H ) :   0.9287 B(  6-C ,  9-C ) :   1.0496
B(  9-C , 10-H ) :   0.9587 B(  9-C , 11-H ) :   0.9548 B(  9-C , 12-C ) :   1.0922
B( 12-C , 13-H ) :   0.9744 B( 12-C , 14-H ) :   0.9754 B( 12-C , 15-H ) :   0.9733
B( 16-S , 17-C ) :   1.1549 B( 16-S , 20-C ) :   1.1603 B( 17-C , 18-C ) :   1.5852
B( 17-C , 20-C ) :   0.1030 B( 17-C , 33-H ) :   0.9722 B( 18-C , 19-C ) :   1.2820
B( 18-C , 21-H ) :   0.9855 B( 19-C , 20-C ) :   1.5466 B( 19-C , 22-C ) :   1.0107
B( 22-C , 23-H ) :   0.9463 B( 22-C , 24-H ) :   0.9381 B( 22-C , 25-C ) :   1.0611
B( 25-C , 26-H ) :   0.9501 B( 25-C , 27-H ) :   0.9613 B( 25-C , 28-C ) :   1.0877
B( 28-C , 29-H ) :   0.9740 B( 28-C , 30-H ) :   0.9705 B( 28-C , 31-H ) :   0.9724

Dispersion correction           -0.013233310
FINAL SINGLE POINT ENERGY     -1339.871210313062

DIPOLE MOMENT
-------------
                                X             Y             Z
Electronic contribution:     -7.64816      -0.64080      -5.14785
Nuclear contribution   :      7.69513       0.67474       5.16939
                        -----------------------------------------
Total Dipole Moment    :      0.04697       0.03395       0.02154
                        -----------------------------------------
Magnitude (a.u.)       :      0.06183
Magnitude (Debye)      :      0.15715

Rotational constants in cm-1:     0.023372     0.007144     0.005635
Rotational constants in MHz :   700.680416   214.167766   168.929318

                             ****ORCA TERMINATED NORMALLY****
TOTAL RUN TIME: 0 days 0 hours 0 minutes 19 seconds 325 msec
