                         Program Version 4.2.1 -  RELEASE  -
|  1> ! wB97X-D3 SP def2-SVP
|  2> %pal
|  3> nprocs 24
|  4> end
|  5>
|  6> * xyz 0 1
|  7> S 	 -124.289 	 67.7803 	 -60.4321
|  8> C 	 -125.65 	 67.3973 	 -61.47
|  9> C 	 -125.695 	 66.0706 	 -61.8418
| 10> C 	 -124.736 	 65.2675 	 -61.1612
| 11> C 	 -123.819 	 66.0993 	 -60.4879
| 12> H 	 -124.575 	 64.1814 	 -61.312
| 13> C 	 -126.728 	 65.4207 	 -62.7547
| 14> H 	 -127.38 	 64.8702 	 -62.1189
| 15> H 	 -126.349 	 64.5122 	 -63.2654
| 16> C 	 -127.436 	 66.2289 	 -63.8118
| 17> H 	 -128.189 	 65.6326 	 -64.3178
| 18> H 	 -128.037 	 66.9647 	 -63.3081
| 19> C 	 -126.552 	 66.9114 	 -64.8132
| 20> H 	 -125.867 	 66.1717 	 -65.3494
| 21> H 	 -127.28 	 67.3077 	 -65.5871
| 22> H 	 -126.142 	 67.8315 	 -64.3586
| 23> S 	 -121.147 	 66.4508 	 -60.188
| 24> C 	 -120.169 	 65.1916 	 -59.4599
| 25> C 	 -120.924 	 64.2059 	 -58.9736
| 26> C 	 -122.317 	 64.3585 	 -59.2823
| 27> C 	 -122.607 	 65.593 	 -59.8667
| 28> H 	 -120.446 	 63.4589 	 -58.3336
| 29> C 	 -123.328 	 63.3342 	 -58.7661
| 30> H 	 -124.32 	 63.8074 	 -58.7505
| 31> H 	 -123.111 	 62.9578 	 -57.7144
| 32> C 	 -123.439 	 62.1158 	 -59.7477
| 33> H 	 -123.461 	 62.5136 	 -60.7721
| 34> H 	 -124.401 	 61.6035 	 -59.6549
| 35> C 	 -122.367 	 61.0462 	 -59.5709
| 36> H 	 -122.791 	 60.0883 	 -59.9033
| 37> H 	 -122.155 	 60.8085 	 -58.5931
| 38> H 	 -121.503 	 61.43 	 -60.1239
| 39> H 	 -126.321 	 68.1271 	 -61.9334
| 40> H 	 -119.127 	 65.248 	 -59.338
| 41> *
| 42>
| 43>                          ****END OF INPUT****

CARTESIAN COORDINATES (ANGSTROEM)
---------------------------------
  S    -124.289000   67.780300  -60.432100
  C    -125.650000   67.397300  -61.470000
  C    -125.695000   66.070600  -61.841800
  C    -124.736000   65.267500  -61.161200
  C    -123.819000   66.099300  -60.487900
  H    -124.575000   64.181400  -61.312000
  C    -126.728000   65.420700  -62.754700
  H    -127.380000   64.870200  -62.118900
  H    -126.349000   64.512200  -63.265400
  C    -127.436000   66.228900  -63.811800
  H    -128.189000   65.632600  -64.317800
  H    -128.037000   66.964700  -63.308100
  C    -126.552000   66.911400  -64.813200
  H    -125.867000   66.171700  -65.349400
  H    -127.280000   67.307700  -65.587100
  H    -126.142000   67.831500  -64.358600
  S    -121.147000   66.450800  -60.188000
  C    -120.169000   65.191600  -59.459900
  C    -120.924000   64.205900  -58.973600
  C    -122.317000   64.358500  -59.282300
  C    -122.607000   65.593000  -59.866700
  H    -120.446000   63.458900  -58.333600
  C    -123.328000   63.334200  -58.766100
  H    -124.320000   63.807400  -58.750500
  H    -123.111000   62.957800  -57.714400
  C    -123.439000   62.115800  -59.747700
  H    -123.461000   62.513600  -60.772100
  H    -124.401000   61.603500  -59.654900
  C    -122.367000   61.046200  -59.570900
  H    -122.791000   60.088300  -59.903300
  H    -122.155000   60.808500  -58.593100
  H    -121.503000   61.430000  -60.123900
  H    -126.321000   68.127100  -61.933400
  H    -119.127000   65.248000  -59.338000

 Total Charge           Charge          ....    0
 Multiplicity           Mult            ....    1
 Number of Electrons    NEL             ....  134
 Basis Dimension        Dim             ....  322

ORBITAL ENERGIES
----------------

  NO   OCC          E(Eh)            E(eV)
   0   2.0000     -88.972927     -2421.0764
   1   2.0000     -88.961733     -2420.7718
   2   2.0000     -10.333135      -281.1789
   3   2.0000     -10.324850      -280.9535
   4   2.0000     -10.312634      -280.6210
   5   2.0000     -10.308226      -280.5011
   6   2.0000     -10.303072      -280.3608
   7   2.0000     -10.302673      -280.3500
   8   2.0000     -10.298109      -280.2258
   9   2.0000     -10.296342      -280.1777
  10   2.0000     -10.289777      -279.9991
  11   2.0000     -10.289092      -279.9804
  12   2.0000     -10.286155      -279.9005
  13   2.0000     -10.285989      -279.8960
  14   2.0000     -10.281914      -279.7851
  15   2.0000     -10.270961      -279.4870
  16   2.0000      -8.087254      -220.0654
  17   2.0000      -8.077337      -219.7955
  18   2.0000      -6.045777      -164.5140
  19   2.0000      -6.041963      -164.4102
  20   2.0000      -6.037892      -164.2994
  21   2.0000      -6.035886      -164.2448
  22   2.0000      -6.031702      -164.1310
  23   2.0000      -6.028022      -164.0308
  24   2.0000      -1.010218       -27.4894
  25   2.0000      -0.986513       -26.8444
  26   2.0000      -0.917097       -24.9555
  27   2.0000      -0.904727       -24.6189
  28   2.0000      -0.873257       -23.7625
  29   2.0000      -0.855613       -23.2824
  30   2.0000      -0.845922       -23.0187
  31   2.0000      -0.813078       -22.1250
  32   2.0000      -0.786501       -21.4018
  33   2.0000      -0.773351       -21.0439
  34   2.0000      -0.707661       -19.2564
  35   2.0000      -0.698056       -18.9951
  36   2.0000      -0.690195       -18.7812
  37   2.0000      -0.663485       -18.0543
  38   2.0000      -0.633083       -17.2271
  39   2.0000      -0.611218       -16.6321
  40   2.0000      -0.597749       -16.2656
  41   2.0000      -0.580890       -15.8068
  42   2.0000      -0.556711       -15.1489
  43   2.0000      -0.553575       -15.0635
  44   2.0000      -0.544920       -14.8280
  45   2.0000      -0.539380       -14.6773
  46   2.0000      -0.514866       -14.0102
  47   2.0000      -0.510148       -13.8818
  48   2.0000      -0.500779       -13.6269
  49   2.0000      -0.497804       -13.5459
  50   2.0000      -0.488960       -13.3053
  51   2.0000      -0.481135       -13.0923
  52   2.0000      -0.473081       -12.8732
  53   2.0000      -0.466909       -12.7052
  54   2.0000      -0.463589       -12.6149
  55   2.0000      -0.449260       -12.2250
  56   2.0000      -0.443238       -12.0611
  57   2.0000      -0.435574       -11.8526
  58   2.0000      -0.431764       -11.7489
  59   2.0000      -0.420577       -11.4445
  60   2.0000      -0.418937       -11.3999
  61   2.0000      -0.414313       -11.2740
  62   2.0000      -0.408728       -11.1220
  63   2.0000      -0.356619        -9.7041
  64   2.0000      -0.333063        -9.0631
  65   2.0000      -0.327220        -8.9041
  66   2.0000      -0.286363        -7.7923
  67   0.0000       0.026740         0.7276
  68   0.0000       0.078293         2.1305
  69   0.0000       0.110894         3.0176
  70   0.0000       0.121146         3.2966
  71   0.0000       0.126423         3.4401

MULLIKEN ATOMIC CHARGES
-----------------------
   0 S :    0.126652
   1 C :   -0.134911
   2 C :   -0.066724
   3 C :   -0.006351
   4 C :   -0.129810
   5 H :    0.020188
   6 C :    0.064096
   7 H :    0.020794
   8 H :    0.011523
   9 C :   -0.058142
  10 H :    0.020097
  11 H :    0.012948
  12 C :   -0.064037
  13 H :    0.053238
  14 H :    0.033381
  15 H :    0.041623
  16 S :    0.093123
  17 C :   -0.071657
  18 C :   -0.025870
  19 C :   -0.057747
  20 C :   -0.121447
  21 H :    0.026493
  22 C :    0.030815
  23 H :    0.031133
  24 H :    0.043382
  25 C :   -0.121179
  26 H :    0.040064
  27 H :    0.023064
  28 C :    0.002470
  29 H :    0.026807
  30 H :    0.003322
  31 H :    0.046598
  32 H :    0.050052
  33 H :    0.036010
Sum of atomic charges:   -0.0000000

LOEWDIN ATOMIC CHARGES
----------------------
   0 S :    0.410885
   1 C :   -0.210978
   2 C :   -0.053614
   3 C :   -0.063296
   4 C :   -0.186965
   5 H :    0.037381
   6 C :   -0.040621
   7 H :    0.032603
   8 H :    0.032372
   9 C :   -0.051260
  10 H :    0.026393
  11 H :    0.018863
  12 C :   -0.071531
  13 H :    0.036056
  14 H :    0.033283
  15 H :    0.028355
  16 S :    0.408273
  17 C :   -0.174385
  18 C :   -0.072978
  19 C :   -0.061406
  20 C :   -0.204753
  21 H :    0.037764
  22 C :   -0.034102
  23 H :    0.030860
  24 H :    0.035664
  25 C :   -0.044854
  26 H :    0.021150
  27 H :    0.019907
  28 C :   -0.061715
  29 H :    0.031587
  30 H :    0.010788
  31 H :    0.031732
  32 H :    0.027888
  33 H :    0.020653

  Mayer bond orders larger than 0.100000
B(  0-S ,  1-C ) :   1.1132 B(  0-S ,  4-C ) :   1.1614 B(  1-C ,  2-C ) :   1.6370
B(  1-C , 32-H ) :   0.9562 B(  2-C ,  3-C ) :   1.2503 B(  2-C ,  6-C ) :   1.0074
B(  3-C ,  4-C ) :   1.5540 B(  3-C ,  5-H ) :   0.9812 B(  4-C , 20-C ) :   1.0398
B(  6-C ,  7-H ) :   0.9268 B(  6-C ,  8-H ) :   0.9359 B(  6-C ,  9-C ) :   1.0849
B(  9-C , 10-H ) :   0.9492 B(  9-C , 11-H ) :   0.9437 B(  9-C , 12-C ) :   1.0877
B( 12-C , 13-H ) :   0.9726 B( 12-C , 14-H ) :   0.9710 B( 12-C , 15-H ) :   0.9707
B( 16-S , 17-C ) :   1.1443 B( 16-S , 20-C ) :   1.1420 B( 17-C , 18-C ) :   1.6366
B( 17-C , 33-H ) :   0.9699 B( 18-C , 19-C ) :   1.2216 B( 18-C , 21-H ) :   0.9877
B( 19-C , 20-C ) :   1.6049 B( 19-C , 22-C ) :   1.0388 B( 22-C , 23-H ) :   0.9353
B( 22-C , 24-H ) :   0.9515 B( 22-C , 25-C ) :   1.0557 B( 25-C , 26-H ) :   0.9483
B( 25-C , 27-H ) :   0.9623 B( 25-C , 28-C ) :   1.0807 B( 28-C , 29-H ) :   0.9714
B( 28-C , 30-H ) :   0.9726 B( 28-C , 31-H ) :   0.9745

Dispersion correction           -0.014671249
FINAL SINGLE POINT ENERGY     -1339.872464797761

DIPOLE MOMENT
-------------
                                X             Y             Z
Electronic contribution:     13.69863      18.89238      10.36689
Nuclear contribution   :    -14.01661     -19.49329     -10.48309
                        -----------------------------------------
Total Dipole Moment    :     -0.31798      -0.60091      -0.11620
                        -----------------------------------------
Magnitude (a.u.)       :      0.68971
Magnitude (Debye)      :      1.75311

Rotational constants in cm-1:     0.020509     0.008369     0.006609
Rotational constants in MHz :   614.834091   250.887213   198.130374

                             ****ORCA TERMINATED NORMALLY****
TOTAL RUN TIME: 0 days 0 hours 0 minutes 21 seconds 841 msec
