                         Program Version 4.2.1 -  RELEASE  -
|  1> ! wB97X-D3 SP def2-SVP
|  2> %pal
|  3> nprocs 24
|  4> end
|  5>
|  6> * xyz 0 1
|  7> S 	 29.0828 	 1.20626 	 -108.235
|  8> C 	 28.3316 	 2.81592 	 -108.562
|  9> C 	 27.4516 	 2.77392 	 -109.656
| 10> C 	 27.4631 	 1.47567 	 -110.29
| 11> C 	 28.2584 	 0.523999 	 -109.666
| 12> H 	 26.9325 	 1.27955 	 -111.187
| 13> C 	 26.7838 	 3.99069 	 -110.351
| 14> H 	 27.6574 	 4.63646 	 -110.534
| 15> H 	 26.1834 	 4.51746 	 -109.578
| 16> C 	 25.755 	 3.71606 	 -111.453
| 17> H 	 26.2078 	 3.09946 	 -112.26
| 18> H 	 24.9786 	 3.15961 	 -111.072
| 19> C 	 25.3517 	 5.10405 	 -112.026
| 20> H 	 24.691 	 5.143 	 -112.934
| 21> H 	 24.7668 	 5.63075 	 -111.243
| 22> H 	 26.2447 	 5.66083 	 -112.323
| 23> S 	 29.3643 	 -1.41916 	 -111.481
| 24> C 	 29.3026 	 -3.02072 	 -110.959
| 25> C 	 28.5316 	 -3.16882 	 -109.838
| 26> C 	 28.0835 	 -1.98576 	 -109.25
| 27> C 	 28.4397 	 -0.859258 	 -110.004
| 28> H 	 28.4584 	 -4.14623 	 -109.392
| 29> C 	 27.4001 	 -2.00751 	 -107.884
| 30> H 	 28.1336 	 -1.48898 	 -107.223
| 31> H 	 27.3188 	 -3.02191 	 -107.461
| 32> C 	 26.0434 	 -1.20606 	 -107.776
| 33> H 	 25.2013 	 -1.81731 	 -108.19
| 34> H 	 26.106 	 -0.3962 	 -108.517
| 35> C 	 25.6722 	 -0.795508 	 -106.387
| 36> H 	 24.7018 	 -0.304939 	 -106.357
| 37> H 	 26.5199 	 -0.273224 	 -105.954
| 38> H 	 25.5026 	 -1.50534 	 -105.661
| 39> H 	 28.552 	 3.72062 	 -107.961
| 40> H 	 29.7003 	 -3.79825 	 -111.567
| 41> *
| 42>
| 43>                          ****END OF INPUT****

CARTESIAN COORDINATES (ANGSTROEM)
---------------------------------
  S     29.082800    1.206260  -108.235000
  C     28.331600    2.815920  -108.562000
  C     27.451600    2.773920  -109.656000
  C     27.463100    1.475670  -110.290000
  C     28.258400    0.523999  -109.666000
  H     26.932500    1.279550  -111.187000
  C     26.783800    3.990690  -110.351000
  H     27.657400    4.636460  -110.534000
  H     26.183400    4.517460  -109.578000
  C     25.755000    3.716060  -111.453000
  H     26.207800    3.099460  -112.260000
  H     24.978600    3.159610  -111.072000
  C     25.351700    5.104050  -112.026000
  H     24.691000    5.143000  -112.934000
  H     24.766800    5.630750  -111.243000
  H     26.244700    5.660830  -112.323000
  S     29.364300   -1.419160  -111.481000
  C     29.302600   -3.020720  -110.959000
  C     28.531600   -3.168820  -109.838000
  C     28.083500   -1.985760  -109.250000
  C     28.439700   -0.859258  -110.004000
  H     28.458400   -4.146230  -109.392000
  C     27.400100   -2.007510  -107.884000
  H     28.133600   -1.488980  -107.223000
  H     27.318800   -3.021910  -107.461000
  C     26.043400   -1.206060  -107.776000
  H     25.201300   -1.817310  -108.190000
  H     26.106000   -0.396200  -108.517000
  C     25.672200   -0.795508  -106.387000
  H     24.701800   -0.304939  -106.357000
  H     26.519900   -0.273224  -105.954000
  H     25.502600   -1.505340  -105.661000
  H     28.552000    3.720620  -107.961000
  H     29.700300   -3.798250  -111.567000

 Total Charge           Charge          ....    0
 Multiplicity           Mult            ....    1
 Number of Electrons    NEL             ....  134
 Basis Dimension        Dim             ....  322

ORBITAL ENERGIES
----------------

  NO   OCC          E(Eh)            E(eV)
   0   2.0000     -88.968044     -2420.9435
   1   2.0000     -88.964572     -2420.8491
   2   2.0000     -10.330483      -281.1067
   3   2.0000     -10.325754      -280.9781
   4   2.0000     -10.322707      -280.8951
   5   2.0000     -10.310150      -280.5535
   6   2.0000     -10.307635      -280.4850
   7   2.0000     -10.302863      -280.3552
   8   2.0000     -10.300233      -280.2836
   9   2.0000     -10.295411      -280.1524
  10   2.0000     -10.294062      -280.1157
  11   2.0000     -10.291815      -280.0545
  12   2.0000     -10.288894      -279.9750
  13   2.0000     -10.284242      -279.8485
  14   2.0000     -10.283252      -279.8215
  15   2.0000     -10.263559      -279.2856
  16   2.0000      -8.080897      -219.8924
  17   2.0000      -8.079413      -219.8520
  18   2.0000      -6.039544      -164.3443
  19   2.0000      -6.037769      -164.2960
  20   2.0000      -6.035669      -164.2389
  21   2.0000      -6.033864      -164.1898
  22   2.0000      -6.031627      -164.1289
  23   2.0000      -6.030372      -164.0948
  24   2.0000      -1.000877       -27.2352
  25   2.0000      -0.976070       -26.5602
  26   2.0000      -0.912651       -24.8345
  27   2.0000      -0.902015       -24.5451
  28   2.0000      -0.867034       -23.5932
  29   2.0000      -0.854265       -23.2457
  30   2.0000      -0.841382       -22.8952
  31   2.0000      -0.807539       -21.9742
  32   2.0000      -0.782245       -21.2860
  33   2.0000      -0.767505       -20.8849
  34   2.0000      -0.717735       -19.5306
  35   2.0000      -0.701972       -19.1016
  36   2.0000      -0.687590       -18.7103
  37   2.0000      -0.659780       -17.9535
  38   2.0000      -0.633785       -17.2462
  39   2.0000      -0.619452       -16.8561
  40   2.0000      -0.597057       -16.2467
  41   2.0000      -0.574509       -15.6332
  42   2.0000      -0.560724       -15.2581
  43   2.0000      -0.555858       -15.1257
  44   2.0000      -0.526370       -14.3233
  45   2.0000      -0.521432       -14.1889
  46   2.0000      -0.515717       -14.0334
  47   2.0000      -0.504691       -13.7333
  48   2.0000      -0.502598       -13.6764
  49   2.0000      -0.499307       -13.5868
  50   2.0000      -0.485207       -13.2032
  51   2.0000      -0.479065       -13.0360
  52   2.0000      -0.469609       -12.7787
  53   2.0000      -0.463429       -12.6105
  54   2.0000      -0.458506       -12.4766
  55   2.0000      -0.452482       -12.3127
  56   2.0000      -0.446262       -12.1434
  57   2.0000      -0.443774       -12.0757
  58   2.0000      -0.429167       -11.6782
  59   2.0000      -0.426057       -11.5936
  60   2.0000      -0.420572       -11.4443
  61   2.0000      -0.416402       -11.3309
  62   2.0000      -0.399248       -10.8641
  63   2.0000      -0.333975        -9.0879
  64   2.0000      -0.331781        -9.0282
  65   2.0000      -0.326791        -8.8924
  66   2.0000      -0.294483        -8.0133
  67   0.0000       0.031265         0.8508
  68   0.0000       0.053980         1.4689
  69   0.0000       0.106545         2.8992
  70   0.0000       0.111895         3.0448
  71   0.0000       0.133463         3.6317

MULLIKEN ATOMIC CHARGES
-----------------------
   0 S :    0.106096
   1 C :   -0.152696
   2 C :   -0.063671
   3 C :    0.044792
   4 C :   -0.178477
   5 H :    0.000016
   6 C :   -0.002761
   7 H :    0.053957
   8 H :    0.032416
   9 C :   -0.044980
  10 H :    0.041890
  11 H :    0.024523
  12 C :   -0.066456
  13 H :    0.040811
  14 H :    0.036322
  15 H :    0.038401
  16 S :    0.113859
  17 C :   -0.086616
  18 C :   -0.037664
  19 C :   -0.001658
  20 C :   -0.179564
  21 H :    0.010241
  22 C :    0.054910
  23 H :    0.032579
  24 H :    0.025842
  25 C :   -0.074387
  26 H :    0.025105
  27 H :    0.043385
  28 C :   -0.003066
  29 H :    0.029735
  30 H :    0.023778
  31 H :   -0.000017
  32 H :    0.060590
  33 H :    0.052765
Sum of atomic charges:    0.0000000

LOEWDIN ATOMIC CHARGES
----------------------
   0 S :    0.376807
   1 C :   -0.190303
   2 C :   -0.060411
   3 C :   -0.056903
   4 C :   -0.182390
   5 H :    0.024975
   6 C :   -0.036638
   7 H :    0.039578
   8 H :    0.035793
   9 C :   -0.035023
  10 H :    0.026000
  11 H :    0.016828
  12 C :   -0.067547
  13 H :    0.029428
  14 H :    0.027986
  15 H :    0.027935
  16 S :    0.406601
  17 C :   -0.192570
  18 C :   -0.081271
  19 C :   -0.045784
  20 C :   -0.198077
  21 H :    0.029114
  22 C :   -0.032674
  23 H :    0.031979
  24 H :    0.030031
  25 C :   -0.043009
  26 H :    0.025665
  27 H :    0.029063
  28 C :   -0.067211
  29 H :    0.032315
  30 H :    0.026633
  31 H :    0.014486
  32 H :    0.033417
  33 H :    0.025175

  Mayer bond orders larger than 0.100000
B(  0-S ,  1-C ) :   1.1271 B(  0-S ,  4-C ) :   1.1310 B(  1-C ,  2-C ) :   1.6239
B(  1-C ,  4-C ) :   0.1004 B(  1-C , 32-H ) :   0.9689 B(  2-C ,  3-C ) :   1.2381
B(  2-C ,  6-C ) :   0.9896 B(  3-C ,  4-C ) :   1.5782 B(  3-C ,  5-H ) :   0.9934
B(  4-C , 20-C ) :   1.0687 B(  6-C ,  7-H ) :   0.9503 B(  6-C ,  8-H ) :   0.9404
B(  6-C ,  9-C ) :   1.0676 B(  9-C , 10-H ) :   0.9474 B(  9-C , 11-H ) :   0.9572
B(  9-C , 12-C ) :   1.0728 B( 12-C , 13-H ) :   0.9753 B( 12-C , 14-H ) :   0.9755
B( 12-C , 15-H ) :   0.9763 B( 16-S , 17-C ) :   1.1892 B( 16-S , 20-C ) :   1.1258
B( 17-C , 18-C ) :   1.5736 B( 17-C , 20-C ) :   0.1045 B( 17-C , 33-H ) :   0.9673
B( 18-C , 19-C ) :   1.2798 B( 18-C , 21-H ) :   0.9938 B( 19-C , 20-C ) :   1.5492
B( 19-C , 22-C ) :   1.0298 B( 22-C , 23-H ) :   0.9333 B( 22-C , 24-H ) :   0.9392
B( 22-C , 25-C ) :   1.0438 B( 25-C , 26-H ) :   0.9500 B( 25-C , 27-H ) :   0.9591
B( 25-C , 28-C ) :   1.0858 B( 28-C , 29-H ) :   0.9679 B( 28-C , 30-H ) :   0.9714
B( 28-C , 31-H ) :   0.9687

Dispersion correction           -0.014691767
FINAL SINGLE POINT ENERGY     -1339.870026599772

DIPOLE MOMENT
-------------
                                X             Y             Z
Electronic contribution:     20.32952     -11.85207      -3.83372
Nuclear contribution   :    -20.72810      12.01828       3.83345
                        -----------------------------------------
Total Dipole Moment    :     -0.39857       0.16621      -0.00027
                        -----------------------------------------
Magnitude (a.u.)       :      0.43184
Magnitude (Debye)      :      1.09765

Rotational constants in cm-1:     0.018072     0.008476     0.007158
Rotational constants in MHz :   541.789525   254.099796   214.587972

                             ****ORCA TERMINATED NORMALLY****
TOTAL RUN TIME: 0 days 0 hours 0 minutes 22 seconds 552 msec
