                         Program Version 4.2.1 -  RELEASE  -
|  1> ! wB97X-D3 SP def2-SVP
|  2> %pal
|  3> nprocs 24
|  4> end
|  5>
|  6> * xyz 0 1
|  7> S 	 -62.0564 	 9.41675 	 -16.0574
|  8> C 	 -63.2141 	 8.09513 	 -15.9868
|  9> C 	 -62.9564 	 7.075 	 -16.8626
| 10> C 	 -61.7681 	 7.3818 	 -17.5859
| 11> C 	 -61.2066 	 8.61989 	 -17.3501
| 12> H 	 -61.2986 	 6.66906 	 -18.3094
| 13> C 	 -63.5853 	 5.70496 	 -16.8541
| 14> H 	 -63.2462 	 5.38337 	 -15.8881
| 15> H 	 -63.0574 	 5.01131 	 -17.5329
| 16> C 	 -65.1025 	 5.58368 	 -16.8879
| 17> H 	 -65.6078 	 6.10138 	 -16.0474
| 18> H 	 -65.5111 	 5.98677 	 -17.7204
| 19> C 	 -65.5271 	 4.11326 	 -16.7638
| 20> H 	 -65.279 	 3.42287 	 -17.5478
| 21> H 	 -65.1098 	 3.62063 	 -15.8646
| 22> H 	 -66.5995 	 4.04654 	 -16.811
| 23> S 	 -60.3728 	 10.682 	 -19.0509
| 24> C 	 -58.7271 	 10.7552 	 -19.5995
| 25> C 	 -58.0083 	 9.63943 	 -19.2066
| 26> C 	 -58.7631 	 8.80556 	 -18.2497
| 27> C 	 -60.0924 	 9.22853 	 -18.0455
| 28> H 	 -56.9295 	 9.57095 	 -19.5623
| 29> C 	 -58.1458 	 7.5438 	 -17.7781
| 30> H 	 -58.8792 	 6.97755 	 -17.1544
| 31> H 	 -57.3323 	 7.79677 	 -17.0843
| 32> C 	 -57.6611 	 6.54547 	 -18.8955
| 33> H 	 -56.9158 	 5.87803 	 -18.4629
| 34> H 	 -57.2115 	 7.0891 	 -19.7065
| 35> C 	 -58.8328 	 5.65746 	 -19.3799
| 36> H 	 -58.5094 	 4.95367 	 -20.231
| 37> H 	 -59.6367 	 6.29203 	 -19.8267
| 38> H 	 -59.2852 	 4.98643 	 -18.5901
| 39> H 	 -64.0946 	 8.09085 	 -15.2574
| 40> H 	 -58.2796 	 11.5401 	 -20.199
| 41> *
| 42>
| 43>                          ****END OF INPUT****

CARTESIAN COORDINATES (ANGSTROEM)
---------------------------------
  S    -62.056400    9.416750  -16.057400
  C    -63.214100    8.095130  -15.986800
  C    -62.956400    7.075000  -16.862600
  C    -61.768100    7.381800  -17.585900
  C    -61.206600    8.619890  -17.350100
  H    -61.298600    6.669060  -18.309400
  C    -63.585300    5.704960  -16.854100
  H    -63.246200    5.383370  -15.888100
  H    -63.057400    5.011310  -17.532900
  C    -65.102500    5.583680  -16.887900
  H    -65.607800    6.101380  -16.047400
  H    -65.511100    5.986770  -17.720400
  C    -65.527100    4.113260  -16.763800
  H    -65.279000    3.422870  -17.547800
  H    -65.109800    3.620630  -15.864600
  H    -66.599500    4.046540  -16.811000
  S    -60.372800   10.682000  -19.050900
  C    -58.727100   10.755200  -19.599500
  C    -58.008300    9.639430  -19.206600
  C    -58.763100    8.805560  -18.249700
  C    -60.092400    9.228530  -18.045500
  H    -56.929500    9.570950  -19.562300
  C    -58.145800    7.543800  -17.778100
  H    -58.879200    6.977550  -17.154400
  H    -57.332300    7.796770  -17.084300
  C    -57.661100    6.545470  -18.895500
  H    -56.915800    5.878030  -18.462900
  H    -57.211500    7.089100  -19.706500
  C    -58.832800    5.657460  -19.379900
  H    -58.509400    4.953670  -20.231000
  H    -59.636700    6.292030  -19.826700
  H    -59.285200    4.986430  -18.590100
  H    -64.094600    8.090850  -15.257400
  H    -58.279600   11.540100  -20.199000

 Total Charge           Charge          ....    0
 Multiplicity           Mult            ....    1
 Number of Electrons    NEL             ....  134
 Basis Dimension        Dim             ....  322

ORBITAL ENERGIES
----------------

  NO   OCC          E(Eh)            E(eV)
   0   2.0000     -88.966576     -2420.9036
   1   2.0000     -88.962062     -2420.7808
   2   2.0000     -10.330048      -281.0949
   3   2.0000     -10.326336      -280.9939
   4   2.0000     -10.317642      -280.7573
   5   2.0000     -10.317466      -280.7525
   6   2.0000     -10.309146      -280.5261
   7   2.0000     -10.300983      -280.3040
   8   2.0000     -10.299236      -280.2565
   9   2.0000     -10.295316      -280.1498
  10   2.0000     -10.293908      -280.1115
  11   2.0000     -10.291825      -280.0548
  12   2.0000     -10.291065      -280.0341
  13   2.0000     -10.290964      -280.0314
  14   2.0000     -10.285367      -279.8791
  15   2.0000     -10.277601      -279.6677
  16   2.0000      -8.081303      -219.9034
  17   2.0000      -8.076500      -219.7727
  18   2.0000      -6.039766      -164.3504
  19   2.0000      -6.035798      -164.2424
  20   2.0000      -6.035090      -164.2232
  21   2.0000      -6.032125      -164.1425
  22   2.0000      -6.031026      -164.1126
  23   2.0000      -6.027198      -164.0084
  24   2.0000      -1.003820       -27.3153
  25   2.0000      -0.979798       -26.6616
  26   2.0000      -0.917066       -24.9546
  27   2.0000      -0.904335       -24.6082
  28   2.0000      -0.870486       -23.6871
  29   2.0000      -0.850335       -23.1388
  30   2.0000      -0.840132       -22.8611
  31   2.0000      -0.811064       -22.0702
  32   2.0000      -0.782610       -21.2959
  33   2.0000      -0.765700       -20.8357
  34   2.0000      -0.716494       -19.4968
  35   2.0000      -0.705682       -19.2026
  36   2.0000      -0.692737       -18.8503
  37   2.0000      -0.648289       -17.6408
  38   2.0000      -0.635446       -17.2914
  39   2.0000      -0.617079       -16.7916
  40   2.0000      -0.595385       -16.2013
  41   2.0000      -0.571258       -15.5447
  42   2.0000      -0.564342       -15.3565
  43   2.0000      -0.549338       -14.9482
  44   2.0000      -0.534955       -14.5569
  45   2.0000      -0.527958       -14.3665
  46   2.0000      -0.518086       -14.0978
  47   2.0000      -0.512829       -13.9548
  48   2.0000      -0.499080       -13.5807
  49   2.0000      -0.497577       -13.5398
  50   2.0000      -0.481947       -13.1144
  51   2.0000      -0.473707       -12.8902
  52   2.0000      -0.470450       -12.8016
  53   2.0000      -0.460565       -12.5326
  54   2.0000      -0.457214       -12.4414
  55   2.0000      -0.450176       -12.2499
  56   2.0000      -0.444505       -12.0956
  57   2.0000      -0.440342       -11.9823
  58   2.0000      -0.430876       -11.7247
  59   2.0000      -0.430306       -11.7092
  60   2.0000      -0.424715       -11.5571
  61   2.0000      -0.419324       -11.4104
  62   2.0000      -0.412466       -11.2238
  63   2.0000      -0.337825        -9.1927
  64   2.0000      -0.329831        -8.9751
  65   2.0000      -0.322778        -8.7832
  66   2.0000      -0.298508        -8.1228
  67   0.0000       0.034471         0.9380
  68   0.0000       0.066225         1.8021
  69   0.0000       0.110989         3.0202
  70   0.0000       0.114234         3.1085
  71   0.0000       0.133764         3.6399

MULLIKEN ATOMIC CHARGES
-----------------------
   0 S :    0.126167
   1 C :   -0.163249
   2 C :   -0.049544
   3 C :    0.023275
   4 C :   -0.176200
   5 H :    0.005361
   6 C :    0.048781
   7 H :    0.031943
   8 H :    0.024913
   9 C :   -0.018469
  10 H :    0.030735
  11 H :    0.009873
  12 C :   -0.059997
  13 H :    0.020538
  14 H :    0.030946
  15 H :    0.025696
  16 S :    0.102893
  17 C :   -0.094787
  18 C :   -0.070194
  19 C :   -0.031623
  20 C :   -0.143937
  21 H :    0.052885
  22 C :    0.032626
  23 H :    0.023372
  24 H :    0.038840
  25 C :   -0.038658
  26 H :    0.031880
  27 H :    0.031821
  28 C :   -0.129966
  29 H :    0.044601
  30 H :    0.061136
  31 H :    0.047818
  32 H :    0.069702
  33 H :    0.060822
Sum of atomic charges:   -0.0000000

LOEWDIN ATOMIC CHARGES
----------------------
   0 S :    0.412632
   1 C :   -0.202650
   2 C :   -0.069076
   3 C :   -0.059698
   4 C :   -0.210002
   5 H :    0.034885
   6 C :   -0.031513
   7 H :    0.037341
   8 H :    0.033521
   9 C :   -0.027325
  10 H :    0.031223
  11 H :    0.011081
  12 C :   -0.067200
  13 H :    0.021108
  14 H :    0.027516
  15 H :    0.025246
  16 S :    0.393138
  17 C :   -0.188218
  18 C :   -0.087470
  19 C :   -0.052145
  20 C :   -0.196685
  21 H :    0.044898
  22 C :   -0.040665
  23 H :    0.031483
  24 H :    0.035152
  25 C :   -0.032533
  26 H :    0.025931
  27 H :    0.020747
  28 C :   -0.081617
  29 H :    0.033400
  30 H :    0.027887
  31 H :    0.028360
  32 H :    0.038426
  33 H :    0.032820

  Mayer bond orders larger than 0.100000
B(  0-S ,  1-C ) :   1.1453 B(  0-S ,  4-C ) :   1.1523 B(  1-C ,  2-C ) :   1.6089
B(  1-C , 32-H ) :   0.9552 B(  2-C ,  3-C ) :   1.2605 B(  2-C ,  6-C ) :   1.0013
B(  3-C ,  4-C ) :   1.5671 B(  3-C ,  5-H ) :   0.9827 B(  4-C , 20-C ) :   1.0440
B(  6-C ,  7-H ) :   0.9355 B(  6-C ,  8-H ) :   0.9486 B(  6-C ,  9-C ) :   1.0618
B(  9-C , 10-H ) :   0.9505 B(  9-C , 11-H ) :   0.9589 B(  9-C , 12-C ) :   1.0849
B( 12-C , 13-H ) :   0.9741 B( 12-C , 14-H ) :   0.9756 B( 12-C , 15-H ) :   0.9728
B( 16-S , 17-C ) :   1.1582 B( 16-S , 20-C ) :   1.1215 B( 17-C , 18-C ) :   1.6348
B( 17-C , 33-H ) :   0.9648 B( 18-C , 19-C ) :   1.2056 B( 18-C , 21-H ) :   0.9745
B( 19-C , 20-C ) :   1.5996 B( 19-C , 22-C ) :   1.0685 B( 22-C , 23-H ) :   0.9383
B( 22-C , 24-H ) :   0.9275 B( 22-C , 25-C ) :   1.0539 B( 25-C , 26-H ) :   0.9547
B( 25-C , 27-H ) :   0.9588 B( 25-C , 28-C ) :   1.0749 B( 28-C , 29-H ) :   0.9696
B( 28-C , 30-H ) :   0.9677 B( 28-C , 31-H ) :   0.9710

Dispersion correction           -0.014485286
FINAL SINGLE POINT ENERGY     -1339.878410938593

DIPOLE MOMENT
-------------
                                X             Y             Z
Electronic contribution:      3.69197      28.98653       2.00957
Nuclear contribution   :     -3.55667     -29.71704      -2.09037
                        -----------------------------------------
Total Dipole Moment    :      0.13530      -0.73052      -0.08080
                        -----------------------------------------
Magnitude (a.u.)       :      0.74732
Magnitude (Debye)      :      1.89953

Rotational constants in cm-1:     0.020611     0.007875     0.006321
Rotational constants in MHz :   617.900618   236.088658   189.504835

                             ****ORCA TERMINATED NORMALLY****
TOTAL RUN TIME: 0 days 0 hours 0 minutes 21 seconds 263 msec
