                         Program Version 4.2.1 -  RELEASE  -
|  1> ! wB97X-D3 SP def2-SVP
|  2> %pal
|  3> nprocs 24
|  4> end
|  5>
|  6> * xyz 0 1
|  7> S 	 16.2717 	 -4.0892 	 -111.765
|  8> C 	 16.8194 	 -4.08067 	 -110.108
|  9> C 	 17.6483 	 -5.20717 	 -109.924
| 10> C 	 17.746 	 -6.09987 	 -111.028
| 11> C 	 17.093 	 -5.5946 	 -112.195
| 12> H 	 18.3595 	 -7.01383 	 -111.065
| 13> C 	 18.4602 	 -5.39359 	 -108.678
| 14> H 	 19.3516 	 -5.93575 	 -108.724
| 15> H 	 17.7332 	 -6.04148 	 -108.174
| 16> C 	 18.6767 	 -4.14946 	 -107.755
| 17> H 	 17.8436 	 -3.69079 	 -107.264
| 18> H 	 19.3067 	 -4.5348 	 -106.968
| 19> C 	 19.5302 	 -3.08217 	 -108.529
| 20> H 	 19.5575 	 -3.30643 	 -109.635
| 21> H 	 19.016 	 -2.0875 	 -108.457
| 22> H 	 20.5725 	 -2.96358 	 -108.202
| 23> S 	 18.3063 	 -6.06631 	 -114.53
| 24> C 	 17.5761 	 -6.96777 	 -115.786
| 25> C 	 16.218 	 -7.18152 	 -115.464
| 26> C 	 15.8496 	 -6.65314 	 -114.196
| 27> C 	 16.9154 	 -6.19633 	 -113.473
| 28> H 	 15.5164 	 -7.66438 	 -116.129
| 29> C 	 14.4137 	 -6.75201 	 -113.607
| 30> H 	 14.0838 	 -5.76138 	 -113.51
| 31> H 	 14.4581 	 -7.20741 	 -112.575
| 32> C 	 13.417 	 -7.47084 	 -114.474
| 33> H 	 13.7699 	 -8.49327 	 -114.635
| 34> H 	 13.237 	 -6.96956 	 -115.416
| 35> C 	 12.0743 	 -7.59261 	 -113.677
| 36> H 	 11.2907 	 -8.03933 	 -114.4
| 37> H 	 11.741 	 -6.63342 	 -113.414
| 38> H 	 12.1018 	 -8.25173 	 -112.759
| 39> H 	 16.5998 	 -3.31178 	 -109.394
| 40> H 	 18.1276 	 -7.42268 	 -116.645
| 41> *
| 42>
| 43>                          ****END OF INPUT****

CARTESIAN COORDINATES (ANGSTROEM)
---------------------------------
  S     16.271700   -4.089200  -111.765000
  C     16.819400   -4.080670  -110.108000
  C     17.648300   -5.207170  -109.924000
  C     17.746000   -6.099870  -111.028000
  C     17.093000   -5.594600  -112.195000
  H     18.359500   -7.013830  -111.065000
  C     18.460200   -5.393590  -108.678000
  H     19.351600   -5.935750  -108.724000
  H     17.733200   -6.041480  -108.174000
  C     18.676700   -4.149460  -107.755000
  H     17.843600   -3.690790  -107.264000
  H     19.306700   -4.534800  -106.968000
  C     19.530200   -3.082170  -108.529000
  H     19.557500   -3.306430  -109.635000
  H     19.016000   -2.087500  -108.457000
  H     20.572500   -2.963580  -108.202000
  S     18.306300   -6.066310  -114.530000
  C     17.576100   -6.967770  -115.786000
  C     16.218000   -7.181520  -115.464000
  C     15.849600   -6.653140  -114.196000
  C     16.915400   -6.196330  -113.473000
  H     15.516400   -7.664380  -116.129000
  C     14.413700   -6.752010  -113.607000
  H     14.083800   -5.761380  -113.510000
  H     14.458100   -7.207410  -112.575000
  C     13.417000   -7.470840  -114.474000
  H     13.769900   -8.493270  -114.635000
  H     13.237000   -6.969560  -115.416000
  C     12.074300   -7.592610  -113.677000
  H     11.290700   -8.039330  -114.400000
  H     11.741000   -6.633420  -113.414000
  H     12.101800   -8.251730  -112.759000
  H     16.599800   -3.311780  -109.394000
  H     18.127600   -7.422680  -116.645000

 Total Charge           Charge          ....    0
 Multiplicity           Mult            ....    1
 Number of Electrons    NEL             ....  134
 Basis Dimension        Dim             ....  322

ORBITAL ENERGIES
----------------

  NO   OCC          E(Eh)            E(eV)
   0   2.0000     -88.965247     -2420.8674
   1   2.0000     -88.961174     -2420.7566
   2   2.0000     -10.332440      -281.1600
   3   2.0000     -10.319940      -280.8199
   4   2.0000     -10.317805      -280.7617
   5   2.0000     -10.314935      -280.6837
   6   2.0000     -10.304690      -280.4049
   7   2.0000     -10.302135      -280.3353
   8   2.0000     -10.301473      -280.3173
   9   2.0000     -10.293937      -280.1123
  10   2.0000     -10.289069      -279.9798
  11   2.0000     -10.288532      -279.9652
  12   2.0000     -10.288010      -279.9510
  13   2.0000     -10.285630      -279.8862
  14   2.0000     -10.284230      -279.8481
  15   2.0000     -10.281279      -279.7678
  16   2.0000      -8.079263      -219.8479
  17   2.0000      -8.076725      -219.7789
  18   2.0000      -6.037686      -164.2938
  19   2.0000      -6.035108      -164.2236
  20   2.0000      -6.033630      -164.1834
  21   2.0000      -6.030948      -164.1104
  22   2.0000      -6.030401      -164.0956
  23   2.0000      -6.027724      -164.0227
  24   2.0000      -1.006930       -27.4000
  25   2.0000      -0.981927       -26.7196
  26   2.0000      -0.910091       -24.7648
  27   2.0000      -0.909841       -24.7580
  28   2.0000      -0.866293       -23.5730
  29   2.0000      -0.846839       -23.0437
  30   2.0000      -0.843772       -22.9602
  31   2.0000      -0.805593       -21.9213
  32   2.0000      -0.777862       -21.1667
  33   2.0000      -0.768677       -20.9168
  34   2.0000      -0.706781       -19.2325
  35   2.0000      -0.703279       -19.1372
  36   2.0000      -0.697435       -18.9782
  37   2.0000      -0.652925       -17.7670
  38   2.0000      -0.640348       -17.4248
  39   2.0000      -0.606584       -16.5060
  40   2.0000      -0.595725       -16.2105
  41   2.0000      -0.580200       -15.7880
  42   2.0000      -0.575976       -15.6731
  43   2.0000      -0.549656       -14.9569
  44   2.0000      -0.534491       -14.5442
  45   2.0000      -0.524289       -14.2666
  46   2.0000      -0.521266       -14.1844
  47   2.0000      -0.508281       -13.8310
  48   2.0000      -0.505240       -13.7483
  49   2.0000      -0.494233       -13.4488
  50   2.0000      -0.482288       -13.1237
  51   2.0000      -0.478198       -13.0124
  52   2.0000      -0.471771       -12.8376
  53   2.0000      -0.465469       -12.6660
  54   2.0000      -0.460235       -12.5236
  55   2.0000      -0.441755       -12.0208
  56   2.0000      -0.437957       -11.9174
  57   2.0000      -0.436958       -11.8902
  58   2.0000      -0.433271       -11.7899
  59   2.0000      -0.428398       -11.6573
  60   2.0000      -0.422596       -11.4994
  61   2.0000      -0.411920       -11.2089
  62   2.0000      -0.404527       -11.0077
  63   2.0000      -0.332970        -9.0606
  64   2.0000      -0.328815        -8.9475
  65   2.0000      -0.317619        -8.6429
  66   2.0000      -0.300420        -8.1749
  67   0.0000       0.029523         0.8034
  68   0.0000       0.062121         1.6904
  69   0.0000       0.115179         3.1342
  70   0.0000       0.125304         3.4097
  71   0.0000       0.129898         3.5347

MULLIKEN ATOMIC CHARGES
-----------------------
   0 S :    0.117005
   1 C :   -0.119970
   2 C :   -0.094921
   3 C :    0.038370
   4 C :   -0.174271
   5 H :    0.028197
   6 C :    0.051410
   7 H :    0.025116
   8 H :    0.040745
   9 C :   -0.059312
  10 H :    0.031206
  11 H :    0.027614
  12 C :   -0.108794
  13 H :    0.058170
  14 H :    0.034747
  15 H :    0.042837
  16 S :    0.114182
  17 C :   -0.096579
  18 C :   -0.061008
  19 C :   -0.022987
  20 C :   -0.187689
  21 H :    0.017944
  22 C :    0.087676
  23 H :    0.012948
  24 H :    0.049925
  25 C :   -0.103980
  26 H :    0.034818
  27 H :    0.038354
  28 C :   -0.057536
  29 H :    0.039729
  30 H :    0.019943
  31 H :    0.047049
  32 H :    0.049322
  33 H :    0.079741
Sum of atomic charges:   -0.0000000

LOEWDIN ATOMIC CHARGES
----------------------
   0 S :    0.413504
   1 C :   -0.206984
   2 C :   -0.063134
   3 C :   -0.059745
   4 C :   -0.199725
   5 H :    0.038708
   6 C :   -0.033699
   7 H :    0.024330
   8 H :    0.044160
   9 C :   -0.040640
  10 H :    0.019609
  11 H :    0.028311
  12 C :   -0.081233
  13 H :    0.034149
  14 H :    0.028179
  15 H :    0.025391
  16 S :    0.431392
  17 C :   -0.206710
  18 C :   -0.079445
  19 C :   -0.052456
  20 C :   -0.214905
  21 H :    0.028550
  22 C :   -0.030137
  23 H :    0.022090
  24 H :    0.042828
  25 C :   -0.043949
  26 H :    0.024226
  27 H :    0.024793
  28 C :   -0.064536
  29 H :    0.033447
  30 H :    0.012912
  31 H :    0.031734
  32 H :    0.027254
  33 H :    0.041733

  Mayer bond orders larger than 0.100000
B(  0-S ,  1-C ) :   1.1496 B(  0-S ,  4-C ) :   1.1668 B(  1-C ,  2-C ) :   1.5570
B(  1-C ,  4-C ) :   0.1134 B(  1-C , 32-H ) :   0.9715 B(  2-C ,  3-C ) :   1.2806
B(  2-C ,  6-C ) :   1.0027 B(  3-C ,  4-C ) :   1.5275 B(  3-C ,  5-H ) :   0.9904
B(  4-C , 20-C ) :   1.0376 B(  6-C ,  7-H ) :   0.9588 B(  6-C ,  8-H ) :   0.9231
B(  6-C ,  9-C ) :   1.0903 B(  9-C , 10-H ) :   0.9611 B(  9-C , 11-H ) :   0.9569
B(  9-C , 12-C ) :   1.0441 B( 12-C , 13-H ) :   0.9826 B( 12-C , 14-H ) :   0.9803
B( 12-C , 15-H ) :   0.9796 B( 16-S , 17-C ) :   1.1892 B( 16-S , 20-C ) :   1.1582
B( 17-C , 18-C ) :   1.5399 B( 17-C , 20-C ) :   0.1130 B( 17-C , 33-H ) :   0.9614
B( 18-C , 19-C ) :   1.2838 B( 18-C , 21-H ) :   0.9866 B( 19-C , 20-C ) :   1.5833
B( 19-C , 22-C ) :   1.0107 B( 22-C , 23-H ) :   0.9158 B( 22-C , 24-H ) :   0.9422
B( 22-C , 25-C ) :   1.1006 B( 25-C , 26-H ) :   0.9504 B( 25-C , 27-H ) :   0.9463
B( 25-C , 28-C ) :   1.0812 B( 28-C , 29-H ) :   0.9741 B( 28-C , 30-H ) :   0.9745
B( 28-C , 31-H ) :   0.9758

Dispersion correction           -0.014085066
FINAL SINGLE POINT ENERGY     -1339.864704474278

DIPOLE MOMENT
-------------
                                X             Y             Z
Electronic contribution:      8.26868       2.69628     -12.91466
Nuclear contribution   :     -8.37813      -2.97662      13.24817
                        -----------------------------------------
Total Dipole Moment    :     -0.10946      -0.28034       0.33351
                        -----------------------------------------
Magnitude (a.u.)       :      0.44922
Magnitude (Debye)      :      1.14184

Rotational constants in cm-1:     0.022825     0.007362     0.006121
Rotational constants in MHz :   684.265172   220.720175   183.499488

                             ****ORCA TERMINATED NORMALLY****
TOTAL RUN TIME: 0 days 0 hours 0 minutes 20 seconds 93 msec
