                         Program Version 4.2.1 -  RELEASE  -
|  1> ! wB97X-D3 SP def2-SVP
|  2> %pal
|  3> nprocs 24
|  4> end
|  5>
|  6> * xyz 0 1
|  7> S 	 -107.943 	 3.44607 	 -108.076
|  8> C 	 -107.382 	 5.10844 	 -108.252
|  9> C 	 -106.927 	 5.54038 	 -107.027
| 10> C 	 -106.78 	 4.47659 	 -106.061
| 11> C 	 -107.243 	 3.24091 	 -106.47
| 12> H 	 -106.213 	 4.45566 	 -105.07
| 13> C 	 -106.651 	 6.97808 	 -106.605
| 14> H 	 -107.013 	 7.03537 	 -105.624
| 15> H 	 -107.253 	 7.70448 	 -107.234
| 16> C 	 -105.202 	 7.32948 	 -106.611
| 17> H 	 -104.534 	 6.71187 	 -105.907
| 18> H 	 -104.802 	 7.26671 	 -107.644
| 19> C 	 -104.894 	 8.70678 	 -106.266
| 20> H 	 -103.818 	 8.8856 	 -106.296
| 21> H 	 -105.407 	 9.30733 	 -107.104
| 22> H 	 -105.336 	 9.03928 	 -105.341
| 23> S 	 -106.209 	 1.38713 	 -104.601
| 24> C 	 -107.233 	 0.102769 	 -104.045
| 25> C 	 -108.415 	 0.119875 	 -104.689
| 26> C 	 -108.556 	 1.12825 	 -105.694
| 27> C 	 -107.439 	 1.99076 	 -105.713
| 28> H 	 -109.237 	 -0.604294 	 -104.552
| 29> C 	 -109.79 	 1.15732 	 -106.559
| 30> H 	 -109.935 	 2.13531 	 -106.996
| 31> H 	 -110.688 	 0.884763 	 -105.902
| 32> C 	 -109.842 	 0.155867 	 -107.708
| 33> H 	 -109.746 	 -0.826342 	 -107.264
| 34> H 	 -108.886 	 0.285756 	 -108.289
| 35> C 	 -110.981 	 0.23963 	 -108.646
| 36> H 	 -111.865 	 0.112866 	 -108.075
| 37> H 	 -110.867 	 -0.53466 	 -109.365
| 38> H 	 -110.916 	 1.23892 	 -109.005
| 39> H 	 -107.511 	 5.76702 	 -109.094
| 40> H 	 -107.038 	 -0.559402 	 -103.257
| 41> *
| 42>
| 43>                          ****END OF INPUT****

CARTESIAN COORDINATES (ANGSTROEM)
---------------------------------
  S    -107.943000    3.446070  -108.076000
  C    -107.382000    5.108440  -108.252000
  C    -106.927000    5.540380  -107.027000
  C    -106.780000    4.476590  -106.061000
  C    -107.243000    3.240910  -106.470000
  H    -106.213000    4.455660  -105.070000
  C    -106.651000    6.978080  -106.605000
  H    -107.013000    7.035370  -105.624000
  H    -107.253000    7.704480  -107.234000
  C    -105.202000    7.329480  -106.611000
  H    -104.534000    6.711870  -105.907000
  H    -104.802000    7.266710  -107.644000
  C    -104.894000    8.706780  -106.266000
  H    -103.818000    8.885600  -106.296000
  H    -105.407000    9.307330  -107.104000
  H    -105.336000    9.039280  -105.341000
  S    -106.209000    1.387130  -104.601000
  C    -107.233000    0.102769  -104.045000
  C    -108.415000    0.119875  -104.689000
  C    -108.556000    1.128250  -105.694000
  C    -107.439000    1.990760  -105.713000
  H    -109.237000   -0.604294  -104.552000
  C    -109.790000    1.157320  -106.559000
  H    -109.935000    2.135310  -106.996000
  H    -110.688000    0.884763  -105.902000
  C    -109.842000    0.155867  -107.708000
  H    -109.746000   -0.826342  -107.264000
  H    -108.886000    0.285756  -108.289000
  C    -110.981000    0.239630  -108.646000
  H    -111.865000    0.112866  -108.075000
  H    -110.867000   -0.534660  -109.365000
  H    -110.916000    1.238920  -109.005000
  H    -107.511000    5.767020  -109.094000
  H    -107.038000   -0.559402  -103.257000

 Total Charge           Charge          ....    0
 Multiplicity           Mult            ....    1
 Number of Electrons    NEL             ....  134
 Basis Dimension        Dim             ....  322

ORBITAL ENERGIES
----------------

  NO   OCC          E(Eh)            E(eV)
   0   2.0000     -88.969619     -2420.9864
   1   2.0000     -88.965805     -2420.8826
   2   2.0000     -10.335997      -281.2568
   3   2.0000     -10.335476      -281.2426
   4   2.0000     -10.317089      -280.7423
   5   2.0000     -10.312985      -280.6306
   6   2.0000     -10.305500      -280.4269
   7   2.0000     -10.305326      -280.4222
   8   2.0000     -10.301007      -280.3046
   9   2.0000     -10.292722      -280.0792
  10   2.0000     -10.292454      -280.0719
  11   2.0000     -10.291691      -280.0512
  12   2.0000     -10.284656      -279.8597
  13   2.0000     -10.277331      -279.6604
  14   2.0000     -10.276558      -279.6394
  15   2.0000     -10.265574      -279.3405
  16   2.0000      -8.084169      -219.9814
  17   2.0000      -8.079628      -219.8579
  18   2.0000      -6.042818      -164.4334
  19   2.0000      -6.038685      -164.3210
  20   2.0000      -6.038324      -164.3111
  21   2.0000      -6.034819      -164.2158
  22   2.0000      -6.034259      -164.2005
  23   2.0000      -6.030229      -164.0909
  24   2.0000      -1.006780       -27.3959
  25   2.0000      -0.986975       -26.8570
  26   2.0000      -0.924405       -25.1543
  27   2.0000      -0.916042       -24.9268
  28   2.0000      -0.875615       -23.8267
  29   2.0000      -0.858150       -23.3515
  30   2.0000      -0.847769       -23.0690
  31   2.0000      -0.818306       -22.2673
  32   2.0000      -0.784928       -21.3590
  33   2.0000      -0.774681       -21.0801
  34   2.0000      -0.705795       -19.2057
  35   2.0000      -0.688909       -18.7462
  36   2.0000      -0.685588       -18.6558
  37   2.0000      -0.666295       -18.1308
  38   2.0000      -0.634504       -17.2657
  39   2.0000      -0.617253       -16.7963
  40   2.0000      -0.603349       -16.4180
  41   2.0000      -0.577880       -15.7249
  42   2.0000      -0.569723       -15.5029
  43   2.0000      -0.569184       -15.4883
  44   2.0000      -0.537394       -14.6232
  45   2.0000      -0.535072       -14.5600
  46   2.0000      -0.518748       -14.1158
  47   2.0000      -0.514909       -14.0114
  48   2.0000      -0.511214       -13.9108
  49   2.0000      -0.507445       -13.8083
  50   2.0000      -0.491996       -13.3879
  51   2.0000      -0.481868       -13.1123
  52   2.0000      -0.470857       -12.8127
  53   2.0000      -0.467709       -12.7270
  54   2.0000      -0.459419       -12.5014
  55   2.0000      -0.454880       -12.3779
  56   2.0000      -0.441013       -12.0006
  57   2.0000      -0.434736       -11.8298
  58   2.0000      -0.428084       -11.6488
  59   2.0000      -0.421228       -11.4622
  60   2.0000      -0.411987       -11.2107
  61   2.0000      -0.409401       -11.1404
  62   2.0000      -0.408302       -11.1105
  63   2.0000      -0.358734        -9.7617
  64   2.0000      -0.332323        -9.0430
  65   2.0000      -0.326182        -8.8759
  66   2.0000      -0.290744        -7.9116
  67   0.0000       0.025271         0.6876
  68   0.0000       0.078768         2.1434
  69   0.0000       0.101137         2.7521
  70   0.0000       0.117459         3.1962
  71   0.0000       0.129436         3.5221

MULLIKEN ATOMIC CHARGES
-----------------------
   0 S :    0.075333
   1 C :   -0.095728
   2 C :   -0.094965
   3 C :   -0.005795
   4 C :   -0.134800
   5 H :    0.041970
   6 C :    0.092041
   7 H :    0.014279
   8 H :    0.028324
   9 C :   -0.104687
  10 H :    0.037615
  11 H :    0.027407
  12 C :   -0.033336
  13 H :    0.041718
  14 H :    0.020405
  15 H :    0.021618
  16 S :    0.106935
  17 C :   -0.054708
  18 C :   -0.031584
  19 C :   -0.046157
  20 C :   -0.135419
  21 H :    0.024980
  22 C :    0.030286
  23 H :    0.016278
  24 H :    0.029268
  25 C :   -0.113426
  26 H :    0.008856
  27 H :    0.024376
  28 C :    0.053075
  29 H :    0.011711
  30 H :    0.036138
  31 H :    0.022167
  32 H :    0.045973
  33 H :    0.039851
Sum of atomic charges:    0.0000000

LOEWDIN ATOMIC CHARGES
----------------------
   0 S :    0.402290
   1 C :   -0.192477
   2 C :   -0.058352
   3 C :   -0.077707
   4 C :   -0.180850
   5 H :    0.042596
   6 C :   -0.028320
   7 H :    0.026347
   8 H :    0.036320
   9 C :   -0.056501
  10 H :    0.030653
  11 H :    0.028790
  12 C :   -0.065511
  13 H :    0.028592
  14 H :    0.027960
  15 H :    0.016418
  16 S :    0.407966
  17 C :   -0.181459
  18 C :   -0.070626
  19 C :   -0.054124
  20 C :   -0.193607
  21 H :    0.035324
  22 C :   -0.043101
  23 H :    0.011648
  24 H :    0.036284
  25 C :   -0.046694
  26 H :    0.013784
  27 H :    0.022855
  28 C :   -0.047653
  29 H :    0.019584
  30 H :    0.028790
  31 H :    0.025413
  32 H :    0.030983
  33 H :    0.024384

  Mayer bond orders larger than 0.100000
B(  0-S ,  1-C ) :   1.1201 B(  0-S ,  4-C ) :   1.1379 B(  1-C ,  2-C ) :   1.6303
B(  1-C , 32-H ) :   0.9733 B(  2-C ,  3-C ) :   1.2241 B(  2-C ,  6-C ) :   1.0222
B(  3-C ,  4-C ) :   1.6058 B(  3-C ,  5-H ) :   0.9731 B(  4-C , 20-C ) :   1.0366
B(  6-C ,  7-H ) :   0.9296 B(  6-C ,  8-H ) :   0.9406 B(  6-C ,  9-C ) :   1.0789
B(  9-C , 10-H ) :   0.9486 B(  9-C , 11-H ) :   0.9528 B(  9-C , 12-C ) :   1.0953
B( 12-C , 13-H ) :   0.9724 B( 12-C , 14-H ) :   0.9706 B( 12-C , 15-H ) :   0.9703
B( 16-S , 17-C ) :   1.1401 B( 16-S , 20-C ) :   1.1389 B( 17-C , 18-C ) :   1.6107
B( 17-C , 33-H ) :   0.9720 B( 18-C , 19-C ) :   1.2634 B( 18-C , 21-H ) :   0.9808
B( 19-C , 20-C ) :   1.5660 B( 19-C , 22-C ) :   1.0589 B( 22-C , 23-H ) :   0.9233
B( 22-C , 24-H ) :   0.9253 B( 22-C , 25-C ) :   1.0666 B( 25-C , 26-H ) :   0.9499
B( 25-C , 27-H ) :   0.9489 B( 25-C , 28-C ) :   1.0868 B( 28-C , 29-H ) :   0.9695
B( 28-C , 30-H ) :   0.9695 B( 28-C , 31-H ) :   0.9705

Dispersion correction           -0.013749064
FINAL SINGLE POINT ENERGY     -1339.871510841009

DIPOLE MOMENT
-------------
                                X             Y             Z
Electronic contribution:      5.03821     -11.35950       5.73859
Nuclear contribution   :     -5.24602      11.54951      -5.60190
                        -----------------------------------------
Total Dipole Moment    :     -0.20780       0.19001       0.13669
                        -----------------------------------------
Magnitude (a.u.)       :      0.31300
Magnitude (Debye)      :      0.79559

Rotational constants in cm-1:     0.021955     0.007605     0.005881
Rotational constants in MHz :   658.180056   227.995023   176.312645

                             ****ORCA TERMINATED NORMALLY****
TOTAL RUN TIME: 0 days 0 hours 0 minutes 21 seconds 24 msec
