                         Program Version 4.2.1 -  RELEASE  -
|  1> ! wB97X-D3 SP def2-SVP
|  2> %pal
|  3> nprocs 24
|  4> end
|  5>
|  6> * xyz 0 1
|  7> S 	 -122.32 	 19.7596 	 -109.078
|  8> C 	 -122.948 	 20.4852 	 -110.558
|  9> C 	 -122.173 	 20.0364 	 -111.584
| 10> C 	 -121.086 	 19.1947 	 -111.261
| 11> C 	 -120.997 	 19.0308 	 -109.886
| 12> H 	 -120.312 	 18.7775 	 -111.978
| 13> C 	 -122.273 	 20.6712 	 -112.937
| 14> H 	 -122.986 	 21.4719 	 -113.014
| 15> H 	 -122.586 	 19.9549 	 -113.591
| 16> C 	 -120.933 	 21.2789 	 -113.47
| 17> H 	 -120.497 	 21.7621 	 -112.664
| 18> H 	 -120.367 	 20.3535 	 -113.775
| 19> C 	 -121.06 	 22.1996 	 -114.722
| 20> H 	 -120.166 	 22.7682 	 -114.952
| 21> H 	 -121.254 	 21.5927 	 -115.544
| 22> H 	 -121.908 	 22.9203 	 -114.569
| 23> S 	 -119.259 	 19.1292 	 -107.667
| 24> C 	 -118.107 	 17.7921 	 -107.428
| 25> C 	 -118.221 	 16.8185 	 -108.464
| 26> C 	 -119.117 	 17.1949 	 -109.482
| 27> C 	 -119.899 	 18.3508 	 -109.141
| 28> H 	 -117.494 	 15.9835 	 -108.375
| 29> C 	 -119.249 	 16.3396 	 -110.74
| 30> H 	 -118.686 	 16.9043 	 -111.469
| 31> H 	 -120.255 	 16.1134 	 -111.035
| 32> C 	 -118.613 	 14.9601 	 -110.629
| 33> H 	 -119.17 	 14.3222 	 -110.024
| 34> H 	 -117.642 	 15.0658 	 -110.142
| 35> C 	 -118.253 	 14.3063 	 -112.014
| 36> H 	 -119.145 	 14.206 	 -112.625
| 37> H 	 -117.875 	 13.2502 	 -111.874
| 38> H 	 -117.475 	 14.827 	 -112.482
| 39> H 	 -123.698 	 21.2818 	 -110.564
| 40> H 	 -117.455 	 17.5371 	 -106.576
| 41> *
| 42>
| 43>                          ****END OF INPUT****

CARTESIAN COORDINATES (ANGSTROEM)
---------------------------------
  S    -122.320000   19.759600  -109.078000
  C    -122.948000   20.485200  -110.558000
  C    -122.173000   20.036400  -111.584000
  C    -121.086000   19.194700  -111.261000
  C    -120.997000   19.030800  -109.886000
  H    -120.312000   18.777500  -111.978000
  C    -122.273000   20.671200  -112.937000
  H    -122.986000   21.471900  -113.014000
  H    -122.586000   19.954900  -113.591000
  C    -120.933000   21.278900  -113.470000
  H    -120.497000   21.762100  -112.664000
  H    -120.367000   20.353500  -113.775000
  C    -121.060000   22.199600  -114.722000
  H    -120.166000   22.768200  -114.952000
  H    -121.254000   21.592700  -115.544000
  H    -121.908000   22.920300  -114.569000
  S    -119.259000   19.129200  -107.667000
  C    -118.107000   17.792100  -107.428000
  C    -118.221000   16.818500  -108.464000
  C    -119.117000   17.194900  -109.482000
  C    -119.899000   18.350800  -109.141000
  H    -117.494000   15.983500  -108.375000
  C    -119.249000   16.339600  -110.740000
  H    -118.686000   16.904300  -111.469000
  H    -120.255000   16.113400  -111.035000
  C    -118.613000   14.960100  -110.629000
  H    -119.170000   14.322200  -110.024000
  H    -117.642000   15.065800  -110.142000
  C    -118.253000   14.306300  -112.014000
  H    -119.145000   14.206000  -112.625000
  H    -117.875000   13.250200  -111.874000
  H    -117.475000   14.827000  -112.482000
  H    -123.698000   21.281800  -110.564000
  H    -117.455000   17.537100  -106.576000

 Total Charge           Charge          ....    0
 Multiplicity           Mult            ....    1
 Number of Electrons    NEL             ....  134
 Basis Dimension        Dim             ....  322

ORBITAL ENERGIES
----------------

  NO   OCC          E(Eh)            E(eV)
   0   2.0000     -88.973937     -2421.1039
   1   2.0000     -88.963243     -2420.8129
   2   2.0000     -10.337134      -281.2877
   3   2.0000     -10.332816      -281.1702
   4   2.0000     -10.324667      -280.9485
   5   2.0000     -10.312278      -280.6114
   6   2.0000     -10.311782      -280.5979
   7   2.0000     -10.299592      -280.2661
   8   2.0000     -10.297323      -280.2044
   9   2.0000     -10.296618      -280.1852
  10   2.0000     -10.291601      -280.0487
  11   2.0000     -10.284309      -279.8503
  12   2.0000     -10.282275      -279.7949
  13   2.0000     -10.281476      -279.7732
  14   2.0000     -10.278374      -279.6888
  15   2.0000     -10.277501      -279.6650
  16   2.0000      -8.086776      -220.0523
  17   2.0000      -8.078646      -219.8311
  18   2.0000      -6.045293      -164.5008
  19   2.0000      -6.041462      -164.3965
  20   2.0000      -6.037712      -164.2945
  21   2.0000      -6.037093      -164.2777
  22   2.0000      -6.032985      -164.1659
  23   2.0000      -6.029488      -164.0707
  24   2.0000      -1.006598       -27.3909
  25   2.0000      -0.979412       -26.6512
  26   2.0000      -0.913378       -24.8543
  27   2.0000      -0.909121       -24.7384
  28   2.0000      -0.863928       -23.5087
  29   2.0000      -0.849162       -23.1069
  30   2.0000      -0.843174       -22.9439
  31   2.0000      -0.813369       -22.1329
  32   2.0000      -0.783948       -21.3323
  33   2.0000      -0.772332       -21.0162
  34   2.0000      -0.711179       -19.3522
  35   2.0000      -0.703186       -19.1347
  36   2.0000      -0.692572       -18.8458
  37   2.0000      -0.647734       -17.6257
  38   2.0000      -0.639053       -17.3895
  39   2.0000      -0.621374       -16.9085
  40   2.0000      -0.596015       -16.2184
  41   2.0000      -0.577308       -15.7093
  42   2.0000      -0.574053       -15.6208
  43   2.0000      -0.562575       -15.3084
  44   2.0000      -0.525039       -14.2870
  45   2.0000      -0.520436       -14.1618
  46   2.0000      -0.516833       -14.0637
  47   2.0000      -0.512298       -13.9403
  48   2.0000      -0.505573       -13.7574
  49   2.0000      -0.498637       -13.5686
  50   2.0000      -0.497833       -13.5467
  51   2.0000      -0.474334       -12.9073
  52   2.0000      -0.469557       -12.7773
  53   2.0000      -0.464934       -12.6515
  54   2.0000      -0.462491       -12.5850
  55   2.0000      -0.451882       -12.2963
  56   2.0000      -0.450054       -12.2466
  57   2.0000      -0.438827       -11.9411
  58   2.0000      -0.438126       -11.9220
  59   2.0000      -0.421411       -11.4672
  60   2.0000      -0.417543       -11.3619
  61   2.0000      -0.415301       -11.3009
  62   2.0000      -0.407407       -11.0861
  63   2.0000      -0.348034        -9.4705
  64   2.0000      -0.335724        -9.1355
  65   2.0000      -0.330544        -8.9946
  66   2.0000      -0.285411        -7.7664
  67   0.0000       0.019099         0.5197
  68   0.0000       0.075221         2.0469
  69   0.0000       0.112089         3.0501
  70   0.0000       0.127174         3.4606
  71   0.0000       0.131683         3.5833

MULLIKEN ATOMIC CHARGES
-----------------------
   0 S :    0.098804
   1 C :   -0.139768
   2 C :   -0.062144
   3 C :   -0.012472
   4 C :   -0.137096
   5 H :    0.041798
   6 C :    0.104243
   7 H :   -0.001626
   8 H :    0.003432
   9 C :   -0.111862
  10 H :    0.030600
  11 H :    0.034397
  12 C :   -0.025065
  13 H :    0.038684
  14 H :    0.018541
  15 H :    0.033607
  16 S :    0.118829
  17 C :   -0.099409
  18 C :   -0.086788
  19 C :   -0.039854
  20 C :   -0.148848
  21 H :    0.041276
  22 C :    0.093244
  23 H :    0.036944
  24 H :    0.040186
  25 C :   -0.095482
  26 H :    0.022873
  27 H :    0.027122
  28 C :   -0.047829
  29 H :    0.032709
  30 H :    0.036668
  31 H :    0.029012
  32 H :    0.060549
  33 H :    0.064725
Sum of atomic charges:   -0.0000000

LOEWDIN ATOMIC CHARGES
----------------------
   0 S :    0.410494
   1 C :   -0.198850
   2 C :   -0.063315
   3 C :   -0.077315
   4 C :   -0.195649
   5 H :    0.045132
   6 C :   -0.022711
   7 H :    0.020689
   8 H :    0.016373
   9 C :   -0.031802
  10 H :    0.013151
  11 H :    0.026227
  12 C :   -0.060536
  13 H :    0.028674
  14 H :    0.016436
  15 H :    0.028822
  16 S :    0.397350
  17 C :   -0.191817
  18 C :   -0.080539
  19 C :   -0.051732
  20 C :   -0.193760
  21 H :    0.040378
  22 C :   -0.028152
  23 H :    0.033615
  24 H :    0.032555
  25 C :   -0.035172
  26 H :    0.014899
  27 H :    0.020874
  28 C :   -0.059345
  29 H :    0.022061
  30 H :    0.034043
  31 H :    0.016576
  32 H :    0.034726
  33 H :    0.037616

  Mayer bond orders larger than 0.100000
B(  0-S ,  1-C ) :   1.1140 B(  0-S ,  4-C ) :   1.1840 B(  1-C ,  2-C ) :   1.6032
B(  1-C , 32-H ) :   0.9730 B(  2-C ,  3-C ) :   1.2437 B(  2-C ,  6-C ) :   1.0353
B(  3-C ,  4-C ) :   1.5428 B(  3-C ,  5-H ) :   0.9831 B(  4-C , 20-C ) :   1.0455
B(  6-C ,  7-H ) :   0.9490 B(  6-C ,  8-H ) :   0.9232 B(  6-C ,  9-C ) :   1.0554
B(  9-C , 10-H ) :   0.9674 B(  9-C , 11-H ) :   0.9525 B(  9-C , 12-C ) :   1.0806
B( 12-C , 13-H ) :   0.9755 B( 12-C , 14-H ) :   0.9765 B( 12-C , 15-H ) :   0.9754
B( 16-S , 17-C ) :   1.1610 B( 16-S , 20-C ) :   1.1471 B( 17-C , 18-C ) :   1.5914
B( 17-C , 20-C ) :   0.1189 B( 17-C , 33-H ) :   0.9562 B( 18-C , 19-C ) :   1.2848
B( 18-C , 21-H ) :   0.9751 B( 19-C , 20-C ) :   1.5480 B( 19-C , 22-C ) :   1.0211
B( 22-C , 23-H ) :   0.9226 B( 22-C , 24-H ) :   0.9375 B( 22-C , 25-C ) :   1.0886
B( 25-C , 26-H ) :   0.9589 B( 25-C , 27-H ) :   0.9424 B( 25-C , 28-C ) :   1.0801
B( 28-C , 29-H ) :   0.9772 B( 28-C , 30-H ) :   0.9734 B( 28-C , 31-H ) :   0.9788

Dispersion correction           -0.013347302
FINAL SINGLE POINT ENERGY     -1339.856417878517

DIPOLE MOMENT
-------------
                                X             Y             Z
Electronic contribution:     -6.37337       7.02115      27.27695
Nuclear contribution   :      6.70775      -7.25039     -27.85138
                        -----------------------------------------
Total Dipole Moment    :      0.33438      -0.22924      -0.57444
                        -----------------------------------------
Magnitude (a.u.)       :      0.70310
Magnitude (Debye)      :      1.78713

Rotational constants in cm-1:     0.016345     0.008294     0.006345
Rotational constants in MHz :   490.017882   248.650005   190.226941

                             ****ORCA TERMINATED NORMALLY****
TOTAL RUN TIME: 0 days 0 hours 0 minutes 21 seconds 18 msec
