                         Program Version 4.2.1 -  RELEASE  -
|  1> ! wB97X-D3 SP def2-SVP
|  2> %pal
|  3> nprocs 24
|  4> end
|  5>
|  6> * xyz 0 1
|  7> S 	 -114.647 	 63.671 	 -30.0684
|  8> C 	 -114.383 	 63.4939 	 -28.3899
|  9> C 	 -115.542 	 63.3045 	 -27.7143
| 10> C 	 -116.674 	 63.5186 	 -28.5417
| 11> C 	 -116.353 	 63.6972 	 -29.8818
| 12> H 	 -117.733 	 63.4622 	 -28.3258
| 13> C 	 -115.592 	 62.9631 	 -26.2879
| 14> H 	 -116.131 	 63.7413 	 -25.6898
| 15> H 	 -114.507 	 62.9711 	 -25.9036
| 16> C 	 -116.173 	 61.5839 	 -25.9359
| 17> H 	 -117.169 	 61.3782 	 -26.2687
| 18> H 	 -115.518 	 60.8724 	 -26.4629
| 19> C 	 -116.058 	 61.3834 	 -24.4533
| 20> H 	 -116.435 	 62.2131 	 -23.8639
| 21> H 	 -116.48 	 60.4263 	 -24.107
| 22> H 	 -114.975 	 61.3189 	 -24.2512
| 23> S 	 -117.513 	 65.4002 	 -31.8002
| 24> C 	 -118.613 	 64.6777 	 -32.9233
| 25> C 	 -119.018 	 63.4559 	 -32.5257
| 26> C 	 -118.268 	 62.9887 	 -31.4206
| 27> C 	 -117.329 	 63.8269 	 -30.9441
| 28> H 	 -119.691 	 62.8614 	 -33.2093
| 29> C 	 -118.561 	 61.6196 	 -30.833
| 30> H 	 -119.507 	 61.5842 	 -30.4073
| 31> H 	 -117.95 	 61.4426 	 -29.9198
| 32> C 	 -118.364 	 60.4848 	 -31.7231
| 33> H 	 -117.391 	 60.5126 	 -32.148
| 34> H 	 -119.206 	 60.4408 	 -32.4546
| 35> C 	 -118.684 	 59.1788 	 -31.0033
| 36> H 	 -118.928 	 58.4505 	 -31.7933
| 37> H 	 -119.522 	 59.2813 	 -30.3354
| 38> H 	 -117.798 	 58.9305 	 -30.3955
| 39> H 	 -113.441 	 63.7648 	 -27.8705
| 40> H 	 -118.916 	 65.1638 	 -33.9347
| 41> *
| 42>
| 43>                          ****END OF INPUT****

CARTESIAN COORDINATES (ANGSTROEM)
---------------------------------
  S    -114.647000   63.671000  -30.068400
  C    -114.383000   63.493900  -28.389900
  C    -115.542000   63.304500  -27.714300
  C    -116.674000   63.518600  -28.541700
  C    -116.353000   63.697200  -29.881800
  H    -117.733000   63.462200  -28.325800
  C    -115.592000   62.963100  -26.287900
  H    -116.131000   63.741300  -25.689800
  H    -114.507000   62.971100  -25.903600
  C    -116.173000   61.583900  -25.935900
  H    -117.169000   61.378200  -26.268700
  H    -115.518000   60.872400  -26.462900
  C    -116.058000   61.383400  -24.453300
  H    -116.435000   62.213100  -23.863900
  H    -116.480000   60.426300  -24.107000
  H    -114.975000   61.318900  -24.251200
  S    -117.513000   65.400200  -31.800200
  C    -118.613000   64.677700  -32.923300
  C    -119.018000   63.455900  -32.525700
  C    -118.268000   62.988700  -31.420600
  C    -117.329000   63.826900  -30.944100
  H    -119.691000   62.861400  -33.209300
  C    -118.561000   61.619600  -30.833000
  H    -119.507000   61.584200  -30.407300
  H    -117.950000   61.442600  -29.919800
  C    -118.364000   60.484800  -31.723100
  H    -117.391000   60.512600  -32.148000
  H    -119.206000   60.440800  -32.454600
  C    -118.684000   59.178800  -31.003300
  H    -118.928000   58.450500  -31.793300
  H    -119.522000   59.281300  -30.335400
  H    -117.798000   58.930500  -30.395500
  H    -113.441000   63.764800  -27.870500
  H    -118.916000   65.163800  -33.934700

 Total Charge           Charge          ....    0
 Multiplicity           Mult            ....    1
 Number of Electrons    NEL             ....  134
 Basis Dimension        Dim             ....  322

ORBITAL ENERGIES
----------------

  NO   OCC          E(Eh)            E(eV)
   0   2.0000     -88.964859     -2420.8569
   1   2.0000     -88.958323     -2420.6790
   2   2.0000     -10.324079      -280.9325
   3   2.0000     -10.322465      -280.8885
   4   2.0000     -10.320453      -280.8338
   5   2.0000     -10.309807      -280.5441
   6   2.0000     -10.298184      -280.2278
   7   2.0000     -10.296853      -280.1916
   8   2.0000     -10.294527      -280.1283
   9   2.0000     -10.292038      -280.0606
  10   2.0000     -10.291385      -280.0428
  11   2.0000     -10.284659      -279.8598
  12   2.0000     -10.278090      -279.6810
  13   2.0000     -10.277409      -279.6625
  14   2.0000     -10.276352      -279.6338
  15   2.0000     -10.276062      -279.6259
  16   2.0000      -8.080956      -219.8940
  17   2.0000      -8.073382      -219.6879
  18   2.0000      -6.039265      -164.3368
  19   2.0000      -6.035206      -164.2263
  20   2.0000      -6.031942      -164.1375
  21   2.0000      -6.031894      -164.1362
  22   2.0000      -6.027969      -164.0294
  23   2.0000      -6.023928      -163.9194
  24   2.0000      -1.014582       -27.6082
  25   2.0000      -0.993974       -27.0474
  26   2.0000      -0.922491       -25.1023
  27   2.0000      -0.919489       -25.0206
  28   2.0000      -0.876694       -23.8561
  29   2.0000      -0.855641       -23.2832
  30   2.0000      -0.847915       -23.0730
  31   2.0000      -0.815927       -22.2025
  32   2.0000      -0.781152       -21.2562
  33   2.0000      -0.769691       -20.9444
  34   2.0000      -0.708016       -19.2661
  35   2.0000      -0.694352       -18.8943
  36   2.0000      -0.692595       -18.8465
  37   2.0000      -0.653955       -17.7950
  38   2.0000      -0.645740       -17.5715
  39   2.0000      -0.618734       -16.8366
  40   2.0000      -0.600866       -16.3504
  41   2.0000      -0.579810       -15.7774
  42   2.0000      -0.576088       -15.6761
  43   2.0000      -0.566168       -15.4062
  44   2.0000      -0.532228       -14.4827
  45   2.0000      -0.523121       -14.2349
  46   2.0000      -0.522039       -14.2054
  47   2.0000      -0.510210       -13.8835
  48   2.0000      -0.505379       -13.7521
  49   2.0000      -0.503072       -13.6893
  50   2.0000      -0.492832       -13.4106
  51   2.0000      -0.483378       -13.1534
  52   2.0000      -0.465905       -12.6779
  53   2.0000      -0.457847       -12.4587
  54   2.0000      -0.456690       -12.4272
  55   2.0000      -0.449659       -12.2358
  56   2.0000      -0.448402       -12.2016
  57   2.0000      -0.440123       -11.9764
  58   2.0000      -0.439800       -11.9676
  59   2.0000      -0.424223       -11.5437
  60   2.0000      -0.420422       -11.4403
  61   2.0000      -0.414798       -11.2872
  62   2.0000      -0.400432       -10.8963
  63   2.0000      -0.335592        -9.1319
  64   2.0000      -0.329482        -8.9657
  65   2.0000      -0.326925        -8.8961
  66   2.0000      -0.309543        -8.4231
  67   0.0000       0.033268         0.9053
  68   0.0000       0.072497         1.9727
  69   0.0000       0.112149         3.0517
  70   0.0000       0.123227         3.3532
  71   0.0000       0.134814         3.6685

MULLIKEN ATOMIC CHARGES
-----------------------
   0 S :    0.131577
   1 C :   -0.135318
   2 C :   -0.058920
   3 C :    0.051779
   4 C :   -0.185488
   5 H :    0.011379
   6 C :    0.005916
   7 H :    0.037561
   8 H :    0.020187
   9 C :   -0.056770
  10 H :    0.025841
  11 H :    0.028327
  12 C :   -0.036782
  13 H :    0.030592
  14 H :    0.036350
  15 H :    0.021783
  16 S :    0.091214
  17 C :   -0.122730
  18 C :   -0.042996
  19 C :    0.000769
  20 C :   -0.179201
  21 H :    0.041847
  22 C :    0.089359
  23 H :    0.000865
  24 H :    0.008727
  25 C :   -0.087409
  26 H :    0.034690
  27 H :    0.022729
  28 C :   -0.040217
  29 H :    0.039838
  30 H :    0.021244
  31 H :    0.036000
  32 H :    0.068144
  33 H :    0.089114
Sum of atomic charges:   -0.0000000

LOEWDIN ATOMIC CHARGES
----------------------
   0 S :    0.439712
   1 C :   -0.215449
   2 C :   -0.075817
   3 C :   -0.052890
   4 C :   -0.212043
   5 H :    0.031367
   6 C :   -0.037493
   7 H :    0.031761
   8 H :    0.035583
   9 C :   -0.039428
  10 H :    0.017170
  11 H :    0.028558
  12 C :   -0.065250
  13 H :    0.023286
  14 H :    0.027391
  15 H :    0.027004
  16 S :    0.377732
  17 C :   -0.189676
  18 C :   -0.088912
  19 C :   -0.049685
  20 C :   -0.187729
  21 H :    0.043463
  22 C :   -0.035178
  23 H :    0.021257
  24 H :    0.030009
  25 C :   -0.041088
  26 H :    0.023869
  27 H :    0.024947
  28 C :   -0.058842
  29 H :    0.029088
  30 H :    0.020326
  31 H :    0.025913
  32 H :    0.040151
  33 H :    0.050894

  Mayer bond orders larger than 0.100000
B(  0-S ,  1-C ) :   1.1536 B(  0-S ,  4-C ) :   1.1705 B(  1-C ,  2-C ) :   1.5992
B(  1-C , 32-H ) :   0.9561 B(  2-C ,  3-C ) :   1.2396 B(  2-C ,  6-C ) :   1.0385
B(  3-C ,  4-C ) :   1.5507 B(  3-C ,  5-H ) :   1.0012 B(  4-C , 20-C ) :   1.0369
B(  6-C ,  7-H ) :   0.9341 B(  6-C ,  8-H ) :   0.9421 B(  6-C ,  9-C ) :   1.0556
B(  9-C , 10-H ) :   0.9570 B(  9-C , 11-H ) :   0.9517 B(  9-C , 12-C ) :   1.0862
B( 12-C , 13-H ) :   0.9731 B( 12-C , 14-H ) :   0.9723 B( 12-C , 15-H ) :   0.9732
B( 16-S , 17-C ) :   1.1566 B( 16-S , 20-C ) :   1.1047 B( 17-C , 18-C ) :   1.6438
B( 17-C , 33-H ) :   0.9495 B( 18-C , 19-C ) :   1.2044 B( 18-C , 21-H ) :   0.9819
B( 19-C , 20-C ) :   1.6602 B( 19-C , 22-C ) :   1.0330 B( 22-C , 23-H ) :   0.9190
B( 22-C , 24-H ) :   0.9272 B( 22-C , 25-C ) :   1.0890 B( 25-C , 26-H ) :   0.9571
B( 25-C , 27-H ) :   0.9519 B( 25-C , 28-C ) :   1.0756 B( 28-C , 29-H ) :   0.9790
B( 28-C , 30-H ) :   0.9708 B( 28-C , 31-H ) :   0.9738

Dispersion correction           -0.013843622
FINAL SINGLE POINT ENERGY     -1339.869446428075

DIPOLE MOMENT
-------------
                                X             Y             Z
Electronic contribution:      7.02826      23.45173     -17.52761
Nuclear contribution   :     -7.32806     -23.92678      17.81196
                        -----------------------------------------
Total Dipole Moment    :     -0.29980      -0.47505       0.28435
                        -----------------------------------------
Magnitude (a.u.)       :      0.62961
Magnitude (Debye)      :      1.60033

Rotational constants in cm-1:     0.017771     0.008723     0.006706
Rotational constants in MHz :   532.763064   261.494531   201.047247

                             ****ORCA TERMINATED NORMALLY****
TOTAL RUN TIME: 0 days 0 hours 0 minutes 21 seconds 695 msec
