                         Program Version 4.2.1 -  RELEASE  -
|  1> ! wB97X-D3 SP def2-SVP
|  2> %pal
|  3> nprocs 24
|  4> end
|  5>
|  6> * xyz 0 1
|  7> S 	 -132.705 	 64.7996 	 -59.7649
|  8> C 	 -133.084 	 66.5183 	 -59.6506
|  9> C 	 -132.522 	 67.2594 	 -60.6689
| 10> C 	 -131.825 	 66.4094 	 -61.5466
| 11> C 	 -131.791 	 65.1059 	 -61.1727
| 12> H 	 -131.357 	 66.7276 	 -62.4545
| 13> C 	 -132.444 	 68.7814 	 -60.7896
| 14> H 	 -133.356 	 69.2226 	 -60.3795
| 15> H 	 -132.298 	 69.0581 	 -61.8637
| 16> C 	 -131.285 	 69.46 	 -60.0663
| 17> H 	 -130.39 	 69.0074 	 -60.5245
| 18> H 	 -131.32 	 70.5331 	 -60.2785
| 19> C 	 -131.203 	 69.2576 	 -58.5523
| 20> H 	 -132.132 	 69.5078 	 -58.0977
| 21> H 	 -131.062 	 68.1627 	 -58.35
| 22> H 	 -130.351 	 69.7125 	 -58.1016
| 23> S 	 -131.913 	 62.8788 	 -62.753
| 24> C 	 -130.539 	 61.8389 	 -62.9649
| 25> C 	 -129.408 	 62.3335 	 -62.3712
| 26> C 	 -129.659 	 63.5919 	 -61.6975
| 27> C 	 -131.023 	 64.0291 	 -61.7577
| 28> H 	 -128.507 	 61.7361 	 -62.3331
| 29> C 	 -128.574 	 64.1205 	 -60.7796
| 30> H 	 -127.637 	 63.7324 	 -61.0046
| 31> H 	 -128.693 	 63.7228 	 -59.7932
| 32> C 	 -128.66 	 65.6265 	 -60.6509
| 33> H 	 -129.518 	 65.9386 	 -60.0809
| 34> H 	 -128.779 	 66.1497 	 -61.6069
| 35> C 	 -127.43 	 66.2547 	 -59.8658
| 36> H 	 -127.6 	 67.239 	 -59.4881
| 37> H 	 -126.521 	 66.1416 	 -60.4535
| 38> H 	 -127.16 	 65.5871 	 -59.0054
| 39> H 	 -133.574 	 67.0389 	 -58.7959
| 40> H 	 -130.482 	 60.9043 	 -63.5509
| 41> *
| 42>
| 43>                          ****END OF INPUT****

CARTESIAN COORDINATES (ANGSTROEM)
---------------------------------
  S    -132.705000   64.799600  -59.764900
  C    -133.084000   66.518300  -59.650600
  C    -132.522000   67.259400  -60.668900
  C    -131.825000   66.409400  -61.546600
  C    -131.791000   65.105900  -61.172700
  H    -131.357000   66.727600  -62.454500
  C    -132.444000   68.781400  -60.789600
  H    -133.356000   69.222600  -60.379500
  H    -132.298000   69.058100  -61.863700
  C    -131.285000   69.460000  -60.066300
  H    -130.390000   69.007400  -60.524500
  H    -131.320000   70.533100  -60.278500
  C    -131.203000   69.257600  -58.552300
  H    -132.132000   69.507800  -58.097700
  H    -131.062000   68.162700  -58.350000
  H    -130.351000   69.712500  -58.101600
  S    -131.913000   62.878800  -62.753000
  C    -130.539000   61.838900  -62.964900
  C    -129.408000   62.333500  -62.371200
  C    -129.659000   63.591900  -61.697500
  C    -131.023000   64.029100  -61.757700
  H    -128.507000   61.736100  -62.333100
  C    -128.574000   64.120500  -60.779600
  H    -127.637000   63.732400  -61.004600
  H    -128.693000   63.722800  -59.793200
  C    -128.660000   65.626500  -60.650900
  H    -129.518000   65.938600  -60.080900
  H    -128.779000   66.149700  -61.606900
  C    -127.430000   66.254700  -59.865800
  H    -127.600000   67.239000  -59.488100
  H    -126.521000   66.141600  -60.453500
  H    -127.160000   65.587100  -59.005400
  H    -133.574000   67.038900  -58.795900
  H    -130.482000   60.904300  -63.550900

 Total Charge           Charge          ....    0
 Multiplicity           Mult            ....    1
 Number of Electrons    NEL             ....  134
 Basis Dimension        Dim             ....  322

ORBITAL ENERGIES
----------------

  NO   OCC          E(Eh)            E(eV)
   0   2.0000     -88.970255     -2421.0037
   1   2.0000     -88.964008     -2420.8337
   2   2.0000     -10.329459      -281.0789
   3   2.0000     -10.322482      -280.8890
   4   2.0000     -10.317520      -280.7540
   5   2.0000     -10.316898      -280.7371
   6   2.0000     -10.310542      -280.5641
   7   2.0000     -10.299638      -280.2674
   8   2.0000     -10.298160      -280.2272
   9   2.0000     -10.292279      -280.0671
  10   2.0000     -10.288230      -279.9570
  11   2.0000     -10.287510      -279.9374
  12   2.0000     -10.282564      -279.8028
  13   2.0000     -10.280104      -279.7359
  14   2.0000     -10.276781      -279.6454
  15   2.0000     -10.274972      -279.5962
  16   2.0000      -8.085344      -220.0134
  17   2.0000      -8.078771      -219.8345
  18   2.0000      -6.043717      -164.4579
  19   2.0000      -6.039836      -164.3523
  20   2.0000      -6.037322      -164.2839
  21   2.0000      -6.036171      -164.2526
  22   2.0000      -6.033050      -164.1676
  23   2.0000      -6.029709      -164.0767
  24   2.0000      -1.012017       -27.5384
  25   2.0000      -0.984183       -26.7810
  26   2.0000      -0.915884       -24.9225
  27   2.0000      -0.907022       -24.6813
  28   2.0000      -0.870484       -23.6871
  29   2.0000      -0.851546       -23.1717
  30   2.0000      -0.840641       -22.8750
  31   2.0000      -0.813415       -22.1341
  32   2.0000      -0.789004       -21.4699
  33   2.0000      -0.770727       -20.9726
  34   2.0000      -0.712049       -19.3758
  35   2.0000      -0.698929       -19.0188
  36   2.0000      -0.689859       -18.7720
  37   2.0000      -0.652753       -17.7623
  38   2.0000      -0.641872       -17.4662
  39   2.0000      -0.624248       -16.9866
  40   2.0000      -0.595955       -16.2167
  41   2.0000      -0.572155       -15.5691
  42   2.0000      -0.560519       -15.2525
  43   2.0000      -0.554650       -15.0928
  44   2.0000      -0.546772       -14.8784
  45   2.0000      -0.524817       -14.2810
  46   2.0000      -0.520912       -14.1747
  47   2.0000      -0.505726       -13.7615
  48   2.0000      -0.504004       -13.7147
  49   2.0000      -0.498833       -13.5739
  50   2.0000      -0.489866       -13.3299
  51   2.0000      -0.479794       -13.0559
  52   2.0000      -0.474013       -12.8986
  53   2.0000      -0.470018       -12.7898
  54   2.0000      -0.455818       -12.4034
  55   2.0000      -0.448644       -12.2082
  56   2.0000      -0.443793       -12.0762
  57   2.0000      -0.438056       -11.9201
  58   2.0000      -0.432590       -11.7714
  59   2.0000      -0.423563       -11.5257
  60   2.0000      -0.420033       -11.4297
  61   2.0000      -0.416159       -11.3243
  62   2.0000      -0.411483       -11.1970
  63   2.0000      -0.338719        -9.2170
  64   2.0000      -0.330547        -8.9946
  65   2.0000      -0.323096        -8.7919
  66   2.0000      -0.305231        -8.3058
  67   0.0000       0.043683         1.1887
  68   0.0000       0.052219         1.4210
  69   0.0000       0.115527         3.1437
  70   0.0000       0.121636         3.3099
  71   0.0000       0.126479         3.4417

MULLIKEN ATOMIC CHARGES
-----------------------
   0 S :    0.140488
   1 C :   -0.138581
   2 C :   -0.083756
   3 C :    0.048092
   4 C :   -0.177516
   5 H :    0.000804
   6 C :    0.058460
   7 H :    0.022911
   8 H :    0.037655
   9 C :   -0.075300
  10 H :    0.022274
  11 H :    0.038301
  12 C :   -0.043540
  13 H :    0.018857
  14 H :    0.036820
  15 H :    0.035220
  16 S :    0.112502
  17 C :   -0.091685
  18 C :   -0.047914
  19 C :   -0.020624
  20 C :   -0.187477
  21 H :    0.023161
  22 C :    0.130518
  23 H :   -0.011759
  24 H :    0.027456
  25 C :   -0.114660
  26 H :    0.051265
  27 H :    0.029443
  28 C :   -0.039802
  29 H :    0.035825
  30 H :    0.025299
  31 H :    0.017212
  32 H :    0.055309
  33 H :    0.064745
Sum of atomic charges:    0.0000000

LOEWDIN ATOMIC CHARGES
----------------------
   0 S :    0.430716
   1 C :   -0.199618
   2 C :   -0.067321
   3 C :   -0.052934
   4 C :   -0.219615
   5 H :    0.028775
   6 C :   -0.029827
   7 H :    0.027132
   8 H :    0.039051
   9 C :   -0.040948
  10 H :    0.023303
  11 H :    0.025754
  12 C :   -0.066443
  13 H :    0.016691
  14 H :    0.031034
  15 H :    0.024647
  16 S :    0.412472
  17 C :   -0.192743
  18 C :   -0.079505
  19 C :   -0.041720
  20 C :   -0.209285
  21 H :    0.033470
  22 C :   -0.026409
  23 H :    0.018011
  24 H :    0.036711
  25 C :   -0.038958
  26 H :    0.024490
  27 H :    0.020858
  28 C :   -0.067746
  29 H :    0.020401
  30 H :    0.021566
  31 H :    0.025805
  32 H :    0.034372
  33 H :    0.037811

  Mayer bond orders larger than 0.100000
B(  0-S ,  1-C ) :   1.1416 B(  0-S ,  4-C ) :   1.1634 B(  1-C ,  2-C ) :   1.6168
B(  1-C , 32-H ) :   0.9586 B(  2-C ,  3-C ) :   1.2434 B(  2-C ,  6-C ) :   1.0257
B(  3-C ,  4-C ) :   1.5910 B(  3-C ,  5-H ) :   1.0036 B(  4-C , 20-C ) :   1.0060
B(  6-C ,  7-H ) :   0.9366 B(  6-C ,  8-H ) :   0.9406 B(  6-C ,  9-C ) :   1.0755
B(  9-C , 10-H ) :   0.9523 B(  9-C , 11-H ) :   0.9553 B(  9-C , 12-C ) :   1.0833
B( 12-C , 13-H ) :   0.9746 B( 12-C , 14-H ) :   0.9696 B( 12-C , 15-H ) :   0.9722
B( 16-S , 17-C ) :   1.1646 B( 16-S , 20-C ) :   1.1485 B( 17-C , 18-C ) :   1.6171
B( 17-C , 20-C ) :   0.1006 B( 17-C , 33-H ) :   0.9585 B( 18-C , 19-C ) :   1.2449
B( 18-C , 21-H ) :   0.9892 B( 19-C , 20-C ) :   1.5700 B( 19-C , 22-C ) :   1.0494
B( 22-C , 23-H ) :   0.9338 B( 22-C , 24-H ) :   0.9198 B( 22-C , 25-C ) :   1.0575
B( 25-C , 26-H ) :   0.9454 B( 25-C , 27-H ) :   0.9656 B( 25-C , 28-C ) :   1.0780
B( 28-C , 29-H ) :   0.9769 B( 28-C , 30-H ) :   0.9762 B( 28-C , 31-H ) :   0.9717

Dispersion correction           -0.016187022
FINAL SINGLE POINT ENERGY     -1339.880649263690

DIPOLE MOMENT
-------------
                                X             Y             Z
Electronic contribution:    -16.59687     -22.44337     -10.06166
Nuclear contribution   :     17.06763      22.74290      10.25175
                        -----------------------------------------
Total Dipole Moment    :      0.47076       0.29953       0.19009
                        -----------------------------------------
Magnitude (a.u.)       :      0.58946
Magnitude (Debye)      :      1.49830

Rotational constants in cm-1:     0.020920     0.009625     0.007515
Rotational constants in MHz :   627.171085   288.540242   225.280396

                             ****ORCA TERMINATED NORMALLY****
TOTAL RUN TIME: 0 days 0 hours 0 minutes 23 seconds 209 msec
