                         Program Version 4.2.1 -  RELEASE  -
|  1> ! wB97X-D3 SP def2-SVP
|  2> %pal
|  3> nprocs 24
|  4> end
|  5>
|  6> * xyz 0 1
|  7> S 	 -128.261 	 57.8857 	 -58.6106
|  8> C 	 -128.47 	 58.1677 	 -60.3489
|  9> C 	 -128.976 	 57.0422 	 -60.9266
| 10> C 	 -129.436 	 56.0817 	 -60.0275
| 11> C 	 -129.22 	 56.3711 	 -58.7025
| 12> H 	 -129.825 	 55.1128 	 -60.2501
| 13> C 	 -129.099 	 56.9503 	 -62.4453
| 14> H 	 -129.527 	 57.8417 	 -62.7784
| 15> H 	 -129.876 	 56.2203 	 -62.6848
| 16> C 	 -127.78 	 56.6252 	 -63.2265
| 17> H 	 -127.42 	 55.6302 	 -62.9643
| 18> H 	 -128.105 	 56.5781 	 -64.2749
| 19> C 	 -126.666 	 57.6939 	 -63.1045
| 20> H 	 -125.983 	 57.6634 	 -63.9261
| 21> H 	 -127.016 	 58.7285 	 -63.0009
| 22> H 	 -126.089 	 57.6021 	 -62.1846
| 23> S 	 -129.098 	 53.6705 	 -57.7697
| 24> C 	 -129.466 	 53.3079 	 -56.0992
| 25> C 	 -129.895 	 54.4388 	 -55.43
| 26> C 	 -129.8 	 55.6698 	 -56.2404
| 27> C 	 -129.368 	 55.445 	 -57.5499
| 28> H 	 -130.198 	 54.387 	 -54.3933
| 29> C 	 -130.351 	 57.0647 	 -55.84
| 30> H 	 -130.502 	 57.6473 	 -56.7543
| 31> H 	 -129.415 	 57.4316 	 -55.4173
| 32> C 	 -131.608 	 57.0783 	 -54.8934
| 33> H 	 -131.456 	 56.5648 	 -53.9394
| 34> H 	 -132.458 	 56.5302 	 -55.4445
| 35> C 	 -132.039 	 58.4306 	 -54.4384
| 36> H 	 -132.05 	 59.2985 	 -55.1096
| 37> H 	 -131.44 	 58.7005 	 -53.5596
| 38> H 	 -133.026 	 58.3037 	 -54.084
| 39> H 	 -128.155 	 58.9291 	 -61.0008
| 40> H 	 -129.452 	 52.2674 	 -55.6719
| 41> *
| 42>
| 43>                          ****END OF INPUT****

CARTESIAN COORDINATES (ANGSTROEM)
---------------------------------
  S    -128.261000   57.885700  -58.610600
  C    -128.470000   58.167700  -60.348900
  C    -128.976000   57.042200  -60.926600
  C    -129.436000   56.081700  -60.027500
  C    -129.220000   56.371100  -58.702500
  H    -129.825000   55.112800  -60.250100
  C    -129.099000   56.950300  -62.445300
  H    -129.527000   57.841700  -62.778400
  H    -129.876000   56.220300  -62.684800
  C    -127.780000   56.625200  -63.226500
  H    -127.420000   55.630200  -62.964300
  H    -128.105000   56.578100  -64.274900
  C    -126.666000   57.693900  -63.104500
  H    -125.983000   57.663400  -63.926100
  H    -127.016000   58.728500  -63.000900
  H    -126.089000   57.602100  -62.184600
  S    -129.098000   53.670500  -57.769700
  C    -129.466000   53.307900  -56.099200
  C    -129.895000   54.438800  -55.430000
  C    -129.800000   55.669800  -56.240400
  C    -129.368000   55.445000  -57.549900
  H    -130.198000   54.387000  -54.393300
  C    -130.351000   57.064700  -55.840000
  H    -130.502000   57.647300  -56.754300
  H    -129.415000   57.431600  -55.417300
  C    -131.608000   57.078300  -54.893400
  H    -131.456000   56.564800  -53.939400
  H    -132.458000   56.530200  -55.444500
  C    -132.039000   58.430600  -54.438400
  H    -132.050000   59.298500  -55.109600
  H    -131.440000   58.700500  -53.559600
  H    -133.026000   58.303700  -54.084000
  H    -128.155000   58.929100  -61.000800
  H    -129.452000   52.267400  -55.671900

 Total Charge           Charge          ....    0
 Multiplicity           Mult            ....    1
 Number of Electrons    NEL             ....  134
 Basis Dimension        Dim             ....  322

ORBITAL ENERGIES
----------------

  NO   OCC          E(Eh)            E(eV)
   0   2.0000     -88.968300     -2420.9505
   1   2.0000     -88.963384     -2420.8167
   2   2.0000     -10.334593      -281.2186
   3   2.0000     -10.332017      -281.1485
   4   2.0000     -10.326180      -280.9896
   5   2.0000     -10.311074      -280.5786
   6   2.0000     -10.309133      -280.5258
   7   2.0000     -10.300309      -280.2857
   8   2.0000     -10.295605      -280.1577
   9   2.0000     -10.294224      -280.1201
  10   2.0000     -10.293376      -280.0970
  11   2.0000     -10.292853      -280.0828
  12   2.0000     -10.288724      -279.9704
  13   2.0000     -10.288162      -279.9551
  14   2.0000     -10.278017      -279.6791
  15   2.0000     -10.272072      -279.5173
  16   2.0000      -8.081408      -219.9063
  17   2.0000      -8.077279      -219.7939
  18   2.0000      -6.040094      -164.3593
  19   2.0000      -6.036226      -164.2541
  20   2.0000      -6.035990      -164.2476
  21   2.0000      -6.031962      -164.1380
  22   2.0000      -6.031928      -164.1371
  23   2.0000      -6.027851      -164.0262
  24   2.0000      -1.000241       -27.2180
  25   2.0000      -0.978069       -26.6146
  26   2.0000      -0.906388       -24.6641
  27   2.0000      -0.902986       -24.5715
  28   2.0000      -0.866360       -23.5749
  29   2.0000      -0.851399       -23.1677
  30   2.0000      -0.844204       -22.9720
  31   2.0000      -0.814776       -22.1712
  32   2.0000      -0.785132       -21.3645
  33   2.0000      -0.772239       -21.0137
  34   2.0000      -0.707289       -19.2463
  35   2.0000      -0.700971       -19.0744
  36   2.0000      -0.694298       -18.8928
  37   2.0000      -0.657062       -17.8796
  38   2.0000      -0.632002       -17.1976
  39   2.0000      -0.615374       -16.7452
  40   2.0000      -0.589578       -16.0432
  41   2.0000      -0.570757       -15.5311
  42   2.0000      -0.563664       -15.3381
  43   2.0000      -0.542188       -14.7537
  44   2.0000      -0.540862       -14.7176
  45   2.0000      -0.530204       -14.4276
  46   2.0000      -0.518813       -14.1176
  47   2.0000      -0.516718       -14.0606
  48   2.0000      -0.506327       -13.7778
  49   2.0000      -0.489832       -13.3290
  50   2.0000      -0.486794       -13.2463
  51   2.0000      -0.478674       -13.0254
  52   2.0000      -0.473315       -12.8796
  53   2.0000      -0.469933       -12.7875
  54   2.0000      -0.456404       -12.4194
  55   2.0000      -0.449637       -12.2353
  56   2.0000      -0.443295       -12.0627
  57   2.0000      -0.434563       -11.8251
  58   2.0000      -0.431380       -11.7384
  59   2.0000      -0.427498       -11.6328
  60   2.0000      -0.417366       -11.3571
  61   2.0000      -0.412684       -11.2297
  62   2.0000      -0.406973       -11.0743
  63   2.0000      -0.349958        -9.5228
  64   2.0000      -0.332466        -9.0469
  65   2.0000      -0.325168        -8.8483
  66   2.0000      -0.290732        -7.9112
  67   0.0000       0.023205         0.6314
  68   0.0000       0.071811         1.9541
  69   0.0000       0.107424         2.9231
  70   0.0000       0.114641         3.1195
  71   0.0000       0.130643         3.5550

MULLIKEN ATOMIC CHARGES
-----------------------
   0 S :    0.099899
   1 C :   -0.073348
   2 C :   -0.099078
   3 C :    0.009839
   4 C :   -0.126372
   5 H :    0.001787
   6 C :    0.064145
   7 H :    0.013423
   8 H :    0.016723
   9 C :   -0.047344
  10 H :    0.034415
  11 H :    0.033752
  12 C :   -0.058336
  13 H :    0.033416
  14 H :    0.019070
  15 H :    0.039695
  16 S :    0.083977
  17 C :   -0.107244
  18 C :   -0.030319
  19 C :   -0.065249
  20 C :   -0.142855
  21 H :    0.022442
  22 C :    0.061953
  23 H :    0.041117
  24 H :    0.037662
  25 C :   -0.106979
  26 H :    0.033387
  27 H :    0.051598
  28 C :   -0.024461
  29 H :    0.036521
  30 H :    0.027832
  31 H :    0.019715
  32 H :    0.015527
  33 H :    0.083693
Sum of atomic charges:   -0.0000000

LOEWDIN ATOMIC CHARGES
----------------------
   0 S :    0.384766
   1 C :   -0.181372
   2 C :   -0.065518
   3 C :   -0.065373
   4 C :   -0.171604
   5 H :    0.025902
   6 C :   -0.026744
   7 H :    0.021855
   8 H :    0.030625
   9 C :   -0.031671
  10 H :    0.025879
  11 H :    0.027025
  12 C :   -0.070669
  13 H :    0.024697
  14 H :    0.021721
  15 H :    0.028347
  16 S :    0.374612
  17 C :   -0.186334
  18 C :   -0.078483
  19 C :   -0.047088
  20 C :   -0.191931
  21 H :    0.030585
  22 C :   -0.036725
  23 H :    0.028585
  24 H :    0.035234
  25 C :   -0.045461
  26 H :    0.027404
  27 H :    0.034458
  28 C :   -0.066239
  29 H :    0.025490
  30 H :    0.027625
  31 H :    0.024108
  32 H :    0.020992
  33 H :    0.045302

  Mayer bond orders larger than 0.100000
B(  0-S ,  1-C ) :   1.1222 B(  0-S ,  4-C ) :   1.1313 B(  1-C ,  2-C ) :   1.6219
B(  1-C , 32-H ) :   0.9668 B(  2-C ,  3-C ) :   1.2559 B(  2-C ,  6-C ) :   1.0104
B(  3-C ,  4-C ) :   1.5685 B(  3-C ,  5-H ) :   1.0020 B(  4-C , 20-C ) :   1.0579
B(  6-C ,  7-H ) :   0.9438 B(  6-C ,  8-H ) :   0.9432 B(  6-C ,  9-C ) :   1.0715
B(  9-C , 10-H ) :   0.9573 B(  9-C , 11-H ) :   0.9587 B(  9-C , 12-C ) :   1.0706
B( 12-C , 13-H ) :   0.9735 B( 12-C , 14-H ) :   0.9751 B( 12-C , 15-H ) :   0.9716
B( 16-S , 17-C ) :   1.1561 B( 16-S , 20-C ) :   1.1050 B( 17-C , 18-C ) :   1.6182
B( 17-C , 33-H ) :   0.9589 B( 18-C , 19-C ) :   1.2236 B( 18-C , 21-H ) :   0.9904
B( 19-C , 20-C ) :   1.6004 B( 19-C , 22-C ) :   1.0135 B( 22-C , 23-H ) :   0.9386
B( 22-C , 24-H ) :   0.9312 B( 22-C , 25-C ) :   1.0600 B( 25-C , 26-H ) :   0.9509
B( 25-C , 27-H ) :   0.9612 B( 25-C , 28-C ) :   1.0845 B( 28-C , 29-H ) :   0.9761
B( 28-C , 30-H ) :   0.9763 B( 28-C , 31-H ) :   0.9694

Dispersion correction           -0.013951689
FINAL SINGLE POINT ENERGY     -1339.869261543374

DIPOLE MOMENT
-------------
                                X             Y             Z
Electronic contribution:      4.87803     -10.98100       4.94024
Nuclear contribution   :     -5.11426      11.00741      -4.99637
                        -----------------------------------------
Total Dipole Moment    :     -0.23623       0.02641      -0.05613
                        -----------------------------------------
Magnitude (a.u.)       :      0.24424
Magnitude (Debye)      :      0.62082

Rotational constants in cm-1:     0.022326     0.007347     0.005988
Rotational constants in MHz :   669.319031   220.267488   179.502656

                             ****ORCA TERMINATED NORMALLY****
TOTAL RUN TIME: 0 days 0 hours 0 minutes 20 seconds 916 msec
