                         Program Version 4.2.1 -  RELEASE  -
|  1> ! wB97X-D3 SP def2-SVP
|  2> %pal
|  3> nprocs 24
|  4> end
|  5>
|  6> * xyz 0 1
|  7> S 	 -109.587 	 26.6877 	 -113.322
|  8> C 	 -108.554 	 26.1995 	 -111.99
|  9> C 	 -107.557 	 25.3248 	 -112.385
| 10> C 	 -107.82 	 24.9714 	 -113.737
| 11> C 	 -108.83 	 25.6413 	 -114.428
| 12> H 	 -107.177 	 24.2711 	 -114.286
| 13> C 	 -106.367 	 24.8903 	 -111.572
| 14> H 	 -105.774 	 24.0692 	 -111.94
| 15> H 	 -106.867 	 24.466 	 -110.652
| 16> C 	 -105.431 	 26.0564 	 -111.255
| 17> H 	 -106.078 	 26.8202 	 -110.757
| 18> H 	 -104.648 	 25.8574 	 -110.535
| 19> C 	 -104.66 	 26.596 	 -112.506
| 20> H 	 -104.128 	 25.7687 	 -113.043
| 21> H 	 -105.357 	 26.9547 	 -113.287
| 22> H 	 -103.995 	 27.3684 	 -112.186
| 23> S 	 -110.946 	 25.5962 	 -116.184
| 24> C 	 -110.686 	 25.4262 	 -117.842
| 25> C 	 -109.381 	 25.1963 	 -118.177
| 26> C 	 -108.492 	 25.2782 	 -117.048
| 27> C 	 -109.208 	 25.5105 	 -115.87
| 28> H 	 -109.128 	 25.16 	 -119.209
| 29> C 	 -106.989 	 25.2919 	 -117.24
| 30> H 	 -106.776 	 24.7182 	 -118.164
| 31> H 	 -106.435 	 24.8696 	 -116.369
| 32> C 	 -106.389 	 26.6713 	 -117.643
| 33> H 	 -106.637 	 26.969 	 -118.688
| 34> H 	 -105.363 	 26.4113 	 -117.754
| 35> C 	 -106.57 	 27.8081 	 -116.673
| 36> H 	 -107.56 	 28.2306 	 -116.888
| 37> H 	 -105.797 	 28.6147 	 -116.725
| 38> H 	 -106.396 	 27.4483 	 -115.619
| 39> H 	 -108.64 	 26.5755 	 -110.972
| 40> H 	 -111.533 	 25.2824 	 -118.466
| 41> *
| 42>
| 43>                          ****END OF INPUT****

CARTESIAN COORDINATES (ANGSTROEM)
---------------------------------
  S    -109.587000   26.687700  -113.322000
  C    -108.554000   26.199500  -111.990000
  C    -107.557000   25.324800  -112.385000
  C    -107.820000   24.971400  -113.737000
  C    -108.830000   25.641300  -114.428000
  H    -107.177000   24.271100  -114.286000
  C    -106.367000   24.890300  -111.572000
  H    -105.774000   24.069200  -111.940000
  H    -106.867000   24.466000  -110.652000
  C    -105.431000   26.056400  -111.255000
  H    -106.078000   26.820200  -110.757000
  H    -104.648000   25.857400  -110.535000
  C    -104.660000   26.596000  -112.506000
  H    -104.128000   25.768700  -113.043000
  H    -105.357000   26.954700  -113.287000
  H    -103.995000   27.368400  -112.186000
  S    -110.946000   25.596200  -116.184000
  C    -110.686000   25.426200  -117.842000
  C    -109.381000   25.196300  -118.177000
  C    -108.492000   25.278200  -117.048000
  C    -109.208000   25.510500  -115.870000
  H    -109.128000   25.160000  -119.209000
  C    -106.989000   25.291900  -117.240000
  H    -106.776000   24.718200  -118.164000
  H    -106.435000   24.869600  -116.369000
  C    -106.389000   26.671300  -117.643000
  H    -106.637000   26.969000  -118.688000
  H    -105.363000   26.411300  -117.754000
  C    -106.570000   27.808100  -116.673000
  H    -107.560000   28.230600  -116.888000
  H    -105.797000   28.614700  -116.725000
  H    -106.396000   27.448300  -115.619000
  H    -108.640000   26.575500  -110.972000
  H    -111.533000   25.282400  -118.466000

 Total Charge           Charge          ....    0
 Multiplicity           Mult            ....    1
 Number of Electrons    NEL             ....  134
 Basis Dimension        Dim             ....  322

ORBITAL ENERGIES
----------------

  NO   OCC          E(Eh)            E(eV)
   0   2.0000     -88.967544     -2420.9299
   1   2.0000     -88.963833     -2420.8290
   2   2.0000     -10.332614      -281.1647
   3   2.0000     -10.329086      -281.0687
   4   2.0000     -10.313091      -280.6335
   5   2.0000     -10.309815      -280.5443
   6   2.0000     -10.308089      -280.4974
   7   2.0000     -10.301489      -280.3178
   8   2.0000     -10.299799      -280.2718
   9   2.0000     -10.297506      -280.2094
  10   2.0000     -10.291615      -280.0491
  11   2.0000     -10.291521      -280.0465
  12   2.0000     -10.290183      -280.0101
  13   2.0000     -10.284140      -279.8457
  14   2.0000     -10.282111      -279.7905
  15   2.0000     -10.277808      -279.6734
  16   2.0000      -8.082697      -219.9414
  17   2.0000      -8.079906      -219.8654
  18   2.0000      -6.041228      -164.3902
  19   2.0000      -6.038199      -164.3078
  20   2.0000      -6.036988      -164.2748
  21   2.0000      -6.034211      -164.1992
  22   2.0000      -6.033570      -164.1818
  23   2.0000      -6.030833      -164.1073
  24   2.0000      -1.009801       -27.4781
  25   2.0000      -0.990542       -26.9540
  26   2.0000      -0.914300       -24.8794
  27   2.0000      -0.909811       -24.7572
  28   2.0000      -0.864418       -23.5220
  29   2.0000      -0.851841       -23.1798
  30   2.0000      -0.841603       -22.9012
  31   2.0000      -0.810813       -22.0634
  32   2.0000      -0.785803       -21.3828
  33   2.0000      -0.777268       -21.1506
  34   2.0000      -0.702953       -19.1283
  35   2.0000      -0.701568       -19.0906
  36   2.0000      -0.687582       -18.7100
  37   2.0000      -0.662215       -18.0198
  38   2.0000      -0.635502       -17.2929
  39   2.0000      -0.615777       -16.7561
  40   2.0000      -0.596922       -16.2431
  41   2.0000      -0.580205       -15.7882
  42   2.0000      -0.557553       -15.1718
  43   2.0000      -0.550394       -14.9770
  44   2.0000      -0.546911       -14.8822
  45   2.0000      -0.534441       -14.5429
  46   2.0000      -0.512312       -13.9407
  47   2.0000      -0.504948       -13.7403
  48   2.0000      -0.500182       -13.6106
  49   2.0000      -0.497423       -13.5356
  50   2.0000      -0.489390       -13.3170
  51   2.0000      -0.479009       -13.0345
  52   2.0000      -0.471212       -12.8223
  53   2.0000      -0.468496       -12.7484
  54   2.0000      -0.461856       -12.5677
  55   2.0000      -0.447364       -12.1734
  56   2.0000      -0.445912       -12.1339
  57   2.0000      -0.433716       -11.8020
  58   2.0000      -0.424662       -11.5556
  59   2.0000      -0.423798       -11.5321
  60   2.0000      -0.421788       -11.4774
  61   2.0000      -0.415747       -11.3131
  62   2.0000      -0.410313       -11.1652
  63   2.0000      -0.350824        -9.5464
  64   2.0000      -0.331534        -9.0215
  65   2.0000      -0.330518        -8.9938
  66   2.0000      -0.287636        -7.8270
  67   0.0000       0.028827         0.7844
  68   0.0000       0.078695         2.1414
  69   0.0000       0.109877         2.9899
  70   0.0000       0.114690         3.1209
  71   0.0000       0.131017         3.5652

MULLIKEN ATOMIC CHARGES
-----------------------
   0 S :    0.119676
   1 C :   -0.142238
   2 C :   -0.079432
   3 C :   -0.006560
   4 C :   -0.118128
   5 H :    0.000793
   6 C :    0.065671
   7 H :    0.020644
   8 H :    0.043587
   9 C :   -0.079237
  10 H :    0.028874
  11 H :    0.030131
  12 C :   -0.068501
  13 H :    0.029954
  14 H :    0.048251
  15 H :    0.041583
  16 S :    0.102238
  17 C :   -0.075537
  18 C :   -0.033409
  19 C :   -0.023871
  20 C :   -0.158393
  21 H :    0.011257
  22 C :    0.042016
  23 H :    0.026989
  24 H :    0.036064
  25 C :   -0.069706
  26 H :    0.024203
  27 H :    0.015181
  28 C :   -0.062652
  29 H :    0.054107
  30 H :    0.033754
  31 H :    0.042352
  32 H :    0.049326
  33 H :    0.051011
Sum of atomic charges:    0.0000000

LOEWDIN ATOMIC CHARGES
----------------------
   0 S :    0.430319
   1 C :   -0.200728
   2 C :   -0.062846
   3 C :   -0.076968
   4 C :   -0.215982
   5 H :    0.023790
   6 C :   -0.035114
   7 H :    0.026551
   8 H :    0.043255
   9 C :   -0.040877
  10 H :    0.025481
  11 H :    0.022040
  12 C :   -0.066949
  13 H :    0.028382
  14 H :    0.027372
  15 H :    0.024208
  16 S :    0.422083
  17 C :   -0.193349
  18 C :   -0.070591
  19 C :   -0.054702
  20 C :   -0.189787
  21 H :    0.028125
  22 C :   -0.031635
  23 H :    0.038472
  24 H :    0.032091
  25 C :   -0.044513
  26 H :    0.024538
  27 H :    0.018858
  28 C :   -0.075371
  29 H :    0.032257
  30 H :    0.030070
  31 H :    0.032037
  32 H :    0.027285
  33 H :    0.022199

  Mayer bond orders larger than 0.100000
B(  0-S ,  1-C ) :   1.1554 B(  0-S ,  4-C ) :   1.1710 B(  1-C ,  2-C ) :   1.5728
B(  1-C ,  4-C ) :   0.1015 B(  1-C , 32-H ) :   0.9644 B(  2-C ,  3-C ) :   1.2839
B(  2-C ,  6-C ) :   1.0110 B(  3-C ,  4-C ) :   1.5442 B(  3-C ,  5-H ) :   0.9930
B(  4-C , 20-C ) :   1.0240 B(  6-C ,  7-H ) :   0.9494 B(  6-C ,  8-H ) :   0.9353
B(  6-C ,  9-C ) :   1.0724 B(  9-C , 10-H ) :   0.9561 B(  9-C , 11-H ) :   0.9584
B(  9-C , 12-C ) :   1.0656 B( 12-C , 13-H ) :   0.9720 B( 12-C , 14-H ) :   0.9765
B( 12-C , 15-H ) :   0.9736 B( 16-S , 17-C ) :   1.1759 B( 16-S , 20-C ) :   1.1534
B( 17-C , 18-C ) :   1.6035 B( 17-C , 33-H ) :   0.9678 B( 18-C , 19-C ) :   1.2333
B( 18-C , 21-H ) :   0.9961 B( 19-C , 20-C ) :   1.5894 B( 19-C , 22-C ) :   1.0531
B( 22-C , 23-H ) :   0.9262 B( 22-C , 24-H ) :   0.9375 B( 22-C , 25-C ) :   1.0789
B( 25-C , 26-H ) :   0.9547 B( 25-C , 27-H ) :   0.9511 B( 25-C , 28-C ) :   1.0743
B( 28-C , 29-H ) :   0.9724 B( 28-C , 30-H ) :   0.9713 B( 28-C , 31-H ) :   0.9712

Dispersion correction           -0.015853812
FINAL SINGLE POINT ENERGY     -1339.885309073433

DIPOLE MOMENT
-------------
                                X             Y             Z
Electronic contribution:    -27.54497      -3.60619      -1.62295
Nuclear contribution   :     28.18843       3.52783       1.48451
                        -----------------------------------------
Total Dipole Moment    :      0.64346      -0.07836      -0.13844
                        -----------------------------------------
Magnitude (a.u.)       :      0.66283
Magnitude (Debye)      :      1.68478

Rotational constants in cm-1:     0.020965     0.009598     0.007457
Rotational constants in MHz :   628.510807   287.739015   223.552060

                             ****ORCA TERMINATED NORMALLY****
TOTAL RUN TIME: 0 days 0 hours 0 minutes 22 seconds 928 msec
