                         Program Version 4.2.1 -  RELEASE  -
|  1> ! wB97X-D3 SP def2-SVP
|  2> %pal
|  3> nprocs 24
|  4> end
|  5>
|  6> * xyz 0 1
|  7> S 	 -63.447 	 9.39291 	 -78.8373
|  8> C 	 -62.6545 	 7.87112 	 -78.8234
|  9> C 	 -63.4962 	 6.8942 	 -78.3578
| 10> C 	 -64.6962 	 7.42789 	 -77.9237
| 11> C 	 -64.6682 	 8.78149 	 -77.789
| 12> H 	 -65.4409 	 6.8747 	 -77.4855
| 13> C 	 -63.2084 	 5.45936 	 -78.3978
| 14> H 	 -63.4069 	 4.9736 	 -77.472
| 15> H 	 -62.1178 	 5.41235 	 -78.3846
| 16> C 	 -63.8423 	 4.67294 	 -79.5926
| 17> H 	 -64.948 	 4.65497 	 -79.5862
| 18> H 	 -63.6174 	 5.10247 	 -80.5739
| 19> C 	 -63.3653 	 3.19535 	 -79.5477
| 20> H 	 -63.7632 	 2.73034 	 -80.4437
| 21> H 	 -62.235 	 3.18656 	 -79.6178
| 22> H 	 -63.6028 	 2.67253 	 -78.6406
| 23> S 	 -67.0702 	 10.0363 	 -78.2783
| 24> C 	 -67.8527 	 10.8189 	 -76.9503
| 25> C 	 -66.9502 	 11.1084 	 -75.9204
| 26> C 	 -65.7143 	 10.3721 	 -76.1064
| 27> C 	 -65.6967 	 9.6346 	 -77.2688
| 28> H 	 -67.1874 	 11.8263 	 -75.1114
| 29> C 	 -64.6521 	 10.5089 	 -75.0917
| 30> H 	 -64.1664 	 11.5141 	 -75.1426
| 31> H 	 -63.8763 	 9.73271 	 -75.4091
| 32> C 	 -65.0456 	 10.2208 	 -73.678
| 33> H 	 -65.9703 	 9.701 	 -73.6451
| 34> H 	 -65.215 	 11.1632 	 -73.2141
| 35> C 	 -64.0668 	 9.40282 	 -72.861
| 36> H 	 -64.1519 	 9.39007 	 -71.7459
| 37> H 	 -63.0319 	 9.72384 	 -72.9563
| 38> H 	 -64.042 	 8.30529 	 -73.1387
| 39> H 	 -61.6878 	 7.6767 	 -79.3253
| 40> H 	 -68.8995 	 11.1243 	 -76.9326
| 41> *
| 42>
| 43>                          ****END OF INPUT****

CARTESIAN COORDINATES (ANGSTROEM)
---------------------------------
  S    -63.447000    9.392910  -78.837300
  C    -62.654500    7.871120  -78.823400
  C    -63.496200    6.894200  -78.357800
  C    -64.696200    7.427890  -77.923700
  C    -64.668200    8.781490  -77.789000
  H    -65.440900    6.874700  -77.485500
  C    -63.208400    5.459360  -78.397800
  H    -63.406900    4.973600  -77.472000
  H    -62.117800    5.412350  -78.384600
  C    -63.842300    4.672940  -79.592600
  H    -64.948000    4.654970  -79.586200
  H    -63.617400    5.102470  -80.573900
  C    -63.365300    3.195350  -79.547700
  H    -63.763200    2.730340  -80.443700
  H    -62.235000    3.186560  -79.617800
  H    -63.602800    2.672530  -78.640600
  S    -67.070200   10.036300  -78.278300
  C    -67.852700   10.818900  -76.950300
  C    -66.950200   11.108400  -75.920400
  C    -65.714300   10.372100  -76.106400
  C    -65.696700    9.634600  -77.268800
  H    -67.187400   11.826300  -75.111400
  C    -64.652100   10.508900  -75.091700
  H    -64.166400   11.514100  -75.142600
  H    -63.876300    9.732710  -75.409100
  C    -65.045600   10.220800  -73.678000
  H    -65.970300    9.701000  -73.645100
  H    -65.215000   11.163200  -73.214100
  C    -64.066800    9.402820  -72.861000
  H    -64.151900    9.390070  -71.745900
  H    -63.031900    9.723840  -72.956300
  H    -64.042000    8.305290  -73.138700
  H    -61.687800    7.676700  -79.325300
  H    -68.899500   11.124300  -76.932600

 Total Charge           Charge          ....    0
 Multiplicity           Mult            ....    1
 Number of Electrons    NEL             ....  134
 Basis Dimension        Dim             ....  322

ORBITAL ENERGIES
----------------

  NO   OCC          E(Eh)            E(eV)
   0   2.0000     -88.962731     -2420.7990
   1   2.0000     -88.959829     -2420.7200
   2   2.0000     -10.318026      -280.7678
   3   2.0000     -10.317917      -280.7648
   4   2.0000     -10.316889      -280.7368
   5   2.0000     -10.308364      -280.5049
   6   2.0000     -10.299440      -280.2620
   7   2.0000     -10.295815      -280.1634
   8   2.0000     -10.292763      -280.0803
   9   2.0000     -10.288460      -279.9632
  10   2.0000     -10.287450      -279.9357
  11   2.0000     -10.286418      -279.9077
  12   2.0000     -10.281124      -279.7636
  13   2.0000     -10.280237      -279.7395
  14   2.0000     -10.278358      -279.6883
  15   2.0000     -10.275095      -279.5995
  16   2.0000      -8.078048      -219.8149
  17   2.0000      -8.076133      -219.7628
  18   2.0000      -6.036567      -164.2633
  19   2.0000      -6.034349      -164.2030
  20   2.0000      -6.032651      -164.1568
  21   2.0000      -6.030699      -164.1037
  22   2.0000      -6.028591      -164.0463
  23   2.0000      -6.026820      -163.9981
  24   2.0000      -1.017036       -27.6750
  25   2.0000      -0.990125       -26.9427
  26   2.0000      -0.915343       -24.9078
  27   2.0000      -0.912134       -24.8204
  28   2.0000      -0.869477       -23.6597
  29   2.0000      -0.852554       -23.1992
  30   2.0000      -0.848772       -23.0962
  31   2.0000      -0.815148       -22.1813
  32   2.0000      -0.780763       -21.2456
  33   2.0000      -0.766780       -20.8652
  34   2.0000      -0.707895       -19.2628
  35   2.0000      -0.702144       -19.1063
  36   2.0000      -0.694085       -18.8870
  37   2.0000      -0.656514       -17.8646
  38   2.0000      -0.647087       -17.6081
  39   2.0000      -0.623437       -16.9646
  40   2.0000      -0.598237       -16.2789
  41   2.0000      -0.572570       -15.5804
  42   2.0000      -0.566264       -15.4088
  43   2.0000      -0.549266       -14.9463
  44   2.0000      -0.535237       -14.5645
  45   2.0000      -0.526116       -14.3164
  46   2.0000      -0.516025       -14.0417
  47   2.0000      -0.507893       -13.8205
  48   2.0000      -0.504856       -13.7378
  49   2.0000      -0.502759       -13.6808
  50   2.0000      -0.485761       -13.2182
  51   2.0000      -0.483019       -13.1436
  52   2.0000      -0.472367       -12.8537
  53   2.0000      -0.463695       -12.6178
  54   2.0000      -0.455684       -12.3998
  55   2.0000      -0.450144       -12.2490
  56   2.0000      -0.445908       -12.1338
  57   2.0000      -0.439444       -11.9579
  58   2.0000      -0.432273       -11.7627
  59   2.0000      -0.420663       -11.4468
  60   2.0000      -0.417753       -11.3676
  61   2.0000      -0.417185       -11.3522
  62   2.0000      -0.410660       -11.1746
  63   2.0000      -0.332598        -9.0505
  64   2.0000      -0.322904        -8.7867
  65   2.0000      -0.313200        -8.5226
  66   2.0000      -0.311726        -8.4825
  67   0.0000       0.036396         0.9904
  68   0.0000       0.056159         1.5282
  69   0.0000       0.105499         2.8708
  70   0.0000       0.120377         3.2756
  71   0.0000       0.137338         3.7372

MULLIKEN ATOMIC CHARGES
-----------------------
   0 S :    0.117368
   1 C :   -0.121948
   2 C :   -0.083658
   3 C :    0.074464
   4 C :   -0.188415
   5 H :   -0.023698
   6 C :    0.086466
   7 H :    0.010472
   8 H :    0.006256
   9 C :   -0.077256
  10 H :    0.033868
  11 H :    0.029603
  12 C :   -0.049501
  13 H :    0.037963
  14 H :    0.030224
  15 H :    0.034043
  16 S :    0.123512
  17 C :   -0.100480
  18 C :   -0.043586
  19 C :   -0.035245
  20 C :   -0.175456
  21 H :    0.035501
  22 C :    0.041282
  23 H :    0.052494
  24 H :    0.039877
  25 C :   -0.015613
  26 H :    0.026519
  27 H :    0.017119
  28 C :   -0.094582
  29 H :    0.033560
  30 H :    0.022933
  31 H :    0.040033
  32 H :    0.052787
  33 H :    0.063093
Sum of atomic charges:    0.0000000

LOEWDIN ATOMIC CHARGES
----------------------
   0 S :    0.426861
   1 C :   -0.205033
   2 C :   -0.073798
   3 C :   -0.041758
   4 C :   -0.205228
   5 H :    0.017995
   6 C :   -0.034108
   7 H :    0.025599
   8 H :    0.031784
   9 C :   -0.034463
  10 H :    0.025599
  11 H :    0.025142
  12 C :   -0.065402
  13 H :    0.026315
  14 H :    0.028388
  15 H :    0.020783
  16 S :    0.410105
  17 C :   -0.187546
  18 C :   -0.075772
  19 C :   -0.051788
  20 C :   -0.213053
  21 H :    0.037572
  22 C :   -0.039591
  23 H :    0.042831
  24 H :    0.039072
  25 C :   -0.044212
  26 H :    0.023704
  27 H :    0.021584
  28 C :   -0.076368
  29 H :    0.029687
  30 H :    0.020967
  31 H :    0.031346
  32 H :    0.032239
  33 H :    0.030546

  Mayer bond orders larger than 0.100000
B(  0-S ,  1-C ) :   1.1572 B(  0-S ,  4-C ) :   1.1634 B(  1-C ,  2-C ) :   1.5777
B(  1-C ,  4-C ) :   0.1030 B(  1-C , 32-H ) :   0.9649 B(  2-C ,  3-C ) :   1.2724
B(  2-C ,  6-C ) :   1.0417 B(  3-C ,  4-C ) :   1.5506 B(  3-C ,  5-H ) :   1.0123
B(  4-C , 20-C ) :   1.0382 B(  6-C ,  7-H ) :   0.9324 B(  6-C ,  8-H ) :   0.9331
B(  6-C ,  9-C ) :   1.0478 B(  9-C , 10-H ) :   0.9570 B(  9-C , 11-H ) :   0.9578
B(  9-C , 12-C ) :   1.0788 B( 12-C , 13-H ) :   0.9749 B( 12-C , 14-H ) :   0.9764
B( 12-C , 15-H ) :   0.9762 B( 16-S , 17-C ) :   1.1640 B( 16-S , 20-C ) :   1.1342
B( 17-C , 18-C ) :   1.6047 B( 17-C , 33-H ) :   0.9671 B( 18-C , 19-C ) :   1.2163
B( 18-C , 21-H ) :   0.9877 B( 19-C , 20-C ) :   1.6154 B( 19-C , 22-C ) :   1.0661
B( 22-C , 23-H ) :   0.9272 B( 22-C , 24-H ) :   0.9360 B( 22-C , 25-C ) :   1.0437
B( 25-C , 26-H ) :   0.9617 B( 25-C , 27-H ) :   0.9451 B( 25-C , 28-C ) :   1.0922
B( 28-C , 29-H ) :   0.9747 B( 28-C , 30-H ) :   0.9746 B( 28-C , 31-H ) :   0.9727

Dispersion correction           -0.013732291
FINAL SINGLE POINT ENERGY     -1339.859346370917

DIPOLE MOMENT
-------------
                                X             Y             Z
Electronic contribution:     -8.78641      17.91122     -12.99320
Nuclear contribution   :      8.82934     -18.18233      13.29713
                        -----------------------------------------
Total Dipole Moment    :      0.04293      -0.27110       0.30393
                        -----------------------------------------
Magnitude (a.u.)       :      0.40953
Magnitude (Debye)      :      1.04093

Rotational constants in cm-1:     0.019487     0.007635     0.006592
Rotational constants in MHz :   584.190990   228.878519   197.637780

                             ****ORCA TERMINATED NORMALLY****
TOTAL RUN TIME: 0 days 0 hours 0 minutes 21 seconds 293 msec
