                         Program Version 4.2.1 -  RELEASE  -
|  1> ! wB97X-D3 SP def2-SVP
|  2> %pal
|  3> nprocs 24
|  4> end
|  5>
|  6> * xyz 0 1
|  7> S 	 32.3248 	 -33.0812 	 -129.013
|  8> C 	 33.7246 	 -32.6738 	 -128.011
|  9> C 	 34.8936 	 -33.3351 	 -128.391
| 10> C 	 34.6326 	 -34.1414 	 -129.557
| 11> C 	 33.3201 	 -34.2018 	 -129.868
| 12> H 	 35.2469 	 -34.7067 	 -130.181
| 13> C 	 36.2662 	 -33.2099 	 -127.71
| 14> H 	 36.6693 	 -34.1526 	 -127.398
| 15> H 	 36.1285 	 -32.7155 	 -126.749
| 16> C 	 37.3732 	 -32.4388 	 -128.417
| 17> H 	 38.3336 	 -32.6652 	 -128.047
| 18> H 	 37.3319 	 -32.7957 	 -129.44
| 19> C 	 37.2636 	 -30.8956 	 -128.208
| 20> H 	 37.7663 	 -30.3253 	 -128.911
| 21> H 	 36.2286 	 -30.6312 	 -128.406
| 22> H 	 37.4441 	 -30.5161 	 -127.246
| 23> S 	 32.8065 	 -34.1075 	 -132.673
| 24> C 	 32.0692 	 -35.5278 	 -133.422
| 25> C 	 32.1455 	 -36.646 	 -132.566
| 26> C 	 32.601 	 -36.3001 	 -131.272
| 27> C 	 32.8196 	 -34.9482 	 -131.076
| 28> H 	 31.6588 	 -37.5815 	 -132.987
| 29> C 	 32.5267 	 -37.3232 	 -130.086
| 30> H 	 31.5498 	 -37.9049 	 -130.141
| 31> H 	 32.4923 	 -36.8036 	 -129.126
| 32> C 	 33.613 	 -38.4168 	 -130.024
| 33> H 	 34.5597 	 -38.0194 	 -129.711
| 34> H 	 33.7021 	 -38.7574 	 -131.08
| 35> C 	 33.3931 	 -39.6713 	 -129.239
| 36> H 	 33.2686 	 -39.3961 	 -128.087
| 37> H 	 34.1365 	 -40.4482 	 -129.337
| 38> H 	 32.4628 	 -40.1129 	 -129.536
| 39> H 	 33.5737 	 -32.1026 	 -127.03
| 40> H 	 31.6098 	 -35.6432 	 -134.433
| 41> *
| 42>
| 43>                          ****END OF INPUT****

CARTESIAN COORDINATES (ANGSTROEM)
---------------------------------
  S     32.324800  -33.081200  -129.013000
  C     33.724600  -32.673800  -128.011000
  C     34.893600  -33.335100  -128.391000
  C     34.632600  -34.141400  -129.557000
  C     33.320100  -34.201800  -129.868000
  H     35.246900  -34.706700  -130.181000
  C     36.266200  -33.209900  -127.710000
  H     36.669300  -34.152600  -127.398000
  H     36.128500  -32.715500  -126.749000
  C     37.373200  -32.438800  -128.417000
  H     38.333600  -32.665200  -128.047000
  H     37.331900  -32.795700  -129.440000
  C     37.263600  -30.895600  -128.208000
  H     37.766300  -30.325300  -128.911000
  H     36.228600  -30.631200  -128.406000
  H     37.444100  -30.516100  -127.246000
  S     32.806500  -34.107500  -132.673000
  C     32.069200  -35.527800  -133.422000
  C     32.145500  -36.646000  -132.566000
  C     32.601000  -36.300100  -131.272000
  C     32.819600  -34.948200  -131.076000
  H     31.658800  -37.581500  -132.987000
  C     32.526700  -37.323200  -130.086000
  H     31.549800  -37.904900  -130.141000
  H     32.492300  -36.803600  -129.126000
  C     33.613000  -38.416800  -130.024000
  H     34.559700  -38.019400  -129.711000
  H     33.702100  -38.757400  -131.080000
  C     33.393100  -39.671300  -129.239000
  H     33.268600  -39.396100  -128.087000
  H     34.136500  -40.448200  -129.337000
  H     32.462800  -40.112900  -129.536000
  H     33.573700  -32.102600  -127.030000
  H     31.609800  -35.643200  -134.433000

 Total Charge           Charge          ....    0
 Multiplicity           Mult            ....    1
 Number of Electrons    NEL             ....  134
 Basis Dimension        Dim             ....  322

ORBITAL ENERGIES
----------------

  NO   OCC          E(Eh)            E(eV)
   0   2.0000     -88.969474     -2420.9825
   1   2.0000     -88.966702     -2420.9071
   2   2.0000     -10.331885      -281.1449
   3   2.0000     -10.326780      -281.0060
   4   2.0000     -10.325730      -280.9774
   5   2.0000     -10.325263      -280.9647
   6   2.0000     -10.311848      -280.5997
   7   2.0000     -10.310292      -280.5573
   8   2.0000     -10.301579      -280.3202
   9   2.0000     -10.298259      -280.2299
  10   2.0000     -10.291423      -280.0439
  11   2.0000     -10.291015      -280.0327
  12   2.0000     -10.283835      -279.8374
  13   2.0000     -10.282389      -279.7980
  14   2.0000     -10.282059      -279.7890
  15   2.0000     -10.265457      -279.3373
  16   2.0000      -8.084455      -219.9892
  17   2.0000      -8.080286      -219.8758
  18   2.0000      -6.042827      -164.4337
  19   2.0000      -6.039070      -164.3315
  20   2.0000      -6.038921      -164.3274
  21   2.0000      -6.035189      -164.2259
  22   2.0000      -6.035040      -164.2218
  23   2.0000      -6.030879      -164.1086
  24   2.0000      -1.005322       -27.3562
  25   2.0000      -0.980548       -26.6821
  26   2.0000      -0.911252       -24.7964
  27   2.0000      -0.903145       -24.5758
  28   2.0000      -0.863288       -23.4913
  29   2.0000      -0.851423       -23.1684
  30   2.0000      -0.848160       -23.0796
  31   2.0000      -0.812175       -22.1004
  32   2.0000      -0.786446       -21.4003
  33   2.0000      -0.772056       -21.0087
  34   2.0000      -0.709081       -19.2951
  35   2.0000      -0.691379       -18.8134
  36   2.0000      -0.685008       -18.6400
  37   2.0000      -0.651581       -17.7304
  38   2.0000      -0.649926       -17.6854
  39   2.0000      -0.619450       -16.8561
  40   2.0000      -0.590044       -16.0559
  41   2.0000      -0.568777       -15.4772
  42   2.0000      -0.562971       -15.3192
  43   2.0000      -0.550262       -14.9734
  44   2.0000      -0.544472       -14.8158
  45   2.0000      -0.517396       -14.0791
  46   2.0000      -0.515218       -14.0198
  47   2.0000      -0.512079       -13.9344
  48   2.0000      -0.506928       -13.7942
  49   2.0000      -0.491581       -13.3766
  50   2.0000      -0.483841       -13.1660
  51   2.0000      -0.480026       -13.0622
  52   2.0000      -0.470979       -12.8160
  53   2.0000      -0.462113       -12.5747
  54   2.0000      -0.458658       -12.4807
  55   2.0000      -0.448951       -12.2166
  56   2.0000      -0.447745       -12.1838
  57   2.0000      -0.439798       -11.9675
  58   2.0000      -0.427743       -11.6395
  59   2.0000      -0.423456       -11.5228
  60   2.0000      -0.419682       -11.4201
  61   2.0000      -0.415108       -11.2957
  62   2.0000      -0.405316       -11.0292
  63   2.0000      -0.340120        -9.2551
  64   2.0000      -0.330295        -8.9878
  65   2.0000      -0.323394        -8.8000
  66   2.0000      -0.313256        -8.5241
  67   0.0000       0.038276         1.0416
  68   0.0000       0.052033         1.4159
  69   0.0000       0.109140         2.9699
  70   0.0000       0.118138         3.2147
  71   0.0000       0.123526         3.3613

MULLIKEN ATOMIC CHARGES
-----------------------
   0 S :    0.120046
   1 C :   -0.151046
   2 C :   -0.061777
   3 C :    0.065263
   4 C :   -0.185281
   5 H :   -0.005342
   6 C :    0.071071
   7 H :    0.024028
   8 H :    0.004053
   9 C :   -0.040960
  10 H :    0.018584
  11 H :    0.026292
  12 C :   -0.015253
  13 H :    0.015510
  14 H :    0.013097
  15 H :    0.021196
  16 S :    0.105216
  17 C :   -0.119445
  18 C :   -0.067727
  19 C :    0.027631
  20 C :   -0.179832
  21 H :    0.050047
  22 C :    0.036118
  23 H :    0.030140
  24 H :    0.032752
  25 C :   -0.070845
  26 H :    0.022400
  27 H :    0.022714
  28 C :   -0.058009
  29 H :    0.036445
  30 H :    0.041602
  31 H :    0.016231
  32 H :    0.081037
  33 H :    0.074042
Sum of atomic charges:   -0.0000000

LOEWDIN ATOMIC CHARGES
----------------------
   0 S :    0.409729
   1 C :   -0.198163
   2 C :   -0.056804
   3 C :   -0.048848
   4 C :   -0.203924
   5 H :    0.025200
   6 C :   -0.031312
   7 H :    0.029809
   8 H :    0.027831
   9 C :   -0.030509
  10 H :    0.018754
  11 H :    0.024532
  12 C :   -0.058654
  13 H :    0.017526
  14 H :    0.025930
  15 H :    0.019030
  16 S :    0.375304
  17 C :   -0.186884
  18 C :   -0.085238
  19 C :   -0.056566
  20 C :   -0.183552
  21 H :    0.046348
  22 C :   -0.028840
  23 H :    0.034895
  24 H :    0.027860
  25 C :   -0.050396
  26 H :    0.018494
  27 H :    0.025711
  28 C :   -0.068146
  29 H :    0.033544
  30 H :    0.027086
  31 H :    0.016695
  32 H :    0.042491
  33 H :    0.041067

  Mayer bond orders larger than 0.100000
B(  0-S ,  1-C ) :   1.1413 B(  0-S ,  4-C ) :   1.1472 B(  1-C ,  2-C ) :   1.6321
B(  1-C , 32-H ) :   0.9525 B(  2-C ,  3-C ) :   1.1862 B(  2-C ,  6-C ) :   1.0269
B(  3-C ,  4-C ) :   1.6328 B(  3-C ,  5-H ) :   1.0018 B(  4-C , 20-C ) :   0.9874
B(  6-C ,  7-H ) :   0.9395 B(  6-C ,  8-H ) :   0.9387 B(  6-C ,  9-C ) :   1.0706
B(  9-C , 10-H ) :   0.9549 B(  9-C , 11-H ) :   0.9597 B(  9-C , 12-C ) :   1.0724
B( 12-C , 13-H ) :   0.9734 B( 12-C , 14-H ) :   0.9756 B( 12-C , 15-H ) :   0.9753
B( 16-S , 17-C ) :   1.1511 B( 16-S , 20-C ) :   1.1261 B( 17-C , 18-C ) :   1.6354
B( 17-C , 20-C ) :   0.1044 B( 17-C , 33-H ) :   0.9596 B( 18-C , 19-C ) :   1.2193
B( 18-C , 21-H ) :   0.9784 B( 19-C , 20-C ) :   1.6302 B( 19-C , 22-C ) :   1.0298
B( 22-C , 23-H ) :   0.9486 B( 22-C , 24-H ) :   0.9390 B( 22-C , 25-C ) :   1.0525
B( 25-C , 26-H ) :   0.9522 B( 25-C , 27-H ) :   0.9565 B( 25-C , 28-C ) :   1.0932
B( 28-C , 29-H ) :   0.9716 B( 28-C , 30-H ) :   0.9729 B( 28-C , 31-H ) :   0.9703

Dispersion correction           -0.013894260
FINAL SINGLE POINT ENERGY     -1339.853909102001

DIPOLE MOMENT
-------------
                                X             Y             Z
Electronic contribution:    -16.04087      10.60179     -12.32641
Nuclear contribution   :     16.33303     -10.95091      12.52280
                        -----------------------------------------
Total Dipole Moment    :      0.29216      -0.34912       0.19639
                        -----------------------------------------
Magnitude (a.u.)       :      0.49579
Magnitude (Debye)      :      1.26019

Rotational constants in cm-1:     0.017702     0.007956     0.006651
Rotational constants in MHz :   530.686325   238.503656   199.397676

                             ****ORCA TERMINATED NORMALLY****
TOTAL RUN TIME: 0 days 0 hours 0 minutes 20 seconds 747 msec
