                         Program Version 4.2.1 -  RELEASE  -
|  1> ! wB97X-D3 SP def2-SVP
|  2> %pal
|  3> nprocs 24
|  4> end
|  5>
|  6> * xyz 0 1
|  7> S 	 -71.0118 	 14.9899 	 -77.6971
|  8> C 	 -69.2893 	 14.6964 	 -78.1539
|  9> C 	 -68.4981 	 14.9091 	 -77.0361
| 10> C 	 -69.2815 	 15.1458 	 -75.8499
| 11> C 	 -70.6494 	 14.9999 	 -76.0198
| 12> H 	 -68.9347 	 15.2576 	 -74.902
| 13> C 	 -66.969 	 14.885 	 -76.9675
| 14> H 	 -66.6323 	 13.9641 	 -77.4947
| 15> H 	 -66.609 	 14.8279 	 -75.9534
| 16> C 	 -66.2533 	 16.0872 	 -77.5028
| 17> H 	 -65.2556 	 15.7962 	 -77.723
| 18> H 	 -66.6629 	 16.4238 	 -78.4313
| 19> C 	 -66.2831 	 17.3623 	 -76.606
| 20> H 	 -67.2566 	 17.8068 	 -76.4441
| 21> H 	 -65.8248 	 17.0864 	 -75.6988
| 22> H 	 -65.7065 	 18.296 	 -76.968
| 23> S 	 -72.8559 	 16.3309 	 -75.1493
| 24> C 	 -73.7452 	 15.792 	 -73.7724
| 25> C 	 -73.1811 	 14.6719 	 -73.2141
| 26> C 	 -72.1541 	 14.0929 	 -74.0044
| 27> C 	 -71.76 	 14.95 	 -75.0221
| 28> H 	 -73.6236 	 14.3588 	 -72.2546
| 29> C 	 -71.4008 	 12.8583 	 -73.5392
| 30> H 	 -71.1691 	 12.9334 	 -72.4855
| 31> H 	 -70.4772 	 13.0546 	 -74.0961
| 32> C 	 -71.9767 	 11.4244 	 -73.8754
| 33> H 	 -72.2797 	 11.3452 	 -74.9108
| 34> H 	 -72.8929 	 11.2062 	 -73.287
| 35> C 	 -70.9128 	 10.2819 	 -73.6889
| 36> H 	 -71.397 	 9.2678 	 -73.6925
| 37> H 	 -70.3537 	 10.3478 	 -72.7373
| 38> H 	 -70.207 	 10.2915 	 -74.552
| 39> H 	 -68.9934 	 14.3899 	 -79.1129
| 40> H 	 -74.3058 	 16.4753 	 -73.112
| 41> *
| 42>
| 43>                          ****END OF INPUT****

CARTESIAN COORDINATES (ANGSTROEM)
---------------------------------
  S    -71.011800   14.989900  -77.697100
  C    -69.289300   14.696400  -78.153900
  C    -68.498100   14.909100  -77.036100
  C    -69.281500   15.145800  -75.849900
  C    -70.649400   14.999900  -76.019800
  H    -68.934700   15.257600  -74.902000
  C    -66.969000   14.885000  -76.967500
  H    -66.632300   13.964100  -77.494700
  H    -66.609000   14.827900  -75.953400
  C    -66.253300   16.087200  -77.502800
  H    -65.255600   15.796200  -77.723000
  H    -66.662900   16.423800  -78.431300
  C    -66.283100   17.362300  -76.606000
  H    -67.256600   17.806800  -76.444100
  H    -65.824800   17.086400  -75.698800
  H    -65.706500   18.296000  -76.968000
  S    -72.855900   16.330900  -75.149300
  C    -73.745200   15.792000  -73.772400
  C    -73.181100   14.671900  -73.214100
  C    -72.154100   14.092900  -74.004400
  C    -71.760000   14.950000  -75.022100
  H    -73.623600   14.358800  -72.254600
  C    -71.400800   12.858300  -73.539200
  H    -71.169100   12.933400  -72.485500
  H    -70.477200   13.054600  -74.096100
  C    -71.976700   11.424400  -73.875400
  H    -72.279700   11.345200  -74.910800
  H    -72.892900   11.206200  -73.287000
  C    -70.912800   10.281900  -73.688900
  H    -71.397000    9.267800  -73.692500
  H    -70.353700   10.347800  -72.737300
  H    -70.207000   10.291500  -74.552000
  H    -68.993400   14.389900  -79.112900
  H    -74.305800   16.475300  -73.112000

 Total Charge           Charge          ....    0
 Multiplicity           Mult            ....    1
 Number of Electrons    NEL             ....  134
 Basis Dimension        Dim             ....  322

ORBITAL ENERGIES
----------------

  NO   OCC          E(Eh)            E(eV)
   0   2.0000     -88.964501     -2420.8471
   1   2.0000     -88.963298     -2420.8144
   2   2.0000     -10.334092      -281.2049
   3   2.0000     -10.332393      -281.1587
   4   2.0000     -10.317601      -280.7562
   5   2.0000     -10.312013      -280.6041
   6   2.0000     -10.307910      -280.4925
   7   2.0000     -10.307746      -280.4880
   8   2.0000     -10.295020      -280.1417
   9   2.0000     -10.293344      -280.0961
  10   2.0000     -10.293192      -280.0920
  11   2.0000     -10.292511      -280.0735
  12   2.0000     -10.289612      -279.9946
  13   2.0000     -10.286279      -279.9039
  14   2.0000     -10.280783      -279.7543
  15   2.0000     -10.278935      -279.7040
  16   2.0000      -8.079666      -219.8589
  17   2.0000      -8.078113      -219.8166
  18   2.0000      -6.038115      -164.3055
  19   2.0000      -6.036697      -164.2669
  20   2.0000      -6.034052      -164.1949
  21   2.0000      -6.032609      -164.1556
  22   2.0000      -6.030506      -164.0984
  23   2.0000      -6.028758      -164.0508
  24   2.0000      -1.007851       -27.4250
  25   2.0000      -0.985315       -26.8118
  26   2.0000      -0.915323       -24.9072
  27   2.0000      -0.899125       -24.4664
  28   2.0000      -0.867164       -23.5967
  29   2.0000      -0.848972       -23.1017
  30   2.0000      -0.841358       -22.8945
  31   2.0000      -0.816011       -22.2048
  32   2.0000      -0.784465       -21.3464
  33   2.0000      -0.771445       -20.9921
  34   2.0000      -0.705627       -19.2011
  35   2.0000      -0.703353       -19.1392
  36   2.0000      -0.693525       -18.8718
  37   2.0000      -0.658567       -17.9205
  38   2.0000      -0.650543       -17.7022
  39   2.0000      -0.617004       -16.7895
  40   2.0000      -0.589321       -16.0363
  41   2.0000      -0.578649       -15.7458
  42   2.0000      -0.558596       -15.2002
  43   2.0000      -0.550153       -14.9704
  44   2.0000      -0.544161       -14.8074
  45   2.0000      -0.521370       -14.1872
  46   2.0000      -0.513277       -13.9670
  47   2.0000      -0.511696       -13.9240
  48   2.0000      -0.504187       -13.7196
  49   2.0000      -0.502098       -13.6628
  50   2.0000      -0.486799       -13.2465
  51   2.0000      -0.477611       -12.9965
  52   2.0000      -0.475335       -12.9345
  53   2.0000      -0.464584       -12.6420
  54   2.0000      -0.456506       -12.4221
  55   2.0000      -0.443002       -12.0547
  56   2.0000      -0.440409       -11.9842
  57   2.0000      -0.437413       -11.9026
  58   2.0000      -0.432734       -11.7753
  59   2.0000      -0.421904       -11.4806
  60   2.0000      -0.418057       -11.3759
  61   2.0000      -0.417079       -11.3493
  62   2.0000      -0.413925       -11.2635
  63   2.0000      -0.340340        -9.2611
  64   2.0000      -0.333638        -9.0788
  65   2.0000      -0.328215        -8.9312
  66   2.0000      -0.299229        -8.1424
  67   0.0000       0.035107         0.9553
  68   0.0000       0.050231         1.3669
  69   0.0000       0.106782         2.9057
  70   0.0000       0.118659         3.2289
  71   0.0000       0.129027         3.5110

MULLIKEN ATOMIC CHARGES
-----------------------
   0 S :    0.101539
   1 C :   -0.112471
   2 C :   -0.077377
   3 C :    0.098974
   4 C :   -0.168229
   5 H :   -0.033032
   6 C :    0.071921
   7 H :    0.039129
   8 H :    0.011533
   9 C :   -0.025160
  10 H :    0.020357
  11 H :    0.014087
  12 C :   -0.080324
  13 H :    0.041115
  14 H :    0.015409
  15 H :    0.041145
  16 S :    0.100023
  17 C :   -0.085709
  18 C :   -0.073831
  19 C :   -0.003420
  20 C :   -0.174171
  21 H :    0.031858
  22 C :    0.052860
  23 H :    0.030612
  24 H :    0.018814
  25 C :   -0.058817
  26 H :    0.032986
  27 H :    0.035704
  28 C :   -0.090020
  29 H :    0.040746
  30 H :    0.036729
  31 H :    0.045073
  32 H :    0.031466
  33 H :    0.070482
Sum of atomic charges:   -0.0000000

LOEWDIN ATOMIC CHARGES
----------------------
   0 S :    0.396863
   1 C :   -0.170800
   2 C :   -0.053630
   3 C :   -0.056830
   4 C :   -0.202226
   5 H :    0.012260
   6 C :   -0.029705
   7 H :    0.039529
   8 H :    0.027160
   9 C :   -0.036113
  10 H :    0.021779
  11 H :    0.018419
  12 C :   -0.070238
  13 H :    0.025833
  14 H :    0.012575
  15 H :    0.037713
  16 S :    0.408841
  17 C :   -0.206717
  18 C :   -0.071864
  19 C :   -0.057609
  20 C :   -0.189682
  21 H :    0.037338
  22 C :   -0.032764
  23 H :    0.030185
  24 H :    0.033237
  25 C :   -0.038520
  26 H :    0.026145
  27 H :    0.024772
  28 C :   -0.074219
  29 H :    0.030983
  30 H :    0.023615
  31 H :    0.029208
  32 H :    0.017882
  33 H :    0.036582

  Mayer bond orders larger than 0.100000
B(  0-S ,  1-C ) :   1.1232 B(  0-S ,  4-C ) :   1.1693 B(  1-C ,  2-C ) :   1.6052
B(  1-C ,  4-C ) :   0.1021 B(  1-C , 32-H ) :   0.9857 B(  2-C ,  3-C ) :   1.2201
B(  2-C ,  6-C ) :   1.0200 B(  3-C ,  4-C ) :   1.5792 B(  3-C ,  5-H ) :   1.0121
B(  4-C , 20-C ) :   0.9785 B(  6-C ,  7-H ) :   0.9384 B(  6-C ,  8-H ) :   0.9422
B(  6-C ,  9-C ) :   1.0762 B(  9-C , 10-H ) :   0.9537 B(  9-C , 11-H ) :   0.9562
B(  9-C , 12-C ) :   1.0668 B( 12-C , 13-H ) :   0.9780 B( 12-C , 14-H ) :   0.9770
B( 12-C , 15-H ) :   0.9752 B( 16-S , 17-C ) :   1.1496 B( 16-S , 20-C ) :   1.1639
B( 17-C , 18-C ) :   1.6457 B( 17-C , 20-C ) :   0.1015 B( 17-C , 33-H ) :   0.9535
B( 18-C , 19-C ) :   1.2153 B( 18-C , 21-H ) :   0.9843 B( 19-C , 20-C ) :   1.6100
B( 19-C , 22-C ) :   1.0336 B( 22-C , 23-H ) :   0.9409 B( 22-C , 24-H ) :   0.9387
B( 22-C , 25-C ) :   1.0512 B( 25-C , 26-H ) :   0.9579 B( 25-C , 27-H ) :   0.9598
B( 25-C , 28-C ) :   1.0731 B( 28-C , 29-H ) :   0.9760 B( 28-C , 30-H ) :   0.9773
B( 28-C , 31-H ) :   0.9785

Dispersion correction           -0.013623150
FINAL SINGLE POINT ENERGY     -1339.859402978782

DIPOLE MOMENT
-------------
                                X             Y             Z
Electronic contribution:    -19.73273      10.99791      -6.69771
Nuclear contribution   :     20.28450     -11.23808       7.09861
                        -----------------------------------------
Total Dipole Moment    :      0.55178      -0.24017       0.40090
                        -----------------------------------------
Magnitude (a.u.)       :      0.72309
Magnitude (Debye)      :      1.83796

Rotational constants in cm-1:     0.017725     0.008151     0.006717
Rotational constants in MHz :   531.369191   244.354608   201.368408

                             ****ORCA TERMINATED NORMALLY****
TOTAL RUN TIME: 0 days 0 hours 0 minutes 21 seconds 72 msec
