                         Program Version 4.2.1 -  RELEASE  -
|  1> ! wB97X-D3 SP def2-SVP
|  2> %pal
|  3> nprocs 24
|  4> end
|  5>
|  6> * xyz 0 1
|  7> S 	 -41.9235 	 -50.1255 	 -69.3254
|  8> C 	 -40.3261 	 -49.6642 	 -68.7129
|  9> C 	 -39.3172 	 -49.9767 	 -69.5935
| 10> C 	 -39.8082 	 -50.7616 	 -70.6881
| 11> C 	 -41.1712 	 -50.9123 	 -70.689
| 12> H 	 -39.3165 	 -51.1241 	 -71.5582
| 13> C 	 -37.8757 	 -49.5863 	 -69.5385
| 14> H 	 -37.6491 	 -48.5803 	 -69.2955
| 15> H 	 -37.3711 	 -49.8177 	 -70.4994
| 16> C 	 -37.0955 	 -50.3831 	 -68.484
| 17> H 	 -37.2577 	 -51.4145 	 -68.7688
| 18> H 	 -36.0235 	 -50.103 	 -68.515
| 19> C 	 -37.3714 	 -50.1399 	 -66.9299
| 20> H 	 -38.4003 	 -50.2545 	 -66.7819
| 21> H 	 -36.8264 	 -50.8345 	 -66.341
| 22> H 	 -37.111 	 -49.085 	 -66.7163
| 23> S 	 -41.8401 	 -50.7953 	 -73.4194
| 24> C 	 -43.2385 	 -51.6277 	 -74.0032
| 25> C 	 -43.5389 	 -52.6478 	 -73.152
| 26> C 	 -42.853 	 -52.5948 	 -71.8567
| 27> C 	 -41.9829 	 -51.4702 	 -71.8179
| 28> H 	 -44.2943 	 -53.3747 	 -73.4105
| 29> C 	 -43.0129 	 -53.4895 	 -70.5956
| 30> H 	 -44.0154 	 -53.3172 	 -70.1999
| 31> H 	 -42.4849 	 -53.0671 	 -69.6968
| 32> C 	 -42.4977 	 -54.9217 	 -70.7114
| 33> H 	 -41.478 	 -54.9148 	 -71.2506
| 34> H 	 -43.0828 	 -55.3842 	 -71.4739
| 35> C 	 -42.3274 	 -55.6693 	 -69.3896
| 36> H 	 -42.4194 	 -56.7636 	 -69.4975
| 37> H 	 -43.0815 	 -55.2521 	 -68.6916
| 38> H 	 -41.2969 	 -55.4575 	 -69.1481
| 39> H 	 -40.2215 	 -48.9712 	 -67.8958
| 40> H 	 -43.7312 	 -51.525 	 -74.9516
| 41> *
| 42>
| 43>                          ****END OF INPUT****

CARTESIAN COORDINATES (ANGSTROEM)
---------------------------------
  S    -41.923500  -50.125500  -69.325400
  C    -40.326100  -49.664200  -68.712900
  C    -39.317200  -49.976700  -69.593500
  C    -39.808200  -50.761600  -70.688100
  C    -41.171200  -50.912300  -70.689000
  H    -39.316500  -51.124100  -71.558200
  C    -37.875700  -49.586300  -69.538500
  H    -37.649100  -48.580300  -69.295500
  H    -37.371100  -49.817700  -70.499400
  C    -37.095500  -50.383100  -68.484000
  H    -37.257700  -51.414500  -68.768800
  H    -36.023500  -50.103000  -68.515000
  C    -37.371400  -50.139900  -66.929900
  H    -38.400300  -50.254500  -66.781900
  H    -36.826400  -50.834500  -66.341000
  H    -37.111000  -49.085000  -66.716300
  S    -41.840100  -50.795300  -73.419400
  C    -43.238500  -51.627700  -74.003200
  C    -43.538900  -52.647800  -73.152000
  C    -42.853000  -52.594800  -71.856700
  C    -41.982900  -51.470200  -71.817900
  H    -44.294300  -53.374700  -73.410500
  C    -43.012900  -53.489500  -70.595600
  H    -44.015400  -53.317200  -70.199900
  H    -42.484900  -53.067100  -69.696800
  C    -42.497700  -54.921700  -70.711400
  H    -41.478000  -54.914800  -71.250600
  H    -43.082800  -55.384200  -71.473900
  C    -42.327400  -55.669300  -69.389600
  H    -42.419400  -56.763600  -69.497500
  H    -43.081500  -55.252100  -68.691600
  H    -41.296900  -55.457500  -69.148100
  H    -40.221500  -48.971200  -67.895800
  H    -43.731200  -51.525000  -74.951600

 Total Charge           Charge          ....    0
 Multiplicity           Mult            ....    1
 Number of Electrons    NEL             ....  134
 Basis Dimension        Dim             ....  322

ORBITAL ENERGIES
----------------

  NO   OCC          E(Eh)            E(eV)
   0   2.0000     -88.968704     -2420.9615
   1   2.0000     -88.964201     -2420.8390
   2   2.0000     -10.330671      -281.1119
   3   2.0000     -10.329884      -281.0904
   4   2.0000     -10.315393      -280.6961
   5   2.0000     -10.315278      -280.6930
   6   2.0000     -10.312659      -280.6217
   7   2.0000     -10.304208      -280.3918
   8   2.0000     -10.297165      -280.2001
   9   2.0000     -10.294171      -280.1186
  10   2.0000     -10.290978      -280.0318
  11   2.0000     -10.290837      -280.0279
  12   2.0000     -10.286579      -279.9121
  13   2.0000     -10.285014      -279.8694
  14   2.0000     -10.280658      -279.7509
  15   2.0000     -10.274456      -279.5822
  16   2.0000      -8.082931      -219.9477
  17   2.0000      -8.079396      -219.8515
  18   2.0000      -6.041431      -164.3957
  19   2.0000      -6.037927      -164.3003
  20   2.0000      -6.037584      -164.2910
  21   2.0000      -6.033932      -164.1916
  22   2.0000      -6.033645      -164.1838
  23   2.0000      -6.030003      -164.0847
  24   2.0000      -1.005101       -27.3502
  25   2.0000      -0.985497       -26.8167
  26   2.0000      -0.911757       -24.8102
  27   2.0000      -0.904170       -24.6037
  28   2.0000      -0.865214       -23.5437
  29   2.0000      -0.848538       -23.0899
  30   2.0000      -0.843060       -22.9408
  31   2.0000      -0.815112       -22.1803
  32   2.0000      -0.788639       -21.4600
  33   2.0000      -0.772110       -21.0102
  34   2.0000      -0.699144       -19.0247
  35   2.0000      -0.696117       -18.9423
  36   2.0000      -0.691909       -18.8278
  37   2.0000      -0.656657       -17.8685
  38   2.0000      -0.642326       -17.4786
  39   2.0000      -0.619849       -16.8669
  40   2.0000      -0.597651       -16.2629
  41   2.0000      -0.577017       -15.7014
  42   2.0000      -0.556676       -15.1479
  43   2.0000      -0.548727       -14.9316
  44   2.0000      -0.542388       -14.7591
  45   2.0000      -0.529062       -14.3965
  46   2.0000      -0.516852       -14.0643
  47   2.0000      -0.514030       -13.9875
  48   2.0000      -0.504963       -13.7408
  49   2.0000      -0.496868       -13.5205
  50   2.0000      -0.489938       -13.3319
  51   2.0000      -0.477991       -13.0068
  52   2.0000      -0.469498       -12.7757
  53   2.0000      -0.466613       -12.6972
  54   2.0000      -0.458475       -12.4757
  55   2.0000      -0.451987       -12.2992
  56   2.0000      -0.442895       -12.0518
  57   2.0000      -0.440916       -11.9979
  58   2.0000      -0.432378       -11.7656
  59   2.0000      -0.426868       -11.6157
  60   2.0000      -0.421300       -11.4642
  61   2.0000      -0.406729       -11.0677
  62   2.0000      -0.392847       -10.6899
  63   2.0000      -0.341424        -9.2906
  64   2.0000      -0.333195        -9.0667
  65   2.0000      -0.324663        -8.8345
  66   2.0000      -0.300408        -8.1745
  67   0.0000       0.036577         0.9953
  68   0.0000       0.056237         1.5303
  69   0.0000       0.104383         2.8404
  70   0.0000       0.111786         3.0418
  71   0.0000       0.139325         3.7912

MULLIKEN ATOMIC CHARGES
-----------------------
   0 S :    0.116140
   1 C :   -0.125421
   2 C :   -0.067691
   3 C :    0.022918
   4 C :   -0.144634
   5 H :    0.001742
   6 C :    0.098690
   7 H :    0.016245
   8 H :    0.031443
   9 C :   -0.125161
  10 H :    0.027087
  11 H :    0.034806
  12 C :   -0.025771
  13 H :    0.016259
  14 H :    0.038282
  15 H :    0.027785
  16 S :    0.112097
  17 C :   -0.083445
  18 C :   -0.030663
  19 C :   -0.033842
  20 C :   -0.174673
  21 H :    0.019159
  22 C :    0.043702
  23 H :    0.032077
  24 H :    0.018429
  25 C :   -0.096144
  26 H :    0.035257
  27 H :    0.014974
  28 C :   -0.039249
  29 H :    0.042661
  30 H :    0.046233
  31 H :    0.043720
  32 H :    0.051310
  33 H :    0.055678
Sum of atomic charges:   -0.0000000

LOEWDIN ATOMIC CHARGES
----------------------
   0 S :    0.405573
   1 C :   -0.190750
   2 C :   -0.056038
   3 C :   -0.064160
   4 C :   -0.186975
   5 H :    0.027204
   6 C :   -0.030730
   7 H :    0.024229
   8 H :    0.039360
   9 C :   -0.036963
  10 H :    0.018335
  11 H :    0.024370
  12 C :   -0.057215
  13 H :    0.011594
  14 H :    0.024653
  15 H :    0.026191
  16 S :    0.412135
  17 C :   -0.189549
  18 C :   -0.071843
  19 C :   -0.049006
  20 C :   -0.204536
  21 H :    0.029232
  22 C :   -0.045048
  23 H :    0.029914
  24 H :    0.029876
  25 C :   -0.050574
  26 H :    0.032961
  27 H :    0.011520
  28 C :   -0.064896
  29 H :    0.031947
  30 H :    0.031050
  31 H :    0.031025
  32 H :    0.024391
  33 H :    0.032722

  Mayer bond orders larger than 0.100000
B(  0-S ,  1-C ) :   1.1290 B(  0-S ,  4-C ) :   1.1533 B(  1-C ,  2-C ) :   1.6257
B(  1-C , 32-H ) :   0.9626 B(  2-C ,  3-C ) :   1.2078 B(  2-C ,  6-C ) :   1.0290
B(  3-C ,  4-C ) :   1.6142 B(  3-C ,  5-H ) :   0.9999 B(  4-C , 20-C ) :   1.0060
B(  6-C ,  7-H ) :   0.9389 B(  6-C ,  8-H ) :   0.9384 B(  6-C ,  9-C ) :   1.0679
B(  9-C , 10-H ) :   0.9576 B(  9-C , 11-H ) :   0.9615 B(  9-C , 12-C ) :   1.0691
B( 12-C , 13-H ) :   0.9740 B( 12-C , 14-H ) :   0.9750 B( 12-C , 15-H ) :   0.9771
B( 16-S , 17-C ) :   1.1499 B( 16-S , 20-C ) :   1.1484 B( 17-C , 18-C ) :   1.6155
B( 17-C , 33-H ) :   0.9705 B( 18-C , 19-C ) :   1.2341 B( 18-C , 21-H ) :   0.9914
B( 19-C , 20-C ) :   1.5781 B( 19-C , 22-C ) :   1.0374 B( 22-C , 23-H ) :   0.9319
B( 22-C , 24-H ) :   0.9332 B( 22-C , 25-C ) :   1.0453 B( 25-C , 26-H ) :   0.9613
B( 25-C , 27-H ) :   0.9602 B( 25-C , 28-C ) :   1.0584 B( 28-C , 29-H ) :   0.9743
B( 28-C , 30-H ) :   0.9776 B( 28-C , 31-H ) :   0.9786

Dispersion correction           -0.014116435
FINAL SINGLE POINT ENERGY     -1339.860965499718

DIPOLE MOMENT
-------------
                                X             Y             Z
Electronic contribution:    -12.77406      12.68976     -15.56269
Nuclear contribution   :     12.96444     -12.89843      15.58746
                        -----------------------------------------
Total Dipole Moment    :      0.19038      -0.20867       0.02477
                        -----------------------------------------
Magnitude (a.u.)       :      0.28356
Magnitude (Debye)      :      0.72074

Rotational constants in cm-1:     0.018931     0.008130     0.006661
Rotational constants in MHz :   567.524704   243.726375   199.704791

                             ****ORCA TERMINATED NORMALLY****
TOTAL RUN TIME: 0 days 0 hours 0 minutes 21 seconds 78 msec
