                         Program Version 4.2.1 -  RELEASE  -
|  1> ! wB97X-D3 SP def2-SVP
|  2> %pal
|  3> nprocs 24
|  4> end
|  5>
|  6> * xyz 0 1
|  7> S 	 -115.626 	 61.3966 	 -68.0117
|  8> C 	 -115.904 	 60.2512 	 -66.6552
|  9> C 	 -115.711 	 60.8858 	 -65.4653
| 10> C 	 -115.571 	 62.3164 	 -65.627
| 11> C 	 -115.701 	 62.7941 	 -66.9429
| 12> H 	 -115.502 	 63.1528 	 -64.9507
| 13> C 	 -115.703 	 60.1651 	 -64.161
| 14> H 	 -114.647 	 59.8063 	 -63.9083
| 15> H 	 -116.269 	 59.265 	 -64.2986
| 16> C 	 -116.339 	 60.9031 	 -62.961
| 17> H 	 -115.698 	 61.7741 	 -62.6076
| 18> H 	 -117.255 	 61.3929 	 -63.1588
| 19> C 	 -116.597 	 60.064 	 -61.76
| 20> H 	 -117.026 	 60.6439 	 -60.9532
| 21> H 	 -117.344 	 59.2983 	 -62.0018
| 22> H 	 -115.686 	 59.6766 	 -61.3057
| 23> S 	 -114.816 	 64.7942 	 -68.5932
| 24> C 	 -115.574 	 66.4208 	 -68.5262
| 25> C 	 -116.575 	 66.4827 	 -67.5733
| 26> C 	 -116.727 	 65.1759 	 -67.001
| 27> C 	 -115.843 	 64.194 	 -67.3471
| 28> H 	 -117.18 	 67.3473 	 -67.4418
| 29> C 	 -117.825 	 65.0074 	 -65.9652
| 30> H 	 -117.978 	 65.8953 	 -65.3451
| 31> H 	 -117.509 	 64.2371 	 -65.3307
| 32> C 	 -119.119 	 64.6384 	 -66.5755
| 33> H 	 -119.239 	 65.1405 	 -67.4735
| 34> H 	 -119.924 	 64.9334 	 -65.8152
| 35> C 	 -119.309 	 63.153 	 -66.8689
| 36> H 	 -119.22 	 62.5612 	 -65.9791
| 37> H 	 -118.583 	 62.807 	 -67.6936
| 38> H 	 -120.422 	 62.9522 	 -67.1589
| 39> H 	 -116.101 	 59.2115 	 -66.8057
| 40> H 	 -115.345 	 67.2571 	 -69.1322
| 41> *
| 42>
| 43>                          ****END OF INPUT****

CARTESIAN COORDINATES (ANGSTROEM)
---------------------------------
  S    -115.626000   61.396600  -68.011700
  C    -115.904000   60.251200  -66.655200
  C    -115.711000   60.885800  -65.465300
  C    -115.571000   62.316400  -65.627000
  C    -115.701000   62.794100  -66.942900
  H    -115.502000   63.152800  -64.950700
  C    -115.703000   60.165100  -64.161000
  H    -114.647000   59.806300  -63.908300
  H    -116.269000   59.265000  -64.298600
  C    -116.339000   60.903100  -62.961000
  H    -115.698000   61.774100  -62.607600
  H    -117.255000   61.392900  -63.158800
  C    -116.597000   60.064000  -61.760000
  H    -117.026000   60.643900  -60.953200
  H    -117.344000   59.298300  -62.001800
  H    -115.686000   59.676600  -61.305700
  S    -114.816000   64.794200  -68.593200
  C    -115.574000   66.420800  -68.526200
  C    -116.575000   66.482700  -67.573300
  C    -116.727000   65.175900  -67.001000
  C    -115.843000   64.194000  -67.347100
  H    -117.180000   67.347300  -67.441800
  C    -117.825000   65.007400  -65.965200
  H    -117.978000   65.895300  -65.345100
  H    -117.509000   64.237100  -65.330700
  C    -119.119000   64.638400  -66.575500
  H    -119.239000   65.140500  -67.473500
  H    -119.924000   64.933400  -65.815200
  C    -119.309000   63.153000  -66.868900
  H    -119.220000   62.561200  -65.979100
  H    -118.583000   62.807000  -67.693600
  H    -120.422000   62.952200  -67.158900
  H    -116.101000   59.211500  -66.805700
  H    -115.345000   67.257100  -69.132200

 Total Charge           Charge          ....    0
 Multiplicity           Mult            ....    1
 Number of Electrons    NEL             ....  134
 Basis Dimension        Dim             ....  322

ORBITAL ENERGIES
----------------

  NO   OCC          E(Eh)            E(eV)
   0   2.0000     -88.965823     -2420.8831
   1   2.0000     -88.964858     -2420.8569
   2   2.0000     -10.335664      -281.2477
   3   2.0000     -10.326935      -281.0102
   4   2.0000     -10.321720      -280.8683
   5   2.0000     -10.317803      -280.7617
   6   2.0000     -10.307237      -280.4742
   7   2.0000     -10.301399      -280.3153
   8   2.0000     -10.298827      -280.2453
   9   2.0000     -10.298443      -280.2349
  10   2.0000     -10.296423      -280.1799
  11   2.0000     -10.286594      -279.9125
  12   2.0000     -10.278308      -279.6870
  13   2.0000     -10.276311      -279.6326
  14   2.0000     -10.275315      -279.6055
  15   2.0000     -10.274772      -279.5908
  16   2.0000      -8.080509      -219.8818
  17   2.0000      -8.078683      -219.8321
  18   2.0000      -6.039170      -164.3342
  19   2.0000      -6.037368      -164.2851
  20   2.0000      -6.034992      -164.2205
  21   2.0000      -6.033391      -164.1769
  22   2.0000      -6.031125      -164.1153
  23   2.0000      -6.029214      -164.0632
  24   2.0000      -1.007552       -27.4169
  25   2.0000      -0.984127       -26.7795
  26   2.0000      -0.916187       -24.9307
  27   2.0000      -0.913888       -24.8682
  28   2.0000      -0.877978       -23.8910
  29   2.0000      -0.848426       -23.0869
  30   2.0000      -0.843050       -22.9405
  31   2.0000      -0.819005       -22.2863
  32   2.0000      -0.781452       -21.2644
  33   2.0000      -0.770427       -20.9644
  34   2.0000      -0.712175       -19.3793
  35   2.0000      -0.694370       -18.8948
  36   2.0000      -0.688810       -18.7435
  37   2.0000      -0.666103       -18.1256
  38   2.0000      -0.649790       -17.6817
  39   2.0000      -0.615979       -16.7616
  40   2.0000      -0.601411       -16.3652
  41   2.0000      -0.577511       -15.7149
  42   2.0000      -0.569471       -15.4961
  43   2.0000      -0.550937       -14.9918
  44   2.0000      -0.539970       -14.6933
  45   2.0000      -0.527736       -14.3604
  46   2.0000      -0.516920       -14.0661
  47   2.0000      -0.511546       -13.9199
  48   2.0000      -0.510375       -13.8880
  49   2.0000      -0.503799       -13.7091
  50   2.0000      -0.494360       -13.4522
  51   2.0000      -0.482833       -13.1385
  52   2.0000      -0.472702       -12.8629
  53   2.0000      -0.470872       -12.8131
  54   2.0000      -0.456336       -12.4175
  55   2.0000      -0.445967       -12.1354
  56   2.0000      -0.439337       -11.9550
  57   2.0000      -0.432563       -11.7706
  58   2.0000      -0.424654       -11.5554
  59   2.0000      -0.422152       -11.4873
  60   2.0000      -0.417114       -11.3502
  61   2.0000      -0.412854       -11.2343
  62   2.0000      -0.401805       -10.9337
  63   2.0000      -0.350509        -9.5378
  64   2.0000      -0.331150        -9.0111
  65   2.0000      -0.327965        -8.9244
  66   2.0000      -0.295545        -8.0422
  67   0.0000       0.026812         0.7296
  68   0.0000       0.063175         1.7191
  69   0.0000       0.103440         2.8147
  70   0.0000       0.119737         3.2582
  71   0.0000       0.128691         3.5019

MULLIKEN ATOMIC CHARGES
-----------------------
   0 S :    0.096095
   1 C :   -0.123034
   2 C :   -0.052075
   3 C :    0.045595
   4 C :   -0.165737
   5 H :    0.016689
   6 C :    0.085932
   7 H :    0.055439
   8 H :    0.008781
   9 C :   -0.100400
  10 H :    0.032643
  11 H :    0.019293
  12 C :   -0.036684
  13 H :    0.024674
  14 H :    0.032258
  15 H :    0.027949
  16 S :    0.095003
  17 C :   -0.073352
  18 C :   -0.010562
  19 C :   -0.096425
  20 C :   -0.138311
  21 H :    0.019869
  22 C :    0.129235
  23 H :    0.020824
  24 H :   -0.022414
  25 C :   -0.051198
  26 H :    0.010756
  27 H :    0.028433
  28 C :   -0.086403
  29 H :    0.022550
  30 H :    0.057849
  31 H :    0.037933
  32 H :    0.045447
  33 H :    0.043350
Sum of atomic charges:   -0.0000000

LOEWDIN ATOMIC CHARGES
----------------------
   0 S :    0.374038
   1 C :   -0.169622
   2 C :   -0.062173
   3 C :   -0.060835
   4 C :   -0.186224
   5 H :    0.029753
   6 C :   -0.032164
   7 H :    0.045927
   8 H :    0.027433
   9 C :   -0.049672
  10 H :    0.029102
  11 H :    0.019389
  12 C :   -0.064494
  13 H :    0.027280
  14 H :    0.025387
  15 H :    0.023833
  16 S :    0.398231
  17 C :   -0.155681
  18 C :   -0.062195
  19 C :   -0.052790
  20 C :   -0.213824
  21 H :    0.032753
  22 C :   -0.031851
  23 H :    0.031366
  24 H :    0.016189
  25 C :   -0.040941
  26 H :    0.012715
  27 H :    0.029900
  28 C :   -0.073804
  29 H :    0.015893
  30 H :    0.034191
  31 H :    0.033967
  32 H :    0.026617
  33 H :    0.022307

  Mayer bond orders larger than 0.100000
B(  0-S ,  1-C ) :   1.1176 B(  0-S ,  4-C ) :   1.1307 B(  1-C ,  2-C ) :   1.6258
B(  1-C , 32-H ) :   0.9771 B(  2-C ,  3-C ) :   1.1848 B(  2-C ,  6-C ) :   1.0348
B(  3-C ,  4-C ) :   1.5951 B(  3-C ,  5-H ) :   0.9915 B(  4-C , 20-C ) :   1.0351
B(  6-C ,  7-H ) :   0.9253 B(  6-C ,  8-H ) :   0.9413 B(  6-C ,  9-C ) :   1.0609
B(  9-C , 10-H ) :   0.9440 B(  9-C , 11-H ) :   0.9584 B(  9-C , 12-C ) :   1.1092
B( 12-C , 13-H ) :   0.9692 B( 12-C , 14-H ) :   0.9717 B( 12-C , 15-H ) :   0.9717
B( 16-S , 17-C ) :   1.1544 B( 16-S , 20-C ) :   1.1129 B( 17-C , 18-C ) :   1.6133
B( 17-C , 33-H ) :   0.9704 B( 18-C , 19-C ) :   1.2269 B( 18-C , 21-H ) :   0.9969
B( 19-C , 20-C ) :   1.6291 B( 19-C , 22-C ) :   1.0424 B( 22-C , 23-H ) :   0.9343
B( 22-C , 24-H ) :   0.9213 B( 22-C , 25-C ) :   1.0714 B( 25-C , 26-H ) :   0.9526
B( 25-C , 27-H ) :   0.9513 B( 25-C , 28-C ) :   1.0938 B( 28-C , 29-H ) :   0.9726
B( 28-C , 30-H ) :   0.9672 B( 28-C , 31-H ) :   0.9720

Dispersion correction           -0.015418766
FINAL SINGLE POINT ENERGY     -1339.862718670019

DIPOLE MOMENT
-------------
                                X             Y             Z
Electronic contribution:     16.13429       6.65596     -23.41860
Nuclear contribution   :    -16.49970      -6.56760      24.07811
                        -----------------------------------------
Total Dipole Moment    :     -0.36541       0.08836       0.65952
                        -----------------------------------------
Magnitude (a.u.)       :      0.75914
Magnitude (Debye)      :      1.92959

Rotational constants in cm-1:     0.020477     0.008703     0.007432
Rotational constants in MHz :   613.890752   260.900395   222.794458

                             ****ORCA TERMINATED NORMALLY****
TOTAL RUN TIME: 0 days 0 hours 0 minutes 22 seconds 687 msec
