                         Program Version 4.2.1 -  RELEASE  -
|  1> ! wB97X-D3 SP def2-SVP
|  2> %pal
|  3> nprocs 24
|  4> end
|  5>
|  6> * xyz 0 1
|  7> S 	 -125.48 	 63.2444 	 -36.5607
|  8> C 	 -125.117 	 63.076 	 -38.2582
|  9> C 	 -125.849 	 63.9827 	 -39.0575
| 10> C 	 -126.516 	 64.9115 	 -38.2446
| 11> C 	 -126.431 	 64.7608 	 -36.9011
| 12> H 	 -127.192 	 65.6674 	 -38.6724
| 13> C 	 -125.987 	 63.8991 	 -40.5445
| 14> H 	 -127.006 	 64.2675 	 -40.7554
| 15> H 	 -126.092 	 62.9163 	 -40.7553
| 16> C 	 -124.967 	 64.7275 	 -41.2815
| 17> H 	 -125.157 	 64.9047 	 -42.3616
| 18> H 	 -125.158 	 65.7037 	 -40.7777
| 19> C 	 -123.502 	 64.3586 	 -41.174
| 20> H 	 -123.215 	 64.3052 	 -40.1672
| 21> H 	 -123.191 	 63.3749 	 -41.6459
| 22> H 	 -122.811 	 65.0479 	 -41.555
| 23> S 	 -127.223 	 64.6352 	 -34.2648
| 24> C 	 -128.195 	 65.9576 	 -33.6045
| 25> C 	 -128.403 	 66.9794 	 -34.5473
| 26> C 	 -127.823 	 66.6883 	 -35.7904
| 27> C 	 -127.17 	 65.4432 	 -35.8579
| 28> H 	 -128.993 	 67.8349 	 -34.2765
| 29> C 	 -127.705 	 67.767 	 -36.8463
| 30> H 	 -128.419 	 68.5967 	 -36.5283
| 31> H 	 -128.025 	 67.4832 	 -37.8099
| 32> C 	 -126.371 	 68.4359 	 -37.1057
| 33> H 	 -125.69 	 67.7655 	 -37.5524
| 34> H 	 -125.875 	 68.6703 	 -36.1651
| 35> C 	 -126.519 	 69.6656 	 -37.966
| 36> H 	 -127.014 	 69.4687 	 -38.8999
| 37> H 	 -125.551 	 70.1643 	 -38.1923
| 38> H 	 -127.19 	 70.4691 	 -37.5761
| 39> H 	 -124.539 	 62.2757 	 -38.6723
| 40> H 	 -128.572 	 66.1514 	 -32.5903
| 41> *
| 42>
| 43>                          ****END OF INPUT****

CARTESIAN COORDINATES (ANGSTROEM)
---------------------------------
  S    -125.480000   63.244400  -36.560700
  C    -125.117000   63.076000  -38.258200
  C    -125.849000   63.982700  -39.057500
  C    -126.516000   64.911500  -38.244600
  C    -126.431000   64.760800  -36.901100
  H    -127.192000   65.667400  -38.672400
  C    -125.987000   63.899100  -40.544500
  H    -127.006000   64.267500  -40.755400
  H    -126.092000   62.916300  -40.755300
  C    -124.967000   64.727500  -41.281500
  H    -125.157000   64.904700  -42.361600
  H    -125.158000   65.703700  -40.777700
  C    -123.502000   64.358600  -41.174000
  H    -123.215000   64.305200  -40.167200
  H    -123.191000   63.374900  -41.645900
  H    -122.811000   65.047900  -41.555000
  S    -127.223000   64.635200  -34.264800
  C    -128.195000   65.957600  -33.604500
  C    -128.403000   66.979400  -34.547300
  C    -127.823000   66.688300  -35.790400
  C    -127.170000   65.443200  -35.857900
  H    -128.993000   67.834900  -34.276500
  C    -127.705000   67.767000  -36.846300
  H    -128.419000   68.596700  -36.528300
  H    -128.025000   67.483200  -37.809900
  C    -126.371000   68.435900  -37.105700
  H    -125.690000   67.765500  -37.552400
  H    -125.875000   68.670300  -36.165100
  C    -126.519000   69.665600  -37.966000
  H    -127.014000   69.468700  -38.899900
  H    -125.551000   70.164300  -38.192300
  H    -127.190000   70.469100  -37.576100
  H    -124.539000   62.275700  -38.672300
  H    -128.572000   66.151400  -32.590300

 Total Charge           Charge          ....    0
 Multiplicity           Mult            ....    1
 Number of Electrons    NEL             ....  134
 Basis Dimension        Dim             ....  322

ORBITAL ENERGIES
----------------

  NO   OCC          E(Eh)            E(eV)
   0   2.0000     -88.972912     -2421.0760
   1   2.0000     -88.969417     -2420.9809
   2   2.0000     -10.335198      -281.2350
   3   2.0000     -10.334971      -281.2289
   4   2.0000     -10.322989      -280.9028
   5   2.0000     -10.317261      -280.7470
   6   2.0000     -10.305453      -280.4256
   7   2.0000     -10.300823      -280.2997
   8   2.0000     -10.295178      -280.1460
   9   2.0000     -10.293285      -280.0945
  10   2.0000     -10.291486      -280.0456
  11   2.0000     -10.291225      -280.0385
  12   2.0000     -10.285952      -279.8950
  13   2.0000     -10.279740      -279.7260
  14   2.0000     -10.278303      -279.6868
  15   2.0000     -10.270665      -279.4790
  16   2.0000      -8.086318      -220.0399
  17   2.0000      -8.083114      -219.9527
  18   2.0000      -6.044983      -164.4923
  19   2.0000      -6.041724      -164.4037
  20   2.0000      -6.041018      -164.3845
  21   2.0000      -6.037952      -164.3010
  22   2.0000      -6.036997      -164.2750
  23   2.0000      -6.033657      -164.1842
  24   2.0000      -1.004687       -27.3389
  25   2.0000      -0.981971       -26.7208
  26   2.0000      -0.919486       -25.0205
  27   2.0000      -0.913767       -24.8649
  28   2.0000      -0.869704       -23.6658
  29   2.0000      -0.857226       -23.3263
  30   2.0000      -0.848483       -23.0884
  31   2.0000      -0.817862       -22.2551
  32   2.0000      -0.787385       -21.4258
  33   2.0000      -0.772342       -21.0165
  34   2.0000      -0.714687       -19.4476
  35   2.0000      -0.704287       -19.1646
  36   2.0000      -0.695615       -18.9286
  37   2.0000      -0.665839       -18.1184
  38   2.0000      -0.643042       -17.4981
  39   2.0000      -0.627507       -17.0753
  40   2.0000      -0.598871       -16.2961
  41   2.0000      -0.575246       -15.6532
  42   2.0000      -0.565174       -15.3792
  43   2.0000      -0.548046       -14.9131
  44   2.0000      -0.545095       -14.8328
  45   2.0000      -0.520646       -14.1675
  46   2.0000      -0.519927       -14.1479
  47   2.0000      -0.512242       -13.9388
  48   2.0000      -0.504736       -13.7346
  49   2.0000      -0.497606       -13.5405
  50   2.0000      -0.490770       -13.3545
  51   2.0000      -0.484086       -13.1727
  52   2.0000      -0.473163       -12.8754
  53   2.0000      -0.465520       -12.6675
  54   2.0000      -0.457889       -12.4598
  55   2.0000      -0.453871       -12.3505
  56   2.0000      -0.444599       -12.0982
  57   2.0000      -0.440920       -11.9981
  58   2.0000      -0.437260       -11.8984
  59   2.0000      -0.424305       -11.5459
  60   2.0000      -0.418323       -11.3832
  61   2.0000      -0.415634       -11.3100
  62   2.0000      -0.409468       -11.1422
  63   2.0000      -0.364569        -9.9204
  64   2.0000      -0.341339        -9.2883
  65   2.0000      -0.330925        -9.0049
  66   2.0000      -0.275691        -7.5019
  67   0.0000       0.010601         0.2885
  68   0.0000       0.071166         1.9365
  69   0.0000       0.090232         2.4553
  70   0.0000       0.119827         3.2606
  71   0.0000       0.127858         3.4792

MULLIKEN ATOMIC CHARGES
-----------------------
   0 S :    0.092120
   1 C :   -0.098075
   2 C :   -0.149590
   3 C :   -0.018685
   4 C :   -0.079213
   5 H :    0.009424
   6 C :    0.146731
   7 H :    0.018583
   8 H :   -0.005522
   9 C :   -0.066073
  10 H :    0.037706
  11 H :    0.023296
  12 C :   -0.024742
  13 H :    0.013228
  14 H :    0.030311
  15 H :    0.020059
  16 S :    0.100265
  17 C :   -0.087468
  18 C :   -0.049764
  19 C :   -0.008754
  20 C :   -0.127783
  21 H :    0.018828
  22 C :    0.016023
  23 H :    0.019606
  24 H :    0.008970
  25 C :   -0.003948
  26 H :    0.018530
  27 H :    0.022588
  28 C :   -0.066818
  29 H :    0.015501
  30 H :    0.041724
  31 H :    0.027041
  32 H :    0.044209
  33 H :    0.061692
Sum of atomic charges:   -0.0000000

LOEWDIN ATOMIC CHARGES
----------------------
   0 S :    0.375642
   1 C :   -0.188780
   2 C :   -0.060340
   3 C :   -0.069924
   4 C :   -0.168313
   5 H :    0.034145
   6 C :   -0.024528
   7 H :    0.039872
   8 H :    0.013531
   9 C :   -0.042445
  10 H :    0.027276
  11 H :    0.031647
  12 C :   -0.068654
  13 H :    0.017392
  14 H :    0.030740
  15 H :    0.022251
  16 S :    0.391481
  17 C :   -0.187037
  18 C :   -0.067584
  19 C :   -0.061000
  20 C :   -0.176416
  21 H :    0.032607
  22 C :   -0.032198
  23 H :    0.035511
  24 H :    0.016650
  25 C :   -0.037769
  26 H :    0.019454
  27 H :    0.025611
  28 C :   -0.069437
  29 H :    0.019567
  30 H :    0.032329
  31 H :    0.027252
  32 H :    0.023949
  33 H :    0.037516

  Mayer bond orders larger than 0.100000
B(  0-S ,  1-C ) :   1.1470 B(  0-S ,  4-C ) :   1.1144 B(  1-C ,  2-C ) :   1.5839
B(  1-C ,  4-C ) :   0.1006 B(  1-C , 32-H ) :   0.9678 B(  2-C ,  3-C ) :   1.2785
B(  2-C ,  6-C ) :   1.0102 B(  3-C ,  4-C ) :   1.5677 B(  3-C ,  5-H ) :   0.9808
B(  4-C , 20-C ) :   1.1154 B(  6-C ,  7-H ) :   0.9356 B(  6-C ,  8-H ) :   0.9361
B(  6-C ,  9-C ) :   1.0529 B(  9-C , 10-H ) :   0.9583 B(  9-C , 11-H ) :   0.9502
B(  9-C , 12-C ) :   1.0887 B( 12-C , 13-H ) :   0.9673 B( 12-C , 14-H ) :   0.9724
B( 12-C , 15-H ) :   0.9696 B( 16-S , 17-C ) :   1.1529 B( 16-S , 20-C ) :   1.1228
B( 17-C , 18-C ) :   1.6021 B( 17-C , 20-C ) :   0.1048 B( 17-C , 33-H ) :   0.9604
B( 18-C , 19-C ) :   1.2733 B( 18-C , 21-H ) :   0.9885 B( 19-C , 20-C ) :   1.5504
B( 19-C , 22-C ) :   1.0451 B( 22-C , 23-H ) :   0.9383 B( 22-C , 24-H ) :   0.9283
B( 22-C , 25-C ) :   1.0642 B( 25-C , 26-H ) :   0.9444 B( 25-C , 27-H ) :   0.9497
B( 25-C , 28-C ) :   1.0852 B( 28-C , 29-H ) :   0.9716 B( 28-C , 30-H ) :   0.9723
B( 28-C , 31-H ) :   0.9730

Dispersion correction           -0.014435056
FINAL SINGLE POINT ENERGY     -1339.866523432161

DIPOLE MOMENT
-------------
                                X             Y             Z
Electronic contribution:     -5.49330     -17.43798      24.23727
Nuclear contribution   :      5.35516      17.85026     -24.72417
                        -----------------------------------------
Total Dipole Moment    :     -0.13814       0.41228      -0.48690
                        -----------------------------------------
Magnitude (a.u.)       :      0.65279
Magnitude (Debye)      :      1.65925

Rotational constants in cm-1:     0.018563     0.009364     0.006679
Rotational constants in MHz :   556.491254   280.740333   200.220520

                             ****ORCA TERMINATED NORMALLY****
TOTAL RUN TIME: 0 days 0 hours 0 minutes 21 seconds 66 msec
