                         Program Version 4.2.1 -  RELEASE  -
|  1> ! wB97X-D3 SP def2-SVP
|  2> %pal
|  3> nprocs 24
|  4> end
|  5>
|  6> * xyz 0 1
|  7> S 	 12.4761 	 -16.2205 	 -116.88
|  8> C 	 11.3937 	 -14.8812 	 -116.527
|  9> C 	 10.1326 	 -15.4002 	 -116.099
| 10> C 	 10.1732 	 -16.8118 	 -115.936
| 11> C 	 11.3592 	 -17.4355 	 -116.333
| 12> H 	 9.50905 	 -17.5412 	 -115.456
| 13> C 	 9.01839 	 -14.5213 	 -115.619
| 14> H 	 9.34171 	 -13.4756 	 -115.281
| 15> H 	 8.59218 	 -14.8779 	 -114.712
| 16> C 	 7.92431 	 -14.3845 	 -116.638
| 17> H 	 8.23601 	 -13.907 	 -117.493
| 18> H 	 7.52937 	 -15.2943 	 -117.018
| 19> C 	 6.69069 	 -13.5422 	 -116.22
| 20> H 	 5.74772 	 -13.7727 	 -116.71
| 21> H 	 6.51963 	 -13.7331 	 -115.14
| 22> H 	 6.82294 	 -12.4652 	 -116.361
| 23> S 	 10.4311 	 -20.0243 	 -116.426
| 24> C 	 11.4296 	 -21.3826 	 -115.871
| 25> C 	 12.7344 	 -20.9314 	 -115.932
| 26> C 	 12.8726 	 -19.5099 	 -116.172
| 27> C 	 11.6829 	 -18.8361 	 -116.223
| 28> H 	 13.5843 	 -21.5135 	 -115.612
| 29> C 	 14.2368 	 -18.9505 	 -115.874
| 30> H 	 14.3112 	 -17.9858 	 -116.351
| 31> H 	 15.0229 	 -19.6291 	 -116.226
| 32> C 	 14.5681 	 -18.8043 	 -114.425
| 33> H 	 15.6144 	 -18.4792 	 -114.3
| 34> H 	 14.4281 	 -19.764 	 -113.967
| 35> C 	 13.7261 	 -17.7164 	 -113.68
| 36> H 	 12.7074 	 -17.9729 	 -113.362
| 37> H 	 13.6006 	 -16.9105 	 -114.313
| 38> H 	 14.0887 	 -17.5047 	 -112.672
| 39> H 	 11.6157 	 -13.8809 	 -116.722
| 40> H 	 11.0558 	 -22.3938 	 -115.704
| 41> *
| 42>
| 43>                          ****END OF INPUT****

CARTESIAN COORDINATES (ANGSTROEM)
---------------------------------
  S     12.476100  -16.220500  -116.880000
  C     11.393700  -14.881200  -116.527000
  C     10.132600  -15.400200  -116.099000
  C     10.173200  -16.811800  -115.936000
  C     11.359200  -17.435500  -116.333000
  H      9.509050  -17.541200  -115.456000
  C      9.018390  -14.521300  -115.619000
  H      9.341710  -13.475600  -115.281000
  H      8.592180  -14.877900  -114.712000
  C      7.924310  -14.384500  -116.638000
  H      8.236010  -13.907000  -117.493000
  H      7.529370  -15.294300  -117.018000
  C      6.690690  -13.542200  -116.220000
  H      5.747720  -13.772700  -116.710000
  H      6.519630  -13.733100  -115.140000
  H      6.822940  -12.465200  -116.361000
  S     10.431100  -20.024300  -116.426000
  C     11.429600  -21.382600  -115.871000
  C     12.734400  -20.931400  -115.932000
  C     12.872600  -19.509900  -116.172000
  C     11.682900  -18.836100  -116.223000
  H     13.584300  -21.513500  -115.612000
  C     14.236800  -18.950500  -115.874000
  H     14.311200  -17.985800  -116.351000
  H     15.022900  -19.629100  -116.226000
  C     14.568100  -18.804300  -114.425000
  H     15.614400  -18.479200  -114.300000
  H     14.428100  -19.764000  -113.967000
  C     13.726100  -17.716400  -113.680000
  H     12.707400  -17.972900  -113.362000
  H     13.600600  -16.910500  -114.313000
  H     14.088700  -17.504700  -112.672000
  H     11.615700  -13.880900  -116.722000
  H     11.055800  -22.393800  -115.704000

 Total Charge           Charge          ....    0
 Multiplicity           Mult            ....    1
 Number of Electrons    NEL             ....  134
 Basis Dimension        Dim             ....  322

ORBITAL ENERGIES
----------------

  NO   OCC          E(Eh)            E(eV)
   0   2.0000     -88.972311     -2421.0597
   1   2.0000     -88.962311     -2420.7875
   2   2.0000     -10.333480      -281.1883
   3   2.0000     -10.329747      -281.0867
   4   2.0000     -10.324567      -280.9458
   5   2.0000     -10.321782      -280.8700
   6   2.0000     -10.312816      -280.6260
   7   2.0000     -10.300167      -280.2818
   8   2.0000     -10.299586      -280.2660
   9   2.0000     -10.297420      -280.2070
  10   2.0000     -10.295318      -280.1499
  11   2.0000     -10.284002      -279.8419
  12   2.0000     -10.281634      -279.7775
  13   2.0000     -10.277820      -279.6737
  14   2.0000     -10.273428      -279.5542
  15   2.0000     -10.262998      -279.2704
  16   2.0000      -8.086145      -220.0352
  17   2.0000      -8.077167      -219.7909
  18   2.0000      -6.044707      -164.4848
  19   2.0000      -6.040501      -164.3704
  20   2.0000      -6.037165      -164.2796
  21   2.0000      -6.035897      -164.2451
  22   2.0000      -6.031637      -164.1292
  23   2.0000      -6.027678      -164.0215
  24   2.0000      -1.011921       -27.5358
  25   2.0000      -0.986958       -26.8565
  26   2.0000      -0.917596       -24.9691
  27   2.0000      -0.913104       -24.8468
  28   2.0000      -0.874950       -23.8086
  29   2.0000      -0.851723       -23.1766
  30   2.0000      -0.839034       -22.8313
  31   2.0000      -0.817073       -22.2337
  32   2.0000      -0.784332       -21.3428
  33   2.0000      -0.774213       -21.0674
  34   2.0000      -0.710135       -19.3238
  35   2.0000      -0.706802       -19.2330
  36   2.0000      -0.693473       -18.8704
  37   2.0000      -0.676087       -18.3973
  38   2.0000      -0.643403       -17.5079
  39   2.0000      -0.616501       -16.7758
  40   2.0000      -0.599608       -16.3162
  41   2.0000      -0.576720       -15.6933
  42   2.0000      -0.562325       -15.3016
  43   2.0000      -0.554591       -15.0912
  44   2.0000      -0.544155       -14.8072
  45   2.0000      -0.527669       -14.3586
  46   2.0000      -0.523040       -14.2326
  47   2.0000      -0.517553       -14.0833
  48   2.0000      -0.514529       -14.0011
  49   2.0000      -0.504571       -13.7301
  50   2.0000      -0.495432       -13.4814
  51   2.0000      -0.480762       -13.0822
  52   2.0000      -0.469769       -12.7831
  53   2.0000      -0.465017       -12.6538
  54   2.0000      -0.455381       -12.3916
  55   2.0000      -0.445992       -12.1361
  56   2.0000      -0.445189       -12.1142
  57   2.0000      -0.432637       -11.7726
  58   2.0000      -0.428788       -11.6679
  59   2.0000      -0.424425       -11.5492
  60   2.0000      -0.416091       -11.3224
  61   2.0000      -0.408565       -11.1176
  62   2.0000      -0.403177       -10.9710
  63   2.0000      -0.361540        -9.8380
  64   2.0000      -0.335191        -9.1210
  65   2.0000      -0.327004        -8.8982
  66   2.0000      -0.287472        -7.8225
  67   0.0000       0.012531         0.3410
  68   0.0000       0.079456         2.1621
  69   0.0000       0.111745         3.0407
  70   0.0000       0.115627         3.1464
  71   0.0000       0.126573         3.4442

MULLIKEN ATOMIC CHARGES
-----------------------
   0 S :    0.093161
   1 C :   -0.087559
   2 C :   -0.046984
   3 C :   -0.002312
   4 C :   -0.132746
   5 H :    0.023826
   6 C :    0.059655
   7 H :    0.030908
   8 H :    0.015043
   9 C :   -0.028201
  10 H :    0.002133
  11 H :    0.018075
  12 C :   -0.070933
  13 H :    0.033720
  14 H :    0.022053
  15 H :    0.033443
  16 S :    0.080094
  17 C :   -0.094459
  18 C :   -0.032870
  19 C :   -0.050776
  20 C :   -0.114783
  21 H :    0.024593
  22 C :    0.037995
  23 H :    0.021132
  24 H :    0.027256
  25 C :   -0.041882
  26 H :    0.036721
  27 H :    0.013188
  28 C :   -0.032831
  29 H :    0.022326
  30 H :    0.010118
  31 H :    0.024353
  32 H :    0.036007
  33 H :    0.070535
Sum of atomic charges:   -0.0000000

LOEWDIN ATOMIC CHARGES
----------------------
   0 S :    0.430994
   1 C :   -0.180392
   2 C :   -0.052405
   3 C :   -0.066979
   4 C :   -0.194658
   5 H :    0.032933
   6 C :   -0.031867
   7 H :    0.039080
   8 H :    0.025765
   9 C :   -0.037992
  10 H :    0.014340
  11 H :    0.022669
  12 C :   -0.068361
  13 H :    0.026458
  14 H :    0.023407
  15 H :    0.023217
  16 S :    0.395164
  17 C :   -0.174863
  18 C :   -0.063623
  19 C :   -0.066531
  20 C :   -0.191171
  21 H :    0.028536
  22 C :   -0.039742
  23 H :    0.012292
  24 H :    0.036153
  25 C :   -0.031632
  26 H :    0.029124
  27 H :    0.017071
  28 C :   -0.069251
  29 H :    0.027043
  30 H :    0.004601
  31 H :    0.027044
  32 H :    0.017909
  33 H :    0.035665

  Mayer bond orders larger than 0.100000
B(  0-S ,  1-C ) :   1.1514 B(  0-S ,  4-C ) :   1.1493 B(  1-C ,  2-C ) :   1.5556
B(  1-C ,  4-C ) :   0.1008 B(  1-C , 32-H ) :   0.9825 B(  2-C ,  3-C ) :   1.2516
B(  2-C ,  6-C ) :   1.0334 B(  3-C ,  4-C ) :   1.5410 B(  3-C ,  5-H ) :   0.9864
B(  4-C , 20-C ) :   1.0921 B(  6-C ,  7-H ) :   0.9475 B(  6-C ,  8-H ) :   0.9382
B(  6-C ,  9-C ) :   1.0591 B(  9-C , 10-H ) :   0.9526 B(  9-C , 11-H ) :   0.9572
B(  9-C , 12-C ) :   1.0728 B( 12-C , 13-H ) :   0.9768 B( 12-C , 14-H ) :   0.9761
B( 12-C , 15-H ) :   0.9787 B( 16-S , 17-C ) :   1.1313 B( 16-S , 20-C ) :   1.1302
B( 17-C , 18-C ) :   1.5999 B( 17-C , 33-H ) :   0.9739 B( 18-C , 19-C ) :   1.2226
B( 18-C , 21-H ) :   0.9883 B( 19-C , 20-C ) :   1.5756 B( 19-C , 22-C ) :   1.0669
B( 22-C , 23-H ) :   0.9309 B( 22-C , 24-H ) :   0.9255 B( 22-C , 25-C ) :   1.0866
B( 25-C , 26-H ) :   0.9538 B( 25-C , 27-H ) :   0.9492 B( 25-C , 28-C ) :   1.0726
B( 28-C , 29-H ) :   0.9702 B( 28-C , 30-H ) :   0.9746 B( 28-C , 31-H ) :   0.9722

Dispersion correction           -0.014964587
FINAL SINGLE POINT ENERGY     -1339.861839641584

DIPOLE MOMENT
-------------
                                X             Y             Z
Electronic contribution:      4.89619     -13.17871      -9.77656
Nuclear contribution   :     -4.87809      13.28858      10.09986
                        -----------------------------------------
Total Dipole Moment    :      0.01809       0.10987       0.32330
                        -----------------------------------------
Magnitude (a.u.)       :      0.34193
Magnitude (Debye)      :      0.86912

Rotational constants in cm-1:     0.023807     0.007966     0.006641
Rotational constants in MHz :   713.709768   238.802005   199.084870

                             ****ORCA TERMINATED NORMALLY****
TOTAL RUN TIME: 0 days 0 hours 0 minutes 22 seconds 173 msec
