                         Program Version 4.2.1 -  RELEASE  -
|  1> ! wB97X-D3 SP def2-SVP
|  2> %pal
|  3> nprocs 24
|  4> end
|  5>
|  6> * xyz 0 1
|  7> S 	 -62.2723 	 -4.53688 	 -29.8572
|  8> C 	 -63.1036 	 -3.87398 	 -31.2782
|  9> C 	 -64.2002 	 -3.04494 	 -30.9429
| 10> C 	 -64.429 	 -3.05738 	 -29.5089
| 11> C 	 -63.4434 	 -3.72619 	 -28.7972
| 12> H 	 -65.1934 	 -2.43859 	 -29.0079
| 13> C 	 -65.1222 	 -2.43642 	 -31.9595
| 14> H 	 -64.6033 	 -1.7403 	 -32.5969
| 15> H 	 -65.791 	 -1.86643 	 -31.2755
| 16> C 	 -65.9845 	 -3.47464 	 -32.6879
| 17> H 	 -65.3717 	 -4.22366 	 -33.1267
| 18> H 	 -66.7206 	 -3.95264 	 -32.12
| 19> C 	 -66.66 	 -2.70532 	 -33.8869
| 20> H 	 -67.4383 	 -1.93167 	 -33.6426
| 21> H 	 -65.8513 	 -2.17062 	 -34.3935
| 22> H 	 -67.1803 	 -3.44279 	 -34.5148
| 23> S 	 -63.1783 	 -5.56491 	 -26.6919
| 24> C 	 -63.1617 	 -4.98931 	 -25.0668
| 25> C 	 -63.3346 	 -3.63711 	 -25.013
| 26> C 	 -63.3435 	 -2.99096 	 -26.3625
| 27> C 	 -63.3849 	 -3.92933 	 -27.3675
| 28> H 	 -63.1291 	 -3.24312 	 -24.0052
| 29> C 	 -63.2836 	 -1.54635 	 -26.6723
| 30> H 	 -63.6302 	 -0.933251 	 -25.8648
| 31> H 	 -64.0541 	 -1.29107 	 -27.4732
| 32> C 	 -61.9134 	 -0.957301 	 -27.0266
| 33> H 	 -61.9923 	 0.133906 	 -27.0559
| 34> H 	 -61.7401 	 -1.38124 	 -28.0275
| 35> C 	 -60.8359 	 -1.41642 	 -26.0926
| 36> H 	 -61.0316 	 -1.01316 	 -25.0735
| 37> H 	 -59.8754 	 -1.12722 	 -26.5342
| 38> H 	 -60.7564 	 -2.49706 	 -26.1777
| 39> H 	 -62.6824 	 -3.92584 	 -32.2407
| 40> H 	 -63.053 	 -5.49556 	 -24.1197
| 41> *
| 42>
| 43>                          ****END OF INPUT****

CARTESIAN COORDINATES (ANGSTROEM)
---------------------------------
  S    -62.272300   -4.536880  -29.857200
  C    -63.103600   -3.873980  -31.278200
  C    -64.200200   -3.044940  -30.942900
  C    -64.429000   -3.057380  -29.508900
  C    -63.443400   -3.726190  -28.797200
  H    -65.193400   -2.438590  -29.007900
  C    -65.122200   -2.436420  -31.959500
  H    -64.603300   -1.740300  -32.596900
  H    -65.791000   -1.866430  -31.275500
  C    -65.984500   -3.474640  -32.687900
  H    -65.371700   -4.223660  -33.126700
  H    -66.720600   -3.952640  -32.120000
  C    -66.660000   -2.705320  -33.886900
  H    -67.438300   -1.931670  -33.642600
  H    -65.851300   -2.170620  -34.393500
  H    -67.180300   -3.442790  -34.514800
  S    -63.178300   -5.564910  -26.691900
  C    -63.161700   -4.989310  -25.066800
  C    -63.334600   -3.637110  -25.013000
  C    -63.343500   -2.990960  -26.362500
  C    -63.384900   -3.929330  -27.367500
  H    -63.129100   -3.243120  -24.005200
  C    -63.283600   -1.546350  -26.672300
  H    -63.630200   -0.933251  -25.864800
  H    -64.054100   -1.291070  -27.473200
  C    -61.913400   -0.957301  -27.026600
  H    -61.992300    0.133906  -27.055900
  H    -61.740100   -1.381240  -28.027500
  C    -60.835900   -1.416420  -26.092600
  H    -61.031600   -1.013160  -25.073500
  H    -59.875400   -1.127220  -26.534200
  H    -60.756400   -2.497060  -26.177700
  H    -62.682400   -3.925840  -32.240700
  H    -63.053000   -5.495560  -24.119700

 Total Charge           Charge          ....    0
 Multiplicity           Mult            ....    1
 Number of Electrons    NEL             ....  134
 Basis Dimension        Dim             ....  322

ORBITAL ENERGIES
----------------

  NO   OCC          E(Eh)            E(eV)
   0   2.0000     -88.970272     -2421.0042
   1   2.0000     -88.963819     -2420.8286
   2   2.0000     -10.333230      -281.1815
   3   2.0000     -10.325575      -280.9732
   4   2.0000     -10.315095      -280.6880
   5   2.0000     -10.313729      -280.6508
   6   2.0000     -10.307273      -280.4752
   7   2.0000     -10.306255      -280.4475
   8   2.0000     -10.302371      -280.3418
   9   2.0000     -10.296450      -280.1806
  10   2.0000     -10.295127      -280.1447
  11   2.0000     -10.285072      -279.8710
  12   2.0000     -10.284564      -279.8572
  13   2.0000     -10.283950      -279.8405
  14   2.0000     -10.278966      -279.7049
  15   2.0000     -10.272178      -279.5202
  16   2.0000      -8.083970      -219.9760
  17   2.0000      -8.078489      -219.8269
  18   2.0000      -6.042495      -164.4247
  19   2.0000      -6.038619      -164.3192
  20   2.0000      -6.037211      -164.2809
  21   2.0000      -6.034791      -164.2150
  22   2.0000      -6.032992      -164.1661
  23   2.0000      -6.029026      -164.0581
  24   2.0000      -1.002956       -27.2918
  25   2.0000      -0.977899       -26.6100
  26   2.0000      -0.915365       -24.9083
  27   2.0000      -0.912991       -24.8438
  28   2.0000      -0.869847       -23.6698
  29   2.0000      -0.850027       -23.1304
  30   2.0000      -0.839850       -22.8535
  31   2.0000      -0.815624       -22.1943
  32   2.0000      -0.780903       -21.2495
  33   2.0000      -0.768245       -20.9050
  34   2.0000      -0.710046       -19.3213
  35   2.0000      -0.707982       -19.2652
  36   2.0000      -0.682090       -18.5606
  37   2.0000      -0.655489       -17.8368
  38   2.0000      -0.641605       -17.4590
  39   2.0000      -0.620397       -16.8819
  40   2.0000      -0.587775       -15.9942
  41   2.0000      -0.568412       -15.4673
  42   2.0000      -0.566003       -15.4017
  43   2.0000      -0.558273       -15.1914
  44   2.0000      -0.543057       -14.7773
  45   2.0000      -0.527008       -14.3406
  46   2.0000      -0.514625       -14.0037
  47   2.0000      -0.513279       -13.9670
  48   2.0000      -0.503864       -13.7108
  49   2.0000      -0.501255       -13.6399
  50   2.0000      -0.485040       -13.1986
  51   2.0000      -0.473986       -12.8978
  52   2.0000      -0.471101       -12.8193
  53   2.0000      -0.460159       -12.5216
  54   2.0000      -0.457320       -12.4443
  55   2.0000      -0.451767       -12.2932
  56   2.0000      -0.448214       -12.1965
  57   2.0000      -0.435630       -11.8541
  58   2.0000      -0.427774       -11.6403
  59   2.0000      -0.420772       -11.4498
  60   2.0000      -0.419836       -11.4243
  61   2.0000      -0.416997       -11.3471
  62   2.0000      -0.403201       -10.9717
  63   2.0000      -0.349108        -9.4997
  64   2.0000      -0.332029        -9.0350
  65   2.0000      -0.325805        -8.8656
  66   2.0000      -0.292223        -7.9518
  67   0.0000       0.026879         0.7314
  68   0.0000       0.068257         1.8574
  69   0.0000       0.103496         2.8163
  70   0.0000       0.117677         3.2022
  71   0.0000       0.130564         3.5528

MULLIKEN ATOMIC CHARGES
-----------------------
   0 S :    0.112124
   1 C :   -0.109098
   2 C :   -0.109748
   3 C :    0.031845
   4 C :   -0.164542
   5 H :    0.035519
   6 C :    0.057096
   7 H :    0.035518
   8 H :    0.019600
   9 C :   -0.024257
  10 H :    0.025130
  11 H :    0.025601
  12 C :   -0.079975
  13 H :    0.039213
  14 H :    0.028750
  15 H :    0.037896
  16 S :    0.104543
  17 C :   -0.088160
  18 C :   -0.036645
  19 C :   -0.064771
  20 C :   -0.147722
  21 H :    0.030872
  22 C :    0.055274
  23 H :    0.003589
  24 H :    0.026018
  25 C :   -0.073912
  26 H :    0.033274
  27 H :    0.030710
  28 C :   -0.036222
  29 H :    0.039042
  30 H :    0.028280
  31 H :    0.041596
  32 H :    0.038363
  33 H :    0.055195
Sum of atomic charges:    0.0000000

LOEWDIN ATOMIC CHARGES
----------------------
   0 S :    0.390441
   1 C :   -0.185756
   2 C :   -0.057764
   3 C :   -0.060568
   4 C :   -0.185645
   5 H :    0.036213
   6 C :   -0.032814
   7 H :    0.030276
   8 H :    0.035667
   9 C :   -0.021227
  10 H :    0.020558
  11 H :    0.020397
  12 C :   -0.069639
  13 H :    0.027903
  14 H :    0.022250
  15 H :    0.025118
  16 S :    0.392498
  17 C :   -0.193044
  18 C :   -0.080365
  19 C :   -0.051570
  20 C :   -0.193785
  21 H :    0.036173
  22 C :   -0.046596
  23 H :    0.022159
  24 H :    0.037032
  25 C :   -0.038357
  26 H :    0.024028
  27 H :    0.024992
  28 C :   -0.067332
  29 H :    0.028002
  30 H :    0.028837
  31 H :    0.029800
  32 H :    0.015849
  33 H :    0.036270

  Mayer bond orders larger than 0.100000
B(  0-S ,  1-C ) :   1.1363 B(  0-S ,  4-C ) :   1.1420 B(  1-C ,  2-C ) :   1.5958
B(  1-C ,  4-C ) :   0.1010 B(  1-C , 32-H ) :   0.9723 B(  2-C ,  3-C ) :   1.2519
B(  2-C ,  6-C ) :   1.0217 B(  3-C ,  4-C ) :   1.5839 B(  3-C ,  5-H ) :   0.9721
B(  4-C , 20-C ) :   1.0583 B(  6-C ,  7-H ) :   0.9416 B(  6-C ,  8-H ) :   0.9378
B(  6-C ,  9-C ) :   1.0662 B(  9-C , 10-H ) :   0.9602 B(  9-C , 11-H ) :   0.9560
B(  9-C , 12-C ) :   1.0700 B( 12-C , 13-H ) :   0.9776 B( 12-C , 14-H ) :   0.9778
B( 12-C , 15-H ) :   0.9755 B( 16-S , 17-C ) :   1.1379 B( 16-S , 20-C ) :   1.1080
B( 17-C , 18-C ) :   1.6815 B( 17-C , 33-H ) :   0.9607 B( 18-C , 19-C ) :   1.1835
B( 18-C , 21-H ) :   0.9785 B( 19-C , 20-C ) :   1.6240 B( 19-C , 22-C ) :   1.0623
B( 22-C , 23-H ) :   0.9246 B( 22-C , 24-H ) :   0.9289 B( 22-C , 25-C ) :   1.0629
B( 25-C , 26-H ) :   0.9562 B( 25-C , 27-H ) :   0.9521 B( 25-C , 28-C ) :   1.0956
B( 28-C , 29-H ) :   0.9743 B( 28-C , 30-H ) :   0.9683 B( 28-C , 31-H ) :   0.9625

Dispersion correction           -0.014866181
FINAL SINGLE POINT ENERGY     -1339.870380693385

DIPOLE MOMENT
-------------
                                X             Y             Z
Electronic contribution:      6.81483     -18.23650      10.30939
Nuclear contribution   :     -6.97503      18.75827     -10.43190
                        -----------------------------------------
Total Dipole Moment    :     -0.16020       0.52178      -0.12252
                        -----------------------------------------
Magnitude (a.u.)       :      0.55940
Magnitude (Debye)      :      1.42187

Rotational constants in cm-1:     0.023861     0.007398     0.006730
Rotational constants in MHz :   715.339445   221.789225   201.767886

                             ****ORCA TERMINATED NORMALLY****
TOTAL RUN TIME: 0 days 0 hours 0 minutes 20 seconds 870 msec
