                         Program Version 4.2.1 -  RELEASE  -
|  1> ! wB97X-D3 SP def2-SVP
|  2> %pal
|  3> nprocs 24
|  4> end
|  5>
|  6> * xyz 0 1
|  7> S 	 -62.508 	 20.5855 	 22.2675
|  8> C 	 -63.1499 	 19.5178 	 23.4613
|  9> C 	 -62.2092 	 19.0673 	 24.3049
| 10> C 	 -60.8927 	 19.4503 	 23.9129
| 11> C 	 -60.8309 	 20.2864 	 22.8745
| 12> H 	 -59.9648 	 19.3297 	 24.4891
| 13> C 	 -62.5183 	 18.273 	 25.5143
| 14> H 	 -63.6253 	 18.2614 	 25.5628
| 15> H 	 -62.0621 	 18.8397 	 26.3694
| 16> C 	 -61.9988 	 16.8308 	 25.5062
| 17> H 	 -62.6367 	 16.2713 	 24.8551
| 18> H 	 -60.9926 	 16.7759 	 25.2179
| 19> C 	 -61.9598 	 16.1409 	 26.9161
| 20> H 	 -62.9931 	 16.0966 	 27.2746
| 21> H 	 -61.3549 	 15.2648 	 27.0461
| 22> H 	 -61.5114 	 16.9036 	 27.5244
| 23> S 	 -59.8147 	 20.7749 	 20.3917
| 24> C 	 -58.2138 	 21.5455 	 20.1908
| 25> C 	 -57.7073 	 21.8461 	 21.4372
| 26> C 	 -58.5203 	 21.4524 	 22.5162
| 27> C 	 -59.7487 	 20.8878 	 22.1463
| 28> H 	 -56.7555 	 22.3637 	 21.3896
| 29> C 	 -58.1169 	 21.6325 	 23.9605
| 30> H 	 -58.9083 	 21.6564 	 24.6816
| 31> H 	 -57.7968 	 22.6981 	 23.9812
| 32> C 	 -56.9313 	 20.7139 	 24.3195
| 33> H 	 -56.0312 	 21.1171 	 23.8215
| 34> H 	 -57.2019 	 19.7472 	 23.7776
| 35> C 	 -56.8287 	 20.4566 	 25.8055
| 36> H 	 -56.7634 	 21.2548 	 26.5258
| 37> H 	 -56.2199 	 19.5941 	 26.1295
| 38> H 	 -57.7247 	 19.9802 	 26.0216
| 39> H 	 -64.1607 	 19.2007 	 23.5641
| 40> H 	 -57.6631 	 21.7314 	 19.2582
| 41> *
| 42>
| 43>                          ****END OF INPUT****

CARTESIAN COORDINATES (ANGSTROEM)
---------------------------------
  S    -62.508000   20.585500   22.267500
  C    -63.149900   19.517800   23.461300
  C    -62.209200   19.067300   24.304900
  C    -60.892700   19.450300   23.912900
  C    -60.830900   20.286400   22.874500
  H    -59.964800   19.329700   24.489100
  C    -62.518300   18.273000   25.514300
  H    -63.625300   18.261400   25.562800
  H    -62.062100   18.839700   26.369400
  C    -61.998800   16.830800   25.506200
  H    -62.636700   16.271300   24.855100
  H    -60.992600   16.775900   25.217900
  C    -61.959800   16.140900   26.916100
  H    -62.993100   16.096600   27.274600
  H    -61.354900   15.264800   27.046100
  H    -61.511400   16.903600   27.524400
  S    -59.814700   20.774900   20.391700
  C    -58.213800   21.545500   20.190800
  C    -57.707300   21.846100   21.437200
  C    -58.520300   21.452400   22.516200
  C    -59.748700   20.887800   22.146300
  H    -56.755500   22.363700   21.389600
  C    -58.116900   21.632500   23.960500
  H    -58.908300   21.656400   24.681600
  H    -57.796800   22.698100   23.981200
  C    -56.931300   20.713900   24.319500
  H    -56.031200   21.117100   23.821500
  H    -57.201900   19.747200   23.777600
  C    -56.828700   20.456600   25.805500
  H    -56.763400   21.254800   26.525800
  H    -56.219900   19.594100   26.129500
  H    -57.724700   19.980200   26.021600
  H    -64.160700   19.200700   23.564100
  H    -57.663100   21.731400   19.258200

 Total Charge           Charge          ....    0
 Multiplicity           Mult            ....    1
 Number of Electrons    NEL             ....  134
 Basis Dimension        Dim             ....  322

ORBITAL ENERGIES
----------------

  NO   OCC          E(Eh)            E(eV)
   0   2.0000     -88.964893     -2420.8578
   1   2.0000     -88.960790     -2420.7462
   2   2.0000     -10.330189      -281.0987
   3   2.0000     -10.328940      -281.0648
   4   2.0000     -10.323429      -280.9148
   5   2.0000     -10.306677      -280.4589
   6   2.0000     -10.306080      -280.4427
   7   2.0000     -10.296302      -280.1766
   8   2.0000     -10.296122      -280.1717
   9   2.0000     -10.295627      -280.1582
  10   2.0000     -10.292998      -280.0867
  11   2.0000     -10.292473      -280.0724
  12   2.0000     -10.290622      -280.0221
  13   2.0000     -10.281448      -279.7724
  14   2.0000     -10.276273      -279.6316
  15   2.0000     -10.275452      -279.6093
  16   2.0000      -8.078886      -219.8377
  17   2.0000      -8.075597      -219.7482
  18   2.0000      -6.037467      -164.2878
  19   2.0000      -6.034238      -164.2000
  20   2.0000      -6.033393      -164.1770
  21   2.0000      -6.030218      -164.0906
  22   2.0000      -6.029663      -164.0755
  23   2.0000      -6.026073      -163.9778
  24   2.0000      -1.010675       -27.5019
  25   2.0000      -0.987388       -26.8682
  26   2.0000      -0.915725       -24.9181
  27   2.0000      -0.912364       -24.8267
  28   2.0000      -0.877423       -23.8759
  29   2.0000      -0.854228       -23.2447
  30   2.0000      -0.846618       -23.0376
  31   2.0000      -0.826589       -22.4926
  32   2.0000      -0.783084       -21.3088
  33   2.0000      -0.771079       -20.9821
  34   2.0000      -0.715563       -19.4715
  35   2.0000      -0.702623       -19.1193
  36   2.0000      -0.698892       -19.0178
  37   2.0000      -0.661418       -17.9981
  38   2.0000      -0.646605       -17.5950
  39   2.0000      -0.623716       -16.9722
  40   2.0000      -0.597462       -16.2578
  41   2.0000      -0.571444       -15.5498
  42   2.0000      -0.570308       -15.5189
  43   2.0000      -0.562957       -15.3188
  44   2.0000      -0.534675       -14.5492
  45   2.0000      -0.527144       -14.3443
  46   2.0000      -0.518152       -14.0996
  47   2.0000      -0.515755       -14.0344
  48   2.0000      -0.509422       -13.8621
  49   2.0000      -0.504548       -13.7294
  50   2.0000      -0.501076       -13.6350
  51   2.0000      -0.482568       -13.1313
  52   2.0000      -0.474074       -12.9002
  53   2.0000      -0.461940       -12.5700
  54   2.0000      -0.460699       -12.5363
  55   2.0000      -0.450315       -12.2537
  56   2.0000      -0.445516       -12.1231
  57   2.0000      -0.434186       -11.8148
  58   2.0000      -0.429271       -11.6811
  59   2.0000      -0.429049       -11.6750
  60   2.0000      -0.424389       -11.5482
  61   2.0000      -0.413402       -11.2492
  62   2.0000      -0.405768       -11.0415
  63   2.0000      -0.357736        -9.7345
  64   2.0000      -0.332142        -9.0380
  65   2.0000      -0.327808        -8.9201
  66   2.0000      -0.292412        -7.9569
  67   0.0000       0.026463         0.7201
  68   0.0000       0.073830         2.0090
  69   0.0000       0.106073         2.8864
  70   0.0000       0.120156         3.2696
  71   0.0000       0.124598         3.3905

MULLIKEN ATOMIC CHARGES
-----------------------
   0 S :    0.090668
   1 C :   -0.097715
   2 C :   -0.094733
   3 C :    0.031937
   4 C :   -0.142795
   5 H :    0.009740
   6 C :    0.054827
   7 H :    0.018273
   8 H :    0.036870
   9 C :   -0.055106
  10 H :    0.025639
  11 H :    0.018890
  12 C :   -0.032820
  13 H :    0.027685
  14 H :    0.044057
  15 H :    0.006914
  16 S :    0.097306
  17 C :   -0.106584
  18 C :   -0.044697
  19 C :   -0.030027
  20 C :   -0.128845
  21 H :    0.022734
  22 C :    0.052965
  23 H :    0.017198
  24 H :    0.028903
  25 C :   -0.092147
  26 H :    0.039069
  27 H :    0.046038
  28 C :    0.006668
  29 H :    0.036090
  30 H :    0.028199
  31 H :   -0.013862
  32 H :    0.030624
  33 H :    0.068038
Sum of atomic charges:   -0.0000000

LOEWDIN ATOMIC CHARGES
----------------------
   0 S :    0.377263
   1 C :   -0.191876
   2 C :   -0.072273
   3 C :   -0.065283
   4 C :   -0.163939
   5 H :    0.034773
   6 C :   -0.030435
   7 H :    0.032172
   8 H :    0.036399
   9 C :   -0.031439
  10 H :    0.020325
  11 H :    0.015969
  12 C :   -0.063339
  13 H :    0.025226
  14 H :    0.025589
  15 H :    0.019237
  16 S :    0.391575
  17 C :   -0.174686
  18 C :   -0.076089
  19 C :   -0.055639
  20 C :   -0.198558
  21 H :    0.036048
  22 C :   -0.036444
  23 H :    0.023098
  24 H :    0.036406
  25 C :   -0.040463
  26 H :    0.023856
  27 H :    0.034376
  28 C :   -0.074655
  29 H :    0.026047
  30 H :    0.034604
  31 H :    0.018441
  32 H :    0.025179
  33 H :    0.038534

  Mayer bond orders larger than 0.100000
B(  0-S ,  1-C ) :   1.1195 B(  0-S ,  4-C ) :   1.1141 B(  1-C ,  2-C ) :   1.6645
B(  1-C , 32-H ) :   0.9621 B(  2-C ,  3-C ) :   1.1870 B(  2-C ,  6-C ) :   1.0390
B(  3-C ,  4-C ) :   1.6479 B(  3-C ,  5-H ) :   0.9861 B(  4-C , 20-C ) :   1.0436
B(  6-C ,  7-H ) :   0.9357 B(  6-C ,  8-H ) :   0.9310 B(  6-C ,  9-C ) :   1.0647
B(  9-C , 10-H ) :   0.9561 B(  9-C , 11-H ) :   0.9624 B(  9-C , 12-C ) :   1.0708
B( 12-C , 13-H ) :   0.9759 B( 12-C , 14-H ) :   0.9770 B( 12-C , 15-H ) :   0.9747
B( 16-S , 17-C ) :   1.1476 B( 16-S , 20-C ) :   1.1373 B( 17-C , 18-C ) :   1.6133
B( 17-C , 20-C ) :   0.1082 B( 17-C , 33-H ) :   0.9647 B( 18-C , 19-C ) :   1.2327
B( 18-C , 21-H ) :   0.9929 B( 19-C , 20-C ) :   1.5743 B( 19-C , 22-C ) :   1.0503
B( 22-C , 23-H ) :   0.9490 B( 22-C , 24-H ) :   0.9251 B( 22-C , 25-C ) :   1.0288
B( 25-C , 26-H ) :   0.9548 B( 25-C , 27-H ) :   0.9622 B( 25-C , 28-C ) :   1.0781
B( 28-C , 29-H ) :   0.9738 B( 28-C , 30-H ) :   0.9658 B( 28-C , 31-H ) :   0.9626

Dispersion correction           -0.014026365
FINAL SINGLE POINT ENERGY     -1339.864313825749

DIPOLE MOMENT
-------------
                                X             Y             Z
Electronic contribution:     -9.25546      12.55321     -27.10705
Nuclear contribution   :      9.67396     -12.67803      27.67452
                        -----------------------------------------
Total Dipole Moment    :      0.41850      -0.12482       0.56747
                        -----------------------------------------
Magnitude (a.u.)       :      0.71606
Magnitude (Debye)      :      1.82008

Rotational constants in cm-1:     0.017387     0.009089     0.006502
Rotational constants in MHz :   521.245653   272.474260   194.921110

                             ****ORCA TERMINATED NORMALLY****
TOTAL RUN TIME: 0 days 0 hours 0 minutes 21 seconds 752 msec
