                         Program Version 4.2.1 -  RELEASE  -
|  1> ! wB97X-D3 SP def2-SVP
|  2> %pal
|  3> nprocs 24
|  4> end
|  5>
|  6> * xyz 0 1
|  7> S 	 -66.0004 	 21.5346 	 -73.9593
|  8> C 	 -65.4008 	 19.9863 	 -74.4834
|  9> C 	 -65.4218 	 18.9731 	 -73.5043
| 10> C 	 -65.9445 	 19.5625 	 -72.2521
| 11> C 	 -66.2053 	 20.9129 	 -72.2992
| 12> H 	 -66.0325 	 19.0703 	 -71.2861
| 13> C 	 -65.0083 	 17.4375 	 -73.6268
| 14> H 	 -64.1668 	 17.2626 	 -72.9218
| 15> H 	 -64.5825 	 17.2165 	 -74.5583
| 16> C 	 -66.2064 	 16.4535 	 -73.461
| 17> H 	 -66.6367 	 16.622 	 -72.4256
| 18> H 	 -67.0133 	 16.6962 	 -74.1497
| 19> C 	 -65.8871 	 14.9589 	 -73.4573
| 20> H 	 -65.1393 	 14.7732 	 -72.6892
| 21> H 	 -66.8567 	 14.4696 	 -73.1909
| 22> H 	 -65.6154 	 14.6324 	 -74.4819
| 23> S 	 -66.6106 	 21.5568 	 -69.6134
| 24> C 	 -67.8016 	 22.7569 	 -69.2446
| 25> C 	 -68.6554 	 22.8692 	 -70.3188
| 26> C 	 -68.2756 	 22.2187 	 -71.5486
| 27> C 	 -67.0466 	 21.6012 	 -71.3334
| 28> H 	 -69.6308 	 23.4704 	 -70.2766
| 29> C 	 -69.1203 	 22.1255 	 -72.8287
| 30> H 	 -68.7864 	 21.4892 	 -73.7175
| 31> H 	 -69.035 	 23.1056 	 -73.1377
| 32> C 	 -70.5625 	 21.6768 	 -72.4822
| 33> H 	 -71.1241 	 21.6851 	 -73.4342
| 34> H 	 -71.1403 	 22.3789 	 -71.8471
| 35> C 	 -70.5617 	 20.2861 	 -71.8602
| 36> H 	 -71.5497 	 20.0903 	 -71.5725
| 37> H 	 -69.9452 	 20.2425 	 -70.9716
| 38> H 	 -70.0841 	 19.5523 	 -72.5563
| 39> H 	 -65.0587 	 19.8719 	 -75.4528
| 40> H 	 -67.9534 	 23.2338 	 -68.2774
| 41> *
| 42>
| 43>                          ****END OF INPUT****

CARTESIAN COORDINATES (ANGSTROEM)
---------------------------------
  S    -66.000400   21.534600  -73.959300
  C    -65.400800   19.986300  -74.483400
  C    -65.421800   18.973100  -73.504300
  C    -65.944500   19.562500  -72.252100
  C    -66.205300   20.912900  -72.299200
  H    -66.032500   19.070300  -71.286100
  C    -65.008300   17.437500  -73.626800
  H    -64.166800   17.262600  -72.921800
  H    -64.582500   17.216500  -74.558300
  C    -66.206400   16.453500  -73.461000
  H    -66.636700   16.622000  -72.425600
  H    -67.013300   16.696200  -74.149700
  C    -65.887100   14.958900  -73.457300
  H    -65.139300   14.773200  -72.689200
  H    -66.856700   14.469600  -73.190900
  H    -65.615400   14.632400  -74.481900
  S    -66.610600   21.556800  -69.613400
  C    -67.801600   22.756900  -69.244600
  C    -68.655400   22.869200  -70.318800
  C    -68.275600   22.218700  -71.548600
  C    -67.046600   21.601200  -71.333400
  H    -69.630800   23.470400  -70.276600
  C    -69.120300   22.125500  -72.828700
  H    -68.786400   21.489200  -73.717500
  H    -69.035000   23.105600  -73.137700
  C    -70.562500   21.676800  -72.482200
  H    -71.124100   21.685100  -73.434200
  H    -71.140300   22.378900  -71.847100
  C    -70.561700   20.286100  -71.860200
  H    -71.549700   20.090300  -71.572500
  H    -69.945200   20.242500  -70.971600
  H    -70.084100   19.552300  -72.556300
  H    -65.058700   19.871900  -75.452800
  H    -67.953400   23.233800  -68.277400

 Total Charge           Charge          ....    0
 Multiplicity           Mult            ....    1
 Number of Electrons    NEL             ....  134
 Basis Dimension        Dim             ....  322

ORBITAL ENERGIES
----------------

  NO   OCC          E(Eh)            E(eV)
   0   2.0000     -88.968222     -2420.9484
   1   2.0000     -88.962578     -2420.7948
   2   2.0000     -10.327054      -281.0134
   3   2.0000     -10.324665      -280.9484
   4   2.0000     -10.316801      -280.7344
   5   2.0000     -10.316679      -280.7311
   6   2.0000     -10.315900      -280.7099
   7   2.0000     -10.303907      -280.3836
   8   2.0000     -10.301682      -280.3230
   9   2.0000     -10.299823      -280.2724
  10   2.0000     -10.298332      -280.2319
  11   2.0000     -10.292361      -280.0694
  12   2.0000     -10.292162      -280.0640
  13   2.0000     -10.288047      -279.9520
  14   2.0000     -10.286221      -279.9023
  15   2.0000     -10.268835      -279.4292
  16   2.0000      -8.082210      -219.9281
  17   2.0000      -8.077452      -219.7986
  18   2.0000      -6.040755      -164.3773
  19   2.0000      -6.036886      -164.2720
  20   2.0000      -6.036060      -164.2495
  21   2.0000      -6.032914      -164.1639
  22   2.0000      -6.032166      -164.1436
  23   2.0000      -6.027894      -164.0273
  24   2.0000      -1.002355       -27.2755
  25   2.0000      -0.977912       -26.6103
  26   2.0000      -0.908637       -24.7253
  27   2.0000      -0.903364       -24.5818
  28   2.0000      -0.868874       -23.6433
  29   2.0000      -0.847944       -23.0737
  30   2.0000      -0.841109       -22.8877
  31   2.0000      -0.807737       -21.9796
  32   2.0000      -0.784737       -21.3538
  33   2.0000      -0.773676       -21.0528
  34   2.0000      -0.701263       -19.0823
  35   2.0000      -0.693915       -18.8824
  36   2.0000      -0.688009       -18.7217
  37   2.0000      -0.661232       -17.9930
  38   2.0000      -0.635708       -17.2985
  39   2.0000      -0.612374       -16.6635
  40   2.0000      -0.598370       -16.2825
  41   2.0000      -0.566058       -15.4032
  42   2.0000      -0.563148       -15.3240
  43   2.0000      -0.556412       -15.1407
  44   2.0000      -0.534342       -14.5402
  45   2.0000      -0.524269       -14.2661
  46   2.0000      -0.516060       -14.0427
  47   2.0000      -0.507931       -13.8215
  48   2.0000      -0.503326       -13.6962
  49   2.0000      -0.491930       -13.3861
  50   2.0000      -0.486741       -13.2449
  51   2.0000      -0.479369       -13.0443
  52   2.0000      -0.473454       -12.8833
  53   2.0000      -0.461239       -12.5510
  54   2.0000      -0.459034       -12.4910
  55   2.0000      -0.449943       -12.2436
  56   2.0000      -0.438825       -11.9410
  57   2.0000      -0.436652       -11.8819
  58   2.0000      -0.432344       -11.7647
  59   2.0000      -0.424770       -11.5586
  60   2.0000      -0.419380       -11.4119
  61   2.0000      -0.412440       -11.2231
  62   2.0000      -0.409912       -11.1543
  63   2.0000      -0.352800        -9.6002
  64   2.0000      -0.327483        -8.9113
  65   2.0000      -0.324498        -8.8300
  66   2.0000      -0.286823        -7.8048
  67   0.0000       0.030853         0.8396
  68   0.0000       0.068466         1.8630
  69   0.0000       0.099703         2.7130
  70   0.0000       0.115083         3.1316
  71   0.0000       0.133257         3.6261

MULLIKEN ATOMIC CHARGES
-----------------------
   0 S :    0.095815
   1 C :   -0.105872
   2 C :   -0.072233
   3 C :   -0.002215
   4 C :   -0.116697
   5 H :    0.024458
   6 C :    0.099605
   7 H :    0.040052
   8 H :    0.000009
   9 C :   -0.129604
  10 H :    0.031309
  11 H :    0.037100
  12 C :   -0.045100
  13 H :    0.039698
  14 H :    0.044748
  15 H :    0.039427
  16 S :    0.095774
  17 C :   -0.085297
  18 C :   -0.062245
  19 C :   -0.067857
  20 C :   -0.182955
  21 H :    0.038305
  22 C :    0.091954
  23 H :    0.057009
  24 H :    0.017418
  25 C :   -0.113789
  26 H :    0.031370
  27 H :    0.028097
  28 C :   -0.014712
  29 H :    0.023826
  30 H :    0.038698
  31 H :    0.035265
  32 H :    0.024474
  33 H :    0.064164
Sum of atomic charges:    0.0000000

LOEWDIN ATOMIC CHARGES
----------------------
   0 S :    0.404858
   1 C :   -0.185168
   2 C :   -0.053829
   3 C :   -0.057672
   4 C :   -0.186834
   5 H :    0.029126
   6 C :   -0.026890
   7 H :    0.036107
   8 H :    0.018003
   9 C :   -0.048413
  10 H :    0.026339
  11 H :    0.024512
  12 C :   -0.065574
  13 H :    0.026295
  14 H :    0.035572
  15 H :    0.024995
  16 S :    0.392126
  17 C :   -0.197274
  18 C :   -0.078805
  19 C :   -0.060525
  20 C :   -0.188956
  21 H :    0.038261
  22 C :   -0.034971
  23 H :    0.039279
  24 H :    0.021950
  25 C :   -0.043319
  26 H :    0.025919
  27 H :    0.020963
  28 C :   -0.059314
  29 H :    0.018535
  30 H :    0.026861
  31 H :    0.031852
  32 H :    0.010452
  33 H :    0.035539

  Mayer bond orders larger than 0.100000
B(  0-S ,  1-C ) :   1.1523 B(  0-S ,  4-C ) :   1.1243 B(  1-C ,  2-C ) :   1.6172
B(  1-C , 32-H ) :   0.9755 B(  2-C ,  3-C ) :   1.2203 B(  2-C ,  6-C ) :   1.0165
B(  3-C ,  4-C ) :   1.6147 B(  3-C ,  5-H ) :   0.9799 B(  4-C , 20-C ) :   1.0265
B(  6-C ,  7-H ) :   0.9441 B(  6-C ,  8-H ) :   0.9429 B(  6-C ,  9-C ) :   1.0491
B(  9-C , 10-H ) :   0.9592 B(  9-C , 11-H ) :   0.9580 B(  9-C , 12-C ) :   1.0824
B( 12-C , 13-H ) :   0.9743 B( 12-C , 14-H ) :   0.9735 B( 12-C , 15-H ) :   0.9755
B( 16-S , 17-C ) :   1.1358 B( 16-S , 20-C ) :   1.1385 B( 17-C , 18-C ) :   1.6152
B( 17-C , 33-H ) :   0.9714 B( 18-C , 19-C ) :   1.2370 B( 18-C , 21-H ) :   0.9722
B( 19-C , 20-C ) :   1.5896 B( 19-C , 22-C ) :   1.0006 B( 22-C , 23-H ) :   0.9429
B( 22-C , 24-H ) :   0.9258 B( 22-C , 25-C ) :   1.0777 B( 25-C , 26-H ) :   0.9557
B( 25-C , 27-H ) :   0.9538 B( 25-C , 28-C ) :   1.0720 B( 28-C , 29-H ) :   0.9725
B( 28-C , 30-H ) :   0.9717 B( 28-C , 31-H ) :   0.9724

Dispersion correction           -0.014872605
FINAL SINGLE POINT ENERGY     -1339.861887653092

DIPOLE MOMENT
-------------
                                X             Y             Z
Electronic contribution:     11.81609      20.10166       6.45522
Nuclear contribution   :    -12.21663     -20.52405      -6.66753
                        -----------------------------------------
Total Dipole Moment    :     -0.40054      -0.42239      -0.21231
                        -----------------------------------------
Magnitude (a.u.)       :      0.61961
Magnitude (Debye)      :      1.57494

Rotational constants in cm-1:     0.018964     0.007898     0.007687
Rotational constants in MHz :   568.514222   236.780752   230.454812

                             ****ORCA TERMINATED NORMALLY****
TOTAL RUN TIME: 0 days 0 hours 0 minutes 22 seconds 915 msec
