                         Program Version 4.2.1 -  RELEASE  -
|  1> ! wB97X-D3 SP def2-SVP
|  2> %pal
|  3> nprocs 24
|  4> end
|  5>
|  6> * xyz 0 1
|  7> S 	 -52.2875 	 -52.8408 	 -81.1
|  8> C 	 -52.9344 	 -52.2733 	 -79.557
|  9> C 	 -52.0118 	 -52.5321 	 -78.5153
| 10> C 	 -50.8372 	 -53.1959 	 -79.0296
| 11> C 	 -50.8788 	 -53.6016 	 -80.318
| 12> H 	 -50.0094 	 -53.5585 	 -78.4302
| 13> C 	 -52.3151 	 -52.2712 	 -77.0629
| 14> H 	 -53.0466 	 -51.4736 	 -76.9676
| 15> H 	 -51.4479 	 -51.8521 	 -76.5434
| 16> C 	 -52.8241 	 -53.5212 	 -76.2227
| 17> H 	 -53.5397 	 -53.9222 	 -76.8384
| 18> H 	 -51.9961 	 -54.1637 	 -75.9651
| 19> C 	 -53.5271 	 -53.1275 	 -74.9802
| 20> H 	 -53.9783 	 -54.0659 	 -74.464
| 21> H 	 -52.9199 	 -52.5218 	 -74.3078
| 22> H 	 -54.3491 	 -52.5665 	 -75.3231
| 23> S 	 -48.9488 	 -55.4896 	 -79.9407
| 24> C 	 -48.0217 	 -56.0867 	 -81.2792
| 25> C 	 -48.478 	 -55.6022 	 -82.4833
| 26> C 	 -49.573 	 -54.6902 	 -82.3258
| 27> C 	 -49.8361 	 -54.3754 	 -80.9934
| 28> H 	 -48.0771 	 -55.886 	 -83.4318
| 29> C 	 -50.2038 	 -54.1456 	 -83.6403
| 30> H 	 -51.2538 	 -54.4436 	 -83.7259
| 31> H 	 -49.7252 	 -54.7403 	 -84.4518
| 32> C 	 -49.9612 	 -52.7047 	 -83.9938
| 33> H 	 -50.2754 	 -51.9304 	 -83.2495
| 34> H 	 -50.5417 	 -52.3398 	 -84.8475
| 35> C 	 -48.5459 	 -52.3534 	 -84.2792
| 36> H 	 -48.0438 	 -53.0723 	 -84.9188
| 37> H 	 -47.9818 	 -52.313 	 -83.3677
| 38> H 	 -48.426 	 -51.4151 	 -84.7034
| 39> H 	 -53.9119 	 -51.8159 	 -79.4235
| 40> H 	 -47.174 	 -56.732 	 -81.1787
| 41> *
| 42>
| 43>                          ****END OF INPUT****

CARTESIAN COORDINATES (ANGSTROEM)
---------------------------------
  S    -52.287500  -52.840800  -81.100000
  C    -52.934400  -52.273300  -79.557000
  C    -52.011800  -52.532100  -78.515300
  C    -50.837200  -53.195900  -79.029600
  C    -50.878800  -53.601600  -80.318000
  H    -50.009400  -53.558500  -78.430200
  C    -52.315100  -52.271200  -77.062900
  H    -53.046600  -51.473600  -76.967600
  H    -51.447900  -51.852100  -76.543400
  C    -52.824100  -53.521200  -76.222700
  H    -53.539700  -53.922200  -76.838400
  H    -51.996100  -54.163700  -75.965100
  C    -53.527100  -53.127500  -74.980200
  H    -53.978300  -54.065900  -74.464000
  H    -52.919900  -52.521800  -74.307800
  H    -54.349100  -52.566500  -75.323100
  S    -48.948800  -55.489600  -79.940700
  C    -48.021700  -56.086700  -81.279200
  C    -48.478000  -55.602200  -82.483300
  C    -49.573000  -54.690200  -82.325800
  C    -49.836100  -54.375400  -80.993400
  H    -48.077100  -55.886000  -83.431800
  C    -50.203800  -54.145600  -83.640300
  H    -51.253800  -54.443600  -83.725900
  H    -49.725200  -54.740300  -84.451800
  C    -49.961200  -52.704700  -83.993800
  H    -50.275400  -51.930400  -83.249500
  H    -50.541700  -52.339800  -84.847500
  C    -48.545900  -52.353400  -84.279200
  H    -48.043800  -53.072300  -84.918800
  H    -47.981800  -52.313000  -83.367700
  H    -48.426000  -51.415100  -84.703400
  H    -53.911900  -51.815900  -79.423500
  H    -47.174000  -56.732000  -81.178700

 Total Charge           Charge          ....    0
 Multiplicity           Mult            ....    1
 Number of Electrons    NEL             ....  134
 Basis Dimension        Dim             ....  322

ORBITAL ENERGIES
----------------

  NO   OCC          E(Eh)            E(eV)
   0   2.0000     -88.968633     -2420.9596
   1   2.0000     -88.966626     -2420.9050
   2   2.0000     -10.333573      -281.1908
   3   2.0000     -10.332222      -281.1540
   4   2.0000     -10.320349      -280.8310
   5   2.0000     -10.316709      -280.7319
   6   2.0000     -10.308475      -280.5079
   7   2.0000     -10.308217      -280.5008
   8   2.0000     -10.297399      -280.2065
   9   2.0000     -10.293672      -280.1051
  10   2.0000     -10.293433      -280.0986
  11   2.0000     -10.291697      -280.0513
  12   2.0000     -10.279554      -279.7209
  13   2.0000     -10.277489      -279.6647
  14   2.0000     -10.276860      -279.6476
  15   2.0000     -10.259441      -279.1736
  16   2.0000      -8.083212      -219.9554
  17   2.0000      -8.080110      -219.8710
  18   2.0000      -6.041789      -164.4054
  19   2.0000      -6.038803      -164.3242
  20   2.0000      -6.037785      -164.2965
  21   2.0000      -6.034799      -164.2152
  22   2.0000      -6.033877      -164.1901
  23   2.0000      -6.030737      -164.1047
  24   2.0000      -1.006007       -27.3748
  25   2.0000      -0.982035       -26.7225
  26   2.0000      -0.913369       -24.8540
  27   2.0000      -0.912288       -24.8246
  28   2.0000      -0.873954       -23.7815
  29   2.0000      -0.855101       -23.2685
  30   2.0000      -0.846193       -23.0261
  31   2.0000      -0.815551       -22.1923
  32   2.0000      -0.786126       -21.3916
  33   2.0000      -0.768495       -20.9118
  34   2.0000      -0.707596       -19.2547
  35   2.0000      -0.696463       -18.9517
  36   2.0000      -0.689441       -18.7606
  37   2.0000      -0.672786       -18.3075
  38   2.0000      -0.634780       -17.2733
  39   2.0000      -0.617146       -16.7934
  40   2.0000      -0.595751       -16.2112
  41   2.0000      -0.582531       -15.8515
  42   2.0000      -0.563657       -15.3379
  43   2.0000      -0.559842       -15.2341
  44   2.0000      -0.546438       -14.8693
  45   2.0000      -0.521152       -14.1813
  46   2.0000      -0.518250       -14.1023
  47   2.0000      -0.511757       -13.9256
  48   2.0000      -0.509803       -13.8724
  49   2.0000      -0.497652       -13.5418
  50   2.0000      -0.487106       -13.2548
  51   2.0000      -0.474789       -12.9197
  52   2.0000      -0.472520       -12.8579
  53   2.0000      -0.466157       -12.6848
  54   2.0000      -0.462634       -12.5889
  55   2.0000      -0.449199       -12.2233
  56   2.0000      -0.448437       -12.2026
  57   2.0000      -0.437323       -11.9002
  58   2.0000      -0.429341       -11.6830
  59   2.0000      -0.422901       -11.5077
  60   2.0000      -0.420293       -11.4368
  61   2.0000      -0.416178       -11.3248
  62   2.0000      -0.401117       -10.9149
  63   2.0000      -0.362615        -9.8673
  64   2.0000      -0.334522        -9.1028
  65   2.0000      -0.327007        -8.8983
  66   2.0000      -0.284672        -7.7463
  67   0.0000       0.018532         0.5043
  68   0.0000       0.079365         2.1596
  69   0.0000       0.103501         2.8164
  70   0.0000       0.113759         3.0955
  71   0.0000       0.128522         3.4973

MULLIKEN ATOMIC CHARGES
-----------------------
   0 S :    0.095874
   1 C :   -0.126920
   2 C :   -0.063621
   3 C :   -0.015370
   4 C :   -0.088585
   5 H :    0.017482
   6 C :    0.030995
   7 H :    0.008905
   8 H :    0.025303
   9 C :   -0.016659
  10 H :    0.009906
  11 H :    0.034763
  12 C :   -0.059547
  13 H :    0.049458
  14 H :    0.034164
  15 H :    0.013390
  16 S :    0.085092
  17 C :   -0.069607
  18 C :   -0.015988
  19 C :   -0.092939
  20 C :   -0.118655
  21 H :    0.009751
  22 C :    0.073438
  23 H :    0.042587
  24 H :    0.014335
  25 C :   -0.068311
  26 H :    0.030259
  27 H :    0.021526
  28 C :   -0.020096
  29 H :    0.009875
  30 H :    0.028532
  31 H :    0.013228
  32 H :    0.055424
  33 H :    0.052011
Sum of atomic charges:    0.0000000

LOEWDIN ATOMIC CHARGES
----------------------
   0 S :    0.386891
   1 C :   -0.192991
   2 C :   -0.056975
   3 C :   -0.074436
   4 C :   -0.176981
   5 H :    0.023846
   6 C :   -0.034344
   7 H :    0.025627
   8 H :    0.030310
   9 C :   -0.028664
  10 H :    0.014820
  11 H :    0.023153
  12 C :   -0.064510
  13 H :    0.039976
  14 H :    0.022515
  15 H :    0.016198
  16 S :    0.412529
  17 C :   -0.182330
  18 C :   -0.066188
  19 C :   -0.055986
  20 C :   -0.181563
  21 H :    0.027684
  22 C :   -0.033357
  23 H :    0.033145
  24 H :    0.034185
  25 C :   -0.054314
  26 H :    0.026274
  27 H :    0.026142
  28 C :   -0.059464
  29 H :    0.018002
  30 H :    0.024989
  31 H :    0.018350
  32 H :    0.030890
  33 H :    0.026578

  Mayer bond orders larger than 0.100000
B(  0-S ,  1-C ) :   1.1322 B(  0-S ,  4-C ) :   1.1174 B(  1-C ,  2-C ) :   1.5972
B(  1-C , 32-H ) :   0.9694 B(  2-C ,  3-C ) :   1.2236 B(  2-C ,  6-C ) :   1.0530
B(  3-C ,  4-C ) :   1.5791 B(  3-C ,  5-H ) :   0.9862 B(  4-C , 20-C ) :   1.0833
B(  6-C ,  7-H ) :   0.9426 B(  6-C ,  8-H ) :   0.9342 B(  6-C ,  9-C ) :   1.0503
B(  9-C , 10-H ) :   0.9547 B(  9-C , 11-H ) :   0.9552 B(  9-C , 12-C ) :   1.0948
B( 12-C , 13-H ) :   0.9696 B( 12-C , 14-H ) :   0.9750 B( 12-C , 15-H ) :   0.9742
B( 16-S , 17-C ) :   1.1572 B( 16-S , 20-C ) :   1.1348 B( 17-C , 18-C ) :   1.6009
B( 17-C , 33-H ) :   0.9684 B( 18-C , 19-C ) :   1.2528 B( 18-C , 21-H ) :   0.9917
B( 19-C , 20-C ) :   1.5789 B( 19-C , 22-C ) :   1.0239 B( 22-C , 23-H ) :   0.9353
B( 22-C , 24-H ) :   0.9353 B( 22-C , 25-C ) :   1.0738 B( 25-C , 26-H ) :   0.9504
B( 25-C , 27-H ) :   0.9532 B( 25-C , 28-C ) :   1.0862 B( 28-C , 29-H ) :   0.9727
B( 28-C , 30-H ) :   0.9721 B( 28-C , 31-H ) :   0.9688

Dispersion correction           -0.014143970
FINAL SINGLE POINT ENERGY     -1339.873826837864

DIPOLE MOMENT
-------------
                                X             Y             Z
Electronic contribution:      3.79924      -7.74124      -4.14006
Nuclear contribution   :     -3.80460       7.74520       4.18948
                        -----------------------------------------
Total Dipole Moment    :     -0.00535       0.00395       0.04942
                        -----------------------------------------
Magnitude (a.u.)       :      0.04987
Magnitude (Debye)      :      0.12675

Rotational constants in cm-1:     0.024083     0.007626     0.006164
Rotational constants in MHz :   721.980174   228.636285   184.779689

                             ****ORCA TERMINATED NORMALLY****
TOTAL RUN TIME: 0 days 0 hours 0 minutes 20 seconds 207 msec
