                         Program Version 4.2.1 -  RELEASE  -
|  1> ! wB97X-D3 SP def2-SVP
|  2> %pal
|  3> nprocs 24
|  4> end
|  5>
|  6> * xyz 0 1
|  7> S 	 -101.723 	 -4.39815 	 -110.795
|  8> C 	 -102.272 	 -5.94687 	 -111.255
|  9> C 	 -102.576 	 -6.76034 	 -110.244
| 10> C 	 -102.439 	 -6.1044 	 -108.999
| 11> C 	 -102.054 	 -4.81902 	 -109.117
| 12> H 	 -102.719 	 -6.4828 	 -108.009
| 13> C 	 -103.049 	 -8.27085 	 -110.32
| 14> H 	 -103.521 	 -8.51111 	 -111.276
| 15> H 	 -103.916 	 -8.38671 	 -109.628
| 16> C 	 -101.987 	 -9.28052 	 -109.917
| 17> H 	 -101.871 	 -9.22533 	 -108.881
| 18> H 	 -102.305 	 -10.3503 	 -110.052
| 19> C 	 -100.655 	 -9.22991 	 -110.651
| 20> H 	 -100.674 	 -9.54635 	 -111.7
| 21> H 	 -100.341 	 -8.15295 	 -110.562
| 22> H 	 -99.9447 	 -9.94061 	 -110.256
| 23> S 	 -103 	 -2.35096 	 -108.186
| 24> C 	 -102.565 	 -1.86132 	 -106.563
| 25> C 	 -101.666 	 -2.69188 	 -105.979
| 26> C 	 -101.403 	 -3.88611 	 -106.772
| 27> C 	 -102.016 	 -3.8417 	 -108.025
| 28> H 	 -101.386 	 -2.5492 	 -104.95
| 29> C 	 -100.418 	 -4.8833 	 -106.235
| 30> H 	 -99.6842 	 -4.239 	 -105.782
| 31> H 	 -99.8537 	 -5.47257 	 -106.952
| 32> C 	 -100.896 	 -5.6413 	 -104.977
| 33> H 	 -101.704 	 -6.40956 	 -105.284
| 34> H 	 -101.267 	 -4.90779 	 -104.253
| 35> C 	 -99.8387 	 -6.47683 	 -104.254
| 36> H 	 -99.2438 	 -7.07256 	 -104.88
| 37> H 	 -100.295 	 -6.98686 	 -103.409
| 38> H 	 -99.0791 	 -5.71178 	 -103.781
| 39> H 	 -102.494 	 -6.31218 	 -112.24
| 40> H 	 -102.891 	 -0.969318 	 -106.155
| 41> *
| 42>
| 43>                          ****END OF INPUT****

CARTESIAN COORDINATES (ANGSTROEM)
---------------------------------
  S    -101.723000   -4.398150  -110.795000
  C    -102.272000   -5.946870  -111.255000
  C    -102.576000   -6.760340  -110.244000
  C    -102.439000   -6.104400  -108.999000
  C    -102.054000   -4.819020  -109.117000
  H    -102.719000   -6.482800  -108.009000
  C    -103.049000   -8.270850  -110.320000
  H    -103.521000   -8.511110  -111.276000
  H    -103.916000   -8.386710  -109.628000
  C    -101.987000   -9.280520  -109.917000
  H    -101.871000   -9.225330  -108.881000
  H    -102.305000  -10.350300  -110.052000
  C    -100.655000   -9.229910  -110.651000
  H    -100.674000   -9.546350  -111.700000
  H    -100.341000   -8.152950  -110.562000
  H    -99.944700   -9.940610  -110.256000
  S    -103.000000   -2.350960  -108.186000
  C    -102.565000   -1.861320  -106.563000
  C    -101.666000   -2.691880  -105.979000
  C    -101.403000   -3.886110  -106.772000
  C    -102.016000   -3.841700  -108.025000
  H    -101.386000   -2.549200  -104.950000
  C    -100.418000   -4.883300  -106.235000
  H    -99.684200   -4.239000  -105.782000
  H    -99.853700   -5.472570  -106.952000
  C    -100.896000   -5.641300  -104.977000
  H    -101.704000   -6.409560  -105.284000
  H    -101.267000   -4.907790  -104.253000
  C    -99.838700   -6.476830  -104.254000
  H    -99.243800   -7.072560  -104.880000
  H    -100.295000   -6.986860  -103.409000
  H    -99.079100   -5.711780  -103.781000
  H    -102.494000   -6.312180  -112.240000
  H    -102.891000   -0.969318  -106.155000

 Total Charge           Charge          ....    0
 Multiplicity           Mult            ....    1
 Number of Electrons    NEL             ....  134
 Basis Dimension        Dim             ....  322

ORBITAL ENERGIES
----------------

  NO   OCC          E(Eh)            E(eV)
   0   2.0000     -88.966888     -2420.9121
   1   2.0000     -88.962633     -2420.7963
   2   2.0000     -10.329716      -281.0859
   3   2.0000     -10.325136      -280.9612
   4   2.0000     -10.313008      -280.6312
   5   2.0000     -10.308110      -280.4979
   6   2.0000     -10.304850      -280.4092
   7   2.0000     -10.299547      -280.2649
   8   2.0000     -10.296393      -280.1791
   9   2.0000     -10.296164      -280.1729
  10   2.0000     -10.293416      -280.0981
  11   2.0000     -10.290286      -280.0129
  12   2.0000     -10.289565      -279.9933
  13   2.0000     -10.284356      -279.8516
  14   2.0000     -10.282852      -279.8106
  15   2.0000     -10.274896      -279.5941
  16   2.0000      -8.082405      -219.9334
  17   2.0000      -8.077094      -219.7889
  18   2.0000      -6.040875      -164.3806
  19   2.0000      -6.036990      -164.2748
  20   2.0000      -6.035688      -164.2394
  21   2.0000      -6.032972      -164.1655
  22   2.0000      -6.031697      -164.1308
  23   2.0000      -6.027723      -164.0227
  24   2.0000      -1.011924       -27.5359
  25   2.0000      -0.985947       -26.8290
  26   2.0000      -0.911544       -24.8044
  27   2.0000      -0.908087       -24.7103
  28   2.0000      -0.872891       -23.7526
  29   2.0000      -0.852433       -23.1959
  30   2.0000      -0.847528       -23.0624
  31   2.0000      -0.816731       -22.2244
  32   2.0000      -0.785276       -21.3685
  33   2.0000      -0.776092       -21.1185
  34   2.0000      -0.706263       -19.2184
  35   2.0000      -0.692367       -18.8403
  36   2.0000      -0.692118       -18.8335
  37   2.0000      -0.662728       -18.0338
  38   2.0000      -0.641851       -17.4657
  39   2.0000      -0.620806       -16.8930
  40   2.0000      -0.602903       -16.4058
  41   2.0000      -0.570127       -15.5140
  42   2.0000      -0.564105       -15.3501
  43   2.0000      -0.552982       -15.0474
  44   2.0000      -0.541252       -14.7282
  45   2.0000      -0.534986       -14.5577
  46   2.0000      -0.515731       -14.0337
  47   2.0000      -0.509031       -13.8514
  48   2.0000      -0.503713       -13.7067
  49   2.0000      -0.494537       -13.4570
  50   2.0000      -0.484864       -13.1938
  51   2.0000      -0.481427       -13.1003
  52   2.0000      -0.476482       -12.9657
  53   2.0000      -0.463942       -12.6245
  54   2.0000      -0.459132       -12.4936
  55   2.0000      -0.450118       -12.2483
  56   2.0000      -0.443429       -12.0663
  57   2.0000      -0.439612       -11.9625
  58   2.0000      -0.438944       -11.9443
  59   2.0000      -0.426008       -11.5923
  60   2.0000      -0.422820       -11.5055
  61   2.0000      -0.406933       -11.0732
  62   2.0000      -0.404422       -11.0049
  63   2.0000      -0.349873        -9.5205
  64   2.0000      -0.334810        -9.1107
  65   2.0000      -0.327705        -8.9173
  66   2.0000      -0.298512        -8.1229
  67   0.0000       0.035971         0.9788
  68   0.0000       0.072732         1.9791
  69   0.0000       0.115537         3.1439
  70   0.0000       0.119073         3.2402
  71   0.0000       0.127737         3.4759

MULLIKEN ATOMIC CHARGES
-----------------------
   0 S :    0.123644
   1 C :   -0.095318
   2 C :   -0.104573
   3 C :    0.025144
   4 C :   -0.162691
   5 H :    0.015614
   6 C :    0.081056
   7 H :    0.018306
   8 H :    0.031504
   9 C :   -0.064341
  10 H :    0.013774
  11 H :    0.026005
  12 C :   -0.063537
  13 H :    0.027217
  14 H :    0.054562
  15 H :    0.028943
  16 S :    0.091324
  17 C :   -0.056899
  18 C :   -0.028175
  19 C :   -0.011649
  20 C :   -0.157789
  21 H :    0.022220
  22 C :    0.074917
  23 H :    0.011518
  24 H :    0.032451
  25 C :   -0.123796
  26 H :    0.039748
  27 H :    0.034570
  28 C :   -0.042591
  29 H :    0.028539
  30 H :    0.045874
  31 H :    0.024750
  32 H :    0.029784
  33 H :    0.029893
Sum of atomic charges:   -0.0000000

LOEWDIN ATOMIC CHARGES
----------------------
   0 S :    0.411527
   1 C :   -0.201972
   2 C :   -0.070666
   3 C :   -0.058465
   4 C :   -0.190228
   5 H :    0.035776
   6 C :   -0.026128
   7 H :    0.025823
   8 H :    0.035918
   9 C :   -0.047652
  10 H :    0.014801
  11 H :    0.029922
  12 C :   -0.071578
  13 H :    0.024402
  14 H :    0.032936
  15 H :    0.024957
  16 S :    0.379257
  17 C :   -0.161049
  18 C :   -0.070791
  19 C :   -0.046663
  20 C :   -0.187024
  21 H :    0.030345
  22 C :   -0.037174
  23 H :    0.032923
  24 H :    0.030536
  25 C :   -0.043747
  26 H :    0.026146
  27 H :    0.024801
  28 C :   -0.065110
  29 H :    0.015457
  30 H :    0.029554
  31 H :    0.030598
  32 H :    0.028185
  33 H :    0.014384

  Mayer bond orders larger than 0.100000
B(  0-S ,  1-C ) :   1.1302 B(  0-S ,  4-C ) :   1.1337 B(  1-C ,  2-C ) :   1.6744
B(  1-C , 32-H ) :   0.9563 B(  2-C ,  3-C ) :   1.2101 B(  2-C ,  6-C ) :   1.0043
B(  3-C ,  4-C ) :   1.6225 B(  3-C ,  5-H ) :   0.9949 B(  4-C , 20-C ) :   1.0321
B(  6-C ,  7-H ) :   0.9468 B(  6-C ,  8-H ) :   0.9443 B(  6-C ,  9-C ) :   1.0703
B(  9-C , 10-H ) :   0.9558 B(  9-C , 11-H ) :   0.9526 B(  9-C , 12-C ) :   1.0807
B( 12-C , 13-H ) :   0.9742 B( 12-C , 14-H ) :   0.9731 B( 12-C , 15-H ) :   0.9716
B( 16-S , 17-C ) :   1.1461 B( 16-S , 20-C ) :   1.1145 B( 17-C , 18-C ) :   1.6504
B( 17-C , 33-H ) :   0.9730 B( 18-C , 19-C ) :   1.2017 B( 18-C , 21-H ) :   0.9829
B( 19-C , 20-C ) :   1.6321 B( 19-C , 22-C ) :   1.0452 B( 22-C , 23-H ) :   0.9291
B( 22-C , 24-H ) :   0.9432 B( 22-C , 25-C ) :   1.0494 B( 25-C , 26-H ) :   0.9523
B( 25-C , 27-H ) :   0.9568 B( 25-C , 28-C ) :   1.0854 B( 28-C , 29-H ) :   0.9756
B( 28-C , 30-H ) :   0.9738 B( 28-C , 31-H ) :   0.9716

Dispersion correction           -0.014159797
FINAL SINGLE POINT ENERGY     -1339.872881224609

DIPOLE MOMENT
-------------
                                X             Y             Z
Electronic contribution:     -9.30838      25.96525     -12.25560
Nuclear contribution   :      9.36718     -26.45421      12.74401
                        -----------------------------------------
Total Dipole Moment    :      0.05879      -0.48896       0.48841
                        -----------------------------------------
Magnitude (a.u.)       :      0.69360
Magnitude (Debye)      :      1.76299

Rotational constants in cm-1:     0.016781     0.009485     0.006608
Rotational constants in MHz :   503.071705   284.367970   198.111355

                             ****ORCA TERMINATED NORMALLY****
TOTAL RUN TIME: 0 days 0 hours 0 minutes 21 seconds 621 msec
