                         Program Version 4.2.1 -  RELEASE  -
|  1> ! wB97X-D3 SP def2-SVP
|  2> %pal
|  3> nprocs 24
|  4> end
|  5>
|  6> * xyz 0 1
|  7> S 	 -57.7534 	 16.1399 	 -97.0926
|  8> C 	 -58.2123 	 17.5184 	 -98.0813
|  9> C 	 -58.6199 	 17.0967 	 -99.3654
| 10> C 	 -58.5248 	 15.7014 	 -99.5209
| 11> C 	 -58.1582 	 14.976 	 -98.3662
| 12> H 	 -58.7368 	 15.0285 	 -100.353
| 13> C 	 -58.9708 	 17.9434 	 -100.574
| 14> H 	 -58.7211 	 17.4284 	 -101.494
| 15> H 	 -58.3327 	 18.8716 	 -100.645
| 16> C 	 -60.4471 	 18.1924 	 -100.73
| 17> H 	 -60.9519 	 17.2313 	 -100.813
| 18> H 	 -60.8626 	 18.7945 	 -99.872
| 19> C 	 -60.7239 	 19.0673 	 -101.98
| 20> H 	 -61.7634 	 19.2946 	 -102.067
| 21> H 	 -60.1765 	 20.0301 	 -102.052
| 22> H 	 -60.5826 	 18.4358 	 -102.864
| 23> S 	 -58.6257 	 12.8922 	 -96.6698
| 24> C 	 -58.1835 	 11.2373 	 -97.1413
| 25> C 	 -57.5271 	 11.2781 	 -98.3374
| 26> C 	 -57.2958 	 12.552 	 -98.8812
| 27> C 	 -57.91 	 13.5357 	 -98.1335
| 28> H 	 -57.1843 	 10.3637 	 -98.6834
| 29> C 	 -56.5742 	 12.7302 	 -100.285
| 30> H 	 -55.6536 	 12.1916 	 -100.143
| 31> H 	 -56.1126 	 13.7002 	 -100.41
| 32> C 	 -57.2784 	 12.1674 	 -101.503
| 33> H 	 -58.3143 	 12.4434 	 -101.444
| 34> H 	 -57.159 	 11.0588 	 -101.442
| 35> C 	 -56.6163 	 12.4248 	 -102.845
| 36> H 	 -56.378 	 13.4609 	 -103.071
| 37> H 	 -57.3258 	 12.0319 	 -103.733
| 38> H 	 -55.6261 	 11.9785 	 -102.874
| 39> H 	 -58.2027 	 18.5443 	 -97.7448
| 40> H 	 -58.4781 	 10.4001 	 -96.5561
| 41> *
| 42>
| 43>                          ****END OF INPUT****

CARTESIAN COORDINATES (ANGSTROEM)
---------------------------------
  S    -57.753400   16.139900  -97.092600
  C    -58.212300   17.518400  -98.081300
  C    -58.619900   17.096700  -99.365400
  C    -58.524800   15.701400  -99.520900
  C    -58.158200   14.976000  -98.366200
  H    -58.736800   15.028500  -100.353000
  C    -58.970800   17.943400  -100.574000
  H    -58.721100   17.428400  -101.494000
  H    -58.332700   18.871600  -100.645000
  C    -60.447100   18.192400  -100.730000
  H    -60.951900   17.231300  -100.813000
  H    -60.862600   18.794500  -99.872000
  C    -60.723900   19.067300  -101.980000
  H    -61.763400   19.294600  -102.067000
  H    -60.176500   20.030100  -102.052000
  H    -60.582600   18.435800  -102.864000
  S    -58.625700   12.892200  -96.669800
  C    -58.183500   11.237300  -97.141300
  C    -57.527100   11.278100  -98.337400
  C    -57.295800   12.552000  -98.881200
  C    -57.910000   13.535700  -98.133500
  H    -57.184300   10.363700  -98.683400
  C    -56.574200   12.730200  -100.285000
  H    -55.653600   12.191600  -100.143000
  H    -56.112600   13.700200  -100.410000
  C    -57.278400   12.167400  -101.503000
  H    -58.314300   12.443400  -101.444000
  H    -57.159000   11.058800  -101.442000
  C    -56.616300   12.424800  -102.845000
  H    -56.378000   13.460900  -103.071000
  H    -57.325800   12.031900  -103.733000
  H    -55.626100   11.978500  -102.874000
  H    -58.202700   18.544300  -97.744800
  H    -58.478100   10.400100  -96.556100

 Total Charge           Charge          ....    0
 Multiplicity           Mult            ....    1
 Number of Electrons    NEL             ....  134
 Basis Dimension        Dim             ....  322

ORBITAL ENERGIES
----------------

  NO   OCC          E(Eh)            E(eV)
   0   2.0000     -88.966511     -2420.9018
   1   2.0000     -88.963073     -2420.8083
   2   2.0000     -10.333060      -281.1768
   3   2.0000     -10.331146      -281.1248
   4   2.0000     -10.318871      -280.7908
   5   2.0000     -10.317458      -280.7523
   6   2.0000     -10.308286      -280.5027
   7   2.0000     -10.304674      -280.4044
   8   2.0000     -10.296029      -280.1692
   9   2.0000     -10.293733      -280.1067
  10   2.0000     -10.292115      -280.0627
  11   2.0000     -10.290766      -280.0260
  12   2.0000     -10.289899      -280.0024
  13   2.0000     -10.288939      -279.9763
  14   2.0000     -10.288471      -279.9635
  15   2.0000     -10.277758      -279.6720
  16   2.0000      -8.080522      -219.8822
  17   2.0000      -8.077855      -219.8096
  18   2.0000      -6.039021      -164.3301
  19   2.0000      -6.036323      -164.2567
  20   2.0000      -6.034974      -164.2200
  21   2.0000      -6.032325      -164.1479
  22   2.0000      -6.031486      -164.1251
  23   2.0000      -6.028665      -164.0483
  24   2.0000      -1.004331       -27.3292
  25   2.0000      -0.981700       -26.7134
  26   2.0000      -0.913104       -24.8468
  27   2.0000      -0.909664       -24.7532
  28   2.0000      -0.868376       -23.6297
  29   2.0000      -0.851046       -23.1581
  30   2.0000      -0.844727       -22.9862
  31   2.0000      -0.813223       -22.1289
  32   2.0000      -0.782789       -21.3008
  33   2.0000      -0.773621       -21.0513
  34   2.0000      -0.702969       -19.1287
  35   2.0000      -0.697585       -18.9823
  36   2.0000      -0.695074       -18.9139
  37   2.0000      -0.666863       -18.1463
  38   2.0000      -0.645700       -17.5704
  39   2.0000      -0.615723       -16.7547
  40   2.0000      -0.599841       -16.3225
  41   2.0000      -0.572834       -15.5876
  42   2.0000      -0.569583       -15.4991
  43   2.0000      -0.560989       -15.2653
  44   2.0000      -0.530754       -14.4426
  45   2.0000      -0.522063       -14.2061
  46   2.0000      -0.513221       -13.9655
  47   2.0000      -0.510939       -13.9034
  48   2.0000      -0.505251       -13.7486
  49   2.0000      -0.502183       -13.6651
  50   2.0000      -0.491858       -13.3841
  51   2.0000      -0.480469       -13.0742
  52   2.0000      -0.469910       -12.7869
  53   2.0000      -0.465612       -12.6700
  54   2.0000      -0.457577       -12.4513
  55   2.0000      -0.445422       -12.1205
  56   2.0000      -0.440235       -11.9794
  57   2.0000      -0.435830       -11.8595
  58   2.0000      -0.433250       -11.7893
  59   2.0000      -0.424005       -11.5378
  60   2.0000      -0.421495       -11.4695
  61   2.0000      -0.411739       -11.2040
  62   2.0000      -0.409828       -11.1520
  63   2.0000      -0.347492        -9.4557
  64   2.0000      -0.333666        -9.0795
  65   2.0000      -0.332386        -9.0447
  66   2.0000      -0.291084        -7.9208
  67   0.0000       0.027371         0.7448
  68   0.0000       0.067990         1.8501
  69   0.0000       0.109240         2.9726
  70   0.0000       0.119102         3.2409
  71   0.0000       0.129343         3.5196

MULLIKEN ATOMIC CHARGES
-----------------------
   0 S :    0.103595
   1 C :   -0.115671
   2 C :   -0.049026
   3 C :    0.024124
   4 C :   -0.156257
   5 H :    0.010748
   6 C :    0.046039
   7 H :    0.011857
   8 H :    0.033643
   9 C :   -0.088167
  10 H :    0.035133
  11 H :    0.037074
  12 C :   -0.046393
  13 H :    0.023694
  14 H :    0.043307
  15 H :    0.022710
  16 S :    0.092038
  17 C :   -0.087747
  18 C :   -0.010780
  19 C :   -0.016643
  20 C :   -0.162731
  21 H :   -0.008663
  22 C :    0.075508
  23 H :    0.008255
  24 H :    0.020317
  25 C :   -0.058971
  26 H :    0.038102
  27 H :    0.036830
  28 C :   -0.080116
  29 H :    0.025768
  30 H :    0.059141
  31 H :    0.029737
  32 H :    0.050031
  33 H :    0.053512
Sum of atomic charges:   -0.0000000

LOEWDIN ATOMIC CHARGES
----------------------
   0 S :    0.401540
   1 C :   -0.194045
   2 C :   -0.063679
   3 C :   -0.066540
   4 C :   -0.189820
   5 H :    0.033871
   6 C :   -0.037968
   7 H :    0.028858
   8 H :    0.034293
   9 C :   -0.040024
  10 H :    0.027288
  11 H :    0.026660
  12 C :   -0.070463
  13 H :    0.021950
  14 H :    0.029778
  15 H :    0.023787
  16 S :    0.392594
  17 C :   -0.164864
  18 C :   -0.062528
  19 C :   -0.056358
  20 C :   -0.195038
  21 H :    0.020996
  22 C :   -0.033887
  23 H :    0.029593
  24 H :    0.028484
  25 C :   -0.047629
  26 H :    0.020885
  27 H :    0.033919
  28 C :   -0.074016
  29 H :    0.017977
  30 H :    0.045805
  31 H :    0.024805
  32 H :    0.028724
  33 H :    0.025054

  Mayer bond orders larger than 0.100000
B(  0-S ,  1-C ) :   1.1545 B(  0-S ,  4-C ) :   1.1629 B(  1-C ,  2-C ) :   1.5682
B(  1-C ,  4-C ) :   0.1161 B(  1-C , 32-H ) :   0.9746 B(  2-C ,  3-C ) :   1.2569
B(  2-C ,  6-C ) :   1.0182 B(  3-C ,  4-C ) :   1.5660 B(  3-C ,  5-H ) :   0.9946
B(  4-C , 20-C ) :   1.0110 B(  6-C ,  7-H ) :   0.9421 B(  6-C ,  8-H ) :   0.9460
B(  6-C ,  9-C ) :   1.0625 B(  9-C , 10-H ) :   0.9530 B(  9-C , 11-H ) :   0.9582
B(  9-C , 12-C ) :   1.0847 B( 12-C , 13-H ) :   0.9732 B( 12-C , 14-H ) :   0.9748
B( 12-C , 15-H ) :   0.9721 B( 16-S , 17-C ) :   1.1403 B( 16-S , 20-C ) :   1.1572
B( 17-C , 18-C ) :   1.6066 B( 17-C , 20-C ) :   0.1026 B( 17-C , 33-H ) :   0.9765
B( 18-C , 19-C ) :   1.2284 B( 18-C , 21-H ) :   1.0040 B( 19-C , 20-C ) :   1.6001
B( 19-C , 22-C ) :   1.0323 B( 22-C , 23-H ) :   0.9237 B( 22-C , 24-H ) :   0.9417
B( 22-C , 25-C ) :   1.0545 B( 25-C , 26-H ) :   0.9618 B( 25-C , 27-H ) :   0.9508
B( 25-C , 28-C ) :   1.0767 B( 28-C , 29-H ) :   0.9761 B( 28-C , 30-H ) :   0.9720
B( 28-C , 31-H ) :   0.9726

Dispersion correction           -0.013540166
FINAL SINGLE POINT ENERGY     -1339.870284995508

DIPOLE MOMENT
-------------
                                X             Y             Z
Electronic contribution:      2.49410      -6.25796      30.51358
Nuclear contribution   :     -2.42836       6.12361     -31.20966
                        -----------------------------------------
Total Dipole Moment    :      0.06574      -0.13435      -0.69608
                        -----------------------------------------
Magnitude (a.u.)       :      0.71197
Magnitude (Debye)      :      1.80969

Rotational constants in cm-1:     0.016586     0.008510     0.006253
Rotational constants in MHz :   497.232464   255.138085   187.470774

                             ****ORCA TERMINATED NORMALLY****
TOTAL RUN TIME: 0 days 0 hours 0 minutes 20 seconds 975 msec
