                         Program Version 4.2.1 -  RELEASE  -
|  1> ! wB97X-D3 SP def2-SVP
|  2> %pal
|  3> nprocs 24
|  4> end
|  5>
|  6> * xyz 0 1
|  7> S 	 32.8101 	 -28.7575 	 -113.603
|  8> C 	 33.1701 	 -28.2178 	 -112.006
|  9> C 	 33.6792 	 -29.209 	 -111.162
| 10> C 	 33.9926 	 -30.3615 	 -111.951
| 11> C 	 33.5484 	 -30.348 	 -113.253
| 12> H 	 34.4554 	 -31.252 	 -111.692
| 13> C 	 33.8467 	 -29.2626 	 -109.651
| 14> H 	 33.8254 	 -30.3033 	 -109.245
| 15> H 	 33.0233 	 -28.7307 	 -109.187
| 16> C 	 35.1764 	 -28.7871 	 -109.149
| 17> H 	 35.1603 	 -27.657 	 -109.206
| 18> H 	 35.1567 	 -29.0415 	 -108.089
| 19> C 	 36.4956 	 -29.251 	 -109.821
| 20> H 	 36.601 	 -30.2193 	 -110.185
| 21> H 	 36.6704 	 -28.6624 	 -110.727
| 22> H 	 37.3175 	 -29.0305 	 -109.108
| 23> S 	 34.1477 	 -30.6603 	 -116.036
| 24> C 	 34.1241 	 -32.2981 	 -116.718
| 25> C 	 34.0443 	 -33.2164 	 -115.705
| 26> C 	 33.7225 	 -32.6669 	 -114.418
| 27> C 	 33.7578 	 -31.2886 	 -114.393
| 28> H 	 34.117 	 -34.293 	 -115.82
| 29> C 	 33.4687 	 -33.6183 	 -113.237
| 30> H 	 32.8587 	 -34.4136 	 -113.652
| 31> H 	 32.9557 	 -33.0302 	 -112.432
| 32> C 	 34.7157 	 -34.2813 	 -112.66
| 33> H 	 35.3436 	 -33.4364 	 -112.336
| 34> H 	 35.3229 	 -34.9767 	 -113.319
| 35> C 	 34.3158 	 -35.2583 	 -111.598
| 36> H 	 35.2428 	 -35.5922 	 -111.073
| 37> H 	 34.0218 	 -36.2533 	 -111.888
| 38> H 	 33.5927 	 -34.9587 	 -110.826
| 39> H 	 32.7591 	 -27.3792 	 -111.561
| 40> H 	 34.5827 	 -32.693 	 -117.707
| 41> *
| 42>
| 43>                          ****END OF INPUT****

CARTESIAN COORDINATES (ANGSTROEM)
---------------------------------
  S     32.810100  -28.757500  -113.603000
  C     33.170100  -28.217800  -112.006000
  C     33.679200  -29.209000  -111.162000
  C     33.992600  -30.361500  -111.951000
  C     33.548400  -30.348000  -113.253000
  H     34.455400  -31.252000  -111.692000
  C     33.846700  -29.262600  -109.651000
  H     33.825400  -30.303300  -109.245000
  H     33.023300  -28.730700  -109.187000
  C     35.176400  -28.787100  -109.149000
  H     35.160300  -27.657000  -109.206000
  H     35.156700  -29.041500  -108.089000
  C     36.495600  -29.251000  -109.821000
  H     36.601000  -30.219300  -110.185000
  H     36.670400  -28.662400  -110.727000
  H     37.317500  -29.030500  -109.108000
  S     34.147700  -30.660300  -116.036000
  C     34.124100  -32.298100  -116.718000
  C     34.044300  -33.216400  -115.705000
  C     33.722500  -32.666900  -114.418000
  C     33.757800  -31.288600  -114.393000
  H     34.117000  -34.293000  -115.820000
  C     33.468700  -33.618300  -113.237000
  H     32.858700  -34.413600  -113.652000
  H     32.955700  -33.030200  -112.432000
  C     34.715700  -34.281300  -112.660000
  H     35.343600  -33.436400  -112.336000
  H     35.322900  -34.976700  -113.319000
  C     34.315800  -35.258300  -111.598000
  H     35.242800  -35.592200  -111.073000
  H     34.021800  -36.253300  -111.888000
  H     33.592700  -34.958700  -110.826000
  H     32.759100  -27.379200  -111.561000
  H     34.582700  -32.693000  -117.707000

 Total Charge           Charge          ....    0
 Multiplicity           Mult            ....    1
 Number of Electrons    NEL             ....  134
 Basis Dimension        Dim             ....  322

ORBITAL ENERGIES
----------------

  NO   OCC          E(Eh)            E(eV)
   0   2.0000     -88.967566     -2420.9306
   1   2.0000     -88.966872     -2420.9117
   2   2.0000     -10.334969      -281.2288
   3   2.0000     -10.334490      -281.2158
   4   2.0000     -10.325002      -280.9576
   5   2.0000     -10.311119      -280.5798
   6   2.0000     -10.306028      -280.4413
   7   2.0000     -10.301581      -280.3203
   8   2.0000     -10.296896      -280.1928
   9   2.0000     -10.296388      -280.1790
  10   2.0000     -10.296143      -280.1723
  11   2.0000     -10.293826      -280.1092
  12   2.0000     -10.291480      -280.0454
  13   2.0000     -10.290371      -280.0152
  14   2.0000     -10.280118      -279.7362
  15   2.0000     -10.276341      -279.6335
  16   2.0000      -8.081435      -219.9070
  17   2.0000      -8.080880      -219.8919
  18   2.0000      -6.039990      -164.3565
  19   2.0000      -6.039744      -164.3498
  20   2.0000      -6.035944      -164.2464
  21   2.0000      -6.035695      -164.2396
  22   2.0000      -6.032184      -164.1441
  23   2.0000      -6.031199      -164.1173
  24   2.0000      -1.002237       -27.2722
  25   2.0000      -0.981862       -26.7178
  26   2.0000      -0.915204       -24.9040
  27   2.0000      -0.913593       -24.8601
  28   2.0000      -0.866950       -23.5909
  29   2.0000      -0.852925       -23.2093
  30   2.0000      -0.845076       -22.9957
  31   2.0000      -0.816806       -22.2264
  32   2.0000      -0.789090       -21.4722
  33   2.0000      -0.775903       -21.1134
  34   2.0000      -0.704082       -19.1590
  35   2.0000      -0.700262       -19.0551
  36   2.0000      -0.691496       -18.8166
  37   2.0000      -0.663104       -18.0440
  38   2.0000      -0.647379       -17.6161
  39   2.0000      -0.614676       -16.7262
  40   2.0000      -0.590496       -16.0682
  41   2.0000      -0.576481       -15.6869
  42   2.0000      -0.573147       -15.5961
  43   2.0000      -0.548713       -14.9312
  44   2.0000      -0.543154       -14.7800
  45   2.0000      -0.524531       -14.2732
  46   2.0000      -0.518556       -14.1106
  47   2.0000      -0.510623       -13.8948
  48   2.0000      -0.501725       -13.6526
  49   2.0000      -0.497718       -13.5436
  50   2.0000      -0.491296       -13.3689
  51   2.0000      -0.477100       -12.9825
  52   2.0000      -0.475749       -12.9458
  53   2.0000      -0.466731       -12.7004
  54   2.0000      -0.456279       -12.4160
  55   2.0000      -0.453596       -12.3430
  56   2.0000      -0.442989       -12.0543
  57   2.0000      -0.439087       -11.9482
  58   2.0000      -0.433929       -11.8078
  59   2.0000      -0.423050       -11.5118
  60   2.0000      -0.421711       -11.4753
  61   2.0000      -0.409936       -11.1549
  62   2.0000      -0.406740       -11.0680
  63   2.0000      -0.357031        -9.7153
  64   2.0000      -0.330776        -9.0009
  65   2.0000      -0.329170        -8.9572
  66   2.0000      -0.291357        -7.9282
  67   0.0000       0.025088         0.6827
  68   0.0000       0.069882         1.9016
  69   0.0000       0.098472         2.6796
  70   0.0000       0.110678         3.0117
  71   0.0000       0.126597         3.4449

MULLIKEN ATOMIC CHARGES
-----------------------
   0 S :    0.104569
   1 C :   -0.067952
   2 C :   -0.096493
   3 C :    0.053843
   4 C :   -0.161302
   5 H :   -0.042110
   6 C :    0.071449
   7 H :    0.032026
   8 H :    0.030141
   9 C :   -0.102880
  10 H :    0.032241
  11 H :    0.030711
  12 C :   -0.032958
  13 H :    0.016567
  14 H :    0.038400
  15 H :    0.041270
  16 S :    0.096627
  17 C :   -0.103176
  18 C :   -0.036364
  19 C :   -0.056604
  20 C :   -0.124650
  21 H :    0.018597
  22 C :    0.044219
  23 H :    0.023941
  24 H :    0.045384
  25 C :   -0.076580
  26 H :    0.039731
  27 H :    0.039687
  28 C :   -0.053291
  29 H :    0.024303
  30 H :    0.024079
  31 H :    0.032988
  32 H :    0.020603
  33 H :    0.092984
Sum of atomic charges:   -0.0000000

LOEWDIN ATOMIC CHARGES
----------------------
   0 S :    0.401049
   1 C :   -0.192723
   2 C :   -0.056314
   3 C :   -0.056088
   4 C :   -0.172826
   5 H :    0.014783
   6 C :   -0.034856
   7 H :    0.037335
   8 H :    0.032870
   9 C :   -0.045299
  10 H :    0.027710
  11 H :    0.022272
  12 C :   -0.066780
  13 H :    0.013078
  14 H :    0.032639
  15 H :    0.035480
  16 S :    0.372360
  17 C :   -0.200948
  18 C :   -0.069211
  19 C :   -0.062006
  20 C :   -0.184286
  21 H :    0.029277
  22 C :   -0.032206
  23 H :    0.030080
  24 H :    0.037450
  25 C :   -0.046634
  26 H :    0.024259
  27 H :    0.036573
  28 C :   -0.077726
  29 H :    0.032889
  30 H :    0.024289
  31 H :    0.023462
  32 H :    0.012482
  33 H :    0.057565

  Mayer bond orders larger than 0.100000
B(  0-S ,  1-C ) :   1.1525 B(  0-S ,  4-C ) :   1.1321 B(  1-C ,  2-C ) :   1.6186
B(  1-C , 32-H ) :   0.9634 B(  2-C ,  3-C ) :   1.2147 B(  2-C ,  6-C ) :   1.0157
B(  3-C ,  4-C ) :   1.6077 B(  3-C ,  5-H ) :   0.9953 B(  4-C , 20-C ) :   1.0272
B(  6-C ,  7-H ) :   0.9456 B(  6-C ,  8-H ) :   0.9383 B(  6-C ,  9-C ) :   1.0812
B(  9-C , 10-H ) :   0.9543 B(  9-C , 11-H ) :   0.9615 B(  9-C , 12-C ) :   1.0710
B( 12-C , 13-H ) :   0.9778 B( 12-C , 14-H ) :   0.9698 B( 12-C , 15-H ) :   0.9737
B( 16-S , 17-C ) :   1.1257 B( 16-S , 20-C ) :   1.1159 B( 17-C , 18-C ) :   1.6403
B( 17-C , 33-H ) :   0.9479 B( 18-C , 19-C ) :   1.2373 B( 18-C , 21-H ) :   0.9800
B( 19-C , 20-C ) :   1.6246 B( 19-C , 22-C ) :   1.0478 B( 22-C , 23-H ) :   0.9306
B( 22-C , 24-H ) :   0.9317 B( 22-C , 25-C ) :   1.0720 B( 25-C , 26-H ) :   0.9531
B( 25-C , 27-H ) :   0.9493 B( 25-C , 28-C ) :   1.0790 B( 28-C , 29-H ) :   0.9672
B( 28-C , 30-H ) :   0.9724 B( 28-C , 31-H ) :   0.9728

Dispersion correction           -0.014306659
FINAL SINGLE POINT ENERGY     -1339.857303166121

DIPOLE MOMENT
-------------
                                X             Y             Z
Electronic contribution:     -9.96008      13.85500     -24.81625
Nuclear contribution   :     10.19542     -14.47620      25.46345
                        -----------------------------------------
Total Dipole Moment    :      0.23534      -0.62120       0.64721
                        -----------------------------------------
Magnitude (a.u.)       :      0.92744
Magnitude (Debye)      :      2.35737

Rotational constants in cm-1:     0.016545     0.009614     0.006850
Rotational constants in MHz :   496.011226   288.219829   205.359669

                             ****ORCA TERMINATED NORMALLY****
TOTAL RUN TIME: 0 days 0 hours 0 minutes 21 seconds 863 msec
