                         Program Version 4.2.1 -  RELEASE  -
|  1> ! wB97X-D3 SP def2-SVP
|  2> %pal
|  3> nprocs 24
|  4> end
|  5>
|  6> * xyz 0 1
|  7> S 	 -101.827 	 15.0998 	 -121.413
|  8> C 	 -102.556 	 16.0489 	 -122.641
|  9> C 	 -102.337 	 15.5765 	 -123.939
| 10> C 	 -101.767 	 14.2733 	 -123.821
| 11> C 	 -101.476 	 13.824 	 -122.539
| 12> H 	 -101.575 	 13.6984 	 -124.707
| 13> C 	 -102.793 	 16.2644 	 -125.199
| 14> H 	 -103.603 	 16.9381 	 -125.02
| 15> H 	 -103.25 	 15.5497 	 -125.893
| 16> C 	 -101.643 	 16.9273 	 -126.019
| 17> H 	 -101.188 	 16.1154 	 -126.674
| 18> H 	 -102.129 	 17.679 	 -126.575
| 19> C 	 -100.722 	 17.7447 	 -125.17
| 20> H 	 -99.8607 	 17.0831 	 -124.986
| 21> H 	 -100.236 	 18.5584 	 -125.872
| 22> H 	 -101.161 	 18.1453 	 -124.226
| 23> S 	 -101.779 	 11.2021 	 -121.716
| 24> C 	 -100.265 	 10.2747 	 -121.527
| 25> C 	 -99.123 	 10.9988 	 -121.772
| 26> C 	 -99.4487 	 12.3875 	 -121.997
| 27> C 	 -100.813 	 12.6367 	 -122.074
| 28> H 	 -98.1266 	 10.5934 	 -121.829
| 29> C 	 -98.3283 	 13.3701 	 -122.36
| 30> H 	 -98.798 	 14.2554 	 -122.693
| 31> H 	 -97.9358 	 13.066 	 -123.28
| 32> C 	 -97.104 	 13.5897 	 -121.408
| 33> H 	 -96.2869 	 14.1559 	 -121.872
| 34> H 	 -96.6463 	 12.6776 	 -121.082
| 35> C 	 -97.5255 	 14.3737 	 -120.171
| 36> H 	 -98.2416 	 13.8852 	 -119.582
| 37> H 	 -97.9485 	 15.3628 	 -120.437
| 38> H 	 -96.6266 	 14.4338 	 -119.564
| 39> H 	 -103.007 	 16.9652 	 -122.407
| 40> H 	 -100.259 	 9.17789 	 -121.401
| 41> *
| 42>
| 43>                          ****END OF INPUT****

CARTESIAN COORDINATES (ANGSTROEM)
---------------------------------
  S    -101.827000   15.099800  -121.413000
  C    -102.556000   16.048900  -122.641000
  C    -102.337000   15.576500  -123.939000
  C    -101.767000   14.273300  -123.821000
  C    -101.476000   13.824000  -122.539000
  H    -101.575000   13.698400  -124.707000
  C    -102.793000   16.264400  -125.199000
  H    -103.603000   16.938100  -125.020000
  H    -103.250000   15.549700  -125.893000
  C    -101.643000   16.927300  -126.019000
  H    -101.188000   16.115400  -126.674000
  H    -102.129000   17.679000  -126.575000
  C    -100.722000   17.744700  -125.170000
  H    -99.860700   17.083100  -124.986000
  H    -100.236000   18.558400  -125.872000
  H    -101.161000   18.145300  -124.226000
  S    -101.779000   11.202100  -121.716000
  C    -100.265000   10.274700  -121.527000
  C    -99.123000   10.998800  -121.772000
  C    -99.448700   12.387500  -121.997000
  C    -100.813000   12.636700  -122.074000
  H    -98.126600   10.593400  -121.829000
  C    -98.328300   13.370100  -122.360000
  H    -98.798000   14.255400  -122.693000
  H    -97.935800   13.066000  -123.280000
  C    -97.104000   13.589700  -121.408000
  H    -96.286900   14.155900  -121.872000
  H    -96.646300   12.677600  -121.082000
  C    -97.525500   14.373700  -120.171000
  H    -98.241600   13.885200  -119.582000
  H    -97.948500   15.362800  -120.437000
  H    -96.626600   14.433800  -119.564000
  H    -103.007000   16.965200  -122.407000
  H    -100.259000    9.177890  -121.401000

 Total Charge           Charge          ....    0
 Multiplicity           Mult            ....    1
 Number of Electrons    NEL             ....  134
 Basis Dimension        Dim             ....  322

ORBITAL ENERGIES
----------------

  NO   OCC          E(Eh)            E(eV)
   0   2.0000     -88.965959     -2420.8868
   1   2.0000     -88.963447     -2420.8185
   2   2.0000     -10.324041      -280.9314
   3   2.0000     -10.323495      -280.9166
   4   2.0000     -10.321876      -280.8725
   5   2.0000     -10.308427      -280.5066
   6   2.0000     -10.305591      -280.4294
   7   2.0000     -10.300674      -280.2956
   8   2.0000     -10.294740      -280.1341
   9   2.0000     -10.294319      -280.1227
  10   2.0000     -10.291618      -280.0492
  11   2.0000     -10.286345      -279.9057
  12   2.0000     -10.286281      -279.9039
  13   2.0000     -10.284725      -279.8616
  14   2.0000     -10.281810      -279.7823
  15   2.0000     -10.266127      -279.3555
  16   2.0000      -8.079983      -219.8675
  17   2.0000      -8.079122      -219.8441
  18   2.0000      -6.038589      -164.3184
  19   2.0000      -6.037394      -164.2859
  20   2.0000      -6.034739      -164.2136
  21   2.0000      -6.033440      -164.1783
  22   2.0000      -6.030535      -164.0992
  23   2.0000      -6.030134      -164.0883
  24   2.0000      -1.006050       -27.3760
  25   2.0000      -0.981137       -26.6981
  26   2.0000      -0.915116       -24.9016
  27   2.0000      -0.903006       -24.5720
  28   2.0000      -0.869428       -23.6583
  29   2.0000      -0.848505       -23.0890
  30   2.0000      -0.847789       -23.0695
  31   2.0000      -0.812822       -22.1180
  32   2.0000      -0.785996       -21.3880
  33   2.0000      -0.770718       -20.9723
  34   2.0000      -0.706157       -19.2155
  35   2.0000      -0.696242       -18.9457
  36   2.0000      -0.686332       -18.6760
  37   2.0000      -0.659168       -17.9369
  38   2.0000      -0.643441       -17.5089
  39   2.0000      -0.621909       -16.9230
  40   2.0000      -0.595943       -16.2164
  41   2.0000      -0.566870       -15.4253
  42   2.0000      -0.560821       -15.2607
  43   2.0000      -0.549613       -14.9557
  44   2.0000      -0.544596       -14.8192
  45   2.0000      -0.539502       -14.6806
  46   2.0000      -0.518447       -14.1077
  47   2.0000      -0.513456       -13.9719
  48   2.0000      -0.497952       -13.5500
  49   2.0000      -0.495934       -13.4951
  50   2.0000      -0.490306       -13.3419
  51   2.0000      -0.474695       -12.9171
  52   2.0000      -0.464579       -12.6419
  53   2.0000      -0.462109       -12.5746
  54   2.0000      -0.459021       -12.4906
  55   2.0000      -0.447268       -12.1708
  56   2.0000      -0.441279       -12.0078
  57   2.0000      -0.434737       -11.8298
  58   2.0000      -0.428213       -11.6523
  59   2.0000      -0.425243       -11.5715
  60   2.0000      -0.421992       -11.4830
  61   2.0000      -0.416105       -11.3228
  62   2.0000      -0.407319       -11.0837
  63   2.0000      -0.335542        -9.1306
  64   2.0000      -0.330100        -8.9825
  65   2.0000      -0.315847        -8.5946
  66   2.0000      -0.309850        -8.4314
  67   0.0000       0.048090         1.3086
  68   0.0000       0.049810         1.3554
  69   0.0000       0.110677         3.0117
  70   0.0000       0.119255         3.2451
  71   0.0000       0.124977         3.4008

MULLIKEN ATOMIC CHARGES
-----------------------
   0 S :    0.126170
   1 C :   -0.107881
   2 C :   -0.090121
   3 C :    0.054900
   4 C :   -0.193059
   5 H :   -0.002940
   6 C :    0.063052
   7 H :    0.016641
   8 H :    0.027073
   9 C :   -0.076046
  10 H :    0.049814
  11 H :    0.020621
  12 C :   -0.076789
  13 H :    0.033668
  14 H :    0.042617
  15 H :    0.051269
  16 S :    0.111693
  17 C :   -0.099168
  18 C :   -0.020315
  19 C :   -0.018724
  20 C :   -0.180418
  21 H :    0.024086
  22 C :    0.108501
  23 H :    0.001982
  24 H :    0.008836
  25 C :   -0.058026
  26 H :    0.029595
  27 H :    0.017299
  28 C :   -0.040347
  29 H :    0.025116
  30 H :    0.033771
  31 H :    0.025717
  32 H :    0.025775
  33 H :    0.065641
Sum of atomic charges:   -0.0000000

LOEWDIN ATOMIC CHARGES
----------------------
   0 S :    0.432623
   1 C :   -0.193992
   2 C :   -0.064664
   3 C :   -0.051999
   4 C :   -0.211237
   5 H :    0.026418
   6 C :   -0.032848
   7 H :    0.027016
   8 H :    0.033723
   9 C :   -0.047148
  10 H :    0.033068
  11 H :    0.019617
  12 C :   -0.079249
  13 H :    0.028262
  14 H :    0.036775
  15 H :    0.032178
  16 S :    0.386711
  17 C :   -0.171240
  18 C :   -0.067541
  19 C :   -0.041518
  20 C :   -0.212008
  21 H :    0.033230
  22 C :   -0.030198
  23 H :    0.024282
  24 H :    0.026704
  25 C :   -0.033541
  26 H :    0.028447
  27 H :    0.017850
  28 C :   -0.061145
  29 H :    0.016464
  30 H :    0.027575
  31 H :    0.024527
  32 H :    0.010810
  33 H :    0.032046

  Mayer bond orders larger than 0.100000
B(  0-S ,  1-C ) :   1.1792 B(  0-S ,  4-C ) :   1.1603 B(  1-C ,  2-C ) :   1.5652
B(  1-C ,  4-C ) :   0.1020 B(  1-C , 32-H ) :   0.9709 B(  2-C ,  3-C ) :   1.2673
B(  2-C ,  6-C ) :   1.0313 B(  3-C ,  4-C ) :   1.5667 B(  3-C ,  5-H ) :   1.0034
B(  4-C , 20-C ) :   1.0193 B(  6-C ,  7-H ) :   0.9425 B(  6-C ,  8-H ) :   0.9435
B(  6-C ,  9-C ) :   1.0688 B(  9-C , 10-H ) :   0.9592 B(  9-C , 11-H ) :   0.9584
B(  9-C , 12-C ) :   1.0715 B( 12-C , 13-H ) :   0.9702 B( 12-C , 14-H ) :   0.9758
B( 12-C , 15-H ) :   0.9713 B( 16-S , 17-C ) :   1.1427 B( 16-S , 20-C ) :   1.1254
B( 17-C , 18-C ) :   1.6370 B( 17-C , 33-H ) :   0.9615 B( 18-C , 19-C ) :   1.2121
B( 18-C , 21-H ) :   0.9905 B( 19-C , 20-C ) :   1.6252 B( 19-C , 22-C ) :   1.0388
B( 22-C , 23-H ) :   0.9264 B( 22-C , 24-H ) :   0.9285 B( 22-C , 25-C ) :   1.0647
B( 25-C , 26-H ) :   0.9553 B( 25-C , 27-H ) :   0.9570 B( 25-C , 28-C ) :   1.0789
B( 28-C , 29-H ) :   0.9787 B( 28-C , 30-H ) :   0.9749 B( 28-C , 31-H ) :   0.9737

Dispersion correction           -0.015150897
FINAL SINGLE POINT ENERGY     -1339.866926549872

DIPOLE MOMENT
-------------
                                X             Y             Z
Electronic contribution:    -14.96849     -15.92490      10.37858
Nuclear contribution   :     15.35411      16.08254     -10.93791
                        -----------------------------------------
Total Dipole Moment    :      0.38563       0.15764      -0.55933
                        -----------------------------------------
Magnitude (a.u.)       :      0.69743
Magnitude (Debye)      :      1.77273

Rotational constants in cm-1:     0.019396     0.008767     0.007384
Rotational constants in MHz :   581.488086   262.835552   221.367060

                             ****ORCA TERMINATED NORMALLY****
TOTAL RUN TIME: 0 days 0 hours 0 minutes 21 seconds 990 msec
