                         Program Version 4.2.1 -  RELEASE  -
|  1> ! wB97X-D3 SP def2-SVP
|  2> %pal
|  3> nprocs 24
|  4> end
|  5>
|  6> * xyz 0 1
|  7> S 	 -131.147 	 60.647 	 -61.4255
|  8> C 	 -131.377 	 62.3858 	 -61.6784
|  9> C 	 -131.779 	 62.9999 	 -60.4862
| 10> C 	 -131.879 	 62.0353 	 -59.4129
| 11> C 	 -131.608 	 60.695 	 -59.7349
| 12> H 	 -132.073 	 62.1865 	 -58.3581
| 13> C 	 -132.447 	 64.391 	 -60.4508
| 14> H 	 -131.89 	 65.1756 	 -61.064
| 15> H 	 -132.414 	 64.8342 	 -59.4782
| 16> C 	 -133.911 	 64.4408 	 -60.8701
| 17> H 	 -134.498 	 63.8111 	 -60.2421
| 18> H 	 -134.294 	 65.4436 	 -60.7214
| 19> C 	 -134.282 	 64.0991 	 -62.3546
| 20> H 	 -135.293 	 63.95 	 -62.6231
| 21> H 	 -134.04 	 64.8847 	 -62.9649
| 22> H 	 -133.887 	 63.1628 	 -62.8172
| 23> S 	 -132.26 	 57.992 	 -59.8332
| 24> C 	 -132.373 	 57.0681 	 -58.3426
| 25> C 	 -132.174 	 57.8755 	 -57.2708
| 26> C 	 -131.87 	 59.2098 	 -57.556
| 27> C 	 -131.848 	 59.4709 	 -58.9436
| 28> H 	 -132.165 	 57.4377 	 -56.2773
| 29> C 	 -131.941 	 60.2065 	 -56.3965
| 30> H 	 -131.508 	 61.1442 	 -56.7327
| 31> H 	 -131.414 	 59.7427 	 -55.5871
| 32> C 	 -133.395 	 60.6676 	 -56.0204
| 33> H 	 -133.973 	 59.83 	 -55.6834
| 34> H 	 -134.002 	 61.086 	 -56.8201
| 35> C 	 -133.522 	 61.5779 	 -54.7558
| 36> H 	 -132.896 	 61.1708 	 -53.9411
| 37> H 	 -134.523 	 61.7031 	 -54.4192
| 38> H 	 -133.155 	 62.5854 	 -55.0001
| 39> H 	 -131.331 	 62.9444 	 -62.6402
| 40> H 	 -132.596 	 56.015 	 -58.3586
| 41> *
| 42>
| 43>                          ****END OF INPUT****

CARTESIAN COORDINATES (ANGSTROEM)
---------------------------------
  S    -131.147000   60.647000  -61.425500
  C    -131.377000   62.385800  -61.678400
  C    -131.779000   62.999900  -60.486200
  C    -131.879000   62.035300  -59.412900
  C    -131.608000   60.695000  -59.734900
  H    -132.073000   62.186500  -58.358100
  C    -132.447000   64.391000  -60.450800
  H    -131.890000   65.175600  -61.064000
  H    -132.414000   64.834200  -59.478200
  C    -133.911000   64.440800  -60.870100
  H    -134.498000   63.811100  -60.242100
  H    -134.294000   65.443600  -60.721400
  C    -134.282000   64.099100  -62.354600
  H    -135.293000   63.950000  -62.623100
  H    -134.040000   64.884700  -62.964900
  H    -133.887000   63.162800  -62.817200
  S    -132.260000   57.992000  -59.833200
  C    -132.373000   57.068100  -58.342600
  C    -132.174000   57.875500  -57.270800
  C    -131.870000   59.209800  -57.556000
  C    -131.848000   59.470900  -58.943600
  H    -132.165000   57.437700  -56.277300
  C    -131.941000   60.206500  -56.396500
  H    -131.508000   61.144200  -56.732700
  H    -131.414000   59.742700  -55.587100
  C    -133.395000   60.667600  -56.020400
  H    -133.973000   59.830000  -55.683400
  H    -134.002000   61.086000  -56.820100
  C    -133.522000   61.577900  -54.755800
  H    -132.896000   61.170800  -53.941100
  H    -134.523000   61.703100  -54.419200
  H    -133.155000   62.585400  -55.000100
  H    -131.331000   62.944400  -62.640200
  H    -132.596000   56.015000  -58.358600

 Total Charge           Charge          ....    0
 Multiplicity           Mult            ....    1
 Number of Electrons    NEL             ....  134
 Basis Dimension        Dim             ....  322

ORBITAL ENERGIES
----------------

  NO   OCC          E(Eh)            E(eV)
   0   2.0000     -88.968172     -2420.9470
   1   2.0000     -88.967077     -2420.9172
   2   2.0000     -10.338370      -281.3214
   3   2.0000     -10.336768      -281.2778
   4   2.0000     -10.322660      -280.8939
   5   2.0000     -10.317362      -280.7497
   6   2.0000     -10.310020      -280.5499
   7   2.0000     -10.305542      -280.4280
   8   2.0000     -10.300265      -280.2845
   9   2.0000     -10.299536      -280.2646
  10   2.0000     -10.299479      -280.2631
  11   2.0000     -10.290994      -280.0322
  12   2.0000     -10.289315      -279.9865
  13   2.0000     -10.287644      -279.9410
  14   2.0000     -10.281278      -279.7678
  15   2.0000     -10.267686      -279.3979
  16   2.0000      -8.082186      -219.9275
  17   2.0000      -8.081500      -219.9088
  18   2.0000      -6.040827      -164.3793
  19   2.0000      -6.040053      -164.3582
  20   2.0000      -6.036684      -164.2665
  21   2.0000      -6.036035      -164.2489
  22   2.0000      -6.032936      -164.1645
  23   2.0000      -6.032244      -164.1457
  24   2.0000      -1.004443       -27.3323
  25   2.0000      -0.982198       -26.7270
  26   2.0000      -0.908444       -24.7200
  27   2.0000      -0.905616       -24.6431
  28   2.0000      -0.867462       -23.6048
  29   2.0000      -0.853148       -23.2153
  30   2.0000      -0.840649       -22.8752
  31   2.0000      -0.813941       -22.1485
  32   2.0000      -0.789330       -21.4788
  33   2.0000      -0.777816       -21.1654
  34   2.0000      -0.709287       -19.3007
  35   2.0000      -0.701831       -19.0978
  36   2.0000      -0.695733       -18.9319
  37   2.0000      -0.665459       -18.1080
  38   2.0000      -0.639911       -17.4129
  39   2.0000      -0.616907       -16.7869
  40   2.0000      -0.598379       -16.2827
  41   2.0000      -0.571624       -15.5547
  42   2.0000      -0.567133       -15.4325
  43   2.0000      -0.548768       -14.9327
  44   2.0000      -0.538150       -14.6438
  45   2.0000      -0.525591       -14.3021
  46   2.0000      -0.518233       -14.1018
  47   2.0000      -0.516738       -14.0612
  48   2.0000      -0.503625       -13.7043
  49   2.0000      -0.498544       -13.5661
  50   2.0000      -0.488964       -13.3054
  51   2.0000      -0.481111       -13.0917
  52   2.0000      -0.468967       -12.7612
  53   2.0000      -0.465362       -12.6631
  54   2.0000      -0.460901       -12.5418
  55   2.0000      -0.452294       -12.3075
  56   2.0000      -0.444173       -12.0866
  57   2.0000      -0.440643       -11.9905
  58   2.0000      -0.434987       -11.8366
  59   2.0000      -0.422887       -11.5073
  60   2.0000      -0.420666       -11.4469
  61   2.0000      -0.411394       -11.1946
  62   2.0000      -0.410781       -11.1779
  63   2.0000      -0.359625        -9.7859
  64   2.0000      -0.334980        -9.1153
  65   2.0000      -0.329700        -8.9716
  66   2.0000      -0.284630        -7.7452
  67   0.0000       0.016670         0.4536
  68   0.0000       0.078033         2.1234
  69   0.0000       0.105351         2.8667
  70   0.0000       0.117017         3.1842
  71   0.0000       0.130071         3.5394

MULLIKEN ATOMIC CHARGES
-----------------------
   0 S :    0.098242
   1 C :   -0.129831
   2 C :   -0.053018
   3 C :    0.005469
   4 C :   -0.125407
   5 H :   -0.004597
   6 C :    0.042908
   7 H :    0.032461
   8 H :    0.019212
   9 C :   -0.032629
  10 H :    0.021803
  11 H :    0.027031
  12 C :   -0.045862
  13 H :    0.012515
  14 H :    0.004221
  15 H :    0.033435
  16 S :    0.092435
  17 C :   -0.092745
  18 C :   -0.024640
  19 C :   -0.034699
  20 C :   -0.139987
  21 H :    0.020201
  22 C :    0.077465
  23 H :    0.022308
  24 H :    0.026778
  25 C :   -0.082335
  26 H :    0.015884
  27 H :    0.037363
  28 C :   -0.049072
  29 H :    0.033409
  30 H :    0.034030
  31 H :    0.025146
  32 H :    0.073664
  33 H :    0.058845
Sum of atomic charges:   -0.0000000

LOEWDIN ATOMIC CHARGES
----------------------
   0 S :    0.396598
   1 C :   -0.192113
   2 C :   -0.064916
   3 C :   -0.069617
   4 C :   -0.190283
   5 H :    0.025410
   6 C :   -0.033270
   7 H :    0.036498
   8 H :    0.028247
   9 C :   -0.030244
  10 H :    0.019728
  11 H :    0.027703
  12 C :   -0.073405
  13 H :    0.024528
  14 H :    0.010778
  15 H :    0.030665
  16 S :    0.393844
  17 C :   -0.175792
  18 C :   -0.072816
  19 C :   -0.060549
  20 C :   -0.183237
  21 H :    0.034380
  22 C :   -0.021202
  23 H :    0.025416
  24 H :    0.030406
  25 C :   -0.041136
  26 H :    0.019120
  27 H :    0.026335
  28 C :   -0.062839
  29 H :    0.027195
  30 H :    0.023015
  31 H :    0.020724
  32 H :    0.041600
  33 H :    0.029231

  Mayer bond orders larger than 0.100000
B(  0-S ,  1-C ) :   1.1411 B(  0-S ,  4-C ) :   1.1430 B(  1-C ,  2-C ) :   1.5946
B(  1-C , 32-H ) :   0.9598 B(  2-C ,  3-C ) :   1.2462 B(  2-C ,  6-C ) :   1.0372
B(  3-C ,  4-C ) :   1.5646 B(  3-C ,  5-H ) :   0.9880 B(  4-C , 20-C ) :   1.0670
B(  6-C ,  7-H ) :   0.9435 B(  6-C ,  8-H ) :   0.9381 B(  6-C ,  9-C ) :   1.0738
B(  9-C , 10-H ) :   0.9573 B(  9-C , 11-H ) :   0.9537 B(  9-C , 12-C ) :   1.0693
B( 12-C , 13-H ) :   0.9709 B( 12-C , 14-H ) :   0.9762 B( 12-C , 15-H ) :   0.9716
B( 16-S , 17-C ) :   1.1478 B( 16-S , 20-C ) :   1.1485 B( 17-C , 18-C ) :   1.5951
B( 17-C , 20-C ) :   0.1024 B( 17-C , 33-H ) :   0.9717 B( 18-C , 19-C ) :   1.2589
B( 18-C , 21-H ) :   0.9895 B( 19-C , 20-C ) :   1.5556 B( 19-C , 22-C ) :   1.0605
B( 22-C , 23-H ) :   0.9358 B( 22-C , 24-H ) :   0.9300 B( 22-C , 25-C ) :   1.0534
B( 25-C , 26-H ) :   0.9558 B( 25-C , 27-H ) :   0.9568 B( 25-C , 28-C ) :   1.0781
B( 28-C , 29-H ) :   0.9754 B( 28-C , 30-H ) :   0.9759 B( 28-C , 31-H ) :   0.9771

Dispersion correction           -0.014286740
FINAL SINGLE POINT ENERGY     -1339.865759123739

DIPOLE MOMENT
-------------
                                X             Y             Z
Electronic contribution:     13.01329     -21.12537     -12.43845
Nuclear contribution   :    -13.49084      21.44990      12.92147
                        -----------------------------------------
Total Dipole Moment    :     -0.47755       0.32453       0.48302
                        -----------------------------------------
Magnitude (a.u.)       :      0.75278
Magnitude (Debye)      :      1.91343

Rotational constants in cm-1:     0.017394     0.009170     0.006724
Rotational constants in MHz :   521.471407   274.906920   201.586913

                             ****ORCA TERMINATED NORMALLY****
TOTAL RUN TIME: 0 days 0 hours 0 minutes 21 seconds 464 msec
