                         Program Version 4.2.1 -  RELEASE  -
|  1> ! wB97X-D3 SP def2-SVP
|  2> %pal
|  3> nprocs 24
|  4> end
|  5>
|  6> * xyz 0 1
|  7> S 	 -107.811 	 37.3173 	 -11.9794
|  8> C 	 -106.656 	 37.79 	 -13.2077
|  9> C 	 -106.353 	 36.7497 	 -14.0213
| 10> C 	 -107.108 	 35.5345 	 -13.6687
| 11> C 	 -107.801 	 35.691 	 -12.5156
| 12> H 	 -107.061 	 34.5015 	 -14.0267
| 13> C 	 -105.377 	 36.8554 	 -15.1855
| 14> H 	 -104.789 	 37.7722 	 -15.0572
| 15> H 	 -106.021 	 37.1065 	 -16.1011
| 16> C 	 -104.463 	 35.6424 	 -15.3191
| 17> H 	 -103.848 	 35.5306 	 -14.4282
| 18> H 	 -104.943 	 34.6815 	 -15.5759
| 19> C 	 -103.47 	 35.9538 	 -16.5123
| 20> H 	 -102.731 	 35.1016 	 -16.6208
| 21> H 	 -103.977 	 36.0899 	 -17.5034
| 22> H 	 -102.922 	 36.9392 	 -16.3063
| 23> S 	 -110.353 	 35.1361 	 -12.0308
| 24> C 	 -110.846 	 33.5012 	 -11.718
| 25> C 	 -109.738 	 32.6613 	 -11.5634
| 26> C 	 -108.483 	 33.2947 	 -11.691
| 27> C 	 -108.667 	 34.6647 	 -12.0012
| 28> H 	 -109.945 	 31.5739 	 -11.3888
| 29> C 	 -107.166 	 32.5794 	 -11.5939
| 30> H 	 -106.371 	 33.1807 	 -12.0535
| 31> H 	 -107.154 	 31.5113 	 -12.0506
| 32> C 	 -106.92 	 32.2154 	 -10.107
| 33> H 	 -107.709 	 31.5106 	 -9.86044
| 34> H 	 -107.003 	 33.0258 	 -9.33329
| 35> C 	 -105.514 	 31.6057 	 -9.96102
| 36> H 	 -105.32 	 30.6468 	 -10.4697
| 37> H 	 -105.347 	 31.3268 	 -9.00321
| 38> H 	 -104.774 	 32.3466 	 -10.166
| 39> H 	 -106.048 	 38.6678 	 -13.1572
| 40> H 	 -111.867 	 33.1482 	 -11.7902
| 41> *
| 42>
| 43>                          ****END OF INPUT****

CARTESIAN COORDINATES (ANGSTROEM)
---------------------------------
  S    -107.811000   37.317300  -11.979400
  C    -106.656000   37.790000  -13.207700
  C    -106.353000   36.749700  -14.021300
  C    -107.108000   35.534500  -13.668700
  C    -107.801000   35.691000  -12.515600
  H    -107.061000   34.501500  -14.026700
  C    -105.377000   36.855400  -15.185500
  H    -104.789000   37.772200  -15.057200
  H    -106.021000   37.106500  -16.101100
  C    -104.463000   35.642400  -15.319100
  H    -103.848000   35.530600  -14.428200
  H    -104.943000   34.681500  -15.575900
  C    -103.470000   35.953800  -16.512300
  H    -102.731000   35.101600  -16.620800
  H    -103.977000   36.089900  -17.503400
  H    -102.922000   36.939200  -16.306300
  S    -110.353000   35.136100  -12.030800
  C    -110.846000   33.501200  -11.718000
  C    -109.738000   32.661300  -11.563400
  C    -108.483000   33.294700  -11.691000
  C    -108.667000   34.664700  -12.001200
  H    -109.945000   31.573900  -11.388800
  C    -107.166000   32.579400  -11.593900
  H    -106.371000   33.180700  -12.053500
  H    -107.154000   31.511300  -12.050600
  C    -106.920000   32.215400  -10.107000
  H    -107.709000   31.510600   -9.860440
  H    -107.003000   33.025800   -9.333290
  C    -105.514000   31.605700   -9.961020
  H    -105.320000   30.646800  -10.469700
  H    -105.347000   31.326800   -9.003210
  H    -104.774000   32.346600  -10.166000
  H    -106.048000   38.667800  -13.157200
  H    -111.867000   33.148200  -11.790200

 Total Charge           Charge          ....    0
 Multiplicity           Mult            ....    1
 Number of Electrons    NEL             ....  134
 Basis Dimension        Dim             ....  322

ORBITAL ENERGIES
----------------

  NO   OCC          E(Eh)            E(eV)
   0   2.0000     -88.965589     -2420.8767
   1   2.0000     -88.961394     -2420.7626
   2   2.0000     -10.325198      -280.9629
   3   2.0000     -10.320399      -280.8323
   4   2.0000     -10.315204      -280.6910
   5   2.0000     -10.306569      -280.4560
   6   2.0000     -10.306103      -280.4433
   7   2.0000     -10.302086      -280.3340
   8   2.0000     -10.300697      -280.2962
   9   2.0000     -10.299821      -280.2724
  10   2.0000     -10.297040      -280.1967
  11   2.0000     -10.294679      -280.1325
  12   2.0000     -10.293101      -280.0895
  13   2.0000     -10.291179      -280.0372
  14   2.0000     -10.289481      -279.9910
  15   2.0000     -10.266841      -279.3749
  16   2.0000      -8.080519      -219.8821
  17   2.0000      -8.077128      -219.7898
  18   2.0000      -6.038925      -164.3275
  19   2.0000      -6.035731      -164.2406
  20   2.0000      -6.034922      -164.2186
  21   2.0000      -6.031548      -164.1268
  22   2.0000      -6.031450      -164.1241
  23   2.0000      -6.027674      -164.0213
  24   2.0000      -1.011735       -27.5307
  25   2.0000      -0.984209       -26.7817
  26   2.0000      -0.911871       -24.8133
  27   2.0000      -0.908984       -24.7347
  28   2.0000      -0.872177       -23.7331
  29   2.0000      -0.853440       -23.2233
  30   2.0000      -0.840372       -22.8677
  31   2.0000      -0.812351       -22.1052
  32   2.0000      -0.780239       -21.2314
  33   2.0000      -0.766316       -20.8525
  34   2.0000      -0.708135       -19.2693
  35   2.0000      -0.697501       -18.9800
  36   2.0000      -0.691025       -18.8038
  37   2.0000      -0.657062       -17.8796
  38   2.0000      -0.643456       -17.5093
  39   2.0000      -0.613389       -16.6912
  40   2.0000      -0.597126       -16.2486
  41   2.0000      -0.566656       -15.4195
  42   2.0000      -0.565111       -15.3775
  43   2.0000      -0.559024       -15.2118
  44   2.0000      -0.527958       -14.3665
  45   2.0000      -0.523957       -14.2576
  46   2.0000      -0.513126       -13.9629
  47   2.0000      -0.508885       -13.8475
  48   2.0000      -0.504403       -13.7255
  49   2.0000      -0.499016       -13.5789
  50   2.0000      -0.485877       -13.2214
  51   2.0000      -0.481953       -13.1146
  52   2.0000      -0.466203       -12.6860
  53   2.0000      -0.462396       -12.5824
  54   2.0000      -0.453790       -12.3483
  55   2.0000      -0.445395       -12.1198
  56   2.0000      -0.444243       -12.0885
  57   2.0000      -0.442180       -12.0323
  58   2.0000      -0.437345       -11.9008
  59   2.0000      -0.429024       -11.6743
  60   2.0000      -0.423766       -11.5313
  61   2.0000      -0.419445       -11.4137
  62   2.0000      -0.409119       -11.1327
  63   2.0000      -0.347573        -9.4579
  64   2.0000      -0.329957        -8.9786
  65   2.0000      -0.325825        -8.8661
  66   2.0000      -0.290252        -7.8982
  67   0.0000       0.037561         1.0221
  68   0.0000       0.067448         1.8354
  69   0.0000       0.114136         3.1058
  70   0.0000       0.122295         3.3278
  71   0.0000       0.129232         3.5166

MULLIKEN ATOMIC CHARGES
-----------------------
   0 S :    0.098304
   1 C :   -0.111592
   2 C :   -0.084738
   3 C :    0.030012
   4 C :   -0.159444
   5 H :    0.024878
   6 C :    0.047333
   7 H :    0.012362
   8 H :    0.057918
   9 C :   -0.080080
  10 H :    0.042512
  11 H :    0.048438
  12 C :   -0.106694
  13 H :    0.046099
  14 H :    0.041562
  15 H :    0.039563
  16 S :    0.114343
  17 C :   -0.096462
  18 C :   -0.074357
  19 C :    0.011237
  20 C :   -0.172411
  21 H :    0.036861
  22 C :    0.042452
  23 H :    0.029555
  24 H :    0.042193
  25 C :   -0.118317
  26 H :    0.026242
  27 H :    0.044386
  28 C :    0.014861
  29 H :    0.024524
  30 H :   -0.002975
  31 H :    0.028594
  32 H :    0.044807
  33 H :    0.058036
Sum of atomic charges:    0.0000000

LOEWDIN ATOMIC CHARGES
----------------------
   0 S :    0.404136
   1 C :   -0.201527
   2 C :   -0.057421
   3 C :   -0.069359
   4 C :   -0.209030
   5 H :    0.035036
   6 C :   -0.038324
   7 H :    0.029003
   8 H :    0.045708
   9 C :   -0.042062
  10 H :    0.029129
  11 H :    0.028716
  12 C :   -0.078539
  13 H :    0.028302
  14 H :    0.026601
  15 H :    0.028763
  16 S :    0.420513
  17 C :   -0.196683
  18 C :   -0.077559
  19 C :   -0.057811
  20 C :   -0.195145
  21 H :    0.038767
  22 C :   -0.035595
  23 H :    0.027462
  24 H :    0.044310
  25 C :   -0.036907
  26 H :    0.020555
  27 H :    0.030702
  28 C :   -0.062156
  29 H :    0.027946
  30 H :    0.011554
  31 H :    0.025354
  32 H :    0.026281
  33 H :    0.029281

  Mayer bond orders larger than 0.100000
B(  0-S ,  1-C ) :   1.1065 B(  0-S ,  4-C ) :   1.1499 B(  1-C ,  2-C ) :   1.6688
B(  1-C , 32-H ) :   0.9661 B(  2-C ,  3-C ) :   1.1763 B(  2-C ,  6-C ) :   1.0224
B(  3-C ,  4-C ) :   1.6155 B(  3-C ,  5-H ) :   0.9867 B(  4-C , 20-C ) :   1.0201
B(  6-C ,  7-H ) :   0.9417 B(  6-C ,  8-H ) :   0.9351 B(  6-C ,  9-C ) :   1.0606
B(  9-C , 10-H ) :   0.9577 B(  9-C , 11-H ) :   0.9526 B(  9-C , 12-C ) :   1.0757
B( 12-C , 13-H ) :   0.9759 B( 12-C , 14-H ) :   0.9764 B( 12-C , 15-H ) :   0.9744
B( 16-S , 17-C ) :   1.1621 B( 16-S , 20-C ) :   1.1669 B( 17-C , 18-C ) :   1.5977
B( 17-C , 20-C ) :   0.1077 B( 17-C , 33-H ) :   0.9686 B( 18-C , 19-C ) :   1.2490
B( 18-C , 21-H ) :   0.9807 B( 19-C , 20-C ) :   1.5624 B( 19-C , 22-C ) :   1.0501
B( 22-C , 23-H ) :   0.9378 B( 22-C , 24-H ) :   0.9383 B( 22-C , 25-C ) :   1.0388
B( 25-C , 26-H ) :   0.9594 B( 25-C , 27-H ) :   0.9570 B( 25-C , 28-C ) :   1.0908
B( 28-C , 29-H ) :   0.9684 B( 28-C , 30-H ) :   0.9666 B( 28-C , 31-H ) :   0.9732

Dispersion correction           -0.013532406
FINAL SINGLE POINT ENERGY     -1339.871375789158

DIPOLE MOMENT
-------------
                                X             Y             Z
Electronic contribution:    -24.88423      13.95880       7.25148
Nuclear contribution   :     25.36166     -14.46174      -7.49023
                        -----------------------------------------
Total Dipole Moment    :      0.47743      -0.50294      -0.23875
                        -----------------------------------------
Magnitude (a.u.)       :      0.73341
Magnitude (Debye)      :      1.86418

Rotational constants in cm-1:     0.016547     0.008700     0.006708
Rotational constants in MHz :   496.066410   260.807684   201.088799

                             ****ORCA TERMINATED NORMALLY****
TOTAL RUN TIME: 0 days 0 hours 0 minutes 20 seconds 113 msec
