                         Program Version 4.2.1 -  RELEASE  -
|  1> ! wB97X-D3 SP def2-SVP
|  2> %pal
|  3> nprocs 24
|  4> end
|  5>
|  6> * xyz 0 1
|  7> S 	 -57.1112 	 3.99483 	 -22.3004
|  8> C 	 -58.6383 	 4.63134 	 -22.9837
|  9> C 	 -59.5731 	 4.71569 	 -21.9754
| 10> C 	 -59.0283 	 4.38279 	 -20.7206
| 11> C 	 -57.7313 	 3.92855 	 -20.7037
| 12> H 	 -59.5675 	 4.48827 	 -19.7971
| 13> C 	 -61.0513 	 5.11885 	 -22.1786
| 14> H 	 -61.1566 	 5.26963 	 -23.2672
| 15> H 	 -61.3837 	 6.05942 	 -21.6361
| 16> C 	 -62.0397 	 3.97579 	 -21.8106
| 17> H 	 -61.9404 	 3.07055 	 -22.4328
| 18> H 	 -61.8932 	 3.59137 	 -20.8073
| 19> C 	 -63.4937 	 4.46364 	 -21.8611
| 20> H 	 -63.93 	 4.52882 	 -22.8859
| 21> H 	 -64.1473 	 3.7353 	 -21.4185
| 22> H 	 -63.6346 	 5.40116 	 -21.348
| 23> S 	 -58.0564 	 1.83136 	 -19.0163
| 24> C 	 -56.8461 	 1.56909 	 -17.778
| 25> C 	 -55.9331 	 2.62454 	 -17.7531
| 26> C 	 -55.9992 	 3.45763 	 -18.8642
| 27> C 	 -57.1975 	 3.26933 	 -19.5885
| 28> H 	 -55.1635 	 2.71995 	 -17.0072
| 29> C 	 -55.1736 	 4.67269 	 -18.9507
| 30> H 	 -55.1382 	 5.09569 	 -19.952
| 31> H 	 -54.0881 	 4.60517 	 -18.7783
| 32> C 	 -55.5917 	 5.82743 	 -17.9964
| 33> H 	 -55.3926 	 5.59596 	 -16.9349
| 34> H 	 -56.7287 	 5.85997 	 -17.9763
| 35> C 	 -54.8715 	 7.16627 	 -18.2612
| 36> H 	 -53.8073 	 7.02973 	 -18.4664
| 37> H 	 -55.1133 	 7.909 	 -17.4953
| 38> H 	 -55.2177 	 7.69109 	 -19.1624
| 39> H 	 -58.686 	 4.95304 	 -24.0683
| 40> H 	 -56.8592 	 0.90301 	 -16.8861
| 41> *
| 42>
| 43>                          ****END OF INPUT****

CARTESIAN COORDINATES (ANGSTROEM)
---------------------------------
  S    -57.111200    3.994830  -22.300400
  C    -58.638300    4.631340  -22.983700
  C    -59.573100    4.715690  -21.975400
  C    -59.028300    4.382790  -20.720600
  C    -57.731300    3.928550  -20.703700
  H    -59.567500    4.488270  -19.797100
  C    -61.051300    5.118850  -22.178600
  H    -61.156600    5.269630  -23.267200
  H    -61.383700    6.059420  -21.636100
  C    -62.039700    3.975790  -21.810600
  H    -61.940400    3.070550  -22.432800
  H    -61.893200    3.591370  -20.807300
  C    -63.493700    4.463640  -21.861100
  H    -63.930000    4.528820  -22.885900
  H    -64.147300    3.735300  -21.418500
  H    -63.634600    5.401160  -21.348000
  S    -58.056400    1.831360  -19.016300
  C    -56.846100    1.569090  -17.778000
  C    -55.933100    2.624540  -17.753100
  C    -55.999200    3.457630  -18.864200
  C    -57.197500    3.269330  -19.588500
  H    -55.163500    2.719950  -17.007200
  C    -55.173600    4.672690  -18.950700
  H    -55.138200    5.095690  -19.952000
  H    -54.088100    4.605170  -18.778300
  C    -55.591700    5.827430  -17.996400
  H    -55.392600    5.595960  -16.934900
  H    -56.728700    5.859970  -17.976300
  C    -54.871500    7.166270  -18.261200
  H    -53.807300    7.029730  -18.466400
  H    -55.113300    7.909000  -17.495300
  H    -55.217700    7.691090  -19.162400
  H    -58.686000    4.953040  -24.068300
  H    -56.859200    0.903010  -16.886100

 Total Charge           Charge          ....    0
 Multiplicity           Mult            ....    1
 Number of Electrons    NEL             ....  134
 Basis Dimension        Dim             ....  322

ORBITAL ENERGIES
----------------

  NO   OCC          E(Eh)            E(eV)
   0   2.0000     -88.971774     -2421.0451
   1   2.0000     -88.964084     -2420.8358
   2   2.0000     -10.325898      -280.9820
   3   2.0000     -10.323389      -280.9137
   4   2.0000     -10.320859      -280.8449
   5   2.0000     -10.320128      -280.8250
   6   2.0000     -10.302809      -280.3537
   7   2.0000     -10.302532      -280.3461
   8   2.0000     -10.299879      -280.2740
   9   2.0000     -10.291493      -280.0457
  10   2.0000     -10.290357      -280.0148
  11   2.0000     -10.288211      -279.9565
  12   2.0000     -10.287719      -279.9431
  13   2.0000     -10.286371      -279.9064
  14   2.0000     -10.279947      -279.7316
  15   2.0000     -10.276201      -279.6296
  16   2.0000      -8.085600      -220.0204
  17   2.0000      -8.078839      -219.8364
  18   2.0000      -6.044063      -164.4673
  19   2.0000      -6.040172      -164.3614
  20   2.0000      -6.037382      -164.2855
  21   2.0000      -6.036496      -164.2614
  22   2.0000      -6.033241      -164.1728
  23   2.0000      -6.029629      -164.0745
  24   2.0000      -1.011658       -27.5286
  25   2.0000      -0.985237       -26.8097
  26   2.0000      -0.908010       -24.7082
  27   2.0000      -0.907061       -24.6824
  28   2.0000      -0.874934       -23.8082
  29   2.0000      -0.852340       -23.1934
  30   2.0000      -0.844667       -22.9845
  31   2.0000      -0.809823       -22.0364
  32   2.0000      -0.782312       -21.2878
  33   2.0000      -0.768402       -20.9093
  34   2.0000      -0.709615       -19.3096
  35   2.0000      -0.697561       -18.9816
  36   2.0000      -0.692214       -18.8361
  37   2.0000      -0.665966       -18.1218
  38   2.0000      -0.639287       -17.3959
  39   2.0000      -0.619097       -16.8465
  40   2.0000      -0.603518       -16.4225
  41   2.0000      -0.570611       -15.5271
  42   2.0000      -0.557476       -15.1697
  43   2.0000      -0.547509       -14.8985
  44   2.0000      -0.525590       -14.3020
  45   2.0000      -0.522126       -14.2078
  46   2.0000      -0.517585       -14.0842
  47   2.0000      -0.508582       -13.8392
  48   2.0000      -0.504443       -13.7266
  49   2.0000      -0.497442       -13.5361
  50   2.0000      -0.490157       -13.3378
  51   2.0000      -0.483479       -13.1561
  52   2.0000      -0.468158       -12.7392
  53   2.0000      -0.462092       -12.5742
  54   2.0000      -0.460068       -12.5191
  55   2.0000      -0.446392       -12.1470
  56   2.0000      -0.441925       -12.0254
  57   2.0000      -0.439686       -11.9645
  58   2.0000      -0.435693       -11.8558
  59   2.0000      -0.431800       -11.7499
  60   2.0000      -0.417519       -11.3613
  61   2.0000      -0.414628       -11.2826
  62   2.0000      -0.402168       -10.9435
  63   2.0000      -0.339656        -9.2425
  64   2.0000      -0.334175        -9.0934
  65   2.0000      -0.329801        -8.9743
  66   2.0000      -0.294580        -8.0159
  67   0.0000       0.026298         0.7156
  68   0.0000       0.062247         1.6938
  69   0.0000       0.109121         2.9693
  70   0.0000       0.116856         3.1798
  71   0.0000       0.126692         3.4475

MULLIKEN ATOMIC CHARGES
-----------------------
   0 S :    0.106947
   1 C :   -0.173722
   2 C :   -0.042679
   3 C :   -0.012799
   4 C :   -0.107154
   5 H :    0.007231
   6 C :    0.059374
   7 H :    0.021569
   8 H :    0.048524
   9 C :   -0.090058
  10 H :    0.034899
  11 H :    0.028120
  12 C :   -0.050788
  13 H :    0.033139
  14 H :    0.024782
  15 H :    0.027818
  16 S :    0.136311
  17 C :   -0.095496
  18 C :   -0.047436
  19 C :    0.022212
  20 C :   -0.185480
  21 H :    0.016121
  22 C :    0.038696
  23 H :    0.015026
  24 H :    0.019629
  25 C :   -0.096301
  26 H :    0.024031
  27 H :    0.035263
  28 C :   -0.051299
  29 H :    0.033720
  30 H :    0.040491
  31 H :    0.028783
  32 H :    0.079917
  33 H :    0.070611
Sum of atomic charges:   -0.0000000

LOEWDIN ATOMIC CHARGES
----------------------
   0 S :    0.406535
   1 C :   -0.192658
   2 C :   -0.067781
   3 C :   -0.067608
   4 C :   -0.216603
   5 H :    0.026413
   6 C :   -0.029639
   7 H :    0.031500
   8 H :    0.037913
   9 C :   -0.043210
  10 H :    0.029267
  11 H :    0.020992
  12 C :   -0.068915
  13 H :    0.027861
  14 H :    0.024186
  15 H :    0.020991
  16 S :    0.421894
  17 C :   -0.200298
  18 C :   -0.063312
  19 C :   -0.055845
  20 C :   -0.188848
  21 H :    0.029246
  22 C :   -0.043181
  23 H :    0.026976
  24 H :    0.031643
  25 C :   -0.043180
  26 H :    0.020800
  27 H :    0.028731
  28 C :   -0.072830
  29 H :    0.026887
  30 H :    0.031216
  31 H :    0.026556
  32 H :    0.043619
  33 H :    0.040681

  Mayer bond orders larger than 0.100000
B(  0-S ,  1-C ) :   1.1417 B(  0-S ,  4-C ) :   1.1432 B(  1-C ,  2-C ) :   1.5873
B(  1-C , 32-H ) :   0.9621 B(  2-C ,  3-C ) :   1.2535 B(  2-C ,  6-C ) :   1.0195
B(  3-C ,  4-C ) :   1.5224 B(  3-C ,  5-H ) :   1.0079 B(  4-C , 20-C ) :   1.0926
B(  6-C ,  7-H ) :   0.9430 B(  6-C ,  8-H ) :   0.9457 B(  6-C ,  9-C ) :   1.0540
B(  9-C , 10-H ) :   0.9530 B(  9-C , 11-H ) :   0.9605 B(  9-C , 12-C ) :   1.0863
B( 12-C , 13-H ) :   0.9754 B( 12-C , 14-H ) :   0.9725 B( 12-C , 15-H ) :   0.9742
B( 16-S , 17-C ) :   1.1603 B( 16-S , 20-C ) :   1.1458 B( 17-C , 18-C ) :   1.5848
B( 17-C , 20-C ) :   0.1124 B( 17-C , 33-H ) :   0.9581 B( 18-C , 19-C ) :   1.2772
B( 18-C , 21-H ) :   0.9859 B( 19-C , 20-C ) :   1.5166 B( 19-C , 22-C ) :   1.0893
B( 22-C , 23-H ) :   0.9318 B( 22-C , 24-H ) :   0.9277 B( 22-C , 25-C ) :   1.0432
B( 25-C , 26-H ) :   0.9553 B( 25-C , 27-H ) :   0.9579 B( 25-C , 28-C ) :   1.0724
B( 28-C , 29-H ) :   0.9726 B( 28-C , 30-H ) :   0.9731 B( 28-C , 31-H ) :   0.9741

Dispersion correction           -0.014016622
FINAL SINGLE POINT ENERGY     -1339.875704093191

DIPOLE MOMENT
-------------
                                X             Y             Z
Electronic contribution:      9.21063     -15.72022      -3.51114
Nuclear contribution   :     -9.44639      16.04468       3.74733
                        -----------------------------------------
Total Dipole Moment    :     -0.23576       0.32446       0.23619
                        -----------------------------------------
Magnitude (a.u.)       :      0.46545
Magnitude (Debye)      :      1.18308

Rotational constants in cm-1:     0.019039     0.007950     0.006908
Rotational constants in MHz :   570.775299   238.323895   207.108612

                             ****ORCA TERMINATED NORMALLY****
TOTAL RUN TIME: 0 days 0 hours 0 minutes 21 seconds 246 msec
