                         Program Version 4.2.1 -  RELEASE  -
|  1> ! wB97X-D3 SP def2-SVP
|  2> %pal
|  3> nprocs 24
|  4> end
|  5>
|  6> * xyz 0 1
|  7> S 	 -40.0356 	 16.2024 	 12.3176
|  8> C 	 -39.7401 	 15.1028 	 13.6466
|  9> C 	 -39.8425 	 15.7835 	 14.8921
| 10> C 	 -40.1487 	 17.1552 	 14.6951
| 11> C 	 -40.2227 	 17.5668 	 13.3741
| 12> H 	 -40.3631 	 17.8312 	 15.485
| 13> C 	 -39.9219 	 15.1597 	 16.2548
| 14> H 	 -39.5169 	 15.8073 	 17.0117
| 15> H 	 -39.2608 	 14.2125 	 16.3062
| 16> C 	 -41.385 	 14.8188 	 16.6737
| 17> H 	 -42.008 	 15.7227 	 16.3827
| 18> H 	 -41.8033 	 14.0877 	 16.0457
| 19> C 	 -41.6816 	 14.468 	 18.1415
| 20> H 	 -41.0377 	 13.629 	 18.5383
| 21> H 	 -41.4864 	 15.2933 	 18.8264
| 22> H 	 -42.7028 	 14.1538 	 18.357
| 23> S 	 -41.4338 	 18.9382 	 11.4094
| 24> C 	 -41.7492 	 20.6376 	 11.5938
| 25> C 	 -41.1042 	 21.1597 	 12.7192
| 26> C 	 -40.3672 	 20.1578 	 13.4112
| 27> C 	 -40.5073 	 18.913 	 12.8992
| 28> H 	 -41.1666 	 22.1657 	 12.9673
| 29> C 	 -39.4812 	 20.5309 	 14.6554
| 30> H 	 -38.5528 	 20.9058 	 14.2235
| 31> H 	 -39.2126 	 19.7429 	 15.2477
| 32> C 	 -40.1927 	 21.5145 	 15.6039
| 33> H 	 -40.2862 	 22.5158 	 15.0688
| 34> H 	 -39.5366 	 21.6235 	 16.4689
| 35> C 	 -41.452 	 20.9694 	 16.2467
| 36> H 	 -41.6669 	 21.4756 	 17.1984
| 37> H 	 -41.289 	 19.9401 	 16.5974
| 38> H 	 -42.2247 	 20.9332 	 15.4903
| 39> H 	 -39.4785 	 14.0394 	 13.6683
| 40> H 	 -42.4032 	 21.2236 	 10.9049
| 41> *
| 42>
| 43>                          ****END OF INPUT****

CARTESIAN COORDINATES (ANGSTROEM)
---------------------------------
  S    -40.035600   16.202400   12.317600
  C    -39.740100   15.102800   13.646600
  C    -39.842500   15.783500   14.892100
  C    -40.148700   17.155200   14.695100
  C    -40.222700   17.566800   13.374100
  H    -40.363100   17.831200   15.485000
  C    -39.921900   15.159700   16.254800
  H    -39.516900   15.807300   17.011700
  H    -39.260800   14.212500   16.306200
  C    -41.385000   14.818800   16.673700
  H    -42.008000   15.722700   16.382700
  H    -41.803300   14.087700   16.045700
  C    -41.681600   14.468000   18.141500
  H    -41.037700   13.629000   18.538300
  H    -41.486400   15.293300   18.826400
  H    -42.702800   14.153800   18.357000
  S    -41.433800   18.938200   11.409400
  C    -41.749200   20.637600   11.593800
  C    -41.104200   21.159700   12.719200
  C    -40.367200   20.157800   13.411200
  C    -40.507300   18.913000   12.899200
  H    -41.166600   22.165700   12.967300
  C    -39.481200   20.530900   14.655400
  H    -38.552800   20.905800   14.223500
  H    -39.212600   19.742900   15.247700
  C    -40.192700   21.514500   15.603900
  H    -40.286200   22.515800   15.068800
  H    -39.536600   21.623500   16.468900
  C    -41.452000   20.969400   16.246700
  H    -41.666900   21.475600   17.198400
  H    -41.289000   19.940100   16.597400
  H    -42.224700   20.933200   15.490300
  H    -39.478500   14.039400   13.668300
  H    -42.403200   21.223600   10.904900

 Total Charge           Charge          ....    0
 Multiplicity           Mult            ....    1
 Number of Electrons    NEL             ....  134
 Basis Dimension        Dim             ....  322

ORBITAL ENERGIES
----------------

  NO   OCC          E(Eh)            E(eV)
   0   2.0000     -88.972224     -2421.0573
   1   2.0000     -88.964496     -2420.8470
   2   2.0000     -10.330285      -281.1013
   3   2.0000     -10.324966      -280.9566
   4   2.0000     -10.324159      -280.9347
   5   2.0000     -10.318582      -280.7829
   6   2.0000     -10.304113      -280.3892
   7   2.0000     -10.302808      -280.3537
   8   2.0000     -10.300098      -280.2799
   9   2.0000     -10.293714      -280.1062
  10   2.0000     -10.291139      -280.0361
  11   2.0000     -10.288960      -279.9768
  12   2.0000     -10.288814      -279.9729
  13   2.0000     -10.288555      -279.9658
  14   2.0000     -10.283761      -279.8354
  15   2.0000     -10.279677      -279.7242
  16   2.0000      -8.086545      -220.0461
  17   2.0000      -8.079876      -219.8646
  18   2.0000      -6.045181      -164.4977
  19   2.0000      -6.041022      -164.3846
  20   2.0000      -6.038369      -164.3124
  21   2.0000      -6.037299      -164.2832
  22   2.0000      -6.034310      -164.2019
  23   2.0000      -6.030593      -164.1008
  24   2.0000      -1.011067       -27.5125
  25   2.0000      -0.985450       -26.8155
  26   2.0000      -0.912757       -24.8374
  27   2.0000      -0.907916       -24.7057
  28   2.0000      -0.868049       -23.6208
  29   2.0000      -0.853981       -23.2380
  30   2.0000      -0.845093       -22.9961
  31   2.0000      -0.813454       -22.1352
  32   2.0000      -0.787163       -21.4198
  33   2.0000      -0.774306       -21.0699
  34   2.0000      -0.705375       -19.1942
  35   2.0000      -0.701007       -19.0754
  36   2.0000      -0.692932       -18.8557
  37   2.0000      -0.666191       -18.1280
  38   2.0000      -0.638143       -17.3647
  39   2.0000      -0.624047       -16.9812
  40   2.0000      -0.602176       -16.3860
  41   2.0000      -0.570674       -15.5288
  42   2.0000      -0.556050       -15.1309
  43   2.0000      -0.554589       -15.0911
  44   2.0000      -0.546972       -14.8839
  45   2.0000      -0.522863       -14.2278
  46   2.0000      -0.519571       -14.1383
  47   2.0000      -0.511112       -13.9081
  48   2.0000      -0.503278       -13.6949
  49   2.0000      -0.494524       -13.4567
  50   2.0000      -0.492552       -13.4030
  51   2.0000      -0.482776       -13.1370
  52   2.0000      -0.472726       -12.8635
  53   2.0000      -0.466484       -12.6937
  54   2.0000      -0.461155       -12.5487
  55   2.0000      -0.451766       -12.2932
  56   2.0000      -0.447958       -12.1896
  57   2.0000      -0.444750       -12.1023
  58   2.0000      -0.436424       -11.8757
  59   2.0000      -0.427601       -11.6356
  60   2.0000      -0.418750       -11.3948
  61   2.0000      -0.410806       -11.1786
  62   2.0000      -0.405489       -11.0339
  63   2.0000      -0.357763        -9.7352
  64   2.0000      -0.337296        -9.1783
  65   2.0000      -0.329744        -8.9728
  66   2.0000      -0.282821        -7.6959
  67   0.0000       0.023594         0.6420
  68   0.0000       0.075290         2.0487
  69   0.0000       0.098882         2.6907
  70   0.0000       0.117832         3.2064
  71   0.0000       0.132136         3.5956

MULLIKEN ATOMIC CHARGES
-----------------------
   0 S :    0.121157
   1 C :   -0.112138
   2 C :   -0.092154
   3 C :    0.009629
   4 C :   -0.107972
   5 H :   -0.015357
   6 C :    0.048546
   7 H :    0.017565
   8 H :    0.034668
   9 C :   -0.065954
  10 H :    0.031262
  11 H :    0.015603
  12 C :   -0.052589
  13 H :    0.031441
  14 H :    0.027633
  15 H :    0.037347
  16 S :    0.089354
  17 C :   -0.098337
  18 C :   -0.016351
  19 C :   -0.085668
  20 C :   -0.115372
  21 H :   -0.005971
  22 C :    0.132151
  23 H :    0.042319
  24 H :   -0.013138
  25 C :   -0.129696
  26 H :    0.045566
  27 H :    0.026725
  28 C :   -0.028252
  29 H :    0.040068
  30 H :    0.016801
  31 H :    0.043493
  32 H :    0.053561
  33 H :    0.074060
Sum of atomic charges:    0.0000000

LOEWDIN ATOMIC CHARGES
----------------------
   0 S :    0.418408
   1 C :   -0.208954
   2 C :   -0.061536
   3 C :   -0.065726
   4 C :   -0.194578
   5 H :    0.020633
   6 C :   -0.035232
   7 H :    0.025453
   8 H :    0.036531
   9 C :   -0.043170
  10 H :    0.032295
  11 H :    0.017090
  12 C :   -0.073542
  13 H :    0.029001
  14 H :    0.022710
  15 H :    0.029251
  16 S :    0.401665
  17 C :   -0.184576
  18 C :   -0.066124
  19 C :   -0.057562
  20 C :   -0.191356
  21 H :    0.020471
  22 C :   -0.015826
  23 H :    0.037931
  24 H :    0.011173
  25 C :   -0.048201
  26 H :    0.026532
  27 H :    0.025374
  28 C :   -0.064412
  29 H :    0.031627
  30 H :    0.025131
  31 H :    0.025668
  32 H :    0.035730
  33 H :    0.038124

  Mayer bond orders larger than 0.100000
B(  0-S ,  1-C ) :   1.1416 B(  0-S ,  4-C ) :   1.1548 B(  1-C ,  2-C ) :   1.5781
B(  1-C ,  4-C ) :   0.1044 B(  1-C , 32-H ) :   0.9638 B(  2-C ,  3-C ) :   1.2727
B(  2-C ,  6-C ) :   1.0530 B(  3-C ,  4-C ) :   1.5489 B(  3-C ,  5-H ) :   0.9948
B(  4-C , 20-C ) :   1.0479 B(  6-C ,  7-H ) :   0.9387 B(  6-C ,  8-H ) :   0.9363
B(  6-C ,  9-C ) :   1.0470 B(  9-C , 10-H ) :   0.9554 B(  9-C , 11-H ) :   0.9556
B(  9-C , 12-C ) :   1.0776 B( 12-C , 13-H ) :   0.9740 B( 12-C , 14-H ) :   0.9750
B( 12-C , 15-H ) :   0.9740 B( 16-S , 17-C ) :   1.1679 B( 16-S , 20-C ) :   1.1216
B( 17-C , 18-C ) :   1.5937 B( 17-C , 33-H ) :   0.9633 B( 18-C , 19-C ) :   1.2316
B( 18-C , 21-H ) :   1.0050 B( 19-C , 20-C ) :   1.6428 B( 19-C , 22-C ) :   1.0095
B( 22-C , 23-H ) :   0.9353 B( 22-C , 24-H ) :   0.9386 B( 22-C , 25-C ) :   1.0802
B( 25-C , 26-H ) :   0.9515 B( 25-C , 27-H ) :   0.9565 B( 25-C , 28-C ) :   1.0728
B( 28-C , 29-H ) :   0.9729 B( 28-C , 30-H ) :   0.9671 B( 28-C , 31-H ) :   0.9722

Dispersion correction           -0.014532335
FINAL SINGLE POINT ENERGY     -1339.877618179098

DIPOLE MOMENT
-------------
                                X             Y             Z
Electronic contribution:      2.62328      -1.21340     -30.08303
Nuclear contribution   :     -2.68105       1.44669      30.76125
                        -----------------------------------------
Total Dipole Moment    :     -0.05777       0.23328       0.67821
                        -----------------------------------------
Magnitude (a.u.)       :      0.71953
Magnitude (Debye)      :      1.82891

Rotational constants in cm-1:     0.017957     0.009149     0.006778
Rotational constants in MHz :   538.329592   274.294978   203.212443

                             ****ORCA TERMINATED NORMALLY****
TOTAL RUN TIME: 0 days 0 hours 0 minutes 20 seconds 779 msec
