                         Program Version 4.2.1 -  RELEASE  -
|  1> ! wB97X-D3 SP def2-SVP
|  2> %pal
|  3> nprocs 24
|  4> end
|  5>
|  6> * xyz 0 1
|  7> S 	 -41.1524 	 17.1659 	 25.7016
|  8> C 	 -41.5659 	 16.426 	 27.1795
|  9> C 	 -41.9422 	 15.1038 	 26.9875
| 10> C 	 -41.7204 	 14.5922 	 25.6546
| 11> C 	 -41.2599 	 15.5993 	 24.7884
| 12> H 	 -41.9614 	 13.5782 	 25.2543
| 13> C 	 -42.6549 	 14.29 	 28.0805
| 14> H 	 -41.8585 	 13.9693 	 28.8221
| 15> H 	 -42.9665 	 13.395 	 27.5748
| 16> C 	 -43.8402 	 15.0115 	 28.8201
| 17> H 	 -43.5676 	 16.0796 	 28.9733
| 18> H 	 -44.7406 	 14.9954 	 28.1301
| 19> C 	 -44.3025 	 14.3429 	 30.1298
| 20> H 	 -45.0155 	 14.87 	 30.6964
| 21> H 	 -44.6738 	 13.3093 	 29.9426
| 22> H 	 -43.3903 	 14.1615 	 30.7659
| 23> S 	 -41.8038 	 15.7721 	 22.0853
| 24> C 	 -40.4508 	 15.6592 	 20.9556
| 25> C 	 -39.2885 	 15.4222 	 21.5706
| 26> C 	 -39.3975 	 15.1861 	 22.9875
| 27> C 	 -40.7077 	 15.399 	 23.4461
| 28> H 	 -38.4271 	 15.4968 	 20.9127
| 29> C 	 -38.1518 	 15.0074 	 23.8985
| 30> H 	 -37.6193 	 14.1697 	 23.5508
| 31> H 	 -38.3678 	 14.9524 	 24.9462
| 32> C 	 -37.1364 	 16.1372 	 23.7174
| 33> H 	 -36.8129 	 16.2602 	 22.7167
| 34> H 	 -36.2122 	 15.8265 	 24.1331
| 35> C 	 -37.5589 	 17.448 	 24.3242
| 36> H 	 -38.3108 	 17.8939 	 23.7153
| 37> H 	 -36.7199 	 18.1844 	 24.3979
| 38> H 	 -37.7334 	 17.2307 	 25.388
| 39> H 	 -41.6281 	 17.0301 	 28.0431
| 40> H 	 -40.4918 	 15.6242 	 19.8443
| 41> *
| 42>
| 43>                          ****END OF INPUT****

CARTESIAN COORDINATES (ANGSTROEM)
---------------------------------
  S    -41.152400   17.165900   25.701600
  C    -41.565900   16.426000   27.179500
  C    -41.942200   15.103800   26.987500
  C    -41.720400   14.592200   25.654600
  C    -41.259900   15.599300   24.788400
  H    -41.961400   13.578200   25.254300
  C    -42.654900   14.290000   28.080500
  H    -41.858500   13.969300   28.822100
  H    -42.966500   13.395000   27.574800
  C    -43.840200   15.011500   28.820100
  H    -43.567600   16.079600   28.973300
  H    -44.740600   14.995400   28.130100
  C    -44.302500   14.342900   30.129800
  H    -45.015500   14.870000   30.696400
  H    -44.673800   13.309300   29.942600
  H    -43.390300   14.161500   30.765900
  S    -41.803800   15.772100   22.085300
  C    -40.450800   15.659200   20.955600
  C    -39.288500   15.422200   21.570600
  C    -39.397500   15.186100   22.987500
  C    -40.707700   15.399000   23.446100
  H    -38.427100   15.496800   20.912700
  C    -38.151800   15.007400   23.898500
  H    -37.619300   14.169700   23.550800
  H    -38.367800   14.952400   24.946200
  C    -37.136400   16.137200   23.717400
  H    -36.812900   16.260200   22.716700
  H    -36.212200   15.826500   24.133100
  C    -37.558900   17.448000   24.324200
  H    -38.310800   17.893900   23.715300
  H    -36.719900   18.184400   24.397900
  H    -37.733400   17.230700   25.388000
  H    -41.628100   17.030100   28.043100
  H    -40.491800   15.624200   19.844300

 Total Charge           Charge          ....    0
 Multiplicity           Mult            ....    1
 Number of Electrons    NEL             ....  134
 Basis Dimension        Dim             ....  322

ORBITAL ENERGIES
----------------

  NO   OCC          E(Eh)            E(eV)
   0   2.0000     -88.965300     -2420.8689
   1   2.0000     -88.961058     -2420.7535
   2   2.0000     -10.333886      -281.1993
   3   2.0000     -10.329413      -281.0776
   4   2.0000     -10.315751      -280.7059
   5   2.0000     -10.312051      -280.6052
   6   2.0000     -10.311458      -280.5890
   7   2.0000     -10.305242      -280.4199
   8   2.0000     -10.304130      -280.3896
   9   2.0000     -10.297465      -280.2083
  10   2.0000     -10.296840      -280.1913
  11   2.0000     -10.290623      -280.0221
  12   2.0000     -10.286232      -279.9026
  13   2.0000     -10.282182      -279.7924
  14   2.0000     -10.271446      -279.5003
  15   2.0000     -10.268730      -279.4264
  16   2.0000      -8.079644      -219.8583
  17   2.0000      -8.075285      -219.7397
  18   2.0000      -6.038083      -164.3046
  19   2.0000      -6.034095      -164.1961
  20   2.0000      -6.033938      -164.1918
  21   2.0000      -6.030586      -164.1006
  22   2.0000      -6.029879      -164.0813
  23   2.0000      -6.025901      -163.9731
  24   2.0000      -0.998456       -27.1694
  25   2.0000      -0.980344       -26.6765
  26   2.0000      -0.910470       -24.7751
  27   2.0000      -0.899915       -24.4879
  28   2.0000      -0.869973       -23.6732
  29   2.0000      -0.847551       -23.0630
  30   2.0000      -0.841273       -22.8922
  31   2.0000      -0.815857       -22.2006
  32   2.0000      -0.781295       -21.2601
  33   2.0000      -0.765334       -20.8258
  34   2.0000      -0.706829       -19.2338
  35   2.0000      -0.697295       -18.9744
  36   2.0000      -0.690688       -18.7946
  37   2.0000      -0.648862       -17.6564
  38   2.0000      -0.646773       -17.5996
  39   2.0000      -0.609205       -16.5773
  40   2.0000      -0.594561       -16.1788
  41   2.0000      -0.568350       -15.4656
  42   2.0000      -0.556042       -15.1307
  43   2.0000      -0.552919       -15.0457
  44   2.0000      -0.544591       -14.8191
  45   2.0000      -0.523806       -14.2535
  46   2.0000      -0.515746       -14.0342
  47   2.0000      -0.512616       -13.9490
  48   2.0000      -0.508774       -13.8444
  49   2.0000      -0.493032       -13.4161
  50   2.0000      -0.481968       -13.1150
  51   2.0000      -0.479946       -13.0600
  52   2.0000      -0.472764       -12.8646
  53   2.0000      -0.462614       -12.5884
  54   2.0000      -0.453494       -12.3402
  55   2.0000      -0.442226       -12.0336
  56   2.0000      -0.438295       -11.9266
  57   2.0000      -0.435214       -11.8428
  58   2.0000      -0.432959       -11.7814
  59   2.0000      -0.420848       -11.4519
  60   2.0000      -0.418602       -11.3907
  61   2.0000      -0.414400       -11.2764
  62   2.0000      -0.409654       -11.1472
  63   2.0000      -0.335853        -9.1390
  64   2.0000      -0.331312        -9.0155
  65   2.0000      -0.319046        -8.6817
  66   2.0000      -0.305075        -8.3015
  67   0.0000       0.042181         1.1478
  68   0.0000       0.047631         1.2961
  69   0.0000       0.113799         3.0966
  70   0.0000       0.119981         3.2648
  71   0.0000       0.125279         3.4090

MULLIKEN ATOMIC CHARGES
-----------------------
   0 S :    0.119829
   1 C :   -0.124773
   2 C :   -0.095397
   3 C :    0.039381
   4 C :   -0.165909
   5 H :    0.041996
   6 C :    0.068151
   7 H :    0.044099
   8 H :    0.013880
   9 C :   -0.101852
  10 H :    0.035193
  11 H :    0.044077
  12 C :   -0.050690
  13 H :    0.035971
  14 H :    0.034141
  15 H :    0.027860
  16 S :    0.091621
  17 C :   -0.099597
  18 C :   -0.054057
  19 C :   -0.011162
  20 C :   -0.201499
  21 H :    0.025245
  22 C :    0.139788
  23 H :    0.012498
  24 H :    0.026975
  25 C :   -0.078811
  26 H :    0.004596
  27 H :    0.003134
  28 C :   -0.034395
  29 H :    0.042752
  30 H :    0.024913
  31 H :    0.029731
  32 H :    0.045925
  33 H :    0.066385
Sum of atomic charges:   -0.0000000

LOEWDIN ATOMIC CHARGES
----------------------
   0 S :    0.411936
   1 C :   -0.199309
   2 C :   -0.071569
   3 C :   -0.054894
   4 C :   -0.191696
   5 H :    0.045056
   6 C :   -0.034934
   7 H :    0.037058
   8 H :    0.023791
   9 C :   -0.045709
  10 H :    0.023188
  11 H :    0.032528
  12 C :   -0.069474
  13 H :    0.019846
  14 H :    0.029286
  15 H :    0.027556
  16 S :    0.375721
  17 C :   -0.181073
  18 C :   -0.081693
  19 C :   -0.040586
  20 C :   -0.196761
  21 H :    0.035494
  22 C :   -0.014265
  23 H :    0.028218
  24 H :    0.029209
  25 C :   -0.041894
  26 H :    0.013773
  27 H :    0.018061
  28 C :   -0.064829
  29 H :    0.022768
  30 H :    0.028060
  31 H :    0.026875
  32 H :    0.019856
  33 H :    0.040408

  Mayer bond orders larger than 0.100000
B(  0-S ,  1-C ) :   1.1692 B(  0-S ,  4-C ) :   1.1446 B(  1-C ,  2-C ) :   1.5756
B(  1-C , 32-H ) :   0.9769 B(  2-C ,  3-C ) :   1.2555 B(  2-C ,  6-C ) :   1.0150
B(  3-C ,  4-C ) :   1.5794 B(  3-C ,  5-H ) :   0.9817 B(  4-C , 20-C ) :   1.0194
B(  6-C ,  7-H ) :   0.9394 B(  6-C ,  8-H ) :   0.9453 B(  6-C ,  9-C ) :   1.0475
B(  9-C , 10-H ) :   0.9606 B(  9-C , 11-H ) :   0.9568 B(  9-C , 12-C ) :   1.0757
B( 12-C , 13-H ) :   0.9762 B( 12-C , 14-H ) :   0.9747 B( 12-C , 15-H ) :   0.9752
B( 16-S , 17-C ) :   1.1331 B( 16-S , 20-C ) :   1.1309 B( 17-C , 18-C ) :   1.6822
B( 17-C , 33-H ) :   0.9549 B( 18-C , 19-C ) :   1.1918 B( 18-C , 21-H ) :   0.9839
B( 19-C , 20-C ) :   1.6151 B( 19-C , 22-C ) :   1.0434 B( 22-C , 23-H ) :   0.9182
B( 22-C , 24-H ) :   0.9427 B( 22-C , 25-C ) :   1.0866 B( 25-C , 26-H ) :   0.9467
B( 25-C , 27-H ) :   0.9479 B( 25-C , 28-C ) :   1.0805 B( 28-C , 29-H ) :   0.9773
B( 28-C , 30-H ) :   0.9708 B( 28-C , 31-H ) :   0.9709

Dispersion correction           -0.014857216
FINAL SINGLE POINT ENERGY     -1339.868472191908

DIPOLE MOMENT
-------------
                                X             Y             Z
Electronic contribution:     -5.03440       4.59503     -18.05168
Nuclear contribution   :      5.37146      -4.83882      18.28220
                        -----------------------------------------
Total Dipole Moment    :      0.33706      -0.24380       0.23051
                        -----------------------------------------
Magnitude (a.u.)       :      0.47559
Magnitude (Debye)      :      1.20884

Rotational constants in cm-1:     0.024783     0.007164     0.006317
Rotational constants in MHz :   742.984684   214.757833   189.369962

                             ****ORCA TERMINATED NORMALLY****
TOTAL RUN TIME: 0 days 0 hours 0 minutes 21 seconds 451 msec
