                         Program Version 4.2.1 -  RELEASE  -
|  1> ! wB97X-D3 SP def2-SVP
|  2> %pal
|  3> nprocs 24
|  4> end
|  5>
|  6> * xyz 0 1
|  7> S 	 -124.302 	 24.5389 	 -109.171
|  8> C 	 -122.862 	 25.3769 	 -109.88
|  9> C 	 -123.289 	 26.4318 	 -110.77
| 10> C 	 -124.726 	 26.6518 	 -110.638
| 11> C 	 -125.342 	 25.6014 	 -110.057
| 12> H 	 -125.42 	 27.4101 	 -111.019
| 13> C 	 -122.446 	 27.3566 	 -111.616
| 14> H 	 -121.576 	 26.7633 	 -111.831
| 15> H 	 -122.272 	 28.2715 	 -111.055
| 16> C 	 -123.01 	 27.6102 	 -112.992
| 17> H 	 -122.973 	 26.6954 	 -113.596
| 18> H 	 -124.039 	 27.9338 	 -112.985
| 19> C 	 -122.103 	 28.5339 	 -113.869
| 20> H 	 -122.142 	 28.3112 	 -114.936
| 21> H 	 -122.467 	 29.5664 	 -113.816
| 22> H 	 -121.071 	 28.6376 	 -113.528
| 23> S 	 -127.596 	 25.7645 	 -111.659
| 24> C 	 -129.111 	 25.4471 	 -110.863
| 25> C 	 -128.976 	 24.9255 	 -109.596
| 26> C 	 -127.63 	 24.8169 	 -109.174
| 27> C 	 -126.785 	 25.399 	 -110.126
| 28> H 	 -129.74 	 24.7167 	 -108.881
| 29> C 	 -127.291 	 24.5308 	 -107.68
| 30> H 	 -126.335 	 24.1019 	 -107.555
| 31> H 	 -127.952 	 23.7923 	 -107.186
| 32> C 	 -127.581 	 25.7858 	 -106.816
| 33> H 	 -128.692 	 26.064 	 -106.791
| 34> H 	 -127.142 	 26.6927 	 -107.28
| 35> C 	 -127.169 	 25.6157 	 -105.324
| 36> H 	 -127.877 	 25.0831 	 -104.686
| 37> H 	 -126.975 	 26.6057 	 -104.827
| 38> H 	 -126.254 	 25.0495 	 -105.232
| 39> H 	 -121.858 	 24.9912 	 -109.832
| 40> H 	 -130.084 	 25.5715 	 -111.236
| 41> *
| 42>
| 43>                          ****END OF INPUT****

CARTESIAN COORDINATES (ANGSTROEM)
---------------------------------
  S    -124.302000   24.538900  -109.171000
  C    -122.862000   25.376900  -109.880000
  C    -123.289000   26.431800  -110.770000
  C    -124.726000   26.651800  -110.638000
  C    -125.342000   25.601400  -110.057000
  H    -125.420000   27.410100  -111.019000
  C    -122.446000   27.356600  -111.616000
  H    -121.576000   26.763300  -111.831000
  H    -122.272000   28.271500  -111.055000
  C    -123.010000   27.610200  -112.992000
  H    -122.973000   26.695400  -113.596000
  H    -124.039000   27.933800  -112.985000
  C    -122.103000   28.533900  -113.869000
  H    -122.142000   28.311200  -114.936000
  H    -122.467000   29.566400  -113.816000
  H    -121.071000   28.637600  -113.528000
  S    -127.596000   25.764500  -111.659000
  C    -129.111000   25.447100  -110.863000
  C    -128.976000   24.925500  -109.596000
  C    -127.630000   24.816900  -109.174000
  C    -126.785000   25.399000  -110.126000
  H    -129.740000   24.716700  -108.881000
  C    -127.291000   24.530800  -107.680000
  H    -126.335000   24.101900  -107.555000
  H    -127.952000   23.792300  -107.186000
  C    -127.581000   25.785800  -106.816000
  H    -128.692000   26.064000  -106.791000
  H    -127.142000   26.692700  -107.280000
  C    -127.169000   25.615700  -105.324000
  H    -127.877000   25.083100  -104.686000
  H    -126.975000   26.605700  -104.827000
  H    -126.254000   25.049500  -105.232000
  H    -121.858000   24.991200  -109.832000
  H    -130.084000   25.571500  -111.236000

 Total Charge           Charge          ....    0
 Multiplicity           Mult            ....    1
 Number of Electrons    NEL             ....  134
 Basis Dimension        Dim             ....  322

ORBITAL ENERGIES
----------------

  NO   OCC          E(Eh)            E(eV)
   0   2.0000     -88.973923     -2421.1035
   1   2.0000     -88.966434     -2420.8998
   2   2.0000     -10.327369      -281.0220
   3   2.0000     -10.322440      -280.8879
   4   2.0000     -10.321828      -280.8712
   5   2.0000     -10.312907      -280.6285
   6   2.0000     -10.312330      -280.6128
   7   2.0000     -10.302890      -280.3559
   8   2.0000     -10.296395      -280.1791
   9   2.0000     -10.295028      -280.1419
  10   2.0000     -10.290676      -280.0235
  11   2.0000     -10.289859      -280.0013
  12   2.0000     -10.289521      -279.9921
  13   2.0000     -10.285473      -279.8819
  14   2.0000     -10.280135      -279.7367
  15   2.0000     -10.278679      -279.6971
  16   2.0000      -8.087865      -220.0820
  17   2.0000      -8.080285      -219.8757
  18   2.0000      -6.046395      -164.5308
  19   2.0000      -6.042640      -164.4286
  20   2.0000      -6.038959      -164.3284
  21   2.0000      -6.038517      -164.3164
  22   2.0000      -6.035070      -164.2226
  23   2.0000      -6.030786      -164.1060
  24   2.0000      -1.005747       -27.3678
  25   2.0000      -0.978599       -26.6290
  26   2.0000      -0.914607       -24.8877
  27   2.0000      -0.903401       -24.5828
  28   2.0000      -0.865216       -23.5437
  29   2.0000      -0.851269       -23.1642
  30   2.0000      -0.841593       -22.9009
  31   2.0000      -0.811222       -22.0745
  32   2.0000      -0.783217       -21.3124
  33   2.0000      -0.770048       -20.9541
  34   2.0000      -0.705943       -19.2097
  35   2.0000      -0.698422       -19.0050
  36   2.0000      -0.689204       -18.7542
  37   2.0000      -0.670299       -18.2398
  38   2.0000      -0.633029       -17.2256
  39   2.0000      -0.614965       -16.7340
  40   2.0000      -0.602030       -16.3821
  41   2.0000      -0.572843       -15.5879
  42   2.0000      -0.558289       -15.1918
  43   2.0000      -0.553889       -15.0721
  44   2.0000      -0.526513       -14.3271
  45   2.0000      -0.518877       -14.1194
  46   2.0000      -0.514794       -14.0083
  47   2.0000      -0.509874       -13.8744
  48   2.0000      -0.504076       -13.7166
  49   2.0000      -0.498097       -13.5539
  50   2.0000      -0.487242       -13.2585
  51   2.0000      -0.475151       -12.9295
  52   2.0000      -0.470881       -12.8133
  53   2.0000      -0.466412       -12.6917
  54   2.0000      -0.458331       -12.4718
  55   2.0000      -0.453931       -12.3521
  56   2.0000      -0.445975       -12.1356
  57   2.0000      -0.437132       -11.8950
  58   2.0000      -0.431350       -11.7376
  59   2.0000      -0.430539       -11.7155
  60   2.0000      -0.423172       -11.5151
  61   2.0000      -0.411328       -11.1928
  62   2.0000      -0.404645       -11.0109
  63   2.0000      -0.347513        -9.4563
  64   2.0000      -0.337350        -9.1798
  65   2.0000      -0.327698        -8.9171
  66   2.0000      -0.282551        -7.6886
  67   0.0000       0.021396         0.5822
  68   0.0000       0.075369         2.0509
  69   0.0000       0.101270         2.7557
  70   0.0000       0.108916         2.9637
  71   0.0000       0.124930         3.3995

MULLIKEN ATOMIC CHARGES
-----------------------
   0 S :    0.089451
   1 C :   -0.110230
   2 C :   -0.111995
   3 C :   -0.029673
   4 C :   -0.103445
   5 H :    0.031081
   6 C :    0.114474
   7 H :    0.016392
   8 H :    0.053385
   9 C :   -0.110438
  10 H :    0.032928
  11 H :    0.032060
  12 C :   -0.056535
  13 H :    0.038527
  14 H :    0.024217
  15 H :    0.030788
  16 S :    0.124849
  17 C :   -0.056496
  18 C :   -0.026714
  19 C :   -0.036802
  20 C :   -0.164214
  21 H :    0.008599
  22 C :    0.059003
  23 H :    0.019447
  24 H :    0.025432
  25 C :   -0.101103
  26 H :    0.036851
  27 H :    0.040487
  28 C :   -0.056797
  29 H :    0.033337
  30 H :    0.043263
  31 H :    0.026155
  32 H :    0.050678
  33 H :    0.033039
Sum of atomic charges:    0.0000000

LOEWDIN ATOMIC CHARGES
----------------------
   0 S :    0.393153
   1 C :   -0.192595
   2 C :   -0.042027
   3 C :   -0.081933
   4 C :   -0.188393
   5 H :    0.031472
   6 C :   -0.032699
   7 H :    0.033190
   8 H :    0.037446
   9 C :   -0.041810
  10 H :    0.030004
  11 H :    0.019032
  12 C :   -0.071146
  13 H :    0.027320
  14 H :    0.024893
  15 H :    0.025759
  16 S :    0.413603
  17 C :   -0.185553
  18 C :   -0.059833
  19 C :   -0.056356
  20 C :   -0.185645
  21 H :    0.027843
  22 C :   -0.033437
  23 H :    0.009135
  24 H :    0.035604
  25 C :   -0.044352
  26 H :    0.030458
  27 H :    0.026440
  28 C :   -0.074360
  29 H :    0.023651
  30 H :    0.035175
  31 H :    0.021810
  32 H :    0.024227
  33 H :    0.019929

  Mayer bond orders larger than 0.100000
B(  0-S ,  1-C ) :   1.1047 B(  0-S ,  4-C ) :   1.1356 B(  1-C ,  2-C ) :   1.6340
B(  1-C , 32-H ) :   0.9706 B(  2-C ,  3-C ) :   1.1739 B(  2-C ,  6-C ) :   1.0325
B(  3-C ,  4-C ) :   1.6108 B(  3-C ,  5-H ) :   0.9792 B(  4-C , 20-C ) :   1.0700
B(  6-C ,  7-H ) :   0.9316 B(  6-C ,  8-H ) :   0.9388 B(  6-C ,  9-C ) :   1.0691
B(  9-C , 10-H ) :   0.9628 B(  9-C , 11-H ) :   0.9595 B(  9-C , 12-C ) :   1.0659
B( 12-C , 13-H ) :   0.9809 B( 12-C , 14-H ) :   0.9753 B( 12-C , 15-H ) :   0.9747
B( 16-S , 17-C ) :   1.1353 B( 16-S , 20-C ) :   1.1407 B( 17-C , 18-C ) :   1.6087
B( 17-C , 33-H ) :   0.9710 B( 18-C , 19-C ) :   1.2574 B( 18-C , 21-H ) :   0.9896
B( 19-C , 20-C ) :   1.5680 B( 19-C , 22-C ) :   1.0552 B( 22-C , 23-H ) :   0.9380
B( 22-C , 24-H ) :   0.9364 B( 22-C , 25-C ) :   1.0397 B( 25-C , 26-H ) :   0.9570
B( 25-C , 27-H ) :   0.9630 B( 25-C , 28-C ) :   1.0647 B( 28-C , 29-H ) :   0.9766
B( 28-C , 30-H ) :   0.9752 B( 28-C , 31-H ) :   0.9778

Dispersion correction           -0.014021404
FINAL SINGLE POINT ENERGY     -1339.857141440426

DIPOLE MOMENT
-------------
                                X             Y             Z
Electronic contribution:     -6.66101     -10.55747      -4.50287
Nuclear contribution   :      6.62288      10.82522       4.57380
                        -----------------------------------------
Total Dipole Moment    :     -0.03812       0.26775       0.07093
                        -----------------------------------------
Magnitude (a.u.)       :      0.27960
Magnitude (Debye)      :      0.71068

Rotational constants in cm-1:     0.020507     0.008190     0.006501
Rotational constants in MHz :   614.792694   245.536453   194.891602

                             ****ORCA TERMINATED NORMALLY****
TOTAL RUN TIME: 0 days 0 hours 0 minutes 22 seconds 311 msec
