                         Program Version 4.2.1 -  RELEASE  -
|  1> ! wB97X-D3 SP def2-SVP
|  2> %pal
|  3> nprocs 24
|  4> end
|  5>
|  6> * xyz 0 1
|  7> S 	 -137.602 	 7.47215 	 -15.0228
|  8> C 	 -138.62 	 8.74598 	 -14.2762
|  9> C 	 -137.894 	 9.88374 	 -14.0264
| 10> C 	 -136.514 	 9.77486 	 -14.4982
| 11> C 	 -136.202 	 8.50911 	 -14.9706
| 12> H 	 -135.847 	 10.6464 	 -14.5496
| 13> C 	 -138.494 	 11.171 	 -13.6398
| 14> H 	 -139.552 	 11.0203 	 -13.9468
| 15> H 	 -137.969 	 11.9613 	 -14.3056
| 16> C 	 -138.518 	 11.4475 	 -12.1531
| 17> H 	 -139.254 	 10.6972 	 -11.6354
| 18> H 	 -137.57 	 11.3164 	 -11.6539
| 19> C 	 -139.011 	 12.8582 	 -11.7406
| 20> H 	 -139.063 	 12.8393 	 -10.6381
| 21> H 	 -138.342 	 13.7011 	 -11.9292
| 22> H 	 -139.887 	 13.0557 	 -12.3027
| 23> S 	 -134.735 	 7.41148 	 -17.0999
| 24> C 	 -133.024 	 7.52136 	 -16.9565
| 25> C 	 -132.622 	 7.96796 	 -15.7338
| 26> C 	 -133.671 	 8.33556 	 -14.9006
| 27> C 	 -134.884 	 8.0813 	 -15.4767
| 28> H 	 -131.547 	 8.11051 	 -15.4363
| 29> C 	 -133.355 	 8.98281 	 -13.5406
| 30> H 	 -132.938 	 8.33534 	 -12.8759
| 31> H 	 -134.365 	 9.14087 	 -13.1592
| 32> C 	 -132.431 	 10.2679 	 -13.643
| 33> H 	 -132.575 	 10.8777 	 -14.5094
| 34> H 	 -131.344 	 9.96248 	 -13.7532
| 35> C 	 -132.54 	 11.0251 	 -12.3585
| 36> H 	 -132.116 	 12.0256 	 -12.566
| 37> H 	 -131.892 	 10.5779 	 -11.544
| 38> H 	 -133.521 	 11.1662 	 -11.9022
| 39> H 	 -139.645 	 8.69196 	 -14.0812
| 40> H 	 -132.384 	 7.1177 	 -17.7869
| 41> *
| 42>
| 43>                          ****END OF INPUT****

CARTESIAN COORDINATES (ANGSTROEM)
---------------------------------
  S    -137.602000    7.472150  -15.022800
  C    -138.620000    8.745980  -14.276200
  C    -137.894000    9.883740  -14.026400
  C    -136.514000    9.774860  -14.498200
  C    -136.202000    8.509110  -14.970600
  H    -135.847000   10.646400  -14.549600
  C    -138.494000   11.171000  -13.639800
  H    -139.552000   11.020300  -13.946800
  H    -137.969000   11.961300  -14.305600
  C    -138.518000   11.447500  -12.153100
  H    -139.254000   10.697200  -11.635400
  H    -137.570000   11.316400  -11.653900
  C    -139.011000   12.858200  -11.740600
  H    -139.063000   12.839300  -10.638100
  H    -138.342000   13.701100  -11.929200
  H    -139.887000   13.055700  -12.302700
  S    -134.735000    7.411480  -17.099900
  C    -133.024000    7.521360  -16.956500
  C    -132.622000    7.967960  -15.733800
  C    -133.671000    8.335560  -14.900600
  C    -134.884000    8.081300  -15.476700
  H    -131.547000    8.110510  -15.436300
  C    -133.355000    8.982810  -13.540600
  H    -132.938000    8.335340  -12.875900
  H    -134.365000    9.140870  -13.159200
  C    -132.431000   10.267900  -13.643000
  H    -132.575000   10.877700  -14.509400
  H    -131.344000    9.962480  -13.753200
  C    -132.540000   11.025100  -12.358500
  H    -132.116000   12.025600  -12.566000
  H    -131.892000   10.577900  -11.544000
  H    -133.521000   11.166200  -11.902200
  H    -139.645000    8.691960  -14.081200
  H    -132.384000    7.117700  -17.786900

 Total Charge           Charge          ....    0
 Multiplicity           Mult            ....    1
 Number of Electrons    NEL             ....  134
 Basis Dimension        Dim             ....  322

ORBITAL ENERGIES
----------------

  NO   OCC          E(Eh)            E(eV)
   0   2.0000     -88.965780     -2420.8820
   1   2.0000     -88.965224     -2420.8668
   2   2.0000     -10.330178      -281.0984
   3   2.0000     -10.323135      -280.9068
   4   2.0000     -10.317463      -280.7525
   5   2.0000     -10.310170      -280.5540
   6   2.0000     -10.298005      -280.2230
   7   2.0000     -10.297543      -280.2104
   8   2.0000     -10.295849      -280.1643
   9   2.0000     -10.295344      -280.1505
  10   2.0000     -10.293941      -280.1124
  11   2.0000     -10.293837      -280.1095
  12   2.0000     -10.289262      -279.9851
  13   2.0000     -10.286504      -279.9100
  14   2.0000     -10.282536      -279.8020
  15   2.0000     -10.277844      -279.6744
  16   2.0000      -8.081179      -219.9001
  17   2.0000      -8.079372      -219.8509
  18   2.0000      -6.039537      -164.3441
  19   2.0000      -6.038067      -164.3042
  20   2.0000      -6.035743      -164.2409
  21   2.0000      -6.033995      -164.1933
  22   2.0000      -6.031909      -164.1366
  23   2.0000      -6.029965      -164.0837
  24   2.0000      -1.008682       -27.4476
  25   2.0000      -0.983769       -26.7697
  26   2.0000      -0.914868       -24.8948
  27   2.0000      -0.908991       -24.7349
  28   2.0000      -0.867234       -23.5986
  29   2.0000      -0.858096       -23.3500
  30   2.0000      -0.844075       -22.9684
  31   2.0000      -0.811433       -22.0802
  32   2.0000      -0.783374       -21.3167
  33   2.0000      -0.771438       -20.9919
  34   2.0000      -0.704951       -19.1827
  35   2.0000      -0.698407       -19.0046
  36   2.0000      -0.696188       -18.9442
  37   2.0000      -0.657211       -17.8836
  38   2.0000      -0.636786       -17.3278
  39   2.0000      -0.618650       -16.8343
  40   2.0000      -0.600878       -16.3507
  41   2.0000      -0.563977       -15.3466
  42   2.0000      -0.562081       -15.2950
  43   2.0000      -0.556867       -15.1531
  44   2.0000      -0.532002       -14.4765
  45   2.0000      -0.530518       -14.4361
  46   2.0000      -0.520904       -14.1745
  47   2.0000      -0.509697       -13.8696
  48   2.0000      -0.501294       -13.6409
  49   2.0000      -0.496839       -13.5197
  50   2.0000      -0.489768       -13.3273
  51   2.0000      -0.486337       -13.2339
  52   2.0000      -0.473323       -12.8798
  53   2.0000      -0.465008       -12.6535
  54   2.0000      -0.453350       -12.3363
  55   2.0000      -0.450223       -12.2512
  56   2.0000      -0.443942       -12.0803
  57   2.0000      -0.440605       -11.9895
  58   2.0000      -0.438573       -11.9342
  59   2.0000      -0.420758       -11.4494
  60   2.0000      -0.417539       -11.3618
  61   2.0000      -0.413835       -11.2610
  62   2.0000      -0.409721       -11.1491
  63   2.0000      -0.344791        -9.3822
  64   2.0000      -0.335264        -9.1230
  65   2.0000      -0.327023        -8.8987
  66   2.0000      -0.292665        -7.9638
  67   0.0000       0.033354         0.9076
  68   0.0000       0.074749         2.0340
  69   0.0000       0.106834         2.9071
  70   0.0000       0.120629         3.2825
  71   0.0000       0.129901         3.5348

MULLIKEN ATOMIC CHARGES
-----------------------
   0 S :    0.099502
   1 C :   -0.096665
   2 C :   -0.087389
   3 C :    0.014454
   4 C :   -0.155555
   5 H :    0.024030
   6 C :    0.030783
   7 H :    0.027001
   8 H :    0.050692
   9 C :   -0.105143
  10 H :    0.040514
  11 H :    0.026351
  12 C :   -0.028643
  13 H :    0.039287
  14 H :    0.027420
  15 H :    0.024011
  16 S :    0.113944
  17 C :   -0.116069
  18 C :   -0.034610
  19 C :   -0.043259
  20 C :   -0.152445
  21 H :    0.031354
  22 C :    0.116396
  23 H :    0.009810
  24 H :    0.021799
  25 C :   -0.087143
  26 H :    0.033321
  27 H :    0.036546
  28 C :   -0.066555
  29 H :    0.032624
  30 H :    0.038727
  31 H :    0.037130
  32 H :    0.021979
  33 H :    0.075799
Sum of atomic charges:    0.0000000

LOEWDIN ATOMIC CHARGES
----------------------
   0 S :    0.385751
   1 C :   -0.180793
   2 C :   -0.061701
   3 C :   -0.068487
   4 C :   -0.189233
   5 H :    0.033870
   6 C :   -0.045243
   7 H :    0.036993
   8 H :    0.044063
   9 C :   -0.046004
  10 H :    0.036214
  11 H :    0.018578
  12 C :   -0.065893
  13 H :    0.032246
  14 H :    0.022986
  15 H :    0.018417
  16 S :    0.410716
  17 C :   -0.194370
  18 C :   -0.080694
  19 C :   -0.054834
  20 C :   -0.202380
  21 H :    0.039811
  22 C :   -0.017828
  23 H :    0.019114
  24 H :    0.030710
  25 C :   -0.040139
  26 H :    0.020083
  27 H :    0.032876
  28 C :   -0.073323
  29 H :    0.029083
  30 H :    0.032214
  31 H :    0.023324
  32 H :    0.016030
  33 H :    0.037845

  Mayer bond orders larger than 0.100000
B(  0-S ,  1-C ) :   1.1095 B(  0-S ,  4-C ) :   1.1514 B(  1-C ,  2-C ) :   1.6485
B(  1-C , 32-H ) :   0.9700 B(  2-C ,  3-C ) :   1.2162 B(  2-C ,  6-C ) :   1.0245
B(  3-C ,  4-C ) :   1.5836 B(  3-C ,  5-H ) :   0.9891 B(  4-C , 20-C ) :   1.0099
B(  6-C ,  7-H ) :   0.9350 B(  6-C ,  8-H ) :   0.9456 B(  6-C ,  9-C ) :   1.0591
B(  9-C , 10-H ) :   0.9523 B(  9-C , 11-H ) :   0.9601 B(  9-C , 12-C ) :   1.0789
B( 12-C , 13-H ) :   0.9746 B( 12-C , 14-H ) :   0.9761 B( 12-C , 15-H ) :   0.9738
B( 16-S , 17-C ) :   1.1663 B( 16-S , 20-C ) :   1.1398 B( 17-C , 18-C ) :   1.5897
B( 17-C , 33-H ) :   0.9605 B( 18-C , 19-C ) :   1.2585 B( 18-C , 21-H ) :   0.9861
B( 19-C , 20-C ) :   1.6162 B( 19-C , 22-C ) :   1.0266 B( 22-C , 23-H ) :   0.9277
B( 22-C , 24-H ) :   0.9396 B( 22-C , 25-C ) :   1.0427 B( 25-C , 26-H ) :   0.9687
B( 25-C , 27-H ) :   0.9454 B( 25-C , 28-C ) :   1.0864 B( 28-C , 29-H ) :   0.9726
B( 28-C , 30-H ) :   0.9730 B( 28-C , 31-H ) :   0.9786

Dispersion correction           -0.013855294
FINAL SINGLE POINT ENERGY     -1339.868863363589

DIPOLE MOMENT
-------------
                                X             Y             Z
Electronic contribution:     -2.53823     -24.73902     -21.90705
Nuclear contribution   :      2.84307      25.34004      22.23257
                        -----------------------------------------
Total Dipole Moment    :      0.30485       0.60102       0.32552
                        -----------------------------------------
Magnitude (a.u.)       :      0.74841
Magnitude (Debye)      :      1.90231

Rotational constants in cm-1:     0.017371     0.009009     0.006302
Rotational constants in MHz :   520.762124   270.070455   188.927446

                             ****ORCA TERMINATED NORMALLY****
TOTAL RUN TIME: 0 days 0 hours 0 minutes 21 seconds 430 msec
