                         Program Version 4.2.1 -  RELEASE  -
|  1> ! wB97X-D3 SP def2-SVP
|  2> %pal
|  3> nprocs 24
|  4> end
|  5>
|  6> * xyz 0 1
|  7> S 	 -144.347 	 1.8429 	 15.5106
|  8> C 	 -144.404 	 1.46496 	 13.7753
|  9> C 	 -144.449 	 2.66039 	 13.0904
| 10> C 	 -144.395 	 3.82019 	 13.9381
| 11> C 	 -144.348 	 3.51812 	 15.2605
| 12> H 	 -144.363 	 4.7782 	 13.5787
| 13> C 	 -144.385 	 2.77241 	 11.574
| 14> H 	 -144.594 	 3.84298 	 11.2393
| 15> H 	 -145.281 	 2.19202 	 11.1987
| 16> C 	 -143.114 	 2.39686 	 10.9113
| 17> H 	 -142.315 	 3.0216 	 11.3958
| 18> H 	 -143.004 	 1.33706 	 11.1367
| 19> C 	 -142.958 	 2.57555 	 9.37092
| 20> H 	 -141.926 	 2.4168 	 9.16626
| 21> H 	 -143.581 	 1.89975 	 8.66007
| 22> H 	 -143.073 	 3.64374 	 9.08944
| 23> S 	 -143.085 	 5.56827 	 16.4842
| 24> C 	 -143.696 	 6.13718 	 17.9398
| 25> C 	 -144.93 	 5.56595 	 18.3037
| 26> C 	 -145.383 	 4.60261 	 17.2994
| 27> C 	 -144.372 	 4.44712 	 16.3583
| 28> H 	 -145.4 	 5.97045 	 19.0999
| 29> C 	 -146.712 	 3.91717 	 17.37
| 30> H 	 -147.336 	 4.24621 	 18.2308
| 31> H 	 -146.682 	 2.82388 	 17.3477
| 32> C 	 -147.599 	 4.3015 	 16.1496
| 33> H 	 -147.003 	 4.54893 	 15.2699
| 34> H 	 -148.239 	 5.18269 	 16.283
| 35> C 	 -148.571 	 3.17084 	 15.8715
| 36> H 	 -149.213 	 3.27174 	 15.0208
| 37> H 	 -149.281 	 3.06719 	 16.7556
| 38> H 	 -148.119 	 2.29457 	 15.6988
| 39> H 	 -144.686 	 0.554985 	 13.3625
| 40> H 	 -143.39 	 7.10384 	 18.4024
| 41> *
| 42>
| 43>                          ****END OF INPUT****

CARTESIAN COORDINATES (ANGSTROEM)
---------------------------------
  S    -144.347000    1.842900   15.510600
  C    -144.404000    1.464960   13.775300
  C    -144.449000    2.660390   13.090400
  C    -144.395000    3.820190   13.938100
  C    -144.348000    3.518120   15.260500
  H    -144.363000    4.778200   13.578700
  C    -144.385000    2.772410   11.574000
  H    -144.594000    3.842980   11.239300
  H    -145.281000    2.192020   11.198700
  C    -143.114000    2.396860   10.911300
  H    -142.315000    3.021600   11.395800
  H    -143.004000    1.337060   11.136700
  C    -142.958000    2.575550    9.370920
  H    -141.926000    2.416800    9.166260
  H    -143.581000    1.899750    8.660070
  H    -143.073000    3.643740    9.089440
  S    -143.085000    5.568270   16.484200
  C    -143.696000    6.137180   17.939800
  C    -144.930000    5.565950   18.303700
  C    -145.383000    4.602610   17.299400
  C    -144.372000    4.447120   16.358300
  H    -145.400000    5.970450   19.099900
  C    -146.712000    3.917170   17.370000
  H    -147.336000    4.246210   18.230800
  H    -146.682000    2.823880   17.347700
  C    -147.599000    4.301500   16.149600
  H    -147.003000    4.548930   15.269900
  H    -148.239000    5.182690   16.283000
  C    -148.571000    3.170840   15.871500
  H    -149.213000    3.271740   15.020800
  H    -149.281000    3.067190   16.755600
  H    -148.119000    2.294570   15.698800
  H    -144.686000    0.554985   13.362500
  H    -143.390000    7.103840   18.402400

 Total Charge           Charge          ....    0
 Multiplicity           Mult            ....    1
 Number of Electrons    NEL             ....  134
 Basis Dimension        Dim             ....  322

ORBITAL ENERGIES
----------------

  NO   OCC          E(Eh)            E(eV)
   0   2.0000     -88.968863     -2420.9659
   1   2.0000     -88.965014     -2420.8611
   2   2.0000     -10.321077      -280.8508
   3   2.0000     -10.319594      -280.8104
   4   2.0000     -10.314077      -280.6603
   5   2.0000     -10.310469      -280.5621
   6   2.0000     -10.308208      -280.5006
   7   2.0000     -10.301523      -280.3187
   8   2.0000     -10.295292      -280.1491
   9   2.0000     -10.294174      -280.1187
  10   2.0000     -10.290228      -280.0113
  11   2.0000     -10.289410      -279.9891
  12   2.0000     -10.287698      -279.9425
  13   2.0000     -10.284118      -279.8451
  14   2.0000     -10.279454      -279.7182
  15   2.0000     -10.264061      -279.2993
  16   2.0000      -8.085441      -220.0160
  17   2.0000      -8.080191      -219.8732
  18   2.0000      -6.043607      -164.4549
  19   2.0000      -6.039674      -164.3479
  20   2.0000      -6.038692      -164.3212
  21   2.0000      -6.036487      -164.2612
  22   2.0000      -6.034462      -164.2061
  23   2.0000      -6.031089      -164.1143
  24   2.0000      -1.017222       -27.6800
  25   2.0000      -0.990970       -26.9657
  26   2.0000      -0.914975       -24.8977
  27   2.0000      -0.910828       -24.7849
  28   2.0000      -0.871315       -23.7097
  29   2.0000      -0.856047       -23.2942
  30   2.0000      -0.846404       -23.0318
  31   2.0000      -0.815514       -22.1913
  32   2.0000      -0.785701       -21.3800
  33   2.0000      -0.772950       -21.0330
  34   2.0000      -0.707238       -19.2449
  35   2.0000      -0.695011       -18.9122
  36   2.0000      -0.690572       -18.7914
  37   2.0000      -0.667199       -18.1554
  38   2.0000      -0.647252       -17.6126
  39   2.0000      -0.619960       -16.8700
  40   2.0000      -0.601403       -16.3650
  41   2.0000      -0.575520       -15.6607
  42   2.0000      -0.567785       -15.4502
  43   2.0000      -0.558835       -15.2067
  44   2.0000      -0.531731       -14.4691
  45   2.0000      -0.522045       -14.2056
  46   2.0000      -0.516994       -14.0681
  47   2.0000      -0.507344       -13.8055
  48   2.0000      -0.505417       -13.7531
  49   2.0000      -0.500558       -13.6209
  50   2.0000      -0.489720       -13.3260
  51   2.0000      -0.486171       -13.2294
  52   2.0000      -0.476870       -12.9763
  53   2.0000      -0.469420       -12.7736
  54   2.0000      -0.458912       -12.4876
  55   2.0000      -0.450550       -12.2601
  56   2.0000      -0.443447       -12.0668
  57   2.0000      -0.435788       -11.8584
  58   2.0000      -0.430345       -11.7103
  59   2.0000      -0.428288       -11.6543
  60   2.0000      -0.415904       -11.3173
  61   2.0000      -0.410876       -11.1805
  62   2.0000      -0.408393       -11.1129
  63   2.0000      -0.335098        -9.1185
  64   2.0000      -0.332172        -9.0389
  65   2.0000      -0.329843        -8.9755
  66   2.0000      -0.303392        -8.2557
  67   0.0000       0.034015         0.9256
  68   0.0000       0.070090         1.9072
  69   0.0000       0.110225         2.9994
  70   0.0000       0.122442         3.3318
  71   0.0000       0.126974         3.4551

MULLIKEN ATOMIC CHARGES
-----------------------
   0 S :    0.111705
   1 C :   -0.103711
   2 C :   -0.087363
   3 C :    0.072294
   4 C :   -0.149911
   5 H :   -0.031491
   6 C :    0.027910
   7 H :    0.016026
   8 H :    0.034679
   9 C :   -0.071898
  10 H :    0.038673
  11 H :    0.025482
  12 C :   -0.054708
  13 H :    0.028346
  14 H :    0.051795
  15 H :    0.028393
  16 S :    0.147622
  17 C :   -0.109084
  18 C :   -0.006578
  19 C :   -0.001956
  20 C :   -0.189832
  21 H :   -0.025215
  22 C :    0.078800
  23 H :    0.031773
  24 H :    0.037447
  25 C :   -0.088201
  26 H :    0.037642
  27 H :    0.027411
  28 C :   -0.026389
  29 H :    0.018229
  30 H :    0.026424
  31 H :    0.003446
  32 H :    0.031493
  33 H :    0.070746
Sum of atomic charges:   -0.0000000

LOEWDIN ATOMIC CHARGES
----------------------
   0 S :    0.427168
   1 C :   -0.188080
   2 C :   -0.054103
   3 C :   -0.061189
   4 C :   -0.208155
   5 H :    0.014499
   6 C :   -0.046484
   7 H :    0.028542
   8 H :    0.033827
   9 C :   -0.046659
  10 H :    0.034976
  11 H :    0.022625
  12 C :   -0.073115
  13 H :    0.024173
  14 H :    0.035848
  15 H :    0.025994
  16 S :    0.461782
  17 C :   -0.219642
  18 C :   -0.054501
  19 C :   -0.043104
  20 C :   -0.221187
  21 H :    0.010208
  22 C :   -0.032677
  23 H :    0.039288
  24 H :    0.030969
  25 C :   -0.038522
  26 H :    0.022652
  27 H :    0.023789
  28 C :   -0.059651
  29 H :    0.022758
  30 H :    0.030492
  31 H :    0.003739
  32 H :    0.016957
  33 H :    0.036781

  Mayer bond orders larger than 0.100000
B(  0-S ,  1-C ) :   1.1265 B(  0-S ,  4-C ) :   1.1772 B(  1-C ,  2-C ) :   1.6035
B(  1-C , 32-H ) :   0.9777 B(  2-C ,  3-C ) :   1.2487 B(  2-C ,  6-C ) :   1.0221
B(  3-C ,  4-C ) :   1.5531 B(  3-C ,  5-H ) :   1.0148 B(  4-C , 20-C ) :   1.0104
B(  6-C ,  7-H ) :   0.9416 B(  6-C ,  8-H ) :   0.9338 B(  6-C ,  9-C ) :   1.0730
B(  9-C , 10-H ) :   0.9500 B(  9-C , 11-H ) :   0.9516 B(  9-C , 12-C ) :   1.0835
B( 12-C , 13-H ) :   0.9728 B( 12-C , 14-H ) :   0.9737 B( 12-C , 15-H ) :   0.9715
B( 16-S , 17-C ) :   1.1821 B( 16-S , 20-C ) :   1.1704 B( 17-C , 18-C ) :   1.5942
B( 17-C , 33-H ) :   0.9571 B( 18-C , 19-C ) :   1.2460 B( 18-C , 21-H ) :   1.0038
B( 19-C , 20-C ) :   1.5593 B( 19-C , 22-C ) :   1.0585 B( 22-C , 23-H ) :   0.9297
B( 22-C , 24-H ) :   0.9433 B( 22-C , 25-C ) :   1.0292 B( 25-C , 26-H ) :   0.9659
B( 25-C , 27-H ) :   0.9554 B( 25-C , 28-C ) :   1.0839 B( 28-C , 29-H ) :   0.9694
B( 28-C , 30-H ) :   0.9712 B( 28-C , 31-H ) :   0.9755

Dispersion correction           -0.014814206
FINAL SINGLE POINT ENERGY     -1339.858660670653

DIPOLE MOMENT
-------------
                                X             Y             Z
Electronic contribution:     12.33366       3.72736      18.35860
Nuclear contribution   :    -12.67550      -3.49468     -18.69954
                        -----------------------------------------
Total Dipole Moment    :     -0.34184       0.23269      -0.34095
                        -----------------------------------------
Magnitude (a.u.)       :      0.53595
Magnitude (Debye)      :      1.36228

Rotational constants in cm-1:     0.020665     0.008272     0.006872
Rotational constants in MHz :   619.518108   247.985554   206.003847

                             ****ORCA TERMINATED NORMALLY****
TOTAL RUN TIME: 0 days 0 hours 0 minutes 21 seconds 826 msec
