                         Program Version 4.2.1 -  RELEASE  -
|  1> ! wB97X-D3 SP def2-SVP
|  2> %pal
|  3> nprocs 24
|  4> end
|  5>
|  6> * xyz 0 1
|  7> S 	 -58.8484 	 4.43929 	 -20.3749
|  8> C 	 -60.3059 	 5.38034 	 -20.3597
|  9> C 	 -61.4366 	 4.61804 	 -20.1749
| 10> C 	 -61.0712 	 3.23322 	 -20.0621
| 11> C 	 -59.7285 	 2.95196 	 -20.1751
| 12> H 	 -61.8063 	 2.38344 	 -19.9615
| 13> C 	 -62.8551 	 5.11842 	 -20.1272
| 14> H 	 -62.6912 	 6.16196 	 -20.2119
| 15> H 	 -63.252 	 4.96118 	 -19.0897
| 16> C 	 -63.7578 	 4.44102 	 -21.166
| 17> H 	 -63.3434 	 4.75688 	 -22.1011
| 18> H 	 -63.7004 	 3.31978 	 -21.0673
| 19> C 	 -65.2189 	 4.95406 	 -21.1374
| 20> H 	 -65.1759 	 5.99004 	 -21.4435
| 21> H 	 -65.7958 	 4.40383 	 -21.9223
| 22> H 	 -65.7125 	 4.89635 	 -20.2341
| 23> S 	 -57.588 	 1.5807 	 -21.2625
| 24> C 	 -57.2772 	 -0.0585291 	 -20.7902
| 25> C 	 -58.4217 	 -0.601096 	 -20.2593
| 26> C 	 -59.4297 	 0.371317 	 -20.0695
| 27> C 	 -59.1149 	 1.65013 	 -20.3874
| 28> H 	 -58.4122 	 -1.6637 	 -19.9545
| 29> C 	 -60.6582 	 -0.0397395 	 -19.257
| 30> H 	 -61.2169 	 0.873601 	 -18.9539
| 31> H 	 -60.4334 	 -0.375466 	 -18.2798
| 32> C 	 -61.509 	 -1.01503 	 -20.0547
| 33> H 	 -62.0468 	 -1.64441 	 -19.3083
| 34> H 	 -60.7943 	 -1.67908 	 -20.4951
| 35> C 	 -62.5605 	 -0.409727 	 -21.0217
| 36> H 	 -63.1786 	 -1.19344 	 -21.4243
| 37> H 	 -62.1604 	 0.0346587 	 -21.9251
| 38> H 	 -63.1578 	 0.275475 	 -20.4435
| 39> H 	 -60.3769 	 6.42042 	 -20.404
| 40> H 	 -56.4051 	 -0.657955 	 -21.1298
| 41> *
| 42>
| 43>                          ****END OF INPUT****

CARTESIAN COORDINATES (ANGSTROEM)
---------------------------------
  S    -58.848400    4.439290  -20.374900
  C    -60.305900    5.380340  -20.359700
  C    -61.436600    4.618040  -20.174900
  C    -61.071200    3.233220  -20.062100
  C    -59.728500    2.951960  -20.175100
  H    -61.806300    2.383440  -19.961500
  C    -62.855100    5.118420  -20.127200
  H    -62.691200    6.161960  -20.211900
  H    -63.252000    4.961180  -19.089700
  C    -63.757800    4.441020  -21.166000
  H    -63.343400    4.756880  -22.101100
  H    -63.700400    3.319780  -21.067300
  C    -65.218900    4.954060  -21.137400
  H    -65.175900    5.990040  -21.443500
  H    -65.795800    4.403830  -21.922300
  H    -65.712500    4.896350  -20.234100
  S    -57.588000    1.580700  -21.262500
  C    -57.277200   -0.058529  -20.790200
  C    -58.421700   -0.601096  -20.259300
  C    -59.429700    0.371317  -20.069500
  C    -59.114900    1.650130  -20.387400
  H    -58.412200   -1.663700  -19.954500
  C    -60.658200   -0.039739  -19.257000
  H    -61.216900    0.873601  -18.953900
  H    -60.433400   -0.375466  -18.279800
  C    -61.509000   -1.015030  -20.054700
  H    -62.046800   -1.644410  -19.308300
  H    -60.794300   -1.679080  -20.495100
  C    -62.560500   -0.409727  -21.021700
  H    -63.178600   -1.193440  -21.424300
  H    -62.160400    0.034659  -21.925100
  H    -63.157800    0.275475  -20.443500
  H    -60.376900    6.420420  -20.404000
  H    -56.405100   -0.657955  -21.129800

 Total Charge           Charge          ....    0
 Multiplicity           Mult            ....    1
 Number of Electrons    NEL             ....  134
 Basis Dimension        Dim             ....  322

ORBITAL ENERGIES
----------------

  NO   OCC          E(Eh)            E(eV)
   0   2.0000     -88.968112     -2420.9454
   1   2.0000     -88.959960     -2420.7236
   2   2.0000     -10.330430      -281.1053
   3   2.0000     -10.327114      -281.0151
   4   2.0000     -10.317098      -280.7425
   5   2.0000     -10.309301      -280.5303
   6   2.0000     -10.299145      -280.2540
   7   2.0000     -10.296674      -280.1867
   8   2.0000     -10.294978      -280.1406
   9   2.0000     -10.293601      -280.1031
  10   2.0000     -10.293046      -280.0880
  11   2.0000     -10.292308      -280.0679
  12   2.0000     -10.285675      -279.8874
  13   2.0000     -10.284169      -279.8465
  14   2.0000     -10.277564      -279.6667
  15   2.0000     -10.276616      -279.6409
  16   2.0000      -8.083019      -219.9501
  17   2.0000      -8.075241      -219.7385
  18   2.0000      -6.041646      -164.4016
  19   2.0000      -6.037494      -164.2886
  20   2.0000      -6.033789      -164.1878
  21   2.0000      -6.033637      -164.1836
  22   2.0000      -6.029699      -164.0765
  23   2.0000      -6.025881      -163.9725
  24   2.0000      -1.013005       -27.5653
  25   2.0000      -0.990602       -26.9556
  26   2.0000      -0.915704       -24.9176
  27   2.0000      -0.909109       -24.7381
  28   2.0000      -0.873893       -23.7798
  29   2.0000      -0.850846       -23.1527
  30   2.0000      -0.842396       -22.9228
  31   2.0000      -0.818296       -22.2670
  32   2.0000      -0.784629       -21.3508
  33   2.0000      -0.778522       -21.1846
  34   2.0000      -0.713896       -19.4261
  35   2.0000      -0.700130       -19.0515
  36   2.0000      -0.697110       -18.9693
  37   2.0000      -0.658663       -17.9231
  38   2.0000      -0.639191       -17.3933
  39   2.0000      -0.622877       -16.9493
  40   2.0000      -0.602219       -16.3872
  41   2.0000      -0.572361       -15.5747
  42   2.0000      -0.566084       -15.4039
  43   2.0000      -0.550508       -14.9801
  44   2.0000      -0.538979       -14.6664
  45   2.0000      -0.529329       -14.4038
  46   2.0000      -0.518769       -14.1164
  47   2.0000      -0.514018       -13.9871
  48   2.0000      -0.509526       -13.8649
  49   2.0000      -0.501349       -13.6424
  50   2.0000      -0.491991       -13.3877
  51   2.0000      -0.479941       -13.0599
  52   2.0000      -0.469969       -12.7885
  53   2.0000      -0.467597       -12.7240
  54   2.0000      -0.460046       -12.5185
  55   2.0000      -0.450302       -12.2533
  56   2.0000      -0.442942       -12.0531
  57   2.0000      -0.438415       -11.9299
  58   2.0000      -0.437476       -11.9043
  59   2.0000      -0.428377       -11.6567
  60   2.0000      -0.422262       -11.4903
  61   2.0000      -0.414717       -11.2850
  62   2.0000      -0.401217       -10.9177
  63   2.0000      -0.363702        -9.8968
  64   2.0000      -0.330448        -8.9919
  65   2.0000      -0.328361        -8.9352
  66   2.0000      -0.286392        -7.7931
  67   0.0000       0.022773         0.6197
  68   0.0000       0.086664         2.3582
  69   0.0000       0.104217         2.8359
  70   0.0000       0.118499         3.2245
  71   0.0000       0.132676         3.6103

MULLIKEN ATOMIC CHARGES
-----------------------
   0 S :    0.115503
   1 C :   -0.095684
   2 C :   -0.106992
   3 C :   -0.018891
   4 C :   -0.118725
   5 H :    0.020507
   6 C :    0.099791
   7 H :   -0.000673
   8 H :    0.038526
   9 C :   -0.106146
  10 H :    0.028903
  11 H :    0.049296
  12 C :   -0.012952
  13 H :    0.024545
  14 H :    0.039807
  15 H :    0.020452
  16 S :    0.080499
  17 C :   -0.104536
  18 C :   -0.045120
  19 C :   -0.051069
  20 C :   -0.107076
  21 H :    0.038996
  22 C :    0.041229
  23 H :    0.003158
  24 H :    0.022040
  25 C :   -0.066852
  26 H :    0.022594
  27 H :    0.015944
  28 C :   -0.018567
  29 H :    0.029126
  30 H :    0.038664
  31 H :    0.030742
  32 H :    0.019441
  33 H :    0.073519
Sum of atomic charges:    0.0000000

LOEWDIN ATOMIC CHARGES
----------------------
   0 S :    0.417187
   1 C :   -0.193961
   2 C :   -0.061218
   3 C :   -0.070098
   4 C :   -0.194472
   5 H :    0.032497
   6 C :   -0.031975
   7 H :    0.023201
   8 H :    0.035968
   9 C :   -0.036513
  10 H :    0.025239
  11 H :    0.029402
  12 C :   -0.058361
  13 H :    0.026070
  14 H :    0.033751
  15 H :    0.011644
  16 S :    0.393017
  17 C :   -0.191042
  18 C :   -0.078429
  19 C :   -0.067697
  20 C :   -0.181825
  21 H :    0.039384
  22 C :   -0.033397
  23 H :    0.026932
  24 H :    0.026005
  25 C :   -0.037917
  26 H :    0.026110
  27 H :    0.017735
  28 C :   -0.059819
  29 H :    0.027684
  30 H :    0.028129
  31 H :    0.021112
  32 H :    0.016323
  33 H :    0.039334

  Mayer bond orders larger than 0.100000
B(  0-S ,  1-C ) :   1.1335 B(  0-S ,  4-C ) :   1.1399 B(  1-C ,  2-C ) :   1.6192
B(  1-C , 32-H ) :   0.9664 B(  2-C ,  3-C ) :   1.2472 B(  2-C ,  6-C ) :   1.0246
B(  3-C ,  4-C ) :   1.5770 B(  3-C ,  5-H ) :   0.9662 B(  4-C , 20-C ) :   1.0762
B(  6-C ,  7-H ) :   0.9342 B(  6-C ,  8-H ) :   0.9321 B(  6-C ,  9-C ) :   1.0542
B(  9-C , 10-H ) :   0.9560 B(  9-C , 11-H ) :   0.9570 B(  9-C , 12-C ) :   1.0843
B( 12-C , 13-H ) :   0.9733 B( 12-C , 14-H ) :   0.9746 B( 12-C , 15-H ) :   0.9775
B( 16-S , 17-C ) :   1.1553 B( 16-S , 20-C ) :   1.1175 B( 17-C , 18-C ) :   1.6120
B( 17-C , 33-H ) :   0.9617 B( 18-C , 19-C ) :   1.2386 B( 18-C , 21-H ) :   0.9839
B( 19-C , 20-C ) :   1.6157 B( 19-C , 22-C ) :   1.0264 B( 22-C , 23-H ) :   0.9405
B( 22-C , 24-H ) :   0.9416 B( 22-C , 25-C ) :   1.0588 B( 25-C , 26-H ) :   0.9532
B( 25-C , 27-H ) :   0.9583 B( 25-C , 28-C ) :   1.0801 B( 28-C , 29-H ) :   0.9713
B( 28-C , 30-H ) :   0.9748 B( 28-C , 31-H ) :   0.9706

Dispersion correction           -0.014416760
FINAL SINGLE POINT ENERGY     -1339.876181317082

DIPOLE MOMENT
-------------
                                X             Y             Z
Electronic contribution:     30.85916       5.16556      -0.28182
Nuclear contribution   :    -31.53037      -5.40504       0.37750
                        -----------------------------------------
Total Dipole Moment    :     -0.67121      -0.23949       0.09567
                        -----------------------------------------
Magnitude (a.u.)       :      0.71905
Magnitude (Debye)      :      1.82767

Rotational constants in cm-1:     0.018654     0.009452     0.006691
Rotational constants in MHz :   559.232464   283.369656   200.589074

                             ****ORCA TERMINATED NORMALLY****
TOTAL RUN TIME: 0 days 0 hours 0 minutes 21 seconds 37 msec
