                         Program Version 4.2.1 -  RELEASE  -
|  1> ! wB97X-D3 SP def2-SVP
|  2> %pal
|  3> nprocs 24
|  4> end
|  5>
|  6> * xyz 0 1
|  7> S 	 -127.766 	 26.6056 	 -22.4537
|  8> C 	 -128.67 	 26.4115 	 -20.9594
|  9> C 	 -130.038 	 26.6747 	 -21.2019
| 10> C 	 -130.264 	 27.1322 	 -22.5374
| 11> C 	 -129.22 	 27.1021 	 -23.397
| 12> H 	 -131.24 	 27.4201 	 -22.9561
| 13> C 	 -131.053 	 26.6141 	 -20.0642
| 14> H 	 -131.009 	 27.4887 	 -19.4376
| 15> H 	 -130.7 	 25.8024 	 -19.4144
| 16> C 	 -132.45 	 26.2939 	 -20.5201
| 17> H 	 -132.647 	 27.0561 	 -21.3395
| 18> H 	 -132.511 	 25.3048 	 -21.0432
| 19> C 	 -133.475 	 26.322 	 -19.4868
| 20> H 	 -133.597 	 25.4755 	 -18.8368
| 21> H 	 -133.245 	 27.0839 	 -18.7503
| 22> H 	 -134.341 	 26.5458 	 -19.9407
| 23> S 	 -128.191 	 28.9416 	 -25.24
| 24> C 	 -128.505 	 28.6465 	 -26.9407
| 25> C 	 -129.368 	 27.5995 	 -27.1311
| 26> C 	 -129.773 	 26.9556 	 -25.9089
| 27> C 	 -129.155 	 27.5466 	 -24.7788
| 28> H 	 -129.618 	 27.4129 	 -28.1737
| 29> C 	 -130.62 	 25.6995 	 -25.9295
| 30> H 	 -130.702 	 25.3145 	 -24.8825
| 31> H 	 -130.004 	 24.9323 	 -26.3962
| 32> C 	 -131.92 	 25.7328 	 -26.703
| 33> H 	 -132.452 	 24.7214 	 -26.8119
| 34> H 	 -131.605 	 26.0247 	 -27.7215
| 35> C 	 -132.874 	 26.6984 	 -25.9565
| 36> H 	 -133.861 	 26.4748 	 -26.4308
| 37> H 	 -132.739 	 27.7569 	 -26.2082
| 38> H 	 -133.101 	 26.5113 	 -24.8758
| 39> H 	 -128.197 	 26.16 	 -19.9974
| 40> H 	 -127.972 	 29.172 	 -27.7132
| 41> *
| 42>
| 43>                          ****END OF INPUT****

CARTESIAN COORDINATES (ANGSTROEM)
---------------------------------
  S    -127.766000   26.605600  -22.453700
  C    -128.670000   26.411500  -20.959400
  C    -130.038000   26.674700  -21.201900
  C    -130.264000   27.132200  -22.537400
  C    -129.220000   27.102100  -23.397000
  H    -131.240000   27.420100  -22.956100
  C    -131.053000   26.614100  -20.064200
  H    -131.009000   27.488700  -19.437600
  H    -130.700000   25.802400  -19.414400
  C    -132.450000   26.293900  -20.520100
  H    -132.647000   27.056100  -21.339500
  H    -132.511000   25.304800  -21.043200
  C    -133.475000   26.322000  -19.486800
  H    -133.597000   25.475500  -18.836800
  H    -133.245000   27.083900  -18.750300
  H    -134.341000   26.545800  -19.940700
  S    -128.191000   28.941600  -25.240000
  C    -128.505000   28.646500  -26.940700
  C    -129.368000   27.599500  -27.131100
  C    -129.773000   26.955600  -25.908900
  C    -129.155000   27.546600  -24.778800
  H    -129.618000   27.412900  -28.173700
  C    -130.620000   25.699500  -25.929500
  H    -130.702000   25.314500  -24.882500
  H    -130.004000   24.932300  -26.396200
  C    -131.920000   25.732800  -26.703000
  H    -132.452000   24.721400  -26.811900
  H    -131.605000   26.024700  -27.721500
  C    -132.874000   26.698400  -25.956500
  H    -133.861000   26.474800  -26.430800
  H    -132.739000   27.756900  -26.208200
  H    -133.101000   26.511300  -24.875800
  H    -128.197000   26.160000  -19.997400
  H    -127.972000   29.172000  -27.713200

 Total Charge           Charge          ....    0
 Multiplicity           Mult            ....    1
 Number of Electrons    NEL             ....  134
 Basis Dimension        Dim             ....  322

ORBITAL ENERGIES
----------------

  NO   OCC          E(Eh)            E(eV)
   0   2.0000     -88.965510     -2420.8746
   1   2.0000     -88.961288     -2420.7597
   2   2.0000     -10.329274      -281.0738
   3   2.0000     -10.328099      -281.0419
   4   2.0000     -10.319639      -280.8116
   5   2.0000     -10.316926      -280.7378
   6   2.0000     -10.310801      -280.5712
   7   2.0000     -10.303753      -280.3794
   8   2.0000     -10.297601      -280.2120
   9   2.0000     -10.295421      -280.1526
  10   2.0000     -10.293851      -280.1099
  11   2.0000     -10.288650      -279.9684
  12   2.0000     -10.287860      -279.9469
  13   2.0000     -10.285687      -279.8878
  14   2.0000     -10.282623      -279.8044
  15   2.0000     -10.262047      -279.2445
  16   2.0000      -8.080137      -219.8717
  17   2.0000      -8.075189      -219.7371
  18   2.0000      -6.038640      -164.3197
  19   2.0000      -6.034640      -164.2109
  20   2.0000      -6.033761      -164.1870
  21   2.0000      -6.030929      -164.1099
  22   2.0000      -6.029705      -164.0766
  23   2.0000      -6.026033      -163.9767
  24   2.0000      -1.000672       -27.2297
  25   2.0000      -0.979160       -26.6443
  26   2.0000      -0.919733       -25.0272
  27   2.0000      -0.909635       -24.7524
  28   2.0000      -0.872548       -23.7432
  29   2.0000      -0.847332       -23.0571
  30   2.0000      -0.843319       -22.9479
  31   2.0000      -0.819465       -22.2988
  32   2.0000      -0.782843       -21.3022
  33   2.0000      -0.769949       -20.9514
  34   2.0000      -0.711416       -19.3586
  35   2.0000      -0.695502       -18.9256
  36   2.0000      -0.686468       -18.6797
  37   2.0000      -0.649498       -17.6737
  38   2.0000      -0.645250       -17.5581
  39   2.0000      -0.617989       -16.8163
  40   2.0000      -0.596849       -16.2411
  41   2.0000      -0.572267       -15.5722
  42   2.0000      -0.566193       -15.4069
  43   2.0000      -0.549026       -14.9398
  44   2.0000      -0.543582       -14.7916
  45   2.0000      -0.534716       -14.5504
  46   2.0000      -0.519615       -14.1395
  47   2.0000      -0.507523       -13.8104
  48   2.0000      -0.505190       -13.7469
  49   2.0000      -0.499240       -13.5850
  50   2.0000      -0.488685       -13.2978
  51   2.0000      -0.485495       -13.2110
  52   2.0000      -0.476447       -12.9648
  53   2.0000      -0.468760       -12.7556
  54   2.0000      -0.454326       -12.3628
  55   2.0000      -0.449586       -12.2339
  56   2.0000      -0.443313       -12.0631
  57   2.0000      -0.431236       -11.7345
  58   2.0000      -0.427926       -11.6445
  59   2.0000      -0.418418       -11.3857
  60   2.0000      -0.413244       -11.2449
  61   2.0000      -0.411587       -11.1999
  62   2.0000      -0.404544       -11.0082
  63   2.0000      -0.341868        -9.3027
  64   2.0000      -0.329906        -8.9772
  65   2.0000      -0.323366        -8.7992
  66   2.0000      -0.297548        -8.0967
  67   0.0000       0.031378         0.8538
  68   0.0000       0.063118         1.7175
  69   0.0000       0.115107         3.1322
  70   0.0000       0.126597         3.4449
  71   0.0000       0.128913         3.5079

MULLIKEN ATOMIC CHARGES
-----------------------
   0 S :    0.095663
   1 C :   -0.137820
   2 C :   -0.092186
   3 C :    0.038622
   4 C :   -0.177748
   5 H :    0.017820
   6 C :    0.086197
   7 H :    0.037528
   8 H :    0.019220
   9 C :   -0.151325
  10 H :    0.035087
  11 H :    0.036618
  12 C :    0.059159
  13 H :    0.024846
  14 H :    0.004277
  15 H :    0.004728
  16 S :    0.117183
  17 C :   -0.104342
  18 C :   -0.043523
  19 C :   -0.004810
  20 C :   -0.173169
  21 H :    0.026822
  22 C :    0.055436
  23 H :    0.031998
  24 H :    0.032161
  25 C :   -0.085764
  26 H :    0.047474
  27 H :    0.033253
  28 C :   -0.078757
  29 H :    0.021912
  30 H :    0.051261
  31 H :    0.049108
  32 H :    0.065259
  33 H :    0.057812
Sum of atomic charges:   -0.0000000

LOEWDIN ATOMIC CHARGES
----------------------
   0 S :    0.379023
   1 C :   -0.193019
   2 C :   -0.066107
   3 C :   -0.064408
   4 C :   -0.184148
   5 H :    0.034249
   6 C :   -0.033982
   7 H :    0.029613
   8 H :    0.031402
   9 C :   -0.050690
  10 H :    0.027338
  11 H :    0.031307
  12 C :   -0.055956
  13 H :    0.026357
  14 H :    0.025588
  15 H :    0.015074
  16 S :    0.403955
  17 C :   -0.176745
  18 C :   -0.077157
  19 C :   -0.042248
  20 C :   -0.206293
  21 H :    0.034842
  22 C :   -0.043943
  23 H :    0.032552
  24 H :    0.032642
  25 C :   -0.044403
  26 H :    0.035811
  27 H :    0.026418
  28 C :   -0.081250
  29 H :    0.027940
  30 H :    0.030501
  31 H :    0.032666
  32 H :    0.035368
  33 H :    0.027702

  Mayer bond orders larger than 0.100000
B(  0-S ,  1-C ) :   1.1555 B(  0-S ,  4-C ) :   1.1255 B(  1-C ,  2-C ) :   1.5862
B(  1-C ,  4-C ) :   0.1018 B(  1-C , 32-H ) :   0.9695 B(  2-C ,  3-C ) :   1.2407
B(  2-C ,  6-C ) :   1.0149 B(  3-C ,  4-C ) :   1.6091 B(  3-C ,  5-H ) :   0.9827
B(  4-C , 20-C ) :   1.0434 B(  6-C ,  7-H ) :   0.9344 B(  6-C ,  8-H ) :   0.9373
B(  6-C ,  9-C ) :   1.0775 B(  9-C , 10-H ) :   0.9506 B(  9-C , 11-H ) :   0.9513
B(  9-C , 12-C ) :   1.0942 B( 12-C , 13-H ) :   0.9679 B( 12-C , 14-H ) :   0.9645
B( 12-C , 15-H ) :   0.9630 B( 16-S , 17-C ) :   1.1541 B( 16-S , 20-C ) :   1.1466
B( 17-C , 18-C ) :   1.6315 B( 17-C , 33-H ) :   0.9660 B( 18-C , 19-C ) :   1.2143
B( 18-C , 21-H ) :   0.9888 B( 19-C , 20-C ) :   1.5782 B( 19-C , 22-C ) :   1.0388
B( 22-C , 23-H ) :   0.9340 B( 22-C , 24-H ) :   0.9338 B( 22-C , 25-C ) :   1.0677
B( 25-C , 26-H ) :   0.9585 B( 25-C , 27-H ) :   0.9514 B( 25-C , 28-C ) :   1.0670
B( 28-C , 29-H ) :   0.9733 B( 28-C , 30-H ) :   0.9737 B( 28-C , 31-H ) :   0.9728

Dispersion correction           -0.014384702
FINAL SINGLE POINT ENERGY     -1339.869714780279

DIPOLE MOMENT
-------------
                                X             Y             Z
Electronic contribution:     27.98425       9.21301      -5.41309
Nuclear contribution   :    -28.58037      -9.43489       5.34703
                        -----------------------------------------
Total Dipole Moment    :     -0.59612      -0.22189      -0.06606
                        -----------------------------------------
Magnitude (a.u.)       :      0.63950
Magnitude (Debye)      :      1.62548

Rotational constants in cm-1:     0.017926     0.009021     0.006720
Rotational constants in MHz :   537.418685   270.429781   201.475239

                             ****ORCA TERMINATED NORMALLY****
TOTAL RUN TIME: 0 days 0 hours 0 minutes 20 seconds 705 msec
