                         Program Version 4.2.1 -  RELEASE  -
|  1> ! wB97X-D3 SP def2-SVP
|  2> %pal
|  3> nprocs 24
|  4> end
|  5>
|  6> * xyz 0 1
|  7> S 	 -61.9811 	 8.03052 	 20.5212
|  8> C 	 -60.7217 	 9.22957 	 20.5261
|  9> C 	 -60.4758 	 9.54879 	 21.8688
| 10> C 	 -61.319 	 8.98675 	 22.8952
| 11> C 	 -62.1745 	 8.08454 	 22.2762
| 12> H 	 -61.3127 	 9.07867 	 23.9997
| 13> C 	 -59.3076 	 10.4744 	 22.3508
| 14> H 	 -59.2375 	 10.4118 	 23.4191
| 15> H 	 -59.5909 	 11.5515 	 22.3316
| 16> C 	 -57.9401 	 10.3896 	 21.596
| 17> H 	 -57.6864 	 9.4005 	 21.3193
| 18> H 	 -57.9871 	 10.9171 	 20.6069
| 19> C 	 -56.8154 	 10.9871 	 22.4485
| 20> H 	 -55.9328 	 10.9378 	 21.8852
| 21> H 	 -56.9917 	 12.0175 	 22.8149
| 22> H 	 -56.8727 	 10.4783 	 23.3996
| 23> S 	 -64.4229 	 7.94792 	 23.7418
| 24> C 	 -65.1583 	 6.41674 	 24.1119
| 25> C 	 -64.4231 	 5.36732 	 23.6568
| 26> C 	 -63.1908 	 5.8385 	 22.9574
| 27> C 	 -63.1157 	 7.20564 	 22.9423
| 28> H 	 -64.6409 	 4.32637 	 23.8517
| 29> C 	 -62.2623 	 4.91469 	 22.3091
| 30> H 	 -62.086 	 5.30998 	 21.3498
| 31> H 	 -62.8105 	 3.9785 	 22.0439
| 32> C 	 -60.9345 	 4.65373 	 22.9366
| 33> H 	 -61.0494 	 3.97448 	 23.7702
| 34> H 	 -60.578 	 5.5842 	 23.286
| 35> C 	 -59.8238 	 4.12291 	 21.9783
| 36> H 	 -58.9111 	 3.68113 	 22.5035
| 37> H 	 -59.4801 	 4.95327 	 21.365
| 38> H 	 -60.3324 	 3.38591 	 21.3266
| 39> H 	 -60.05 	 9.63663 	 19.7662
| 40> H 	 -65.9594 	 6.30826 	 24.8389
| 41> *
| 42>
| 43>                          ****END OF INPUT****

CARTESIAN COORDINATES (ANGSTROEM)
---------------------------------
  S    -61.981100    8.030520   20.521200
  C    -60.721700    9.229570   20.526100
  C    -60.475800    9.548790   21.868800
  C    -61.319000    8.986750   22.895200
  C    -62.174500    8.084540   22.276200
  H    -61.312700    9.078670   23.999700
  C    -59.307600   10.474400   22.350800
  H    -59.237500   10.411800   23.419100
  H    -59.590900   11.551500   22.331600
  C    -57.940100   10.389600   21.596000
  H    -57.686400    9.400500   21.319300
  H    -57.987100   10.917100   20.606900
  C    -56.815400   10.987100   22.448500
  H    -55.932800   10.937800   21.885200
  H    -56.991700   12.017500   22.814900
  H    -56.872700   10.478300   23.399600
  S    -64.422900    7.947920   23.741800
  C    -65.158300    6.416740   24.111900
  C    -64.423100    5.367320   23.656800
  C    -63.190800    5.838500   22.957400
  C    -63.115700    7.205640   22.942300
  H    -64.640900    4.326370   23.851700
  C    -62.262300    4.914690   22.309100
  H    -62.086000    5.309980   21.349800
  H    -62.810500    3.978500   22.043900
  C    -60.934500    4.653730   22.936600
  H    -61.049400    3.974480   23.770200
  H    -60.578000    5.584200   23.286000
  C    -59.823800    4.122910   21.978300
  H    -58.911100    3.681130   22.503500
  H    -59.480100    4.953270   21.365000
  H    -60.332400    3.385910   21.326600
  H    -60.050000    9.636630   19.766200
  H    -65.959400    6.308260   24.838900

 Total Charge           Charge          ....    0
 Multiplicity           Mult            ....    1
 Number of Electrons    NEL             ....  134
 Basis Dimension        Dim             ....  322

ORBITAL ENERGIES
----------------

  NO   OCC          E(Eh)            E(eV)
   0   2.0000     -88.971977     -2421.0506
   1   2.0000     -88.962896     -2420.8035
   2   2.0000     -10.332440      -281.1600
   3   2.0000     -10.318618      -280.7839
   4   2.0000     -10.317938      -280.7654
   5   2.0000     -10.314703      -280.6773
   6   2.0000     -10.308552      -280.5099
   7   2.0000     -10.303083      -280.3611
   8   2.0000     -10.300950      -280.3031
   9   2.0000     -10.296497      -280.1819
  10   2.0000     -10.293757      -280.1074
  11   2.0000     -10.289176      -279.9827
  12   2.0000     -10.282037      -279.7884
  13   2.0000     -10.279130      -279.7094
  14   2.0000     -10.276070      -279.6261
  15   2.0000     -10.275333      -279.6060
  16   2.0000      -8.085702      -220.0231
  17   2.0000      -8.078943      -219.8392
  18   2.0000      -6.044349      -164.4751
  19   2.0000      -6.040183      -164.3617
  20   2.0000      -6.037489      -164.2884
  21   2.0000      -6.036533      -164.2624
  22   2.0000      -6.033212      -164.1720
  23   2.0000      -6.029639      -164.0748
  24   2.0000      -1.011650       -27.5284
  25   2.0000      -0.985020       -26.8038
  26   2.0000      -0.915844       -24.9214
  27   2.0000      -0.904612       -24.6157
  28   2.0000      -0.873388       -23.7661
  29   2.0000      -0.852215       -23.1899
  30   2.0000      -0.846266       -23.0281
  31   2.0000      -0.816691       -22.2233
  32   2.0000      -0.778868       -21.1941
  33   2.0000      -0.766506       -20.8577
  34   2.0000      -0.712664       -19.3926
  35   2.0000      -0.702178       -19.1072
  36   2.0000      -0.689828       -18.7712
  37   2.0000      -0.667679       -18.1685
  38   2.0000      -0.641598       -17.4588
  39   2.0000      -0.611709       -16.6455
  40   2.0000      -0.597497       -16.2587
  41   2.0000      -0.570910       -15.5353
  42   2.0000      -0.565380       -15.3848
  43   2.0000      -0.556898       -15.1540
  44   2.0000      -0.533287       -14.5115
  45   2.0000      -0.525692       -14.3048
  46   2.0000      -0.521975       -14.2037
  47   2.0000      -0.507506       -13.8100
  48   2.0000      -0.503785       -13.7087
  49   2.0000      -0.502528       -13.6745
  50   2.0000      -0.493509       -13.4291
  51   2.0000      -0.480591       -13.0775
  52   2.0000      -0.473336       -12.8801
  53   2.0000      -0.467442       -12.7197
  54   2.0000      -0.459024       -12.4907
  55   2.0000      -0.451212       -12.2781
  56   2.0000      -0.443681       -12.0732
  57   2.0000      -0.436256       -11.8711
  58   2.0000      -0.432757       -11.7759
  59   2.0000      -0.417754       -11.3677
  60   2.0000      -0.416024       -11.3206
  61   2.0000      -0.414150       -11.2696
  62   2.0000      -0.410220       -11.1626
  63   2.0000      -0.344352        -9.3703
  64   2.0000      -0.333678        -9.0798
  65   2.0000      -0.323688        -8.8080
  66   2.0000      -0.300924        -8.1886
  67   0.0000       0.034330         0.9342
  68   0.0000       0.071196         1.9374
  69   0.0000       0.113281         3.0825
  70   0.0000       0.115538         3.1439
  71   0.0000       0.125326         3.4103

MULLIKEN ATOMIC CHARGES
-----------------------
   0 S :    0.125861
   1 C :   -0.105302
   2 C :   -0.093354
   3 C :    0.022059
   4 C :   -0.150291
   5 H :    0.043197
   6 C :    0.039360
   7 H :   -0.000750
   8 H :    0.036264
   9 C :   -0.079682
  10 H :    0.024005
  11 H :    0.032151
  12 C :   -0.028520
  13 H :    0.034881
  14 H :    0.023812
  15 H :    0.026085
  16 S :    0.115118
  17 C :   -0.086727
  18 C :   -0.021874
  19 C :   -0.071733
  20 C :   -0.174097
  21 H :    0.020311
  22 C :    0.095875
  23 H :   -0.010367
  24 H :    0.015354
  25 C :   -0.022673
  26 H :    0.021876
  27 H :    0.014968
  28 C :   -0.085474
  29 H :    0.050836
  30 H :    0.039157
  31 H :    0.033972
  32 H :    0.054764
  33 H :    0.060936
Sum of atomic charges:    0.0000000

LOEWDIN ATOMIC CHARGES
----------------------
   0 S :    0.419253
   1 C :   -0.219699
   2 C :   -0.055735
   3 C :   -0.066438
   4 C :   -0.184964
   5 H :    0.045566
   6 C :   -0.041760
   7 H :    0.021052
   8 H :    0.037920
   9 C :   -0.040273
  10 H :    0.015783
  11 H :    0.024644
  12 C :   -0.060103
  13 H :    0.021243
  14 H :    0.027123
  15 H :    0.025854
  16 S :    0.427870
  17 C :   -0.190232
  18 C :   -0.063576
  19 C :   -0.051872
  20 C :   -0.221874
  21 H :    0.031429
  22 C :   -0.044543
  23 H :    0.017526
  24 H :    0.033794
  25 C :   -0.033766
  26 H :    0.020401
  27 H :    0.018806
  28 C :   -0.068734
  29 H :    0.035367
  30 H :    0.025041
  31 H :    0.024289
  32 H :    0.039640
  33 H :    0.030965

  Mayer bond orders larger than 0.100000
B(  0-S ,  1-C ) :   1.1170 B(  0-S ,  4-C ) :   1.1638 B(  1-C ,  2-C ) :   1.6242
B(  1-C , 32-H ) :   0.9667 B(  2-C ,  3-C ) :   1.2269 B(  2-C ,  6-C ) :   1.0161
B(  3-C ,  4-C ) :   1.5706 B(  3-C ,  5-H ) :   0.9866 B(  4-C , 20-C ) :   1.0146
B(  6-C ,  7-H ) :   0.9521 B(  6-C ,  8-H ) :   0.9318 B(  6-C ,  9-C ) :   1.0488
B(  9-C , 10-H ) :   0.9642 B(  9-C , 11-H ) :   0.9491 B(  9-C , 12-C ) :   1.0844
B( 12-C , 13-H ) :   0.9734 B( 12-C , 14-H ) :   0.9745 B( 12-C , 15-H ) :   0.9754
B( 16-S , 17-C ) :   1.1470 B( 16-S , 20-C ) :   1.1459 B( 17-C , 18-C ) :   1.6292
B( 17-C , 33-H ) :   0.9640 B( 18-C , 19-C ) :   1.2187 B( 18-C , 21-H ) :   0.9906
B( 19-C , 20-C ) :   1.6114 B( 19-C , 22-C ) :   1.0679 B( 22-C , 23-H ) :   0.9120
B( 22-C , 24-H ) :   0.9124 B( 22-C , 25-C ) :   1.0645 B( 25-C , 26-H ) :   0.9531
B( 25-C , 27-H ) :   0.9569 B( 25-C , 28-C ) :   1.0745 B( 28-C , 29-H ) :   0.9749
B( 28-C , 30-H ) :   0.9759 B( 28-C , 31-H ) :   0.9775

Dispersion correction           -0.014386794
FINAL SINGLE POINT ENERGY     -1339.869152274099

DIPOLE MOMENT
-------------
                                X             Y             Z
Electronic contribution:    -26.46582       2.21823      -0.50849
Nuclear contribution   :     26.92652      -2.31030       0.75057
                        -----------------------------------------
Total Dipole Moment    :      0.46070      -0.09208       0.24208
                        -----------------------------------------
Magnitude (a.u.)       :      0.52852
Magnitude (Debye)      :      1.34338

Rotational constants in cm-1:     0.020187     0.008071     0.006835
Rotational constants in MHz :   605.190012   241.961003   204.914723

                             ****ORCA TERMINATED NORMALLY****
TOTAL RUN TIME: 0 days 0 hours 0 minutes 21 seconds 392 msec
