                         Program Version 4.2.1 -  RELEASE  -
|  1> ! wB97X-D3 SP def2-SVP
|  2> %pal
|  3> nprocs 24
|  4> end
|  5>
|  6> * xyz 0 1
|  7> S 	 -98.5355 	 -23.6938 	 -65.1113
|  8> C 	 -99.4797 	 -22.2733 	 -64.8702
|  9> C 	 -98.8255 	 -21.3832 	 -64.0366
| 10> C 	 -97.5977 	 -21.9124 	 -63.5699
| 11> C 	 -97.3612 	 -23.24 	 -63.8897
| 12> H 	 -96.9751 	 -21.3251 	 -62.9082
| 13> C 	 -99.2283 	 -19.9312 	 -63.9862
| 14> H 	 -99.5638 	 -19.5203 	 -62.9809
| 15> H 	 -100.033 	 -19.8208 	 -64.7408
| 16> C 	 -97.9743 	 -19.0609 	 -64.3228
| 17> H 	 -97.3226 	 -18.986 	 -63.4005
| 18> H 	 -97.3864 	 -19.5459 	 -65.1286
| 19> C 	 -98.285 	 -17.6389 	 -64.7926
| 20> H 	 -98.8412 	 -17.7606 	 -65.7916
| 21> H 	 -98.8575 	 -17.162 	 -63.9679
| 22> H 	 -97.3923 	 -17.0219 	 -64.936
| 23> S 	 -95.4545 	 -24.8277 	 -65.0127
| 24> C 	 -94.2835 	 -25.4995 	 -63.9267
| 25> C 	 -94.4996 	 -25.2298 	 -62.6079
| 26> C 	 -95.5399 	 -24.297 	 -62.3911
| 27> C 	 -96.1996 	 -24.0252 	 -63.5973
| 28> H 	 -93.826 	 -25.5779 	 -61.8594
| 29> C 	 -95.9953 	 -23.7829 	 -61.0239
| 30> H 	 -96.1558 	 -22.7058 	 -61.0577
| 31> H 	 -95.1583 	 -23.9214 	 -60.2719
| 32> C 	 -97.2846 	 -24.4442 	 -60.5276
| 33> H 	 -97.0296 	 -25.5154 	 -60.4729
| 34> H 	 -98.1123 	 -24.4168 	 -61.2174
| 35> C 	 -97.7269 	 -23.9416 	 -59.198
| 36> H 	 -97.7536 	 -22.8099 	 -59.0619
| 37> H 	 -96.9898 	 -24.3163 	 -58.4697
| 38> H 	 -98.6543 	 -24.42 	 -58.8444
| 39> H 	 -100.444 	 -22.1232 	 -65.332
| 40> H 	 -93.5588 	 -26.2825 	 -64.1368
| 41> *
| 42>
| 43>                          ****END OF INPUT****

CARTESIAN COORDINATES (ANGSTROEM)
---------------------------------
  S    -98.535500  -23.693800  -65.111300
  C    -99.479700  -22.273300  -64.870200
  C    -98.825500  -21.383200  -64.036600
  C    -97.597700  -21.912400  -63.569900
  C    -97.361200  -23.240000  -63.889700
  H    -96.975100  -21.325100  -62.908200
  C    -99.228300  -19.931200  -63.986200
  H    -99.563800  -19.520300  -62.980900
  H    -100.033000  -19.820800  -64.740800
  C    -97.974300  -19.060900  -64.322800
  H    -97.322600  -18.986000  -63.400500
  H    -97.386400  -19.545900  -65.128600
  C    -98.285000  -17.638900  -64.792600
  H    -98.841200  -17.760600  -65.791600
  H    -98.857500  -17.162000  -63.967900
  H    -97.392300  -17.021900  -64.936000
  S    -95.454500  -24.827700  -65.012700
  C    -94.283500  -25.499500  -63.926700
  C    -94.499600  -25.229800  -62.607900
  C    -95.539900  -24.297000  -62.391100
  C    -96.199600  -24.025200  -63.597300
  H    -93.826000  -25.577900  -61.859400
  C    -95.995300  -23.782900  -61.023900
  H    -96.155800  -22.705800  -61.057700
  H    -95.158300  -23.921400  -60.271900
  C    -97.284600  -24.444200  -60.527600
  H    -97.029600  -25.515400  -60.472900
  H    -98.112300  -24.416800  -61.217400
  C    -97.726900  -23.941600  -59.198000
  H    -97.753600  -22.809900  -59.061900
  H    -96.989800  -24.316300  -58.469700
  H    -98.654300  -24.420000  -58.844400
  H    -100.444000  -22.123200  -65.332000
  H    -93.558800  -26.282500  -64.136800

 Total Charge           Charge          ....    0
 Multiplicity           Mult            ....    1
 Number of Electrons    NEL             ....  134
 Basis Dimension        Dim             ....  322

ORBITAL ENERGIES
----------------

  NO   OCC          E(Eh)            E(eV)
   0   2.0000     -88.969502     -2420.9832
   1   2.0000     -88.964653     -2420.8513
   2   2.0000     -10.327732      -281.0319
   3   2.0000     -10.327428      -281.0236
   4   2.0000     -10.311609      -280.5932
   5   2.0000     -10.311086      -280.5789
   6   2.0000     -10.305014      -280.4137
   7   2.0000     -10.301166      -280.3090
   8   2.0000     -10.298176      -280.2276
   9   2.0000     -10.297594      -280.2118
  10   2.0000     -10.292056      -280.0611
  11   2.0000     -10.291475      -280.0453
  12   2.0000     -10.288125      -279.9541
  13   2.0000     -10.286671      -279.9146
  14   2.0000     -10.280153      -279.7372
  15   2.0000     -10.279966      -279.7321
  16   2.0000      -8.083827      -219.9721
  17   2.0000      -8.079883      -219.8648
  18   2.0000      -6.042283      -164.4189
  19   2.0000      -6.038557      -164.3175
  20   2.0000      -6.038299      -164.3105
  21   2.0000      -6.034502      -164.2071
  22   2.0000      -6.034360      -164.2033
  23   2.0000      -6.030670      -164.1029
  24   2.0000      -1.009608       -27.4728
  25   2.0000      -0.986430       -26.8421
  26   2.0000      -0.911511       -24.8035
  27   2.0000      -0.910229       -24.7686
  28   2.0000      -0.871694       -23.7200
  29   2.0000      -0.855538       -23.2804
  30   2.0000      -0.845127       -22.9971
  31   2.0000      -0.815014       -22.1777
  32   2.0000      -0.780763       -21.2456
  33   2.0000      -0.765477       -20.8297
  34   2.0000      -0.710833       -19.3428
  35   2.0000      -0.691869       -18.8267
  36   2.0000      -0.681972       -18.5574
  37   2.0000      -0.659997       -17.9594
  38   2.0000      -0.639918       -17.4130
  39   2.0000      -0.624218       -16.9858
  40   2.0000      -0.596964       -16.2442
  41   2.0000      -0.574950       -15.6452
  42   2.0000      -0.565039       -15.3755
  43   2.0000      -0.555630       -15.1195
  44   2.0000      -0.524499       -14.2723
  45   2.0000      -0.522302       -14.2125
  46   2.0000      -0.510795       -13.8995
  47   2.0000      -0.508946       -13.8491
  48   2.0000      -0.503761       -13.7080
  49   2.0000      -0.501091       -13.6354
  50   2.0000      -0.497447       -13.5362
  51   2.0000      -0.479786       -13.0556
  52   2.0000      -0.469389       -12.7727
  53   2.0000      -0.463335       -12.6080
  54   2.0000      -0.456825       -12.4308
  55   2.0000      -0.450964       -12.2714
  56   2.0000      -0.444338       -12.0911
  57   2.0000      -0.435414       -11.8482
  58   2.0000      -0.431510       -11.7420
  59   2.0000      -0.422035       -11.4842
  60   2.0000      -0.419526       -11.4159
  61   2.0000      -0.418644       -11.3919
  62   2.0000      -0.409329       -11.1384
  63   2.0000      -0.350538        -9.5386
  64   2.0000      -0.337086        -9.1726
  65   2.0000      -0.327504        -8.9118
  66   2.0000      -0.283923        -7.7259
  67   0.0000       0.024263         0.6602
  68   0.0000       0.067350         1.8327
  69   0.0000       0.108119         2.9421
  70   0.0000       0.123328         3.3559
  71   0.0000       0.134406         3.6574

MULLIKEN ATOMIC CHARGES
-----------------------
   0 S :    0.100623
   1 C :   -0.133727
   2 C :   -0.072382
   3 C :    0.020771
   4 C :   -0.132905
   5 H :    0.009107
   6 C :    0.067579
   7 H :    0.041547
   8 H :    0.023951
   9 C :   -0.162084
  10 H :    0.042091
  11 H :    0.048996
  12 C :   -0.055530
  13 H :    0.049234
  14 H :    0.033714
  15 H :    0.041819
  16 S :    0.113672
  17 C :   -0.070493
  18 C :   -0.043949
  19 C :   -0.021159
  20 C :   -0.163179
  21 H :    0.008153
  22 C :    0.055333
  23 H :    0.019301
  24 H :    0.026806
  25 C :   -0.065205
  26 H :    0.024735
  27 H :    0.039689
  28 C :   -0.050692
  29 H :    0.042359
  30 H :    0.018870
  31 H :    0.037318
  32 H :    0.052836
  33 H :    0.052801
Sum of atomic charges:   -0.0000000

LOEWDIN ATOMIC CHARGES
----------------------
   0 S :    0.411203
   1 C :   -0.203622
   2 C :   -0.070455
   3 C :   -0.059843
   4 C :   -0.196613
   5 H :    0.027123
   6 C :   -0.032282
   7 H :    0.035106
   8 H :    0.029875
   9 C :   -0.051789
  10 H :    0.026148
  11 H :    0.026146
  12 C :   -0.073246
  13 H :    0.035392
  14 H :    0.026284
  15 H :    0.026951
  16 S :    0.399519
  17 C :   -0.193055
  18 C :   -0.069870
  19 C :   -0.050478
  20 C :   -0.180871
  21 H :    0.028613
  22 C :   -0.030243
  23 H :    0.025802
  24 H :    0.035153
  25 C :   -0.045495
  26 H :    0.028606
  27 H :    0.024576
  28 C :   -0.074013
  29 H :    0.031430
  30 H :    0.024747
  31 H :    0.029857
  32 H :    0.028016
  33 H :    0.031329

  Mayer bond orders larger than 0.100000
B(  0-S ,  1-C ) :   1.1564 B(  0-S ,  4-C ) :   1.1456 B(  1-C ,  2-C ) :   1.5775
B(  1-C , 32-H ) :   0.9684 B(  2-C ,  3-C ) :   1.2782 B(  2-C ,  6-C ) :   1.0314
B(  3-C ,  4-C ) :   1.5302 B(  3-C ,  5-H ) :   0.9914 B(  4-C , 20-C ) :   1.0875
B(  6-C ,  7-H ) :   0.9275 B(  6-C ,  8-H ) :   0.9521 B(  6-C ,  9-C ) :   1.0523
B(  9-C , 10-H ) :   0.9471 B(  9-C , 11-H ) :   0.9627 B(  9-C , 12-C ) :   1.0859
B( 12-C , 13-H ) :   0.9745 B( 12-C , 14-H ) :   0.9719 B( 12-C , 15-H ) :   0.9737
B( 16-S , 17-C ) :   1.1420 B( 16-S , 20-C ) :   1.1349 B( 17-C , 18-C ) :   1.6403
B( 17-C , 33-H ) :   0.9572 B( 18-C , 19-C ) :   1.2468 B( 18-C , 21-H ) :   0.9866
B( 19-C , 20-C ) :   1.5850 B( 19-C , 22-C ) :   1.0452 B( 22-C , 23-H ) :   0.9298
B( 22-C , 24-H ) :   0.9360 B( 22-C , 25-C ) :   1.0577 B( 25-C , 26-H ) :   0.9490
B( 25-C , 27-H ) :   0.9569 B( 25-C , 28-C ) :   1.0887 B( 28-C , 29-H ) :   0.9727
B( 28-C , 30-H ) :   0.9709 B( 28-C , 31-H ) :   0.9704

Dispersion correction           -0.014120051
FINAL SINGLE POINT ENERGY     -1339.883739531423

DIPOLE MOMENT
-------------
                                X             Y             Z
Electronic contribution:      5.23869     -18.94058     -17.36825
Nuclear contribution   :     -5.19136      19.27278      17.80333
                        -----------------------------------------
Total Dipole Moment    :      0.04732       0.33220       0.43508
                        -----------------------------------------
Magnitude (a.u.)       :      0.54945
Magnitude (Debye)      :      1.39658

Rotational constants in cm-1:     0.017534     0.008695     0.007236
Rotational constants in MHz :   525.660091   260.659947   216.933293

                             ****ORCA TERMINATED NORMALLY****
TOTAL RUN TIME: 0 days 0 hours 0 minutes 20 seconds 463 msec
