                         Program Version 4.2.1 -  RELEASE  -
|  1> ! wB97X-D3 SP def2-SVP
|  2> %pal
|  3> nprocs 24
|  4> end
|  5>
|  6> * xyz 0 1
|  7> S 	 -122.116 	 59.7613 	 -36.2844
|  8> C 	 -121.505 	 58.1354 	 -36.1396
|  9> C 	 -120.927 	 57.9225 	 -34.8526
| 10> C 	 -121.283 	 58.9666 	 -33.9257
| 11> C 	 -122.06 	 59.9663 	 -34.4866
| 12> H 	 -120.948 	 58.9221 	 -32.8847
| 13> C 	 -120.002 	 56.7387 	 -34.4781
| 14> H 	 -119.204 	 56.9795 	 -35.1621
| 15> H 	 -120.311 	 55.8384 	 -34.9988
| 16> C 	 -119.611 	 56.4665 	 -33.0456
| 17> H 	 -120.572 	 56.5896 	 -32.5162
| 18> H 	 -119.255 	 55.4332 	 -33.0466
| 19> C 	 -118.459 	 57.3163 	 -32.4697
| 20> H 	 -117.545 	 57.1698 	 -33.0454
| 21> H 	 -118.663 	 58.3448 	 -32.3732
| 22> H 	 -118.264 	 56.9324 	 -31.4695
| 23> S 	 -122.186 	 62.7035 	 -34.7105
| 24> C 	 -122.762 	 63.6091 	 -33.3195
| 25> C 	 -123.164 	 62.7947 	 -32.2764
| 26> C 	 -123.102 	 61.4044 	 -32.5968
| 27> C 	 -122.595 	 61.1542 	 -33.864
| 28> H 	 -123.571 	 63.2289 	 -31.3148
| 29> C 	 -123.667 	 60.3926 	 -31.6201
| 30> H 	 -123.748 	 59.4442 	 -32.1856
| 31> H 	 -124.703 	 60.5957 	 -31.4184
| 32> C 	 -122.894 	 60.0926 	 -30.3023
| 33> H 	 -123.37 	 60.7021 	 -29.5443
| 34> H 	 -121.865 	 60.4806 	 -30.4134
| 35> C 	 -122.865 	 58.5986 	 -30.0072
| 36> H 	 -122.676 	 58.4086 	 -28.9002
| 37> H 	 -122.072 	 58.0867 	 -30.5121
| 38> H 	 -123.862 	 58.0834 	 -30.2691
| 39> H 	 -121.639 	 57.4485 	 -36.9057
| 40> H 	 -122.854 	 64.6439 	 -33.2291
| 41> *
| 42>
| 43>                          ****END OF INPUT****

CARTESIAN COORDINATES (ANGSTROEM)
---------------------------------
  S    -122.116000   59.761300  -36.284400
  C    -121.505000   58.135400  -36.139600
  C    -120.927000   57.922500  -34.852600
  C    -121.283000   58.966600  -33.925700
  C    -122.060000   59.966300  -34.486600
  H    -120.948000   58.922100  -32.884700
  C    -120.002000   56.738700  -34.478100
  H    -119.204000   56.979500  -35.162100
  H    -120.311000   55.838400  -34.998800
  C    -119.611000   56.466500  -33.045600
  H    -120.572000   56.589600  -32.516200
  H    -119.255000   55.433200  -33.046600
  C    -118.459000   57.316300  -32.469700
  H    -117.545000   57.169800  -33.045400
  H    -118.663000   58.344800  -32.373200
  H    -118.264000   56.932400  -31.469500
  S    -122.186000   62.703500  -34.710500
  C    -122.762000   63.609100  -33.319500
  C    -123.164000   62.794700  -32.276400
  C    -123.102000   61.404400  -32.596800
  C    -122.595000   61.154200  -33.864000
  H    -123.571000   63.228900  -31.314800
  C    -123.667000   60.392600  -31.620100
  H    -123.748000   59.444200  -32.185600
  H    -124.703000   60.595700  -31.418400
  C    -122.894000   60.092600  -30.302300
  H    -123.370000   60.702100  -29.544300
  H    -121.865000   60.480600  -30.413400
  C    -122.865000   58.598600  -30.007200
  H    -122.676000   58.408600  -28.900200
  H    -122.072000   58.086700  -30.512100
  H    -123.862000   58.083400  -30.269100
  H    -121.639000   57.448500  -36.905700
  H    -122.854000   64.643900  -33.229100

 Total Charge           Charge          ....    0
 Multiplicity           Mult            ....    1
 Number of Electrons    NEL             ....  134
 Basis Dimension        Dim             ....  322

ORBITAL ENERGIES
----------------

  NO   OCC          E(Eh)            E(eV)
   0   2.0000     -88.965210     -2420.8664
   1   2.0000     -88.964181     -2420.8384
   2   2.0000     -10.334251      -281.2093
   3   2.0000     -10.329800      -281.0881
   4   2.0000     -10.313938      -280.6565
   5   2.0000     -10.311344      -280.5859
   6   2.0000     -10.309968      -280.5485
   7   2.0000     -10.303634      -280.3761
   8   2.0000     -10.299370      -280.2601
   9   2.0000     -10.296163      -280.1728
  10   2.0000     -10.294508      -280.1278
  11   2.0000     -10.290360      -280.0149
  12   2.0000     -10.289391      -279.9886
  13   2.0000     -10.289329      -279.9869
  14   2.0000     -10.288222      -279.9568
  15   2.0000     -10.278930      -279.7039
  16   2.0000      -8.079028      -219.8415
  17   2.0000      -8.078263      -219.8207
  18   2.0000      -6.037714      -164.2945
  19   2.0000      -6.036856      -164.2712
  20   2.0000      -6.033779      -164.1875
  21   2.0000      -6.033054      -164.1678
  22   2.0000      -6.029543      -164.0722
  23   2.0000      -6.028804      -164.0521
  24   2.0000      -0.998189       -27.1621
  25   2.0000      -0.974885       -26.5280
  26   2.0000      -0.912739       -24.8369
  27   2.0000      -0.905760       -24.6470
  28   2.0000      -0.868174       -23.6242
  29   2.0000      -0.850710       -23.1490
  30   2.0000      -0.842990       -22.9389
  31   2.0000      -0.815365       -22.1872
  32   2.0000      -0.783244       -21.3131
  33   2.0000      -0.770197       -20.9581
  34   2.0000      -0.713367       -19.4117
  35   2.0000      -0.699634       -19.0380
  36   2.0000      -0.696372       -18.9492
  37   2.0000      -0.656033       -17.8516
  38   2.0000      -0.640833       -17.4380
  39   2.0000      -0.626958       -17.0604
  40   2.0000      -0.596607       -16.2345
  41   2.0000      -0.564803       -15.3691
  42   2.0000      -0.560585       -15.2543
  43   2.0000      -0.543336       -14.7849
  44   2.0000      -0.539871       -14.6906
  45   2.0000      -0.525441       -14.2980
  46   2.0000      -0.518504       -14.1092
  47   2.0000      -0.514180       -13.9916
  48   2.0000      -0.506129       -13.7725
  49   2.0000      -0.496077       -13.4989
  50   2.0000      -0.489241       -13.3129
  51   2.0000      -0.482856       -13.1392
  52   2.0000      -0.480572       -13.0770
  53   2.0000      -0.463088       -12.6013
  54   2.0000      -0.458267       -12.4701
  55   2.0000      -0.447574       -12.1791
  56   2.0000      -0.440002       -11.9731
  57   2.0000      -0.432305       -11.7636
  58   2.0000      -0.430536       -11.7155
  59   2.0000      -0.429299       -11.6818
  60   2.0000      -0.420769       -11.4497
  61   2.0000      -0.418147       -11.3784
  62   2.0000      -0.413375       -11.2485
  63   2.0000      -0.350634        -9.5412
  64   2.0000      -0.331816        -9.0292
  65   2.0000      -0.324928        -8.8417
  66   2.0000      -0.277722        -7.5572
  67   0.0000       0.019070         0.5189
  68   0.0000       0.062139         1.6909
  69   0.0000       0.098823         2.6891
  70   0.0000       0.117769         3.2047
  71   0.0000       0.127657         3.4737

MULLIKEN ATOMIC CHARGES
-----------------------
   0 S :    0.093987
   1 C :   -0.115934
   2 C :   -0.102781
   3 C :    0.018306
   4 C :   -0.131934
   5 H :    0.013540
   6 C :    0.057526
   7 H :    0.027446
   8 H :    0.017688
   9 C :   -0.070547
  10 H :    0.045013
  11 H :    0.035289
  12 C :   -0.030789
  13 H :    0.034014
  14 H :    0.030196
  15 H :    0.031798
  16 S :    0.086626
  17 C :   -0.057818
  18 C :   -0.055190
  19 C :   -0.051798
  20 C :   -0.117754
  21 H :    0.039383
  22 C :    0.025024
  23 H :    0.023244
  24 H :    0.033829
  25 C :   -0.043570
  26 H :    0.030800
  27 H :    0.037471
  28 C :   -0.096312
  29 H :    0.041174
  30 H :    0.034582
  31 H :    0.051380
  32 H :    0.032199
  33 H :    0.033912
Sum of atomic charges:   -0.0000000

LOEWDIN ATOMIC CHARGES
----------------------
   0 S :    0.379671
   1 C :   -0.195947
   2 C :   -0.047748
   3 C :   -0.066433
   4 C :   -0.172602
   5 H :    0.032908
   6 C :   -0.046147
   7 H :    0.036466
   8 H :    0.033471
   9 C :   -0.044510
  10 H :    0.029495
  11 H :    0.034260
  12 C :   -0.058968
  13 H :    0.029299
  14 H :    0.016631
  15 H :    0.028993
  16 S :    0.373953
  17 C :   -0.171273
  18 C :   -0.076295
  19 C :   -0.059364
  20 C :   -0.176149
  21 H :    0.041921
  22 C :   -0.036271
  23 H :    0.031418
  24 H :    0.030764
  25 C :   -0.043398
  26 H :    0.022860
  27 H :    0.028001
  28 C :   -0.073046
  29 H :    0.033105
  30 H :    0.019557
  31 H :    0.034874
  32 H :    0.012370
  33 H :    0.018138

  Mayer bond orders larger than 0.100000
B(  0-S ,  1-C ) :   1.1401 B(  0-S ,  4-C ) :   1.1370 B(  1-C ,  2-C ) :   1.5793
B(  1-C ,  4-C ) :   0.1089 B(  1-C , 32-H ) :   0.9853 B(  2-C ,  3-C ) :   1.2596
B(  2-C ,  6-C ) :   0.9962 B(  3-C ,  4-C ) :   1.5464 B(  3-C ,  5-H ) :   0.9846
B(  4-C , 20-C ) :   1.0589 B(  6-C ,  7-H ) :   0.9290 B(  6-C ,  8-H ) :   0.9370
B(  6-C ,  9-C ) :   1.0646 B(  9-C , 10-H ) :   0.9542 B(  9-C , 11-H ) :   0.9490
B(  9-C , 12-C ) :   1.0806 B( 12-C , 13-H ) :   0.9713 B( 12-C , 14-H ) :   0.9795
B( 12-C , 15-H ) :   0.9724 B( 16-S , 17-C ) :   1.1421 B( 16-S , 20-C ) :   1.1065
B( 17-C , 18-C ) :   1.6346 B( 17-C , 33-H ) :   0.9710 B( 18-C , 19-C ) :   1.2200
B( 18-C , 21-H ) :   0.9803 B( 19-C , 20-C ) :   1.6239 B( 19-C , 22-C ) :   1.0489
B( 22-C , 23-H ) :   0.9447 B( 22-C , 24-H ) :   0.9367 B( 22-C , 25-C ) :   1.0288
B( 25-C , 26-H ) :   0.9560 B( 25-C , 27-H ) :   0.9637 B( 25-C , 28-C ) :   1.0803
B( 28-C , 29-H ) :   0.9715 B( 28-C , 30-H ) :   0.9757 B( 28-C , 31-H ) :   0.9748

Dispersion correction           -0.014802429
FINAL SINGLE POINT ENERGY     -1339.861637927101

DIPOLE MOMENT
-------------
                                X             Y             Z
Electronic contribution:     -7.39908      19.42320     -23.41069
Nuclear contribution   :      7.62247     -19.91307      24.04524
                        -----------------------------------------
Total Dipole Moment    :      0.22339      -0.48987       0.63455
                        -----------------------------------------
Magnitude (a.u.)       :      0.83218
Magnitude (Debye)      :      2.11523

Rotational constants in cm-1:     0.015923     0.010480     0.007247
Rotational constants in MHz :   477.355303   314.175670   217.274241

                             ****ORCA TERMINATED NORMALLY****
TOTAL RUN TIME: 0 days 0 hours 0 minutes 20 seconds 994 msec
