                         Program Version 4.2.1 -  RELEASE  -
|  1> ! wB97X-D3 SP def2-SVP
|  2> %pal
|  3> nprocs 24
|  4> end
|  5>
|  6> * xyz 0 1
|  7> S 	 -124.91 	 62.6272 	 -51.8076
|  8> C 	 -124.166 	 64.0304 	 -51.125
|  9> C 	 -125.063 	 64.9974 	 -50.8075
| 10> C 	 -126.368 	 64.7013 	 -51.2828
| 11> C 	 -126.517 	 63.4251 	 -51.8479
| 12> H 	 -127.212 	 65.3524 	 -51.2163
| 13> C 	 -124.614 	 66.3737 	 -50.2664
| 14> H 	 -123.594 	 66.2462 	 -50.0012
| 15> H 	 -125.138 	 66.5838 	 -49.3261
| 16> C 	 -124.834 	 67.5405 	 -51.2979
| 17> H 	 -125.884 	 67.6686 	 -51.5375
| 18> H 	 -124.531 	 68.4198 	 -50.885
| 19> C 	 -124.086 	 67.5598 	 -52.567
| 20> H 	 -124.314 	 66.6336 	 -53.159
| 21> H 	 -124.345 	 68.341 	 -53.1491
| 22> H 	 -123.028 	 67.5681 	 -52.4522
| 23> S 	 -128.559 	 63.5092 	 -53.6403
| 24> C 	 -129.729 	 62.2803 	 -53.5345
| 25> C 	 -129.669 	 61.5108 	 -52.3712
| 26> C 	 -128.536 	 61.8842 	 -51.6129
| 27> C 	 -127.762 	 62.7783 	 -52.238
| 28> H 	 -130.365 	 60.7911 	 -52.0319
| 29> C 	 -128.295 	 61.3527 	 -50.2168
| 30> H 	 -129.278 	 61.3718 	 -49.7181
| 31> H 	 -127.727 	 62.1282 	 -49.7024
| 32> C 	 -127.849 	 59.9289 	 -50.0914
| 33> H 	 -126.914 	 59.8401 	 -50.5722
| 34> H 	 -128.403 	 59.3276 	 -50.7352
| 35> C 	 -127.753 	 59.4314 	 -48.632
| 36> H 	 -127.538 	 58.3596 	 -48.4999
| 37> H 	 -128.62 	 59.6068 	 -48.0825
| 38> H 	 -126.894 	 59.9412 	 -48.1755
| 39> H 	 -123.101 	 64.0071 	 -50.9153
| 40> H 	 -130.65 	 62.2663 	 -54.1773
| 41> *
| 42>
| 43>                          ****END OF INPUT****

CARTESIAN COORDINATES (ANGSTROEM)
---------------------------------
  S    -124.910000   62.627200  -51.807600
  C    -124.166000   64.030400  -51.125000
  C    -125.063000   64.997400  -50.807500
  C    -126.368000   64.701300  -51.282800
  C    -126.517000   63.425100  -51.847900
  H    -127.212000   65.352400  -51.216300
  C    -124.614000   66.373700  -50.266400
  H    -123.594000   66.246200  -50.001200
  H    -125.138000   66.583800  -49.326100
  C    -124.834000   67.540500  -51.297900
  H    -125.884000   67.668600  -51.537500
  H    -124.531000   68.419800  -50.885000
  C    -124.086000   67.559800  -52.567000
  H    -124.314000   66.633600  -53.159000
  H    -124.345000   68.341000  -53.149100
  H    -123.028000   67.568100  -52.452200
  S    -128.559000   63.509200  -53.640300
  C    -129.729000   62.280300  -53.534500
  C    -129.669000   61.510800  -52.371200
  C    -128.536000   61.884200  -51.612900
  C    -127.762000   62.778300  -52.238000
  H    -130.365000   60.791100  -52.031900
  C    -128.295000   61.352700  -50.216800
  H    -129.278000   61.371800  -49.718100
  H    -127.727000   62.128200  -49.702400
  C    -127.849000   59.928900  -50.091400
  H    -126.914000   59.840100  -50.572200
  H    -128.403000   59.327600  -50.735200
  C    -127.753000   59.431400  -48.632000
  H    -127.538000   58.359600  -48.499900
  H    -128.620000   59.606800  -48.082500
  H    -126.894000   59.941200  -48.175500
  H    -123.101000   64.007100  -50.915300
  H    -130.650000   62.266300  -54.177300

 Total Charge           Charge          ....    0
 Multiplicity           Mult            ....    1
 Number of Electrons    NEL             ....  134
 Basis Dimension        Dim             ....  322

ORBITAL ENERGIES
----------------

  NO   OCC          E(Eh)            E(eV)
   0   2.0000     -88.965411     -2420.8719
   1   2.0000     -88.962683     -2420.7977
   2   2.0000     -10.330531      -281.1080
   3   2.0000     -10.318704      -280.7862
   4   2.0000     -10.318111      -280.7701
   5   2.0000     -10.310870      -280.5730
   6   2.0000     -10.297098      -280.1983
   7   2.0000     -10.294536      -280.1286
   8   2.0000     -10.294288      -280.1218
   9   2.0000     -10.293964      -280.1130
  10   2.0000     -10.289676      -279.9963
  11   2.0000     -10.285905      -279.8937
  12   2.0000     -10.275398      -279.6078
  13   2.0000     -10.274122      -279.5731
  14   2.0000     -10.273445      -279.5547
  15   2.0000     -10.260942      -279.2144
  16   2.0000      -8.081031      -219.8960
  17   2.0000      -8.077195      -219.7917
  18   2.0000      -6.039309      -164.3380
  19   2.0000      -6.035696      -164.2396
  20   2.0000      -6.035648      -164.2383
  21   2.0000      -6.031741      -164.1320
  22   2.0000      -6.031649      -164.1295
  23   2.0000      -6.028066      -164.0320
  24   2.0000      -1.009789       -27.4778
  25   2.0000      -0.986783       -26.8517
  26   2.0000      -0.913972       -24.8705
  27   2.0000      -0.910372       -24.7725
  28   2.0000      -0.870867       -23.6975
  29   2.0000      -0.855897       -23.2901
  30   2.0000      -0.849293       -23.1104
  31   2.0000      -0.812360       -22.1054
  32   2.0000      -0.786390       -21.3988
  33   2.0000      -0.773286       -21.0422
  34   2.0000      -0.712937       -19.4000
  35   2.0000      -0.703431       -19.1413
  36   2.0000      -0.689082       -18.7509
  37   2.0000      -0.670101       -18.2344
  38   2.0000      -0.643773       -17.5180
  39   2.0000      -0.615688       -16.7537
  40   2.0000      -0.599480       -16.3127
  41   2.0000      -0.567981       -15.4555
  42   2.0000      -0.560078       -15.2405
  43   2.0000      -0.553400       -15.0588
  44   2.0000      -0.545776       -14.8513
  45   2.0000      -0.525279       -14.2936
  46   2.0000      -0.520977       -14.1765
  47   2.0000      -0.512617       -13.9490
  48   2.0000      -0.507982       -13.8229
  49   2.0000      -0.494058       -13.4440
  50   2.0000      -0.484108       -13.1733
  51   2.0000      -0.482029       -13.1167
  52   2.0000      -0.470544       -12.8042
  53   2.0000      -0.465592       -12.6694
  54   2.0000      -0.460052       -12.5187
  55   2.0000      -0.453994       -12.3538
  56   2.0000      -0.446686       -12.1549
  57   2.0000      -0.441096       -12.0028
  58   2.0000      -0.435109       -11.8399
  59   2.0000      -0.427909       -11.6440
  60   2.0000      -0.423860       -11.5338
  61   2.0000      -0.411405       -11.1949
  62   2.0000      -0.407375       -11.0852
  63   2.0000      -0.338696        -9.2164
  64   2.0000      -0.331546        -9.0218
  65   2.0000      -0.326944        -8.8966
  66   2.0000      -0.301232        -8.1969
  67   0.0000       0.041792         1.1372
  68   0.0000       0.058840         1.6011
  69   0.0000       0.101331         2.7574
  70   0.0000       0.122104         3.3226
  71   0.0000       0.137707         3.7472

MULLIKEN ATOMIC CHARGES
-----------------------
   0 S :    0.105612
   1 C :   -0.138447
   2 C :   -0.083880
   3 C :    0.043700
   4 C :   -0.176432
   5 H :    0.002284
   6 C :    0.110995
   7 H :    0.001510
   8 H :    0.032949
   9 C :   -0.045645
  10 H :    0.024146
  11 H :    0.000933
  12 C :   -0.012645
  13 H :    0.032755
  14 H :    0.008923
  15 H :    0.015002
  16 S :    0.121263
  17 C :   -0.088482
  18 C :   -0.023396
  19 C :   -0.016978
  20 C :   -0.208337
  21 H :    0.003332
  22 C :    0.068285
  23 H :    0.013039
  24 H :    0.029447
  25 C :   -0.005260
  26 H :    0.002853
  27 H :   -0.002615
  28 C :   -0.024805
  29 H :    0.033256
  30 H :    0.017089
  31 H :    0.034713
  32 H :    0.054480
  33 H :    0.070359
Sum of atomic charges:   -0.0000000

LOEWDIN ATOMIC CHARGES
----------------------
   0 S :    0.393496
   1 C :   -0.196883
   2 C :   -0.072738
   3 C :   -0.056918
   4 C :   -0.187344
   5 H :    0.025298
   6 C :   -0.016997
   7 H :    0.022112
   8 H :    0.033911
   9 C :   -0.034815
  10 H :    0.025237
  11 H :    0.013021
  12 C :   -0.053797
  13 H :    0.030842
  14 H :    0.013362
  15 H :    0.019367
  16 S :    0.420297
  17 C :   -0.198908
  18 C :   -0.067465
  19 C :   -0.051654
  20 C :   -0.199803
  21 H :    0.025764
  22 C :   -0.027310
  23 H :    0.032145
  24 H :    0.031378
  25 C :   -0.036587
  26 H :    0.019348
  27 H :    0.014642
  28 C :   -0.058442
  29 H :    0.030078
  30 H :    0.013840
  31 H :    0.031713
  32 H :    0.028271
  33 H :    0.035540

  Mayer bond orders larger than 0.100000
B(  0-S ,  1-C ) :   1.1526 B(  0-S ,  4-C ) :   1.1400 B(  1-C ,  2-C ) :   1.6064
B(  1-C , 32-H ) :   0.9651 B(  2-C ,  3-C ) :   1.2405 B(  2-C ,  6-C ) :   1.0252
B(  3-C ,  4-C ) :   1.5774 B(  3-C ,  5-H ) :   0.9974 B(  4-C , 20-C ) :   1.0232
B(  6-C ,  7-H ) :   0.9414 B(  6-C ,  8-H ) :   0.9358 B(  6-C ,  9-C ) :   1.0665
B(  9-C , 10-H ) :   0.9545 B(  9-C , 11-H ) :   0.9504 B(  9-C , 12-C ) :   1.0937
B( 12-C , 13-H ) :   0.9703 B( 12-C , 14-H ) :   0.9667 B( 12-C , 15-H ) :   0.9715
B( 16-S , 17-C ) :   1.1749 B( 16-S , 20-C ) :   1.1266 B( 17-C , 18-C ) :   1.5911
B( 17-C , 33-H ) :   0.9574 B( 18-C , 19-C ) :   1.2382 B( 18-C , 21-H ) :   0.9972
B( 19-C , 20-C ) :   1.6390 B( 19-C , 22-C ) :   1.0399 B( 22-C , 23-H ) :   0.9291
B( 22-C , 24-H ) :   0.9293 B( 22-C , 25-C ) :   1.0616 B( 25-C , 26-H ) :   0.9426
B( 25-C , 27-H ) :   0.9507 B( 25-C , 28-C ) :   1.0766 B( 28-C , 29-H ) :   0.9742
B( 28-C , 30-H ) :   0.9774 B( 28-C , 31-H ) :   0.9758

Dispersion correction           -0.014653343
FINAL SINGLE POINT ENERGY     -1339.867011728961

DIPOLE MOMENT
-------------
                                X             Y             Z
Electronic contribution:     -4.12124      -3.87209     -13.41013
Nuclear contribution   :      3.98084       4.12353      13.85831
                        -----------------------------------------
Total Dipole Moment    :     -0.14040       0.25145       0.44818
                        -----------------------------------------
Magnitude (a.u.)       :      0.53273
Magnitude (Debye)      :      1.35409

Rotational constants in cm-1:     0.019926     0.008473     0.006725
Rotational constants in MHz :   597.375250   254.000241   201.597833

                             ****ORCA TERMINATED NORMALLY****
TOTAL RUN TIME: 0 days 0 hours 0 minutes 21 seconds 435 msec
