                         Program Version 4.2.1 -  RELEASE  -
|  1> ! wB97X-D3 SP def2-SVP
|  2> %pal
|  3> nprocs 24
|  4> end
|  5>
|  6> * xyz 0 1
|  7> S 	 -121.745 	 28.8439 	 -115.109
|  8> C 	 -122.502 	 27.7818 	 -116.2
|  9> C 	 -121.728 	 27.5372 	 -117.336
| 10> C 	 -120.472 	 28.1916 	 -117.205
| 11> C 	 -120.397 	 28.9954 	 -116.098
| 12> H 	 -119.717 	 28.2654 	 -117.97
| 13> C 	 -122.105 	 26.6531 	 -118.487
| 14> H 	 -122.612 	 25.733 	 -118.122
| 15> H 	 -121.155 	 26.2906 	 -118.915
| 16> C 	 -122.857 	 27.2105 	 -119.68
| 17> H 	 -122.234 	 28.0785 	 -119.959
| 18> H 	 -122.832 	 26.5024 	 -120.491
| 19> C 	 -124.353 	 27.6363 	 -119.402
| 20> H 	 -125.007 	 26.832 	 -119.181
| 21> H 	 -124.354 	 28.3246 	 -118.633
| 22> H 	 -124.794 	 28.2632 	 -120.252
| 23> S 	 -119.097 	 31.4438 	 -115.27
| 24> C 	 -117.388 	 31.388 	 -114.973
| 25> C 	 -116.77 	 30.1723 	 -115.192
| 26> C 	 -117.749 	 29.2576 	 -115.672
| 27> C 	 -119.141 	 29.6536 	 -115.691
| 28> H 	 -115.73 	 30.0102 	 -115.167
| 29> C 	 -117.185 	 27.9128 	 -116.088
| 30> H 	 -116.123 	 27.8469 	 -116.208
| 31> H 	 -117.46 	 27.5279 	 -117.089
| 32> C 	 -117.418 	 26.8013 	 -114.975
| 33> H 	 -118.502 	 26.6396 	 -114.882
| 34> H 	 -117.019 	 27.1502 	 -114.034
| 35> C 	 -116.544 	 25.4934 	 -115.248
| 36> H 	 -116.767 	 25.0804 	 -116.2
| 37> H 	 -116.463 	 24.8189 	 -114.381
| 38> H 	 -115.47 	 25.8384 	 -115.264
| 39> H 	 -123.533 	 27.4569 	 -116.051
| 40> H 	 -116.794 	 32.1275 	 -114.566
| 41> *
| 42>
| 43>                          ****END OF INPUT****

CARTESIAN COORDINATES (ANGSTROEM)
---------------------------------
  S    -121.745000   28.843900  -115.109000
  C    -122.502000   27.781800  -116.200000
  C    -121.728000   27.537200  -117.336000
  C    -120.472000   28.191600  -117.205000
  C    -120.397000   28.995400  -116.098000
  H    -119.717000   28.265400  -117.970000
  C    -122.105000   26.653100  -118.487000
  H    -122.612000   25.733000  -118.122000
  H    -121.155000   26.290600  -118.915000
  C    -122.857000   27.210500  -119.680000
  H    -122.234000   28.078500  -119.959000
  H    -122.832000   26.502400  -120.491000
  C    -124.353000   27.636300  -119.402000
  H    -125.007000   26.832000  -119.181000
  H    -124.354000   28.324600  -118.633000
  H    -124.794000   28.263200  -120.252000
  S    -119.097000   31.443800  -115.270000
  C    -117.388000   31.388000  -114.973000
  C    -116.770000   30.172300  -115.192000
  C    -117.749000   29.257600  -115.672000
  C    -119.141000   29.653600  -115.691000
  H    -115.730000   30.010200  -115.167000
  C    -117.185000   27.912800  -116.088000
  H    -116.123000   27.846900  -116.208000
  H    -117.460000   27.527900  -117.089000
  C    -117.418000   26.801300  -114.975000
  H    -118.502000   26.639600  -114.882000
  H    -117.019000   27.150200  -114.034000
  C    -116.544000   25.493400  -115.248000
  H    -116.767000   25.080400  -116.200000
  H    -116.463000   24.818900  -114.381000
  H    -115.470000   25.838400  -115.264000
  H    -123.533000   27.456900  -116.051000
  H    -116.794000   32.127500  -114.566000

 Total Charge           Charge          ....    0
 Multiplicity           Mult            ....    1
 Number of Electrons    NEL             ....  134
 Basis Dimension        Dim             ....  322

ORBITAL ENERGIES
----------------

  NO   OCC          E(Eh)            E(eV)
   0   2.0000     -88.970158     -2421.0011
   1   2.0000     -88.967874     -2420.9389
   2   2.0000     -10.339561      -281.3538
   3   2.0000     -10.325430      -280.9692
   4   2.0000     -10.313994      -280.6581
   5   2.0000     -10.313800      -280.6528
   6   2.0000     -10.312191      -280.6090
   7   2.0000     -10.302854      -280.3549
   8   2.0000     -10.293140      -280.0906
   9   2.0000     -10.291568      -280.0478
  10   2.0000     -10.290838      -280.0279
  11   2.0000     -10.289786      -279.9993
  12   2.0000     -10.289506      -279.9917
  13   2.0000     -10.287184      -279.9285
  14   2.0000     -10.282210      -279.7932
  15   2.0000     -10.275572      -279.6125
  16   2.0000      -8.087055      -220.0600
  17   2.0000      -8.081358      -219.9049
  18   2.0000      -6.045224      -164.4989
  19   2.0000      -6.041141      -164.3878
  20   2.0000      -6.039937      -164.3550
  21   2.0000      -6.038153      -164.3065
  22   2.0000      -6.036007      -164.2481
  23   2.0000      -6.032174      -164.1438
  24   2.0000      -1.015738       -27.6396
  25   2.0000      -0.981240       -26.7009
  26   2.0000      -0.913617       -24.8608
  27   2.0000      -0.896741       -24.4016
  28   2.0000      -0.868083       -23.6217
  29   2.0000      -0.853911       -23.2361
  30   2.0000      -0.842501       -22.9256
  31   2.0000      -0.812102       -22.0984
  32   2.0000      -0.787768       -21.4363
  33   2.0000      -0.767499       -20.8847
  34   2.0000      -0.709045       -19.2941
  35   2.0000      -0.700650       -19.0656
  36   2.0000      -0.689516       -18.7627
  37   2.0000      -0.662280       -18.0216
  38   2.0000      -0.646438       -17.5905
  39   2.0000      -0.621961       -16.9244
  40   2.0000      -0.597920       -16.2702
  41   2.0000      -0.577720       -15.7205
  42   2.0000      -0.556815       -15.1517
  43   2.0000      -0.551494       -15.0069
  44   2.0000      -0.540168       -14.6987
  45   2.0000      -0.520941       -14.1755
  46   2.0000      -0.517005       -14.0684
  47   2.0000      -0.504109       -13.7175
  48   2.0000      -0.502490       -13.6734
  49   2.0000      -0.498848       -13.5743
  50   2.0000      -0.488707       -13.2984
  51   2.0000      -0.486001       -13.2248
  52   2.0000      -0.472180       -12.8487
  53   2.0000      -0.467853       -12.7309
  54   2.0000      -0.452956       -12.3256
  55   2.0000      -0.450951       -12.2710
  56   2.0000      -0.444884       -12.1059
  57   2.0000      -0.436323       -11.8730
  58   2.0000      -0.428620       -11.6633
  59   2.0000      -0.426607       -11.6086
  60   2.0000      -0.418775       -11.3954
  61   2.0000      -0.415772       -11.3137
  62   2.0000      -0.405847       -11.0437
  63   2.0000      -0.344873        -9.3845
  64   2.0000      -0.335932        -9.1412
  65   2.0000      -0.330373        -8.9899
  66   2.0000      -0.291616        -7.9353
  67   0.0000       0.026997         0.7346
  68   0.0000       0.066657         1.8138
  69   0.0000       0.109389         2.9766
  70   0.0000       0.115983         3.1560
  71   0.0000       0.132561         3.6072

MULLIKEN ATOMIC CHARGES
-----------------------
   0 S :    0.143154
   1 C :   -0.133588
   2 C :   -0.073914
   3 C :    0.003709
   4 C :   -0.132242
   5 H :    0.015361
   6 C :    0.042237
   7 H :    0.029623
   8 H :    0.020271
   9 C :   -0.050807
  10 H :    0.026030
  11 H :    0.030680
  12 C :   -0.040979
  13 H :    0.029394
  14 H :    0.012933
  15 H :    0.039156
  16 S :    0.095008
  17 C :   -0.036521
  18 C :   -0.024313
  19 C :   -0.025150
  20 C :   -0.143465
  21 H :    0.013119
  22 C :    0.037184
  23 H :   -0.007527
  24 H :    0.021747
  25 C :   -0.078004
  26 H :    0.049113
  27 H :    0.021464
  28 C :   -0.066841
  29 H :    0.035418
  30 H :    0.044595
  31 H :    0.021981
  32 H :    0.054504
  33 H :    0.026673
Sum of atomic charges:   -0.0000000

LOEWDIN ATOMIC CHARGES
----------------------
   0 S :    0.468800
   1 C :   -0.211561
   2 C :   -0.064275
   3 C :   -0.058102
   4 C :   -0.228910
   5 H :    0.031019
   6 C :   -0.040067
   7 H :    0.031717
   8 H :    0.035116
   9 C :   -0.034344
  10 H :    0.027646
  11 H :    0.021741
  12 C :   -0.064969
  13 H :    0.019132
  14 H :    0.012430
  15 H :    0.037449
  16 S :    0.380526
  17 C :   -0.167817
  18 C :   -0.067484
  19 C :   -0.041606
  20 C :   -0.184772
  21 H :    0.029951
  22 C :   -0.039915
  23 H :    0.020643
  24 H :    0.026112
  25 C :   -0.030158
  26 H :    0.023986
  27 H :    0.020059
  28 C :   -0.071869
  29 H :    0.017195
  30 H :    0.030602
  31 H :    0.027867
  32 H :    0.028463
  33 H :    0.015392

  Mayer bond orders larger than 0.100000
B(  0-S ,  1-C ) :   1.1745 B(  0-S ,  4-C ) :   1.1886 B(  1-C ,  2-C ) :   1.5571
B(  1-C , 32-H ) :   0.9682 B(  2-C ,  3-C ) :   1.2813 B(  2-C ,  6-C ) :   1.0247
B(  3-C ,  4-C ) :   1.5392 B(  3-C ,  5-H ) :   0.9986 B(  4-C , 20-C ) :   1.0302
B(  6-C ,  7-H ) :   0.9408 B(  6-C ,  8-H ) :   0.9347 B(  6-C ,  9-C ) :   1.0773
B(  9-C , 10-H ) :   0.9534 B(  9-C , 11-H ) :   0.9566 B(  9-C , 12-C ) :   1.0714
B( 12-C , 13-H ) :   0.9781 B( 12-C , 14-H ) :   0.9755 B( 12-C , 15-H ) :   0.9743
B( 16-S , 17-C ) :   1.1801 B( 16-S , 20-C ) :   1.1045 B( 17-C , 18-C ) :   1.5869
B( 17-C , 20-C ) :   0.1024 B( 17-C , 33-H ) :   0.9639 B( 18-C , 19-C ) :   1.2714
B( 18-C , 21-H ) :   0.9951 B( 19-C , 20-C ) :   1.5631 B( 19-C , 22-C ) :   1.0447
B( 22-C , 23-H ) :   0.9406 B( 22-C , 24-H ) :   0.9413 B( 22-C , 25-C ) :   1.0444
B( 25-C , 26-H ) :   0.9642 B( 25-C , 27-H ) :   0.9590 B( 25-C , 28-C ) :   1.0671
B( 28-C , 29-H ) :   0.9798 B( 28-C , 30-H ) :   0.9762 B( 28-C , 31-H ) :   0.9720

Dispersion correction           -0.014311569
FINAL SINGLE POINT ENERGY     -1339.857301512079

DIPOLE MOMENT
-------------
                                X             Y             Z
Electronic contribution:     -1.82764      20.88406      13.42584
Nuclear contribution   :      2.09040     -21.29010     -13.73852
                        -----------------------------------------
Total Dipole Moment    :      0.26277      -0.40604      -0.31267
                        -----------------------------------------
Magnitude (a.u.)       :      0.57591
Magnitude (Debye)      :      1.46386

Rotational constants in cm-1:     0.018815     0.008176     0.006622
Rotational constants in MHz :   564.052586   245.107264   198.533635

                             ****ORCA TERMINATED NORMALLY****
TOTAL RUN TIME: 0 days 0 hours 0 minutes 21 seconds 639 msec
