                         Program Version 4.2.1 -  RELEASE  -
|  1> ! wB97X-D3 SP def2-SVP
|  2> %pal
|  3> nprocs 24
|  4> end
|  5>
|  6> * xyz 0 1
|  7> S 	 -22.6922 	 -36.0652 	 -92.1439
|  8> C 	 -21.0969 	 -36.6498 	 -92.4162
|  9> C 	 -20.5576 	 -36.0192 	 -93.5209
| 10> C 	 -21.5239 	 -35.1354 	 -94.2198
| 11> C 	 -22.7431 	 -35.0463 	 -93.5813
| 12> H 	 -21.2733 	 -34.5988 	 -95.1114
| 13> C 	 -19.1439 	 -36.2451 	 -94.035
| 14> H 	 -18.485 	 -36.3917 	 -93.2452
| 15> H 	 -18.7091 	 -35.3126 	 -94.4551
| 16> C 	 -19.0603 	 -37.2753 	 -95.1349
| 17> H 	 -19.4041 	 -38.2126 	 -94.588
| 18> H 	 -19.8572 	 -37.0448 	 -95.9555
| 19> C 	 -17.582 	 -37.424 	 -95.6597
| 20> H 	 -17.2016 	 -36.5505 	 -96.2672
| 21> H 	 -17.0566 	 -37.6138 	 -94.7268
| 22> H 	 -17.3832 	 -38.3446 	 -96.3318
| 23> S 	 -25.5287 	 -35.0796 	 -93.5973
| 24> C 	 -26.3553 	 -34.1475 	 -94.7635
| 25> C 	 -25.516 	 -33.1547 	 -95.3465
| 26> C 	 -24.1702 	 -33.2541 	 -94.9165
| 27> C 	 -23.9625 	 -34.3493 	 -94.0379
| 28> H 	 -25.7717 	 -32.3512 	 -96.0468
| 29> C 	 -23.0967 	 -32.3034 	 -95.391
| 30> H 	 -23.1164 	 -32.3029 	 -96.5086
| 31> H 	 -22.1215 	 -32.6547 	 -95.1549
| 32> C 	 -23.2526 	 -30.8459 	 -94.8455
| 33> H 	 -23.2372 	 -31.0147 	 -93.7216
| 34> H 	 -24.2429 	 -30.4993 	 -95.0395
| 35> C 	 -22.0967 	 -29.9292 	 -95.362
| 36> H 	 -22.3198 	 -29.6762 	 -96.4613
| 37> H 	 -21.2195 	 -30.5627 	 -95.3293
| 38> H 	 -22.0254 	 -29.1255 	 -94.6426
| 39> H 	 -20.6432 	 -37.2685 	 -91.7144
| 40> H 	 -27.3472 	 -34.1678 	 -95.0703
| 41> *
| 42>
| 43>                          ****END OF INPUT****

CARTESIAN COORDINATES (ANGSTROEM)
---------------------------------
  S    -22.692200  -36.065200  -92.143900
  C    -21.096900  -36.649800  -92.416200
  C    -20.557600  -36.019200  -93.520900
  C    -21.523900  -35.135400  -94.219800
  C    -22.743100  -35.046300  -93.581300
  H    -21.273300  -34.598800  -95.111400
  C    -19.143900  -36.245100  -94.035000
  H    -18.485000  -36.391700  -93.245200
  H    -18.709100  -35.312600  -94.455100
  C    -19.060300  -37.275300  -95.134900
  H    -19.404100  -38.212600  -94.588000
  H    -19.857200  -37.044800  -95.955500
  C    -17.582000  -37.424000  -95.659700
  H    -17.201600  -36.550500  -96.267200
  H    -17.056600  -37.613800  -94.726800
  H    -17.383200  -38.344600  -96.331800
  S    -25.528700  -35.079600  -93.597300
  C    -26.355300  -34.147500  -94.763500
  C    -25.516000  -33.154700  -95.346500
  C    -24.170200  -33.254100  -94.916500
  C    -23.962500  -34.349300  -94.037900
  H    -25.771700  -32.351200  -96.046800
  C    -23.096700  -32.303400  -95.391000
  H    -23.116400  -32.302900  -96.508600
  H    -22.121500  -32.654700  -95.154900
  C    -23.252600  -30.845900  -94.845500
  H    -23.237200  -31.014700  -93.721600
  H    -24.242900  -30.499300  -95.039500
  C    -22.096700  -29.929200  -95.362000
  H    -22.319800  -29.676200  -96.461300
  H    -21.219500  -30.562700  -95.329300
  H    -22.025400  -29.125500  -94.642600
  H    -20.643200  -37.268500  -91.714400
  H    -27.347200  -34.167800  -95.070300

 Total Charge           Charge          ....    0
 Multiplicity           Mult            ....    1
 Number of Electrons    NEL             ....  134
 Basis Dimension        Dim             ....  322

ORBITAL ENERGIES
----------------

  NO   OCC          E(Eh)            E(eV)
   0   2.0000     -88.972436     -2421.0631
   1   2.0000     -88.961813     -2420.7740
   2   2.0000     -10.336059      -281.2585
   3   2.0000     -10.334749      -281.2228
   4   2.0000     -10.318778      -280.7882
   5   2.0000     -10.311225      -280.5827
   6   2.0000     -10.306704      -280.4597
   7   2.0000     -10.306445      -280.4526
   8   2.0000     -10.299483      -280.2632
   9   2.0000     -10.298382      -280.2332
  10   2.0000     -10.296729      -280.1882
  11   2.0000     -10.293811      -280.1088
  12   2.0000     -10.293237      -280.0932
  13   2.0000     -10.291548      -280.0473
  14   2.0000     -10.289010      -279.9782
  15   2.0000     -10.286526      -279.9106
  16   2.0000      -8.086944      -220.0569
  17   2.0000      -8.077205      -219.7919
  18   2.0000      -6.045398      -164.5036
  19   2.0000      -6.041409      -164.3951
  20   2.0000      -6.037846      -164.2981
  21   2.0000      -6.035898      -164.2451
  22   2.0000      -6.031506      -164.1256
  23   2.0000      -6.027860      -164.0264
  24   2.0000      -1.004213       -27.3260
  25   2.0000      -0.983785       -26.7701
  26   2.0000      -0.911181       -24.7945
  27   2.0000      -0.908825       -24.7304
  28   2.0000      -0.868065       -23.6212
  29   2.0000      -0.853221       -23.2173
  30   2.0000      -0.838493       -22.8166
  31   2.0000      -0.812151       -22.0998
  32   2.0000      -0.780106       -21.2278
  33   2.0000      -0.768476       -20.9113
  34   2.0000      -0.703680       -19.1481
  35   2.0000      -0.700640       -19.0654
  36   2.0000      -0.692192       -18.8355
  37   2.0000      -0.663072       -18.0431
  38   2.0000      -0.649573       -17.6758
  39   2.0000      -0.623113       -16.9558
  40   2.0000      -0.599451       -16.3119
  41   2.0000      -0.566042       -15.4028
  42   2.0000      -0.562514       -15.3068
  43   2.0000      -0.558298       -15.1921
  44   2.0000      -0.529021       -14.3954
  45   2.0000      -0.522065       -14.2061
  46   2.0000      -0.513973       -13.9859
  47   2.0000      -0.512512       -13.9462
  48   2.0000      -0.506680       -13.7875
  49   2.0000      -0.501065       -13.6347
  50   2.0000      -0.494823       -13.4648
  51   2.0000      -0.480828       -13.0840
  52   2.0000      -0.467056       -12.7092
  53   2.0000      -0.462114       -12.5748
  54   2.0000      -0.459672       -12.5083
  55   2.0000      -0.454089       -12.3564
  56   2.0000      -0.447177       -12.1683
  57   2.0000      -0.438819       -11.9409
  58   2.0000      -0.431028       -11.7289
  59   2.0000      -0.423549       -11.5254
  60   2.0000      -0.419538       -11.4162
  61   2.0000      -0.411813       -11.2060
  62   2.0000      -0.408773       -11.1233
  63   2.0000      -0.361337        -9.8325
  64   2.0000      -0.334203        -9.0941
  65   2.0000      -0.323571        -8.8048
  66   2.0000      -0.282702        -7.6927
  67   0.0000       0.020790         0.5657
  68   0.0000       0.076585         2.0840
  69   0.0000       0.103318         2.8114
  70   0.0000       0.116576         3.1722
  71   0.0000       0.138195         3.7605

MULLIKEN ATOMIC CHARGES
-----------------------
   0 S :    0.084501
   1 C :   -0.092342
   2 C :   -0.097405
   3 C :    0.011886
   4 C :   -0.103127
   5 H :    0.011121
   6 C :    0.074233
   7 H :    0.001994
   8 H :    0.011644
   9 C :   -0.107820
  10 H :    0.034698
  11 H :    0.049716
  12 C :   -0.078180
  13 H :    0.053712
  14 H :    0.035188
  15 H :    0.050610
  16 S :    0.127109
  17 C :   -0.052984
  18 C :   -0.048593
  19 C :   -0.053000
  20 C :   -0.144883
  21 H :    0.023988
  22 C :    0.050237
  23 H :    0.029072
  24 H :    0.000518
  25 C :   -0.111987
  26 H :    0.043506
  27 H :    0.021987
  28 C :   -0.022879
  29 H :    0.052209
  30 H :    0.027008
  31 H :    0.047946
  32 H :    0.032768
  33 H :    0.037551
Sum of atomic charges:    0.0000000

LOEWDIN ATOMIC CHARGES
----------------------
   0 S :    0.397941
   1 C :   -0.193398
   2 C :   -0.053785
   3 C :   -0.067034
   4 C :   -0.182524
   5 H :    0.025035
   6 C :   -0.040441
   7 H :    0.017867
   8 H :    0.029215
   9 C :   -0.049621
  10 H :    0.029275
  11 H :    0.032538
  12 C :   -0.080189
  13 H :    0.032383
  14 H :    0.026018
  15 H :    0.035805
  16 S :    0.425615
  17 C :   -0.189431
  18 C :   -0.071853
  19 C :   -0.052476
  20 C :   -0.192298
  21 H :    0.033715
  22 C :   -0.035159
  23 H :    0.031309
  24 H :    0.017861
  25 C :   -0.039130
  26 H :    0.032879
  27 H :    0.013169
  28 C :   -0.062661
  29 H :    0.038851
  30 H :    0.023536
  31 H :    0.029368
  32 H :    0.017856
  33 H :    0.019766

  Mayer bond orders larger than 0.100000
B(  0-S ,  1-C ) :   1.1314 B(  0-S ,  4-C ) :   1.1438 B(  1-C ,  2-C ) :   1.6063
B(  1-C , 32-H ) :   0.9850 B(  2-C ,  3-C ) :   1.2278 B(  2-C ,  6-C ) :   1.0344
B(  3-C ,  4-C ) :   1.5760 B(  3-C ,  5-H ) :   0.9899 B(  4-C , 20-C ) :   1.0596
B(  6-C ,  7-H ) :   0.9387 B(  6-C ,  8-H ) :   0.9375 B(  6-C ,  9-C ) :   1.0472
B(  9-C , 10-H ) :   0.9563 B(  9-C , 11-H ) :   0.9578 B(  9-C , 12-C ) :   1.0542
B( 12-C , 13-H ) :   0.9754 B( 12-C , 14-H ) :   0.9729 B( 12-C , 15-H ) :   0.9761
B( 16-S , 17-C ) :   1.1833 B( 16-S , 20-C ) :   1.1403 B( 17-C , 18-C ) :   1.5443
B( 17-C , 20-C ) :   0.1068 B( 17-C , 33-H ) :   0.9755 B( 18-C , 19-C ) :   1.3029
B( 18-C , 21-H ) :   0.9815 B( 19-C , 20-C ) :   1.5434 B( 19-C , 22-C ) :   1.0457
B( 22-C , 23-H ) :   0.9332 B( 22-C , 24-H ) :   0.9330 B( 22-C , 25-C ) :   1.0492
B( 25-C , 26-H ) :   0.9559 B( 25-C , 27-H ) :   0.9620 B( 25-C , 28-C ) :   1.0616
B( 28-C , 29-H ) :   0.9739 B( 28-C , 30-H ) :   0.9756 B( 28-C , 31-H ) :   0.9752

Dispersion correction           -0.013367198
FINAL SINGLE POINT ENERGY     -1339.866960551444

DIPOLE MOMENT
-------------
                                X             Y             Z
Electronic contribution:    -23.25260      -9.73300      14.67183
Nuclear contribution   :     23.65353      10.05817     -15.08571
                        -----------------------------------------
Total Dipole Moment    :      0.40093       0.32517      -0.41388
                        -----------------------------------------
Magnitude (a.u.)       :      0.66164
Magnitude (Debye)      :      1.68176

Rotational constants in cm-1:     0.016981     0.008047     0.006215
Rotational constants in MHz :   509.071438   241.240088   186.313758

                             ****ORCA TERMINATED NORMALLY****
TOTAL RUN TIME: 0 days 0 hours 0 minutes 20 seconds 912 msec
