                         Program Version 4.2.1 -  RELEASE  -
|  1> ! wB97X-D3 SP def2-SVP
|  2> %pal
|  3> nprocs 24
|  4> end
|  5>
|  6> * xyz 0 1
|  7> S 	 -105.751 	 58.6031 	 -90.8684
|  8> C 	 -104.05 	 58.9088 	 -91.1205
|  9> C 	 -103.418 	 57.7915 	 -91.5633
| 10> C 	 -104.248 	 56.7992 	 -91.9698
| 11> C 	 -105.602 	 57.0857 	 -91.7382
| 12> H 	 -103.884 	 55.8466 	 -92.3483
| 13> C 	 -101.85 	 57.7187 	 -91.6856
| 14> H 	 -101.502 	 58.3471 	 -92.383
| 15> H 	 -101.576 	 56.8022 	 -92.1896
| 16> C 	 -101.075 	 57.7888 	 -90.3496
| 17> H 	 -101.496 	 58.5501 	 -89.8234
| 18> H 	 -101.194 	 56.8965 	 -89.7694
| 19> C 	 -99.552 	 57.9476 	 -90.4403
| 20> H 	 -99.0151 	 58.041 	 -89.4577
| 21> H 	 -99.2079 	 57.0631 	 -90.8714
| 22> H 	 -99.2777 	 58.7925 	 -91.0149
| 23> S 	 -106.815 	 54.578 	 -91.4818
| 24> C 	 -108.325 	 54.2644 	 -92.245
| 25> C 	 -108.749 	 55.4125 	 -92.8797
| 26> C 	 -107.856 	 56.4855 	 -92.831
| 27> C 	 -106.706 	 56.2285 	 -92.1205
| 28> H 	 -109.669 	 55.3862 	 -93.4535
| 29> C 	 -108.143 	 57.7563 	 -93.5962
| 30> H 	 -108.328 	 58.5483 	 -92.8045
| 31> H 	 -109.07 	 57.5271 	 -94.1259
| 32> C 	 -107.085 	 58.1154 	 -94.7366
| 33> H 	 -106.905 	 57.2334 	 -95.2639
| 34> H 	 -106.104 	 58.3384 	 -94.2728
| 35> C 	 -107.579 	 59.256 	 -95.5108
| 36> H 	 -108.445 	 59.145 	 -96.1419
| 37> H 	 -106.748 	 59.6202 	 -96.1661
| 38> H 	 -107.922 	 60.0663 	 -94.7732
| 39> H 	 -103.591 	 59.8559 	 -90.9421
| 40> H 	 -108.929 	 53.3141 	 -92.2303
| 41> *
| 42>
| 43>                          ****END OF INPUT****

CARTESIAN COORDINATES (ANGSTROEM)
---------------------------------
  S    -105.751000   58.603100  -90.868400
  C    -104.050000   58.908800  -91.120500
  C    -103.418000   57.791500  -91.563300
  C    -104.248000   56.799200  -91.969800
  C    -105.602000   57.085700  -91.738200
  H    -103.884000   55.846600  -92.348300
  C    -101.850000   57.718700  -91.685600
  H    -101.502000   58.347100  -92.383000
  H    -101.576000   56.802200  -92.189600
  C    -101.075000   57.788800  -90.349600
  H    -101.496000   58.550100  -89.823400
  H    -101.194000   56.896500  -89.769400
  C    -99.552000   57.947600  -90.440300
  H    -99.015100   58.041000  -89.457700
  H    -99.207900   57.063100  -90.871400
  H    -99.277700   58.792500  -91.014900
  S    -106.815000   54.578000  -91.481800
  C    -108.325000   54.264400  -92.245000
  C    -108.749000   55.412500  -92.879700
  C    -107.856000   56.485500  -92.831000
  C    -106.706000   56.228500  -92.120500
  H    -109.669000   55.386200  -93.453500
  C    -108.143000   57.756300  -93.596200
  H    -108.328000   58.548300  -92.804500
  H    -109.070000   57.527100  -94.125900
  C    -107.085000   58.115400  -94.736600
  H    -106.905000   57.233400  -95.263900
  H    -106.104000   58.338400  -94.272800
  C    -107.579000   59.256000  -95.510800
  H    -108.445000   59.145000  -96.141900
  H    -106.748000   59.620200  -96.166100
  H    -107.922000   60.066300  -94.773200
  H    -103.591000   59.855900  -90.942100
  H    -108.929000   53.314100  -92.230300

 Total Charge           Charge          ....    0
 Multiplicity           Mult            ....    1
 Number of Electrons    NEL             ....  134
 Basis Dimension        Dim             ....  322

ORBITAL ENERGIES
----------------

  NO   OCC          E(Eh)            E(eV)
   0   2.0000     -88.970923     -2421.0219
   1   2.0000     -88.962947     -2420.8049
   2   2.0000     -10.330172      -281.0983
   3   2.0000     -10.321335      -280.8578
   4   2.0000     -10.318851      -280.7902
   5   2.0000     -10.310017      -280.5498
   6   2.0000     -10.294684      -280.1326
   7   2.0000     -10.294352      -280.1236
   8   2.0000     -10.292178      -280.0644
   9   2.0000     -10.289863      -280.0014
  10   2.0000     -10.286652      -279.9140
  11   2.0000     -10.284705      -279.8611
  12   2.0000     -10.278835      -279.7013
  13   2.0000     -10.277295      -279.6594
  14   2.0000     -10.274765      -279.5906
  15   2.0000     -10.272435      -279.5272
  16   2.0000      -8.085245      -220.0107
  17   2.0000      -8.077738      -219.8064
  18   2.0000      -6.043582      -164.4542
  19   2.0000      -6.039867      -164.3531
  20   2.0000      -6.036166      -164.2524
  21   2.0000      -6.036156      -164.2522
  22   2.0000      -6.032097      -164.1417
  23   2.0000      -6.028710      -164.0495
  24   2.0000      -1.010489       -27.4968
  25   2.0000      -0.990910       -26.9640
  26   2.0000      -0.909683       -24.7537
  27   2.0000      -0.905730       -24.6462
  28   2.0000      -0.869879       -23.6706
  29   2.0000      -0.856492       -23.3063
  30   2.0000      -0.852686       -23.2028
  31   2.0000      -0.812035       -22.0966
  32   2.0000      -0.784617       -21.3505
  33   2.0000      -0.766182       -20.8489
  34   2.0000      -0.711215       -19.3531
  35   2.0000      -0.707338       -19.2476
  36   2.0000      -0.692613       -18.8470
  37   2.0000      -0.663173       -18.0459
  38   2.0000      -0.640084       -17.4176
  39   2.0000      -0.619041       -16.8450
  40   2.0000      -0.589289       -16.0354
  41   2.0000      -0.575138       -15.6503
  42   2.0000      -0.563332       -15.3291
  43   2.0000      -0.560722       -15.2580
  44   2.0000      -0.525313       -14.2945
  45   2.0000      -0.521351       -14.1867
  46   2.0000      -0.516284       -14.0488
  47   2.0000      -0.515760       -14.0345
  48   2.0000      -0.508177       -13.8282
  49   2.0000      -0.503115       -13.6905
  50   2.0000      -0.489819       -13.3286
  51   2.0000      -0.485283       -13.2052
  52   2.0000      -0.473870       -12.8946
  53   2.0000      -0.470395       -12.8001
  54   2.0000      -0.459543       -12.5048
  55   2.0000      -0.449579       -12.2337
  56   2.0000      -0.447506       -12.1772
  57   2.0000      -0.431675       -11.7465
  58   2.0000      -0.426782       -11.6133
  59   2.0000      -0.421513       -11.4700
  60   2.0000      -0.419905       -11.4262
  61   2.0000      -0.414938       -11.2910
  62   2.0000      -0.408339       -11.1115
  63   2.0000      -0.341457        -9.2915
  64   2.0000      -0.336169        -9.1476
  65   2.0000      -0.329549        -8.9675
  66   2.0000      -0.293727        -7.9927
  67   0.0000       0.024345         0.6625
  68   0.0000       0.069156         1.8818
  69   0.0000       0.108799         2.9606
  70   0.0000       0.126206         3.4342
  71   0.0000       0.139552         3.7974

MULLIKEN ATOMIC CHARGES
-----------------------
   0 S :    0.132078
   1 C :   -0.146938
   2 C :   -0.042451
   3 C :    0.012154
   4 C :   -0.166257
   5 H :    0.012616
   6 C :    0.122064
   7 H :   -0.004770
   8 H :   -0.006834
   9 C :   -0.035743
  10 H :    0.001229
  11 H :    0.023267
  12 C :   -0.034554
  13 H :    0.039794
  14 H :    0.016214
  15 H :    0.021157
  16 S :    0.109824
  17 C :   -0.110256
  18 C :   -0.049902
  19 C :   -0.037684
  20 C :   -0.162032
  21 H :    0.015549
  22 C :    0.034515
  23 H :    0.050223
  24 H :    0.010859
  25 C :   -0.030672
  26 H :    0.016375
  27 H :    0.043217
  28 C :   -0.055469
  29 H :    0.027109
  30 H :    0.040001
  31 H :    0.034767
  32 H :    0.042771
  33 H :    0.077780
Sum of atomic charges:    0.0000000

LOEWDIN ATOMIC CHARGES
----------------------
   0 S :    0.418612
   1 C :   -0.190467
   2 C :   -0.063913
   3 C :   -0.060590
   4 C :   -0.193703
   5 H :    0.034336
   6 C :   -0.015588
   7 H :    0.012629
   8 H :    0.026059
   9 C :   -0.028089
  10 H :    0.005684
  11 H :    0.025557
  12 C :   -0.057313
  13 H :    0.035152
  14 H :    0.016264
  15 H :    0.016427
  16 S :    0.412341
  17 C :   -0.201542
  18 C :   -0.083372
  19 C :   -0.064233
  20 C :   -0.202255
  21 H :    0.030231
  22 C :   -0.033199
  23 H :    0.036818
  24 H :    0.026444
  25 C :   -0.035404
  26 H :    0.017185
  27 H :    0.031694
  28 C :   -0.073352
  29 H :    0.019681
  30 H :    0.032153
  31 H :    0.035723
  32 H :    0.023635
  33 H :    0.046395

  Mayer bond orders larger than 0.100000
B(  0-S ,  1-C ) :   1.1551 B(  0-S ,  4-C ) :   1.1609 B(  1-C ,  2-C ) :   1.5606
B(  1-C ,  4-C ) :   0.1105 B(  1-C , 32-H ) :   0.9739 B(  2-C ,  3-C ) :   1.3222
B(  2-C ,  6-C ) :   1.0012 B(  3-C ,  4-C ) :   1.5023 B(  3-C ,  5-H ) :   0.9958
B(  4-C , 20-C ) :   1.0691 B(  6-C ,  7-H ) :   0.9389 B(  6-C ,  8-H ) :   0.9349
B(  6-C ,  9-C ) :   1.0511 B(  9-C , 10-H ) :   0.9629 B(  9-C , 11-H ) :   0.9566
B(  9-C , 12-C ) :   1.0823 B( 12-C , 13-H ) :   0.9739 B( 12-C , 14-H ) :   0.9775
B( 12-C , 15-H ) :   0.9769 B( 16-S , 17-C ) :   1.1771 B( 16-S , 20-C ) :   1.1352
B( 17-C , 18-C ) :   1.5742 B( 17-C , 20-C ) :   0.1026 B( 17-C , 33-H ) :   0.9589
B( 18-C , 19-C ) :   1.2874 B( 18-C , 21-H ) :   0.9867 B( 19-C , 20-C ) :   1.5530
B( 19-C , 22-C ) :   1.0410 B( 22-C , 23-H ) :   0.9224 B( 22-C , 24-H ) :   0.9393
B( 22-C , 25-C ) :   1.0582 B( 25-C , 26-H ) :   0.9529 B( 25-C , 27-H ) :   0.9490
B( 25-C , 28-C ) :   1.0952 B( 28-C , 29-H ) :   0.9741 B( 28-C , 30-H ) :   0.9701
B( 28-C , 31-H ) :   0.9680

Dispersion correction           -0.014347461
FINAL SINGLE POINT ENERGY     -1339.860613556623

DIPOLE MOMENT
-------------
                                X             Y             Z
Electronic contribution:    -15.03269     -10.46628       9.87437
Nuclear contribution   :     15.23552      10.55655     -10.21124
                        -----------------------------------------
Total Dipole Moment    :      0.20283       0.09027      -0.33687
                        -----------------------------------------
Magnitude (a.u.)       :      0.40345
Magnitude (Debye)      :      1.02548

Rotational constants in cm-1:     0.020816     0.007694     0.006371
Rotational constants in MHz :   624.051058   230.660222   191.003816

                             ****ORCA TERMINATED NORMALLY****
TOTAL RUN TIME: 0 days 0 hours 0 minutes 21 seconds 379 msec
