                         Program Version 4.2.1 -  RELEASE  -
|  1> ! wB97X-D3 SP def2-SVP
|  2> %pal
|  3> nprocs 24
|  4> end
|  5>
|  6> * xyz 0 1
|  7> S 	 15.9703 	 -11.3655 	 -127.926
|  8> C 	 14.6703 	 -12.4257 	 -128.185
|  9> C 	 14.5142 	 -13.3133 	 -127.124
| 10> C 	 15.439 	 -13.094 	 -126.065
| 11> C 	 16.2736 	 -12.0111 	 -126.371
| 12> H 	 15.5603 	 -13.4521 	 -125.08
| 13> C 	 13.351 	 -14.3041 	 -127.036
| 14> H 	 13.7771 	 -15.3184 	 -127.067
| 15> H 	 12.8877 	 -14.2522 	 -128.031
| 16> C 	 12.3863 	 -14.297 	 -125.865
| 17> H 	 11.7618 	 -15.2087 	 -125.916
| 18> H 	 12.8769 	 -14.3006 	 -124.95
| 19> C 	 11.4821 	 -13.0732 	 -125.837
| 20> H 	 10.7699 	 -12.9146 	 -126.608
| 21> H 	 10.9641 	 -13.0494 	 -124.85
| 22> H 	 12.0777 	 -12.1079 	 -125.843
| 23> S 	 18.9414 	 -11.3333 	 -126.187
| 24> C 	 19.5291 	 -10.6282 	 -124.766
| 25> C 	 18.6335 	 -10.6936 	 -123.745
| 26> C 	 17.3633 	 -11.1018 	 -124.19
| 27> C 	 17.3337 	 -11.467 	 -125.531
| 28> H 	 19.0803 	 -10.4018 	 -122.785
| 29> C 	 16.2229 	 -11.1656 	 -123.23
| 30> H 	 15.4198 	 -11.7238 	 -123.625
| 31> H 	 15.9619 	 -10.097 	 -123.145
| 32> C 	 16.5083 	 -11.688 	 -121.787
| 33> H 	 15.7379 	 -11.2011 	 -121.181
| 34> H 	 17.4429 	 -11.2746 	 -121.407
| 35> C 	 16.5602 	 -13.1601 	 -121.503
| 36> H 	 17.2323 	 -13.7488 	 -122.21
| 37> H 	 15.5723 	 -13.6703 	 -121.517
| 38> H 	 16.8399 	 -13.3189 	 -120.509
| 39> H 	 14.2553 	 -12.6409 	 -129.192
| 40> H 	 20.4854 	 -10.2991 	 -124.606
| 41> *
| 42>
| 43>                          ****END OF INPUT****

CARTESIAN COORDINATES (ANGSTROEM)
---------------------------------
  S     15.970300  -11.365500  -127.926000
  C     14.670300  -12.425700  -128.185000
  C     14.514200  -13.313300  -127.124000
  C     15.439000  -13.094000  -126.065000
  C     16.273600  -12.011100  -126.371000
  H     15.560300  -13.452100  -125.080000
  C     13.351000  -14.304100  -127.036000
  H     13.777100  -15.318400  -127.067000
  H     12.887700  -14.252200  -128.031000
  C     12.386300  -14.297000  -125.865000
  H     11.761800  -15.208700  -125.916000
  H     12.876900  -14.300600  -124.950000
  C     11.482100  -13.073200  -125.837000
  H     10.769900  -12.914600  -126.608000
  H     10.964100  -13.049400  -124.850000
  H     12.077700  -12.107900  -125.843000
  S     18.941400  -11.333300  -126.187000
  C     19.529100  -10.628200  -124.766000
  C     18.633500  -10.693600  -123.745000
  C     17.363300  -11.101800  -124.190000
  C     17.333700  -11.467000  -125.531000
  H     19.080300  -10.401800  -122.785000
  C     16.222900  -11.165600  -123.230000
  H     15.419800  -11.723800  -123.625000
  H     15.961900  -10.097000  -123.145000
  C     16.508300  -11.688000  -121.787000
  H     15.737900  -11.201100  -121.181000
  H     17.442900  -11.274600  -121.407000
  C     16.560200  -13.160100  -121.503000
  H     17.232300  -13.748800  -122.210000
  H     15.572300  -13.670300  -121.517000
  H     16.839900  -13.318900  -120.509000
  H     14.255300  -12.640900  -129.192000
  H     20.485400  -10.299100  -124.606000

 Total Charge           Charge          ....    0
 Multiplicity           Mult            ....    1
 Number of Electrons    NEL             ....  134
 Basis Dimension        Dim             ....  322

ORBITAL ENERGIES
----------------

  NO   OCC          E(Eh)            E(eV)
   0   2.0000     -88.966319     -2420.8966
   1   2.0000     -88.961760     -2420.7726
   2   2.0000     -10.325384      -280.9680
   3   2.0000     -10.320991      -280.8484
   4   2.0000     -10.310559      -280.5646
   5   2.0000     -10.302990      -280.3586
   6   2.0000     -10.302926      -280.3569
   7   2.0000     -10.300068      -280.2791
   8   2.0000     -10.291496      -280.0458
   9   2.0000     -10.289769      -279.9989
  10   2.0000     -10.288050      -279.9521
  11   2.0000     -10.287328      -279.9324
  12   2.0000     -10.287278      -279.9311
  13   2.0000     -10.284570      -279.8574
  14   2.0000     -10.279680      -279.7243
  15   2.0000     -10.274599      -279.5860
  16   2.0000      -8.082608      -219.9389
  17   2.0000      -8.077959      -219.8124
  18   2.0000      -6.040773      -164.3778
  19   2.0000      -6.036760      -164.2686
  20   2.0000      -6.036271      -164.2553
  21   2.0000      -6.033772      -164.1873
  22   2.0000      -6.032271      -164.1464
  23   2.0000      -6.028838      -164.0530
  24   2.0000      -1.015536       -27.6341
  25   2.0000      -0.994565       -27.0635
  26   2.0000      -0.912254       -24.8237
  27   2.0000      -0.911246       -24.7963
  28   2.0000      -0.873144       -23.7595
  29   2.0000      -0.856821       -23.3153
  30   2.0000      -0.849483       -23.1156
  31   2.0000      -0.818306       -22.2672
  32   2.0000      -0.786791       -21.4097
  33   2.0000      -0.774330       -21.0706
  34   2.0000      -0.712714       -19.3939
  35   2.0000      -0.701094       -19.0777
  36   2.0000      -0.692696       -18.8492
  37   2.0000      -0.655374       -17.8336
  38   2.0000      -0.644301       -17.5323
  39   2.0000      -0.620737       -16.8911
  40   2.0000      -0.601736       -16.3741
  41   2.0000      -0.572414       -15.5762
  42   2.0000      -0.559148       -15.2152
  43   2.0000      -0.546559       -14.8726
  44   2.0000      -0.539207       -14.6726
  45   2.0000      -0.531596       -14.4655
  46   2.0000      -0.527397       -14.3512
  47   2.0000      -0.516091       -14.0435
  48   2.0000      -0.505476       -13.7547
  49   2.0000      -0.500581       -13.6215
  50   2.0000      -0.493285       -13.4230
  51   2.0000      -0.483250       -13.1499
  52   2.0000      -0.471896       -12.8409
  53   2.0000      -0.461741       -12.5646
  54   2.0000      -0.460761       -12.5380
  55   2.0000      -0.448610       -12.2073
  56   2.0000      -0.444717       -12.1014
  57   2.0000      -0.440759       -11.9937
  58   2.0000      -0.433976       -11.8091
  59   2.0000      -0.424295       -11.5456
  60   2.0000      -0.419723       -11.4212
  61   2.0000      -0.415035       -11.2937
  62   2.0000      -0.410998       -11.1838
  63   2.0000      -0.344280        -9.3683
  64   2.0000      -0.329888        -8.9767
  65   2.0000      -0.328849        -8.9484
  66   2.0000      -0.293075        -7.9750
  67   0.0000       0.032951         0.8966
  68   0.0000       0.076929         2.0933
  69   0.0000       0.117641         3.2012
  70   0.0000       0.123031         3.3479
  71   0.0000       0.131229         3.5709

MULLIKEN ATOMIC CHARGES
-----------------------
   0 S :    0.135215
   1 C :   -0.124979
   2 C :   -0.110854
   3 C :    0.064079
   4 C :   -0.199269
   5 H :   -0.006631
   6 C :    0.073925
   7 H :    0.027713
   8 H :    0.005330
   9 C :   -0.014165
  10 H :    0.033781
  11 H :    0.014243
  12 C :   -0.081361
  13 H :    0.026171
  14 H :    0.030864
  15 H :    0.039071
  16 S :    0.117242
  17 C :   -0.052235
  18 C :   -0.073109
  19 C :   -0.023585
  20 C :   -0.158896
  21 H :    0.026157
  22 C :    0.104315
  23 H :    0.001059
  24 H :    0.041756
  25 C :   -0.082718
  26 H :    0.025715
  27 H :    0.021367
  28 C :   -0.035362
  29 H :    0.047519
  30 H :    0.023182
  31 H :    0.020633
  32 H :    0.068048
  33 H :    0.015776
Sum of atomic charges:    0.0000000

LOEWDIN ATOMIC CHARGES
----------------------
   0 S :    0.452877
   1 C :   -0.232977
   2 C :   -0.061507
   3 C :   -0.060149
   4 C :   -0.203678
   5 H :    0.025200
   6 C :   -0.037271
   7 H :    0.033649
   8 H :    0.028253
   9 C :   -0.035520
  10 H :    0.032554
  11 H :    0.017758
  12 C :   -0.072418
  13 H :    0.016471
  14 H :    0.028205
  15 H :    0.032917
  16 S :    0.430471
  17 C :   -0.183462
  18 C :   -0.080867
  19 C :   -0.057432
  20 C :   -0.215503
  21 H :    0.038257
  22 C :   -0.026870
  23 H :    0.018922
  24 H :    0.044765
  25 C :   -0.041709
  26 H :    0.028429
  27 H :    0.021346
  28 C :   -0.070509
  29 H :    0.034363
  30 H :    0.025476
  31 H :    0.020989
  32 H :    0.037372
  33 H :    0.011597

  Mayer bond orders larger than 0.100000
B(  0-S ,  1-C ) :   1.1583 B(  0-S ,  4-C ) :   1.1968 B(  1-C ,  2-C ) :   1.5880
B(  1-C ,  4-C ) :   0.1005 B(  1-C , 32-H ) :   0.9551 B(  2-C ,  3-C ) :   1.2444
B(  2-C ,  6-C ) :   1.0243 B(  3-C ,  4-C ) :   1.5386 B(  3-C ,  5-H ) :   1.0014
B(  4-C , 20-C ) :   1.0275 B(  6-C ,  7-H ) :   0.9307 B(  6-C ,  8-H ) :   0.9394
B(  6-C ,  9-C ) :   1.0774 B(  9-C , 10-H ) :   0.9500 B(  9-C , 11-H ) :   0.9517
B(  9-C , 12-C ) :   1.0773 B( 12-C , 13-H ) :   0.9784 B( 12-C , 14-H ) :   0.9748
B( 12-C , 15-H ) :   0.9743 B( 16-S , 17-C ) :   1.1791 B( 16-S , 20-C ) :   1.1500
B( 17-C , 18-C ) :   1.6135 B( 17-C , 33-H ) :   0.9709 B( 18-C , 19-C ) :   1.2294
B( 18-C , 21-H ) :   0.9923 B( 19-C , 20-C ) :   1.5752 B( 19-C , 22-C ) :   1.0465
B( 22-C , 23-H ) :   0.9351 B( 22-C , 24-H ) :   0.9200 B( 22-C , 25-C ) :   1.0742
B( 25-C , 26-H ) :   0.9505 B( 25-C , 27-H ) :   0.9532 B( 25-C , 28-C ) :   1.0877
B( 28-C , 29-H ) :   0.9731 B( 28-C , 30-H ) :   0.9698 B( 28-C , 31-H ) :   0.9682

Dispersion correction           -0.014427213
FINAL SINGLE POINT ENERGY     -1339.873124003093

DIPOLE MOMENT
-------------
                                X             Y             Z
Electronic contribution:     19.95461      10.35512     -19.38375
Nuclear contribution   :    -20.14126     -10.56963      19.96860
                        -----------------------------------------
Total Dipole Moment    :     -0.18665      -0.21452       0.58485
                        -----------------------------------------
Magnitude (a.u.)       :      0.65032
Magnitude (Debye)      :      1.65297

Rotational constants in cm-1:     0.017943     0.009732     0.006857
Rotational constants in MHz :   537.929326   291.753742   205.559284

                             ****ORCA TERMINATED NORMALLY****
TOTAL RUN TIME: 0 days 0 hours 0 minutes 22 seconds 130 msec
