                         Program Version 4.2.1 -  RELEASE  -
|  1> ! wB97X-D3 SP def2-SVP
|  2> %pal
|  3> nprocs 24
|  4> end
|  5>
|  6> * xyz 0 1
|  7> S 	 -34.215 	 7.32348 	 14.8593
|  8> C 	 -34.4974 	 8.62311 	 13.7238
|  9> C 	 -34.4293 	 9.87228 	 14.1926
| 10> C 	 -34.3287 	 9.79575 	 15.6134
| 11> C 	 -34.4125 	 8.46329 	 16.1142
| 12> H 	 -34.3388 	 10.7079 	 16.2138
| 13> C 	 -34.6975 	 11.1055 	 13.3664
| 14> H 	 -35.5979 	 11.5862 	 13.7377
| 15> H 	 -34.8484 	 10.9138 	 12.3173
| 16> C 	 -33.5712 	 12.2001 	 13.4123
| 17> H 	 -33.9207 	 13.0176 	 12.7544
| 18> H 	 -33.4103 	 12.6988 	 14.3702
| 19> C 	 -32.1786 	 11.6345 	 12.9778
| 20> H 	 -32.2712 	 11.1795 	 11.9994
| 21> H 	 -31.4996 	 12.5125 	 12.8247
| 22> H 	 -31.6301 	 10.9557 	 13.6445
| 23> S 	 -33.5774 	 6.60076 	 17.9841
| 24> C 	 -34.1517 	 6.75114 	 19.6198
| 25> C 	 -34.9105 	 7.84459 	 19.7609
| 26> C 	 -35.0744 	 8.67844 	 18.6111
| 27> C 	 -34.4524 	 8.07647 	 17.508
| 28> H 	 -35.3701 	 7.81668 	 20.72
| 29> C 	 -35.9961 	 9.91052 	 18.6098
| 30> H 	 -36.9182 	 9.69138 	 19.1791
| 31> H 	 -36.4173 	 10.0223 	 17.648
| 32> C 	 -35.4055 	 11.2762 	 19.066
| 33> H 	 -34.5348 	 11.5035 	 18.4884
| 34> H 	 -35.0404 	 11.2367 	 20.0986
| 35> C 	 -36.4987 	 12.2846 	 19.0344
| 36> H 	 -37.1707 	 12.2127 	 19.8034
| 37> H 	 -37.0472 	 12.3093 	 18.1242
| 38> H 	 -35.9937 	 13.275 	 19.0199
| 39> H 	 -34.7669 	 8.42302 	 12.6868
| 40> H 	 -34.1328 	 6.11607 	 20.4618
| 41> *
| 42>
| 43>                          ****END OF INPUT****

CARTESIAN COORDINATES (ANGSTROEM)
---------------------------------
  S    -34.215000    7.323480   14.859300
  C    -34.497400    8.623110   13.723800
  C    -34.429300    9.872280   14.192600
  C    -34.328700    9.795750   15.613400
  C    -34.412500    8.463290   16.114200
  H    -34.338800   10.707900   16.213800
  C    -34.697500   11.105500   13.366400
  H    -35.597900   11.586200   13.737700
  H    -34.848400   10.913800   12.317300
  C    -33.571200   12.200100   13.412300
  H    -33.920700   13.017600   12.754400
  H    -33.410300   12.698800   14.370200
  C    -32.178600   11.634500   12.977800
  H    -32.271200   11.179500   11.999400
  H    -31.499600   12.512500   12.824700
  H    -31.630100   10.955700   13.644500
  S    -33.577400    6.600760   17.984100
  C    -34.151700    6.751140   19.619800
  C    -34.910500    7.844590   19.760900
  C    -35.074400    8.678440   18.611100
  C    -34.452400    8.076470   17.508000
  H    -35.370100    7.816680   20.720000
  C    -35.996100    9.910520   18.609800
  H    -36.918200    9.691380   19.179100
  H    -36.417300   10.022300   17.648000
  C    -35.405500   11.276200   19.066000
  H    -34.534800   11.503500   18.488400
  H    -35.040400   11.236700   20.098600
  C    -36.498700   12.284600   19.034400
  H    -37.170700   12.212700   19.803400
  H    -37.047200   12.309300   18.124200
  H    -35.993700   13.275000   19.019900
  H    -34.766900    8.423020   12.686800
  H    -34.132800    6.116070   20.461800

 Total Charge           Charge          ....    0
 Multiplicity           Mult            ....    1
 Number of Electrons    NEL             ....  134
 Basis Dimension        Dim             ....  322

ORBITAL ENERGIES
----------------

  NO   OCC          E(Eh)            E(eV)
   0   2.0000     -88.967685     -2420.9338
   1   2.0000     -88.963707     -2420.8255
   2   2.0000     -10.330528      -281.1080
   3   2.0000     -10.329864      -281.0899
   4   2.0000     -10.306417      -280.4519
   5   2.0000     -10.305405      -280.4243
   6   2.0000     -10.304307      -280.3945
   7   2.0000     -10.298047      -280.2241
   8   2.0000     -10.296914      -280.1933
   9   2.0000     -10.295831      -280.1638
  10   2.0000     -10.295358      -280.1509
  11   2.0000     -10.290007      -280.0053
  12   2.0000     -10.283978      -279.8413
  13   2.0000     -10.282118      -279.7906
  14   2.0000     -10.280181      -279.7379
  15   2.0000     -10.268674      -279.4248
  16   2.0000      -8.083522      -219.9638
  17   2.0000      -8.078205      -219.8191
  18   2.0000      -6.041921      -164.4090
  19   2.0000      -6.038187      -164.3074
  20   2.0000      -6.036870      -164.2716
  21   2.0000      -6.034024      -164.1941
  22   2.0000      -6.032844      -164.1620
  23   2.0000      -6.028736      -164.0502
  24   2.0000      -1.010910       -27.5083
  25   2.0000      -0.986901       -26.8549
  26   2.0000      -0.912467       -24.8295
  27   2.0000      -0.911406       -24.8006
  28   2.0000      -0.871396       -23.7119
  29   2.0000      -0.854931       -23.2639
  30   2.0000      -0.844131       -22.9700
  31   2.0000      -0.813370       -22.1329
  32   2.0000      -0.786798       -21.4099
  33   2.0000      -0.774683       -21.0802
  34   2.0000      -0.714977       -19.4555
  35   2.0000      -0.704453       -19.1691
  36   2.0000      -0.694635       -18.9020
  37   2.0000      -0.655285       -17.8312
  38   2.0000      -0.631342       -17.1797
  39   2.0000      -0.626382       -17.0447
  40   2.0000      -0.594777       -16.1847
  41   2.0000      -0.571376       -15.5479
  42   2.0000      -0.567363       -15.4387
  43   2.0000      -0.553860       -15.0713
  44   2.0000      -0.537081       -14.6147
  45   2.0000      -0.524535       -14.2733
  46   2.0000      -0.515023       -14.0145
  47   2.0000      -0.511435       -13.9169
  48   2.0000      -0.508306       -13.8317
  49   2.0000      -0.496404       -13.5078
  50   2.0000      -0.491553       -13.3758
  51   2.0000      -0.482717       -13.1354
  52   2.0000      -0.468287       -12.7427
  53   2.0000      -0.463342       -12.6082
  54   2.0000      -0.462924       -12.5968
  55   2.0000      -0.451111       -12.2753
  56   2.0000      -0.449157       -12.2222
  57   2.0000      -0.437594       -11.9075
  58   2.0000      -0.432717       -11.7748
  59   2.0000      -0.427461       -11.6318
  60   2.0000      -0.419802       -11.4234
  61   2.0000      -0.419212       -11.4073
  62   2.0000      -0.413272       -11.2457
  63   2.0000      -0.355890        -9.6842
  64   2.0000      -0.334160        -9.0930
  65   2.0000      -0.329799        -8.9743
  66   2.0000      -0.281638        -7.6638
  67   0.0000       0.021723         0.5911
  68   0.0000       0.079838         2.1725
  69   0.0000       0.105080         2.8594
  70   0.0000       0.123445         3.3591
  71   0.0000       0.131170         3.5693

MULLIKEN ATOMIC CHARGES
-----------------------
   0 S :    0.119056
   1 C :   -0.137552
   2 C :   -0.037354
   3 C :    0.007851
   4 C :   -0.138607
   5 H :    0.000536
   6 C :    0.077351
   7 H :    0.035589
   8 H :    0.020180
   9 C :   -0.102760
  10 H :    0.034892
  11 H :    0.032791
  12 C :   -0.072598
  13 H :    0.025215
  14 H :    0.033314
  15 H :    0.055938
  16 S :    0.089573
  17 C :   -0.062412
  18 C :   -0.044399
  19 C :    0.001791
  20 C :   -0.135180
  21 H :    0.002127
  22 C :    0.032087
  23 H :    0.022106
  24 H :    0.007083
  25 C :   -0.049437
  26 H :    0.024306
  27 H :    0.025934
  28 C :    0.005884
  29 H :    0.019417
  30 H :    0.010582
  31 H :    0.027539
  32 H :    0.038042
  33 H :    0.031115
Sum of atomic charges:    0.0000000

LOEWDIN ATOMIC CHARGES
----------------------
   0 S :    0.418086
   1 C :   -0.188528
   2 C :   -0.067516
   3 C :   -0.057579
   4 C :   -0.201847
   5 H :    0.027217
   6 C :   -0.024358
   7 H :    0.033358
   8 H :    0.029166
   9 C :   -0.042059
  10 H :    0.028417
  11 H :    0.020716
  12 C :   -0.073271
  13 H :    0.020980
  14 H :    0.030473
  15 H :    0.031032
  16 S :    0.381325
  17 C :   -0.188100
  18 C :   -0.071316
  19 C :   -0.055860
  20 C :   -0.178704
  21 H :    0.029185
  22 C :   -0.031801
  23 H :    0.033558
  24 H :    0.021330
  25 C :   -0.034154
  26 H :    0.017812
  27 H :    0.027756
  28 C :   -0.054745
  29 H :    0.014843
  30 H :    0.019489
  31 H :    0.034149
  32 H :    0.023793
  33 H :    0.027150

  Mayer bond orders larger than 0.100000
B(  0-S ,  1-C ) :   1.1295 B(  0-S ,  4-C ) :   1.1571 B(  1-C ,  2-C ) :   1.6401
B(  1-C , 32-H ) :   0.9590 B(  2-C ,  3-C ) :   1.2359 B(  2-C ,  6-C ) :   1.0266
B(  3-C ,  4-C ) :   1.5272 B(  3-C ,  5-H ) :   0.9938 B(  4-C , 20-C ) :   1.0911
B(  6-C ,  7-H ) :   0.9384 B(  6-C ,  8-H ) :   0.9438 B(  6-C ,  9-C ) :   1.0676
B(  9-C , 10-H ) :   0.9587 B(  9-C , 11-H ) :   0.9589 B(  9-C , 12-C ) :   1.0662
B( 12-C , 13-H ) :   0.9779 B( 12-C , 14-H ) :   0.9746 B( 12-C , 15-H ) :   0.9749
B( 16-S , 17-C ) :   1.1148 B( 16-S , 20-C ) :   1.1261 B( 17-C , 18-C ) :   1.6925
B( 17-C , 33-H ) :   0.9642 B( 18-C , 19-C ) :   1.1942 B( 18-C , 21-H ) :   0.9906
B( 19-C , 20-C ) :   1.6006 B( 19-C , 22-C ) :   1.0354 B( 22-C , 23-H ) :   0.9424
B( 22-C , 24-H ) :   0.9309 B( 22-C , 25-C ) :   1.0596 B( 25-C , 26-H ) :   0.9556
B( 25-C , 27-H ) :   0.9493 B( 25-C , 28-C ) :   1.0856 B( 28-C , 29-H ) :   0.9749
B( 28-C , 30-H ) :   0.9704 B( 28-C , 31-H ) :   0.9693

Dispersion correction           -0.014135429
FINAL SINGLE POINT ENERGY     -1339.864723912553

DIPOLE MOMENT
-------------
                                X             Y             Z
Electronic contribution:      4.34170     -29.47103       2.69312
Nuclear contribution   :     -4.74430      30.16095      -2.68190
                        -----------------------------------------
Total Dipole Moment    :     -0.40260       0.68992       0.01122
                        -----------------------------------------
Magnitude (a.u.)       :      0.79887
Magnitude (Debye)      :      2.03058

Rotational constants in cm-1:     0.016972     0.009569     0.006751
Rotational constants in MHz :   508.816258   286.862001   202.401498

                             ****ORCA TERMINATED NORMALLY****
TOTAL RUN TIME: 0 days 0 hours 0 minutes 23 seconds 42 msec
