                         Program Version 4.2.1 -  RELEASE  -
|  1> ! wB97X-D3 SP def2-SVP
|  2> %pal
|  3> nprocs 24
|  4> end
|  5>
|  6> * xyz 0 1
|  7> S 	 -47.3743 	 3.00375 	 -21.3298
|  8> C 	 -46.222 	 2.83902 	 -22.6125
|  9> C 	 -46.6182 	 1.8169 	 -23.503
| 10> C 	 -47.8234 	 1.16245 	 -23.0947
| 11> C 	 -48.42 	 1.7539 	 -21.9634
| 12> H 	 -48.3844 	 0.467139 	 -23.6488
| 13> C 	 -45.909 	 1.4118 	 -24.7497
| 14> H 	 -44.8677 	 1.81221 	 -24.6101
| 15> H 	 -46.3446 	 1.87 	 -25.6097
| 16> C 	 -45.7855 	 -0.152583 	 -24.904
| 17> H 	 -45.2054 	 -0.734637 	 -24.211
| 18> H 	 -46.7638 	 -0.586634 	 -24.8312
| 19> C 	 -45.0961 	 -0.411763 	 -26.2134
| 20> H 	 -44.1679 	 0.129829 	 -26.3682
| 21> H 	 -44.8731 	 -1.50214 	 -26.2619
| 22> H 	 -45.8988 	 -0.0868157 	 -26.9614
| 23> S 	 -50.9081 	 2.93515 	 -22.2344
| 24> C 	 -52.3023 	 1.96353 	 -21.9511
| 25> C 	 -52.0186 	 0.79435 	 -21.2468
| 26> C 	 -50.5787 	 0.6028 	 -21.1011
| 27> C 	 -49.8067 	 1.64283 	 -21.5965
| 28> H 	 -52.7737 	 0.0540571 	 -20.9751
| 29> C 	 -49.9384 	 -0.505757 	 -20.2757
| 30> H 	 -48.877 	 -0.793712 	 -20.564
| 31> H 	 -50.5494 	 -1.34874 	 -20.609
| 32> C 	 -50.008 	 -0.341066 	 -18.7471
| 33> H 	 -49.8718 	 -1.21528 	 -18.1774
| 34> H 	 -51.0077 	 -0.0811481 	 -18.5756
| 35> C 	 -49.051 	 0.77822 	 -18.2797
| 36> H 	 -49.181 	 1.13009 	 -17.2506
| 37> H 	 -49.2646 	 1.59754 	 -18.9208
| 38> H 	 -47.9828 	 0.481386 	 -18.3854
| 39> H 	 -45.4052 	 3.50238 	 -22.761
| 40> H 	 -53.3224 	 2.16894 	 -22.1751
| 41> *
| 42>
| 43>                          ****END OF INPUT****

CARTESIAN COORDINATES (ANGSTROEM)
---------------------------------
  S    -47.374300    3.003750  -21.329800
  C    -46.222000    2.839020  -22.612500
  C    -46.618200    1.816900  -23.503000
  C    -47.823400    1.162450  -23.094700
  C    -48.420000    1.753900  -21.963400
  H    -48.384400    0.467139  -23.648800
  C    -45.909000    1.411800  -24.749700
  H    -44.867700    1.812210  -24.610100
  H    -46.344600    1.870000  -25.609700
  C    -45.785500   -0.152583  -24.904000
  H    -45.205400   -0.734637  -24.211000
  H    -46.763800   -0.586634  -24.831200
  C    -45.096100   -0.411763  -26.213400
  H    -44.167900    0.129829  -26.368200
  H    -44.873100   -1.502140  -26.261900
  H    -45.898800   -0.086816  -26.961400
  S    -50.908100    2.935150  -22.234400
  C    -52.302300    1.963530  -21.951100
  C    -52.018600    0.794350  -21.246800
  C    -50.578700    0.602800  -21.101100
  C    -49.806700    1.642830  -21.596500
  H    -52.773700    0.054057  -20.975100
  C    -49.938400   -0.505757  -20.275700
  H    -48.877000   -0.793712  -20.564000
  H    -50.549400   -1.348740  -20.609000
  C    -50.008000   -0.341066  -18.747100
  H    -49.871800   -1.215280  -18.177400
  H    -51.007700   -0.081148  -18.575600
  C    -49.051000    0.778220  -18.279700
  H    -49.181000    1.130090  -17.250600
  H    -49.264600    1.597540  -18.920800
  H    -47.982800    0.481386  -18.385400
  H    -45.405200    3.502380  -22.761000
  H    -53.322400    2.168940  -22.175100

 Total Charge           Charge          ....    0
 Multiplicity           Mult            ....    1
 Number of Electrons    NEL             ....  134
 Basis Dimension        Dim             ....  322

ORBITAL ENERGIES
----------------

  NO   OCC          E(Eh)            E(eV)
   0   2.0000     -88.966536     -2420.9025
   1   2.0000     -88.964306     -2420.8419
   2   2.0000     -10.328759      -281.0598
   3   2.0000     -10.327780      -281.0332
   4   2.0000     -10.319837      -280.8170
   5   2.0000     -10.314094      -280.6608
   6   2.0000     -10.308731      -280.5148
   7   2.0000     -10.302064      -280.3334
   8   2.0000     -10.300204      -280.2828
   9   2.0000     -10.294547      -280.1289
  10   2.0000     -10.293253      -280.0937
  11   2.0000     -10.292903      -280.0841
  12   2.0000     -10.283245      -279.8213
  13   2.0000     -10.282159      -279.7918
  14   2.0000     -10.275691      -279.6158
  15   2.0000     -10.268577      -279.4222
  16   2.0000      -8.081261      -219.9023
  17   2.0000      -8.078788      -219.8350
  18   2.0000      -6.039635      -164.3468
  19   2.0000      -6.037386      -164.2856
  20   2.0000      -6.035538      -164.2353
  21   2.0000      -6.033299      -164.1744
  22   2.0000      -6.032410      -164.1502
  23   2.0000      -6.029468      -164.0702
  24   2.0000      -1.002765       -27.2866
  25   2.0000      -0.979873       -26.6637
  26   2.0000      -0.914447       -24.8834
  27   2.0000      -0.906587       -24.6695
  28   2.0000      -0.871093       -23.7036
  29   2.0000      -0.851683       -23.1755
  30   2.0000      -0.842740       -22.9321
  31   2.0000      -0.811977       -22.0950
  32   2.0000      -0.777967       -21.1696
  33   2.0000      -0.764744       -20.8098
  34   2.0000      -0.711077       -19.3494
  35   2.0000      -0.699206       -19.0264
  36   2.0000      -0.692403       -18.8413
  37   2.0000      -0.658096       -17.9077
  38   2.0000      -0.648196       -17.6383
  39   2.0000      -0.616855       -16.7855
  40   2.0000      -0.592300       -16.1173
  41   2.0000      -0.575807       -15.6685
  42   2.0000      -0.562395       -15.3035
  43   2.0000      -0.555839       -15.1251
  44   2.0000      -0.540784       -14.7155
  45   2.0000      -0.530264       -14.4292
  46   2.0000      -0.514637       -14.0040
  47   2.0000      -0.507503       -13.8099
  48   2.0000      -0.505468       -13.7545
  49   2.0000      -0.497433       -13.5358
  50   2.0000      -0.482773       -13.1369
  51   2.0000      -0.477059       -12.9814
  52   2.0000      -0.476428       -12.9643
  53   2.0000      -0.461902       -12.5690
  54   2.0000      -0.457088       -12.4380
  55   2.0000      -0.447564       -12.1788
  56   2.0000      -0.443833       -12.0773
  57   2.0000      -0.437281       -11.8990
  58   2.0000      -0.434726       -11.8295
  59   2.0000      -0.424670       -11.5558
  60   2.0000      -0.418225       -11.3805
  61   2.0000      -0.409325       -11.1383
  62   2.0000      -0.402798       -10.9607
  63   2.0000      -0.339557        -9.2398
  64   2.0000      -0.328958        -8.9514
  65   2.0000      -0.322569        -8.7776
  66   2.0000      -0.298353        -8.1186
  67   0.0000       0.034112         0.9282
  68   0.0000       0.050513         1.3745
  69   0.0000       0.117600         3.2001
  70   0.0000       0.119446         3.2503
  71   0.0000       0.128292         3.4910

MULLIKEN ATOMIC CHARGES
-----------------------
   0 S :    0.113305
   1 C :   -0.103580
   2 C :   -0.095910
   3 C :    0.066018
   4 C :   -0.172316
   5 H :    0.002385
   6 C :    0.058260
   7 H :    0.027705
   8 H :    0.041446
   9 C :   -0.082978
  10 H :    0.025292
  11 H :    0.027756
  12 C :   -0.063894
  13 H :    0.037951
  14 H :    0.037931
  15 H :    0.036487
  16 S :    0.109349
  17 C :   -0.067744
  18 C :   -0.043394
  19 C :   -0.058689
  20 C :   -0.150603
  21 H :    0.029062
  22 C :    0.011685
  23 H :    0.041414
  24 H :    0.018434
  25 C :    0.011549
  26 H :    0.019222
  27 H :   -0.000046
  28 C :   -0.054943
  29 H :    0.033405
  30 H :    0.022110
  31 H :    0.035545
  32 H :    0.039533
  33 H :    0.048252
Sum of atomic charges:   -0.0000000

LOEWDIN ATOMIC CHARGES
----------------------
   0 S :    0.422897
   1 C :   -0.203944
   2 C :   -0.062724
   3 C :   -0.048058
   4 C :   -0.205153
   5 H :    0.023567
   6 C :   -0.028416
   7 H :    0.036515
   8 H :    0.030696
   9 C :   -0.040421
  10 H :    0.023458
  11 H :    0.018781
  12 C :   -0.067566
  13 H :    0.023348
  14 H :    0.028066
  15 H :    0.031918
  16 S :    0.392356
  17 C :   -0.180892
  18 C :   -0.079668
  19 C :   -0.049111
  20 C :   -0.190508
  21 H :    0.034058
  22 C :   -0.035068
  23 H :    0.035723
  24 H :    0.028139
  25 C :   -0.029735
  26 H :    0.017967
  27 H :    0.015898
  28 C :   -0.064005
  29 H :    0.025519
  30 H :    0.017879
  31 H :    0.028410
  32 H :    0.022512
  33 H :    0.027560

  Mayer bond orders larger than 0.100000
B(  0-S ,  1-C ) :   1.1517 B(  0-S ,  4-C ) :   1.1663 B(  1-C ,  2-C ) :   1.5764
B(  1-C , 32-H ) :   0.9748 B(  2-C ,  3-C ) :   1.2633 B(  2-C ,  6-C ) :   1.0238
B(  3-C ,  4-C ) :   1.5454 B(  3-C ,  5-H ) :   0.9960 B(  4-C , 20-C ) :   1.0405
B(  6-C ,  7-H ) :   0.9449 B(  6-C ,  8-H ) :   0.9385 B(  6-C ,  9-C ) :   1.0536
B(  9-C , 10-H ) :   0.9598 B(  9-C , 11-H ) :   0.9543 B(  9-C , 12-C ) :   1.0825
B( 12-C , 13-H ) :   0.9738 B( 12-C , 14-H ) :   0.9745 B( 12-C , 15-H ) :   0.9773
B( 16-S , 17-C ) :   1.1698 B( 16-S , 20-C ) :   1.0976 B( 17-C , 18-C ) :   1.6146
B( 17-C , 33-H ) :   0.9662 B( 18-C , 19-C ) :   1.2232 B( 18-C , 21-H ) :   0.9845
B( 19-C , 20-C ) :   1.6228 B( 19-C , 22-C ) :   1.0419 B( 22-C , 23-H ) :   0.9450
B( 22-C , 24-H ) :   0.9279 B( 22-C , 25-C ) :   1.0686 B( 25-C , 26-H ) :   0.9563
B( 25-C , 27-H ) :   0.9488 B( 25-C , 28-C ) :   1.0697 B( 28-C , 29-H ) :   0.9739
B( 28-C , 30-H ) :   0.9763 B( 28-C , 31-H ) :   0.9765

Dispersion correction           -0.014731893
FINAL SINGLE POINT ENERGY     -1339.864800968234

DIPOLE MOMENT
-------------
                                X             Y             Z
Electronic contribution:    -10.47427      17.31978       3.11502
Nuclear contribution   :     10.45530     -17.77253      -3.40642
                        -----------------------------------------
Total Dipole Moment    :     -0.01897      -0.45275      -0.29140
                        -----------------------------------------
Magnitude (a.u.)       :      0.53876
Magnitude (Debye)      :      1.36941

Rotational constants in cm-1:     0.019833     0.007788     0.007550
Rotational constants in MHz :   594.591682   233.469807   226.329099

                             ****ORCA TERMINATED NORMALLY****
TOTAL RUN TIME: 0 days 0 hours 0 minutes 21 seconds 742 msec
