                         Program Version 4.2.1 -  RELEASE  -
|  1> ! wB97X-D3 SP def2-SVP
|  2> %pal
|  3> nprocs 24
|  4> end
|  5>
|  6> * xyz 0 1
|  7> S 	 -46.6615 	 11.4133 	 -19.415
|  8> C 	 -47.1661 	 10.6733 	 -17.9509
|  9> C 	 -48.4309 	 10.0986 	 -18.1641
| 10> C 	 -48.9096 	 10.1931 	 -19.4873
| 11> C 	 -48.0421 	 10.8169 	 -20.337
| 12> H 	 -49.8509 	 9.82279 	 -19.9649
| 13> C 	 -49.2603 	 9.58167 	 -17.0548
| 14> H 	 -50.0592 	 10.306 	 -16.8757
| 15> H 	 -48.6164 	 9.65408 	 -16.2727
| 16> C 	 -49.7157 	 8.11971 	 -17.0819
| 17> H 	 -50.262 	 7.81188 	 -16.1655
| 18> H 	 -50.3657 	 7.94457 	 -17.918
| 19> C 	 -48.5758 	 7.05084 	 -17.2123
| 20> H 	 -48.8581 	 6.0245 	 -17.0098
| 21> H 	 -48.2086 	 6.97748 	 -18.1924
| 22> H 	 -47.8411 	 7.31807 	 -16.5105
| 23> S 	 -46.607 	 10.4217 	 -22.5854
| 24> C 	 -47.2209 	 10.9147 	 -24.1182
| 25> C 	 -48.4873 	 11.4684 	 -24.0263
| 26> C 	 -48.9447 	 11.5224 	 -22.6817
| 27> C 	 -48.1277 	 10.8752 	 -21.8032
| 28> H 	 -49.0168 	 11.9003 	 -24.859
| 29> C 	 -50.225 	 12.2376 	 -22.4237
| 30> H 	 -50.2806 	 13.0066 	 -23.1923
| 31> H 	 -50.2541 	 12.7372 	 -21.4435
| 32> C 	 -51.4383 	 11.3145 	 -22.6475
| 33> H 	 -51.4192 	 10.6238 	 -21.8354
| 34> H 	 -51.2901 	 10.7118 	 -23.5671
| 35> C 	 -52.8431 	 12.0388 	 -22.6394
| 36> H 	 -53.055 	 12.716 	 -23.4864
| 37> H 	 -52.8947 	 12.668 	 -21.7444
| 38> H 	 -53.6336 	 11.2869 	 -22.6612
| 39> H 	 -46.82 	 10.8295 	 -16.9293
| 40> H 	 -46.567 	 10.9625 	 -24.9839
| 41> *
| 42>
| 43>                          ****END OF INPUT****

CARTESIAN COORDINATES (ANGSTROEM)
---------------------------------
  S    -46.661500   11.413300  -19.415000
  C    -47.166100   10.673300  -17.950900
  C    -48.430900   10.098600  -18.164100
  C    -48.909600   10.193100  -19.487300
  C    -48.042100   10.816900  -20.337000
  H    -49.850900    9.822790  -19.964900
  C    -49.260300    9.581670  -17.054800
  H    -50.059200   10.306000  -16.875700
  H    -48.616400    9.654080  -16.272700
  C    -49.715700    8.119710  -17.081900
  H    -50.262000    7.811880  -16.165500
  H    -50.365700    7.944570  -17.918000
  C    -48.575800    7.050840  -17.212300
  H    -48.858100    6.024500  -17.009800
  H    -48.208600    6.977480  -18.192400
  H    -47.841100    7.318070  -16.510500
  S    -46.607000   10.421700  -22.585400
  C    -47.220900   10.914700  -24.118200
  C    -48.487300   11.468400  -24.026300
  C    -48.944700   11.522400  -22.681700
  C    -48.127700   10.875200  -21.803200
  H    -49.016800   11.900300  -24.859000
  C    -50.225000   12.237600  -22.423700
  H    -50.280600   13.006600  -23.192300
  H    -50.254100   12.737200  -21.443500
  C    -51.438300   11.314500  -22.647500
  H    -51.419200   10.623800  -21.835400
  H    -51.290100   10.711800  -23.567100
  C    -52.843100   12.038800  -22.639400
  H    -53.055000   12.716000  -23.486400
  H    -52.894700   12.668000  -21.744400
  H    -53.633600   11.286900  -22.661200
  H    -46.820000   10.829500  -16.929300
  H    -46.567000   10.962500  -24.983900

 Total Charge           Charge          ....    0
 Multiplicity           Mult            ....    1
 Number of Electrons    NEL             ....  134
 Basis Dimension        Dim             ....  322

ORBITAL ENERGIES
----------------

  NO   OCC          E(Eh)            E(eV)
   0   2.0000     -88.966254     -2420.8948
   1   2.0000     -88.963214     -2420.8121
   2   2.0000     -10.328181      -281.0441
   3   2.0000     -10.324951      -280.9562
   4   2.0000     -10.317692      -280.7587
   5   2.0000     -10.313828      -280.6535
   6   2.0000     -10.300743      -280.2975
   7   2.0000     -10.297312      -280.2041
   8   2.0000     -10.293097      -280.0894
   9   2.0000     -10.291700      -280.0514
  10   2.0000     -10.291225      -280.0385
  11   2.0000     -10.290851      -280.0283
  12   2.0000     -10.285971      -279.8955
  13   2.0000     -10.284997      -279.8690
  14   2.0000     -10.279696      -279.7247
  15   2.0000     -10.265277      -279.3324
  16   2.0000      -8.081000      -219.8952
  17   2.0000      -8.078509      -219.8274
  18   2.0000      -6.039544      -164.3443
  19   2.0000      -6.036980      -164.2746
  20   2.0000      -6.035342      -164.2300
  21   2.0000      -6.032912      -164.1639
  22   2.0000      -6.031852      -164.1350
  23   2.0000      -6.029287      -164.0652
  24   2.0000      -1.011124       -27.5141
  25   2.0000      -0.989934       -26.9375
  26   2.0000      -0.913583       -24.8598
  27   2.0000      -0.910522       -24.7766
  28   2.0000      -0.869242       -23.6533
  29   2.0000      -0.850987       -23.1565
  30   2.0000      -0.845464       -23.0063
  31   2.0000      -0.818741       -22.2791
  32   2.0000      -0.783318       -21.3152
  33   2.0000      -0.772558       -21.0224
  34   2.0000      -0.710142       -19.3240
  35   2.0000      -0.701625       -19.0922
  36   2.0000      -0.692124       -18.8336
  37   2.0000      -0.669284       -18.2121
  38   2.0000      -0.641214       -17.4483
  39   2.0000      -0.618807       -16.8386
  40   2.0000      -0.600260       -16.3339
  41   2.0000      -0.565655       -15.3923
  42   2.0000      -0.558528       -15.1983
  43   2.0000      -0.557342       -15.1660
  44   2.0000      -0.541113       -14.7244
  45   2.0000      -0.524436       -14.2706
  46   2.0000      -0.518566       -14.1109
  47   2.0000      -0.516776       -14.0622
  48   2.0000      -0.510729       -13.8976
  49   2.0000      -0.500133       -13.6093
  50   2.0000      -0.486022       -13.2253
  51   2.0000      -0.474536       -12.9128
  52   2.0000      -0.472407       -12.8548
  53   2.0000      -0.464663       -12.6441
  54   2.0000      -0.459310       -12.4984
  55   2.0000      -0.452333       -12.3086
  56   2.0000      -0.444465       -12.0945
  57   2.0000      -0.441552       -12.0152
  58   2.0000      -0.434157       -11.8140
  59   2.0000      -0.424328       -11.5465
  60   2.0000      -0.422335       -11.4923
  61   2.0000      -0.418613       -11.3910
  62   2.0000      -0.409460       -11.1420
  63   2.0000      -0.349444        -9.5089
  64   2.0000      -0.332712        -9.0536
  65   2.0000      -0.325171        -8.8483
  66   2.0000      -0.295575        -8.0430
  67   0.0000       0.032803         0.8926
  68   0.0000       0.065558         1.7839
  69   0.0000       0.115751         3.1497
  70   0.0000       0.120777         3.2865
  71   0.0000       0.127021         3.4564

MULLIKEN ATOMIC CHARGES
-----------------------
   0 S :    0.118987
   1 C :   -0.101973
   2 C :   -0.150135
   3 C :    0.019980
   4 C :   -0.151095
   5 H :    0.028739
   6 C :    0.147624
   7 H :    0.043651
   8 H :   -0.032758
   9 C :   -0.090381
  10 H :    0.036721
  11 H :    0.023316
  12 C :   -0.030701
  13 H :    0.024266
  14 H :    0.029062
  15 H :    0.016201
  16 S :    0.096027
  17 C :   -0.086816
  18 C :   -0.025398
  19 C :   -0.044927
  20 C :   -0.165693
  21 H :    0.017261
  22 C :    0.077130
  23 H :    0.013885
  24 H :    0.035925
  25 C :   -0.080342
  26 H :    0.016937
  27 H :    0.034115
  28 C :   -0.046334
  29 H :    0.035612
  30 H :    0.032679
  31 H :    0.038189
  32 H :    0.057574
  33 H :    0.062672
Sum of atomic charges:   -0.0000000

LOEWDIN ATOMIC CHARGES
----------------------
   0 S :    0.415621
   1 C :   -0.217323
   2 C :   -0.064307
   3 C :   -0.072297
   4 C :   -0.192173
   5 H :    0.040204
   6 C :   -0.030165
   7 H :    0.039543
   8 H :    0.012914
   9 C :   -0.036519
  10 H :    0.029254
  11 H :    0.016054
  12 C :   -0.057150
  13 H :    0.026563
  14 H :    0.020143
  15 H :    0.016642
  16 S :    0.410986
  17 C :   -0.184370
  18 C :   -0.071494
  19 C :   -0.052845
  20 C :   -0.195717
  21 H :    0.030758
  22 C :   -0.030399
  23 H :    0.028470
  24 H :    0.033073
  25 C :   -0.035228
  26 H :    0.016363
  27 H :    0.027206
  28 C :   -0.067941
  29 H :    0.025747
  30 H :    0.026164
  31 H :    0.027244
  32 H :    0.035858
  33 H :    0.029119

  Mayer bond orders larger than 0.100000
B(  0-S ,  1-C ) :   1.1416 B(  0-S ,  4-C ) :   1.1585 B(  1-C ,  2-C ) :   1.5875
B(  1-C , 32-H ) :   0.9605 B(  2-C ,  3-C ) :   1.2406 B(  2-C ,  6-C ) :   1.0339
B(  3-C ,  4-C ) :   1.5772 B(  3-C ,  5-H ) :   0.9903 B(  4-C , 20-C ) :   1.0252
B(  6-C ,  7-H ) :   0.9348 B(  6-C ,  8-H ) :   0.9197 B(  6-C ,  9-C ) :   1.0655
B(  9-C , 10-H ) :   0.9604 B(  9-C , 11-H ) :   0.9618 B(  9-C , 12-C ) :   1.0707
B( 12-C , 13-H ) :   0.9757 B( 12-C , 14-H ) :   0.9750 B( 12-C , 15-H ) :   0.9789
B( 16-S , 17-C ) :   1.1760 B( 16-S , 20-C ) :   1.1232 B( 17-C , 18-C ) :   1.5874
B( 17-C , 33-H ) :   0.9666 B( 18-C , 19-C ) :   1.2499 B( 18-C , 21-H ) :   0.9902
B( 19-C , 20-C ) :   1.6133 B( 19-C , 22-C ) :   1.0536 B( 22-C , 23-H ) :   0.9308
B( 22-C , 24-H ) :   0.9295 B( 22-C , 25-C ) :   1.0598 B( 25-C , 26-H ) :   0.9544
B( 25-C , 27-H ) :   0.9572 B( 25-C , 28-C ) :   1.0714 B( 28-C , 29-H ) :   0.9782
B( 28-C , 30-H ) :   0.9742 B( 28-C , 31-H ) :   0.9760

Dispersion correction           -0.014088763
FINAL SINGLE POINT ENERGY     -1339.876248687111

DIPOLE MOMENT
-------------
                                X             Y             Z
Electronic contribution:     23.69512       6.84568      -7.37623
Nuclear contribution   :    -24.26391      -6.70691       7.38147
                        -----------------------------------------
Total Dipole Moment    :     -0.56878       0.13878       0.00524
                        -----------------------------------------
Magnitude (a.u.)       :      0.58549
Magnitude (Debye)      :      1.48821

Rotational constants in cm-1:     0.017349     0.008846     0.006883
Rotational constants in MHz :   520.121809   265.207665   206.337838

                             ****ORCA TERMINATED NORMALLY****
TOTAL RUN TIME: 0 days 0 hours 0 minutes 20 seconds 324 msec
