                         Program Version 4.2.1 -  RELEASE  -
|  1> ! wB97X-D3 SP def2-SVP
|  2> %pal
|  3> nprocs 24
|  4> end
|  5>
|  6> * xyz 0 1
|  7> S 	 -69.6273 	 0.506869 	 -68.8788
|  8> C 	 -69.0419 	 1.88822 	 -69.8237
|  9> C 	 -68.2925 	 1.39399 	 -70.9158
| 10> C 	 -68.2402 	 -0.0602289 	 -70.906
| 11> C 	 -68.8218 	 -0.65631 	 -69.7927
| 12> H 	 -67.6394 	 -0.639659 	 -71.6578
| 13> C 	 -67.5911 	 2.11364 	 -71.9898
| 14> H 	 -68.1825 	 2.35284 	 -72.855
| 15> H 	 -66.9104 	 1.37083 	 -72.4307
| 16> C 	 -66.7523 	 3.35791 	 -71.4489
| 17> H 	 -67.36 	 3.91604 	 -70.7777
| 18> H 	 -66.0098 	 2.89548 	 -70.808
| 19> C 	 -66.2644 	 4.26879 	 -72.618
| 20> H 	 -65.6363 	 3.83015 	 -73.3309
| 21> H 	 -67.0323 	 4.76463 	 -73.1826
| 22> H 	 -65.7415 	 5.12245 	 -72.1711
| 23> S 	 -70.6023 	 -2.73866 	 -69.8545
| 24> C 	 -70.1522 	 -4.32487 	 -69.2162
| 25> C 	 -68.8341 	 -4.31245 	 -68.8253
| 26> C 	 -68.1402 	 -3.1136 	 -69.0497
| 27> C 	 -69.0306 	 -2.08439 	 -69.4988
| 28> H 	 -68.2911 	 -5.18615 	 -68.4949
| 29> C 	 -66.6337 	 -2.85358 	 -68.6548
| 30> H 	 -66.5523 	 -3.01693 	 -67.6355
| 31> H 	 -66.5161 	 -1.81136 	 -68.9058
| 32> C 	 -65.7258 	 -3.69691 	 -69.5616
| 33> H 	 -65.7329 	 -3.40605 	 -70.5853
| 34> H 	 -65.9098 	 -4.77897 	 -69.4123
| 35> C 	 -64.2985 	 -3.61815 	 -69.1052
| 36> H 	 -63.6368 	 -4.24242 	 -69.6571
| 37> H 	 -64.2053 	 -3.91251 	 -68.0304
| 38> H 	 -63.9055 	 -2.55578 	 -69.1799
| 39> H 	 -69.424 	 2.92844 	 -69.6803
| 40> H 	 -70.719 	 -5.19455 	 -69.0885
| 41> *
| 42>
| 43>                          ****END OF INPUT****

CARTESIAN COORDINATES (ANGSTROEM)
---------------------------------
  S    -69.627300    0.506869  -68.878800
  C    -69.041900    1.888220  -69.823700
  C    -68.292500    1.393990  -70.915800
  C    -68.240200   -0.060229  -70.906000
  C    -68.821800   -0.656310  -69.792700
  H    -67.639400   -0.639659  -71.657800
  C    -67.591100    2.113640  -71.989800
  H    -68.182500    2.352840  -72.855000
  H    -66.910400    1.370830  -72.430700
  C    -66.752300    3.357910  -71.448900
  H    -67.360000    3.916040  -70.777700
  H    -66.009800    2.895480  -70.808000
  C    -66.264400    4.268790  -72.618000
  H    -65.636300    3.830150  -73.330900
  H    -67.032300    4.764630  -73.182600
  H    -65.741500    5.122450  -72.171100
  S    -70.602300   -2.738660  -69.854500
  C    -70.152200   -4.324870  -69.216200
  C    -68.834100   -4.312450  -68.825300
  C    -68.140200   -3.113600  -69.049700
  C    -69.030600   -2.084390  -69.498800
  H    -68.291100   -5.186150  -68.494900
  C    -66.633700   -2.853580  -68.654800
  H    -66.552300   -3.016930  -67.635500
  H    -66.516100   -1.811360  -68.905800
  C    -65.725800   -3.696910  -69.561600
  H    -65.732900   -3.406050  -70.585300
  H    -65.909800   -4.778970  -69.412300
  C    -64.298500   -3.618150  -69.105200
  H    -63.636800   -4.242420  -69.657100
  H    -64.205300   -3.912510  -68.030400
  H    -63.905500   -2.555780  -69.179900
  H    -69.424000    2.928440  -69.680300
  H    -70.719000   -5.194550  -69.088500

 Total Charge           Charge          ....    0
 Multiplicity           Mult            ....    1
 Number of Electrons    NEL             ....  134
 Basis Dimension        Dim             ....  322

ORBITAL ENERGIES
----------------

  NO   OCC          E(Eh)            E(eV)
   0   2.0000     -88.968148     -2420.9464
   1   2.0000     -88.964802     -2420.8553
   2   2.0000     -10.328687      -281.0579
   3   2.0000     -10.327253      -281.0188
   4   2.0000     -10.322276      -280.8834
   5   2.0000     -10.313823      -280.6534
   6   2.0000     -10.305019      -280.4138
   7   2.0000     -10.304136      -280.3898
   8   2.0000     -10.298232      -280.2291
   9   2.0000     -10.291359      -280.0421
  10   2.0000     -10.289613      -279.9946
  11   2.0000     -10.289145      -279.9819
  12   2.0000     -10.288665      -279.9688
  13   2.0000     -10.284476      -279.8548
  14   2.0000     -10.277117      -279.6546
  15   2.0000     -10.276639      -279.6416
  16   2.0000      -8.082315      -219.9310
  17   2.0000      -8.080308      -219.8764
  18   2.0000      -6.040878      -164.3806
  19   2.0000      -6.038823      -164.3247
  20   2.0000      -6.036727      -164.2677
  21   2.0000      -6.034400      -164.2044
  22   2.0000      -6.033231      -164.1726
  23   2.0000      -6.031303      -164.1201
  24   2.0000      -1.006352       -27.3842
  25   2.0000      -0.982142       -26.7254
  26   2.0000      -0.912140       -24.8206
  27   2.0000      -0.909742       -24.7553
  28   2.0000      -0.864975       -23.5372
  29   2.0000      -0.849058       -23.1040
  30   2.0000      -0.846194       -23.0261
  31   2.0000      -0.811076       -22.0705
  32   2.0000      -0.782576       -21.2950
  33   2.0000      -0.769388       -20.9361
  34   2.0000      -0.717472       -19.5234
  35   2.0000      -0.697306       -18.9747
  36   2.0000      -0.695383       -18.9223
  37   2.0000      -0.656736       -17.8707
  38   2.0000      -0.640182       -17.4202
  39   2.0000      -0.611976       -16.6527
  40   2.0000      -0.592054       -16.1106
  41   2.0000      -0.576885       -15.6978
  42   2.0000      -0.568548       -15.4710
  43   2.0000      -0.556857       -15.1529
  44   2.0000      -0.529862       -14.4183
  45   2.0000      -0.522649       -14.2220
  46   2.0000      -0.515875       -14.0377
  47   2.0000      -0.511229       -13.9112
  48   2.0000      -0.509959       -13.8767
  49   2.0000      -0.499830       -13.6011
  50   2.0000      -0.495559       -13.4849
  51   2.0000      -0.476452       -12.9649
  52   2.0000      -0.467909       -12.7325
  53   2.0000      -0.466899       -12.7050
  54   2.0000      -0.459629       -12.5071
  55   2.0000      -0.456108       -12.4113
  56   2.0000      -0.446023       -12.1369
  57   2.0000      -0.439609       -11.9624
  58   2.0000      -0.431205       -11.7337
  59   2.0000      -0.420962       -11.4550
  60   2.0000      -0.419792       -11.4231
  61   2.0000      -0.415530       -11.3071
  62   2.0000      -0.410935       -11.1821
  63   2.0000      -0.339110        -9.2276
  64   2.0000      -0.325129        -8.8472
  65   2.0000      -0.323891        -8.8135
  66   2.0000      -0.303712        -8.2644
  67   0.0000       0.038307         1.0424
  68   0.0000       0.057367         1.5610
  69   0.0000       0.119452         3.2504
  70   0.0000       0.123810         3.3690
  71   0.0000       0.124029         3.3750

MULLIKEN ATOMIC CHARGES
-----------------------
   0 S :    0.114687
   1 C :   -0.151105
   2 C :   -0.100120
   3 C :    0.024291
   4 C :   -0.175182
   5 H :    0.029420
   6 C :    0.063991
   7 H :    0.033238
   8 H :    0.014004
   9 C :   -0.074577
  10 H :    0.021947
  11 H :    0.036381
  12 C :   -0.023052
  13 H :    0.024785
  14 H :    0.024388
  15 H :    0.028439
  16 S :    0.127972
  17 C :   -0.061624
  18 C :   -0.032988
  19 C :   -0.048514
  20 C :   -0.185345
  21 H :    0.011623
  22 C :    0.129074
  23 H :    0.022661
  24 H :    0.024728
  25 C :   -0.079586
  26 H :    0.031698
  27 H :    0.032322
  28 C :   -0.057965
  29 H :    0.027587
  30 H :    0.027468
  31 H :    0.028047
  32 H :    0.076476
  33 H :    0.034833
Sum of atomic charges:    0.0000000

LOEWDIN ATOMIC CHARGES
----------------------
   0 S :    0.436977
   1 C :   -0.210002
   2 C :   -0.063319
   3 C :   -0.071492
   4 C :   -0.228330
   5 H :    0.036825
   6 C :   -0.038499
   7 H :    0.029214
   8 H :    0.030494
   9 C :   -0.025682
  10 H :    0.017045
  11 H :    0.028236
  12 C :   -0.063660
  13 H :    0.017462
  14 H :    0.025582
  15 H :    0.030289
  16 S :    0.418336
  17 C :   -0.177910
  18 C :   -0.073536
  19 C :   -0.049674
  20 C :   -0.215310
  21 H :    0.028998
  22 C :   -0.009557
  23 H :    0.022547
  24 H :    0.031755
  25 C :   -0.039329
  26 H :    0.024389
  27 H :    0.027469
  28 C :   -0.069113
  29 H :    0.017763
  30 H :    0.025424
  31 H :    0.025474
  32 H :    0.039030
  33 H :    0.022102

  Mayer bond orders larger than 0.100000
B(  0-S ,  1-C ) :   1.1461 B(  0-S ,  4-C ) :   1.1904 B(  1-C ,  2-C ) :   1.5622
B(  1-C , 32-H ) :   0.9658 B(  2-C ,  3-C ) :   1.2736 B(  2-C ,  6-C ) :   1.0320
B(  3-C ,  4-C ) :   1.5522 B(  3-C ,  5-H ) :   0.9830 B(  4-C , 20-C ) :   0.9905
B(  6-C ,  7-H ) :   0.9341 B(  6-C ,  8-H ) :   0.9407 B(  6-C ,  9-C ) :   1.0429
B(  9-C , 10-H ) :   0.9640 B(  9-C , 11-H ) :   0.9618 B(  9-C , 12-C ) :   1.0725
B( 12-C , 13-H ) :   0.9788 B( 12-C , 14-H ) :   0.9742 B( 12-C , 15-H ) :   0.9732
B( 16-S , 17-C ) :   1.1495 B( 16-S , 20-C ) :   1.1754 B( 17-C , 18-C ) :   1.5915
B( 17-C , 20-C ) :   0.1126 B( 17-C , 33-H ) :   0.9730 B( 18-C , 19-C ) :   1.2895
B( 18-C , 21-H ) :   0.9799 B( 19-C , 20-C ) :   1.5585 B( 19-C , 22-C ) :   1.0218
B( 22-C , 23-H ) :   0.9457 B( 22-C , 24-H ) :   0.9280 B( 22-C , 25-C ) :   1.0703
B( 25-C , 26-H ) :   0.9535 B( 25-C , 27-H ) :   0.9594 B( 25-C , 28-C ) :   1.0914
B( 28-C , 29-H ) :   0.9737 B( 28-C , 30-H ) :   0.9738 B( 28-C , 31-H ) :   0.9703

Dispersion correction           -0.013401377
FINAL SINGLE POINT ENERGY     -1339.866546181174

DIPOLE MOMENT
-------------
                                X             Y             Z
Electronic contribution:    -26.74288      -7.71865       8.23065
Nuclear contribution   :     27.26915       7.73218      -8.49289
                        -----------------------------------------
Total Dipole Moment    :      0.52627       0.01353      -0.26224
                        -----------------------------------------
Magnitude (a.u.)       :      0.58814
Magnitude (Debye)      :      1.49493

Rotational constants in cm-1:     0.018508     0.007742     0.005998
Rotational constants in MHz :   554.866596   232.098017   179.817690

                             ****ORCA TERMINATED NORMALLY****
TOTAL RUN TIME: 0 days 0 hours 0 minutes 20 seconds 951 msec
