                         Program Version 4.2.1 -  RELEASE  -
|  1> ! wB97X-D3 SP def2-SVP
|  2> %pal
|  3> nprocs 24
|  4> end
|  5>
|  6> * xyz 0 1
|  7> S 	 -38.0091 	 -12.0519 	 18.4226
|  8> C 	 -38.6302 	 -10.4961 	 17.8954
|  9> C 	 -37.6021 	 -9.50653 	 17.7678
| 10> C 	 -36.3298 	 -10.135 	 17.8924
| 11> C 	 -36.4129 	 -11.4642 	 18.0714
| 12> H 	 -35.3882 	 -9.78574 	 17.7056
| 13> C 	 -37.7963 	 -8.01208 	 17.5109
| 14> H 	 -37.7162 	 -7.42202 	 18.4222
| 15> H 	 -38.8399 	 -7.80479 	 17.2709
| 16> C 	 -36.8696 	 -7.44341 	 16.38
| 17> H 	 -36.7262 	 -6.35521 	 16.5118
| 18> H 	 -35.8232 	 -7.65587 	 16.6499
| 19> C 	 -37.1484 	 -7.87117 	 14.9683
| 20> H 	 -37.7586 	 -7.15573 	 14.4743
| 21> H 	 -36.1283 	 -7.79769 	 14.558
| 22> H 	 -37.4642 	 -8.83337 	 14.8717
| 23> S 	 -35.3071 	 -13.9099 	 18.8657
| 24> C 	 -34.0316 	 -14.681 	 18.0016
| 25> C 	 -33.6525 	 -13.8337 	 16.9975
| 26> C 	 -34.4805 	 -12.6523 	 16.8356
| 27> C 	 -35.3084 	 -12.4034 	 17.8854
| 28> H 	 -32.8169 	 -14.0556 	 16.3218
| 29> C 	 -34.1388 	 -11.6299 	 15.6858
| 30> H 	 -33.0811 	 -11.8744 	 15.4075
| 31> H 	 -34.1676 	 -10.7212 	 16.1717
| 32> C 	 -35.2169 	 -11.7446 	 14.5986
| 33> H 	 -36.1039 	 -11.3172 	 14.9789
| 34> H 	 -35.3302 	 -12.8501 	 14.3566
| 35> C 	 -34.847 	 -11.1624 	 13.2734
| 36> H 	 -33.8936 	 -11.559 	 12.9025
| 37> H 	 -34.783 	 -10.084 	 13.3811
| 38> H 	 -35.6419 	 -11.4294 	 12.5883
| 39> H 	 -39.6789 	 -10.2432 	 17.8657
| 40> H 	 -33.4506 	 -15.562 	 18.2662
| 41> *
| 42>
| 43>                          ****END OF INPUT****

CARTESIAN COORDINATES (ANGSTROEM)
---------------------------------
  S    -38.009100  -12.051900   18.422600
  C    -38.630200  -10.496100   17.895400
  C    -37.602100   -9.506530   17.767800
  C    -36.329800  -10.135000   17.892400
  C    -36.412900  -11.464200   18.071400
  H    -35.388200   -9.785740   17.705600
  C    -37.796300   -8.012080   17.510900
  H    -37.716200   -7.422020   18.422200
  H    -38.839900   -7.804790   17.270900
  C    -36.869600   -7.443410   16.380000
  H    -36.726200   -6.355210   16.511800
  H    -35.823200   -7.655870   16.649900
  C    -37.148400   -7.871170   14.968300
  H    -37.758600   -7.155730   14.474300
  H    -36.128300   -7.797690   14.558000
  H    -37.464200   -8.833370   14.871700
  S    -35.307100  -13.909900   18.865700
  C    -34.031600  -14.681000   18.001600
  C    -33.652500  -13.833700   16.997500
  C    -34.480500  -12.652300   16.835600
  C    -35.308400  -12.403400   17.885400
  H    -32.816900  -14.055600   16.321800
  C    -34.138800  -11.629900   15.685800
  H    -33.081100  -11.874400   15.407500
  H    -34.167600  -10.721200   16.171700
  C    -35.216900  -11.744600   14.598600
  H    -36.103900  -11.317200   14.978900
  H    -35.330200  -12.850100   14.356600
  C    -34.847000  -11.162400   13.273400
  H    -33.893600  -11.559000   12.902500
  H    -34.783000  -10.084000   13.381100
  H    -35.641900  -11.429400   12.588300
  H    -39.678900  -10.243200   17.865700
  H    -33.450600  -15.562000   18.266200

 Total Charge           Charge          ....    0
 Multiplicity           Mult            ....    1
 Number of Electrons    NEL             ....  134
 Basis Dimension        Dim             ....  322

ORBITAL ENERGIES
----------------

  NO   OCC          E(Eh)            E(eV)
   0   2.0000     -88.969585     -2420.9855
   1   2.0000     -88.957886     -2420.6671
   2   2.0000     -10.326036      -280.9857
   3   2.0000     -10.325795      -280.9792
   4   2.0000     -10.319444      -280.8064
   5   2.0000     -10.317319      -280.7485
   6   2.0000     -10.310969      -280.5757
   7   2.0000     -10.302567      -280.3471
   8   2.0000     -10.297378      -280.2059
   9   2.0000     -10.292914      -280.0844
  10   2.0000     -10.290770      -280.0261
  11   2.0000     -10.290704      -280.0243
  12   2.0000     -10.285581      -279.8849
  13   2.0000     -10.281686      -279.7789
  14   2.0000     -10.272676      -279.5337
  15   2.0000     -10.269864      -279.4572
  16   2.0000      -8.084396      -219.9876
  17   2.0000      -8.072846      -219.6733
  18   2.0000      -6.042849      -164.4343
  19   2.0000      -6.039105      -164.3324
  20   2.0000      -6.034984      -164.2203
  21   2.0000      -6.031551      -164.1268
  22   2.0000      -6.027230      -164.0093
  23   2.0000      -6.023457      -163.9066
  24   2.0000      -1.010164       -27.4880
  25   2.0000      -0.985043       -26.8044
  26   2.0000      -0.911464       -24.8022
  27   2.0000      -0.910529       -24.7768
  28   2.0000      -0.871807       -23.7231
  29   2.0000      -0.858073       -23.3494
  30   2.0000      -0.844709       -22.9857
  31   2.0000      -0.820427       -22.3250
  32   2.0000      -0.784560       -21.3490
  33   2.0000      -0.775027       -21.0896
  34   2.0000      -0.710121       -19.3234
  35   2.0000      -0.697029       -18.9671
  36   2.0000      -0.688115       -18.7246
  37   2.0000      -0.660611       -17.9761
  38   2.0000      -0.649246       -17.6669
  39   2.0000      -0.627002       -17.0616
  40   2.0000      -0.590717       -16.0742
  41   2.0000      -0.570259       -15.5175
  42   2.0000      -0.565511       -15.3883
  43   2.0000      -0.554021       -15.0757
  44   2.0000      -0.540610       -14.7108
  45   2.0000      -0.529687       -14.4135
  46   2.0000      -0.522369       -14.2144
  47   2.0000      -0.519560       -14.1379
  48   2.0000      -0.503470       -13.7001
  49   2.0000      -0.500542       -13.6204
  50   2.0000      -0.495090       -13.4721
  51   2.0000      -0.491820       -13.3831
  52   2.0000      -0.471785       -12.8379
  53   2.0000      -0.467353       -12.7173
  54   2.0000      -0.463082       -12.6011
  55   2.0000      -0.453623       -12.3437
  56   2.0000      -0.445343       -12.1184
  57   2.0000      -0.437104       -11.8942
  58   2.0000      -0.431542       -11.7428
  59   2.0000      -0.427393       -11.6300
  60   2.0000      -0.416458       -11.3324
  61   2.0000      -0.409168       -11.1340
  62   2.0000      -0.396203       -10.7812
  63   2.0000      -0.353632        -9.6228
  64   2.0000      -0.336324        -9.1518
  65   2.0000      -0.324205        -8.8221
  66   2.0000      -0.290066        -7.8931
  67   0.0000       0.028278         0.7695
  68   0.0000       0.064755         1.7621
  69   0.0000       0.104546         2.8448
  70   0.0000       0.119155         3.2424
  71   0.0000       0.125047         3.4027

MULLIKEN ATOMIC CHARGES
-----------------------
   0 S :    0.130550
   1 C :   -0.116969
   2 C :   -0.081244
   3 C :    0.031662
   4 C :   -0.108995
   5 H :   -0.029714
   6 C :    0.094132
   7 H :    0.038372
   8 H :    0.009426
   9 C :   -0.133128
  10 H :    0.019294
  11 H :    0.014979
  12 C :    0.028466
  13 H :    0.032718
  14 H :    0.029525
  15 H :    0.023051
  16 S :    0.058317
  17 C :   -0.065797
  18 C :   -0.043232
  19 C :   -0.091594
  20 C :   -0.138336
  21 H :    0.023115
  22 C :    0.094851
  23 H :    0.025483
  24 H :   -0.003887
  25 C :   -0.096034
  26 H :    0.034333
  27 H :    0.038393
  28 C :   -0.010272
  29 H :    0.026968
  30 H :    0.021091
  31 H :    0.035648
  32 H :    0.043316
  33 H :    0.065512
Sum of atomic charges:   -0.0000000

LOEWDIN ATOMIC CHARGES
----------------------
   0 S :    0.411376
   1 C :   -0.195854
   2 C :   -0.052438
   3 C :   -0.058325
   4 C :   -0.184489
   5 H :    0.015325
   6 C :   -0.034974
   7 H :    0.036385
   8 H :    0.028063
   9 C :   -0.050171
  10 H :    0.028265
  11 H :    0.019305
  12 C :   -0.051343
  13 H :    0.025523
  14 H :    0.037384
  15 H :    0.013199
  16 S :    0.378339
  17 C :   -0.189028
  18 C :   -0.083073
  19 C :   -0.051054
  20 C :   -0.185347
  21 H :    0.029789
  22 C :   -0.018684
  23 H :    0.032475
  24 H :    0.011367
  25 C :   -0.038857
  26 H :    0.021077
  27 H :    0.033488
  28 C :   -0.062094
  29 H :    0.024216
  30 H :    0.019571
  31 H :    0.027837
  32 H :    0.022863
  33 H :    0.039883

  Mayer bond orders larger than 0.100000
B(  0-S ,  1-C ) :   1.1405 B(  0-S ,  4-C ) :   1.1378 B(  1-C ,  2-C ) :   1.6052
B(  1-C , 32-H ) :   0.9687 B(  2-C ,  3-C ) :   1.1969 B(  2-C ,  6-C ) :   1.0286
B(  3-C ,  4-C ) :   1.6102 B(  3-C ,  5-H ) :   1.0167 B(  4-C , 20-C ) :   1.0302
B(  6-C ,  7-H ) :   0.9357 B(  6-C ,  8-H ) :   0.9410 B(  6-C ,  9-C ) :   1.0646
B(  9-C , 10-H ) :   0.9488 B(  9-C , 11-H ) :   0.9633 B(  9-C , 12-C ) :   1.0603
B( 12-C , 13-H ) :   0.9732 B( 12-C , 14-H ) :   0.9713 B( 12-C , 15-H ) :   0.9769
B( 16-S , 17-C ) :   1.1570 B( 16-S , 20-C ) :   1.0994 B( 17-C , 18-C ) :   1.6164
B( 17-C , 33-H ) :   0.9648 B( 18-C , 19-C ) :   1.2370 B( 18-C , 21-H ) :   0.9807
B( 19-C , 20-C ) :   1.6298 B( 19-C , 22-C ) :   1.0144 B( 22-C , 23-H ) :   0.9452
B( 22-C , 24-H ) :   0.9414 B( 22-C , 25-C ) :   1.0504 B( 25-C , 26-H ) :   0.9520
B( 25-C , 27-H ) :   0.9605 B( 25-C , 28-C ) :   1.0937 B( 28-C , 29-H ) :   0.9734
B( 28-C , 30-H ) :   0.9686 B( 28-C , 31-H ) :   0.9730

Dispersion correction           -0.015923846
FINAL SINGLE POINT ENERGY     -1339.850605374866

DIPOLE MOMENT
-------------
                                X             Y             Z
Electronic contribution:     -4.18597     -20.82444      23.51900
Nuclear contribution   :      4.42684      21.35847     -24.03793
                        -----------------------------------------
Total Dipole Moment    :      0.24087       0.53403      -0.51893
                        -----------------------------------------
Magnitude (a.u.)       :      0.78262
Magnitude (Debye)      :      1.98926

Rotational constants in cm-1:     0.018492     0.010592     0.007508
Rotational constants in MHz :   554.384931   317.544463   225.093970

                             ****ORCA TERMINATED NORMALLY****
TOTAL RUN TIME: 0 days 0 hours 0 minutes 23 seconds 275 msec
