                         Program Version 4.2.1 -  RELEASE  -
|  1> ! wB97X-D3 SP def2-SVP
|  2> %pal
|  3> nprocs 24
|  4> end
|  5>
|  6> * xyz 0 1
|  7> S 	 -52.4623 	 14.2895 	 25.1711
|  8> C 	 -51.3693 	 13.0043 	 24.6303
|  9> C 	 -50.3283 	 13.598 	 23.9198
| 10> C 	 -50.3461 	 15.0195 	 23.9085
| 11> C 	 -51.3104 	 15.5225 	 24.7505
| 12> H 	 -49.6647 	 15.6625 	 23.4125
| 13> C 	 -49.3513 	 12.7913 	 23.0964
| 14> H 	 -49.0498 	 11.9218 	 23.7012
| 15> H 	 -48.5021 	 13.4475 	 23.0959
| 16> C 	 -49.7601 	 12.0866 	 21.7875
| 17> H 	 -48.9129 	 11.5158 	 21.268
| 18> H 	 -50.4468 	 11.2065 	 22.0466
| 19> C 	 -50.6313 	 12.9506 	 20.8141
| 20> H 	 -50.6249 	 12.3317 	 19.9718
| 21> H 	 -51.6867 	 13.1063 	 21.1682
| 22> H 	 -50.2281 	 13.9354 	 20.581
| 23> S 	 -52.4486 	 17.6631 	 23.7899
| 24> C 	 -52.4076 	 19.2235 	 24.5638
| 25> C 	 -51.5545 	 19.1612 	 25.6469
| 26> C 	 -51.0329 	 17.8192 	 25.8747
| 27> C 	 -51.5678 	 16.9039 	 25.0419
| 28> H 	 -51.312 	 20.0604 	 26.1866
| 29> C 	 -49.9872 	 17.5703 	 26.8905
| 30> H 	 -49.8758 	 16.4919 	 27.0888
| 31> H 	 -50.3321 	 17.9283 	 27.8804
| 32> C 	 -48.6526 	 18.1745 	 26.7022
| 33> H 	 -48.7026 	 19.2973 	 26.7698
| 34> H 	 -48.2904 	 17.9271 	 25.7347
| 35> C 	 -47.5891 	 17.6574 	 27.7184
| 36> H 	 -47.8576 	 17.9081 	 28.7396
| 37> H 	 -46.6328 	 18.0522 	 27.4564
| 38> H 	 -47.5905 	 16.5631 	 27.742
| 39> H 	 -51.5834 	 11.9164 	 24.7701
| 40> H 	 -52.8777 	 20.1625 	 24.2388
| 41> *
| 42>
| 43>                          ****END OF INPUT****

CARTESIAN COORDINATES (ANGSTROEM)
---------------------------------
  S    -52.462300   14.289500   25.171100
  C    -51.369300   13.004300   24.630300
  C    -50.328300   13.598000   23.919800
  C    -50.346100   15.019500   23.908500
  C    -51.310400   15.522500   24.750500
  H    -49.664700   15.662500   23.412500
  C    -49.351300   12.791300   23.096400
  H    -49.049800   11.921800   23.701200
  H    -48.502100   13.447500   23.095900
  C    -49.760100   12.086600   21.787500
  H    -48.912900   11.515800   21.268000
  H    -50.446800   11.206500   22.046600
  C    -50.631300   12.950600   20.814100
  H    -50.624900   12.331700   19.971800
  H    -51.686700   13.106300   21.168200
  H    -50.228100   13.935400   20.581000
  S    -52.448600   17.663100   23.789900
  C    -52.407600   19.223500   24.563800
  C    -51.554500   19.161200   25.646900
  C    -51.032900   17.819200   25.874700
  C    -51.567800   16.903900   25.041900
  H    -51.312000   20.060400   26.186600
  C    -49.987200   17.570300   26.890500
  H    -49.875800   16.491900   27.088800
  H    -50.332100   17.928300   27.880400
  C    -48.652600   18.174500   26.702200
  H    -48.702600   19.297300   26.769800
  H    -48.290400   17.927100   25.734700
  C    -47.589100   17.657400   27.718400
  H    -47.857600   17.908100   28.739600
  H    -46.632800   18.052200   27.456400
  H    -47.590500   16.563100   27.742000
  H    -51.583400   11.916400   24.770100
  H    -52.877700   20.162500   24.238800

 Total Charge           Charge          ....    0
 Multiplicity           Mult            ....    1
 Number of Electrons    NEL             ....  134
 Basis Dimension        Dim             ....  322

ORBITAL ENERGIES
----------------

  NO   OCC          E(Eh)            E(eV)
   0   2.0000     -88.964536     -2420.8481
   1   2.0000     -88.959627     -2420.7145
   2   2.0000     -10.326206      -280.9903
   3   2.0000     -10.319246      -280.8010
   4   2.0000     -10.317292      -280.7478
   5   2.0000     -10.316186      -280.7177
   6   2.0000     -10.301774      -280.3255
   7   2.0000     -10.301707      -280.3237
   8   2.0000     -10.300392      -280.2879
   9   2.0000     -10.293338      -280.0960
  10   2.0000     -10.292966      -280.0858
  11   2.0000     -10.287885      -279.9476
  12   2.0000     -10.283887      -279.8388
  13   2.0000     -10.283494      -279.8281
  14   2.0000     -10.276733      -279.6441
  15   2.0000     -10.273859      -279.5659
  16   2.0000      -8.079278      -219.8483
  17   2.0000      -8.075628      -219.7490
  18   2.0000      -6.037788      -164.2966
  19   2.0000      -6.034285      -164.2012
  20   2.0000      -6.033803      -164.1881
  21   2.0000      -6.030004      -164.0847
  22   2.0000      -6.029901      -164.0819
  23   2.0000      -6.026179      -163.9807
  24   2.0000      -1.015519       -27.6337
  25   2.0000      -0.987097       -26.8603
  26   2.0000      -0.915956       -24.9244
  27   2.0000      -0.906089       -24.6559
  28   2.0000      -0.870687       -23.6926
  29   2.0000      -0.848920       -23.1003
  30   2.0000      -0.846337       -23.0300
  31   2.0000      -0.815985       -22.2041
  32   2.0000      -0.782784       -21.3006
  33   2.0000      -0.772765       -21.0280
  34   2.0000      -0.704641       -19.1743
  35   2.0000      -0.698762       -19.0143
  36   2.0000      -0.694966       -18.9110
  37   2.0000      -0.663555       -18.0563
  38   2.0000      -0.643474       -17.5098
  39   2.0000      -0.613580       -16.6964
  40   2.0000      -0.598047       -16.2737
  41   2.0000      -0.568171       -15.4607
  42   2.0000      -0.561434       -15.2774
  43   2.0000      -0.549678       -14.9575
  44   2.0000      -0.539089       -14.6694
  45   2.0000      -0.528603       -14.3840
  46   2.0000      -0.520655       -14.1677
  47   2.0000      -0.514286       -13.9944
  48   2.0000      -0.513595       -13.9756
  49   2.0000      -0.496885       -13.5209
  50   2.0000      -0.492429       -13.3997
  51   2.0000      -0.476085       -12.9549
  52   2.0000      -0.468380       -12.7453
  53   2.0000      -0.465609       -12.6699
  54   2.0000      -0.458153       -12.4670
  55   2.0000      -0.452900       -12.3240
  56   2.0000      -0.447821       -12.1858
  57   2.0000      -0.435596       -11.8532
  58   2.0000      -0.431403       -11.7391
  59   2.0000      -0.420922       -11.4539
  60   2.0000      -0.415172       -11.2974
  61   2.0000      -0.413568       -11.2538
  62   2.0000      -0.399480       -10.8704
  63   2.0000      -0.335290        -9.1237
  64   2.0000      -0.326592        -8.8870
  65   2.0000      -0.318827        -8.6757
  66   2.0000      -0.312898        -8.5144
  67   0.0000       0.040813         1.1106
  68   0.0000       0.054974         1.4959
  69   0.0000       0.111439         3.0324
  70   0.0000       0.120004         3.2655
  71   0.0000       0.128131         3.4866

MULLIKEN ATOMIC CHARGES
-----------------------
   0 S :    0.110605
   1 C :   -0.140271
   2 C :   -0.103884
   3 C :    0.063659
   4 C :   -0.175360
   5 H :    0.004368
   6 C :    0.091865
   7 H :    0.023735
   8 H :    0.015958
   9 C :   -0.114826
  10 H :    0.047101
  11 H :    0.028426
  12 C :   -0.041564
  13 H :    0.022604
  14 H :    0.052433
  15 H :    0.033174
  16 S :    0.106198
  17 C :   -0.087681
  18 C :   -0.040495
  19 C :    0.006332
  20 C :   -0.169596
  21 H :    0.015664
  22 C :    0.053502
  23 H :    0.020351
  24 H :    0.016104
  25 C :   -0.076236
  26 H :    0.032536
  27 H :    0.015087
  28 C :   -0.026898
  29 H :    0.020840
  30 H :    0.035126
  31 H :    0.026669
  32 H :    0.070350
  33 H :    0.064128
Sum of atomic charges:    0.0000000

LOEWDIN ATOMIC CHARGES
----------------------
   0 S :    0.407392
   1 C :   -0.196244
   2 C :   -0.065945
   3 C :   -0.055656
   4 C :   -0.201129
   5 H :    0.028295
   6 C :   -0.043475
   7 H :    0.036896
   8 H :    0.024433
   9 C :   -0.048285
  10 H :    0.034367
  11 H :    0.029501
  12 C :   -0.069388
  13 H :    0.018989
  14 H :    0.035443
  15 H :    0.021749
  16 S :    0.424970
  17 C :   -0.189454
  18 C :   -0.069348
  19 C :   -0.053266
  20 C :   -0.217365
  21 H :    0.028918
  22 C :   -0.042903
  23 H :    0.032360
  24 H :    0.032660
  25 C :   -0.037501
  26 H :    0.026600
  27 H :    0.016308
  28 C :   -0.056694
  29 H :    0.021975
  30 H :    0.023659
  31 H :    0.025826
  32 H :    0.039546
  33 H :    0.036765

  Mayer bond orders larger than 0.100000
B(  0-S ,  1-C ) :   1.1386 B(  0-S ,  4-C ) :   1.1664 B(  1-C ,  2-C ) :   1.5791
B(  1-C ,  4-C ) :   0.1069 B(  1-C , 32-H ) :   0.9715 B(  2-C ,  3-C ) :   1.2438
B(  2-C ,  6-C ) :   1.0241 B(  3-C ,  4-C ) :   1.5637 B(  3-C ,  5-H ) :   1.0036
B(  4-C , 20-C ) :   0.9942 B(  6-C ,  7-H ) :   0.9361 B(  6-C ,  8-H ) :   0.9413
B(  6-C ,  9-C ) :   1.0587 B(  9-C , 10-H ) :   0.9584 B(  9-C , 11-H ) :   0.9523
B(  9-C , 12-C ) :   1.0671 B( 12-C , 13-H ) :   0.9754 B( 12-C , 14-H ) :   0.9717
B( 12-C , 15-H ) :   0.9813 B( 16-S , 17-C ) :   1.1479 B( 16-S , 20-C ) :   1.1518
B( 17-C , 18-C ) :   1.6243 B( 17-C , 33-H ) :   0.9661 B( 18-C , 19-C ) :   1.2020
B( 18-C , 21-H ) :   0.9958 B( 19-C , 20-C ) :   1.6394 B( 19-C , 22-C ) :   1.0679
B( 22-C , 23-H ) :   0.9305 B( 22-C , 24-H ) :   0.9217 B( 22-C , 25-C ) :   1.0730
B( 25-C , 26-H ) :   0.9492 B( 25-C , 27-H ) :   0.9522 B( 25-C , 28-C ) :   1.0871
B( 28-C , 29-H ) :   0.9743 B( 28-C , 30-H ) :   0.9752 B( 28-C , 31-H ) :   0.9740

Dispersion correction           -0.014301322
FINAL SINGLE POINT ENERGY     -1339.865950041237

DIPOLE MOMENT
-------------
                                X             Y             Z
Electronic contribution:    -20.02038       5.31946       1.01215
Nuclear contribution   :     20.55014      -5.32007      -1.06616
                        -----------------------------------------
Total Dipole Moment    :      0.52976      -0.00060      -0.05401
                        -----------------------------------------
Magnitude (a.u.)       :      0.53250
Magnitude (Debye)      :      1.35351

Rotational constants in cm-1:     0.019052     0.008396     0.007087
Rotational constants in MHz :   571.174698   251.698347   212.476024

                             ****ORCA TERMINATED NORMALLY****
TOTAL RUN TIME: 0 days 0 hours 0 minutes 20 seconds 375 msec
