                         Program Version 4.2.1 -  RELEASE  -
|  1> ! wB97X-D3 SP def2-SVP
|  2> %pal
|  3> nprocs 24
|  4> end
|  5>
|  6> * xyz 0 1
|  7> S 	 -48.029 	 6.33583 	 -22.9507
|  8> C 	 -46.7221 	 6.65768 	 -21.822
|  9> C 	 -46.9001 	 7.83223 	 -21.0548
| 10> C 	 -48.0596 	 8.53438 	 -21.5342
| 11> C 	 -48.6921 	 7.92631 	 -22.5989
| 12> H 	 -48.449 	 9.46819 	 -21.1933
| 13> C 	 -45.9992 	 8.3264 	 -19.9147
| 14> H 	 -45.7647 	 7.38422 	 -19.4671
| 15> H 	 -46.6021 	 8.82372 	 -19.2598
| 16> C 	 -44.6985 	 9.04983 	 -20.2982
| 17> H 	 -45.0149 	 10.0684 	 -20.5886
| 18> H 	 -43.9834 	 9.14492 	 -19.5319
| 19> C 	 -43.8577 	 8.48991 	 -21.4711
| 20> H 	 -42.8005 	 8.89025 	 -21.4104
| 21> H 	 -43.8598 	 7.39198 	 -21.4587
| 22> H 	 -44.3113 	 8.67403 	 -22.5053
| 23> S 	 -51.0278 	 7.41861 	 -23.7785
| 24> C 	 -51.9482 	 8.70789 	 -24.4111
| 25> C 	 -51.2293 	 9.9092 	 -24.3664
| 26> C 	 -49.9934 	 9.7632 	 -23.7095
| 27> C 	 -49.6434 	 8.50854 	 -23.4486
| 28> H 	 -51.6123 	 10.862 	 -24.8251
| 29> C 	 -49.1389 	 11.0324 	 -23.553
| 30> H 	 -48.9631 	 11.1531 	 -22.497
| 31> H 	 -49.8015 	 11.8478 	 -23.6614
| 32> C 	 -47.8881 	 11.0896 	 -24.4355
| 33> H 	 -48.0299 	 11.3088 	 -25.529
| 34> H 	 -47.3633 	 10.0977 	 -24.2269
| 35> C 	 -46.9007 	 12.1937 	 -23.9245
| 36> H 	 -47.3496 	 13.2207 	 -24.2568
| 37> H 	 -45.918 	 12.0737 	 -24.2523
| 38> H 	 -46.7959 	 12.3035 	 -22.8261
| 39> H 	 -45.8509 	 6.05336 	 -21.7491
| 40> H 	 -52.8825 	 8.51309 	 -25.0044
| 41> *
| 42>
| 43>                          ****END OF INPUT****

CARTESIAN COORDINATES (ANGSTROEM)
---------------------------------
  S    -48.029000    6.335830  -22.950700
  C    -46.722100    6.657680  -21.822000
  C    -46.900100    7.832230  -21.054800
  C    -48.059600    8.534380  -21.534200
  C    -48.692100    7.926310  -22.598900
  H    -48.449000    9.468190  -21.193300
  C    -45.999200    8.326400  -19.914700
  H    -45.764700    7.384220  -19.467100
  H    -46.602100    8.823720  -19.259800
  C    -44.698500    9.049830  -20.298200
  H    -45.014900   10.068400  -20.588600
  H    -43.983400    9.144920  -19.531900
  C    -43.857700    8.489910  -21.471100
  H    -42.800500    8.890250  -21.410400
  H    -43.859800    7.391980  -21.458700
  H    -44.311300    8.674030  -22.505300
  S    -51.027800    7.418610  -23.778500
  C    -51.948200    8.707890  -24.411100
  C    -51.229300    9.909200  -24.366400
  C    -49.993400    9.763200  -23.709500
  C    -49.643400    8.508540  -23.448600
  H    -51.612300   10.862000  -24.825100
  C    -49.138900   11.032400  -23.553000
  H    -48.963100   11.153100  -22.497000
  H    -49.801500   11.847800  -23.661400
  C    -47.888100   11.089600  -24.435500
  H    -48.029900   11.308800  -25.529000
  H    -47.363300   10.097700  -24.226900
  C    -46.900700   12.193700  -23.924500
  H    -47.349600   13.220700  -24.256800
  H    -45.918000   12.073700  -24.252300
  H    -46.795900   12.303500  -22.826100
  H    -45.850900    6.053360  -21.749100
  H    -52.882500    8.513090  -25.004400

 Total Charge           Charge          ....    0
 Multiplicity           Mult            ....    1
 Number of Electrons    NEL             ....  134
 Basis Dimension        Dim             ....  322

ORBITAL ENERGIES
----------------

  NO   OCC          E(Eh)            E(eV)
   0   2.0000     -88.967673     -2420.9335
   1   2.0000     -88.960350     -2420.7342
   2   2.0000     -10.323181      -280.9080
   3   2.0000     -10.320271      -280.8289
   4   2.0000     -10.316885      -280.7367
   5   2.0000     -10.315105      -280.6883
   6   2.0000     -10.307711      -280.4871
   7   2.0000     -10.298655      -280.2406
   8   2.0000     -10.296576      -280.1841
   9   2.0000     -10.296121      -280.1717
  10   2.0000     -10.292059      -280.0612
  11   2.0000     -10.289273      -279.9854
  12   2.0000     -10.289064      -279.9797
  13   2.0000     -10.288951      -279.9766
  14   2.0000     -10.288770      -279.9717
  15   2.0000     -10.282920      -279.8125
  16   2.0000      -8.082265      -219.9296
  17   2.0000      -8.076033      -219.7600
  18   2.0000      -6.040736      -164.3768
  19   2.0000      -6.036932      -164.2733
  20   2.0000      -6.034528      -164.2079
  21   2.0000      -6.032950      -164.1649
  22   2.0000      -6.030394      -164.0954
  23   2.0000      -6.026753      -163.9963
  24   2.0000      -1.013279       -27.5727
  25   2.0000      -0.983040       -26.7499
  26   2.0000      -0.912600       -24.8331
  27   2.0000      -0.907386       -24.6912
  28   2.0000      -0.870719       -23.6935
  29   2.0000      -0.853742       -23.2315
  30   2.0000      -0.845456       -23.0060
  31   2.0000      -0.808945       -22.0125
  32   2.0000      -0.784942       -21.3594
  33   2.0000      -0.777286       -21.1510
  34   2.0000      -0.707690       -19.2572
  35   2.0000      -0.701426       -19.0868
  36   2.0000      -0.692730       -18.8501
  37   2.0000      -0.669124       -18.2078
  38   2.0000      -0.640763       -17.4361
  39   2.0000      -0.616208       -16.7679
  40   2.0000      -0.594326       -16.1724
  41   2.0000      -0.564575       -15.3629
  42   2.0000      -0.561723       -15.2853
  43   2.0000      -0.558969       -15.2103
  44   2.0000      -0.543183       -14.7808
  45   2.0000      -0.528502       -14.3813
  46   2.0000      -0.520046       -14.1512
  47   2.0000      -0.504776       -13.7356
  48   2.0000      -0.501527       -13.6472
  49   2.0000      -0.497691       -13.5429
  50   2.0000      -0.490328       -13.3425
  51   2.0000      -0.488199       -13.2846
  52   2.0000      -0.466814       -12.7027
  53   2.0000      -0.462114       -12.5748
  54   2.0000      -0.457803       -12.4574
  55   2.0000      -0.449305       -12.2262
  56   2.0000      -0.444461       -12.0944
  57   2.0000      -0.440730       -11.9929
  58   2.0000      -0.430050       -11.7023
  59   2.0000      -0.424751       -11.5581
  60   2.0000      -0.417784       -11.3685
  61   2.0000      -0.414123       -11.2689
  62   2.0000      -0.409409       -11.1406
  63   2.0000      -0.351968        -9.5775
  64   2.0000      -0.335024        -9.1165
  65   2.0000      -0.333534        -9.0759
  66   2.0000      -0.280968        -7.6455
  67   0.0000       0.021715         0.5909
  68   0.0000       0.067394         1.8339
  69   0.0000       0.101108         2.7513
  70   0.0000       0.119017         3.2386
  71   0.0000       0.124148         3.3782

MULLIKEN ATOMIC CHARGES
-----------------------
   0 S :    0.116021
   1 C :   -0.122850
   2 C :   -0.121314
   3 C :    0.006403
   4 C :   -0.125643
   5 H :   -0.005753
   6 C :    0.148843
   7 H :    0.017664
   8 H :    0.003241
   9 C :   -0.039961
  10 H :    0.027858
  11 H :    0.025074
  12 C :   -0.105600
  13 H :    0.052485
  14 H :    0.019872
  15 H :    0.050829
  16 S :    0.076878
  17 C :   -0.103065
  18 C :   -0.051613
  19 C :   -0.102083
  20 C :   -0.091441
  21 H :    0.036713
  22 C :    0.119890
  23 H :    0.005153
  24 H :   -0.012739
  25 C :   -0.075418
  26 H :    0.056360
  27 H :    0.057003
  28 C :   -0.072322
  29 H :    0.034731
  30 H :    0.029697
  31 H :    0.027263
  32 H :    0.037139
  33 H :    0.080686
Sum of atomic charges:    0.0000000

LOEWDIN ATOMIC CHARGES
----------------------
   0 S :    0.397663
   1 C :   -0.191821
   2 C :   -0.050657
   3 C :   -0.061121
   4 C :   -0.192233
   5 H :    0.024893
   6 C :   -0.019836
   7 H :    0.031649
   8 H :    0.020119
   9 C :   -0.037344
  10 H :    0.026434
  11 H :    0.020072
  12 C :   -0.077024
  13 H :    0.035509
  14 H :    0.018295
  15 H :    0.033437
  16 S :    0.400461
  17 C :   -0.200171
  18 C :   -0.079884
  19 C :   -0.060711
  20 C :   -0.185896
  21 H :    0.039941
  22 C :   -0.027005
  23 H :    0.027175
  24 H :    0.020861
  25 C :   -0.040565
  26 H :    0.036702
  27 H :    0.037184
  28 C :   -0.072130
  29 H :    0.031616
  30 H :    0.015284
  31 H :    0.023028
  32 H :    0.016330
  33 H :    0.039743

  Mayer bond orders larger than 0.100000
B(  0-S ,  1-C ) :   1.1415 B(  0-S ,  4-C ) :   1.1258 B(  1-C ,  2-C ) :   1.6091
B(  1-C , 32-H ) :   0.9700 B(  2-C ,  3-C ) :   1.2206 B(  2-C ,  6-C ) :   1.0064
B(  3-C ,  4-C ) :   1.5944 B(  3-C ,  5-H ) :   0.9983 B(  4-C , 20-C ) :   1.0462
B(  6-C ,  7-H ) :   0.9312 B(  6-C ,  8-H ) :   0.9414 B(  6-C ,  9-C ) :   1.0670
B(  9-C , 10-H ) :   0.9555 B(  9-C , 11-H ) :   0.9604 B(  9-C , 12-C ) :   1.0765
B( 12-C , 13-H ) :   0.9743 B( 12-C , 14-H ) :   0.9745 B( 12-C , 15-H ) :   0.9705
B( 16-S , 17-C ) :   1.1875 B( 16-S , 20-C ) :   1.0998 B( 17-C , 18-C ) :   1.5762
B( 17-C , 20-C ) :   0.1003 B( 17-C , 33-H ) :   0.9574 B( 18-C , 19-C ) :   1.2539
B( 18-C , 21-H ) :   0.9825 B( 19-C , 20-C ) :   1.6461 B( 19-C , 22-C ) :   1.0270
B( 22-C , 23-H ) :   0.9312 B( 22-C , 24-H ) :   0.9165 B( 22-C , 25-C ) :   1.0533
B( 25-C , 26-H ) :   0.9570 B( 25-C , 27-H ) :   0.9572 B( 25-C , 28-C ) :   1.0682
B( 28-C , 29-H ) :   0.9763 B( 28-C , 30-H ) :   0.9766 B( 28-C , 31-H ) :   0.9772

Dispersion correction           -0.015198461
FINAL SINGLE POINT ENERGY     -1339.852117800212

DIPOLE MOMENT
-------------
                                X             Y             Z
Electronic contribution:    -22.32023     -20.30905      -5.49053
Nuclear contribution   :     22.64054      20.93852       5.67961
                        -----------------------------------------
Total Dipole Moment    :      0.32032       0.62947       0.18909
                        -----------------------------------------
Magnitude (a.u.)       :      0.73116
Magnitude (Debye)      :      1.85845

Rotational constants in cm-1:     0.019416     0.009823     0.007222
Rotational constants in MHz :   582.088342   294.496798   216.495480

                             ****ORCA TERMINATED NORMALLY****
TOTAL RUN TIME: 0 days 0 hours 0 minutes 22 seconds 568 msec
