                         Program Version 4.2.1 -  RELEASE  -
|  1> ! wB97X-D3 SP def2-SVP
|  2> %pal
|  3> nprocs 24
|  4> end
|  5>
|  6> * xyz 0 1
|  7> S 	 -57.8119 	 12.4635 	 -90.7938
|  8> C 	 -56.1931 	 12.2005 	 -91.5408
|  9> C 	 -55.5488 	 13.3579 	 -92.0371
| 10> C 	 -56.5369 	 14.4219 	 -92.0227
| 11> C 	 -57.8362 	 14.0607 	 -91.5469
| 12> H 	 -56.3083 	 15.2972 	 -92.4902
| 13> C 	 -54.2081 	 13.5919 	 -92.7335
| 14> H 	 -53.9714 	 14.6142 	 -92.453
| 15> H 	 -54.3135 	 13.691 	 -93.848
| 16> C 	 -53.1105 	 12.4912 	 -92.4914
| 17> H 	 -52.4839 	 12.5882 	 -91.5333
| 18> H 	 -53.5912 	 11.5667 	 -92.4746
| 19> C 	 -52.0338 	 12.4107 	 -93.6113
| 20> H 	 -51.4074 	 13.3377 	 -93.7047
| 21> H 	 -51.319 	 11.6167 	 -93.4907
| 22> H 	 -52.5909 	 12.1271 	 -94.5074
| 23> S 	 -60.2104 	 14.7386 	 -90.3311
| 24> C 	 -61.2519 	 16.0313 	 -91.1463
| 25> C 	 -60.5971 	 16.4646 	 -92.2604
| 26> C 	 -59.2771 	 15.9777 	 -92.454
| 27> C 	 -58.9909 	 14.9217 	 -91.6193
| 28> H 	 -61.0445 	 17.2443 	 -92.8722
| 29> C 	 -58.4578 	 16.4755 	 -93.6547
| 30> H 	 -59.1709 	 16.8285 	 -94.4344
| 31> H 	 -57.9015 	 15.68 	 -94.104
| 32> C 	 -57.5156 	 17.6872 	 -93.3657
| 33> H 	 -56.7545 	 17.3644 	 -92.6068
| 34> H 	 -58.1901 	 18.5075 	 -93.0168
| 35> C 	 -56.7177 	 18.0305 	 -94.5667
| 36> H 	 -56.3292 	 17.1566 	 -94.9443
| 37> H 	 -55.9617 	 18.8097 	 -94.3688
| 38> H 	 -57.3411 	 18.5862 	 -95.2992
| 39> H 	 -55.8137 	 11.2115 	 -91.6232
| 40> H 	 -62.2681 	 16.4387 	 -90.7338
| 41> *
| 42>
| 43>                          ****END OF INPUT****

CARTESIAN COORDINATES (ANGSTROEM)
---------------------------------
  S    -57.811900   12.463500  -90.793800
  C    -56.193100   12.200500  -91.540800
  C    -55.548800   13.357900  -92.037100
  C    -56.536900   14.421900  -92.022700
  C    -57.836200   14.060700  -91.546900
  H    -56.308300   15.297200  -92.490200
  C    -54.208100   13.591900  -92.733500
  H    -53.971400   14.614200  -92.453000
  H    -54.313500   13.691000  -93.848000
  C    -53.110500   12.491200  -92.491400
  H    -52.483900   12.588200  -91.533300
  H    -53.591200   11.566700  -92.474600
  C    -52.033800   12.410700  -93.611300
  H    -51.407400   13.337700  -93.704700
  H    -51.319000   11.616700  -93.490700
  H    -52.590900   12.127100  -94.507400
  S    -60.210400   14.738600  -90.331100
  C    -61.251900   16.031300  -91.146300
  C    -60.597100   16.464600  -92.260400
  C    -59.277100   15.977700  -92.454000
  C    -58.990900   14.921700  -91.619300
  H    -61.044500   17.244300  -92.872200
  C    -58.457800   16.475500  -93.654700
  H    -59.170900   16.828500  -94.434400
  H    -57.901500   15.680000  -94.104000
  C    -57.515600   17.687200  -93.365700
  H    -56.754500   17.364400  -92.606800
  H    -58.190100   18.507500  -93.016800
  C    -56.717700   18.030500  -94.566700
  H    -56.329200   17.156600  -94.944300
  H    -55.961700   18.809700  -94.368800
  H    -57.341100   18.586200  -95.299200
  H    -55.813700   11.211500  -91.623200
  H    -62.268100   16.438700  -90.733800

 Total Charge           Charge          ....    0
 Multiplicity           Mult            ....    1
 Number of Electrons    NEL             ....  134
 Basis Dimension        Dim             ....  322

ORBITAL ENERGIES
----------------

  NO   OCC          E(Eh)            E(eV)
   0   2.0000     -88.972050     -2421.0526
   1   2.0000     -88.963317     -2420.8149
   2   2.0000     -10.336409      -281.2680
   3   2.0000     -10.331091      -281.1233
   4   2.0000     -10.330823      -281.1160
   5   2.0000     -10.320679      -280.8400
   6   2.0000     -10.312417      -280.6151
   7   2.0000     -10.309052      -280.5236
   8   2.0000     -10.302626      -280.3487
   9   2.0000     -10.296877      -280.1923
  10   2.0000     -10.295334      -280.1503
  11   2.0000     -10.295134      -280.1448
  12   2.0000     -10.294001      -280.1140
  13   2.0000     -10.292111      -280.0626
  14   2.0000     -10.284438      -279.8538
  15   2.0000     -10.275404      -279.6080
  16   2.0000      -8.085551      -220.0190
  17   2.0000      -8.076468      -219.7719
  18   2.0000      -6.044214      -164.4714
  19   2.0000      -6.040502      -164.3704
  20   2.0000      -6.035956      -164.2467
  21   2.0000      -6.035287      -164.2285
  22   2.0000      -6.031364      -164.1218
  23   2.0000      -6.026837      -163.9986
  24   2.0000      -0.998493       -27.1704
  25   2.0000      -0.972597       -26.4657
  26   2.0000      -0.912942       -24.8424
  27   2.0000      -0.907703       -24.6998
  28   2.0000      -0.867572       -23.6078
  29   2.0000      -0.854894       -23.2628
  30   2.0000      -0.847618       -23.0649
  31   2.0000      -0.807404       -21.9706
  32   2.0000      -0.782709       -21.2986
  33   2.0000      -0.771854       -21.0032
  34   2.0000      -0.713916       -19.4267
  35   2.0000      -0.697763       -18.9871
  36   2.0000      -0.688316       -18.7300
  37   2.0000      -0.666045       -18.1240
  38   2.0000      -0.637897       -17.3581
  39   2.0000      -0.619062       -16.8455
  40   2.0000      -0.593423       -16.1478
  41   2.0000      -0.575606       -15.6630
  42   2.0000      -0.569539       -15.4979
  43   2.0000      -0.558675       -15.2023
  44   2.0000      -0.531638       -14.4666
  45   2.0000      -0.524959       -14.2849
  46   2.0000      -0.520975       -14.1765
  47   2.0000      -0.514305       -13.9949
  48   2.0000      -0.504239       -13.7211
  49   2.0000      -0.493839       -13.4380
  50   2.0000      -0.488657       -13.2970
  51   2.0000      -0.481129       -13.0922
  52   2.0000      -0.475563       -12.9407
  53   2.0000      -0.463366       -12.6088
  54   2.0000      -0.456128       -12.4119
  55   2.0000      -0.445667       -12.1272
  56   2.0000      -0.445084       -12.1113
  57   2.0000      -0.436407       -11.8752
  58   2.0000      -0.434535       -11.8243
  59   2.0000      -0.430495       -11.7144
  60   2.0000      -0.421768       -11.4769
  61   2.0000      -0.416487       -11.3332
  62   2.0000      -0.414616       -11.2823
  63   2.0000      -0.356148        -9.6913
  64   2.0000      -0.333978        -9.0880
  65   2.0000      -0.328793        -8.9469
  66   2.0000      -0.277558        -7.5527
  67   0.0000       0.013249         0.3605
  68   0.0000       0.068322         1.8591
  69   0.0000       0.089583         2.4377
  70   0.0000       0.117023         3.1843
  71   0.0000       0.123272         3.3544

MULLIKEN ATOMIC CHARGES
-----------------------
   0 S :    0.113684
   1 C :   -0.145795
   2 C :   -0.047493
   3 C :    0.048460
   4 C :   -0.109856
   5 H :   -0.071967
   6 C :    0.043669
   7 H :    0.032967
   8 H :    0.046586
   9 C :   -0.063728
  10 H :    0.050854
  11 H :    0.019644
  12 C :   -0.080439
  13 H :    0.047002
  14 H :    0.029284
  15 H :    0.031447
  16 S :    0.063937
  17 C :   -0.129608
  18 C :   -0.012458
  19 C :   -0.032299
  20 C :   -0.103447
  21 H :    0.020402
  22 C :    0.004689
  23 H :    0.024779
  24 H :    0.023367
  25 C :   -0.100412
  26 H :    0.046669
  27 H :    0.037189
  28 C :   -0.001249
  29 H :    0.014364
  30 H :    0.036750
  31 H :    0.024508
  32 H :    0.042037
  33 H :    0.096464
Sum of atomic charges:    0.0000000

LOEWDIN ATOMIC CHARGES
----------------------
   0 S :    0.380002
   1 C :   -0.176780
   2 C :   -0.051076
   3 C :   -0.047920
   4 C :   -0.180809
   5 H :    0.004130
   6 C :   -0.033532
   7 H :    0.033805
   8 H :    0.041615
   9 C :   -0.038061
  10 H :    0.035798
  11 H :    0.015247
  12 C :   -0.071450
  13 H :    0.030779
  14 H :    0.023525
  15 H :    0.023806
  16 S :    0.337027
  17 C :   -0.172751
  18 C :   -0.069483
  19 C :   -0.062067
  20 C :   -0.170795
  21 H :    0.033276
  22 C :   -0.030715
  23 H :    0.032637
  24 H :    0.021357
  25 C :   -0.043764
  26 H :    0.026223
  27 H :    0.029164
  28 C :   -0.062171
  29 H :    0.012865
  30 H :    0.031484
  31 H :    0.028149
  32 H :    0.014438
  33 H :    0.056047

  Mayer bond orders larger than 0.100000
B(  0-S ,  1-C ) :   1.1245 B(  0-S ,  4-C ) :   1.1289 B(  1-C ,  2-C ) :   1.6110
B(  1-C , 32-H ) :   0.9697 B(  2-C ,  3-C ) :   1.2445 B(  2-C ,  6-C ) :   1.0133
B(  3-C ,  4-C ) :   1.5410 B(  3-C ,  5-H ) :   0.9928 B(  4-C , 20-C ) :   1.1112
B(  6-C ,  7-H ) :   0.9351 B(  6-C ,  8-H ) :   0.9441 B(  6-C ,  9-C ) :   1.0428
B(  9-C , 10-H ) :   0.9593 B(  9-C , 11-H ) :   0.9591 B(  9-C , 12-C ) :   1.0870
B( 12-C , 13-H ) :   0.9772 B( 12-C , 14-H ) :   0.9749 B( 12-C , 15-H ) :   0.9752
B( 16-S , 17-C ) :   1.1020 B( 16-S , 20-C ) :   1.1085 B( 17-C , 18-C ) :   1.6526
B( 17-C , 33-H ) :   0.9535 B( 18-C , 19-C ) :   1.2236 B( 18-C , 21-H ) :   0.9797
B( 19-C , 20-C ) :   1.6173 B( 19-C , 22-C ) :   1.0344 B( 22-C , 23-H ) :   0.9417
B( 22-C , 24-H ) :   0.9364 B( 22-C , 25-C ) :   1.0586 B( 25-C , 26-H ) :   0.9502
B( 25-C , 27-H ) :   0.9512 B( 25-C , 28-C ) :   1.0897 B( 28-C , 29-H ) :   0.9690
B( 28-C , 30-H ) :   0.9709 B( 28-C , 31-H ) :   0.9697

Dispersion correction           -0.013705740
FINAL SINGLE POINT ENERGY     -1339.847065590036

DIPOLE MOMENT
-------------
                                X             Y             Z
Electronic contribution:    -25.27064      -9.55820      19.50012
Nuclear contribution   :     25.75158       9.94492     -20.17596
                        -----------------------------------------
Total Dipole Moment    :      0.48093       0.38672      -0.67585
                        -----------------------------------------
Magnitude (a.u.)       :      0.91522
Magnitude (Debye)      :      2.32629

Rotational constants in cm-1:     0.018783     0.008380     0.005941
Rotational constants in MHz :   563.109014   251.222677   178.101200

                             ****ORCA TERMINATED NORMALLY****
TOTAL RUN TIME: 0 days 0 hours 0 minutes 21 seconds 315 msec
