                         Program Version 4.2.1 -  RELEASE  -
|  1> ! wB97X-D3 SP def2-SVP
|  2> %pal
|  3> nprocs 24
|  4> end
|  5>
|  6> * xyz 0 1
|  7> S 	 -104.622 	 23.5788 	 -109.036
|  8> C 	 -105.323 	 22.2545 	 -110.02
|  9> C 	 -105.456 	 22.6833 	 -111.355
| 10> C 	 -104.973 	 23.9921 	 -111.584
| 11> C 	 -104.501 	 24.5859 	 -110.441
| 12> H 	 -104.787 	 24.4984 	 -112.564
| 13> C 	 -105.95 	 21.769 	 -112.431
| 14> H 	 -106.521 	 22.4102 	 -113.122
| 15> H 	 -106.759 	 21.1752 	 -112.054
| 16> C 	 -104.822 	 21.2274 	 -113.272
| 17> H 	 -105.306 	 20.9422 	 -114.249
| 18> H 	 -104.101 	 22.0452 	 -113.37
| 19> C 	 -104.098 	 19.9576 	 -112.747
| 20> H 	 -104.812 	 19.2928 	 -112.268
| 21> H 	 -103.626 	 19.3941 	 -113.549
| 22> H 	 -103.315 	 20.0784 	 -111.983
| 23> S 	 -105.063 	 26.8259 	 -109.122
| 24> C 	 -104.175 	 28.3219 	 -109.349
| 25> C 	 -103.122 	 28.1044 	 -110.182
| 26> C 	 -103.087 	 26.7741 	 -110.802
| 27> C 	 -104.055 	 25.9441 	 -110.265
| 28> H 	 -102.356 	 28.8295 	 -110.245
| 29> C 	 -102.072 	 26.3266 	 -111.911
| 30> H 	 -102.356 	 25.3042 	 -112.229
| 31> H 	 -101.181 	 26.1729 	 -111.274
| 32> C 	 -101.718 	 27.3481 	 -113.074
| 33> H 	 -100.997 	 28.0792 	 -112.764
| 34> H 	 -102.619 	 27.852 	 -113.402
| 35> C 	 -101.176 	 26.6249 	 -114.367
| 36> H 	 -100.946 	 27.315 	 -115.121
| 37> H 	 -101.979 	 25.8901 	 -114.713
| 38> H 	 -100.186 	 26.0635 	 -114.345
| 39> H 	 -105.52 	 21.2531 	 -109.694
| 40> H 	 -104.325 	 29.2436 	 -108.833
| 41> *
| 42>
| 43>                          ****END OF INPUT****

CARTESIAN COORDINATES (ANGSTROEM)
---------------------------------
  S    -104.622000   23.578800  -109.036000
  C    -105.323000   22.254500  -110.020000
  C    -105.456000   22.683300  -111.355000
  C    -104.973000   23.992100  -111.584000
  C    -104.501000   24.585900  -110.441000
  H    -104.787000   24.498400  -112.564000
  C    -105.950000   21.769000  -112.431000
  H    -106.521000   22.410200  -113.122000
  H    -106.759000   21.175200  -112.054000
  C    -104.822000   21.227400  -113.272000
  H    -105.306000   20.942200  -114.249000
  H    -104.101000   22.045200  -113.370000
  C    -104.098000   19.957600  -112.747000
  H    -104.812000   19.292800  -112.268000
  H    -103.626000   19.394100  -113.549000
  H    -103.315000   20.078400  -111.983000
  S    -105.063000   26.825900  -109.122000
  C    -104.175000   28.321900  -109.349000
  C    -103.122000   28.104400  -110.182000
  C    -103.087000   26.774100  -110.802000
  C    -104.055000   25.944100  -110.265000
  H    -102.356000   28.829500  -110.245000
  C    -102.072000   26.326600  -111.911000
  H    -102.356000   25.304200  -112.229000
  H    -101.181000   26.172900  -111.274000
  C    -101.718000   27.348100  -113.074000
  H    -100.997000   28.079200  -112.764000
  H    -102.619000   27.852000  -113.402000
  C    -101.176000   26.624900  -114.367000
  H    -100.946000   27.315000  -115.121000
  H    -101.979000   25.890100  -114.713000
  H    -100.186000   26.063500  -114.345000
  H    -105.520000   21.253100  -109.694000
  H    -104.325000   29.243600  -108.833000

 Total Charge           Charge          ....    0
 Multiplicity           Mult            ....    1
 Number of Electrons    NEL             ....  134
 Basis Dimension        Dim             ....  322

ORBITAL ENERGIES
----------------

  NO   OCC          E(Eh)            E(eV)
   0   2.0000     -88.967288     -2420.9230
   1   2.0000     -88.958614     -2420.6870
   2   2.0000     -10.326924      -281.0099
   3   2.0000     -10.323661      -280.9211
   4   2.0000     -10.315704      -280.7046
   5   2.0000     -10.313243      -280.6376
   6   2.0000     -10.310541      -280.5641
   7   2.0000     -10.303282      -280.3666
   8   2.0000     -10.301035      -280.3054
   9   2.0000     -10.297367      -280.2056
  10   2.0000     -10.295468      -280.1539
  11   2.0000     -10.294328      -280.1229
  12   2.0000     -10.291916      -280.0573
  13   2.0000     -10.288458      -279.9632
  14   2.0000     -10.286804      -279.9182
  15   2.0000     -10.277210      -279.6571
  16   2.0000      -8.081540      -219.9099
  17   2.0000      -8.073479      -219.6905
  18   2.0000      -6.040040      -164.3578
  19   2.0000      -6.036077      -164.2500
  20   2.0000      -6.032357      -164.1488
  21   2.0000      -6.032167      -164.1436
  22   2.0000      -6.027906      -164.0277
  23   2.0000      -6.024059      -163.9230
  24   2.0000      -1.007106       -27.4048
  25   2.0000      -0.979820       -26.6623
  26   2.0000      -0.916866       -24.9492
  27   2.0000      -0.895276       -24.3617
  28   2.0000      -0.868717       -23.6390
  29   2.0000      -0.847809       -23.0700
  30   2.0000      -0.840408       -22.8687
  31   2.0000      -0.816270       -22.2118
  32   2.0000      -0.784177       -21.3385
  33   2.0000      -0.771046       -20.9812
  34   2.0000      -0.711585       -19.3632
  35   2.0000      -0.702657       -19.1203
  36   2.0000      -0.694549       -18.8996
  37   2.0000      -0.657217       -17.8838
  38   2.0000      -0.642414       -17.4810
  39   2.0000      -0.618835       -16.8393
  40   2.0000      -0.588944       -16.0260
  41   2.0000      -0.572797       -15.5866
  42   2.0000      -0.563551       -15.3350
  43   2.0000      -0.542126       -14.7520
  44   2.0000      -0.536351       -14.5948
  45   2.0000      -0.524520       -14.2729
  46   2.0000      -0.522455       -14.2167
  47   2.0000      -0.516784       -14.0624
  48   2.0000      -0.505174       -13.7465
  49   2.0000      -0.493493       -13.4286
  50   2.0000      -0.482353       -13.1255
  51   2.0000      -0.479672       -13.0525
  52   2.0000      -0.474659       -12.9161
  53   2.0000      -0.465238       -12.6598
  54   2.0000      -0.455235       -12.3876
  55   2.0000      -0.447802       -12.1853
  56   2.0000      -0.445073       -12.1111
  57   2.0000      -0.437694       -11.9103
  58   2.0000      -0.434556       -11.8249
  59   2.0000      -0.424863       -11.5611
  60   2.0000      -0.423815       -11.5326
  61   2.0000      -0.413959       -11.2644
  62   2.0000      -0.407376       -11.0853
  63   2.0000      -0.344467        -9.3734
  64   2.0000      -0.332240        -9.0407
  65   2.0000      -0.322158        -8.7664
  66   2.0000      -0.294226        -8.0063
  67   0.0000       0.036465         0.9923
  68   0.0000       0.066148         1.8000
  69   0.0000       0.113850         3.0980
  70   0.0000       0.120731         3.2852
  71   0.0000       0.123487         3.3602

MULLIKEN ATOMIC CHARGES
-----------------------
   0 S :    0.115782
   1 C :   -0.110510
   2 C :   -0.117344
   3 C :    0.038560
   4 C :   -0.173671
   5 H :    0.034387
   6 C :    0.078487
   7 H :    0.015604
   8 H :    0.020984
   9 C :   -0.059706
  10 H :    0.039697
  11 H :    0.034228
  12 C :   -0.051638
  13 H :    0.018082
  14 H :    0.034038
  15 H :    0.036609
  16 S :    0.090596
  17 C :   -0.072171
  18 C :   -0.029770
  19 C :   -0.039294
  20 C :   -0.165164
  21 H :    0.005420
  22 C :    0.052419
  23 H :    0.023939
  24 H :    0.044732
  25 C :   -0.047023
  26 H :    0.035352
  27 H :    0.041555
  28 C :   -0.094683
  29 H :    0.025552
  30 H :    0.044367
  31 H :    0.040252
  32 H :    0.040044
  33 H :    0.050287
Sum of atomic charges:   -0.0000000

LOEWDIN ATOMIC CHARGES
----------------------
   0 S :    0.403247
   1 C :   -0.190614
   2 C :   -0.057940
   3 C :   -0.072299
   4 C :   -0.200211
   5 H :    0.042019
   6 C :   -0.040223
   7 H :    0.035813
   8 H :    0.028505
   9 C :   -0.035954
  10 H :    0.032154
  11 H :    0.028684
  12 C :   -0.073373
  13 H :    0.021847
  14 H :    0.026855
  15 H :    0.027072
  16 S :    0.392959
  17 C :   -0.178367
  18 C :   -0.070439
  19 C :   -0.054221
  20 C :   -0.199462
  21 H :    0.023338
  22 C :   -0.034880
  23 H :    0.029917
  24 H :    0.040795
  25 C :   -0.033718
  26 H :    0.022897
  27 H :    0.027689
  28 C :   -0.075221
  29 H :    0.016916
  30 H :    0.032035
  31 H :    0.031432
  32 H :    0.024310
  33 H :    0.028438

  Mayer bond orders larger than 0.100000
B(  0-S ,  1-C ) :   1.1203 B(  0-S ,  4-C ) :   1.1677 B(  1-C ,  2-C ) :   1.6026
B(  1-C ,  4-C ) :   0.1049 B(  1-C , 32-H ) :   0.9748 B(  2-C ,  3-C ) :   1.2421
B(  2-C ,  6-C ) :   1.0331 B(  3-C ,  4-C ) :   1.5758 B(  3-C ,  5-H ) :   0.9823
B(  4-C , 20-C ) :   1.0097 B(  6-C ,  7-H ) :   0.9303 B(  6-C ,  8-H ) :   0.9408
B(  6-C ,  9-C ) :   1.0644 B(  9-C , 10-H ) :   0.9570 B(  9-C , 11-H ) :   0.9528
B(  9-C , 12-C ) :   1.0720 B( 12-C , 13-H ) :   0.9762 B( 12-C , 14-H ) :   0.9765
B( 12-C , 15-H ) :   0.9755 B( 16-S , 17-C ) :   1.1343 B( 16-S , 20-C ) :   1.1321
B( 17-C , 18-C ) :   1.6495 B( 17-C , 33-H ) :   0.9698 B( 18-C , 19-C ) :   1.1936
B( 18-C , 21-H ) :   0.9933 B( 19-C , 20-C ) :   1.6424 B( 19-C , 22-C ) :   1.0275
B( 22-C , 23-H ) :   0.9468 B( 22-C , 24-H ) :   0.9329 B( 22-C , 25-C ) :   1.0413
B( 25-C , 26-H ) :   0.9532 B( 25-C , 27-H ) :   0.9647 B( 25-C , 28-C ) :   1.0783
B( 28-C , 29-H ) :   0.9756 B( 28-C , 30-H ) :   0.9781 B( 28-C , 31-H ) :   0.9762

Dispersion correction           -0.013937204
FINAL SINGLE POINT ENERGY     -1339.868258974959

DIPOLE MOMENT
-------------
                                X             Y             Z
Electronic contribution:    -11.12372       9.87659      25.64569
Nuclear contribution   :     11.46349      -9.91109     -26.27279
                        -----------------------------------------
Total Dipole Moment    :      0.33978      -0.03450      -0.62710
                        -----------------------------------------
Magnitude (a.u.)       :      0.71407
Magnitude (Debye)      :      1.81501

Rotational constants in cm-1:     0.016960     0.009128     0.006416
Rotational constants in MHz :   508.452889   273.661071   192.334678

                             ****ORCA TERMINATED NORMALLY****
TOTAL RUN TIME: 0 days 0 hours 0 minutes 21 seconds 194 msec
