                         Program Version 4.2.1 -  RELEASE  -
|  1> ! wB97X-D3 SP def2-SVP
|  2> %pal
|  3> nprocs 24
|  4> end
|  5>
|  6> * xyz 0 1
|  7> S 	 -58.8974 	 -53.4292 	 -83.7378
|  8> C 	 -58.2795 	 -52.7244 	 -82.2512
|  9> C 	 -57.6206 	 -53.6495 	 -81.4893
| 10> C 	 -57.5019 	 -54.9428 	 -82.0823
| 11> C 	 -58.1798 	 -55.006 	 -83.3013
| 12> H 	 -57.034 	 -55.8056 	 -81.5997
| 13> C 	 -57.1392 	 -53.4632 	 -80.1411
| 14> H 	 -57.0151 	 -54.4645 	 -79.6363
| 15> H 	 -58.0261 	 -53.1189 	 -79.5902
| 16> C 	 -55.8567 	 -52.6231 	 -80.025
| 17> H 	 -55.1257 	 -53.0374 	 -80.7307
| 18> H 	 -55.9557 	 -51.6491 	 -80.5411
| 19> C 	 -55.334 	 -52.4087 	 -78.5657
| 20> H 	 -56.0612 	 -51.6604 	 -78.2062
| 21> H 	 -55.4676 	 -53.3414 	 -78.041
| 22> H 	 -54.3485 	 -51.8891 	 -78.5074
| 23> S 	 -58.5806 	 -57.7461 	 -83.4067
| 24> C 	 -58.475 	 -58.5874 	 -84.9116
| 25> C 	 -58.5259 	 -57.7277 	 -85.9716
| 26> C 	 -58.508 	 -56.3331 	 -85.5564
| 27> C 	 -58.2943 	 -56.212 	 -84.1415
| 28> H 	 -58.5831 	 -58.0305 	 -87.0166
| 29> C 	 -58.487 	 -55.2942 	 -86.631
| 30> H 	 -58.007 	 -55.7066 	 -87.4807
| 31> H 	 -58.021 	 -54.4018 	 -86.3385
| 32> C 	 -59.9495 	 -54.786 	 -86.9371
| 33> H 	 -60.4254 	 -54.3702 	 -86.0338
| 34> H 	 -60.5464 	 -55.6833 	 -87.0634
| 35> C 	 -60.0844 	 -53.7698 	 -88.1215
| 36> H 	 -59.708 	 -52.8141 	 -87.8285
| 37> H 	 -61.1751 	 -53.7321 	 -88.3403
| 38> H 	 -59.6251 	 -54.1933 	 -88.9657
| 39> H 	 -58.3909 	 -51.7164 	 -81.8939
| 40> H 	 -58.7032 	 -59.6422 	 -84.9645
| 41> *
| 42>
| 43>                          ****END OF INPUT****

CARTESIAN COORDINATES (ANGSTROEM)
---------------------------------
  S    -58.897400  -53.429200  -83.737800
  C    -58.279500  -52.724400  -82.251200
  C    -57.620600  -53.649500  -81.489300
  C    -57.501900  -54.942800  -82.082300
  C    -58.179800  -55.006000  -83.301300
  H    -57.034000  -55.805600  -81.599700
  C    -57.139200  -53.463200  -80.141100
  H    -57.015100  -54.464500  -79.636300
  H    -58.026100  -53.118900  -79.590200
  C    -55.856700  -52.623100  -80.025000
  H    -55.125700  -53.037400  -80.730700
  H    -55.955700  -51.649100  -80.541100
  C    -55.334000  -52.408700  -78.565700
  H    -56.061200  -51.660400  -78.206200
  H    -55.467600  -53.341400  -78.041000
  H    -54.348500  -51.889100  -78.507400
  S    -58.580600  -57.746100  -83.406700
  C    -58.475000  -58.587400  -84.911600
  C    -58.525900  -57.727700  -85.971600
  C    -58.508000  -56.333100  -85.556400
  C    -58.294300  -56.212000  -84.141500
  H    -58.583100  -58.030500  -87.016600
  C    -58.487000  -55.294200  -86.631000
  H    -58.007000  -55.706600  -87.480700
  H    -58.021000  -54.401800  -86.338500
  C    -59.949500  -54.786000  -86.937100
  H    -60.425400  -54.370200  -86.033800
  H    -60.546400  -55.683300  -87.063400
  C    -60.084400  -53.769800  -88.121500
  H    -59.708000  -52.814100  -87.828500
  H    -61.175100  -53.732100  -88.340300
  H    -59.625100  -54.193300  -88.965700
  H    -58.390900  -51.716400  -81.893900
  H    -58.703200  -59.642200  -84.964500

 Total Charge           Charge          ....    0
 Multiplicity           Mult            ....    1
 Number of Electrons    NEL             ....  134
 Basis Dimension        Dim             ....  322

ORBITAL ENERGIES
----------------

  NO   OCC          E(Eh)            E(eV)
   0   2.0000     -88.972447     -2421.0634
   1   2.0000     -88.965552     -2420.8757
   2   2.0000     -10.336594      -281.2730
   3   2.0000     -10.330517      -281.1077
   4   2.0000     -10.313540      -280.6457
   5   2.0000     -10.311394      -280.5873
   6   2.0000     -10.305809      -280.4353
   7   2.0000     -10.295140      -280.1450
   8   2.0000     -10.294466      -280.1267
   9   2.0000     -10.293189      -280.0919
  10   2.0000     -10.290637      -280.0225
  11   2.0000     -10.290344      -280.0145
  12   2.0000     -10.285114      -279.8722
  13   2.0000     -10.284600      -279.8582
  14   2.0000     -10.282188      -279.7926
  15   2.0000     -10.275586      -279.6129
  16   2.0000      -8.085506      -220.0178
  17   2.0000      -8.081017      -219.8956
  18   2.0000      -6.044269      -164.4729
  19   2.0000      -6.040225      -164.3629
  20   2.0000      -6.039495      -164.3430
  21   2.0000      -6.036142      -164.2518
  22   2.0000      -6.035485      -164.2339
  23   2.0000      -6.031715      -164.1313
  24   2.0000      -1.005139       -27.3512
  25   2.0000      -0.985741       -26.8234
  26   2.0000      -0.913441       -24.8560
  27   2.0000      -0.905219       -24.6323
  28   2.0000      -0.867633       -23.6095
  29   2.0000      -0.851823       -23.1793
  30   2.0000      -0.844903       -22.9910
  31   2.0000      -0.814289       -22.1579
  32   2.0000      -0.781511       -21.2660
  33   2.0000      -0.768077       -20.9004
  34   2.0000      -0.707939       -19.2640
  35   2.0000      -0.703699       -19.1486
  36   2.0000      -0.693061       -18.8591
  37   2.0000      -0.664537       -18.0830
  38   2.0000      -0.634438       -17.2639
  39   2.0000      -0.616339       -16.7714
  40   2.0000      -0.600124       -16.3302
  41   2.0000      -0.571748       -15.5581
  42   2.0000      -0.561813       -15.2877
  43   2.0000      -0.551662       -15.0115
  44   2.0000      -0.527407       -14.3515
  45   2.0000      -0.521314       -14.1857
  46   2.0000      -0.514251       -13.9935
  47   2.0000      -0.511430       -13.9167
  48   2.0000      -0.508027       -13.8241
  49   2.0000      -0.502981       -13.6868
  50   2.0000      -0.499029       -13.5793
  51   2.0000      -0.479384       -13.0447
  52   2.0000      -0.472111       -12.8468
  53   2.0000      -0.467231       -12.7140
  54   2.0000      -0.458236       -12.4692
  55   2.0000      -0.451002       -12.2724
  56   2.0000      -0.443960       -12.0808
  57   2.0000      -0.437442       -11.9034
  58   2.0000      -0.435396       -11.8477
  59   2.0000      -0.427137       -11.6230
  60   2.0000      -0.420271       -11.4362
  61   2.0000      -0.410019       -11.1572
  62   2.0000      -0.402928       -10.9642
  63   2.0000      -0.356230        -9.6935
  64   2.0000      -0.332484        -9.0474
  65   2.0000      -0.325090        -8.8461
  66   2.0000      -0.283777        -7.7220
  67   0.0000       0.020741         0.5644
  68   0.0000       0.079593         2.1658
  69   0.0000       0.102259         2.7826
  70   0.0000       0.117456         3.1961
  71   0.0000       0.122909         3.3445

MULLIKEN ATOMIC CHARGES
-----------------------
   0 S :    0.103183
   1 C :   -0.103227
   2 C :   -0.080071
   3 C :   -0.010969
   4 C :   -0.111537
   5 H :    0.027102
   6 C :    0.036056
   7 H :    0.021502
   8 H :    0.031767
   9 C :   -0.093559
  10 H :    0.024394
  11 H :    0.020347
  12 C :   -0.029311
  13 H :    0.032082
  14 H :    0.039504
  15 H :    0.052136
  16 S :    0.104344
  17 C :   -0.080455
  18 C :   -0.032393
  19 C :   -0.082654
  20 C :   -0.129900
  21 H :    0.024776
  22 C :    0.106348
  23 H :    0.016985
  24 H :    0.005331
  25 C :   -0.136093
  26 H :    0.028615
  27 H :    0.013863
  28 C :    0.006516
  29 H :    0.038458
  30 H :    0.037893
  31 H :    0.020794
  32 H :    0.037209
  33 H :    0.060963
Sum of atomic charges:   -0.0000000

LOEWDIN ATOMIC CHARGES
----------------------
   0 S :    0.402960
   1 C :   -0.197918
   2 C :   -0.065896
   3 C :   -0.065887
   4 C :   -0.172688
   5 H :    0.034944
   6 C :   -0.044079
   7 H :    0.034100
   8 H :    0.034894
   9 C :   -0.047756
  10 H :    0.023719
  11 H :    0.023003
  12 C :   -0.067206
  13 H :    0.030601
  14 H :    0.024219
  15 H :    0.034986
  16 S :    0.428316
  17 C :   -0.195481
  18 C :   -0.068346
  19 C :   -0.052342
  20 C :   -0.207550
  21 H :    0.033575
  22 C :   -0.030262
  23 H :    0.025340
  24 H :    0.015240
  25 C :   -0.041415
  26 H :    0.016821
  27 H :    0.015806
  28 C :   -0.055009
  29 H :    0.023423
  30 H :    0.035219
  31 H :    0.017227
  32 H :    0.028374
  33 H :    0.029067

  Mayer bond orders larger than 0.100000
B(  0-S ,  1-C ) :   1.1133 B(  0-S ,  4-C ) :   1.1396 B(  1-C ,  2-C ) :   1.6280
B(  1-C , 32-H ) :   0.9656 B(  2-C ,  3-C ) :   1.2410 B(  2-C ,  6-C ) :   1.0268
B(  3-C ,  4-C ) :   1.5440 B(  3-C ,  5-H ) :   0.9904 B(  4-C , 20-C ) :   1.0767
B(  6-C ,  7-H ) :   0.9393 B(  6-C ,  8-H ) :   0.9343 B(  6-C ,  9-C ) :   1.0451
B(  9-C , 10-H ) :   0.9530 B(  9-C , 11-H ) :   0.9595 B(  9-C , 12-C ) :   1.0598
B( 12-C , 13-H ) :   0.9774 B( 12-C , 14-H ) :   0.9763 B( 12-C , 15-H ) :   0.9741
B( 16-S , 17-C ) :   1.1585 B( 16-S , 20-C ) :   1.1598 B( 17-C , 18-C ) :   1.5864
B( 17-C , 33-H ) :   0.9665 B( 18-C , 19-C ) :   1.2633 B( 18-C , 21-H ) :   0.9886
B( 19-C , 20-C ) :   1.5213 B( 19-C , 22-C ) :   1.0677 B( 22-C , 23-H ) :   0.9389
B( 22-C , 24-H ) :   0.9302 B( 22-C , 25-C ) :   1.0388 B( 25-C , 26-H ) :   0.9544
B( 25-C , 27-H ) :   0.9592 B( 25-C , 28-C ) :   1.0738 B( 28-C , 29-H ) :   0.9761
B( 28-C , 30-H ) :   0.9738 B( 28-C , 31-H ) :   0.9757

Dispersion correction           -0.013969428
FINAL SINGLE POINT ENERGY     -1339.872841926777

DIPOLE MOMENT
-------------
                                X             Y             Z
Electronic contribution:     -4.96872     -13.29485      -1.40596
Nuclear contribution   :      4.96776      13.40373       1.41771
                        -----------------------------------------
Total Dipole Moment    :     -0.00097       0.10888       0.01175
                        -----------------------------------------
Magnitude (a.u.)       :      0.10952
Magnitude (Debye)      :      0.27838

Rotational constants in cm-1:     0.022107     0.007484     0.005877
Rotational constants in MHz :   662.753265   224.367297   176.187197

                             ****ORCA TERMINATED NORMALLY****
TOTAL RUN TIME: 0 days 0 hours 0 minutes 21 seconds 131 msec
