                         Program Version 4.2.1 -  RELEASE  -
|  1> ! wB97X-D3 SP def2-SVP
|  2> %pal
|  3> nprocs 24
|  4> end
|  5>
|  6> * xyz 0 1
|  7> S 	 -105.821 	 58.3744 	 -101.961
|  8> C 	 -105.907 	 56.8579 	 -101.134
|  9> C 	 -106.705 	 56.9533 	 -100.024
| 10> C 	 -107.257 	 58.25 	 -99.8128
| 11> C 	 -106.872 	 59.1674 	 -100.811
| 12> H 	 -107.978 	 58.5928 	 -99.1054
| 13> C 	 -107.036 	 55.8158 	 -99.0621
| 14> H 	 -106.415 	 54.9941 	 -99.5046
| 15> H 	 -108.05 	 55.6126 	 -99.1922
| 16> C 	 -106.795 	 56.1013 	 -97.5667
| 17> H 	 -105.815 	 56.4551 	 -97.2172
| 18> H 	 -107.45 	 56.9618 	 -97.2425
| 19> C 	 -107.015 	 54.9674 	 -96.66
| 20> H 	 -106.304 	 54.2048 	 -96.9928
| 21> H 	 -106.841 	 55.2446 	 -95.5609
| 22> H 	 -108.067 	 54.6585 	 -96.8043
| 23> S 	 -106.052 	 61.6748 	 -101.41
| 24> C 	 -106.948 	 63.1022 	 -101.041
| 25> C 	 -108.217 	 62.6741 	 -100.706
| 26> C 	 -108.454 	 61.2247 	 -100.674
| 27> C 	 -107.272 	 60.546 	 -100.93
| 28> H 	 -108.921 	 63.3424 	 -100.289
| 29> C 	 -109.809 	 60.6874 	 -100.32
| 30> H 	 -109.72 	 59.5979 	 -100.384
| 31> H 	 -110.415 	 61.1874 	 -101.094
| 32> C 	 -110.352 	 61.034 	 -98.9409
| 33> H 	 -110.511 	 62.0794 	 -98.7701
| 34> H 	 -109.807 	 60.6283 	 -98.1322
| 35> C 	 -111.764 	 60.4101 	 -98.8312
| 36> H 	 -112.469 	 60.7871 	 -99.479
| 37> H 	 -112.179 	 60.596 	 -97.8816
| 38> H 	 -111.524 	 59.34 	 -98.9304
| 39> H 	 -105.602 	 55.903 	 -101.439
| 40> H 	 -106.655 	 64.0867 	 -100.796
| 41> *
| 42>
| 43>                          ****END OF INPUT****

CARTESIAN COORDINATES (ANGSTROEM)
---------------------------------
  S    -105.821000   58.374400  -101.961000
  C    -105.907000   56.857900  -101.134000
  C    -106.705000   56.953300  -100.024000
  C    -107.257000   58.250000  -99.812800
  C    -106.872000   59.167400  -100.811000
  H    -107.978000   58.592800  -99.105400
  C    -107.036000   55.815800  -99.062100
  H    -106.415000   54.994100  -99.504600
  H    -108.050000   55.612600  -99.192200
  C    -106.795000   56.101300  -97.566700
  H    -105.815000   56.455100  -97.217200
  H    -107.450000   56.961800  -97.242500
  C    -107.015000   54.967400  -96.660000
  H    -106.304000   54.204800  -96.992800
  H    -106.841000   55.244600  -95.560900
  H    -108.067000   54.658500  -96.804300
  S    -106.052000   61.674800  -101.410000
  C    -106.948000   63.102200  -101.041000
  C    -108.217000   62.674100  -100.706000
  C    -108.454000   61.224700  -100.674000
  C    -107.272000   60.546000  -100.930000
  H    -108.921000   63.342400  -100.289000
  C    -109.809000   60.687400  -100.320000
  H    -109.720000   59.597900  -100.384000
  H    -110.415000   61.187400  -101.094000
  C    -110.352000   61.034000  -98.940900
  H    -110.511000   62.079400  -98.770100
  H    -109.807000   60.628300  -98.132200
  C    -111.764000   60.410100  -98.831200
  H    -112.469000   60.787100  -99.479000
  H    -112.179000   60.596000  -97.881600
  H    -111.524000   59.340000  -98.930400
  H    -105.602000   55.903000  -101.439000
  H    -106.655000   64.086700  -100.796000

 Total Charge           Charge          ....    0
 Multiplicity           Mult            ....    1
 Number of Electrons    NEL             ....  134
 Basis Dimension        Dim             ....  322

ORBITAL ENERGIES
----------------

  NO   OCC          E(Eh)            E(eV)
   0   2.0000     -88.968623     -2420.9593
   1   2.0000     -88.960609     -2420.7412
   2   2.0000     -10.333034      -281.1762
   3   2.0000     -10.326664      -281.0028
   4   2.0000     -10.314048      -280.6595
   5   2.0000     -10.308708      -280.5142
   6   2.0000     -10.304297      -280.3942
   7   2.0000     -10.299836      -280.2728
   8   2.0000     -10.295791      -280.1627
   9   2.0000     -10.295498      -280.1547
  10   2.0000     -10.294049      -280.1153
  11   2.0000     -10.290825      -280.0276
  12   2.0000     -10.287310      -279.9319
  13   2.0000     -10.284247      -279.8486
  14   2.0000     -10.282320      -279.7961
  15   2.0000     -10.270308      -279.4693
  16   2.0000      -8.083467      -219.9623
  17   2.0000      -8.076336      -219.7683
  18   2.0000      -6.042028      -164.4120
  19   2.0000      -6.037894      -164.2995
  20   2.0000      -6.035045      -164.2219
  21   2.0000      -6.034214      -164.1993
  22   2.0000      -6.030551      -164.0996
  23   2.0000      -6.026928      -164.0010
  24   2.0000      -1.011318       -27.5194
  25   2.0000      -0.988186       -26.8899
  26   2.0000      -0.919407       -25.0183
  27   2.0000      -0.917327       -24.9617
  28   2.0000      -0.878963       -23.9178
  29   2.0000      -0.858289       -23.3552
  30   2.0000      -0.849323       -23.1113
  31   2.0000      -0.820015       -22.3137
  32   2.0000      -0.781390       -21.2627
  33   2.0000      -0.774458       -21.0741
  34   2.0000      -0.714956       -19.4549
  35   2.0000      -0.704328       -19.1657
  36   2.0000      -0.688557       -18.7366
  37   2.0000      -0.665767       -18.1164
  38   2.0000      -0.643797       -17.5186
  39   2.0000      -0.619177       -16.8487
  40   2.0000      -0.598376       -16.2826
  41   2.0000      -0.581781       -15.8311
  42   2.0000      -0.578541       -15.7429
  43   2.0000      -0.565368       -15.3844
  44   2.0000      -0.534827       -14.5534
  45   2.0000      -0.531673       -14.4675
  46   2.0000      -0.524237       -14.2652
  47   2.0000      -0.517371       -14.0784
  48   2.0000      -0.515169       -14.0185
  49   2.0000      -0.510743       -13.8980
  50   2.0000      -0.504601       -13.7309
  51   2.0000      -0.475658       -12.9433
  52   2.0000      -0.474469       -12.9110
  53   2.0000      -0.464738       -12.6462
  54   2.0000      -0.458659       -12.4808
  55   2.0000      -0.449111       -12.2209
  56   2.0000      -0.445058       -12.1106
  57   2.0000      -0.442454       -12.0398
  58   2.0000      -0.432236       -11.7617
  59   2.0000      -0.425715       -11.5843
  60   2.0000      -0.419885       -11.4256
  61   2.0000      -0.411335       -11.1930
  62   2.0000      -0.406054       -11.0493
  63   2.0000      -0.358220        -9.7477
  64   2.0000      -0.332624        -9.0512
  65   2.0000      -0.322669        -8.7803
  66   2.0000      -0.288950        -7.8627
  67   0.0000       0.028011         0.7622
  68   0.0000       0.070907         1.9295
  69   0.0000       0.115809         3.1513
  70   0.0000       0.119915         3.2631
  71   0.0000       0.122033         3.3207

MULLIKEN ATOMIC CHARGES
-----------------------
   0 S :    0.121805
   1 C :   -0.079983
   2 C :   -0.110977
   3 C :    0.024662
   4 C :   -0.148839
   5 H :   -0.002397
   6 C :    0.121025
   7 H :    0.016690
   8 H :    0.021557
   9 C :   -0.104060
  10 H :    0.026240
  11 H :    0.026443
  12 C :   -0.058220
  13 H :    0.034982
  14 H :    0.051659
  15 H :    0.026760
  16 S :    0.093517
  17 C :   -0.051555
  18 C :   -0.051236
  19 C :   -0.047960
  20 C :   -0.140222
  21 H :    0.004219
  22 C :    0.056092
  23 H :    0.021692
  24 H :    0.045295
  25 C :   -0.064421
  26 H :    0.022291
  27 H :    0.024121
  28 C :   -0.012367
  29 H :    0.018437
  30 H :    0.015929
  31 H :    0.027231
  32 H :    0.021198
  33 H :    0.050391
Sum of atomic charges:   -0.0000000

LOEWDIN ATOMIC CHARGES
----------------------
   0 S :    0.420070
   1 C :   -0.204445
   2 C :   -0.059495
   3 C :   -0.065245
   4 C :   -0.187721
   5 H :    0.024447
   6 C :   -0.022747
   7 H :    0.033040
   8 H :    0.025891
   9 C :   -0.054902
  10 H :    0.026460
  11 H :    0.024749
  12 C :   -0.068764
  13 H :    0.026135
  14 H :    0.037183
  15 H :    0.021891
  16 S :    0.416587
  17 C :   -0.192034
  18 C :   -0.066378
  19 C :   -0.059390
  20 C :   -0.205405
  21 H :    0.018202
  22 C :   -0.032423
  23 H :    0.030622
  24 H :    0.044899
  25 C :   -0.030517
  26 H :    0.018473
  27 H :    0.019100
  28 C :   -0.050831
  29 H :    0.013213
  30 H :    0.018715
  31 H :    0.027970
  32 H :    0.021129
  33 H :    0.031522

  Mayer bond orders larger than 0.100000
B(  0-S ,  1-C ) :   1.1260 B(  0-S ,  4-C ) :   1.1628 B(  1-C ,  2-C ) :   1.6308
B(  1-C , 32-H ) :   0.9659 B(  2-C ,  3-C ) :   1.2352 B(  2-C ,  6-C ) :   1.0202
B(  3-C ,  4-C ) :   1.5558 B(  3-C ,  5-H ) :   0.9979 B(  4-C , 20-C ) :   1.0555
B(  6-C ,  7-H ) :   0.9408 B(  6-C ,  8-H ) :   0.9273 B(  6-C ,  9-C ) :   1.0552
B(  9-C , 10-H ) :   0.9586 B(  9-C , 11-H ) :   0.9469 B(  9-C , 12-C ) :   1.0933
B( 12-C , 13-H ) :   0.9733 B( 12-C , 14-H ) :   0.9722 B( 12-C , 15-H ) :   0.9722
B( 16-S , 17-C ) :   1.1453 B( 16-S , 20-C ) :   1.1365 B( 17-C , 18-C ) :   1.6206
B( 17-C , 33-H ) :   0.9719 B( 18-C , 19-C ) :   1.2259 B( 18-C , 21-H ) :   0.9867
B( 19-C , 20-C ) :   1.5845 B( 19-C , 22-C ) :   1.0431 B( 22-C , 23-H ) :   0.9321
B( 22-C , 24-H ) :   0.9266 B( 22-C , 25-C ) :   1.0851 B( 25-C , 26-H ) :   0.9501
B( 25-C , 27-H ) :   0.9565 B( 25-C , 28-C ) :   1.0854 B( 28-C , 29-H ) :   0.9766
B( 28-C , 30-H ) :   0.9725 B( 28-C , 31-H ) :   0.9767

Dispersion correction           -0.013462845
FINAL SINGLE POINT ENERGY     -1339.855535531846

DIPOLE MOMENT
-------------
                                X             Y             Z
Electronic contribution:     19.01419      12.56163     -22.34784
Nuclear contribution   :    -19.63420     -12.64695      22.98653
                        -----------------------------------------
Total Dipole Moment    :     -0.62001      -0.08532       0.63869
                        -----------------------------------------
Magnitude (a.u.)       :      0.89421
Magnitude (Debye)      :      2.27291

Rotational constants in cm-1:     0.016167     0.009080     0.006462
Rotational constants in MHz :   484.670589   272.204443   193.717220

                             ****ORCA TERMINATED NORMALLY****
TOTAL RUN TIME: 0 days 0 hours 0 minutes 21 seconds 372 msec
