                         Program Version 4.2.1 -  RELEASE  -
|  1> ! wB97X-D3 SP def2-SVP
|  2> %pal
|  3> nprocs 24
|  4> end
|  5>
|  6> * xyz 0 1
|  7> S 	 -63.8424 	 7.59594 	 -104.226
|  8> C 	 -64.3461 	 8.31788 	 -105.743
|  9> C 	 -63.6526 	 9.45209 	 -106.123
| 10> C 	 -62.705 	 9.83298 	 -105.103
| 11> C 	 -62.6644 	 8.94128 	 -104.074
| 12> H 	 -62.0401 	 10.6568 	 -105.046
| 13> C 	 -63.8458 	 10.0769 	 -107.439
| 14> H 	 -64.6395 	 9.57193 	 -107.952
| 15> H 	 -63.0675 	 9.74617 	 -108.082
| 16> C 	 -64.0854 	 11.6429 	 -107.603
| 17> H 	 -65.1214 	 11.839 	 -107.56
| 18> H 	 -63.6758 	 12.1942 	 -106.677
| 19> C 	 -63.2785 	 12.3 	 -108.738
| 20> H 	 -63.7119 	 13.3081 	 -108.901
| 21> H 	 -62.2208 	 12.3258 	 -108.463
| 22> H 	 -63.4559 	 11.8042 	 -109.652
| 23> S 	 -62.5383 	 9.16196 	 -101.453
| 24> C 	 -60.9797 	 9.33265 	 -100.684
| 25> C 	 -59.8915 	 8.93602 	 -101.484
| 26> C 	 -60.3841 	 8.74722 	 -102.854
| 27> C 	 -61.7145 	 8.94604 	 -102.961
| 28> H 	 -58.8669 	 8.88441 	 -101.069
| 29> C 	 -59.3541 	 8.49869 	 -104
| 30> H 	 -59.9242 	 7.98521 	 -104.782
| 31> H 	 -58.682 	 7.69262 	 -103.589
| 32> C 	 -58.4359 	 9.61815 	 -104.29
| 33> H 	 -57.8747 	 9.99859 	 -103.408
| 34> H 	 -58.9699 	 10.5188 	 -104.63
| 35> C 	 -57.4378 	 9.35553 	 -105.378
| 36> H 	 -56.7554 	 10.1762 	 -105.743
| 37> H 	 -57.8941 	 8.93783 	 -106.233
| 38> H 	 -56.7078 	 8.73248 	 -104.956
| 39> H 	 -65.0652 	 7.83942 	 -106.421
| 40> H 	 -60.7073 	 9.68013 	 -99.6714
| 41> *
| 42>
| 43>                          ****END OF INPUT****

CARTESIAN COORDINATES (ANGSTROEM)
---------------------------------
  S    -63.842400    7.595940  -104.226000
  C    -64.346100    8.317880  -105.743000
  C    -63.652600    9.452090  -106.123000
  C    -62.705000    9.832980  -105.103000
  C    -62.664400    8.941280  -104.074000
  H    -62.040100   10.656800  -105.046000
  C    -63.845800   10.076900  -107.439000
  H    -64.639500    9.571930  -107.952000
  H    -63.067500    9.746170  -108.082000
  C    -64.085400   11.642900  -107.603000
  H    -65.121400   11.839000  -107.560000
  H    -63.675800   12.194200  -106.677000
  C    -63.278500   12.300000  -108.738000
  H    -63.711900   13.308100  -108.901000
  H    -62.220800   12.325800  -108.463000
  H    -63.455900   11.804200  -109.652000
  S    -62.538300    9.161960  -101.453000
  C    -60.979700    9.332650  -100.684000
  C    -59.891500    8.936020  -101.484000
  C    -60.384100    8.747220  -102.854000
  C    -61.714500    8.946040  -102.961000
  H    -58.866900    8.884410  -101.069000
  C    -59.354100    8.498690  -104.000000
  H    -59.924200    7.985210  -104.782000
  H    -58.682000    7.692620  -103.589000
  C    -58.435900    9.618150  -104.290000
  H    -57.874700    9.998590  -103.408000
  H    -58.969900   10.518800  -104.630000
  C    -57.437800    9.355530  -105.378000
  H    -56.755400   10.176200  -105.743000
  H    -57.894100    8.937830  -106.233000
  H    -56.707800    8.732480  -104.956000
  H    -65.065200    7.839420  -106.421000
  H    -60.707300    9.680130  -99.671400

 Total Charge           Charge          ....    0
 Multiplicity           Mult            ....    1
 Number of Electrons    NEL             ....  134
 Basis Dimension        Dim             ....  322

ORBITAL ENERGIES
----------------

  NO   OCC          E(Eh)            E(eV)
   0   2.0000     -88.965250     -2420.8675
   1   2.0000     -88.964807     -2420.8555
   2   2.0000     -10.326848      -281.0078
   3   2.0000     -10.318828      -280.7896
   4   2.0000     -10.318148      -280.7711
   5   2.0000     -10.311839      -280.5994
   6   2.0000     -10.305843      -280.4362
   7   2.0000     -10.300589      -280.2933
   8   2.0000     -10.300029      -280.2780
   9   2.0000     -10.296328      -280.1773
  10   2.0000     -10.292519      -280.0737
  11   2.0000     -10.291792      -280.0539
  12   2.0000     -10.286468      -279.9090
  13   2.0000     -10.285264      -279.8763
  14   2.0000     -10.280405      -279.7441
  15   2.0000     -10.270482      -279.4740
  16   2.0000      -8.080131      -219.8715
  17   2.0000      -8.079427      -219.8524
  18   2.0000      -6.038704      -164.3215
  19   2.0000      -6.037839      -164.2979
  20   2.0000      -6.034766      -164.2143
  21   2.0000      -6.034296      -164.2016
  22   2.0000      -6.030553      -164.0997
  23   2.0000      -6.030046      -164.0859
  24   2.0000      -1.006173       -27.3794
  25   2.0000      -0.980203       -26.6727
  26   2.0000      -0.916125       -24.9290
  27   2.0000      -0.906375       -24.6637
  28   2.0000      -0.866739       -23.5852
  29   2.0000      -0.853435       -23.2232
  30   2.0000      -0.848786       -23.0966
  31   2.0000      -0.818598       -22.2752
  32   2.0000      -0.783879       -21.3304
  33   2.0000      -0.768966       -20.9246
  34   2.0000      -0.707852       -19.2616
  35   2.0000      -0.698179       -18.9984
  36   2.0000      -0.687762       -18.7150
  37   2.0000      -0.661406       -17.9978
  38   2.0000      -0.645724       -17.5711
  39   2.0000      -0.619156       -16.8481
  40   2.0000      -0.588965       -16.0266
  41   2.0000      -0.570368       -15.5205
  42   2.0000      -0.562740       -15.3129
  43   2.0000      -0.557258       -15.1638
  44   2.0000      -0.531051       -14.4506
  45   2.0000      -0.523998       -14.2587
  46   2.0000      -0.516559       -14.0563
  47   2.0000      -0.514447       -13.9988
  48   2.0000      -0.504341       -13.7238
  49   2.0000      -0.498598       -13.5676
  50   2.0000      -0.488018       -13.2796
  51   2.0000      -0.481300       -13.0968
  52   2.0000      -0.471930       -12.8419
  53   2.0000      -0.465289       -12.6612
  54   2.0000      -0.459058       -12.4916
  55   2.0000      -0.452671       -12.3178
  56   2.0000      -0.444237       -12.0883
  57   2.0000      -0.438909       -11.9433
  58   2.0000      -0.436284       -11.8719
  59   2.0000      -0.422165       -11.4877
  60   2.0000      -0.418553       -11.3894
  61   2.0000      -0.412844       -11.2341
  62   2.0000      -0.402151       -10.9431
  63   2.0000      -0.341000        -9.2791
  64   2.0000      -0.328575        -8.9410
  65   2.0000      -0.326925        -8.8961
  66   2.0000      -0.296919        -8.0796
  67   0.0000       0.046659         1.2696
  68   0.0000       0.057841         1.5739
  69   0.0000       0.107691         2.9304
  70   0.0000       0.115363         3.1392
  71   0.0000       0.125318         3.4101

MULLIKEN ATOMIC CHARGES
-----------------------
   0 S :    0.108675
   1 C :   -0.125934
   2 C :   -0.071858
   3 C :    0.055884
   4 C :   -0.162400
   5 H :    0.000596
   6 C :    0.098399
   7 H :   -0.000856
   8 H :    0.022410
   9 C :   -0.102316
  10 H :    0.030289
  11 H :    0.037376
  12 C :   -0.049809
  13 H :    0.036979
  14 H :    0.049449
  15 H :    0.026019
  16 S :    0.121542
  17 C :   -0.092782
  18 C :   -0.070946
  19 C :   -0.011268
  20 C :   -0.203626
  21 H :    0.038189
  22 C :    0.070950
  23 H :    0.037700
  24 H :    0.022889
  25 C :   -0.065666
  26 H :    0.029014
  27 H :    0.021555
  28 C :   -0.025256
  29 H :    0.033561
  30 H :    0.026082
  31 H :    0.008974
  32 H :    0.048586
  33 H :    0.057596
Sum of atomic charges:    0.0000000

LOEWDIN ATOMIC CHARGES
----------------------
   0 S :    0.373913
   1 C :   -0.196463
   2 C :   -0.059989
   3 C :   -0.051882
   4 C :   -0.180216
   5 H :    0.029203
   6 C :   -0.038703
   7 H :    0.029994
   8 H :    0.031714
   9 C :   -0.039579
  10 H :    0.017251
  11 H :    0.031531
  12 C :   -0.062227
  13 H :    0.033313
  14 H :    0.030265
  15 H :    0.015180
  16 S :    0.414066
  17 C :   -0.190080
  18 C :   -0.073844
  19 C :   -0.049572
  20 C :   -0.210798
  21 H :    0.038430
  22 C :   -0.032587
  23 H :    0.034409
  24 H :    0.037593
  25 C :   -0.050181
  26 H :    0.029895
  27 H :    0.021789
  28 C :   -0.064128
  29 H :    0.034922
  30 H :    0.019565
  31 H :    0.016223
  32 H :    0.027866
  33 H :    0.033125

  Mayer bond orders larger than 0.100000
B(  0-S ,  1-C ) :   1.1184 B(  0-S ,  4-C ) :   1.1270 B(  1-C ,  2-C ) :   1.6562
B(  1-C , 32-H ) :   0.9587 B(  2-C ,  3-C ) :   1.1687 B(  2-C ,  6-C ) :   1.0466
B(  3-C ,  4-C ) :   1.6482 B(  3-C ,  5-H ) :   1.0013 B(  4-C , 20-C ) :   0.9950
B(  6-C ,  7-H ) :   0.9237 B(  6-C ,  8-H ) :   0.9325 B(  6-C ,  9-C ) :   1.0174
B(  9-C , 10-H ) :   0.9653 B(  9-C , 11-H ) :   0.9719 B(  9-C , 12-C ) :   1.0677
B( 12-C , 13-H ) :   0.9719 B( 12-C , 14-H ) :   0.9793 B( 12-C , 15-H ) :   0.9788
B( 16-S , 17-C ) :   1.1438 B( 16-S , 20-C ) :   1.1258 B( 17-C , 18-C ) :   1.6609
B( 17-C , 33-H ) :   0.9616 B( 18-C , 19-C ) :   1.1737 B( 18-C , 21-H ) :   0.9841
B( 19-C , 20-C ) :   1.6855 B( 19-C , 22-C ) :   1.0358 B( 22-C , 23-H ) :   0.9359
B( 22-C , 24-H ) :   0.9303 B( 22-C , 25-C ) :   1.0636 B( 25-C , 26-H ) :   0.9503
B( 25-C , 27-H ) :   0.9511 B( 25-C , 28-C ) :   1.0856 B( 28-C , 29-H ) :   0.9716
B( 28-C , 30-H ) :   0.9738 B( 28-C , 31-H ) :   0.9728

Dispersion correction           -0.013684679
FINAL SINGLE POINT ENERGY     -1339.852572666863

DIPOLE MOMENT
-------------
                                X             Y             Z
Electronic contribution:    -14.95603     -13.29246      22.96765
Nuclear contribution   :     15.44733      13.57052     -23.45359
                        -----------------------------------------
Total Dipole Moment    :      0.49130       0.27807      -0.48594
                        -----------------------------------------
Magnitude (a.u.)       :      0.74487
Magnitude (Debye)      :      1.89331

Rotational constants in cm-1:     0.015956     0.008844     0.006673
Rotational constants in MHz :   478.350061   265.148121   200.062899

                             ****ORCA TERMINATED NORMALLY****
TOTAL RUN TIME: 0 days 0 hours 0 minutes 20 seconds 999 msec
