                         Program Version 4.2.1 -  RELEASE  -
|  1> ! wB97X-D3 SP def2-SVP
|  2> %pal
|  3> nprocs 24
|  4> end
|  5>
|  6> * xyz 0 1
|  7> S 	 38.406 	 -13.4276 	 -123.142
|  8> C 	 38.5181 	 -11.8897 	 -122.212
|  9> C 	 39.6379 	 -12.0584 	 -121.332
| 10> C 	 40.3429 	 -13.2961 	 -121.473
| 11> C 	 39.8774 	 -14.1015 	 -122.527
| 12> H 	 41.0974 	 -13.6813 	 -120.807
| 13> C 	 39.9731 	 -11.1048 	 -120.237
| 14> H 	 39.7373 	 -11.4492 	 -119.23
| 15> H 	 39.3405 	 -10.2398 	 -120.547
| 16> C 	 41.3007 	 -10.3923 	 -120.407
| 17> H 	 41.6311 	 -10.3771 	 -121.502
| 18> H 	 41.3145 	 -9.26276 	 -120.19
| 19> C 	 42.3961 	 -11.0286 	 -119.643
| 20> H 	 42.3497 	 -12.0987 	 -119.722
| 21> H 	 43.4561 	 -10.7518 	 -119.921
| 22> H 	 42.3207 	 -10.7442 	 -118.589
| 23> S 	 39.2075 	 -16.7537 	 -122.277
| 24> C 	 40.353 	 -17.985 	 -122.723
| 25> C 	 41.5524 	 -17.4781 	 -123.138
| 26> C 	 41.5107 	 -16.0498 	 -123.182
| 27> C 	 40.2568 	 -15.479 	 -122.84
| 28> H 	 42.4124 	 -18.0709 	 -123.422
| 29> C 	 42.6651 	 -15.3267 	 -123.747
| 30> H 	 42.378 	 -14.2883 	 -123.922
| 31> H 	 43.0086 	 -15.6532 	 -124.762
| 32> C 	 43.8914 	 -15.2194 	 -122.844
| 33> H 	 44.18 	 -16.2034 	 -122.432
| 34> H 	 43.5666 	 -14.7623 	 -121.895
| 35> C 	 44.9732 	 -14.324 	 -123.507
| 36> H 	 44.5527 	 -13.343 	 -123.777
| 37> H 	 45.2632 	 -14.821 	 -124.429
| 38> H 	 45.9472 	 -14.1821 	 -122.971
| 39> H 	 37.8623 	 -10.9843 	 -122.305
| 40> H 	 40.0408 	 -19.0099 	 -122.46
| 41> *
| 42>
| 43>                          ****END OF INPUT****

CARTESIAN COORDINATES (ANGSTROEM)
---------------------------------
  S     38.406000  -13.427600  -123.142000
  C     38.518100  -11.889700  -122.212000
  C     39.637900  -12.058400  -121.332000
  C     40.342900  -13.296100  -121.473000
  C     39.877400  -14.101500  -122.527000
  H     41.097400  -13.681300  -120.807000
  C     39.973100  -11.104800  -120.237000
  H     39.737300  -11.449200  -119.230000
  H     39.340500  -10.239800  -120.547000
  C     41.300700  -10.392300  -120.407000
  H     41.631100  -10.377100  -121.502000
  H     41.314500   -9.262760  -120.190000
  C     42.396100  -11.028600  -119.643000
  H     42.349700  -12.098700  -119.722000
  H     43.456100  -10.751800  -119.921000
  H     42.320700  -10.744200  -118.589000
  S     39.207500  -16.753700  -122.277000
  C     40.353000  -17.985000  -122.723000
  C     41.552400  -17.478100  -123.138000
  C     41.510700  -16.049800  -123.182000
  C     40.256800  -15.479000  -122.840000
  H     42.412400  -18.070900  -123.422000
  C     42.665100  -15.326700  -123.747000
  H     42.378000  -14.288300  -123.922000
  H     43.008600  -15.653200  -124.762000
  C     43.891400  -15.219400  -122.844000
  H     44.180000  -16.203400  -122.432000
  H     43.566600  -14.762300  -121.895000
  C     44.973200  -14.324000  -123.507000
  H     44.552700  -13.343000  -123.777000
  H     45.263200  -14.821000  -124.429000
  H     45.947200  -14.182100  -122.971000
  H     37.862300  -10.984300  -122.305000
  H     40.040800  -19.009900  -122.460000

 Total Charge           Charge          ....    0
 Multiplicity           Mult            ....    1
 Number of Electrons    NEL             ....  134
 Basis Dimension        Dim             ....  322

ORBITAL ENERGIES
----------------

  NO   OCC          E(Eh)            E(eV)
   0   2.0000     -88.967686     -2420.9338
   1   2.0000     -88.965120     -2420.8640
   2   2.0000     -10.334589      -281.2185
   3   2.0000     -10.330544      -281.1084
   4   2.0000     -10.330461      -281.1061
   5   2.0000     -10.321733      -280.8686
   6   2.0000     -10.308592      -280.5111
   7   2.0000     -10.306068      -280.4424
   8   2.0000     -10.297222      -280.2017
   9   2.0000     -10.296579      -280.1841
  10   2.0000     -10.291773      -280.0534
  11   2.0000     -10.291198      -280.0377
  12   2.0000     -10.288845      -279.9737
  13   2.0000     -10.287485      -279.9367
  14   2.0000     -10.284658      -279.8598
  15   2.0000     -10.274158      -279.5741
  16   2.0000      -8.081718      -219.9147
  17   2.0000      -8.080569      -219.8834
  18   2.0000      -6.040266      -164.3640
  19   2.0000      -6.039007      -164.3297
  20   2.0000      -6.036109      -164.2509
  21   2.0000      -6.034883      -164.2175
  22   2.0000      -6.032656      -164.1569
  23   2.0000      -6.031433      -164.1236
  24   2.0000      -1.006721       -27.3943
  25   2.0000      -0.982428       -26.7332
  26   2.0000      -0.919645       -25.0248
  27   2.0000      -0.911729       -24.8094
  28   2.0000      -0.870275       -23.6814
  29   2.0000      -0.849373       -23.1126
  30   2.0000      -0.844177       -22.9712
  31   2.0000      -0.815767       -22.1981
  32   2.0000      -0.781650       -21.2698
  33   2.0000      -0.766646       -20.8615
  34   2.0000      -0.705366       -19.1940
  35   2.0000      -0.695048       -18.9132
  36   2.0000      -0.691369       -18.8131
  37   2.0000      -0.661881       -18.0107
  38   2.0000      -0.640711       -17.4346
  39   2.0000      -0.620264       -16.8783
  40   2.0000      -0.605779       -16.4841
  41   2.0000      -0.574025       -15.6200
  42   2.0000      -0.558614       -15.2006
  43   2.0000      -0.549567       -14.9545
  44   2.0000      -0.540805       -14.7160
  45   2.0000      -0.522667       -14.2225
  46   2.0000      -0.519860       -14.1461
  47   2.0000      -0.515561       -14.0291
  48   2.0000      -0.504934       -13.7400
  49   2.0000      -0.503325       -13.6962
  50   2.0000      -0.490241       -13.3401
  51   2.0000      -0.484840       -13.1932
  52   2.0000      -0.470736       -12.8094
  53   2.0000      -0.466615       -12.6972
  54   2.0000      -0.456388       -12.4189
  55   2.0000      -0.450842       -12.2680
  56   2.0000      -0.437139       -11.8952
  57   2.0000      -0.434508       -11.8236
  58   2.0000      -0.431791       -11.7496
  59   2.0000      -0.424936       -11.5631
  60   2.0000      -0.413752       -11.2588
  61   2.0000      -0.407665       -11.0931
  62   2.0000      -0.397675       -10.8213
  63   2.0000      -0.344721        -9.3803
  64   2.0000      -0.329237        -8.9590
  65   2.0000      -0.326915        -8.8958
  66   2.0000      -0.298746        -8.1293
  67   0.0000       0.028106         0.7648
  68   0.0000       0.056967         1.5501
  69   0.0000       0.109764         2.9868
  70   0.0000       0.118630         3.2281
  71   0.0000       0.125148         3.4054

MULLIKEN ATOMIC CHARGES
-----------------------
   0 S :    0.100386
   1 C :   -0.131438
   2 C :   -0.119176
   3 C :    0.047834
   4 C :   -0.164686
   5 H :    0.024264
   6 C :    0.073280
   7 H :    0.054791
   8 H :    0.018067
   9 C :   -0.120032
  10 H :    0.040905
  11 H :    0.040290
  12 C :   -0.046784
  13 H :    0.013107
  14 H :    0.033584
  15 H :    0.027924
  16 S :    0.103391
  17 C :   -0.101033
  18 C :   -0.000488
  19 C :   -0.035003
  20 C :   -0.128581
  21 H :    0.026747
  22 C :    0.018617
  23 H :    0.017336
  24 H :    0.034810
  25 C :   -0.077221
  26 H :    0.021023
  27 H :    0.013916
  28 C :   -0.044344
  29 H :    0.037854
  30 H :    0.022802
  31 H :    0.045756
  32 H :    0.080863
  33 H :    0.071239
Sum of atomic charges:    0.0000000

LOEWDIN ATOMIC CHARGES
----------------------
   0 S :    0.406476
   1 C :   -0.201888
   2 C :   -0.060043
   3 C :   -0.063958
   4 C :   -0.203081
   5 H :    0.030150
   6 C :   -0.039497
   7 H :    0.035865
   8 H :    0.042826
   9 C :   -0.057077
  10 H :    0.033931
  11 H :    0.029247
  12 C :   -0.074051
  13 H :    0.015718
  14 H :    0.029749
  15 H :    0.023436
  16 S :    0.417843
  17 C :   -0.179834
  18 C :   -0.069472
  19 C :   -0.051589
  20 C :   -0.211517
  21 H :    0.036507
  22 C :   -0.041568
  23 H :    0.030322
  24 H :    0.033547
  25 C :   -0.045590
  26 H :    0.020178
  27 H :    0.020765
  28 C :   -0.068316
  29 H :    0.029513
  30 H :    0.022747
  31 H :    0.032314
  32 H :    0.045418
  33 H :    0.030930

  Mayer bond orders larger than 0.100000
B(  0-S ,  1-C ) :   1.1394 B(  0-S ,  4-C ) :   1.1759 B(  1-C ,  2-C ) :   1.5657
B(  1-C ,  4-C ) :   0.1109 B(  1-C , 32-H ) :   0.9624 B(  2-C ,  3-C ) :   1.2610
B(  2-C ,  6-C ) :   1.0416 B(  3-C ,  4-C ) :   1.5344 B(  3-C ,  5-H ) :   0.9908
B(  4-C , 20-C ) :   1.0135 B(  6-C ,  7-H ) :   0.9500 B(  6-C ,  8-H ) :   0.9288
B(  6-C ,  9-C ) :   1.0320 B(  9-C , 10-H ) :   0.9521 B(  9-C , 11-H ) :   0.9623
B(  9-C , 12-C ) :   1.0834 B( 12-C , 13-H ) :   0.9717 B( 12-C , 14-H ) :   0.9705
B( 12-C , 15-H ) :   0.9738 B( 16-S , 17-C ) :   1.1801 B( 16-S , 20-C ) :   1.1494
B( 17-C , 18-C ) :   1.5646 B( 17-C , 33-H ) :   0.9654 B( 18-C , 19-C ) :   1.2541
B( 18-C , 21-H ) :   0.9974 B( 19-C , 20-C ) :   1.5713 B( 19-C , 22-C ) :   1.0618
B( 22-C , 23-H ) :   0.9341 B( 22-C , 24-H ) :   0.9459 B( 22-C , 25-C ) :   1.0415
B( 25-C , 26-H ) :   0.9600 B( 25-C , 27-H ) :   0.9493 B( 25-C , 28-C ) :   1.0672
B( 28-C , 29-H ) :   0.9729 B( 28-C , 30-H ) :   0.9744 B( 28-C , 31-H ) :   0.9751

Dispersion correction           -0.014292591
FINAL SINGLE POINT ENERGY     -1339.863891542324

DIPOLE MOMENT
-------------
                                X             Y             Z
Electronic contribution:    -26.02528     -14.92803      -6.97165
Nuclear contribution   :     26.50481      15.05975       7.27422
                        -----------------------------------------
Total Dipole Moment    :      0.47954       0.13172       0.30256
                        -----------------------------------------
Magnitude (a.u.)       :      0.58211
Magnitude (Debye)      :      1.47960

Rotational constants in cm-1:     0.015932     0.010090     0.007079
Rotational constants in MHz :   477.624878   302.476170   212.228312

                             ****ORCA TERMINATED NORMALLY****
TOTAL RUN TIME: 0 days 0 hours 0 minutes 21 seconds 997 msec
