                         Program Version 4.2.1 -  RELEASE  -
|  1> ! wB97X-D3 SP def2-SVP
|  2> %pal
|  3> nprocs 24
|  4> end
|  5>
|  6> * xyz 0 1
|  7> S 	 -54.562 	 14.1942 	 26.8767
|  8> C 	 -56.0674 	 13.3379 	 26.8761
|  9> C 	 -56.2767 	 12.6257 	 28.0625
| 10> C 	 -55.1143 	 12.7493 	 28.9469
| 11> C 	 -54.1853 	 13.6207 	 28.4943
| 12> H 	 -54.8774 	 12.0977 	 29.8281
| 13> C 	 -57.3138 	 11.5584 	 28.3019
| 14> H 	 -57.2292 	 11.1186 	 29.3091
| 15> H 	 -57.131 	 10.6501 	 27.6771
| 16> C 	 -58.7458 	 12.0417 	 28.0289
| 17> H 	 -58.9241 	 12.8811 	 28.7055
| 18> H 	 -58.7696 	 12.4997 	 27.015
| 19> C 	 -59.7304 	 10.9206 	 28.2803
| 20> H 	 -60.8117 	 11.2558 	 28.066
| 21> H 	 -59.4798 	 10.0295 	 27.6725
| 22> H 	 -59.6807 	 10.6368 	 29.3171
| 23> S 	 -52.0885 	 12.4636 	 29.9091
| 24> C 	 -50.6351 	 13.3372 	 30.1446
| 25> C 	 -50.6299 	 14.5432 	 29.4893
| 26> C 	 -51.8292 	 14.7842 	 28.7889
| 27> C 	 -52.7877 	 13.784 	 28.952
| 28> H 	 -49.7623 	 15.1413 	 29.4446
| 29> C 	 -52.0201 	 16.0742 	 28.057
| 30> H 	 -52.3886 	 15.8458 	 27.0397
| 31> H 	 -51.0228 	 16.5596 	 27.9874
| 32> C 	 -53.0191 	 17.0586 	 28.738
| 33> H 	 -54.0713 	 16.7322 	 28.5424
| 34> H 	 -53.004 	 18.0136 	 28.2467
| 35> C 	 -52.8346 	 17.3379 	 30.2288
| 36> H 	 -53.6033 	 18.0245 	 30.5819
| 37> H 	 -51.8428 	 17.6998 	 30.3596
| 38> H 	 -52.8593 	 16.435 	 30.8481
| 39> H 	 -56.7887 	 13.147 	 26.0934
| 40> H 	 -49.7288 	 13.1816 	 30.6676
| 41> *
| 42>
| 43>                          ****END OF INPUT****

CARTESIAN COORDINATES (ANGSTROEM)
---------------------------------
  S    -54.562000   14.194200   26.876700
  C    -56.067400   13.337900   26.876100
  C    -56.276700   12.625700   28.062500
  C    -55.114300   12.749300   28.946900
  C    -54.185300   13.620700   28.494300
  H    -54.877400   12.097700   29.828100
  C    -57.313800   11.558400   28.301900
  H    -57.229200   11.118600   29.309100
  H    -57.131000   10.650100   27.677100
  C    -58.745800   12.041700   28.028900
  H    -58.924100   12.881100   28.705500
  H    -58.769600   12.499700   27.015000
  C    -59.730400   10.920600   28.280300
  H    -60.811700   11.255800   28.066000
  H    -59.479800   10.029500   27.672500
  H    -59.680700   10.636800   29.317100
  S    -52.088500   12.463600   29.909100
  C    -50.635100   13.337200   30.144600
  C    -50.629900   14.543200   29.489300
  C    -51.829200   14.784200   28.788900
  C    -52.787700   13.784000   28.952000
  H    -49.762300   15.141300   29.444600
  C    -52.020100   16.074200   28.057000
  H    -52.388600   15.845800   27.039700
  H    -51.022800   16.559600   27.987400
  C    -53.019100   17.058600   28.738000
  H    -54.071300   16.732200   28.542400
  H    -53.004000   18.013600   28.246700
  C    -52.834600   17.337900   30.228800
  H    -53.603300   18.024500   30.581900
  H    -51.842800   17.699800   30.359600
  H    -52.859300   16.435000   30.848100
  H    -56.788700   13.147000   26.093400
  H    -49.728800   13.181600   30.667600

 Total Charge           Charge          ....    0
 Multiplicity           Mult            ....    1
 Number of Electrons    NEL             ....  134
 Basis Dimension        Dim             ....  322

ORBITAL ENERGIES
----------------

  NO   OCC          E(Eh)            E(eV)
   0   2.0000     -88.970830     -2421.0194
   1   2.0000     -88.970806     -2421.0187
   2   2.0000     -10.331095      -281.1234
   3   2.0000     -10.329531      -281.0808
   4   2.0000     -10.316232      -280.7189
   5   2.0000     -10.310033      -280.5502
   6   2.0000     -10.305804      -280.4352
   7   2.0000     -10.298716      -280.2423
   8   2.0000     -10.298437      -280.2347
   9   2.0000     -10.295188      -280.1463
  10   2.0000     -10.293143      -280.0907
  11   2.0000     -10.288377      -279.9610
  12   2.0000     -10.285536      -279.8837
  13   2.0000     -10.284806      -279.8638
  14   2.0000     -10.280838      -279.7558
  15   2.0000     -10.267245      -279.3859
  16   2.0000      -8.085148      -220.0081
  17   2.0000      -8.085054      -220.0055
  18   2.0000      -6.043760      -164.4591
  19   2.0000      -6.043746      -164.4587
  20   2.0000      -6.039696      -164.3485
  21   2.0000      -6.039655      -164.3474
  22   2.0000      -6.035922      -164.2458
  23   2.0000      -6.035578      -164.2364
  24   2.0000      -1.009346       -27.4657
  25   2.0000      -0.987455       -26.8700
  26   2.0000      -0.915358       -24.9082
  27   2.0000      -0.905649       -24.6440
  28   2.0000      -0.870842       -23.6968
  29   2.0000      -0.852894       -23.2084
  30   2.0000      -0.845322       -23.0024
  31   2.0000      -0.817140       -22.2355
  32   2.0000      -0.781396       -21.2629
  33   2.0000      -0.769746       -20.9459
  34   2.0000      -0.710120       -19.3233
  35   2.0000      -0.702575       -19.1181
  36   2.0000      -0.684463       -18.6252
  37   2.0000      -0.668113       -18.1803
  38   2.0000      -0.634290       -17.2599
  39   2.0000      -0.615718       -16.7545
  40   2.0000      -0.585341       -15.9279
  41   2.0000      -0.575343       -15.6559
  42   2.0000      -0.563901       -15.3445
  43   2.0000      -0.552886       -15.0448
  44   2.0000      -0.543479       -14.7888
  45   2.0000      -0.519526       -14.1370
  46   2.0000      -0.517768       -14.0892
  47   2.0000      -0.513047       -13.9607
  48   2.0000      -0.505636       -13.7590
  49   2.0000      -0.493170       -13.4198
  50   2.0000      -0.484255       -13.1773
  51   2.0000      -0.477083       -12.9821
  52   2.0000      -0.473815       -12.8932
  53   2.0000      -0.470699       -12.8084
  54   2.0000      -0.463611       -12.6155
  55   2.0000      -0.454970       -12.3804
  56   2.0000      -0.443593       -12.0708
  57   2.0000      -0.434715       -11.8292
  58   2.0000      -0.429462       -11.6863
  59   2.0000      -0.423843       -11.5333
  60   2.0000      -0.420856       -11.4521
  61   2.0000      -0.416982       -11.3467
  62   2.0000      -0.405050       -11.0220
  63   2.0000      -0.358148        -9.7457
  64   2.0000      -0.334483        -9.1018
  65   2.0000      -0.330106        -8.9826
  66   2.0000      -0.284880        -7.7520
  67   0.0000       0.023922         0.6509
  68   0.0000       0.074806         2.0356
  69   0.0000       0.105009         2.8574
  70   0.0000       0.112186         3.0527
  71   0.0000       0.128593         3.4992

MULLIKEN ATOMIC CHARGES
-----------------------
   0 S :    0.097834
   1 C :   -0.090715
   2 C :   -0.085390
   3 C :   -0.044446
   4 C :   -0.082380
   5 H :    0.041696
   6 C :    0.014778
   7 H :    0.019567
   8 H :    0.041498
   9 C :   -0.095917
  10 H :    0.033698
  11 H :    0.029925
  12 C :   -0.043259
  13 H :    0.048571
  14 H :    0.033951
  15 H :    0.029326
  16 S :    0.109936
  17 C :   -0.041207
  18 C :   -0.056504
  19 C :   -0.057365
  20 C :   -0.134361
  21 H :    0.002199
  22 C :    0.051763
  23 H :    0.043586
  24 H :    0.022323
  25 C :   -0.079737
  26 H :    0.029073
  27 H :    0.021644
  28 C :   -0.031359
  29 H :    0.039923
  30 H :    0.012838
  31 H :    0.039204
  32 H :    0.046448
  33 H :    0.032860
Sum of atomic charges:   -0.0000000

LOEWDIN ATOMIC CHARGES
----------------------
   0 S :    0.423497
   1 C :   -0.204159
   2 C :   -0.059517
   3 C :   -0.074278
   4 C :   -0.184637
   5 H :    0.037324
   6 C :   -0.040451
   7 H :    0.028937
   8 H :    0.035041
   9 C :   -0.046200
  10 H :    0.026637
  11 H :    0.023059
  12 C :   -0.069296
  13 H :    0.035965
  14 H :    0.026864
  15 H :    0.023732
  16 S :    0.421713
  17 C :   -0.194966
  18 C :   -0.070642
  19 C :   -0.063064
  20 C :   -0.190911
  21 H :    0.024581
  22 C :   -0.037653
  23 H :    0.027636
  24 H :    0.032014
  25 C :   -0.043858
  26 H :    0.021133
  27 H :    0.020935
  28 C :   -0.063422
  29 H :    0.029862
  30 H :    0.017321
  31 H :    0.027269
  32 H :    0.029904
  33 H :    0.029628

  Mayer bond orders larger than 0.100000
B(  0-S ,  1-C ) :   1.1325 B(  0-S ,  4-C ) :   1.1348 B(  1-C ,  2-C ) :   1.6343
B(  1-C , 32-H ) :   0.9618 B(  2-C ,  3-C ) :   1.2156 B(  2-C ,  6-C ) :   1.0248
B(  3-C ,  4-C ) :   1.6161 B(  3-C ,  5-H ) :   0.9781 B(  4-C , 20-C ) :   1.0491
B(  6-C ,  7-H ) :   0.9471 B(  6-C ,  8-H ) :   0.9388 B(  6-C ,  9-C ) :   1.0486
B(  9-C , 10-H ) :   0.9571 B(  9-C , 11-H ) :   0.9562 B(  9-C , 12-C ) :   1.0809
B( 12-C , 13-H ) :   0.9726 B( 12-C , 14-H ) :   0.9732 B( 12-C , 15-H ) :   0.9714
B( 16-S , 17-C ) :   1.1608 B( 16-S , 20-C ) :   1.1282 B( 17-C , 18-C ) :   1.6085
B( 17-C , 33-H ) :   0.9617 B( 18-C , 19-C ) :   1.2726 B( 18-C , 21-H ) :   0.9912
B( 19-C , 20-C ) :   1.5527 B( 19-C , 22-C ) :   1.0488 B( 22-C , 23-H ) :   0.9283
B( 22-C , 24-H ) :   0.9328 B( 22-C , 25-C ) :   1.0688 B( 25-C , 26-H ) :   0.9514
B( 25-C , 27-H ) :   0.9561 B( 25-C , 28-C ) :   1.0803 B( 28-C , 29-H ) :   0.9733
B( 28-C , 30-H ) :   0.9751 B( 28-C , 31-H ) :   0.9706

Dispersion correction           -0.014470728
FINAL SINGLE POINT ENERGY     -1339.885140205944

DIPOLE MOMENT
-------------
                                X             Y             Z
Electronic contribution:     16.06560      -4.78214      -2.36905
Nuclear contribution   :    -16.14508       4.68410       2.37039
                        -----------------------------------------
Total Dipole Moment    :     -0.07949      -0.09804       0.00134
                        -----------------------------------------
Magnitude (a.u.)       :      0.12622
Magnitude (Debye)      :      0.32083

Rotational constants in cm-1:     0.024744     0.007355     0.006406
Rotational constants in MHz :   741.796240   220.498488   192.033801

                             ****ORCA TERMINATED NORMALLY****
TOTAL RUN TIME: 0 days 0 hours 0 minutes 20 seconds 383 msec
