                         Program Version 4.2.1 -  RELEASE  -
|  1> ! wB97X-D3 SP def2-SVP
|  2> %pal
|  3> nprocs 24
|  4> end
|  5>
|  6> * xyz 0 1
|  7> S 	 -116.757 	 49.3719 	 -120.748
|  8> C 	 -115.716 	 48.0128 	 -120.953
|  9> C 	 -114.891 	 47.8689 	 -119.873
| 10> C 	 -114.778 	 49.036 	 -119.082
| 11> C 	 -115.743 	 49.928 	 -119.429
| 12> H 	 -114.154 	 49.224 	 -118.223
| 13> C 	 -114.051 	 46.6602 	 -119.512
| 14> H 	 -114.104 	 45.9781 	 -120.364
| 15> H 	 -114.586 	 46.3223 	 -118.624
| 16> C 	 -112.585 	 46.7981 	 -118.995
| 17> H 	 -112.602 	 46.7124 	 -117.914
| 18> H 	 -111.907 	 46.0086 	 -119.36
| 19> C 	 -111.789 	 47.9265 	 -119.736
| 20> H 	 -112.206 	 48.9311 	 -119.605
| 21> H 	 -110.74 	 47.8403 	 -119.581
| 22> H 	 -112.07 	 47.7844 	 -120.829
| 23> S 	 -115.647 	 52.5258 	 -120.106
| 24> C 	 -115.816 	 53.769 	 -118.96
| 25> C 	 -115.885 	 53.2244 	 -117.676
| 26> C 	 -115.793 	 51.7858 	 -117.695
| 27> C 	 -115.95 	 51.2781 	 -118.973
| 28> H 	 -116.05 	 53.8527 	 -116.805
| 29> C 	 -115.674 	 50.9247 	 -116.49
| 30> H 	 -115.474 	 51.5984 	 -115.686
| 31> H 	 -114.849 	 50.2188 	 -116.513
| 32> C 	 -116.873 	 50.1468 	 -116.013
| 33> H 	 -116.774 	 49.7395 	 -115.012
| 34> H 	 -117.031 	 49.4439 	 -116.818
| 35> C 	 -118.062 	 51.1486 	 -115.942
| 36> H 	 -117.737 	 52.1628 	 -115.85
| 37> H 	 -118.794 	 50.8143 	 -115.136
| 38> H 	 -118.712 	 51.0926 	 -116.819
| 39> H 	 -115.854 	 47.2949 	 -121.699
| 40> H 	 -115.673 	 54.8033 	 -119.16
| 41> *
| 42>
| 43>                          ****END OF INPUT****

CARTESIAN COORDINATES (ANGSTROEM)
---------------------------------
  S    -116.757000   49.371900  -120.748000
  C    -115.716000   48.012800  -120.953000
  C    -114.891000   47.868900  -119.873000
  C    -114.778000   49.036000  -119.082000
  C    -115.743000   49.928000  -119.429000
  H    -114.154000   49.224000  -118.223000
  C    -114.051000   46.660200  -119.512000
  H    -114.104000   45.978100  -120.364000
  H    -114.586000   46.322300  -118.624000
  C    -112.585000   46.798100  -118.995000
  H    -112.602000   46.712400  -117.914000
  H    -111.907000   46.008600  -119.360000
  C    -111.789000   47.926500  -119.736000
  H    -112.206000   48.931100  -119.605000
  H    -110.740000   47.840300  -119.581000
  H    -112.070000   47.784400  -120.829000
  S    -115.647000   52.525800  -120.106000
  C    -115.816000   53.769000  -118.960000
  C    -115.885000   53.224400  -117.676000
  C    -115.793000   51.785800  -117.695000
  C    -115.950000   51.278100  -118.973000
  H    -116.050000   53.852700  -116.805000
  C    -115.674000   50.924700  -116.490000
  H    -115.474000   51.598400  -115.686000
  H    -114.849000   50.218800  -116.513000
  C    -116.873000   50.146800  -116.013000
  H    -116.774000   49.739500  -115.012000
  H    -117.031000   49.443900  -116.818000
  C    -118.062000   51.148600  -115.942000
  H    -117.737000   52.162800  -115.850000
  H    -118.794000   50.814300  -115.136000
  H    -118.712000   51.092600  -116.819000
  H    -115.854000   47.294900  -121.699000
  H    -115.673000   54.803300  -119.160000

 Total Charge           Charge          ....    0
 Multiplicity           Mult            ....    1
 Number of Electrons    NEL             ....  134
 Basis Dimension        Dim             ....  322

ORBITAL ENERGIES
----------------

  NO   OCC          E(Eh)            E(eV)
   0   2.0000     -88.963455     -2420.8187
   1   2.0000     -88.963416     -2420.8176
   2   2.0000     -10.324239      -280.9368
   3   2.0000     -10.316537      -280.7273
   4   2.0000     -10.313909      -280.6557
   5   2.0000     -10.305328      -280.4222
   6   2.0000     -10.302268      -280.3390
   7   2.0000     -10.298891      -280.2471
   8   2.0000     -10.297530      -280.2100
   9   2.0000     -10.292966      -280.0859
  10   2.0000     -10.292229      -280.0658
  11   2.0000     -10.289284      -279.9857
  12   2.0000     -10.282335      -279.7966
  13   2.0000     -10.280933      -279.7584
  14   2.0000     -10.279974      -279.7323
  15   2.0000     -10.272284      -279.5230
  16   2.0000      -8.079773      -219.8618
  17   2.0000      -8.078905      -219.8382
  18   2.0000      -6.038151      -164.3065
  19   2.0000      -6.037279      -164.2827
  20   2.0000      -6.033878      -164.1902
  21   2.0000      -6.033475      -164.1792
  22   2.0000      -6.030722      -164.1043
  23   2.0000      -6.029603      -164.0738
  24   2.0000      -1.018635       -27.7185
  25   2.0000      -0.993752       -27.0414
  26   2.0000      -0.918937       -25.0056
  27   2.0000      -0.909417       -24.7465
  28   2.0000      -0.873745       -23.7758
  29   2.0000      -0.850522       -23.1439
  30   2.0000      -0.842558       -22.9272
  31   2.0000      -0.817020       -22.2322
  32   2.0000      -0.783725       -21.3262
  33   2.0000      -0.773652       -21.0521
  34   2.0000      -0.710823       -19.3425
  35   2.0000      -0.699688       -19.0395
  36   2.0000      -0.689587       -18.7646
  37   2.0000      -0.667456       -18.1624
  38   2.0000      -0.646359       -17.5883
  39   2.0000      -0.619425       -16.8554
  40   2.0000      -0.592469       -16.1219
  41   2.0000      -0.568298       -15.4642
  42   2.0000      -0.565016       -15.3749
  43   2.0000      -0.558920       -15.2090
  44   2.0000      -0.550518       -14.9803
  45   2.0000      -0.547513       -14.8986
  46   2.0000      -0.518589       -14.1115
  47   2.0000      -0.515356       -14.0236
  48   2.0000      -0.504042       -13.7157
  49   2.0000      -0.495461       -13.4822
  50   2.0000      -0.487640       -13.2693
  51   2.0000      -0.481632       -13.1059
  52   2.0000      -0.475597       -12.9417
  53   2.0000      -0.461511       -12.5584
  54   2.0000      -0.457618       -12.4524
  55   2.0000      -0.449491       -12.2313
  56   2.0000      -0.440475       -11.9859
  57   2.0000      -0.436684       -11.8828
  58   2.0000      -0.433134       -11.7862
  59   2.0000      -0.424952       -11.5635
  60   2.0000      -0.418633       -11.3916
  61   2.0000      -0.409021       -11.1300
  62   2.0000      -0.397875       -10.8267
  63   2.0000      -0.349023        -9.4974
  64   2.0000      -0.327695        -8.9170
  65   2.0000      -0.325715        -8.8632
  66   2.0000      -0.294794        -8.0218
  67   0.0000       0.029401         0.8000
  68   0.0000       0.071823         1.9544
  69   0.0000       0.105466         2.8699
  70   0.0000       0.114823         3.1245
  71   0.0000       0.136959         3.7269

MULLIKEN ATOMIC CHARGES
-----------------------
   0 S :    0.111181
   1 C :   -0.108923
   2 C :   -0.099797
   3 C :    0.022935
   4 C :   -0.173029
   5 H :    0.019310
   6 C :    0.083875
   7 H :    0.022192
   8 H :    0.042598
   9 C :   -0.099195
  10 H :    0.030350
  11 H :    0.038558
  12 C :   -0.064715
  13 H :    0.032982
  14 H :    0.044235
  15 H :    0.035438
  16 S :    0.123213
  17 C :   -0.075611
  18 C :   -0.040595
  19 C :   -0.067424
  20 C :   -0.107211
  21 H :    0.026765
  22 C :    0.054206
  23 H :    0.002128
  24 H :    0.022161
  25 C :   -0.043754
  26 H :    0.038009
  27 H :    0.036221
  28 C :   -0.063894
  29 H :    0.018976
  30 H :    0.034093
  31 H :    0.030823
  32 H :    0.022860
  33 H :    0.051038
Sum of atomic charges:    0.0000000

LOEWDIN ATOMIC CHARGES
----------------------
   0 S :    0.408718
   1 C :   -0.199596
   2 C :   -0.059982
   3 C :   -0.063330
   4 C :   -0.185460
   5 H :    0.033344
   6 C :   -0.034012
   7 H :    0.029086
   8 H :    0.041078
   9 C :   -0.051528
  10 H :    0.019115
  11 H :    0.036179
  12 C :   -0.068299
  13 H :    0.021044
  14 H :    0.020530
  15 H :    0.037697
  16 S :    0.454608
  17 C :   -0.197226
  18 C :   -0.072082
  19 C :   -0.051036
  20 C :   -0.223977
  21 H :    0.030571
  22 C :   -0.038491
  23 H :    0.024448
  24 H :    0.025807
  25 C :   -0.032644
  26 H :    0.026585
  27 H :    0.023817
  28 C :   -0.071601
  29 H :    0.016338
  30 H :    0.030686
  31 H :    0.028530
  32 H :    0.014966
  33 H :    0.026115

  Mayer bond orders larger than 0.100000
B(  0-S ,  1-C ) :   1.1304 B(  0-S ,  4-C ) :   1.1557 B(  1-C ,  2-C ) :   1.6197
B(  1-C , 32-H ) :   0.9751 B(  2-C ,  3-C ) :   1.2092 B(  2-C ,  6-C ) :   1.0274
B(  3-C ,  4-C ) :   1.6009 B(  3-C ,  5-H ) :   0.9855 B(  4-C , 20-C ) :   1.0180
B(  6-C ,  7-H ) :   0.9398 B(  6-C ,  8-H ) :   0.9355 B(  6-C ,  9-C ) :   1.0622
B(  9-C , 10-H ) :   0.9580 B(  9-C , 11-H ) :   0.9632 B(  9-C , 12-C ) :   1.0585
B( 12-C , 13-H ) :   0.9702 B( 12-C , 14-H ) :   0.9805 B( 12-C , 15-H ) :   0.9702
B( 16-S , 17-C ) :   1.1933 B( 16-S , 20-C ) :   1.1671 B( 17-C , 18-C ) :   1.5598
B( 17-C , 33-H ) :   0.9731 B( 18-C , 19-C ) :   1.2692 B( 18-C , 21-H ) :   0.9864
B( 19-C , 20-C ) :   1.5490 B( 19-C , 22-C ) :   1.0599 B( 22-C , 23-H ) :   0.9240
B( 22-C , 24-H ) :   0.9316 B( 22-C , 25-C ) :   1.0828 B( 25-C , 26-H ) :   0.9610
B( 25-C , 27-H ) :   0.9544 B( 25-C , 28-C ) :   1.0675 B( 28-C , 29-H ) :   0.9803
B( 28-C , 30-H ) :   0.9763 B( 28-C , 31-H ) :   0.9699

Dispersion correction           -0.015591733
FINAL SINGLE POINT ENERGY     -1339.846463253035

DIPOLE MOMENT
-------------
                                X             Y             Z
Electronic contribution:     -8.37850      11.56635     -16.06817
Nuclear contribution   :      8.75447     -11.79820      16.51655
                        -----------------------------------------
Total Dipole Moment    :      0.37597      -0.23186       0.44838
                        -----------------------------------------
Magnitude (a.u.)       :      0.62941
Magnitude (Debye)      :      1.59984

Rotational constants in cm-1:     0.019425     0.009329     0.008456
Rotational constants in MHz :   582.354131   279.690496   253.495213

                             ****ORCA TERMINATED NORMALLY****
TOTAL RUN TIME: 0 days 0 hours 0 minutes 22 seconds 209 msec
