                         Program Version 4.2.1 -  RELEASE  -
|  1> ! wB97X-D3 SP def2-SVP
|  2> %pal
|  3> nprocs 24
|  4> end
|  5>
|  6> * xyz 0 1
|  7> S 	 -130.46 	 24.6537 	 -21.1914
|  8> C 	 -131.649 	 23.4059 	 -20.7934
|  9> C 	 -132.725 	 23.9367 	 -20.1141
| 10> C 	 -132.534 	 25.308 	 -19.7529
| 11> C 	 -131.393 	 25.8631 	 -20.3191
| 12> H 	 -133.045 	 25.895 	 -19.0249
| 13> C 	 -133.921 	 23.2061 	 -19.7201
| 14> H 	 -133.879 	 23.1378 	 -18.6668
| 15> H 	 -133.847 	 22.2011 	 -20.1116
| 16> C 	 -135.254 	 23.6955 	 -20.1856
| 17> H 	 -135.527 	 24.6062 	 -19.5628
| 18> H 	 -135.221 	 24.077 	 -21.2428
| 19> C 	 -136.301 	 22.628 	 -19.7823
| 20> H 	 -136.264 	 21.6216 	 -20.2739
| 21> H 	 -136.324 	 22.4275 	 -18.6909
| 22> H 	 -137.291 	 23.0984 	 -20.0963
| 23> S 	 -129.606 	 27.1797 	 -18.6807
| 24> C 	 -129.655 	 28.9176 	 -18.593
| 25> C 	 -130.457 	 29.4149 	 -19.5923
| 26> C 	 -131.136 	 28.461 	 -20.363
| 27> C 	 -130.797 	 27.1463 	 -19.9864
| 28> H 	 -130.503 	 30.5398 	 -19.6803
| 29> C 	 -132.084 	 28.9704 	 -21.3654
| 30> H 	 -132.894 	 29.474 	 -20.7898
| 31> H 	 -132.75 	 28.2597 	 -21.8342
| 32> C 	 -131.509 	 29.9068 	 -22.4243
| 33> H 	 -130.536 	 29.5405 	 -22.7662
| 34> H 	 -131.246 	 30.7928 	 -21.8867
| 35> C 	 -132.42 	 30.1189 	 -23.6944
| 36> H 	 -132.273 	 29.3218 	 -24.3605
| 37> H 	 -132.004 	 31.0003 	 -24.308
| 38> H 	 -133.454 	 30.1893 	 -23.3953
| 39> H 	 -131.642 	 22.4804 	 -21.2806
| 40> H 	 -128.978 	 29.5178 	 -17.9438
| 41> *
| 42>
| 43>                          ****END OF INPUT****

CARTESIAN COORDINATES (ANGSTROEM)
---------------------------------
  S    -130.460000   24.653700  -21.191400
  C    -131.649000   23.405900  -20.793400
  C    -132.725000   23.936700  -20.114100
  C    -132.534000   25.308000  -19.752900
  C    -131.393000   25.863100  -20.319100
  H    -133.045000   25.895000  -19.024900
  C    -133.921000   23.206100  -19.720100
  H    -133.879000   23.137800  -18.666800
  H    -133.847000   22.201100  -20.111600
  C    -135.254000   23.695500  -20.185600
  H    -135.527000   24.606200  -19.562800
  H    -135.221000   24.077000  -21.242800
  C    -136.301000   22.628000  -19.782300
  H    -136.264000   21.621600  -20.273900
  H    -136.324000   22.427500  -18.690900
  H    -137.291000   23.098400  -20.096300
  S    -129.606000   27.179700  -18.680700
  C    -129.655000   28.917600  -18.593000
  C    -130.457000   29.414900  -19.592300
  C    -131.136000   28.461000  -20.363000
  C    -130.797000   27.146300  -19.986400
  H    -130.503000   30.539800  -19.680300
  C    -132.084000   28.970400  -21.365400
  H    -132.894000   29.474000  -20.789800
  H    -132.750000   28.259700  -21.834200
  C    -131.509000   29.906800  -22.424300
  H    -130.536000   29.540500  -22.766200
  H    -131.246000   30.792800  -21.886700
  C    -132.420000   30.118900  -23.694400
  H    -132.273000   29.321800  -24.360500
  H    -132.004000   31.000300  -24.308000
  H    -133.454000   30.189300  -23.395300
  H    -131.642000   22.480400  -21.280600
  H    -128.978000   29.517800  -17.943800

 Total Charge           Charge          ....    0
 Multiplicity           Mult            ....    1
 Number of Electrons    NEL             ....  134
 Basis Dimension        Dim             ....  322

ORBITAL ENERGIES
----------------

  NO   OCC          E(Eh)            E(eV)
   0   2.0000     -88.962918     -2420.8041
   1   2.0000     -88.961639     -2420.7693
   2   2.0000     -10.327413      -281.0232
   3   2.0000     -10.326698      -281.0037
   4   2.0000     -10.318653      -280.7848
   5   2.0000     -10.309338      -280.5313
   6   2.0000     -10.302960      -280.3578
   7   2.0000     -10.296501      -280.1820
   8   2.0000     -10.295191      -280.1464
   9   2.0000     -10.292688      -280.0783
  10   2.0000     -10.292101      -280.0623
  11   2.0000     -10.291358      -280.0421
  12   2.0000     -10.286837      -279.9191
  13   2.0000     -10.284886      -279.8660
  14   2.0000     -10.283335      -279.8238
  15   2.0000     -10.277889      -279.6756
  16   2.0000      -8.077679      -219.8048
  17   2.0000      -8.076208      -219.7648
  18   2.0000      -6.036126      -164.2513
  19   2.0000      -6.034755      -164.2140
  20   2.0000      -6.032087      -164.1414
  21   2.0000      -6.030691      -164.1034
  22   2.0000      -6.028598      -164.0465
  23   2.0000      -6.026990      -164.0027
  24   2.0000      -1.004480       -27.3333
  25   2.0000      -0.983754       -26.7693
  26   2.0000      -0.920853       -25.0577
  27   2.0000      -0.910386       -24.7729
  28   2.0000      -0.868420       -23.6309
  29   2.0000      -0.848522       -23.0895
  30   2.0000      -0.845638       -23.0110
  31   2.0000      -0.812282       -22.1033
  32   2.0000      -0.781504       -21.2658
  33   2.0000      -0.769231       -20.9318
  34   2.0000      -0.709997       -19.3200
  35   2.0000      -0.702027       -19.1031
  36   2.0000      -0.693671       -18.8757
  37   2.0000      -0.651658       -17.7325
  38   2.0000      -0.647653       -17.6235
  39   2.0000      -0.620732       -16.8910
  40   2.0000      -0.604133       -16.4393
  41   2.0000      -0.575242       -15.6531
  42   2.0000      -0.559745       -15.2314
  43   2.0000      -0.554956       -15.1011
  44   2.0000      -0.529924       -14.4200
  45   2.0000      -0.526369       -14.3232
  46   2.0000      -0.516839       -14.0639
  47   2.0000      -0.509910       -13.8754
  48   2.0000      -0.502899       -13.6846
  49   2.0000      -0.497649       -13.5417
  50   2.0000      -0.489799       -13.3281
  51   2.0000      -0.479280       -13.0419
  52   2.0000      -0.474439       -12.9101
  53   2.0000      -0.465016       -12.6537
  54   2.0000      -0.453918       -12.3517
  55   2.0000      -0.446398       -12.1471
  56   2.0000      -0.441586       -12.0162
  57   2.0000      -0.439160       -11.9501
  58   2.0000      -0.438001       -11.9186
  59   2.0000      -0.426018       -11.5925
  60   2.0000      -0.418387       -11.3849
  61   2.0000      -0.412211       -11.2168
  62   2.0000      -0.404369       -11.0034
  63   2.0000      -0.338014        -9.1978
  64   2.0000      -0.324787        -8.8379
  65   2.0000      -0.321196        -8.7402
  66   2.0000      -0.305712        -8.3188
  67   0.0000       0.041269         1.1230
  68   0.0000       0.054603         1.4858
  69   0.0000       0.122373         3.3299
  70   0.0000       0.125224         3.4075
  71   0.0000       0.128981         3.5097

MULLIKEN ATOMIC CHARGES
-----------------------
   0 S :    0.093966
   1 C :   -0.098564
   2 C :   -0.085525
   3 C :    0.052973
   4 C :   -0.174300
   5 H :    0.010605
   6 C :    0.095995
   7 H :    0.025105
   8 H :    0.001034
   9 C :   -0.098651
  10 H :    0.033390
  11 H :    0.049783
  12 C :   -0.086289
  13 H :    0.045023
  14 H :    0.042010
  15 H :    0.041634
  16 S :    0.112871
  17 C :   -0.114361
  18 C :   -0.071650
  19 C :    0.015861
  20 C :   -0.175631
  21 H :    0.043241
  22 C :    0.063527
  23 H :    0.028925
  24 H :    0.004429
  25 C :   -0.084717
  26 H :    0.030335
  27 H :    0.020343
  28 C :   -0.041049
  29 H :    0.029405
  30 H :    0.044948
  31 H :    0.039665
  32 H :    0.033178
  33 H :    0.072490
Sum of atomic charges:   -0.0000000

LOEWDIN ATOMIC CHARGES
----------------------
   0 S :    0.390792
   1 C :   -0.183125
   2 C :   -0.060317
   3 C :   -0.051477
   4 C :   -0.192806
   5 H :    0.029805
   6 C :   -0.040767
   7 H :    0.031378
   8 H :    0.027471
   9 C :   -0.045467
  10 H :    0.029375
  11 H :    0.033214
  12 C :   -0.074888
  13 H :    0.027190
  14 H :    0.030300
  15 H :    0.033167
  16 S :    0.407180
  17 C :   -0.193017
  18 C :   -0.082935
  19 C :   -0.052787
  20 C :   -0.205207
  21 H :    0.041207
  22 C :   -0.043264
  23 H :    0.038961
  24 H :    0.025166
  25 C :   -0.037049
  26 H :    0.026070
  27 H :    0.015108
  28 C :   -0.061321
  29 H :    0.020092
  30 H :    0.040085
  31 H :    0.023483
  32 H :    0.015994
  33 H :    0.038390

  Mayer bond orders larger than 0.100000
B(  0-S ,  1-C ) :   1.1269 B(  0-S ,  4-C ) :   1.1562 B(  1-C ,  2-C ) :   1.6259
B(  1-C , 32-H ) :   0.9694 B(  2-C ,  3-C ) :   1.2029 B(  2-C ,  6-C ) :   1.0426
B(  3-C ,  4-C ) :   1.6011 B(  3-C ,  5-H ) :   0.9970 B(  4-C , 20-C ) :   1.0063
B(  6-C ,  7-H ) :   0.9203 B(  6-C ,  8-H ) :   0.9386 B(  6-C ,  9-C ) :   1.0671
B(  9-C , 10-H ) :   0.9451 B(  9-C , 11-H ) :   0.9590 B(  9-C , 12-C ) :   1.0706
B( 12-C , 13-H ) :   0.9759 B( 12-C , 14-H ) :   0.9719 B( 12-C , 15-H ) :   0.9753
B( 16-S , 17-C ) :   1.1668 B( 16-S , 20-C ) :   1.1471 B( 17-C , 18-C ) :   1.6046
B( 17-C , 20-C ) :   0.1030 B( 17-C , 33-H ) :   0.9606 B( 18-C , 19-C ) :   1.2476
B( 18-C , 21-H ) :   0.9793 B( 19-C , 20-C ) :   1.5728 B( 19-C , 22-C ) :   1.0614
B( 22-C , 23-H ) :   0.9228 B( 22-C , 24-H ) :   0.9326 B( 22-C , 25-C ) :   1.0398
B( 25-C , 26-H ) :   0.9622 B( 25-C , 27-H ) :   0.9555 B( 25-C , 28-C ) :   1.0755
B( 28-C , 29-H ) :   0.9764 B( 28-C , 30-H ) :   0.9743 B( 28-C , 31-H ) :   0.9769

Dispersion correction           -0.013327908
FINAL SINGLE POINT ENERGY     -1339.868897922910

DIPOLE MOMENT
-------------
                                X             Y             Z
Electronic contribution:     23.79386      -3.38917       8.74418
Nuclear contribution   :    -24.36369       3.59208      -8.73542
                        -----------------------------------------
Total Dipole Moment    :     -0.56983       0.20291       0.00876
                        -----------------------------------------
Magnitude (a.u.)       :      0.60495
Magnitude (Debye)      :      1.53765

Rotational constants in cm-1:     0.017669     0.007633     0.006462
Rotational constants in MHz :   529.692571   228.835023   193.722605

                             ****ORCA TERMINATED NORMALLY****
TOTAL RUN TIME: 0 days 0 hours 0 minutes 20 seconds 817 msec
