                         Program Version 4.2.1 -  RELEASE  -
|  1> ! wB97X-D3 SP def2-SVP
|  2> %pal
|  3> nprocs 24
|  4> end
|  5>
|  6> * xyz 0 1
|  7> S 	 -132.966 	 6.76996 	 -1.77652
|  8> C 	 -132.087 	 7.67073 	 -0.602842
|  9> C 	 -132.38 	 7.26642 	 0.682372
| 10> C 	 -133.412 	 6.29776 	 0.710136
| 11> C 	 -133.796 	 5.90588 	 -0.546028
| 12> H 	 -133.717 	 5.85132 	 1.58068
| 13> C 	 -131.56 	 7.68449 	 1.90741
| 14> H 	 -130.437 	 7.8007 	 1.79569
| 15> H 	 -131.794 	 6.99055 	 2.76952
| 16> C 	 -131.939 	 9.06608 	 2.37915
| 17> H 	 -131.102 	 9.42413 	 2.96925
| 18> H 	 -131.931 	 9.88809 	 1.61018
| 19> C 	 -133.191 	 9.16839 	 3.1341
| 20> H 	 -133.276 	 10.1926 	 3.51135
| 21> H 	 -134.054 	 9.07183 	 2.41026
| 22> H 	 -133.248 	 8.46353 	 3.93561
| 23> S 	 -136.273 	 5.63045 	 -1.46432
| 24> C 	 -137.122 	 4.09273 	 -1.36925
| 25> C 	 -136.375 	 3.13189 	 -0.698217
| 26> C 	 -135.075 	 3.66227 	 -0.353268
| 27> C 	 -134.828 	 4.96437 	 -0.746534
| 28> H 	 -136.733 	 2.18742 	 -0.386545
| 29> C 	 -134.214 	 2.84075 	 0.597034
| 30> H 	 -134.841 	 2.13052 	 1.15462
| 31> H 	 -133.809 	 3.56038 	 1.33731
| 32> C 	 -133.065 	 2.0421 	 -0.080578
| 33> H 	 -132.576 	 1.47305 	 0.728045
| 34> H 	 -132.4 	 2.79785 	 -0.489364
| 35> C 	 -133.461 	 0.906819 	 -1.13614
| 36> H 	 -134.005 	 1.20342 	 -2.03015
| 37> H 	 -134.13 	 0.249135 	 -0.535594
| 38> H 	 -132.65 	 0.211375 	 -1.37412
| 39> H 	 -131.279 	 8.33442 	 -0.767719
| 40> H 	 -138.135 	 3.91197 	 -1.62901
| 41> *
| 42>
| 43>                          ****END OF INPUT****

CARTESIAN COORDINATES (ANGSTROEM)
---------------------------------
  S    -132.966000    6.769960   -1.776520
  C    -132.087000    7.670730   -0.602842
  C    -132.380000    7.266420    0.682372
  C    -133.412000    6.297760    0.710136
  C    -133.796000    5.905880   -0.546028
  H    -133.717000    5.851320    1.580680
  C    -131.560000    7.684490    1.907410
  H    -130.437000    7.800700    1.795690
  H    -131.794000    6.990550    2.769520
  C    -131.939000    9.066080    2.379150
  H    -131.102000    9.424130    2.969250
  H    -131.931000    9.888090    1.610180
  C    -133.191000    9.168390    3.134100
  H    -133.276000   10.192600    3.511350
  H    -134.054000    9.071830    2.410260
  H    -133.248000    8.463530    3.935610
  S    -136.273000    5.630450   -1.464320
  C    -137.122000    4.092730   -1.369250
  C    -136.375000    3.131890   -0.698217
  C    -135.075000    3.662270   -0.353268
  C    -134.828000    4.964370   -0.746534
  H    -136.733000    2.187420   -0.386545
  C    -134.214000    2.840750    0.597034
  H    -134.841000    2.130520    1.154620
  H    -133.809000    3.560380    1.337310
  C    -133.065000    2.042100   -0.080578
  H    -132.576000    1.473050    0.728045
  H    -132.400000    2.797850   -0.489364
  C    -133.461000    0.906819   -1.136140
  H    -134.005000    1.203420   -2.030150
  H    -134.130000    0.249135   -0.535594
  H    -132.650000    0.211375   -1.374120
  H    -131.279000    8.334420   -0.767719
  H    -138.135000    3.911970   -1.629010

 Total Charge           Charge          ....    0
 Multiplicity           Mult            ....    1
 Number of Electrons    NEL             ....  134
 Basis Dimension        Dim             ....  322

ORBITAL ENERGIES
----------------

  NO   OCC          E(Eh)            E(eV)
   0   2.0000     -88.971951     -2421.0499
   1   2.0000     -88.962319     -2420.7878
   2   2.0000     -10.322752      -280.8964
   3   2.0000     -10.320578      -280.8372
   4   2.0000     -10.315967      -280.7117
   5   2.0000     -10.308274      -280.5024
   6   2.0000     -10.301248      -280.3112
   7   2.0000     -10.301131      -280.3080
   8   2.0000     -10.298122      -280.2262
   9   2.0000     -10.293335      -280.0959
  10   2.0000     -10.292670      -280.0778
  11   2.0000     -10.290086      -280.0075
  12   2.0000     -10.286232      -279.9026
  13   2.0000     -10.281805      -279.7821
  14   2.0000     -10.279117      -279.7090
  15   2.0000     -10.272885      -279.5394
  16   2.0000      -8.087378      -220.0687
  17   2.0000      -8.077244      -219.7930
  18   2.0000      -6.045686      -164.5115
  19   2.0000      -6.041781      -164.4052
  20   2.0000      -6.038305      -164.3106
  21   2.0000      -6.035825      -164.2431
  22   2.0000      -6.031683      -164.1304
  23   2.0000      -6.027936      -164.0285
  24   2.0000      -1.016079       -27.6489
  25   2.0000      -0.985965       -26.8295
  26   2.0000      -0.920557       -25.0496
  27   2.0000      -0.898195       -24.4411
  28   2.0000      -0.877922       -23.8895
  29   2.0000      -0.856578       -23.3087
  30   2.0000      -0.838917       -22.8281
  31   2.0000      -0.815256       -22.1843
  32   2.0000      -0.783849       -21.3296
  33   2.0000      -0.771982       -21.0067
  34   2.0000      -0.711624       -19.3643
  35   2.0000      -0.694775       -18.9058
  36   2.0000      -0.686137       -18.6707
  37   2.0000      -0.671075       -18.2609
  38   2.0000      -0.648452       -17.6453
  39   2.0000      -0.619989       -16.8708
  40   2.0000      -0.587928       -15.9983
  41   2.0000      -0.577347       -15.7104
  42   2.0000      -0.555149       -15.1064
  43   2.0000      -0.550858       -14.9896
  44   2.0000      -0.546968       -14.8838
  45   2.0000      -0.533049       -14.5050
  46   2.0000      -0.519943       -14.1484
  47   2.0000      -0.514236       -13.9931
  48   2.0000      -0.507580       -13.8120
  49   2.0000      -0.493592       -13.4313
  50   2.0000      -0.485449       -13.2097
  51   2.0000      -0.480820       -13.0838
  52   2.0000      -0.472152       -12.8479
  53   2.0000      -0.467688       -12.7264
  54   2.0000      -0.461096       -12.5471
  55   2.0000      -0.447140       -12.1673
  56   2.0000      -0.445576       -12.1247
  57   2.0000      -0.436390       -11.8748
  58   2.0000      -0.434062       -11.8114
  59   2.0000      -0.428777       -11.6676
  60   2.0000      -0.417312       -11.3556
  61   2.0000      -0.406394       -11.0585
  62   2.0000      -0.403843       -10.9891
  63   2.0000      -0.345118        -9.3911
  64   2.0000      -0.329332        -8.9616
  65   2.0000      -0.325845        -8.8667
  66   2.0000      -0.297116        -8.0850
  67   0.0000       0.035994         0.9795
  68   0.0000       0.062493         1.7005
  69   0.0000       0.107266         2.9189
  70   0.0000       0.113377         3.0851
  71   0.0000       0.139386         3.7929

MULLIKEN ATOMIC CHARGES
-----------------------
   0 S :    0.148426
   1 C :   -0.101612
   2 C :   -0.067902
   3 C :    0.070032
   4 C :   -0.159684
   5 H :   -0.025869
   6 C :    0.039420
   7 H :    0.047060
   8 H :    0.030454
   9 C :   -0.102307
  10 H :    0.011558
  11 H :    0.024138
  12 C :   -0.029985
  13 H :    0.030331
  14 H :    0.042459
  15 H :    0.021826
  16 S :    0.102302
  17 C :   -0.071093
  18 C :   -0.021600
  19 C :   -0.039924
  20 C :   -0.160085
  21 H :    0.006235
  22 C :    0.046400
  23 H :    0.017293
  24 H :    0.027245
  25 C :   -0.067116
  26 H :    0.032003
  27 H :    0.039878
  28 C :   -0.070493
  29 H :    0.052348
  30 H :    0.013035
  31 H :    0.040070
  32 H :    0.029344
  33 H :    0.045809
Sum of atomic charges:    0.0000000

LOEWDIN ATOMIC CHARGES
----------------------
   0 S :    0.444926
   1 C :   -0.200965
   2 C :   -0.061085
   3 C :   -0.045744
   4 C :   -0.216547
   5 H :    0.015060
   6 C :   -0.035154
   7 H :    0.042100
   8 H :    0.035083
   9 C :   -0.058817
  10 H :    0.017048
  11 H :    0.027424
  12 C :   -0.065538
  13 H :    0.029639
  14 H :    0.033887
  15 H :    0.016672
  16 S :    0.407831
  17 C :   -0.176123
  18 C :   -0.063066
  19 C :   -0.056438
  20 C :   -0.202830
  21 H :    0.025209
  22 C :   -0.033485
  23 H :    0.026150
  24 H :    0.032571
  25 C :   -0.035376
  26 H :    0.026313
  27 H :    0.021805
  28 C :   -0.073763
  29 H :    0.025293
  30 H :    0.024209
  31 H :    0.029108
  32 H :    0.021802
  33 H :    0.022801

  Mayer bond orders larger than 0.100000
B(  0-S ,  1-C ) :   1.1495 B(  0-S ,  4-C ) :   1.1660 B(  1-C ,  2-C ) :   1.5991
B(  1-C , 32-H ) :   0.9668 B(  2-C ,  3-C ) :   1.2700 B(  2-C ,  6-C ) :   1.0110
B(  3-C ,  4-C ) :   1.5376 B(  3-C ,  5-H ) :   1.0069 B(  4-C , 20-C ) :   1.0408
B(  6-C ,  7-H ) :   0.9482 B(  6-C ,  8-H ) :   0.9448 B(  6-C ,  9-C ) :   1.0675
B(  9-C , 10-H ) :   0.9532 B(  9-C , 11-H ) :   0.9488 B(  9-C , 12-C ) :   1.0977
B( 12-C , 13-H ) :   0.9681 B( 12-C , 14-H ) :   0.9712 B( 12-C , 15-H ) :   0.9722
B( 16-S , 17-C ) :   1.1590 B( 16-S , 20-C ) :   1.1384 B( 17-C , 18-C ) :   1.6000
B( 17-C , 20-C ) :   0.1004 B( 17-C , 33-H ) :   0.9705 B( 18-C , 19-C ) :   1.2413
B( 18-C , 21-H ) :   0.9958 B( 19-C , 20-C ) :   1.6133 B( 19-C , 22-C ) :   1.0317
B( 22-C , 23-H ) :   0.9396 B( 22-C , 24-H ) :   0.9387 B( 22-C , 25-C ) :   1.0731
B( 25-C , 26-H ) :   0.9574 B( 25-C , 27-H ) :   0.9613 B( 25-C , 28-C ) :   1.0593
B( 28-C , 29-H ) :   0.9783 B( 28-C , 30-H ) :   0.9740 B( 28-C , 31-H ) :   0.9773

Dispersion correction           -0.014546866
FINAL SINGLE POINT ENERGY     -1339.869120477357

DIPOLE MOMENT
-------------
                                X             Y             Z
Electronic contribution:     -9.99150       5.62031     -17.76026
Nuclear contribution   :     10.22761      -5.77833      18.38722
                        -----------------------------------------
Total Dipole Moment    :      0.23611      -0.15802       0.62696
                        -----------------------------------------
Magnitude (a.u.)       :      0.68833
Magnitude (Debye)      :      1.74960

Rotational constants in cm-1:     0.020438     0.008077     0.007305
Rotational constants in MHz :   612.705983   242.136891   219.008038

                             ****ORCA TERMINATED NORMALLY****
TOTAL RUN TIME: 0 days 0 hours 0 minutes 21 seconds 624 msec
