                         Program Version 4.2.1 -  RELEASE  -
|  1> ! wB97X-D3 SP def2-SVP
|  2> %pal
|  3> nprocs 24
|  4> end
|  5>
|  6> * xyz 0 1
|  7> S 	 39.6551 	 -30.9338 	 -114.03
|  8> C 	 38.3295 	 -32.0368 	 -114.061
|  9> C 	 38.8256 	 -33.3505 	 -114.25
| 10> C 	 40.3089 	 -33.4586 	 -114.292
| 11> C 	 40.8405 	 -32.2071 	 -114.298
| 12> H 	 40.9086 	 -34.407 	 -114.39
| 13> C 	 38.0226 	 -34.6672 	 -114.386
| 14> H 	 37.2995 	 -34.6896 	 -113.61
| 15> H 	 38.7092 	 -35.487 	 -114.123
| 16> C 	 37.4773 	 -34.998 	 -115.769
| 17> H 	 36.9084 	 -35.8712 	 -115.747
| 18> H 	 36.7705 	 -34.225 	 -116.07
| 19> C 	 38.6262 	 -35.198 	 -116.87
| 20> H 	 39.5305 	 -35.7605 	 -116.492
| 21> H 	 38.2987 	 -35.6837 	 -117.755
| 22> H 	 38.9413 	 -34.166 	 -117.124
| 23> S 	 42.757 	 -30.4358 	 -115.302
| 24> C 	 44.3605 	 -30.9815 	 -115.324
| 25> C 	 44.5476 	 -32.1414 	 -114.703
| 26> C 	 43.3773 	 -32.6869 	 -114.238
| 27> C 	 42.2583 	 -31.9408 	 -114.539
| 28> H 	 45.5389 	 -32.4561 	 -114.479
| 29> C 	 43.2945 	 -33.898 	 -113.256
| 30> H 	 42.342 	 -34.0429 	 -112.974
| 31> H 	 43.9078 	 -33.5821 	 -112.397
| 32> C 	 43.9924 	 -35.2295 	 -113.828
| 33> H 	 44.0473 	 -35.9501 	 -113.026
| 34> H 	 45.0387 	 -34.996 	 -114.003
| 35> C 	 43.3029 	 -35.8932 	 -115.016
| 36> H 	 43.9374 	 -36.7222 	 -115.39
| 37> H 	 43.1679 	 -35.0837 	 -115.843
| 38> H 	 42.3909 	 -36.3613 	 -114.747
| 39> H 	 37.3497 	 -31.8005 	 -113.725
| 40> H 	 45.2067 	 -30.363 	 -115.618
| 41> *
| 42>
| 43>                          ****END OF INPUT****

CARTESIAN COORDINATES (ANGSTROEM)
---------------------------------
  S     39.655100  -30.933800  -114.030000
  C     38.329500  -32.036800  -114.061000
  C     38.825600  -33.350500  -114.250000
  C     40.308900  -33.458600  -114.292000
  C     40.840500  -32.207100  -114.298000
  H     40.908600  -34.407000  -114.390000
  C     38.022600  -34.667200  -114.386000
  H     37.299500  -34.689600  -113.610000
  H     38.709200  -35.487000  -114.123000
  C     37.477300  -34.998000  -115.769000
  H     36.908400  -35.871200  -115.747000
  H     36.770500  -34.225000  -116.070000
  C     38.626200  -35.198000  -116.870000
  H     39.530500  -35.760500  -116.492000
  H     38.298700  -35.683700  -117.755000
  H     38.941300  -34.166000  -117.124000
  S     42.757000  -30.435800  -115.302000
  C     44.360500  -30.981500  -115.324000
  C     44.547600  -32.141400  -114.703000
  C     43.377300  -32.686900  -114.238000
  C     42.258300  -31.940800  -114.539000
  H     45.538900  -32.456100  -114.479000
  C     43.294500  -33.898000  -113.256000
  H     42.342000  -34.042900  -112.974000
  H     43.907800  -33.582100  -112.397000
  C     43.992400  -35.229500  -113.828000
  H     44.047300  -35.950100  -113.026000
  H     45.038700  -34.996000  -114.003000
  C     43.302900  -35.893200  -115.016000
  H     43.937400  -36.722200  -115.390000
  H     43.167900  -35.083700  -115.843000
  H     42.390900  -36.361300  -114.747000
  H     37.349700  -31.800500  -113.725000
  H     45.206700  -30.363000  -115.618000

 Total Charge           Charge          ....    0
 Multiplicity           Mult            ....    1
 Number of Electrons    NEL             ....  134
 Basis Dimension        Dim             ....  322

ORBITAL ENERGIES
----------------

  NO   OCC          E(Eh)            E(eV)
   0   2.0000     -88.967031     -2420.9160
   1   2.0000     -88.963900     -2420.8308
   2   2.0000     -10.330128      -281.0971
   3   2.0000     -10.322642      -280.8934
   4   2.0000     -10.315575      -280.7011
   5   2.0000     -10.310924      -280.5745
   6   2.0000     -10.306653      -280.4583
   7   2.0000     -10.299139      -280.2538
   8   2.0000     -10.296412      -280.1796
   9   2.0000     -10.289924      -280.0031
  10   2.0000     -10.289595      -279.9941
  11   2.0000     -10.289285      -279.9857
  12   2.0000     -10.285637      -279.8864
  13   2.0000     -10.283833      -279.8373
  14   2.0000     -10.280358      -279.7428
  15   2.0000     -10.280227      -279.7392
  16   2.0000      -8.081939      -219.9207
  17   2.0000      -8.079801      -219.8626
  18   2.0000      -6.040651      -164.3745
  19   2.0000      -6.038110      -164.3053
  20   2.0000      -6.036375      -164.2581
  21   2.0000      -6.034293      -164.2014
  22   2.0000      -6.032546      -164.1539
  23   2.0000      -6.030565      -164.1000
  24   2.0000      -1.015218       -27.6255
  25   2.0000      -0.987713       -26.8770
  26   2.0000      -0.903882       -24.5959
  27   2.0000      -0.903163       -24.5763
  28   2.0000      -0.873050       -23.7569
  29   2.0000      -0.854309       -23.2469
  30   2.0000      -0.838219       -22.8091
  31   2.0000      -0.815089       -22.1797
  32   2.0000      -0.783839       -21.3294
  33   2.0000      -0.771799       -21.0017
  34   2.0000      -0.706144       -19.2151
  35   2.0000      -0.704177       -19.1616
  36   2.0000      -0.696924       -18.9643
  37   2.0000      -0.659231       -17.9386
  38   2.0000      -0.639261       -17.3952
  39   2.0000      -0.616196       -16.7676
  40   2.0000      -0.596438       -16.2299
  41   2.0000      -0.568216       -15.4619
  42   2.0000      -0.551824       -15.0159
  43   2.0000      -0.548094       -14.9144
  44   2.0000      -0.546163       -14.8619
  45   2.0000      -0.537828       -14.6350
  46   2.0000      -0.521782       -14.1984
  47   2.0000      -0.512039       -13.9333
  48   2.0000      -0.501250       -13.6397
  49   2.0000      -0.493572       -13.4308
  50   2.0000      -0.486364       -13.2346
  51   2.0000      -0.478148       -13.0111
  52   2.0000      -0.470446       -12.8015
  53   2.0000      -0.465787       -12.6747
  54   2.0000      -0.459290       -12.4979
  55   2.0000      -0.453917       -12.3517
  56   2.0000      -0.444850       -12.1050
  57   2.0000      -0.442038       -12.0285
  58   2.0000      -0.435661       -11.8549
  59   2.0000      -0.424598       -11.5539
  60   2.0000      -0.419809       -11.4236
  61   2.0000      -0.410387       -11.1672
  62   2.0000      -0.407690       -11.0938
  63   2.0000      -0.363357        -9.8874
  64   2.0000      -0.336510        -9.1569
  65   2.0000      -0.325715        -8.8632
  66   2.0000      -0.283767        -7.7217
  67   0.0000       0.027141         0.7386
  68   0.0000       0.080829         2.1995
  69   0.0000       0.102846         2.7986
  70   0.0000       0.122830         3.3424
  71   0.0000       0.128701         3.5021

MULLIKEN ATOMIC CHARGES
-----------------------
   0 S :    0.106505
   1 C :   -0.098187
   2 C :   -0.125167
   3 C :   -0.020197
   4 C :   -0.110884
   5 H :    0.035030
   6 C :    0.072227
   7 H :    0.017585
   8 H :    0.012679
   9 C :   -0.035550
  10 H :    0.015958
  11 H :    0.027878
  12 C :   -0.082019
  13 H :    0.034837
  14 H :    0.032260
  15 H :    0.050096
  16 S :    0.111614
  17 C :   -0.079354
  18 C :   -0.028977
  19 C :   -0.054837
  20 C :   -0.150452
  21 H :    0.002627
  22 C :    0.105861
  23 H :   -0.010627
  24 H :    0.039013
  25 C :   -0.081246
  26 H :    0.020885
  27 H :    0.025019
  28 C :   -0.069502
  29 H :    0.040277
  30 H :    0.061940
  31 H :    0.034878
  32 H :    0.046564
  33 H :    0.053265
Sum of atomic charges:   -0.0000000

LOEWDIN ATOMIC CHARGES
----------------------
   0 S :    0.405113
   1 C :   -0.212075
   2 C :   -0.048995
   3 C :   -0.073251
   4 C :   -0.182018
   5 H :    0.044247
   6 C :   -0.032812
   7 H :    0.023316
   8 H :    0.028610
   9 C :   -0.031927
  10 H :    0.013871
  11 H :    0.024224
  12 C :   -0.067022
  13 H :    0.027796
  14 H :    0.018887
  15 H :    0.032259
  16 S :    0.419184
  17 C :   -0.193680
  18 C :   -0.078131
  19 C :   -0.060029
  20 C :   -0.194273
  21 H :    0.030077
  22 C :   -0.008867
  23 H :    0.004347
  24 H :    0.039388
  25 C :   -0.040183
  26 H :    0.019983
  27 H :    0.020280
  28 C :   -0.074493
  29 H :    0.032845
  30 H :    0.040360
  31 H :    0.015748
  32 H :    0.025512
  33 H :    0.031711

  Mayer bond orders larger than 0.100000
B(  0-S ,  1-C ) :   1.1213 B(  0-S ,  4-C ) :   1.1461 B(  1-C ,  2-C ) :   1.6163
B(  1-C , 32-H ) :   0.9756 B(  2-C ,  3-C ) :   1.2193 B(  2-C ,  6-C ) :   1.0170
B(  3-C ,  4-C ) :   1.5830 B(  3-C ,  5-H ) :   0.9727 B(  4-C , 20-C ) :   1.0578
B(  6-C ,  7-H ) :   0.9403 B(  6-C ,  8-H ) :   0.9443 B(  6-C ,  9-C ) :   1.0754
B(  9-C , 10-H ) :   0.9576 B(  9-C , 11-H ) :   0.9583 B(  9-C , 12-C ) :   1.0592
B( 12-C , 13-H ) :   0.9777 B( 12-C , 14-H ) :   0.9784 B( 12-C , 15-H ) :   0.9773
B( 16-S , 17-C ) :   1.1699 B( 16-S , 20-C ) :   1.1374 B( 17-C , 18-C ) :   1.6101
B( 17-C , 33-H ) :   0.9589 B( 18-C , 19-C ) :   1.2642 B( 18-C , 21-H ) :   0.9985
B( 19-C , 20-C ) :   1.5824 B( 19-C , 22-C ) :   1.0231 B( 22-C , 23-H ) :   0.9390
B( 22-C , 24-H ) :   0.9360 B( 22-C , 25-C ) :   1.0656 B( 25-C , 26-H ) :   0.9553
B( 25-C , 27-H ) :   0.9588 B( 25-C , 28-C ) :   1.0821 B( 28-C , 29-H ) :   0.9682
B( 28-C , 30-H ) :   0.9719 B( 28-C , 31-H ) :   0.9658

Dispersion correction           -0.015397389
FINAL SINGLE POINT ENERGY     -1339.866808694871

DIPOLE MOMENT
-------------
                                X             Y             Z
Electronic contribution:      1.93965      28.14990       3.69523
Nuclear contribution   :     -1.77999     -28.77818      -3.46703
                        -----------------------------------------
Total Dipole Moment    :      0.15967      -0.62828       0.22819
                        -----------------------------------------
Magnitude (a.u.)       :      0.68724
Magnitude (Debye)      :      1.74682

Rotational constants in cm-1:     0.017678     0.010220     0.007536
Rotational constants in MHz :   529.975267   306.399132   225.932527

                             ****ORCA TERMINATED NORMALLY****
TOTAL RUN TIME: 0 days 0 hours 0 minutes 22 seconds 775 msec
