                         Program Version 4.2.1 -  RELEASE  -
|  1> ! wB97X-D3 SP def2-SVP
|  2> %pal
|  3> nprocs 24
|  4> end
|  5>
|  6> * xyz 0 1
|  7> S 	 -71.6309 	 2.19486 	 -68.0022
|  8> C 	 -71.0612 	 2.89636 	 -66.5341
|  9> C 	 -71.9421 	 2.85094 	 -65.5037
| 10> C 	 -73.2413 	 2.32953 	 -65.8399
| 11> C 	 -73.2366 	 1.89977 	 -67.1865
| 12> H 	 -74.1179 	 2.25823 	 -65.2156
| 13> C 	 -71.637 	 3.52229 	 -64.1295
| 14> H 	 -72.3271 	 4.26187 	 -63.8581
| 15> H 	 -70.6355 	 4.07192 	 -64.1223
| 16> C 	 -71.5928 	 2.42668 	 -62.986
| 17> H 	 -71.3374 	 1.46088 	 -63.4866
| 18> H 	 -70.864 	 2.62326 	 -62.2365
| 19> C 	 -73.0011 	 2.19686 	 -62.3615
| 20> H 	 -73.6748 	 1.83974 	 -63.1309
| 21> H 	 -72.9629 	 1.44995 	 -61.5262
| 22> H 	 -73.4071 	 3.06687 	 -61.9288
| 23> S 	 -74.3444 	 -0.0587866 	 -68.7467
| 24> C 	 -75.9874 	 0.0460689 	 -69.1573
| 25> C 	 -76.5908 	 1.17983 	 -68.6944
| 26> C 	 -75.6541 	 2.0391 	 -68.071
| 27> C 	 -74.3918 	 1.47613 	 -67.9693
| 28> H 	 -77.5906 	 1.3709 	 -69.0523
| 29> C 	 -76.1417 	 3.35714 	 -67.3871
| 30> H 	 -76.5521 	 3.94818 	 -68.2371
| 31> H 	 -75.4048 	 3.99812 	 -66.9646
| 32> C 	 -77.2082 	 3.07222 	 -66.3759
| 33> H 	 -76.7532 	 2.5415 	 -65.6595
| 34> H 	 -77.9776 	 2.43648 	 -66.775
| 35> C 	 -77.7598 	 4.28185 	 -65.7249
| 36> H 	 -78.2213 	 4.91641 	 -66.4306
| 37> H 	 -77.0488 	 4.83929 	 -65.1694
| 38> H 	 -78.5513 	 4.10753 	 -64.9975
| 39> H 	 -70.0579 	 3.39582 	 -66.508
| 40> H 	 -76.5683 	 -0.700096 	 -69.7194
| 41> *
| 42>
| 43>                          ****END OF INPUT****

CARTESIAN COORDINATES (ANGSTROEM)
---------------------------------
  S    -71.630900    2.194860  -68.002200
  C    -71.061200    2.896360  -66.534100
  C    -71.942100    2.850940  -65.503700
  C    -73.241300    2.329530  -65.839900
  C    -73.236600    1.899770  -67.186500
  H    -74.117900    2.258230  -65.215600
  C    -71.637000    3.522290  -64.129500
  H    -72.327100    4.261870  -63.858100
  H    -70.635500    4.071920  -64.122300
  C    -71.592800    2.426680  -62.986000
  H    -71.337400    1.460880  -63.486600
  H    -70.864000    2.623260  -62.236500
  C    -73.001100    2.196860  -62.361500
  H    -73.674800    1.839740  -63.130900
  H    -72.962900    1.449950  -61.526200
  H    -73.407100    3.066870  -61.928800
  S    -74.344400   -0.058787  -68.746700
  C    -75.987400    0.046069  -69.157300
  C    -76.590800    1.179830  -68.694400
  C    -75.654100    2.039100  -68.071000
  C    -74.391800    1.476130  -67.969300
  H    -77.590600    1.370900  -69.052300
  C    -76.141700    3.357140  -67.387100
  H    -76.552100    3.948180  -68.237100
  H    -75.404800    3.998120  -66.964600
  C    -77.208200    3.072220  -66.375900
  H    -76.753200    2.541500  -65.659500
  H    -77.977600    2.436480  -66.775000
  C    -77.759800    4.281850  -65.724900
  H    -78.221300    4.916410  -66.430600
  H    -77.048800    4.839290  -65.169400
  H    -78.551300    4.107530  -64.997500
  H    -70.057900    3.395820  -66.508000
  H    -76.568300   -0.700096  -69.719400

 Total Charge           Charge          ....    0
 Multiplicity           Mult            ....    1
 Number of Electrons    NEL             ....  134
 Basis Dimension        Dim             ....  322

ORBITAL ENERGIES
----------------

  NO   OCC          E(Eh)            E(eV)
   0   2.0000     -88.966301     -2420.8961
   1   2.0000     -88.964553     -2420.8486
   2   2.0000     -10.337044      -281.2853
   3   2.0000     -10.320559      -280.8367
   4   2.0000     -10.314210      -280.6639
   5   2.0000     -10.312594      -280.6199
   6   2.0000     -10.304363      -280.3960
   7   2.0000     -10.303990      -280.3858
   8   2.0000     -10.303208      -280.3645
   9   2.0000     -10.296839      -280.1912
  10   2.0000     -10.288922      -279.9758
  11   2.0000     -10.288481      -279.9638
  12   2.0000     -10.287391      -279.9341
  13   2.0000     -10.277243      -279.6580
  14   2.0000     -10.267885      -279.4034
  15   2.0000     -10.266501      -279.3657
  16   2.0000      -8.080970      -219.8944
  17   2.0000      -8.080718      -219.8875
  18   2.0000      -6.039272      -164.3369
  19   2.0000      -6.039143      -164.3334
  20   2.0000      -6.035443      -164.2327
  21   2.0000      -6.035228      -164.2269
  22   2.0000      -6.031859      -164.1352
  23   2.0000      -6.031417      -164.1232
  24   2.0000      -1.011094       -27.5133
  25   2.0000      -0.984738       -26.7961
  26   2.0000      -0.921207       -25.0673
  27   2.0000      -0.900740       -24.5104
  28   2.0000      -0.870168       -23.6785
  29   2.0000      -0.856130       -23.2965
  30   2.0000      -0.843902       -22.9637
  31   2.0000      -0.814437       -22.1620
  32   2.0000      -0.785144       -21.3649
  33   2.0000      -0.769051       -20.9269
  34   2.0000      -0.708894       -19.2900
  35   2.0000      -0.699419       -19.0322
  36   2.0000      -0.695080       -18.9141
  37   2.0000      -0.661239       -17.9932
  38   2.0000      -0.640437       -17.4272
  39   2.0000      -0.622857       -16.9488
  40   2.0000      -0.601504       -16.3678
  41   2.0000      -0.573757       -15.6127
  42   2.0000      -0.569585       -15.4992
  43   2.0000      -0.544578       -14.8187
  44   2.0000      -0.529265       -14.4020
  45   2.0000      -0.524298       -14.2669
  46   2.0000      -0.517986       -14.0951
  47   2.0000      -0.510701       -13.8969
  48   2.0000      -0.507742       -13.8164
  49   2.0000      -0.503947       -13.7131
  50   2.0000      -0.489139       -13.3101
  51   2.0000      -0.482800       -13.1376
  52   2.0000      -0.473510       -12.8849
  53   2.0000      -0.467285       -12.7155
  54   2.0000      -0.459195       -12.4953
  55   2.0000      -0.453316       -12.3354
  56   2.0000      -0.444030       -12.0827
  57   2.0000      -0.433902       -11.8071
  58   2.0000      -0.431230       -11.7344
  59   2.0000      -0.429722       -11.6933
  60   2.0000      -0.422361       -11.4930
  61   2.0000      -0.417013       -11.3475
  62   2.0000      -0.414208       -11.2712
  63   2.0000      -0.346827        -9.4377
  64   2.0000      -0.333917        -9.0864
  65   2.0000      -0.331487        -9.0202
  66   2.0000      -0.293188        -7.9781
  67   0.0000       0.034328         0.9341
  68   0.0000       0.067208         1.8288
  69   0.0000       0.111648         3.0381
  70   0.0000       0.123521         3.3612
  71   0.0000       0.128746         3.5034

MULLIKEN ATOMIC CHARGES
-----------------------
   0 S :    0.104663
   1 C :   -0.143528
   2 C :   -0.062674
   3 C :    0.034847
   4 C :   -0.150714
   5 H :    0.024293
   6 C :    0.047633
   7 H :    0.021417
   8 H :    0.030114
   9 C :   -0.084131
  10 H :    0.045591
  11 H :    0.029370
  12 C :   -0.053155
  13 H :    0.024096
  14 H :    0.038334
  15 H :    0.019792
  16 S :    0.125134
  17 C :   -0.097563
  18 C :   -0.053514
  19 C :   -0.026653
  20 C :   -0.169851
  21 H :    0.024287
  22 C :    0.065706
  23 H :    0.024230
  24 H :    0.015753
  25 C :   -0.015456
  26 H :   -0.012081
  27 H :    0.020795
  28 C :   -0.002342
  29 H :    0.010685
  30 H :    0.014227
  31 H :    0.022466
  32 H :    0.068056
  33 H :    0.060174
Sum of atomic charges:   -0.0000000

LOEWDIN ATOMIC CHARGES
----------------------
   0 S :    0.382517
   1 C :   -0.206098
   2 C :   -0.067546
   3 C :   -0.051758
   4 C :   -0.164817
   5 H :    0.032264
   6 C :   -0.026019
   7 H :    0.017487
   8 H :    0.036045
   9 C :   -0.037659
  10 H :    0.031448
  11 H :    0.016771
  12 C :   -0.065389
  13 H :    0.020818
  14 H :    0.031385
  15 H :    0.013615
  16 S :    0.440237
  17 C :   -0.199296
  18 C :   -0.080241
  19 C :   -0.047846
  20 C :   -0.224033
  21 H :    0.033624
  22 C :   -0.021748
  23 H :    0.032255
  24 H :    0.022801
  25 C :   -0.035269
  26 H :    0.008321
  27 H :    0.024220
  28 C :   -0.056323
  29 H :    0.018471
  30 H :    0.020274
  31 H :    0.028521
  32 H :    0.038439
  33 H :    0.034527

  Mayer bond orders larger than 0.100000
B(  0-S ,  1-C ) :   1.1327 B(  0-S ,  4-C ) :   1.1462 B(  1-C ,  2-C ) :   1.6540
B(  1-C , 32-H ) :   0.9566 B(  2-C ,  3-C ) :   1.2023 B(  2-C ,  6-C ) :   1.0216
B(  3-C ,  4-C ) :   1.5906 B(  3-C ,  5-H ) :   0.9912 B(  4-C , 20-C ) :   1.0227
B(  6-C ,  7-H ) :   0.9534 B(  6-C ,  8-H ) :   0.9505 B(  6-C ,  9-C ) :   1.0343
B(  9-C , 10-H ) :   0.9639 B(  9-C , 11-H ) :   0.9633 B(  9-C , 12-C ) :   1.0731
B( 12-C , 13-H ) :   0.9752 B( 12-C , 14-H ) :   0.9721 B( 12-C , 15-H ) :   0.9773
B( 16-S , 17-C ) :   1.1781 B( 16-S , 20-C ) :   1.1492 B( 17-C , 18-C ) :   1.6130
B( 17-C , 33-H ) :   0.9610 B( 18-C , 19-C ) :   1.2431 B( 18-C , 21-H ) :   0.9860
B( 19-C , 20-C ) :   1.5981 B( 19-C , 22-C ) :   1.0328 B( 22-C , 23-H ) :   0.9293
B( 22-C , 24-H ) :   0.9437 B( 22-C , 25-C ) :   1.0676 B( 25-C , 26-H ) :   0.9449
B( 25-C , 27-H ) :   0.9454 B( 25-C , 28-C ) :   1.1011 B( 28-C , 29-H ) :   0.9711
B( 28-C , 30-H ) :   0.9687 B( 28-C , 31-H ) :   0.9682

Dispersion correction           -0.014510095
FINAL SINGLE POINT ENERGY     -1339.871594389119

DIPOLE MOMENT
-------------
                                X             Y             Z
Electronic contribution:     11.75046     -13.03875     -24.40502
Nuclear contribution   :    -12.13048      13.39847      24.83410
                        -----------------------------------------
Total Dipole Moment    :     -0.38001       0.35972       0.42909
                        -----------------------------------------
Magnitude (a.u.)       :      0.67670
Magnitude (Debye)      :      1.72004

Rotational constants in cm-1:     0.016127     0.009811     0.007183
Rotational constants in MHz :   483.462907   294.140860   215.335835

                             ****ORCA TERMINATED NORMALLY****
TOTAL RUN TIME: 0 days 0 hours 0 minutes 22 seconds 118 msec
