                         Program Version 4.2.1 -  RELEASE  -
|  1> ! wB97X-D3 SP def2-SVP
|  2> %pal
|  3> nprocs 24
|  4> end
|  5>
|  6> * xyz 0 1
|  7> S 	 -46.3398 	 15.5376 	 25.8083
|  8> C 	 -46.0143 	 17.0652 	 26.5899
|  9> C 	 -46.795 	 18.0778 	 26.0367
| 10> C 	 -47.636 	 17.6587 	 24.9383
| 11> C 	 -47.4717 	 16.2553 	 24.6743
| 12> H 	 -48.2943 	 18.3147 	 24.3352
| 13> C 	 -46.7613 	 19.4667 	 26.5578
| 14> H 	 -45.7795 	 19.5413 	 27.0197
| 15> H 	 -47.4836 	 19.4451 	 27.3232
| 16> C 	 -46.9925 	 20.5712 	 25.4886
| 17> H 	 -48.0517 	 20.4192 	 25.1187
| 18> H 	 -47.1225 	 21.5033 	 26.0306
| 19> C 	 -46.1238 	 20.583 	 24.1609
| 20> H 	 -46.6207 	 21.3533 	 23.5364
| 21> H 	 -45.083 	 20.9308 	 24.3122
| 22> H 	 -46.2037 	 19.586 	 23.5802
| 23> S 	 -48.484 	 13.7849 	 24.0468
| 24> C 	 -49.0812 	 13.4389 	 22.4856
| 25> C 	 -49.2079 	 14.5727 	 21.7147
| 26> C 	 -48.6473 	 15.7443 	 22.3353
| 27> C 	 -48.1409 	 15.4629 	 23.6138
| 28> H 	 -49.7214 	 14.607 	 20.7784
| 29> C 	 -48.7366 	 17.038 	 21.5798
| 30> H 	 -49.2553 	 17.723 	 22.1956
| 31> H 	 -49.307 	 16.8515 	 20.6888
| 32> C 	 -47.4542 	 17.681 	 21.1129
| 33> H 	 -46.8582 	 16.8845 	 20.6014
| 34> H 	 -46.8863 	 18.0072 	 22.0221
| 35> C 	 -47.6456 	 18.8618 	 20.1591
| 36> H 	 -46.793 	 19.4502 	 19.9342
| 37> H 	 -48.4687 	 19.5833 	 20.543
| 38> H 	 -47.9863 	 18.4543 	 19.2432
| 39> H 	 -45.4064 	 17.2125 	 27.4128
| 40> H 	 -49.4314 	 12.4776 	 22.0612
| 41> *
| 42>
| 43>                          ****END OF INPUT****

CARTESIAN COORDINATES (ANGSTROEM)
---------------------------------
  S    -46.339800   15.537600   25.808300
  C    -46.014300   17.065200   26.589900
  C    -46.795000   18.077800   26.036700
  C    -47.636000   17.658700   24.938300
  C    -47.471700   16.255300   24.674300
  H    -48.294300   18.314700   24.335200
  C    -46.761300   19.466700   26.557800
  H    -45.779500   19.541300   27.019700
  H    -47.483600   19.445100   27.323200
  C    -46.992500   20.571200   25.488600
  H    -48.051700   20.419200   25.118700
  H    -47.122500   21.503300   26.030600
  C    -46.123800   20.583000   24.160900
  H    -46.620700   21.353300   23.536400
  H    -45.083000   20.930800   24.312200
  H    -46.203700   19.586000   23.580200
  S    -48.484000   13.784900   24.046800
  C    -49.081200   13.438900   22.485600
  C    -49.207900   14.572700   21.714700
  C    -48.647300   15.744300   22.335300
  C    -48.140900   15.462900   23.613800
  H    -49.721400   14.607000   20.778400
  C    -48.736600   17.038000   21.579800
  H    -49.255300   17.723000   22.195600
  H    -49.307000   16.851500   20.688800
  C    -47.454200   17.681000   21.112900
  H    -46.858200   16.884500   20.601400
  H    -46.886300   18.007200   22.022100
  C    -47.645600   18.861800   20.159100
  H    -46.793000   19.450200   19.934200
  H    -48.468700   19.583300   20.543000
  H    -47.986300   18.454300   19.243200
  H    -45.406400   17.212500   27.412800
  H    -49.431400   12.477600   22.061200

 Total Charge           Charge          ....    0
 Multiplicity           Mult            ....    1
 Number of Electrons    NEL             ....  134
 Basis Dimension        Dim             ....  322

ORBITAL ENERGIES
----------------

  NO   OCC          E(Eh)            E(eV)
   0   2.0000     -88.969129     -2420.9731
   1   2.0000     -88.967373     -2420.9253
   2   2.0000     -10.339542      -281.3533
   3   2.0000     -10.332652      -281.1658
   4   2.0000     -10.316099      -280.7153
   5   2.0000     -10.306950      -280.4664
   6   2.0000     -10.305024      -280.4140
   7   2.0000     -10.302741      -280.3518
   8   2.0000     -10.299661      -280.2680
   9   2.0000     -10.298511      -280.2367
  10   2.0000     -10.295125      -280.1446
  11   2.0000     -10.290372      -280.0153
  12   2.0000     -10.288523      -279.9649
  13   2.0000     -10.286391      -279.9069
  14   2.0000     -10.286044      -279.8975
  15   2.0000     -10.280220      -279.7390
  16   2.0000      -8.083237      -219.9561
  17   2.0000      -8.082472      -219.9352
  18   2.0000      -6.041815      -164.4061
  19   2.0000      -6.040950      -164.3826
  20   2.0000      -6.037687      -164.2938
  21   2.0000      -6.036919      -164.2729
  22   2.0000      -6.034126      -164.1969
  23   2.0000      -6.033253      -164.1732
  24   2.0000      -1.004020       -27.3208
  25   2.0000      -0.982289       -26.7294
  26   2.0000      -0.916576       -24.9413
  27   2.0000      -0.909505       -24.7489
  28   2.0000      -0.863899       -23.5079
  29   2.0000      -0.853951       -23.2372
  30   2.0000      -0.837833       -22.7986
  31   2.0000      -0.814899       -22.1745
  32   2.0000      -0.785694       -21.3798
  33   2.0000      -0.773467       -21.0471
  34   2.0000      -0.711534       -19.3618
  35   2.0000      -0.698752       -19.0140
  36   2.0000      -0.687171       -18.6989
  37   2.0000      -0.662770       -18.0349
  38   2.0000      -0.634553       -17.2671
  39   2.0000      -0.620913       -16.8959
  40   2.0000      -0.595692       -16.2096
  41   2.0000      -0.574267       -15.6266
  42   2.0000      -0.561387       -15.2761
  43   2.0000      -0.556124       -15.1329
  44   2.0000      -0.529007       -14.3950
  45   2.0000      -0.521897       -14.2016
  46   2.0000      -0.517247       -14.0750
  47   2.0000      -0.510723       -13.8975
  48   2.0000      -0.505829       -13.7643
  49   2.0000      -0.504039       -13.7156
  50   2.0000      -0.489617       -13.3231
  51   2.0000      -0.488645       -13.2967
  52   2.0000      -0.473528       -12.8853
  53   2.0000      -0.466539       -12.6952
  54   2.0000      -0.456277       -12.4159
  55   2.0000      -0.453233       -12.3331
  56   2.0000      -0.444982       -12.1086
  57   2.0000      -0.440335       -11.9821
  58   2.0000      -0.433000       -11.7825
  59   2.0000      -0.422575       -11.4988
  60   2.0000      -0.416506       -11.3337
  61   2.0000      -0.415393       -11.3034
  62   2.0000      -0.412740       -11.2312
  63   2.0000      -0.352115        -9.5815
  64   2.0000      -0.331480        -9.0200
  65   2.0000      -0.328069        -8.9272
  66   2.0000      -0.282771        -7.6946
  67   0.0000       0.020288         0.5521
  68   0.0000       0.080786         2.1983
  69   0.0000       0.103344         2.8121
  70   0.0000       0.116677         3.1749
  71   0.0000       0.128058         3.4846

MULLIKEN ATOMIC CHARGES
-----------------------
   0 S :    0.115344
   1 C :   -0.091680
   2 C :   -0.133702
   3 C :   -0.001889
   4 C :   -0.125950
   5 H :    0.019381
   6 C :    0.123176
   7 H :    0.017662
   8 H :    0.035720
   9 C :   -0.113819
  10 H :    0.024969
  11 H :    0.028803
  12 C :   -0.077168
  13 H :    0.039044
  14 H :    0.050221
  15 H :    0.068910
  16 S :    0.110515
  17 C :   -0.077487
  18 C :   -0.047959
  19 C :   -0.052975
  20 C :   -0.145435
  21 H :    0.011621
  22 C :    0.095573
  23 H :    0.020135
  24 H :   -0.000211
  25 C :   -0.101506
  26 H :    0.035632
  27 H :    0.036301
  28 C :   -0.029296
  29 H :    0.034521
  30 H :    0.031976
  31 H :    0.019364
  32 H :    0.016474
  33 H :    0.063732
Sum of atomic charges:   -0.0000000

LOEWDIN ATOMIC CHARGES
----------------------
   0 S :    0.411580
   1 C :   -0.201196
   2 C :   -0.056179
   3 C :   -0.074879
   4 C :   -0.189333
   5 H :    0.032289
   6 C :   -0.032706
   7 H :    0.030194
   8 H :    0.032966
   9 C :   -0.048556
  10 H :    0.026171
  11 H :    0.025414
  12 C :   -0.074683
  13 H :    0.031235
  14 H :    0.027792
  15 H :    0.039346
  16 S :    0.419881
  17 C :   -0.203788
  18 C :   -0.072871
  19 C :   -0.051299
  20 C :   -0.192864
  21 H :    0.027369
  22 C :   -0.028695
  23 H :    0.023499
  24 H :    0.026820
  25 C :   -0.043866
  26 H :    0.029519
  27 H :    0.022934
  28 C :   -0.064322
  29 H :    0.023086
  30 H :    0.032848
  31 H :    0.018840
  32 H :    0.013951
  33 H :    0.039503

  Mayer bond orders larger than 0.100000
B(  0-S ,  1-C ) :   1.1245 B(  0-S ,  4-C ) :   1.1781 B(  1-C ,  2-C ) :   1.5989
B(  1-C ,  4-C ) :   0.1031 B(  1-C , 32-H ) :   0.9775 B(  2-C ,  3-C ) :   1.2585
B(  2-C ,  6-C ) :   1.0051 B(  3-C ,  4-C ) :   1.5157 B(  3-C ,  5-H ) :   0.9847
B(  4-C , 20-C ) :   1.0607 B(  6-C ,  7-H ) :   0.9378 B(  6-C ,  8-H ) :   0.9302
B(  6-C ,  9-C ) :   1.0771 B(  9-C , 10-H ) :   0.9494 B(  9-C , 11-H ) :   0.9560
B(  9-C , 12-C ) :   1.0602 B( 12-C , 13-H ) :   0.9733 B( 12-C , 14-H ) :   0.9754
B( 12-C , 15-H ) :   0.9639 B( 16-S , 17-C ) :   1.1634 B( 16-S , 20-C ) :   1.1414
B( 17-C , 18-C ) :   1.5963 B( 17-C , 33-H ) :   0.9600 B( 18-C , 19-C ) :   1.2688
B( 18-C , 21-H ) :   0.9881 B( 19-C , 20-C ) :   1.5680 B( 19-C , 22-C ) :   1.0490
B( 22-C , 23-H ) :   0.9186 B( 22-C , 24-H ) :   0.9279 B( 22-C , 25-C ) :   1.0706
B( 25-C , 26-H ) :   0.9521 B( 25-C , 27-H ) :   0.9488 B( 25-C , 28-C ) :   1.0803
B( 28-C , 29-H ) :   0.9744 B( 28-C , 30-H ) :   0.9719 B( 28-C , 31-H ) :   0.9728

Dispersion correction           -0.015174051
FINAL SINGLE POINT ENERGY     -1339.876656517290

DIPOLE MOMENT
-------------
                                X             Y             Z
Electronic contribution:     -1.40744     -28.90779      13.36746
Nuclear contribution   :      1.20919      29.53067     -13.66160
                        -----------------------------------------
Total Dipole Moment    :     -0.19824       0.62288      -0.29414
                        -----------------------------------------
Magnitude (a.u.)       :      0.71680
Magnitude (Debye)      :      1.82195

Rotational constants in cm-1:     0.016806     0.010833     0.007045
Rotational constants in MHz :   503.822000   324.779658   211.211349

                             ****ORCA TERMINATED NORMALLY****
TOTAL RUN TIME: 0 days 0 hours 0 minutes 22 seconds 658 msec
