                         Program Version 4.2.1 -  RELEASE  -
|  1> ! wB97X-D3 SP def2-SVP
|  2> %pal
|  3> nprocs 24
|  4> end
|  5>
|  6> * xyz 0 1
|  7> S 	 -88.6878 	 -37.3927 	 -64.7521
|  8> C 	 -90.2093 	 -38.2269 	 -64.5838
|  9> C 	 -91.2926 	 -37.3423 	 -64.5108
| 10> C 	 -90.844 	 -36.0166 	 -64.2543
| 11> C 	 -89.4472 	 -35.8535 	 -64.3056
| 12> H 	 -91.5527 	 -35.2218 	 -63.9126
| 13> C 	 -92.7717 	 -37.7232 	 -64.5042
| 14> H 	 -93.3103 	 -36.9772 	 -63.9224
| 15> H 	 -92.88 	 -38.5992 	 -63.8909
| 16> C 	 -93.3782 	 -38.0315 	 -65.8433
| 17> H 	 -93.2386 	 -37.0766 	 -66.461
| 18> H 	 -92.6427 	 -38.5971 	 -66.4628
| 19> C 	 -94.8227 	 -38.5485 	 -65.8283
| 20> H 	 -95.172 	 -38.399 	 -66.8691
| 21> H 	 -94.9073 	 -39.5776 	 -65.4968
| 22> H 	 -95.5473 	 -37.8878 	 -65.3098
| 23> S 	 -87.3421 	 -34.6417 	 -62.9277
| 24> C 	 -87.2643 	 -32.9783 	 -62.7595
| 25> C 	 -88.341 	 -32.3907 	 -63.4901
| 26> C 	 -89.2222 	 -33.29 	 -64.1748
| 27> C 	 -88.7912 	 -34.5931 	 -63.987
| 28> H 	 -88.6083 	 -31.3357 	 -63.333
| 29> C 	 -90.4583 	 -32.9082 	 -64.9434
| 30> H 	 -91.3063 	 -33.0229 	 -64.3293
| 31> H 	 -90.4616 	 -33.6186 	 -65.6996
| 32> C 	 -90.3807 	 -31.5231 	 -65.5353
| 33> H 	 -90.1281 	 -30.8119 	 -64.7334
| 34> H 	 -91.4069 	 -31.1447 	 -65.7645
| 35> C 	 -89.4531 	 -31.2377 	 -66.7785
| 36> H 	 -89.6835 	 -30.3888 	 -67.3372
| 37> H 	 -89.5141 	 -32.076 	 -67.5175
| 38> H 	 -88.4032 	 -31.0661 	 -66.4588
| 39> H 	 -90.3675 	 -39.2802 	 -64.7409
| 40> H 	 -86.6221 	 -32.4989 	 -62.0556
| 41> *
| 42>
| 43>                          ****END OF INPUT****

CARTESIAN COORDINATES (ANGSTROEM)
---------------------------------
  S    -88.687800  -37.392700  -64.752100
  C    -90.209300  -38.226900  -64.583800
  C    -91.292600  -37.342300  -64.510800
  C    -90.844000  -36.016600  -64.254300
  C    -89.447200  -35.853500  -64.305600
  H    -91.552700  -35.221800  -63.912600
  C    -92.771700  -37.723200  -64.504200
  H    -93.310300  -36.977200  -63.922400
  H    -92.880000  -38.599200  -63.890900
  C    -93.378200  -38.031500  -65.843300
  H    -93.238600  -37.076600  -66.461000
  H    -92.642700  -38.597100  -66.462800
  C    -94.822700  -38.548500  -65.828300
  H    -95.172000  -38.399000  -66.869100
  H    -94.907300  -39.577600  -65.496800
  H    -95.547300  -37.887800  -65.309800
  S    -87.342100  -34.641700  -62.927700
  C    -87.264300  -32.978300  -62.759500
  C    -88.341000  -32.390700  -63.490100
  C    -89.222200  -33.290000  -64.174800
  C    -88.791200  -34.593100  -63.987000
  H    -88.608300  -31.335700  -63.333000
  C    -90.458300  -32.908200  -64.943400
  H    -91.306300  -33.022900  -64.329300
  H    -90.461600  -33.618600  -65.699600
  C    -90.380700  -31.523100  -65.535300
  H    -90.128100  -30.811900  -64.733400
  H    -91.406900  -31.144700  -65.764500
  C    -89.453100  -31.237700  -66.778500
  H    -89.683500  -30.388800  -67.337200
  H    -89.514100  -32.076000  -67.517500
  H    -88.403200  -31.066100  -66.458800
  H    -90.367500  -39.280200  -64.740900
  H    -86.622100  -32.498900  -62.055600

 Total Charge           Charge          ....    0
 Multiplicity           Mult            ....    1
 Number of Electrons    NEL             ....  134
 Basis Dimension        Dim             ....  322

ORBITAL ENERGIES
----------------

  NO   OCC          E(Eh)            E(eV)
   0   2.0000     -88.971359     -2421.0338
   1   2.0000     -88.964127     -2420.8370
   2   2.0000     -10.332877      -281.1719
   3   2.0000     -10.326937      -281.0102
   4   2.0000     -10.317025      -280.7405
   5   2.0000     -10.313892      -280.6553
   6   2.0000     -10.302767      -280.3525
   7   2.0000     -10.301342      -280.3138
   8   2.0000     -10.297326      -280.2045
   9   2.0000     -10.296521      -280.1826
  10   2.0000     -10.293160      -280.0911
  11   2.0000     -10.291319      -280.0410
  12   2.0000     -10.288205      -279.9563
  13   2.0000     -10.286953      -279.9222
  14   2.0000     -10.285417      -279.8804
  15   2.0000     -10.279604      -279.7222
  16   2.0000      -8.085259      -220.0111
  17   2.0000      -8.079644      -219.8583
  18   2.0000      -6.043838      -164.4612
  19   2.0000      -6.039943      -164.3552
  20   2.0000      -6.037938      -164.3006
  21   2.0000      -6.035948      -164.2465
  22   2.0000      -6.033861      -164.1897
  23   2.0000      -6.030754      -164.1052
  24   2.0000      -1.004107       -27.3232
  25   2.0000      -0.982706       -26.7408
  26   2.0000      -0.916111       -24.9286
  27   2.0000      -0.911700       -24.8086
  28   2.0000      -0.867643       -23.6098
  29   2.0000      -0.850829       -23.1522
  30   2.0000      -0.840213       -22.8633
  31   2.0000      -0.805215       -21.9110
  32   2.0000      -0.792430       -21.5631
  33   2.0000      -0.774927       -21.0868
  34   2.0000      -0.710760       -19.3408
  35   2.0000      -0.702510       -19.1163
  36   2.0000      -0.697536       -18.9809
  37   2.0000      -0.651510       -17.7285
  38   2.0000      -0.635035       -17.2802
  39   2.0000      -0.619406       -16.8549
  40   2.0000      -0.601251       -16.3609
  41   2.0000      -0.567832       -15.4515
  42   2.0000      -0.564547       -15.3621
  43   2.0000      -0.554247       -15.0818
  44   2.0000      -0.529942       -14.4204
  45   2.0000      -0.525288       -14.2938
  46   2.0000      -0.520015       -14.1503
  47   2.0000      -0.510674       -13.8961
  48   2.0000      -0.503770       -13.7083
  49   2.0000      -0.500396       -13.6165
  50   2.0000      -0.488424       -13.2907
  51   2.0000      -0.480587       -13.0774
  52   2.0000      -0.473679       -12.8895
  53   2.0000      -0.466089       -12.6829
  54   2.0000      -0.462375       -12.5819
  55   2.0000      -0.454385       -12.3644
  56   2.0000      -0.448249       -12.1975
  57   2.0000      -0.439641       -11.9633
  58   2.0000      -0.431183       -11.7331
  59   2.0000      -0.424822       -11.5600
  60   2.0000      -0.423064       -11.5122
  61   2.0000      -0.406824       -11.0702
  62   2.0000      -0.402558       -10.9542
  63   2.0000      -0.350313        -9.5325
  64   2.0000      -0.333484        -9.0746
  65   2.0000      -0.328359        -8.9351
  66   2.0000      -0.281934        -7.6718
  67   0.0000       0.022142         0.6025
  68   0.0000       0.072013         1.9596
  69   0.0000       0.110509         3.0071
  70   0.0000       0.122036         3.3208
  71   0.0000       0.130479         3.5505

MULLIKEN ATOMIC CHARGES
-----------------------
   0 S :    0.124659
   1 C :   -0.110639
   2 C :   -0.102904
   3 C :   -0.018654
   4 C :   -0.139203
   5 H :    0.028941
   6 C :    0.091873
   7 H :    0.013417
   8 H :    0.012523
   9 C :   -0.109267
  10 H :    0.020962
  11 H :    0.027282
  12 C :   -0.026352
  13 H :    0.036366
  14 H :    0.048923
  15 H :    0.034439
  16 S :    0.114035
  17 C :   -0.082418
  18 C :   -0.068389
  19 C :   -0.073704
  20 C :   -0.164370
  21 H :    0.025798
  22 C :    0.156651
  23 H :    0.036310
  24 H :    0.018446
  25 C :   -0.103726
  26 H :    0.018775
  27 H :    0.022028
  28 C :   -0.036303
  29 H :    0.021208
  30 H :    0.036895
  31 H :    0.042372
  32 H :    0.044578
  33 H :    0.059449
Sum of atomic charges:    0.0000000

LOEWDIN ATOMIC CHARGES
----------------------
   0 S :    0.404954
   1 C :   -0.198970
   2 C :   -0.060986
   3 C :   -0.067997
   4 C :   -0.194127
   5 H :    0.037907
   6 C :   -0.036366
   7 H :    0.027008
   8 H :    0.026584
   9 C :   -0.057628
  10 H :    0.029371
  11 H :    0.028477
  12 C :   -0.068670
  13 H :    0.036049
  14 H :    0.027427
  15 H :    0.031067
  16 S :    0.427401
  17 C :   -0.206662
  18 C :   -0.082780
  19 C :   -0.050541
  20 C :   -0.190326
  21 H :    0.028444
  22 C :   -0.020808
  23 H :    0.030847
  24 H :    0.027994
  25 C :   -0.045143
  26 H :    0.021848
  27 H :    0.026781
  28 C :   -0.064785
  29 H :    0.018101
  30 H :    0.030693
  31 H :    0.031411
  32 H :    0.025474
  33 H :    0.027947

  Mayer bond orders larger than 0.100000
B(  0-S ,  1-C ) :   1.1428 B(  0-S ,  4-C ) :   1.1449 B(  1-C ,  2-C ) :   1.5903
B(  1-C , 32-H ) :   0.9653 B(  2-C ,  3-C ) :   1.2767 B(  2-C ,  6-C ) :   1.0204
B(  3-C ,  4-C ) :   1.5349 B(  3-C ,  5-H ) :   0.9783 B(  4-C , 20-C ) :   1.0820
B(  6-C ,  7-H ) :   0.9404 B(  6-C ,  8-H ) :   0.9376 B(  6-C ,  9-C ) :   1.0562
B(  9-C , 10-H ) :   0.9487 B(  9-C , 11-H ) :   0.9545 B(  9-C , 12-C ) :   1.0690
B( 12-C , 13-H ) :   0.9717 B( 12-C , 14-H ) :   0.9749 B( 12-C , 15-H ) :   0.9723
B( 16-S , 17-C ) :   1.1970 B( 16-S , 20-C ) :   1.1461 B( 17-C , 18-C ) :   1.5414
B( 17-C , 20-C ) :   0.1033 B( 17-C , 33-H ) :   0.9729 B( 18-C , 19-C ) :   1.2839
B( 18-C , 21-H ) :   0.9804 B( 19-C , 20-C ) :   1.5644 B( 19-C , 22-C ) :   1.0158
B( 22-C , 23-H ) :   0.9193 B( 22-C , 24-H ) :   0.9273 B( 22-C , 25-C ) :   1.0865
B( 25-C , 26-H ) :   0.9480 B( 25-C , 27-H ) :   0.9534 B( 25-C , 28-C ) :   1.0687
B( 28-C , 29-H ) :   0.9763 B( 28-C , 30-H ) :   0.9763 B( 28-C , 31-H ) :   0.9750

Dispersion correction           -0.013797698
FINAL SINGLE POINT ENERGY     -1339.869043157498

DIPOLE MOMENT
-------------
                                X             Y             Z
Electronic contribution:     24.94814      -6.81958      12.42065
Nuclear contribution   :    -25.69545       7.08420     -12.43819
                        -----------------------------------------
Total Dipole Moment    :     -0.74732       0.26462      -0.01754
                        -----------------------------------------
Magnitude (a.u.)       :      0.79298
Magnitude (Debye)      :      2.01559

Rotational constants in cm-1:     0.019160     0.007883     0.006115
Rotational constants in MHz :   574.417103   236.315185   183.332776

                             ****ORCA TERMINATED NORMALLY****
TOTAL RUN TIME: 0 days 0 hours 0 minutes 20 seconds 95 msec
