                         Program Version 4.2.1 -  RELEASE  -
|  1> ! wB97X-D3 SP def2-SVP
|  2> %pal
|  3> nprocs 24
|  4> end
|  5>
|  6> * xyz 0 1
|  7> S 	 24.6919 	 0.149104 	 -107.719
|  8> C 	 23.3037 	 -0.81917 	 -107.301
|  9> C 	 22.4491 	 -0.917251 	 -108.403
| 10> C 	 22.9257 	 -0.212251 	 -109.58
| 11> C 	 24.132 	 0.368655 	 -109.389
| 12> H 	 22.4686 	 -0.178955 	 -110.593
| 13> C 	 21.2094 	 -1.85438 	 -108.426
| 14> H 	 20.4449 	 -1.18528 	 -108.249
| 15> H 	 21.1914 	 -2.5498 	 -107.501
| 16> C 	 20.8571 	 -2.72393 	 -109.654
| 17> H 	 19.9174 	 -3.19564 	 -109.339
| 18> H 	 20.52 	 -2.10965 	 -110.508
| 19> C 	 21.9482 	 -3.6474 	 -110.232
| 20> H 	 22.7974 	 -2.98824 	 -110.537
| 21> H 	 22.3096 	 -4.28957 	 -109.451
| 22> H 	 21.4517 	 -4.22828 	 -110.965
| 23> S 	 25.3729 	 2.68701 	 -109.391
| 24> C 	 26.5174 	 3.08396 	 -110.666
| 25> C 	 26.1188 	 2.41865 	 -111.852
| 26> C 	 25.1506 	 1.39366 	 -111.612
| 27> C 	 24.842 	 1.30576 	 -110.271
| 28> H 	 26.6907 	 2.68409 	 -112.769
| 29> C 	 24.722 	 0.457266 	 -112.697
| 30> H 	 24.6535 	 0.960029 	 -113.738
| 31> H 	 23.7414 	 0.12217 	 -112.456
| 32> C 	 25.6037 	 -0.826185 	 -112.758
| 33> H 	 25.3226 	 -1.47782 	 -112.002
| 34> H 	 26.6405 	 -0.526167 	 -112.516
| 35> C 	 25.5124 	 -1.42997 	 -114.207
| 36> H 	 26.1201 	 -0.816059 	 -114.91
| 37> H 	 24.5276 	 -1.39495 	 -114.591
| 38> H 	 25.8735 	 -2.46408 	 -114.272
| 39> H 	 23.1574 	 -1.2113 	 -106.271
| 40> H 	 27.0326 	 4.05244 	 -110.681
| 41> *
| 42>
| 43>                          ****END OF INPUT****

CARTESIAN COORDINATES (ANGSTROEM)
---------------------------------
  S     24.691900    0.149104  -107.719000
  C     23.303700   -0.819170  -107.301000
  C     22.449100   -0.917251  -108.403000
  C     22.925700   -0.212251  -109.580000
  C     24.132000    0.368655  -109.389000
  H     22.468600   -0.178955  -110.593000
  C     21.209400   -1.854380  -108.426000
  H     20.444900   -1.185280  -108.249000
  H     21.191400   -2.549800  -107.501000
  C     20.857100   -2.723930  -109.654000
  H     19.917400   -3.195640  -109.339000
  H     20.520000   -2.109650  -110.508000
  C     21.948200   -3.647400  -110.232000
  H     22.797400   -2.988240  -110.537000
  H     22.309600   -4.289570  -109.451000
  H     21.451700   -4.228280  -110.965000
  S     25.372900    2.687010  -109.391000
  C     26.517400    3.083960  -110.666000
  C     26.118800    2.418650  -111.852000
  C     25.150600    1.393660  -111.612000
  C     24.842000    1.305760  -110.271000
  H     26.690700    2.684090  -112.769000
  C     24.722000    0.457266  -112.697000
  H     24.653500    0.960029  -113.738000
  H     23.741400    0.122170  -112.456000
  C     25.603700   -0.826185  -112.758000
  H     25.322600   -1.477820  -112.002000
  H     26.640500   -0.526167  -112.516000
  C     25.512400   -1.429970  -114.207000
  H     26.120100   -0.816059  -114.910000
  H     24.527600   -1.394950  -114.591000
  H     25.873500   -2.464080  -114.272000
  H     23.157400   -1.211300  -106.271000
  H     27.032600    4.052440  -110.681000

 Total Charge           Charge          ....    0
 Multiplicity           Mult            ....    1
 Number of Electrons    NEL             ....  134
 Basis Dimension        Dim             ....  322

ORBITAL ENERGIES
----------------

  NO   OCC          E(Eh)            E(eV)
   0   2.0000     -88.964828     -2420.8560
   1   2.0000     -88.961589     -2420.7679
   2   2.0000     -10.330820      -281.1159
   3   2.0000     -10.325622      -280.9745
   4   2.0000     -10.319672      -280.8126
   5   2.0000     -10.316127      -280.7161
   6   2.0000     -10.309520      -280.5363
   7   2.0000     -10.304272      -280.3935
   8   2.0000     -10.301711      -280.3238
   9   2.0000     -10.299086      -280.2524
  10   2.0000     -10.295603      -280.1576
  11   2.0000     -10.294457      -280.1264
  12   2.0000     -10.290574      -280.0208
  13   2.0000     -10.284702      -279.8610
  14   2.0000     -10.280259      -279.7401
  15   2.0000     -10.277206      -279.6570
  16   2.0000      -8.079347      -219.8502
  17   2.0000      -8.077061      -219.7880
  18   2.0000      -6.037910      -164.2999
  19   2.0000      -6.035427      -164.2323
  20   2.0000      -6.033798      -164.1880
  21   2.0000      -6.031595      -164.1280
  22   2.0000      -6.030091      -164.0871
  23   2.0000      -6.027741      -164.0232
  24   2.0000      -1.010256       -27.4905
  25   2.0000      -0.982712       -26.7410
  26   2.0000      -0.908597       -24.7242
  27   2.0000      -0.904214       -24.6049
  28   2.0000      -0.868584       -23.6354
  29   2.0000      -0.850336       -23.1388
  30   2.0000      -0.841538       -22.8994
  31   2.0000      -0.816271       -22.2119
  32   2.0000      -0.781106       -21.2550
  33   2.0000      -0.770938       -20.9783
  34   2.0000      -0.709003       -19.2929
  35   2.0000      -0.697805       -18.9883
  36   2.0000      -0.689147       -18.7526
  37   2.0000      -0.662088       -18.0163
  38   2.0000      -0.639151       -17.3922
  39   2.0000      -0.618918       -16.8416
  40   2.0000      -0.593661       -16.1543
  41   2.0000      -0.563736       -15.3400
  42   2.0000      -0.557090       -15.1592
  43   2.0000      -0.555353       -15.1119
  44   2.0000      -0.538602       -14.6561
  45   2.0000      -0.519108       -14.1256
  46   2.0000      -0.517892       -14.0926
  47   2.0000      -0.515552       -14.0289
  48   2.0000      -0.504527       -13.7289
  49   2.0000      -0.493139       -13.4190
  50   2.0000      -0.487976       -13.2785
  51   2.0000      -0.486814       -13.2469
  52   2.0000      -0.467997       -12.7348
  53   2.0000      -0.462108       -12.5746
  54   2.0000      -0.458251       -12.4697
  55   2.0000      -0.449226       -12.2241
  56   2.0000      -0.445017       -12.1095
  57   2.0000      -0.437213       -11.8972
  58   2.0000      -0.432936       -11.7808
  59   2.0000      -0.427450       -11.6315
  60   2.0000      -0.420593       -11.4449
  61   2.0000      -0.414528       -11.2799
  62   2.0000      -0.409945       -11.1552
  63   2.0000      -0.353488        -9.6189
  64   2.0000      -0.330406        -8.9908
  65   2.0000      -0.321926        -8.7601
  66   2.0000      -0.289694        -7.8830
  67   0.0000       0.022572         0.6142
  68   0.0000       0.071391         1.9426
  69   0.0000       0.095978         2.6117
  70   0.0000       0.117205         3.1893
  71   0.0000       0.131131         3.5683

MULLIKEN ATOMIC CHARGES
-----------------------
   0 S :    0.108133
   1 C :   -0.148739
   2 C :   -0.085605
   3 C :    0.004201
   4 C :   -0.125731
   5 H :    0.035939
   6 C :    0.056105
   7 H :    0.021686
   8 H :    0.032882
   9 C :   -0.108708
  10 H :    0.028724
  11 H :    0.021946
  12 C :   -0.015698
  13 H :    0.050466
  14 H :    0.025427
  15 H :    0.036192
  16 S :    0.099292
  17 C :   -0.105813
  18 C :   -0.079053
  19 C :   -0.019579
  20 C :   -0.159100
  21 H :    0.041055
  22 C :    0.038854
  23 H :    0.044087
  24 H :    0.001909
  25 C :   -0.040564
  26 H :    0.023211
  27 H :    0.035537
  28 C :   -0.056620
  29 H :    0.035426
  30 H :    0.023865
  31 H :    0.039133
  32 H :    0.072033
  33 H :    0.069110
Sum of atomic charges:    0.0000000

LOEWDIN ATOMIC CHARGES
----------------------
   0 S :    0.397834
   1 C :   -0.206533
   2 C :   -0.062493
   3 C :   -0.073866
   4 C :   -0.188857
   5 H :    0.039595
   6 C :   -0.036576
   7 H :    0.023664
   8 H :    0.037283
   9 C :   -0.048741
  10 H :    0.027543
  11 H :    0.020876
  12 C :   -0.058757
  13 H :    0.035037
  14 H :    0.022042
  15 H :    0.024532
  16 S :    0.416368
  17 C :   -0.200584
  18 C :   -0.066821
  19 C :   -0.065881
  20 C :   -0.193876
  21 H :    0.039364
  22 C :   -0.033779
  23 H :    0.041646
  24 H :    0.019169
  25 C :   -0.027352
  26 H :    0.014592
  27 H :    0.026896
  28 C :   -0.064928
  29 H :    0.029424
  30 H :    0.016765
  31 H :    0.027144
  32 H :    0.039274
  33 H :    0.029996

  Mayer bond orders larger than 0.100000
B(  0-S ,  1-C ) :   1.1334 B(  0-S ,  4-C ) :   1.1439 B(  1-C ,  2-C ) :   1.6131
B(  1-C , 32-H ) :   0.9668 B(  2-C ,  3-C ) :   1.2236 B(  2-C ,  6-C ) :   0.9974
B(  3-C ,  4-C ) :   1.5973 B(  3-C ,  5-H ) :   0.9813 B(  4-C , 20-C ) :   1.0288
B(  6-C ,  7-H ) :   0.9290 B(  6-C ,  8-H ) :   0.9523 B(  6-C ,  9-C ) :   1.0834
B(  9-C , 10-H ) :   0.9512 B(  9-C , 11-H ) :   0.9500 B(  9-C , 12-C ) :   1.0698
B( 12-C , 13-H ) :   0.9703 B( 12-C , 14-H ) :   0.9770 B( 12-C , 15-H ) :   0.9739
B( 16-S , 17-C ) :   1.1455 B( 16-S , 20-C ) :   1.1743 B( 17-C , 18-C ) :   1.6006
B( 17-C , 20-C ) :   0.1056 B( 17-C , 33-H ) :   0.9620 B( 18-C , 19-C ) :   1.2352
B( 18-C , 21-H ) :   0.9856 B( 19-C , 20-C ) :   1.5725 B( 19-C , 22-C ) :   1.0603
B( 22-C , 23-H ) :   0.9450 B( 22-C , 24-H ) :   0.9215 B( 22-C , 25-C ) :   1.0461
B( 25-C , 26-H ) :   0.9562 B( 25-C , 27-H ) :   0.9654 B( 25-C , 28-C ) :   1.0681
B( 28-C , 29-H ) :   0.9783 B( 28-C , 30-H ) :   0.9762 B( 28-C , 31-H ) :   0.9756

Dispersion correction           -0.014601104
FINAL SINGLE POINT ENERGY     -1339.858970657954

DIPOLE MOMENT
-------------
                                X             Y             Z
Electronic contribution:      9.72849      21.23415      18.77930
Nuclear contribution   :    -10.15126     -21.54867     -19.20419
                        -----------------------------------------
Total Dipole Moment    :     -0.42277      -0.31451      -0.42489
                        -----------------------------------------
Magnitude (a.u.)       :      0.67689
Magnitude (Debye)      :      1.72053

Rotational constants in cm-1:     0.016787     0.010272     0.006947
Rotational constants in MHz :   503.268230   307.938310   208.262647

                             ****ORCA TERMINATED NORMALLY****
TOTAL RUN TIME: 0 days 0 hours 0 minutes 21 seconds 875 msec
