                         Program Version 4.2.1 -  RELEASE  -
|  1> ! wB97X-D3 SP def2-SVP
|  2> %pal
|  3> nprocs 24
|  4> end
|  5>
|  6> * xyz 0 1
|  7> S 	 -100.891 	 1.06224 	 -118.187
|  8> C 	 -100.176 	 2.09024 	 -119.352
|  9> C 	 -99.8465 	 3.34132 	 -118.8
| 10> C 	 -100.051 	 3.35788 	 -117.415
| 11> C 	 -100.54 	 2.20225 	 -116.928
| 12> H 	 -99.7341 	 4.16447 	 -116.714
| 13> C 	 -99.0933 	 4.46507 	 -119.543
| 14> H 	 -99.0989 	 4.23122 	 -120.612
| 15> H 	 -98.0382 	 4.37794 	 -119.179
| 16> C 	 -99.5426 	 5.87564 	 -119.227
| 17> H 	 -100.536 	 5.93628 	 -119.523
| 18> H 	 -99.6656 	 5.96326 	 -118.179
| 19> C 	 -98.7433 	 7.04372 	 -119.875
| 20> H 	 -97.7674 	 7.02904 	 -119.349
| 21> H 	 -98.6392 	 6.84386 	 -120.915
| 22> H 	 -99.2082 	 8.03812 	 -119.855
| 23> S 	 -99.034 	 1.16227 	 -114.91
| 24> C 	 -99.8119 	 0.419907 	 -113.478
| 25> C 	 -101.142 	 0.713049 	 -113.496
| 26> C 	 -101.607 	 1.50396 	 -114.619
| 27> C 	 -100.566 	 1.76512 	 -115.522
| 28> H 	 -101.774 	 0.419294 	 -112.668
| 29> C 	 -103.014 	 1.96009 	 -114.741
| 30> H 	 -103.012 	 3.04825 	 -114.882
| 31> H 	 -103.431 	 1.7885 	 -113.842
| 32> C 	 -103.853 	 1.20249 	 -115.775
| 33> H 	 -103.498 	 0.174502 	 -115.826
| 34> H 	 -103.668 	 1.68989 	 -116.701
| 35> C 	 -105.374 	 1.13672 	 -115.421
| 36> H 	 -105.922 	 0.328364 	 -115.915
| 37> H 	 -105.837 	 2.08076 	 -115.54
| 38> H 	 -105.457 	 0.892717 	 -114.35
| 39> H 	 -100.079 	 1.90254 	 -120.451
| 40> H 	 -99.4151 	 -0.305004 	 -112.794
| 41> *
| 42>
| 43>                          ****END OF INPUT****

CARTESIAN COORDINATES (ANGSTROEM)
---------------------------------
  S    -100.891000    1.062240  -118.187000
  C    -100.176000    2.090240  -119.352000
  C    -99.846500    3.341320  -118.800000
  C    -100.051000    3.357880  -117.415000
  C    -100.540000    2.202250  -116.928000
  H    -99.734100    4.164470  -116.714000
  C    -99.093300    4.465070  -119.543000
  H    -99.098900    4.231220  -120.612000
  H    -98.038200    4.377940  -119.179000
  C    -99.542600    5.875640  -119.227000
  H    -100.536000    5.936280  -119.523000
  H    -99.665600    5.963260  -118.179000
  C    -98.743300    7.043720  -119.875000
  H    -97.767400    7.029040  -119.349000
  H    -98.639200    6.843860  -120.915000
  H    -99.208200    8.038120  -119.855000
  S    -99.034000    1.162270  -114.910000
  C    -99.811900    0.419907  -113.478000
  C    -101.142000    0.713049  -113.496000
  C    -101.607000    1.503960  -114.619000
  C    -100.566000    1.765120  -115.522000
  H    -101.774000    0.419294  -112.668000
  C    -103.014000    1.960090  -114.741000
  H    -103.012000    3.048250  -114.882000
  H    -103.431000    1.788500  -113.842000
  C    -103.853000    1.202490  -115.775000
  H    -103.498000    0.174502  -115.826000
  H    -103.668000    1.689890  -116.701000
  C    -105.374000    1.136720  -115.421000
  H    -105.922000    0.328364  -115.915000
  H    -105.837000    2.080760  -115.540000
  H    -105.457000    0.892717  -114.350000
  H    -100.079000    1.902540  -120.451000
  H    -99.415100   -0.305004  -112.794000

 Total Charge           Charge          ....    0
 Multiplicity           Mult            ....    1
 Number of Electrons    NEL             ....  134
 Basis Dimension        Dim             ....  322

ORBITAL ENERGIES
----------------

  NO   OCC          E(Eh)            E(eV)
   0   2.0000     -88.967877     -2420.9390
   1   2.0000     -88.962010     -2420.7794
   2   2.0000     -10.325346      -280.9669
   3   2.0000     -10.323344      -280.9125
   4   2.0000     -10.316244      -280.7193
   5   2.0000     -10.315805      -280.7073
   6   2.0000     -10.302478      -280.3447
   7   2.0000     -10.300531      -280.2917
   8   2.0000     -10.295730      -280.1611
   9   2.0000     -10.292043      -280.0607
  10   2.0000     -10.291206      -280.0379
  11   2.0000     -10.281667      -279.7784
  12   2.0000     -10.279992      -279.7328
  13   2.0000     -10.277717      -279.6709
  14   2.0000     -10.276570      -279.6397
  15   2.0000     -10.275798      -279.6187
  16   2.0000      -8.083191      -219.9548
  17   2.0000      -8.076075      -219.7612
  18   2.0000      -6.041621      -164.4009
  19   2.0000      -6.037540      -164.2898
  20   2.0000      -6.034725      -164.2132
  21   2.0000      -6.034052      -164.1949
  22   2.0000      -6.030593      -164.1008
  23   2.0000      -6.026787      -163.9972
  24   2.0000      -1.011044       -27.5119
  25   2.0000      -0.982384       -26.7320
  26   2.0000      -0.911603       -24.8060
  27   2.0000      -0.909962       -24.7613
  28   2.0000      -0.868580       -23.6353
  29   2.0000      -0.852252       -23.1910
  30   2.0000      -0.843423       -22.9507
  31   2.0000      -0.816434       -22.2163
  32   2.0000      -0.782368       -21.2893
  33   2.0000      -0.768837       -20.9211
  34   2.0000      -0.713937       -19.4272
  35   2.0000      -0.702059       -19.1040
  36   2.0000      -0.688222       -18.7275
  37   2.0000      -0.661478       -17.9997
  38   2.0000      -0.640035       -17.4162
  39   2.0000      -0.621438       -16.9102
  40   2.0000      -0.593413       -16.1476
  41   2.0000      -0.570947       -15.5363
  42   2.0000      -0.568623       -15.4730
  43   2.0000      -0.560976       -15.2649
  44   2.0000      -0.527055       -14.3419
  45   2.0000      -0.522180       -14.2092
  46   2.0000      -0.513863       -13.9829
  47   2.0000      -0.508959       -13.8495
  48   2.0000      -0.505110       -13.7448
  49   2.0000      -0.496430       -13.5086
  50   2.0000      -0.491948       -13.3866
  51   2.0000      -0.475988       -12.9523
  52   2.0000      -0.472770       -12.8647
  53   2.0000      -0.468927       -12.7602
  54   2.0000      -0.460376       -12.5275
  55   2.0000      -0.453916       -12.3517
  56   2.0000      -0.444741       -12.1020
  57   2.0000      -0.433725       -11.8023
  58   2.0000      -0.433051       -11.7839
  59   2.0000      -0.426756       -11.6126
  60   2.0000      -0.421677       -11.4744
  61   2.0000      -0.417052       -11.3486
  62   2.0000      -0.414153       -11.2697
  63   2.0000      -0.340478        -9.2649
  64   2.0000      -0.334129        -9.0921
  65   2.0000      -0.315199        -8.5770
  66   2.0000      -0.304779        -8.2934
  67   0.0000       0.044525         1.2116
  68   0.0000       0.049595         1.3496
  69   0.0000       0.109768         2.9869
  70   0.0000       0.124121         3.3775
  71   0.0000       0.133360         3.6289

MULLIKEN ATOMIC CHARGES
-----------------------
   0 S :    0.145273
   1 C :   -0.145416
   2 C :   -0.089762
   3 C :    0.008927
   4 C :   -0.155919
   5 H :    0.035309
   6 C :    0.060493
   7 H :    0.017870
   8 H :    0.042631
   9 C :   -0.061187
  10 H :    0.004082
  11 H :    0.011690
  12 C :   -0.037104
  13 H :    0.040903
  14 H :    0.024711
  15 H :    0.042436
  16 S :    0.101950
  17 C :   -0.081605
  18 C :   -0.037970
  19 C :   -0.081905
  20 C :   -0.176644
  21 H :    0.019332
  22 C :    0.163914
  23 H :    0.039105
  24 H :   -0.039597
  25 C :   -0.075724
  26 H :    0.031098
  27 H :    0.032574
  28 C :   -0.046871
  29 H :    0.040969
  30 H :    0.029078
  31 H :    0.019453
  32 H :    0.062827
  33 H :    0.055077
Sum of atomic charges:   -0.0000000

LOEWDIN ATOMIC CHARGES
----------------------
   0 S :    0.441628
   1 C :   -0.218989
   2 C :   -0.067538
   3 C :   -0.068307
   4 C :   -0.207795
   5 H :    0.042480
   6 C :   -0.027818
   7 H :    0.026129
   8 H :    0.036558
   9 C :   -0.044118
  10 H :    0.015672
  11 H :    0.017232
  12 C :   -0.060823
  13 H :    0.030675
  14 H :    0.021332
  15 H :    0.031359
  16 S :    0.389233
  17 C :   -0.175207
  18 C :   -0.072187
  19 C :   -0.051530
  20 C :   -0.200572
  21 H :    0.030181
  22 C :   -0.025409
  23 H :    0.039148
  24 H :    0.009639
  25 C :   -0.032659
  26 H :    0.025142
  27 H :    0.016873
  28 C :   -0.063271
  29 H :    0.029174
  30 H :    0.019253
  31 H :    0.024160
  32 H :    0.038129
  33 H :    0.032227

  Mayer bond orders larger than 0.100000
B(  0-S ,  1-C ) :   1.1619 B(  0-S ,  4-C ) :   1.1572 B(  1-C ,  2-C ) :   1.5935
B(  1-C , 32-H ) :   0.9600 B(  2-C ,  3-C ) :   1.2443 B(  2-C ,  6-C ) :   1.0241
B(  3-C ,  4-C ) :   1.5986 B(  3-C ,  5-H ) :   0.9867 B(  4-C , 20-C ) :   1.0037
B(  6-C ,  7-H ) :   0.9417 B(  6-C ,  8-H ) :   0.9411 B(  6-C ,  9-C ) :   1.0553
B(  9-C , 10-H ) :   0.9500 B(  9-C , 11-H ) :   0.9543 B(  9-C , 12-C ) :   1.0766
B( 12-C , 13-H ) :   0.9776 B( 12-C , 14-H ) :   0.9753 B( 12-C , 15-H ) :   0.9757
B( 16-S , 17-C ) :   1.1362 B( 16-S , 20-C ) :   1.1395 B( 17-C , 18-C ) :   1.6389
B( 17-C , 33-H ) :   0.9652 B( 18-C , 19-C ) :   1.2398 B( 18-C , 21-H ) :   0.9810
B( 19-C , 20-C ) :   1.5947 B( 19-C , 22-C ) :   1.0531 B( 22-C , 23-H ) :   0.9249
B( 22-C , 24-H ) :   0.9113 B( 22-C , 25-C ) :   1.0505 B( 25-C , 26-H ) :   0.9611
B( 25-C , 27-H ) :   0.9557 B( 25-C , 28-C ) :   1.0812 B( 28-C , 29-H ) :   0.9775
B( 28-C , 30-H ) :   0.9768 B( 28-C , 31-H ) :   0.9755

Dispersion correction           -0.014061964
FINAL SINGLE POINT ENERGY     -1339.870828316273

DIPOLE MOMENT
-------------
                                X             Y             Z
Electronic contribution:     10.71447     -15.99390       6.15100
Nuclear contribution   :    -10.94910      16.22485      -6.17275
                        -----------------------------------------
Total Dipole Moment    :     -0.23464       0.23095      -0.02175
                        -----------------------------------------
Magnitude (a.u.)       :      0.32995
Magnitude (Debye)      :      0.83867

Rotational constants in cm-1:     0.019324     0.007684     0.006683
Rotational constants in MHz :   579.332183   230.355707   200.362490

                             ****ORCA TERMINATED NORMALLY****
TOTAL RUN TIME: 0 days 0 hours 0 minutes 20 seconds 135 msec
