                         Program Version 4.2.1 -  RELEASE  -
|  1> ! wB97X-D3 SP def2-SVP
|  2> %pal
|  3> nprocs 24
|  4> end
|  5>
|  6> * xyz 0 1
|  7> S 	 -65.4847 	 6.28287 	 -82.8321
|  8> C 	 -66.77 	 5.88209 	 -83.971
|  9> C 	 -67.8427 	 6.73096 	 -83.8072
| 10> C 	 -67.5222 	 7.83533 	 -82.9591
| 11> C 	 -66.2554 	 7.82065 	 -82.5065
| 12> H 	 -68.1934 	 8.65127 	 -82.747
| 13> C 	 -69.2817 	 6.48695 	 -84.2018
| 14> H 	 -69.8198 	 5.90016 	 -83.4269
| 15> H 	 -69.1442 	 5.77904 	 -85.0178
| 16> C 	 -70.0552 	 7.78405 	 -84.6924
| 17> H 	 -71.1334 	 7.5508 	 -84.8135
| 18> H 	 -70.0384 	 8.59522 	 -83.9693
| 19> C 	 -69.4339 	 8.39106 	 -85.8693
| 20> H 	 -70.0909 	 9.27989 	 -86.0217
| 21> H 	 -68.3616 	 8.68674 	 -85.705
| 22> H 	 -69.4782 	 7.6851 	 -86.7178
| 23> S 	 -65.2542 	 10.3246 	 -82.1519
| 24> C 	 -64.6058 	 10.822 	 -80.5868
| 25> C 	 -64.8111 	 9.86121 	 -79.6087
| 26> C 	 -65.493 	 8.73444 	 -80.165
| 27> C 	 -65.7112 	 8.74766 	 -81.5403
| 28> H 	 -64.5732 	 10.0954 	 -78.6204
| 29> C 	 -65.7577 	 7.47762 	 -79.3477
| 30> H 	 -65.2774 	 7.65012 	 -78.4087
| 31> H 	 -65.2709 	 6.5997 	 -79.8151
| 32> C 	 -67.2002 	 7.14537 	 -79.0171
| 33> H 	 -67.6814 	 6.73363 	 -79.9043
| 34> H 	 -67.7479 	 8.06384 	 -78.9038
| 35> C 	 -67.3236 	 6.07204 	 -77.863
| 36> H 	 -66.6412 	 5.23625 	 -78.0209
| 37> H 	 -68.3374 	 5.61737 	 -77.797
| 38> H 	 -66.9624 	 6.38992 	 -76.8696
| 39> H 	 -66.8298 	 5.01571 	 -84.5382
| 40> H 	 -64.1121 	 11.717 	 -80.266
| 41> *
| 42>
| 43>                          ****END OF INPUT****

CARTESIAN COORDINATES (ANGSTROEM)
---------------------------------
  S    -65.484700    6.282870  -82.832100
  C    -66.770000    5.882090  -83.971000
  C    -67.842700    6.730960  -83.807200
  C    -67.522200    7.835330  -82.959100
  C    -66.255400    7.820650  -82.506500
  H    -68.193400    8.651270  -82.747000
  C    -69.281700    6.486950  -84.201800
  H    -69.819800    5.900160  -83.426900
  H    -69.144200    5.779040  -85.017800
  C    -70.055200    7.784050  -84.692400
  H    -71.133400    7.550800  -84.813500
  H    -70.038400    8.595220  -83.969300
  C    -69.433900    8.391060  -85.869300
  H    -70.090900    9.279890  -86.021700
  H    -68.361600    8.686740  -85.705000
  H    -69.478200    7.685100  -86.717800
  S    -65.254200   10.324600  -82.151900
  C    -64.605800   10.822000  -80.586800
  C    -64.811100    9.861210  -79.608700
  C    -65.493000    8.734440  -80.165000
  C    -65.711200    8.747660  -81.540300
  H    -64.573200   10.095400  -78.620400
  C    -65.757700    7.477620  -79.347700
  H    -65.277400    7.650120  -78.408700
  H    -65.270900    6.599700  -79.815100
  C    -67.200200    7.145370  -79.017100
  H    -67.681400    6.733630  -79.904300
  H    -67.747900    8.063840  -78.903800
  C    -67.323600    6.072040  -77.863000
  H    -66.641200    5.236250  -78.020900
  H    -68.337400    5.617370  -77.797000
  H    -66.962400    6.389920  -76.869600
  H    -66.829800    5.015710  -84.538200
  H    -64.112100   11.717000  -80.266000

 Total Charge           Charge          ....    0
 Multiplicity           Mult            ....    1
 Number of Electrons    NEL             ....  134
 Basis Dimension        Dim             ....  322

ORBITAL ENERGIES
----------------

  NO   OCC          E(Eh)            E(eV)
   0   2.0000     -88.967963     -2420.9413
   1   2.0000     -88.965602     -2420.8771
   2   2.0000     -10.326385      -280.9952
   3   2.0000     -10.323502      -280.9168
   4   2.0000     -10.316349      -280.7221
   5   2.0000     -10.312982      -280.6305
   6   2.0000     -10.302236      -280.3381
   7   2.0000     -10.300484      -280.2904
   8   2.0000     -10.297959      -280.2217
   9   2.0000     -10.290846      -280.0282
  10   2.0000     -10.289961      -280.0041
  11   2.0000     -10.289568      -279.9934
  12   2.0000     -10.282704      -279.8066
  13   2.0000     -10.282279      -279.7950
  14   2.0000     -10.281294      -279.7682
  15   2.0000     -10.279615      -279.7225
  16   2.0000      -8.082352      -219.9320
  17   2.0000      -8.079818      -219.8630
  18   2.0000      -6.040937      -164.3823
  19   2.0000      -6.038345      -164.3117
  20   2.0000      -6.037140      -164.2789
  21   2.0000      -6.034278      -164.2011
  22   2.0000      -6.032812      -164.1612
  23   2.0000      -6.030706      -164.1039
  24   2.0000      -1.009895       -27.4806
  25   2.0000      -0.984748       -26.7964
  26   2.0000      -0.915670       -24.9167
  27   2.0000      -0.902387       -24.5552
  28   2.0000      -0.877033       -23.8653
  29   2.0000      -0.851988       -23.1838
  30   2.0000      -0.840876       -22.8814
  31   2.0000      -0.821308       -22.3489
  32   2.0000      -0.780428       -21.2365
  33   2.0000      -0.766729       -20.8638
  34   2.0000      -0.713990       -19.4286
  35   2.0000      -0.696582       -18.9550
  36   2.0000      -0.690980       -18.8025
  37   2.0000      -0.666117       -18.1260
  38   2.0000      -0.641952       -17.4684
  39   2.0000      -0.627864       -17.0851
  40   2.0000      -0.588958       -16.0264
  41   2.0000      -0.574197       -15.6247
  42   2.0000      -0.558746       -15.2043
  43   2.0000      -0.555520       -15.1165
  44   2.0000      -0.539754       -14.6875
  45   2.0000      -0.525101       -14.2887
  46   2.0000      -0.520533       -14.1644
  47   2.0000      -0.508698       -13.8424
  48   2.0000      -0.502698       -13.6791
  49   2.0000      -0.497019       -13.5246
  50   2.0000      -0.494821       -13.4648
  51   2.0000      -0.479173       -13.0390
  52   2.0000      -0.473333       -12.8800
  53   2.0000      -0.463710       -12.6182
  54   2.0000      -0.453600       -12.3431
  55   2.0000      -0.449529       -12.2323
  56   2.0000      -0.445607       -12.1256
  57   2.0000      -0.436528       -11.8785
  58   2.0000      -0.433816       -11.8047
  59   2.0000      -0.424407       -11.5487
  60   2.0000      -0.415136       -11.2964
  61   2.0000      -0.412803       -11.2329
  62   2.0000      -0.408077       -11.1043
  63   2.0000      -0.340082        -9.2541
  64   2.0000      -0.333700        -9.0804
  65   2.0000      -0.325113        -8.8468
  66   2.0000      -0.301482        -8.2037
  67   0.0000       0.037020         1.0074
  68   0.0000       0.055202         1.5021
  69   0.0000       0.099374         2.7041
  70   0.0000       0.122375         3.3300
  71   0.0000       0.129501         3.5239

MULLIKEN ATOMIC CHARGES
-----------------------
   0 S :    0.109640
   1 C :   -0.085948
   2 C :   -0.110237
   3 C :    0.037701
   4 C :   -0.132027
   5 H :    0.012920
   6 C :    0.074949
   7 H :    0.056224
   8 H :    0.009652
   9 C :   -0.088482
  10 H :    0.035909
  11 H :    0.025465
  12 C :   -0.067690
  13 H :    0.040552
  14 H :    0.058176
  15 H :    0.032225
  16 S :    0.109509
  17 C :   -0.074186
  18 C :   -0.025099
  19 C :   -0.036567
  20 C :   -0.176168
  21 H :    0.002799
  22 C :    0.060526
  23 H :   -0.001613
  24 H :    0.034199
  25 C :   -0.042323
  26 H :    0.024908
  27 H :    0.020711
  28 C :   -0.063680
  29 H :    0.021860
  30 H :    0.044212
  31 H :    0.029553
  32 H :    0.018898
  33 H :    0.043429
Sum of atomic charges:   -0.0000000

LOEWDIN ATOMIC CHARGES
----------------------
   0 S :    0.403869
   1 C :   -0.178717
   2 C :   -0.064348
   3 C :   -0.054247
   4 C :   -0.196268
   5 H :    0.031387
   6 C :   -0.034067
   7 H :    0.038925
   8 H :    0.027909
   9 C :   -0.048300
  10 H :    0.028952
  11 H :    0.020489
  12 C :   -0.068682
  13 H :    0.034472
  14 H :    0.034506
  15 H :    0.023334
  16 S :    0.406555
  17 C :   -0.178192
  18 C :   -0.065122
  19 C :   -0.056630
  20 C :   -0.201150
  21 H :    0.025057
  22 C :   -0.035731
  23 H :    0.021644
  24 H :    0.028617
  25 C :   -0.039766
  26 H :    0.024091
  27 H :    0.020643
  28 C :   -0.072275
  29 H :    0.025145
  30 H :    0.031161
  31 H :    0.024057
  32 H :    0.014031
  33 H :    0.028651

  Mayer bond orders larger than 0.100000
B(  0-S ,  1-C ) :   1.1299 B(  0-S ,  4-C ) :   1.1344 B(  1-C ,  2-C ) :   1.6315
B(  1-C , 32-H ) :   0.9747 B(  2-C ,  3-C ) :   1.2135 B(  2-C ,  6-C ) :   1.0105
B(  3-C ,  4-C ) :   1.6100 B(  3-C ,  5-H ) :   0.9964 B(  4-C , 20-C ) :   1.0121
B(  6-C ,  7-H ) :   0.9426 B(  6-C ,  8-H ) :   0.9365 B(  6-C ,  9-C ) :   1.0553
B(  9-C , 10-H ) :   0.9546 B(  9-C , 11-H ) :   0.9572 B(  9-C , 12-C ) :   1.0772
B( 12-C , 13-H ) :   0.9715 B( 12-C , 14-H ) :   0.9672 B( 12-C , 15-H ) :   0.9754
B( 16-S , 17-C ) :   1.1580 B( 16-S , 20-C ) :   1.1346 B( 17-C , 18-C ) :   1.6188
B( 17-C , 20-C ) :   0.1007 B( 17-C , 33-H ) :   0.9634 B( 18-C , 19-C ) :   1.2422
B( 18-C , 21-H ) :   0.9976 B( 19-C , 20-C ) :   1.5940 B( 19-C , 22-C ) :   1.0448
B( 22-C , 23-H ) :   0.9346 B( 22-C , 24-H ) :   0.9367 B( 22-C , 25-C ) :   1.0585
B( 25-C , 26-H ) :   0.9516 B( 25-C , 27-H ) :   0.9580 B( 25-C , 28-C ) :   1.0680
B( 28-C , 29-H ) :   0.9730 B( 28-C , 30-H ) :   0.9772 B( 28-C , 31-H ) :   0.9769

Dispersion correction           -0.015026103
FINAL SINGLE POINT ENERGY     -1339.866162504928

DIPOLE MOMENT
-------------
                                X             Y             Z
Electronic contribution:     18.46494       7.00692      -4.26489
Nuclear contribution   :    -18.98868      -7.16245       4.50602
                        -----------------------------------------
Total Dipole Moment    :     -0.52374      -0.15554       0.24113
                        -----------------------------------------
Magnitude (a.u.)       :      0.59719
Magnitude (Debye)      :      1.51793

Rotational constants in cm-1:     0.017493     0.009310     0.007664
Rotational constants in MHz :   524.430848   279.098885   229.770867

                             ****ORCA TERMINATED NORMALLY****
TOTAL RUN TIME: 0 days 0 hours 0 minutes 22 seconds 162 msec
