                         Program Version 4.2.1 -  RELEASE  -
|  1> ! wB97X-D3 SP def2-SVP
|  2> %pal
|  3> nprocs 24
|  4> end
|  5>
|  6> * xyz 0 1
|  7> S 	 -86.3762 	 -47.316 	 -80.142
|  8> C 	 -87.4147 	 -46.7352 	 -78.9159
|  9> C 	 -87.7481 	 -47.7338 	 -78.0626
| 10> C 	 -87.162 	 -48.9864 	 -78.4643
| 11> C 	 -86.3971 	 -48.9105 	 -79.6201
| 12> H 	 -87.3436 	 -49.9266 	 -77.9917
| 13> C 	 -88.7318 	 -47.6091 	 -76.8671
| 14> H 	 -89.325 	 -48.5295 	 -76.7324
| 15> H 	 -89.6229 	 -46.9431 	 -77.3309
| 16> C 	 -88.1888 	 -46.9602 	 -75.5925
| 17> H 	 -88.6385 	 -47.5548 	 -74.77
| 18> H 	 -87.1218 	 -47.1606 	 -75.4605
| 19> C 	 -88.6748 	 -45.5494 	 -75.4134
| 20> H 	 -88.5939 	 -44.8206 	 -76.2134
| 21> H 	 -89.7098 	 -45.4936 	 -74.9489
| 22> H 	 -88.0584 	 -45.0639 	 -74.7163
| 23> S 	 -86.1801 	 -50.0972 	 -82.082
| 24> C 	 -85.5144 	 -51.7613 	 -82.2069
| 25> C 	 -85.1734 	 -52.196 	 -80.9603
| 26> C 	 -85.4094 	 -51.3274 	 -79.8906
| 27> C 	 -85.8352 	 -50.0519 	 -80.3505
| 28> H 	 -84.745 	 -53.2091 	 -80.8825
| 29> C 	 -84.9148 	 -51.6472 	 -78.5128
| 30> H 	 -85.12 	 -52.7104 	 -78.5226
| 31> H 	 -85.5901 	 -51.2717 	 -77.7863
| 32> C 	 -83.4226 	 -51.5372 	 -78.2647
| 33> H 	 -82.7917 	 -52.069 	 -78.9541
| 34> H 	 -83.375 	 -52.1224 	 -77.3419
| 35> C 	 -82.8433 	 -50.167 	 -78.0334
| 36> H 	 -83.4527 	 -49.5275 	 -77.4501
| 37> H 	 -82.6229 	 -49.5881 	 -78.9897
| 38> H 	 -81.9075 	 -50.2773 	 -77.4389
| 39> H 	 -87.6981 	 -45.7371 	 -78.779
| 40> H 	 -85.5298 	 -52.373 	 -83.0929
| 41> *
| 42>
| 43>                          ****END OF INPUT****

CARTESIAN COORDINATES (ANGSTROEM)
---------------------------------
  S    -86.376200  -47.316000  -80.142000
  C    -87.414700  -46.735200  -78.915900
  C    -87.748100  -47.733800  -78.062600
  C    -87.162000  -48.986400  -78.464300
  C    -86.397100  -48.910500  -79.620100
  H    -87.343600  -49.926600  -77.991700
  C    -88.731800  -47.609100  -76.867100
  H    -89.325000  -48.529500  -76.732400
  H    -89.622900  -46.943100  -77.330900
  C    -88.188800  -46.960200  -75.592500
  H    -88.638500  -47.554800  -74.770000
  H    -87.121800  -47.160600  -75.460500
  C    -88.674800  -45.549400  -75.413400
  H    -88.593900  -44.820600  -76.213400
  H    -89.709800  -45.493600  -74.948900
  H    -88.058400  -45.063900  -74.716300
  S    -86.180100  -50.097200  -82.082000
  C    -85.514400  -51.761300  -82.206900
  C    -85.173400  -52.196000  -80.960300
  C    -85.409400  -51.327400  -79.890600
  C    -85.835200  -50.051900  -80.350500
  H    -84.745000  -53.209100  -80.882500
  C    -84.914800  -51.647200  -78.512800
  H    -85.120000  -52.710400  -78.522600
  H    -85.590100  -51.271700  -77.786300
  C    -83.422600  -51.537200  -78.264700
  H    -82.791700  -52.069000  -78.954100
  H    -83.375000  -52.122400  -77.341900
  C    -82.843300  -50.167000  -78.033400
  H    -83.452700  -49.527500  -77.450100
  H    -82.622900  -49.588100  -78.989700
  H    -81.907500  -50.277300  -77.438900
  H    -87.698100  -45.737100  -78.779000
  H    -85.529800  -52.373000  -83.092900

 Total Charge           Charge          ....    0
 Multiplicity           Mult            ....    1
 Number of Electrons    NEL             ....  134
 Basis Dimension        Dim             ....  322

ORBITAL ENERGIES
----------------

  NO   OCC          E(Eh)            E(eV)
   0   2.0000     -88.963938     -2420.8318
   1   2.0000     -88.963826     -2420.8288
   2   2.0000     -10.331203      -281.1263
   3   2.0000     -10.324018      -280.9308
   4   2.0000     -10.317014      -280.7402
   5   2.0000     -10.302826      -280.3541
   6   2.0000     -10.302765      -280.3525
   7   2.0000     -10.299716      -280.2695
   8   2.0000     -10.298274      -280.2303
   9   2.0000     -10.291170      -280.0370
  10   2.0000     -10.290157      -280.0094
  11   2.0000     -10.287968      -279.9498
  12   2.0000     -10.286007      -279.8965
  13   2.0000     -10.283935      -279.8401
  14   2.0000     -10.278285      -279.6864
  15   2.0000     -10.274019      -279.5703
  16   2.0000      -8.080628      -219.8851
  17   2.0000      -8.077702      -219.8055
  18   2.0000      -6.039018      -164.3300
  19   2.0000      -6.036221      -164.2539
  20   2.0000      -6.034687      -164.2122
  21   2.0000      -6.032324      -164.1479
  22   2.0000      -6.031562      -164.1272
  23   2.0000      -6.028493      -164.0436
  24   2.0000      -1.013859       -27.5885
  25   2.0000      -0.985652       -26.8209
  26   2.0000      -0.913972       -24.8705
  27   2.0000      -0.909473       -24.7480
  28   2.0000      -0.872851       -23.7515
  29   2.0000      -0.851132       -23.1605
  30   2.0000      -0.845961       -23.0198
  31   2.0000      -0.814328       -22.1590
  32   2.0000      -0.783451       -21.3188
  33   2.0000      -0.777108       -21.1462
  34   2.0000      -0.708564       -19.2810
  35   2.0000      -0.700833       -19.0706
  36   2.0000      -0.695733       -18.9319
  37   2.0000      -0.659667       -17.9505
  38   2.0000      -0.641980       -17.4692
  39   2.0000      -0.616343       -16.7715
  40   2.0000      -0.597803       -16.2670
  41   2.0000      -0.575371       -15.6566
  42   2.0000      -0.548945       -14.9376
  43   2.0000      -0.546211       -14.8632
  44   2.0000      -0.538052       -14.6411
  45   2.0000      -0.534148       -14.5349
  46   2.0000      -0.527707       -14.3596
  47   2.0000      -0.514110       -13.9896
  48   2.0000      -0.505325       -13.7506
  49   2.0000      -0.497628       -13.5411
  50   2.0000      -0.487605       -13.2684
  51   2.0000      -0.485694       -13.2164
  52   2.0000      -0.478046       -13.0083
  53   2.0000      -0.466150       -12.6846
  54   2.0000      -0.460801       -12.5390
  55   2.0000      -0.440615       -11.9897
  56   2.0000      -0.439591       -11.9619
  57   2.0000      -0.436600       -11.8805
  58   2.0000      -0.432704       -11.7745
  59   2.0000      -0.422159       -11.4875
  60   2.0000      -0.412404       -11.2221
  61   2.0000      -0.408405       -11.1133
  62   2.0000      -0.403493       -10.9796
  63   2.0000      -0.355496        -9.6735
  64   2.0000      -0.330065        -8.9815
  65   2.0000      -0.328907        -8.9500
  66   2.0000      -0.286233        -7.7888
  67   0.0000       0.026403         0.7185
  68   0.0000       0.081195         2.2094
  69   0.0000       0.111441         3.0325
  70   0.0000       0.126033         3.4295
  71   0.0000       0.131413         3.5759

MULLIKEN ATOMIC CHARGES
-----------------------
   0 S :    0.118497
   1 C :   -0.100461
   2 C :   -0.070230
   3 C :    0.006082
   4 C :   -0.130423
   5 H :   -0.001883
   6 C :   -0.026215
   7 H :    0.033295
   8 H :    0.045539
   9 C :   -0.026079
  10 H :    0.028150
  11 H :    0.041004
  12 C :   -0.045798
  13 H :    0.026281
  14 H :    0.045122
  15 H :    0.009978
  16 S :    0.085279
  17 C :   -0.090999
  18 C :   -0.048317
  19 C :   -0.057289
  20 C :   -0.120505
  21 H :    0.024320
  22 C :    0.092875
  23 H :    0.009170
  24 H :    0.004818
  25 C :   -0.032471
  26 H :    0.023118
  27 H :    0.022558
  28 C :   -0.046642
  29 H :    0.017434
  30 H :    0.051150
  31 H :    0.033302
  32 H :    0.023922
  33 H :    0.055417
Sum of atomic charges:    0.0000000

LOEWDIN ATOMIC CHARGES
----------------------
   0 S :    0.452920
   1 C :   -0.204776
   2 C :   -0.065495
   3 C :   -0.069505
   4 C :   -0.222221
   5 H :    0.021411
   6 C :   -0.042367
   7 H :    0.029511
   8 H :    0.044995
   9 C :   -0.048735
  10 H :    0.034272
  11 H :    0.029059
  12 C :   -0.072093
  13 H :    0.022406
  14 H :    0.037279
  15 H :    0.020449
  16 S :    0.382234
  17 C :   -0.172710
  18 C :   -0.074295
  19 C :   -0.064219
  20 C :   -0.185414
  21 H :    0.036185
  22 C :   -0.030419
  23 H :    0.034808
  24 H :    0.023965
  25 C :   -0.036746
  26 H :    0.025516
  27 H :    0.029217
  28 C :   -0.069802
  29 H :    0.017542
  30 H :    0.035922
  31 H :    0.031771
  32 H :    0.019240
  33 H :    0.030094

  Mayer bond orders larger than 0.100000
B(  0-S ,  1-C ) :   1.1488 B(  0-S ,  4-C ) :   1.1808 B(  1-C ,  2-C ) :   1.5999
B(  1-C , 32-H ) :   0.9782 B(  2-C ,  3-C ) :   1.2749 B(  2-C ,  6-C ) :   1.0068
B(  3-C ,  4-C ) :   1.5306 B(  3-C ,  5-H ) :   0.9981 B(  4-C , 20-C ) :   1.0336
B(  6-C ,  7-H ) :   0.9521 B(  6-C ,  8-H ) :   0.9568 B(  6-C ,  9-C ) :   1.0270
B(  9-C , 10-H ) :   0.9527 B(  9-C , 11-H ) :   0.9645 B(  9-C , 12-C ) :   1.0824
B( 12-C , 13-H ) :   0.9758 B( 12-C , 14-H ) :   0.9734 B( 12-C , 15-H ) :   0.9672
B( 16-S , 17-C ) :   1.1376 B( 16-S , 20-C ) :   1.1538 B( 17-C , 18-C ) :   1.6075
B( 17-C , 20-C ) :   0.1076 B( 17-C , 33-H ) :   0.9702 B( 18-C , 19-C ) :   1.2614
B( 18-C , 21-H ) :   0.9817 B( 19-C , 20-C ) :   1.5504 B( 19-C , 22-C ) :   1.0458
B( 22-C , 23-H ) :   0.9201 B( 22-C , 24-H ) :   0.9307 B( 22-C , 25-C ) :   1.0765
B( 25-C , 26-H ) :   0.9509 B( 25-C , 27-H ) :   0.9487 B( 25-C , 28-C ) :   1.0856
B( 28-C , 29-H ) :   0.9740 B( 28-C , 30-H ) :   0.9732 B( 28-C , 31-H ) :   0.9705

Dispersion correction           -0.014296232
FINAL SINGLE POINT ENERGY     -1339.860010875794

DIPOLE MOMENT
-------------
                                X             Y             Z
Electronic contribution:     -1.24036      -1.17594     -26.03198
Nuclear contribution   :      1.15767       0.82385      26.72331
                        -----------------------------------------
Total Dipole Moment    :     -0.08269      -0.35209       0.69133
                        -----------------------------------------
Magnitude (a.u.)       :      0.78022
Magnitude (Debye)      :      1.98315

Rotational constants in cm-1:     0.021734     0.007960     0.006665
Rotational constants in MHz :   651.568114   238.628230   199.819134

                             ****ORCA TERMINATED NORMALLY****
TOTAL RUN TIME: 0 days 0 hours 0 minutes 21 seconds 531 msec
