                         Program Version 4.2.1 -  RELEASE  -
|  1> ! wB97X-D3 SP def2-SVP
|  2> %pal
|  3> nprocs 24
|  4> end
|  5>
|  6> * xyz 0 1
|  7> S 	 -103.582 	 0.970178 	 -110.759
|  8> C 	 -104.72 	 1.9239 	 -111.752
|  9> C 	 -105.522 	 1.03677 	 -112.512
| 10> C 	 -105.266 	 -0.287468 	 -112.239
| 11> C 	 -104.23 	 -0.569347 	 -111.374
| 12> H 	 -105.8 	 -1.09154 	 -112.761
| 13> C 	 -106.351 	 1.44519 	 -113.688
| 14> H 	 -106.391 	 2.60423 	 -113.851
| 15> H 	 -107.432 	 1.1696 	 -113.496
| 16> C 	 -106.104 	 0.75325 	 -115.085
| 17> H 	 -105.053 	 0.590028 	 -115.174
| 18> H 	 -106.583 	 -0.192217 	 -115.051
| 19> C 	 -106.8 	 1.4075 	 -116.327
| 20> H 	 -106.985 	 0.721059 	 -117.126
| 21> H 	 -107.726 	 1.89794 	 -116.029
| 22> H 	 -106.202 	 2.12662 	 -116.781
| 23> S 	 -102.447 	 -2.28282 	 -112.527
| 24> C 	 -102.022 	 -3.8206 	 -111.802
| 25> C 	 -102.819 	 -3.97801 	 -110.695
| 26> C 	 -103.539 	 -2.83028 	 -110.235
| 27> C 	 -103.501 	 -1.8821 	 -111.226
| 28> H 	 -102.761 	 -4.94626 	 -110.147
| 29> C 	 -104.387 	 -2.68751 	 -108.87
| 30> H 	 -105.407 	 -3.108 	 -108.914
| 31> H 	 -104.674 	 -1.6127 	 -108.74
| 32> C 	 -103.699 	 -3.27979 	 -107.637
| 33> H 	 -103.114 	 -4.13284 	 -108.07
| 34> H 	 -104.441 	 -3.52074 	 -106.848
| 35> C 	 -102.705 	 -2.24671 	 -107.068
| 36> H 	 -102.435 	 -2.46611 	 -106.02
| 37> H 	 -103.159 	 -1.27621 	 -106.854
| 38> H 	 -101.848 	 -2.14696 	 -107.725
| 39> H 	 -104.572 	 3.03392 	 -111.969
| 40> H 	 -101.518 	 -4.58319 	 -112.336
| 41> *
| 42>
| 43>                          ****END OF INPUT****

CARTESIAN COORDINATES (ANGSTROEM)
---------------------------------
  S    -103.582000    0.970178  -110.759000
  C    -104.720000    1.923900  -111.752000
  C    -105.522000    1.036770  -112.512000
  C    -105.266000   -0.287468  -112.239000
  C    -104.230000   -0.569347  -111.374000
  H    -105.800000   -1.091540  -112.761000
  C    -106.351000    1.445190  -113.688000
  H    -106.391000    2.604230  -113.851000
  H    -107.432000    1.169600  -113.496000
  C    -106.104000    0.753250  -115.085000
  H    -105.053000    0.590028  -115.174000
  H    -106.583000   -0.192217  -115.051000
  C    -106.800000    1.407500  -116.327000
  H    -106.985000    0.721059  -117.126000
  H    -107.726000    1.897940  -116.029000
  H    -106.202000    2.126620  -116.781000
  S    -102.447000   -2.282820  -112.527000
  C    -102.022000   -3.820600  -111.802000
  C    -102.819000   -3.978010  -110.695000
  C    -103.539000   -2.830280  -110.235000
  C    -103.501000   -1.882100  -111.226000
  H    -102.761000   -4.946260  -110.147000
  C    -104.387000   -2.687510  -108.870000
  H    -105.407000   -3.108000  -108.914000
  H    -104.674000   -1.612700  -108.740000
  C    -103.699000   -3.279790  -107.637000
  H    -103.114000   -4.132840  -108.070000
  H    -104.441000   -3.520740  -106.848000
  C    -102.705000   -2.246710  -107.068000
  H    -102.435000   -2.466110  -106.020000
  H    -103.159000   -1.276210  -106.854000
  H    -101.848000   -2.146960  -107.725000
  H    -104.572000    3.033920  -111.969000
  H    -101.518000   -4.583190  -112.336000

 Total Charge           Charge          ....    0
 Multiplicity           Mult            ....    1
 Number of Electrons    NEL             ....  134
 Basis Dimension        Dim             ....  322

ORBITAL ENERGIES
----------------

  NO   OCC          E(Eh)            E(eV)
   0   2.0000     -88.967821     -2420.9375
   1   2.0000     -88.965523     -2420.8749
   2   2.0000     -10.334618      -281.2193
   3   2.0000     -10.329646      -281.0840
   4   2.0000     -10.325731      -280.9774
   5   2.0000     -10.315974      -280.7119
   6   2.0000     -10.310991      -280.5763
   7   2.0000     -10.304350      -280.3956
   8   2.0000     -10.301837      -280.3272
   9   2.0000     -10.300491      -280.2906
  10   2.0000     -10.300201      -280.2827
  11   2.0000     -10.292501      -280.0732
  12   2.0000     -10.291587      -280.0483
  13   2.0000     -10.285822      -279.8915
  14   2.0000     -10.275099      -279.5997
  15   2.0000     -10.272600      -279.5317
  16   2.0000      -8.081209      -219.9009
  17   2.0000      -8.080843      -219.8909
  18   2.0000      -6.039708      -164.3488
  19   2.0000      -6.039262      -164.3367
  20   2.0000      -6.035774      -164.2417
  21   2.0000      -6.035197      -164.2261
  22   2.0000      -6.032161      -164.1434
  23   2.0000      -6.031708      -164.1311
  24   2.0000      -1.007796       -27.4235
  25   2.0000      -0.985247       -26.8099
  26   2.0000      -0.903634       -24.5891
  27   2.0000      -0.902612       -24.5613
  28   2.0000      -0.865123       -23.5412
  29   2.0000      -0.848728       -23.0951
  30   2.0000      -0.843829       -22.9618
  31   2.0000      -0.813548       -22.1378
  32   2.0000      -0.779349       -21.2072
  33   2.0000      -0.772322       -21.0160
  34   2.0000      -0.707369       -19.2485
  35   2.0000      -0.693322       -18.8663
  36   2.0000      -0.691720       -18.8227
  37   2.0000      -0.654764       -17.8170
  38   2.0000      -0.633925       -17.2500
  39   2.0000      -0.622157       -16.9298
  40   2.0000      -0.605577       -16.4786
  41   2.0000      -0.570759       -15.5311
  42   2.0000      -0.557639       -15.1741
  43   2.0000      -0.555323       -15.1111
  44   2.0000      -0.527466       -14.3531
  45   2.0000      -0.519811       -14.1448
  46   2.0000      -0.517568       -14.0837
  47   2.0000      -0.506219       -13.7749
  48   2.0000      -0.497514       -13.5381
  49   2.0000      -0.494292       -13.4504
  50   2.0000      -0.489446       -13.3185
  51   2.0000      -0.475533       -12.9399
  52   2.0000      -0.472945       -12.8695
  53   2.0000      -0.469720       -12.7817
  54   2.0000      -0.457764       -12.4564
  55   2.0000      -0.453109       -12.3297
  56   2.0000      -0.444718       -12.1014
  57   2.0000      -0.428570       -11.6620
  58   2.0000      -0.425293       -11.5728
  59   2.0000      -0.420135       -11.4325
  60   2.0000      -0.419503       -11.4152
  61   2.0000      -0.413573       -11.2539
  62   2.0000      -0.412210       -11.2168
  63   2.0000      -0.338892        -9.2217
  64   2.0000      -0.331204        -9.0125
  65   2.0000      -0.324691        -8.8353
  66   2.0000      -0.308339        -8.3903
  67   0.0000       0.038038         1.0351
  68   0.0000       0.048415         1.3174
  69   0.0000       0.116509         3.1704
  70   0.0000       0.119489         3.2515
  71   0.0000       0.129429         3.5219

MULLIKEN ATOMIC CHARGES
-----------------------
   0 S :    0.104614
   1 C :   -0.154483
   2 C :   -0.047507
   3 C :    0.025803
   4 C :   -0.156777
   5 H :    0.021143
   6 C :   -0.020549
   7 H :    0.039089
   8 H :    0.039294
   9 C :   -0.066708
  10 H :    0.035167
  11 H :    0.022398
  12 C :   -0.025893
  13 H :    0.029470
  14 H :    0.029644
  15 H :    0.018381
  16 S :    0.118185
  17 C :   -0.082023
  18 C :   -0.074246
  19 C :   -0.007952
  20 C :   -0.184191
  21 H :    0.039350
  22 C :    0.050635
  23 H :    0.040224
  24 H :    0.027761
  25 C :   -0.083421
  26 H :    0.041098
  27 H :    0.040427
  28 C :   -0.052466
  29 H :    0.024601
  30 H :    0.021180
  31 H :    0.046285
  32 H :    0.085978
  33 H :    0.055488
Sum of atomic charges:   -0.0000000

LOEWDIN ATOMIC CHARGES
----------------------
   0 S :    0.388272
   1 C :   -0.200064
   2 C :   -0.075097
   3 C :   -0.063397
   4 C :   -0.189941
   5 H :    0.037104
   6 C :   -0.044636
   7 H :    0.035794
   8 H :    0.036400
   9 C :   -0.035692
  10 H :    0.019968
  11 H :    0.018505
  12 C :   -0.056741
  13 H :    0.026807
  14 H :    0.027844
  15 H :    0.016876
  16 S :    0.423569
  17 C :   -0.186167
  18 C :   -0.075850
  19 C :   -0.059698
  20 C :   -0.204095
  21 H :    0.034670
  22 C :   -0.032679
  23 H :    0.034216
  24 H :    0.031353
  25 C :   -0.047043
  26 H :    0.031429
  27 H :    0.030377
  28 C :   -0.070716
  29 H :    0.025467
  30 H :    0.023988
  31 H :    0.027479
  32 H :    0.046513
  33 H :    0.025187

  Mayer bond orders larger than 0.100000
B(  0-S ,  1-C ) :   1.1529 B(  0-S ,  4-C ) :   1.1573 B(  1-C ,  2-C ) :   1.5656
B(  1-C ,  4-C ) :   0.1090 B(  1-C , 32-H ) :   0.9554 B(  2-C ,  3-C ) :   1.2776
B(  2-C ,  6-C ) :   1.0390 B(  3-C ,  4-C ) :   1.5655 B(  3-C ,  5-H ) :   0.9935
B(  4-C , 20-C ) :   0.9803 B(  6-C ,  7-H ) :   0.9545 B(  6-C ,  8-H ) :   0.9304
B(  6-C ,  9-C ) :   1.0522 B(  9-C , 10-H ) :   0.9660 B(  9-C , 11-H ) :   0.9532
B(  9-C , 12-C ) :   1.0735 B( 12-C , 13-H ) :   0.9773 B( 12-C , 14-H ) :   0.9749
B( 12-C , 15-H ) :   0.9758 B( 16-S , 17-C ) :   1.1441 B( 16-S , 20-C ) :   1.1825
B( 17-C , 18-C ) :   1.6240 B( 17-C , 33-H ) :   0.9707 B( 18-C , 19-C ) :   1.2373
B( 18-C , 21-H ) :   0.9708 B( 19-C , 20-C ) :   1.6077 B( 19-C , 22-C ) :   1.0158
B( 22-C , 23-H ) :   0.9452 B( 22-C , 24-H ) :   0.9392 B( 22-C , 25-C ) :   1.0510
B( 25-C , 26-H ) :   0.9584 B( 25-C , 27-H ) :   0.9542 B( 25-C , 28-C ) :   1.0821
B( 28-C , 29-H ) :   0.9742 B( 28-C , 30-H ) :   0.9722 B( 28-C , 31-H ) :   0.9776

Dispersion correction           -0.013917003
FINAL SINGLE POINT ENERGY     -1339.854283926755

DIPOLE MOMENT
-------------
                                X             Y             Z
Electronic contribution:     11.66588      -0.47753       0.28697
Nuclear contribution   :    -12.00497       0.24703      -0.54746
                        -----------------------------------------
Total Dipole Moment    :     -0.33908      -0.23050      -0.26049
                        -----------------------------------------
Magnitude (a.u.)       :      0.48576
Magnitude (Debye)      :      1.23470

Rotational constants in cm-1:     0.022811     0.007390     0.006347
Rotational constants in MHz :   683.843299   221.541515   190.291282

                             ****ORCA TERMINATED NORMALLY****
TOTAL RUN TIME: 0 days 0 hours 0 minutes 19 seconds 722 msec
