                         Program Version 4.2.1 -  RELEASE  -
|  1> ! wB97X-D3 SP def2-SVP
|  2> %pal
|  3> nprocs 24
|  4> end
|  5>
|  6> * xyz 0 1
|  7> S 	 -137.747 	 8.71637 	 4.21785
|  8> C 	 -138.061 	 9.72757 	 2.79259
|  9> C 	 -138.877 	 10.7521 	 3.08724
| 10> C 	 -139.372 	 10.699 	 4.42535
| 11> C 	 -138.948 	 9.60696 	 5.074
| 12> H 	 -139.994 	 11.4571 	 4.89001
| 13> C 	 -139.308 	 11.8498 	 2.04047
| 14> H 	 -138.754 	 11.5866 	 1.15696
| 15> H 	 -138.855 	 12.8243 	 2.40107
| 16> C 	 -140.805 	 11.9459 	 1.76684
| 17> H 	 -141.251 	 10.9195 	 1.83671
| 18> H 	 -141.215 	 12.5299 	 2.56739
| 19> C 	 -141.066 	 12.6563 	 0.370964
| 20> H 	 -140.755 	 11.9914 	 -0.4038
| 21> H 	 -142.125 	 12.765 	 0.0677275
| 22> H 	 -140.615 	 13.757 	 0.359921
| 23> S 	 -137.645 	 9.91283 	 7.42863
| 24> C 	 -138.439 	 9.58524 	 8.89853
| 25> C 	 -139.686 	 9.05031 	 8.75296
| 26> C 	 -140.06 	 9.04794 	 7.38846
| 27> C 	 -139.053 	 9.44126 	 6.54185
| 28> H 	 -140.244 	 8.63307 	 9.57419
| 29> C 	 -141.483 	 8.61266 	 6.98861
| 30> H 	 -141.902 	 7.82262 	 7.64864
| 31> H 	 -141.387 	 8.20956 	 6.01837
| 32> C 	 -142.565 	 9.72836 	 6.9771
| 33> H 	 -143.532 	 9.30406 	 6.61371
| 34> H 	 -142.293 	 10.4818 	 6.21806
| 35> C 	 -142.713 	 10.4921 	 8.36865
| 36> H 	 -143.763 	 10.8897 	 8.38218
| 37> H 	 -142.045 	 11.3003 	 8.54845
| 38> H 	 -142.658 	 9.85595 	 9.22951
| 39> H 	 -137.586 	 9.54688 	 1.84992
| 40> H 	 -137.951 	 9.81386 	 9.89103
| 41> *
| 42>
| 43>                          ****END OF INPUT****

CARTESIAN COORDINATES (ANGSTROEM)
---------------------------------
  S    -137.747000    8.716370    4.217850
  C    -138.061000    9.727570    2.792590
  C    -138.877000   10.752100    3.087240
  C    -139.372000   10.699000    4.425350
  C    -138.948000    9.606960    5.074000
  H    -139.994000   11.457100    4.890010
  C    -139.308000   11.849800    2.040470
  H    -138.754000   11.586600    1.156960
  H    -138.855000   12.824300    2.401070
  C    -140.805000   11.945900    1.766840
  H    -141.251000   10.919500    1.836710
  H    -141.215000   12.529900    2.567390
  C    -141.066000   12.656300    0.370964
  H    -140.755000   11.991400   -0.403800
  H    -142.125000   12.765000    0.067727
  H    -140.615000   13.757000    0.359921
  S    -137.645000    9.912830    7.428630
  C    -138.439000    9.585240    8.898530
  C    -139.686000    9.050310    8.752960
  C    -140.060000    9.047940    7.388460
  C    -139.053000    9.441260    6.541850
  H    -140.244000    8.633070    9.574190
  C    -141.483000    8.612660    6.988610
  H    -141.902000    7.822620    7.648640
  H    -141.387000    8.209560    6.018370
  C    -142.565000    9.728360    6.977100
  H    -143.532000    9.304060    6.613710
  H    -142.293000   10.481800    6.218060
  C    -142.713000   10.492100    8.368650
  H    -143.763000   10.889700    8.382180
  H    -142.045000   11.300300    8.548450
  H    -142.658000    9.855950    9.229510
  H    -137.586000    9.546880    1.849920
  H    -137.951000    9.813860    9.891030

 Total Charge           Charge          ....    0
 Multiplicity           Mult            ....    1
 Number of Electrons    NEL             ....  134
 Basis Dimension        Dim             ....  322

ORBITAL ENERGIES
----------------

  NO   OCC          E(Eh)            E(eV)
   0   2.0000     -88.963346     -2420.8157
   1   2.0000     -88.962374     -2420.7893
   2   2.0000     -10.322626      -280.8929
   3   2.0000     -10.319055      -280.7958
   4   2.0000     -10.312760      -280.6245
   5   2.0000     -10.310265      -280.5566
   6   2.0000     -10.298540      -280.2375
   7   2.0000     -10.298222      -280.2289
   8   2.0000     -10.297497      -280.2091
   9   2.0000     -10.294048      -280.1153
  10   2.0000     -10.293857      -280.1101
  11   2.0000     -10.293594      -280.1029
  12   2.0000     -10.289390      -279.9885
  13   2.0000     -10.288154      -279.9549
  14   2.0000     -10.286516      -279.9103
  15   2.0000     -10.277192      -279.6566
  16   2.0000      -8.078663      -219.8316
  17   2.0000      -8.078603      -219.8300
  18   2.0000      -6.037148      -164.2792
  19   2.0000      -6.036940      -164.2735
  20   2.0000      -6.033276      -164.1738
  21   2.0000      -6.032917      -164.1640
  22   2.0000      -6.029452      -164.0697
  23   2.0000      -6.029198      -164.0628
  24   2.0000      -1.015082       -27.6218
  25   2.0000      -0.991824       -26.9889
  26   2.0000      -0.905905       -24.6509
  27   2.0000      -0.898806       -24.4577
  28   2.0000      -0.868451       -23.6317
  29   2.0000      -0.845128       -22.9971
  30   2.0000      -0.842244       -22.9186
  31   2.0000      -0.814378       -22.1604
  32   2.0000      -0.782089       -21.2817
  33   2.0000      -0.772021       -21.0078
  34   2.0000      -0.707180       -19.2433
  35   2.0000      -0.696767       -18.9600
  36   2.0000      -0.684902       -18.6371
  37   2.0000      -0.660788       -17.9809
  38   2.0000      -0.644554       -17.5392
  39   2.0000      -0.620013       -16.8714
  40   2.0000      -0.590489       -16.0680
  41   2.0000      -0.569927       -15.5085
  42   2.0000      -0.558535       -15.1985
  43   2.0000      -0.545838       -14.8530
  44   2.0000      -0.539639       -14.6843
  45   2.0000      -0.517684       -14.0869
  46   2.0000      -0.513783       -13.9808
  47   2.0000      -0.509716       -13.8701
  48   2.0000      -0.494491       -13.4558
  49   2.0000      -0.491162       -13.3652
  50   2.0000      -0.489109       -13.3093
  51   2.0000      -0.481827       -13.1112
  52   2.0000      -0.468685       -12.7536
  53   2.0000      -0.466412       -12.6917
  54   2.0000      -0.462751       -12.5921
  55   2.0000      -0.450305       -12.2534
  56   2.0000      -0.444747       -12.1022
  57   2.0000      -0.433336       -11.7917
  58   2.0000      -0.428605       -11.6629
  59   2.0000      -0.425767       -11.5857
  60   2.0000      -0.420304       -11.4370
  61   2.0000      -0.415993       -11.3197
  62   2.0000      -0.415279       -11.3003
  63   2.0000      -0.342553        -9.3214
  64   2.0000      -0.331997        -9.0341
  65   2.0000      -0.327605        -8.9146
  66   2.0000      -0.304937        -8.2978
  67   0.0000       0.049149         1.3374
  68   0.0000       0.063259         1.7214
  69   0.0000       0.114695         3.1210
  70   0.0000       0.125829         3.4240
  71   0.0000       0.136660         3.7187

MULLIKEN ATOMIC CHARGES
-----------------------
   0 S :    0.098038
   1 C :   -0.129169
   2 C :   -0.080132
   3 C :    0.032258
   4 C :   -0.136097
   5 H :    0.020349
   6 C :    0.070016
   7 H :    0.004927
   8 H :    0.044740
   9 C :   -0.070501
  10 H :    0.049596
  11 H :    0.030122
  12 C :   -0.091501
  13 H :    0.034657
  14 H :    0.035581
  15 H :    0.058372
  16 S :    0.125985
  17 C :   -0.115660
  18 C :   -0.027789
  19 C :   -0.038162
  20 C :   -0.191656
  21 H :    0.017823
  22 C :    0.084184
  23 H :    0.028579
  24 H :    0.017514
  25 C :   -0.084698
  26 H :    0.039149
  27 H :    0.025810
  28 C :   -0.056603
  29 H :    0.033986
  30 H :    0.041690
  31 H :    0.018010
  32 H :    0.038774
  33 H :    0.071807
Sum of atomic charges:   -0.0000000

LOEWDIN ATOMIC CHARGES
----------------------
   0 S :    0.396683
   1 C :   -0.181698
   2 C :   -0.062978
   3 C :   -0.060475
   4 C :   -0.201165
   5 H :    0.034135
   6 C :   -0.028686
   7 H :    0.021326
   8 H :    0.037519
   9 C :   -0.044263
  10 H :    0.033420
  11 H :    0.020239
  12 C :   -0.078120
  13 H :    0.021811
  14 H :    0.027304
  15 H :    0.043024
  16 S :    0.434352
  17 C :   -0.204235
  18 C :   -0.075300
  19 C :   -0.057131
  20 C :   -0.210919
  21 H :    0.032179
  22 C :   -0.029013
  23 H :    0.032117
  24 H :    0.023974
  25 C :   -0.038149
  26 H :    0.027820
  27 H :    0.022269
  28 C :   -0.069868
  29 H :    0.033166
  30 H :    0.023162
  31 H :    0.016683
  32 H :    0.023344
  33 H :    0.037473

  Mayer bond orders larger than 0.100000
B(  0-S ,  1-C ) :   1.1143 B(  0-S ,  4-C ) :   1.1548 B(  1-C ,  2-C ) :   1.6654
B(  1-C , 32-H ) :   0.9693 B(  2-C ,  3-C ) :   1.2029 B(  2-C ,  6-C ) :   1.0102
B(  3-C ,  4-C ) :   1.6172 B(  3-C ,  5-H ) :   0.9974 B(  4-C , 20-C ) :   0.9743
B(  6-C ,  7-H ) :   0.9474 B(  6-C ,  8-H ) :   0.9369 B(  6-C ,  9-C ) :   1.0459
B(  9-C , 10-H ) :   0.9617 B(  9-C , 11-H ) :   0.9532 B(  9-C , 12-C ) :   1.0741
B( 12-C , 13-H ) :   0.9764 B( 12-C , 14-H ) :   0.9761 B( 12-C , 15-H ) :   0.9726
B( 16-S , 17-C ) :   1.1777 B( 16-S , 20-C ) :   1.1567 B( 17-C , 18-C ) :   1.5965
B( 17-C , 33-H ) :   0.9577 B( 18-C , 19-C ) :   1.2466 B( 18-C , 21-H ) :   0.9963
B( 19-C , 20-C ) :   1.6368 B( 19-C , 22-C ) :   1.0342 B( 22-C , 23-H ) :   0.9439
B( 22-C , 24-H ) :   0.9290 B( 22-C , 25-C ) :   1.0804 B( 25-C , 26-H ) :   0.9612
B( 25-C , 27-H ) :   0.9543 B( 25-C , 28-C ) :   1.0590 B( 28-C , 29-H ) :   0.9755
B( 28-C , 30-H ) :   0.9769 B( 28-C , 31-H ) :   0.9787

Dispersion correction           -0.014412693
FINAL SINGLE POINT ENERGY     -1339.877438283454

DIPOLE MOMENT
-------------
                                X             Y             Z
Electronic contribution:     23.98960     -12.00528       9.00427
Nuclear contribution   :    -24.44188      12.32882      -9.14086
                        -----------------------------------------
Total Dipole Moment    :     -0.45228       0.32354      -0.13659
                        -----------------------------------------
Magnitude (a.u.)       :      0.57261
Magnitude (Debye)      :      1.45547

Rotational constants in cm-1:     0.018945     0.008514     0.006584
Rotational constants in MHz :   567.946120   255.247203   197.391505

                             ****ORCA TERMINATED NORMALLY****
TOTAL RUN TIME: 0 days 0 hours 0 minutes 21 seconds 414 msec
