                         Program Version 4.2.1 -  RELEASE  -
|  1> ! wB97X-D3 SP def2-SVP
|  2> %pal
|  3> nprocs 24
|  4> end
|  5>
|  6> * xyz 0 1
|  7> S 	 -103.495 	 -2.91315 	 -106.371
|  8> C 	 -105.092 	 -3.51707 	 -106.015
|  9> C 	 -106.089 	 -2.84177 	 -106.719
| 10> C 	 -105.511 	 -1.8881 	 -107.628
| 11> C 	 -104.105 	 -1.72055 	 -107.536
| 12> H 	 -106.073 	 -1.2418 	 -108.287
| 13> C 	 -107.525 	 -3.3262 	 -106.726
| 14> H 	 -107.465 	 -4.40247 	 -106.878
| 15> H 	 -108.082 	 -2.83432 	 -107.567
| 16> C 	 -108.368 	 -3.01033 	 -105.465
| 17> H 	 -107.821 	 -3.09936 	 -104.515
| 18> H 	 -108.558 	 -1.88627 	 -105.518
| 19> C 	 -109.774 	 -3.69606 	 -105.332
| 20> H 	 -109.693 	 -4.82767 	 -105.454
| 21> H 	 -110.253 	 -3.57091 	 -104.312
| 22> H 	 -110.452 	 -3.32188 	 -106.063
| 23> S 	 -101.848 	 -1.38921 	 -109.092
| 24> C 	 -101.187 	 0.208238 	 -109.44
| 25> C 	 -102.026 	 1.22343 	 -108.979
| 26> C 	 -103.093 	 0.666744 	 -108.186
| 27> C 	 -103.178 	 -0.72202 	 -108.161
| 28> H 	 -101.724 	 2.26758 	 -109.066
| 29> C 	 -104.004 	 1.60294 	 -107.464
| 30> H 	 -103.399 	 2.53913 	 -107.429
| 31> H 	 -104.073 	 1.40235 	 -106.38
| 32> C 	 -105.389 	 1.744 	 -108.152
| 33> H 	 -105.866 	 0.766466 	 -108.21
| 34> H 	 -105.187 	 1.97442 	 -109.231
| 35> C 	 -106.309 	 2.63198 	 -107.312
| 36> H 	 -105.773 	 3.53882 	 -107.234
| 37> H 	 -106.601 	 2.29885 	 -106.309
| 38> H 	 -107.255 	 2.8195 	 -107.84
| 39> H 	 -105.273 	 -4.30594 	 -105.156
| 40> H 	 -100.426 	 0.389614 	 -110.16
| 41> *
| 42>
| 43>                          ****END OF INPUT****

CARTESIAN COORDINATES (ANGSTROEM)
---------------------------------
  S    -103.495000   -2.913150  -106.371000
  C    -105.092000   -3.517070  -106.015000
  C    -106.089000   -2.841770  -106.719000
  C    -105.511000   -1.888100  -107.628000
  C    -104.105000   -1.720550  -107.536000
  H    -106.073000   -1.241800  -108.287000
  C    -107.525000   -3.326200  -106.726000
  H    -107.465000   -4.402470  -106.878000
  H    -108.082000   -2.834320  -107.567000
  C    -108.368000   -3.010330  -105.465000
  H    -107.821000   -3.099360  -104.515000
  H    -108.558000   -1.886270  -105.518000
  C    -109.774000   -3.696060  -105.332000
  H    -109.693000   -4.827670  -105.454000
  H    -110.253000   -3.570910  -104.312000
  H    -110.452000   -3.321880  -106.063000
  S    -101.848000   -1.389210  -109.092000
  C    -101.187000    0.208238  -109.440000
  C    -102.026000    1.223430  -108.979000
  C    -103.093000    0.666744  -108.186000
  C    -103.178000   -0.722020  -108.161000
  H    -101.724000    2.267580  -109.066000
  C    -104.004000    1.602940  -107.464000
  H    -103.399000    2.539130  -107.429000
  H    -104.073000    1.402350  -106.380000
  C    -105.389000    1.744000  -108.152000
  H    -105.866000    0.766466  -108.210000
  H    -105.187000    1.974420  -109.231000
  C    -106.309000    2.631980  -107.312000
  H    -105.773000    3.538820  -107.234000
  H    -106.601000    2.298850  -106.309000
  H    -107.255000    2.819500  -107.840000
  H    -105.273000   -4.305940  -105.156000
  H    -100.426000    0.389614  -110.160000

 Total Charge           Charge          ....    0
 Multiplicity           Mult            ....    1
 Number of Electrons    NEL             ....  134
 Basis Dimension        Dim             ....  322

ORBITAL ENERGIES
----------------

  NO   OCC          E(Eh)            E(eV)
   0   2.0000     -88.968801     -2420.9642
   1   2.0000     -88.965280     -2420.8683
   2   2.0000     -10.340445      -281.3778
   3   2.0000     -10.332344      -281.1574
   4   2.0000     -10.325929      -280.9828
   5   2.0000     -10.318929      -280.7923
   6   2.0000     -10.307108      -280.4707
   7   2.0000     -10.304454      -280.3985
   8   2.0000     -10.303601      -280.3752
   9   2.0000     -10.300468      -280.2900
  10   2.0000     -10.298955      -280.2488
  11   2.0000     -10.296826      -280.1909
  12   2.0000     -10.290289      -280.0130
  13   2.0000     -10.289771      -279.9989
  14   2.0000     -10.289394      -279.9886
  15   2.0000     -10.275877      -279.6208
  16   2.0000      -8.083009      -219.9498
  17   2.0000      -8.079749      -219.8611
  18   2.0000      -6.041434      -164.3958
  19   2.0000      -6.038250      -164.3091
  20   2.0000      -6.037425      -164.2867
  21   2.0000      -6.034149      -164.1975
  22   2.0000      -6.034042      -164.1946
  23   2.0000      -6.030676      -164.1030
  24   2.0000      -1.000431       -27.2231
  25   2.0000      -0.981043       -26.6955
  26   2.0000      -0.907372       -24.6908
  27   2.0000      -0.904726       -24.6188
  28   2.0000      -0.863245       -23.4901
  29   2.0000      -0.849326       -23.1113
  30   2.0000      -0.844619       -22.9833
  31   2.0000      -0.814091       -22.1525
  32   2.0000      -0.778652       -21.1882
  33   2.0000      -0.766206       -20.8495
  34   2.0000      -0.705643       -19.2015
  35   2.0000      -0.697325       -18.9752
  36   2.0000      -0.690796       -18.7975
  37   2.0000      -0.665654       -18.1134
  38   2.0000      -0.636857       -17.3298
  39   2.0000      -0.616572       -16.7778
  40   2.0000      -0.592636       -16.1264
  41   2.0000      -0.572140       -15.5687
  42   2.0000      -0.558919       -15.2090
  43   2.0000      -0.553295       -15.0559
  44   2.0000      -0.524885       -14.2828
  45   2.0000      -0.517585       -14.0842
  46   2.0000      -0.513055       -13.9609
  47   2.0000      -0.508188       -13.8285
  48   2.0000      -0.504784       -13.7359
  49   2.0000      -0.500988       -13.6326
  50   2.0000      -0.492237       -13.3945
  51   2.0000      -0.476614       -12.9693
  52   2.0000      -0.474120       -12.9015
  53   2.0000      -0.465339       -12.6625
  54   2.0000      -0.462903       -12.5962
  55   2.0000      -0.443887       -12.0788
  56   2.0000      -0.443404       -12.0656
  57   2.0000      -0.432997       -11.7825
  58   2.0000      -0.431613       -11.7448
  59   2.0000      -0.425023       -11.5655
  60   2.0000      -0.422508       -11.4970
  61   2.0000      -0.415554       -11.3078
  62   2.0000      -0.403653       -10.9840
  63   2.0000      -0.343247        -9.3402
  64   2.0000      -0.332424        -9.0457
  65   2.0000      -0.328896        -8.9497
  66   2.0000      -0.295544        -8.0422
  67   0.0000       0.029246         0.7958
  68   0.0000       0.057886         1.5752
  69   0.0000       0.111999         3.0476
  70   0.0000       0.120945         3.2911
  71   0.0000       0.126051         3.4300

MULLIKEN ATOMIC CHARGES
-----------------------
   0 S :    0.119190
   1 C :   -0.162514
   2 C :   -0.080704
   3 C :    0.047071
   4 C :   -0.156153
   5 H :    0.018685
   6 C :    0.050495
   7 H :    0.042940
   8 H :    0.033239
   9 C :   -0.112376
  10 H :    0.033250
  11 H :    0.033039
  12 C :   -0.072426
  13 H :    0.037854
  14 H :    0.048127
  15 H :    0.033963
  16 S :    0.097173
  17 C :   -0.079499
  18 C :   -0.044275
  19 C :   -0.059330
  20 C :   -0.153261
  21 H :    0.035749
  22 C :    0.044050
  23 H :    0.012662
  24 H :    0.034733
  25 C :   -0.073369
  26 H :    0.010261
  27 H :    0.037075
  28 C :   -0.012804
  29 H :    0.018001
  30 H :    0.039412
  31 H :    0.031289
  32 H :    0.095226
  33 H :    0.053225
Sum of atomic charges:   -0.0000000

LOEWDIN ATOMIC CHARGES
----------------------
   0 S :    0.409362
   1 C :   -0.212220
   2 C :   -0.072639
   3 C :   -0.057520
   4 C :   -0.194458
   5 H :    0.026041
   6 C :   -0.033205
   7 H :    0.032918
   8 H :    0.036670
   9 C :   -0.052247
  10 H :    0.021414
  11 H :    0.030128
  12 C :   -0.074844
  13 H :    0.029401
  14 H :    0.036072
  15 H :    0.018955
  16 S :    0.403368
  17 C :   -0.174733
  18 C :   -0.073257
  19 C :   -0.056834
  20 C :   -0.203987
  21 H :    0.037350
  22 C :   -0.040208
  23 H :    0.029854
  24 H :    0.034083
  25 C :   -0.040812
  26 H :    0.018480
  27 H :    0.032467
  28 C :   -0.063053
  29 H :    0.018675
  30 H :    0.030175
  31 H :    0.027789
  32 H :    0.053228
  33 H :    0.023588

  Mayer bond orders larger than 0.100000
B(  0-S ,  1-C ) :   1.1652 B(  0-S ,  4-C ) :   1.1625 B(  1-C ,  2-C ) :   1.5788
B(  1-C ,  4-C ) :   0.1070 B(  1-C , 32-H ) :   0.9498 B(  2-C ,  3-C ) :   1.2702
B(  2-C ,  6-C ) :   1.0172 B(  3-C ,  4-C ) :   1.5584 B(  3-C ,  5-H ) :   0.9841
B(  4-C , 20-C ) :   1.0106 B(  6-C ,  7-H ) :   0.9494 B(  6-C ,  8-H ) :   0.9464
B(  6-C ,  9-C ) :   1.0449 B(  9-C , 10-H ) :   0.9660 B(  9-C , 11-H ) :   0.9557
B(  9-C , 12-C ) :   1.0690 B( 12-C , 13-H ) :   0.9762 B( 12-C , 14-H ) :   0.9755
B( 12-C , 15-H ) :   0.9776 B( 16-S , 17-C ) :   1.1686 B( 16-S , 20-C ) :   1.1400
B( 17-C , 18-C ) :   1.6039 B( 17-C , 33-H ) :   0.9656 B( 18-C , 19-C ) :   1.2547
B( 18-C , 21-H ) :   0.9831 B( 19-C , 20-C ) :   1.5962 B( 19-C , 22-C ) :   1.0469
B( 22-C , 23-H ) :   0.9328 B( 22-C , 24-H ) :   0.9349 B( 22-C , 25-C ) :   1.0486
B( 25-C , 26-H ) :   0.9530 B( 25-C , 27-H ) :   0.9522 B( 25-C , 28-C ) :   1.0750
B( 28-C , 29-H ) :   0.9755 B( 28-C , 30-H ) :   0.9732 B( 28-C , 31-H ) :   0.9723

Dispersion correction           -0.013905768
FINAL SINGLE POINT ENERGY     -1339.873329610531

DIPOLE MOMENT
-------------
                                X             Y             Z
Electronic contribution:     29.18270      -9.25399      -7.57962
Nuclear contribution   :    -29.70463       9.59648       7.66366
                        -----------------------------------------
Total Dipole Moment    :     -0.52192       0.34249       0.08404
                        -----------------------------------------
Magnitude (a.u.)       :      0.62989
Magnitude (Debye)      :      1.60106

Rotational constants in cm-1:     0.019919     0.007979     0.006087
Rotational constants in MHz :   597.149315   239.192290   182.486297

                             ****ORCA TERMINATED NORMALLY****
TOTAL RUN TIME: 0 days 0 hours 0 minutes 21 seconds 187 msec
