                         Program Version 4.2.1 -  RELEASE  -
|  1> ! wB97X-D3 SP def2-SVP
|  2> %pal
|  3> nprocs 24
|  4> end
|  5>
|  6> * xyz 0 1
|  7> S 	 -127.057 	 63.0093 	 -58.3977
|  8> C 	 -126.635 	 63.497 	 -59.9952
|  9> C 	 -127.072 	 64.7938 	 -60.2072
| 10> C 	 -128.025 	 65.2228 	 -59.2359
| 11> C 	 -127.92 	 64.5673 	 -58.0839
| 12> H 	 -128.59 	 66.1235 	 -59.3387
| 13> C 	 -126.829 	 65.4972 	 -61.601
| 14> H 	 -127.744 	 65.6512 	 -62.1614
| 15> H 	 -126.254 	 64.836 	 -62.2207
| 16> C 	 -126.162 	 66.8552 	 -61.5676
| 17> H 	 -126.129 	 67.1935 	 -62.5232
| 18> H 	 -126.852 	 67.4367 	 -61.002
| 19> C 	 -124.767 	 66.7435 	 -60.8522
| 20> H 	 -124.324 	 67.7064 	 -60.8898
| 21> H 	 -124.784 	 66.3077 	 -59.8661
| 22> H 	 -124.245 	 66.0338 	 -61.4847
| 23> S 	 -127.937 	 65.1411 	 -55.4556
| 24> C 	 -129.454 	 65.2289 	 -54.6152
| 25> C 	 -130.58 	 65.0049 	 -55.4561
| 26> C 	 -130.102 	 64.8171 	 -56.7925
| 27> C 	 -128.739 	 64.8735 	 -56.9127
| 28> H 	 -131.62 	 64.9992 	 -55.0911
| 29> C 	 -131.095 	 64.5843 	 -57.8611
| 30> H 	 -130.717 	 65.0519 	 -58.7952
| 31> H 	 -131.999 	 65.1738 	 -57.6028
| 32> C 	 -131.381 	 63.0697 	 -58.0192
| 33> H 	 -131.384 	 62.5306 	 -57.0765
| 34> H 	 -130.663 	 62.6179 	 -58.6512
| 35> C 	 -132.717 	 62.9205 	 -58.7708
| 36> H 	 -133.302 	 63.7747 	 -58.4776
| 37> H 	 -133.165 	 61.9666 	 -58.5598
| 38> H 	 -132.623 	 62.9153 	 -59.8152
| 39> H 	 -125.916 	 62.9265 	 -60.6159
| 40> H 	 -129.603 	 65.6109 	 -53.6154
| 41> *
| 42>
| 43>                          ****END OF INPUT****

CARTESIAN COORDINATES (ANGSTROEM)
---------------------------------
  S    -127.057000   63.009300  -58.397700
  C    -126.635000   63.497000  -59.995200
  C    -127.072000   64.793800  -60.207200
  C    -128.025000   65.222800  -59.235900
  C    -127.920000   64.567300  -58.083900
  H    -128.590000   66.123500  -59.338700
  C    -126.829000   65.497200  -61.601000
  H    -127.744000   65.651200  -62.161400
  H    -126.254000   64.836000  -62.220700
  C    -126.162000   66.855200  -61.567600
  H    -126.129000   67.193500  -62.523200
  H    -126.852000   67.436700  -61.002000
  C    -124.767000   66.743500  -60.852200
  H    -124.324000   67.706400  -60.889800
  H    -124.784000   66.307700  -59.866100
  H    -124.245000   66.033800  -61.484700
  S    -127.937000   65.141100  -55.455600
  C    -129.454000   65.228900  -54.615200
  C    -130.580000   65.004900  -55.456100
  C    -130.102000   64.817100  -56.792500
  C    -128.739000   64.873500  -56.912700
  H    -131.620000   64.999200  -55.091100
  C    -131.095000   64.584300  -57.861100
  H    -130.717000   65.051900  -58.795200
  H    -131.999000   65.173800  -57.602800
  C    -131.381000   63.069700  -58.019200
  H    -131.384000   62.530600  -57.076500
  H    -130.663000   62.617900  -58.651200
  C    -132.717000   62.920500  -58.770800
  H    -133.302000   63.774700  -58.477600
  H    -133.165000   61.966600  -58.559800
  H    -132.623000   62.915300  -59.815200
  H    -125.916000   62.926500  -60.615900
  H    -129.603000   65.610900  -53.615400

 Total Charge           Charge          ....    0
 Multiplicity           Mult            ....    1
 Number of Electrons    NEL             ....  134
 Basis Dimension        Dim             ....  322

ORBITAL ENERGIES
----------------

  NO   OCC          E(Eh)            E(eV)
   0   2.0000     -88.968408     -2420.9535
   1   2.0000     -88.962765     -2420.7999
   2   2.0000     -10.325999      -280.9847
   3   2.0000     -10.317746      -280.7601
   4   2.0000     -10.316439      -280.7246
   5   2.0000     -10.315233      -280.6918
   6   2.0000     -10.302416      -280.3430
   7   2.0000     -10.298863      -280.2463
   8   2.0000     -10.295803      -280.1630
   9   2.0000     -10.289183      -279.9829
  10   2.0000     -10.289092      -279.9804
  11   2.0000     -10.286972      -279.9227
  12   2.0000     -10.277940      -279.6770
  13   2.0000     -10.273240      -279.5491
  14   2.0000     -10.270149      -279.4649
  15   2.0000     -10.264948      -279.3234
  16   2.0000      -8.084316      -219.9854
  17   2.0000      -8.077254      -219.7933
  18   2.0000      -6.042628      -164.4283
  19   2.0000      -6.038617      -164.3191
  20   2.0000      -6.035875      -164.2445
  21   2.0000      -6.035264      -164.2279
  22   2.0000      -6.031839      -164.1347
  23   2.0000      -6.027841      -164.0259
  24   2.0000      -1.013249       -27.5719
  25   2.0000      -0.989008       -26.9123
  26   2.0000      -0.912159       -24.8211
  27   2.0000      -0.909339       -24.7444
  28   2.0000      -0.872179       -23.7332
  29   2.0000      -0.855497       -23.2793
  30   2.0000      -0.841514       -22.8988
  31   2.0000      -0.813210       -22.1286
  32   2.0000      -0.779991       -21.2246
  33   2.0000      -0.768049       -20.8997
  34   2.0000      -0.707592       -19.2546
  35   2.0000      -0.698242       -19.0001
  36   2.0000      -0.688498       -18.7350
  37   2.0000      -0.667941       -18.1756
  38   2.0000      -0.642968       -17.4960
  39   2.0000      -0.624733       -16.9999
  40   2.0000      -0.594346       -16.1730
  41   2.0000      -0.569806       -15.5052
  42   2.0000      -0.562402       -15.3037
  43   2.0000      -0.548981       -14.9385
  44   2.0000      -0.547267       -14.8919
  45   2.0000      -0.528788       -14.3891
  46   2.0000      -0.519638       -14.1401
  47   2.0000      -0.513429       -13.9711
  48   2.0000      -0.504011       -13.7148
  49   2.0000      -0.498584       -13.5671
  50   2.0000      -0.485580       -13.2133
  51   2.0000      -0.479496       -13.0477
  52   2.0000      -0.471267       -12.8238
  53   2.0000      -0.463640       -12.6163
  54   2.0000      -0.459645       -12.5076
  55   2.0000      -0.449919       -12.2429
  56   2.0000      -0.444541       -12.0966
  57   2.0000      -0.439202       -11.9513
  58   2.0000      -0.427864       -11.6428
  59   2.0000      -0.423066       -11.5122
  60   2.0000      -0.416204       -11.3255
  61   2.0000      -0.414729       -11.2853
  62   2.0000      -0.413348       -11.2478
  63   2.0000      -0.345415        -9.3992
  64   2.0000      -0.332438        -9.0461
  65   2.0000      -0.325849        -8.8668
  66   2.0000      -0.297014        -8.0822
  67   0.0000       0.042420         1.1543
  68   0.0000       0.058709         1.5976
  69   0.0000       0.107798         2.9333
  70   0.0000       0.117454         3.1961
  71   0.0000       0.129574         3.5259

MULLIKEN ATOMIC CHARGES
-----------------------
   0 S :    0.096983
   1 C :   -0.132961
   2 C :   -0.086636
   3 C :    0.014951
   4 C :   -0.098328
   5 H :    0.019777
   6 C :    0.037380
   7 H :    0.026011
   8 H :    0.000186
   9 C :   -0.021344
  10 H :    0.008215
  11 H :    0.011974
  12 C :   -0.037340
  13 H :    0.033747
  14 H :    0.049997
  15 H :    0.014943
  16 S :    0.137576
  17 C :   -0.101167
  18 C :   -0.051920
  19 C :   -0.044535
  20 C :   -0.198780
  21 H :    0.035672
  22 C :    0.049036
  23 H :    0.020945
  24 H :    0.027067
  25 C :   -0.052320
  26 H :    0.036221
  27 H :    0.027135
  28 C :   -0.011700
  29 H :    0.018053
  30 H :    0.025438
  31 H :    0.018579
  32 H :    0.070644
  33 H :    0.056502
Sum of atomic charges:    0.0000000

LOEWDIN ATOMIC CHARGES
----------------------
   0 S :    0.382788
   1 C :   -0.204052
   2 C :   -0.063876
   3 C :   -0.056467
   4 C :   -0.176427
   5 H :    0.030167
   6 C :   -0.026516
   7 H :    0.028092
   8 H :    0.017526
   9 C :   -0.028196
  10 H :    0.011333
  11 H :    0.015794
  12 C :   -0.055443
  13 H :    0.020727
  14 H :    0.028728
  15 H :    0.022775
  16 S :    0.450910
  17 C :   -0.193763
  18 C :   -0.067836
  19 C :   -0.056618
  20 C :   -0.232953
  21 H :    0.038826
  22 C :   -0.034559
  23 H :    0.032104
  24 H :    0.030002
  25 C :   -0.027739
  26 H :    0.025255
  27 H :    0.023194
  28 C :   -0.058692
  29 H :    0.019721
  30 H :    0.024057
  31 H :    0.018573
  32 H :    0.036593
  33 H :    0.025969

  Mayer bond orders larger than 0.100000
B(  0-S ,  1-C ) :   1.1432 B(  0-S ,  4-C ) :   1.1088 B(  1-C ,  2-C ) :   1.6190
B(  1-C , 32-H ) :   0.9603 B(  2-C ,  3-C ) :   1.2096 B(  2-C ,  6-C ) :   1.0196
B(  3-C ,  4-C ) :   1.6307 B(  3-C ,  5-H ) :   0.9890 B(  4-C , 20-C ) :   1.0190
B(  6-C ,  7-H ) :   0.9464 B(  6-C ,  8-H ) :   0.9466 B(  6-C ,  9-C ) :   1.0778
B(  9-C , 10-H ) :   0.9535 B(  9-C , 11-H ) :   0.9552 B(  9-C , 12-C ) :   1.0695
B( 12-C , 13-H ) :   0.9770 B( 12-C , 14-H ) :   0.9749 B( 12-C , 15-H ) :   0.9775
B( 16-S , 17-C ) :   1.1834 B( 16-S , 20-C ) :   1.1529 B( 17-C , 18-C ) :   1.5744
B( 17-C , 33-H ) :   0.9664 B( 18-C , 19-C ) :   1.2633 B( 18-C , 21-H ) :   0.9873
B( 19-C , 20-C ) :   1.5890 B( 19-C , 22-C ) :   1.0551 B( 22-C , 23-H ) :   0.9225
B( 22-C , 24-H ) :   0.9390 B( 22-C , 25-C ) :   1.0542 B( 25-C , 26-H ) :   0.9662
B( 25-C , 27-H ) :   0.9505 B( 25-C , 28-C ) :   1.0775 B( 28-C , 29-H ) :   0.9796
B( 28-C , 30-H ) :   0.9736 B( 28-C , 31-H ) :   0.9741

Dispersion correction           -0.014852078
FINAL SINGLE POINT ENERGY     -1339.857049196762

DIPOLE MOMENT
-------------
                                X             Y             Z
Electronic contribution:      8.02886      -4.68755      18.53940
Nuclear contribution   :     -8.39812       4.91923     -18.95883
                        -----------------------------------------
Total Dipole Moment    :     -0.36925       0.23168      -0.41943
                        -----------------------------------------
Magnitude (a.u.)       :      0.60493
Magnitude (Debye)      :      1.53762

Rotational constants in cm-1:     0.019049     0.008715     0.007338
Rotational constants in MHz :   571.087160   261.259912   219.987250

                             ****ORCA TERMINATED NORMALLY****
TOTAL RUN TIME: 0 days 0 hours 0 minutes 20 seconds 945 msec
