                         Program Version 4.2.1 -  RELEASE  -
|  1> ! wB97X-D3 SP def2-SVP
|  2> %pal
|  3> nprocs 24
|  4> end
|  5>
|  6> * xyz 0 1
|  7> S 	 42.1811 	 -21.4529 	 -121.913
|  8> C 	 40.4503 	 -21.2495 	 -121.968
|  9> C 	 39.7165 	 -22.4114 	 -121.708
| 10> C 	 40.5943 	 -23.5186 	 -121.58
| 11> C 	 41.9284 	 -23.1985 	 -121.693
| 12> H 	 40.2869 	 -24.5226 	 -121.293
| 13> C 	 38.2145 	 -22.4168 	 -121.465
| 14> H 	 37.6319 	 -21.4973 	 -121.612
| 15> H 	 38.0228 	 -22.5553 	 -120.398
| 16> C 	 37.5278 	 -23.6382 	 -122.179
| 17> H 	 38.2509 	 -24.4303 	 -122.426
| 18> H 	 36.6449 	 -24.0798 	 -121.597
| 19> C 	 37.0508 	 -23.212 	 -123.585
| 20> H 	 37.745 	 -22.5376 	 -124.061
| 21> H 	 36.9286 	 -24.1606 	 -124.098
| 22> H 	 36.073 	 -22.7215 	 -123.611
| 23> S 	 44.0197 	 -23.5627 	 -119.943
| 24> C 	 44.7394 	 -25.1126 	 -119.785
| 25> C 	 44.2322 	 -26.0075 	 -120.695
| 26> C 	 43.2429 	 -25.4376 	 -121.557
| 27> C 	 43.0727 	 -24.0979 	 -121.311
| 28> H 	 44.5776 	 -27.0589 	 -120.66
| 29> C 	 42.6796 	 -26.1495 	 -122.773
| 30> H 	 42.0472 	 -25.4214 	 -123.229
| 31> H 	 41.9977 	 -26.9471 	 -122.331
| 32> C 	 43.7411 	 -26.7917 	 -123.7
| 33> H 	 44.3683 	 -27.4622 	 -123.124
| 34> H 	 44.4473 	 -26.0266 	 -123.964
| 35> C 	 43.1617 	 -27.5061 	 -124.899
| 36> H 	 42.7628 	 -28.4456 	 -124.502
| 37> H 	 43.8995 	 -27.8894 	 -125.594
| 38> H 	 42.4462 	 -26.9096 	 -125.458
| 39> H 	 39.947 	 -20.3372 	 -122.15
| 40> H 	 45.4716 	 -25.4126 	 -118.984
| 41> *
| 42>
| 43>                          ****END OF INPUT****

CARTESIAN COORDINATES (ANGSTROEM)
---------------------------------
  S     42.181100  -21.452900  -121.913000
  C     40.450300  -21.249500  -121.968000
  C     39.716500  -22.411400  -121.708000
  C     40.594300  -23.518600  -121.580000
  C     41.928400  -23.198500  -121.693000
  H     40.286900  -24.522600  -121.293000
  C     38.214500  -22.416800  -121.465000
  H     37.631900  -21.497300  -121.612000
  H     38.022800  -22.555300  -120.398000
  C     37.527800  -23.638200  -122.179000
  H     38.250900  -24.430300  -122.426000
  H     36.644900  -24.079800  -121.597000
  C     37.050800  -23.212000  -123.585000
  H     37.745000  -22.537600  -124.061000
  H     36.928600  -24.160600  -124.098000
  H     36.073000  -22.721500  -123.611000
  S     44.019700  -23.562700  -119.943000
  C     44.739400  -25.112600  -119.785000
  C     44.232200  -26.007500  -120.695000
  C     43.242900  -25.437600  -121.557000
  C     43.072700  -24.097900  -121.311000
  H     44.577600  -27.058900  -120.660000
  C     42.679600  -26.149500  -122.773000
  H     42.047200  -25.421400  -123.229000
  H     41.997700  -26.947100  -122.331000
  C     43.741100  -26.791700  -123.700000
  H     44.368300  -27.462200  -123.124000
  H     44.447300  -26.026600  -123.964000
  C     43.161700  -27.506100  -124.899000
  H     42.762800  -28.445600  -124.502000
  H     43.899500  -27.889400  -125.594000
  H     42.446200  -26.909600  -125.458000
  H     39.947000  -20.337200  -122.150000
  H     45.471600  -25.412600  -118.984000

 Total Charge           Charge          ....    0
 Multiplicity           Mult            ....    1
 Number of Electrons    NEL             ....  134
 Basis Dimension        Dim             ....  322

ORBITAL ENERGIES
----------------

  NO   OCC          E(Eh)            E(eV)
   0   2.0000     -88.970268     -2421.0041
   1   2.0000     -88.963380     -2420.8166
   2   2.0000     -10.334068      -281.2043
   3   2.0000     -10.324310      -280.9388
   4   2.0000     -10.317218      -280.7458
   5   2.0000     -10.311667      -280.5947
   6   2.0000     -10.305051      -280.4147
   7   2.0000     -10.299836      -280.2728
   8   2.0000     -10.298069      -280.2247
   9   2.0000     -10.296844      -280.1914
  10   2.0000     -10.294512      -280.1279
  11   2.0000     -10.293222      -280.0928
  12   2.0000     -10.292642      -280.0770
  13   2.0000     -10.283339      -279.8239
  14   2.0000     -10.276269      -279.6315
  15   2.0000     -10.272602      -279.5317
  16   2.0000      -8.084463      -219.9894
  17   2.0000      -8.078982      -219.8403
  18   2.0000      -6.042914      -164.4360
  19   2.0000      -6.039200      -164.3350
  20   2.0000      -6.037400      -164.2860
  21   2.0000      -6.035182      -164.2256
  22   2.0000      -6.033370      -164.1763
  23   2.0000      -6.029767      -164.0783
  24   2.0000      -1.007684       -27.4205
  25   2.0000      -0.985649       -26.8209
  26   2.0000      -0.908868       -24.7316
  27   2.0000      -0.906750       -24.6739
  28   2.0000      -0.864980       -23.5373
  29   2.0000      -0.854354       -23.2481
  30   2.0000      -0.846526       -23.0351
  31   2.0000      -0.814388       -22.1606
  32   2.0000      -0.781524       -21.2663
  33   2.0000      -0.770264       -20.9600
  34   2.0000      -0.706002       -19.2113
  35   2.0000      -0.699310       -19.0292
  36   2.0000      -0.685121       -18.6431
  37   2.0000      -0.653709       -17.7883
  38   2.0000      -0.642602       -17.4861
  39   2.0000      -0.624680       -16.9984
  40   2.0000      -0.593567       -16.1518
  41   2.0000      -0.568824       -15.4785
  42   2.0000      -0.563484       -15.3332
  43   2.0000      -0.549482       -14.9522
  44   2.0000      -0.528532       -14.3821
  45   2.0000      -0.526051       -14.3146
  46   2.0000      -0.515291       -14.0218
  47   2.0000      -0.512844       -13.9552
  48   2.0000      -0.507550       -13.8111
  49   2.0000      -0.490265       -13.3408
  50   2.0000      -0.484278       -13.1779
  51   2.0000      -0.482703       -13.1350
  52   2.0000      -0.471848       -12.8396
  53   2.0000      -0.465281       -12.6609
  54   2.0000      -0.460338       -12.5264
  55   2.0000      -0.451280       -12.2800
  56   2.0000      -0.448122       -12.1940
  57   2.0000      -0.432805       -11.7772
  58   2.0000      -0.429685       -11.6923
  59   2.0000      -0.424511       -11.5515
  60   2.0000      -0.422321       -11.4919
  61   2.0000      -0.417102       -11.3499
  62   2.0000      -0.414568       -11.2810
  63   2.0000      -0.350468        -9.5367
  64   2.0000      -0.331189        -9.0121
  65   2.0000      -0.329375        -8.9628
  66   2.0000      -0.290846        -7.9143
  67   0.0000       0.033450         0.9102
  68   0.0000       0.069962         1.9038
  69   0.0000       0.109918         2.9910
  70   0.0000       0.123923         3.3721
  71   0.0000       0.129946         3.5360

MULLIKEN ATOMIC CHARGES
-----------------------
   0 S :    0.110078
   1 C :   -0.100582
   2 C :   -0.079612
   3 C :    0.031297
   4 C :   -0.158950
   5 H :    0.022969
   6 C :    0.069349
   7 H :    0.025386
   8 H :    0.037909
   9 C :   -0.134438
  10 H :    0.041492
  11 H :    0.044451
  12 C :   -0.050913
  13 H :    0.036020
  14 H :    0.029082
  15 H :    0.029753
  16 S :    0.105565
  17 C :   -0.109704
  18 C :   -0.056048
  19 C :   -0.069662
  20 C :   -0.126033
  21 H :    0.030724
  22 C :    0.070247
  23 H :    0.018403
  24 H :    0.031552
  25 C :   -0.061807
  26 H :    0.016330
  27 H :    0.026775
  28 C :   -0.023568
  29 H :    0.023243
  30 H :    0.028103
  31 H :    0.040266
  32 H :    0.027883
  33 H :    0.074440
Sum of atomic charges:   -0.0000000

LOEWDIN ATOMIC CHARGES
----------------------
   0 S :    0.396948
   1 C :   -0.191487
   2 C :   -0.060498
   3 C :   -0.059254
   4 C :   -0.184754
   5 H :    0.034084
   6 C :   -0.036149
   7 H :    0.032748
   8 H :    0.035958
   9 C :   -0.046402
  10 H :    0.025857
  11 H :    0.031171
  12 C :   -0.066824
  13 H :    0.023173
  14 H :    0.024838
  15 H :    0.021667
  16 S :    0.416539
  17 C :   -0.202392
  18 C :   -0.081533
  19 C :   -0.062077
  20 C :   -0.202709
  21 H :    0.036245
  22 C :   -0.028353
  23 H :    0.023791
  24 H :    0.035444
  25 C :   -0.039182
  26 H :    0.021594
  27 H :    0.022823
  28 C :   -0.063723
  29 H :    0.027935
  30 H :    0.027351
  31 H :    0.026648
  32 H :    0.018027
  33 H :    0.042497

  Mayer bond orders larger than 0.100000
B(  0-S ,  1-C ) :   1.1407 B(  0-S ,  4-C ) :   1.1455 B(  1-C ,  2-C ) :   1.6117
B(  1-C , 32-H ) :   0.9699 B(  2-C ,  3-C ) :   1.2467 B(  2-C ,  6-C ) :   1.0233
B(  3-C ,  4-C ) :   1.5801 B(  3-C ,  5-H ) :   0.9835 B(  4-C , 20-C ) :   0.9943
B(  6-C ,  7-H ) :   0.9526 B(  6-C ,  8-H ) :   0.9373 B(  6-C ,  9-C ) :   1.0415
B(  9-C , 10-H ) :   0.9687 B(  9-C , 11-H ) :   0.9573 B(  9-C , 12-C ) :   1.0646
B( 12-C , 13-H ) :   0.9779 B( 12-C , 14-H ) :   0.9788 B( 12-C , 15-H ) :   0.9768
B( 16-S , 17-C ) :   1.1647 B( 16-S , 20-C ) :   1.1410 B( 17-C , 18-C ) :   1.6155
B( 17-C , 33-H ) :   0.9589 B( 18-C , 19-C ) :   1.2268 B( 18-C , 21-H ) :   0.9878
B( 19-C , 20-C ) :   1.6248 B( 19-C , 22-C ) :   1.0386 B( 22-C , 23-H ) :   0.9387
B( 22-C , 24-H ) :   0.9266 B( 22-C , 25-C ) :   1.0584 B( 25-C , 26-H ) :   0.9505
B( 25-C , 27-H ) :   0.9545 B( 25-C , 28-C ) :   1.0900 B( 28-C , 29-H ) :   0.9729
B( 28-C , 30-H ) :   0.9712 B( 28-C , 31-H ) :   0.9763

Dispersion correction           -0.013809182
FINAL SINGLE POINT ENERGY     -1339.881335800280

DIPOLE MOMENT
-------------
                                X             Y             Z
Electronic contribution:     17.77134      16.48555      15.39421
Nuclear contribution   :    -18.17419     -16.97275     -15.35236
                        -----------------------------------------
Total Dipole Moment    :     -0.40285      -0.48719       0.04185
                        -----------------------------------------
Magnitude (a.u.)       :      0.63356
Magnitude (Debye)      :      1.61037

Rotational constants in cm-1:     0.016626     0.008862     0.006661
Rotational constants in MHz :   498.448689   265.686607   199.699151

                             ****ORCA TERMINATED NORMALLY****
TOTAL RUN TIME: 0 days 0 hours 0 minutes 21 seconds 287 msec
