                         Program Version 4.2.1 -  RELEASE  -
|  1> ! wB97X-D3 SP def2-SVP
|  2> %pal
|  3> nprocs 24
|  4> end
|  5>
|  6> * xyz 0 1
|  7> S 	 -99.0468 	 8.27692 	 5.16033
|  8> C 	 -98.1671 	 7.14056 	 4.1875
|  9> C 	 -97.5853 	 6.15851 	 5.0405
| 10> C 	 -97.8519 	 6.37104 	 6.41007
| 11> C 	 -98.6473 	 7.4714 	 6.63703
| 12> H 	 -97.4439 	 5.81789 	 7.24537
| 13> C 	 -97.0139 	 4.90304 	 4.55192
| 14> H 	 -95.9472 	 5.00899 	 4.73569
| 15> H 	 -96.9229 	 4.92411 	 3.50495
| 16> C 	 -97.7234 	 3.5797 	 4.94444
| 17> H 	 -97.7996 	 3.44696 	 6.06101
| 18> H 	 -98.7048 	 3.71075 	 4.57275
| 19> C 	 -96.9893 	 2.35005 	 4.30083
| 20> H 	 -96.7888 	 2.60429 	 3.29162
| 21> H 	 -96.027 	 2.1949 	 4.78138
| 22> H 	 -97.7046 	 1.49671 	 4.32282
| 23> S 	 -100.906 	 7.74596 	 8.22377
| 24> C 	 -100.783 	 8.19959 	 9.8417
| 25> C 	 -99.4792 	 8.60107 	 10.0956
| 26> C 	 -98.5605 	 8.49495 	 8.9668
| 27> C 	 -99.199 	 7.93554 	 7.93404
| 28> H 	 -99.263 	 9.04293 	 11.0249
| 29> C 	 -97.1167 	 8.73602 	 9.21974
| 30> H 	 -96.5607 	 8.17923 	 8.48583
| 31> H 	 -96.8704 	 8.12913 	 10.1082
| 32> C 	 -96.7661 	 10.2238 	 9.46412
| 33> H 	 -97.5976 	 10.6916 	 10.0261
| 34> H 	 -96.684 	 10.74 	 8.50007
| 35> C 	 -95.5597 	 10.4293 	 10.4391
| 36> H 	 -95.4224 	 11.4916 	 10.5017
| 37> H 	 -94.5866 	 10.0288 	 10.0143
| 38> H 	 -95.6163 	 9.95354 	 11.4349
| 39> H 	 -98.1437 	 7.12142 	 3.12089
| 40> H 	 -101.671 	 8.37923 	 10.4866
| 41> *
| 42>
| 43>                          ****END OF INPUT****

CARTESIAN COORDINATES (ANGSTROEM)
---------------------------------
  S    -99.046800    8.276920    5.160330
  C    -98.167100    7.140560    4.187500
  C    -97.585300    6.158510    5.040500
  C    -97.851900    6.371040    6.410070
  C    -98.647300    7.471400    6.637030
  H    -97.443900    5.817890    7.245370
  C    -97.013900    4.903040    4.551920
  H    -95.947200    5.008990    4.735690
  H    -96.922900    4.924110    3.504950
  C    -97.723400    3.579700    4.944440
  H    -97.799600    3.446960    6.061010
  H    -98.704800    3.710750    4.572750
  C    -96.989300    2.350050    4.300830
  H    -96.788800    2.604290    3.291620
  H    -96.027000    2.194900    4.781380
  H    -97.704600    1.496710    4.322820
  S    -100.906000    7.745960    8.223770
  C    -100.783000    8.199590    9.841700
  C    -99.479200    8.601070   10.095600
  C    -98.560500    8.494950    8.966800
  C    -99.199000    7.935540    7.934040
  H    -99.263000    9.042930   11.024900
  C    -97.116700    8.736020    9.219740
  H    -96.560700    8.179230    8.485830
  H    -96.870400    8.129130   10.108200
  C    -96.766100   10.223800    9.464120
  H    -97.597600   10.691600   10.026100
  H    -96.684000   10.740000    8.500070
  C    -95.559700   10.429300   10.439100
  H    -95.422400   11.491600   10.501700
  H    -94.586600   10.028800   10.014300
  H    -95.616300    9.953540   11.434900
  H    -98.143700    7.121420    3.120890
  H    -101.671000    8.379230   10.486600

 Total Charge           Charge          ....    0
 Multiplicity           Mult            ....    1
 Number of Electrons    NEL             ....  134
 Basis Dimension        Dim             ....  322

ORBITAL ENERGIES
----------------

  NO   OCC          E(Eh)            E(eV)
   0   2.0000     -88.964811     -2420.8556
   1   2.0000     -88.958797     -2420.6919
   2   2.0000     -10.325284      -280.9653
   3   2.0000     -10.319696      -280.8132
   4   2.0000     -10.314338      -280.6674
   5   2.0000     -10.312521      -280.6179
   6   2.0000     -10.297494      -280.2091
   7   2.0000     -10.296448      -280.1806
   8   2.0000     -10.293843      -280.1097
   9   2.0000     -10.290050      -280.0065
  10   2.0000     -10.289822      -280.0003
  11   2.0000     -10.288200      -279.9562
  12   2.0000     -10.287252      -279.9303
  13   2.0000     -10.284430      -279.8536
  14   2.0000     -10.280669      -279.7512
  15   2.0000     -10.280401      -279.7439
  16   2.0000      -8.079867      -219.8643
  17   2.0000      -8.075369      -219.7420
  18   2.0000      -6.038226      -164.3085
  19   2.0000      -6.034119      -164.1967
  20   2.0000      -6.033848      -164.1893
  21   2.0000      -6.030994      -164.1117
  22   2.0000      -6.029575      -164.0731
  23   2.0000      -6.026076      -163.9779
  24   2.0000      -1.011517       -27.5248
  25   2.0000      -0.989056       -26.9136
  26   2.0000      -0.912226       -24.8229
  27   2.0000      -0.909271       -24.7425
  28   2.0000      -0.866137       -23.5688
  29   2.0000      -0.850995       -23.1567
  30   2.0000      -0.845847       -23.0167
  31   2.0000      -0.814486       -22.1633
  32   2.0000      -0.782728       -21.2991
  33   2.0000      -0.769081       -20.9278
  34   2.0000      -0.710051       -19.3215
  35   2.0000      -0.702669       -19.1206
  36   2.0000      -0.690728       -18.7957
  37   2.0000      -0.661520       -18.0009
  38   2.0000      -0.645092       -17.5538
  39   2.0000      -0.622205       -16.9311
  40   2.0000      -0.599031       -16.3005
  41   2.0000      -0.564300       -15.3554
  42   2.0000      -0.558973       -15.2104
  43   2.0000      -0.553732       -15.0678
  44   2.0000      -0.531089       -14.4517
  45   2.0000      -0.528886       -14.3917
  46   2.0000      -0.515878       -14.0377
  47   2.0000      -0.509763       -13.8714
  48   2.0000      -0.508305       -13.8317
  49   2.0000      -0.504928       -13.7398
  50   2.0000      -0.499097       -13.5811
  51   2.0000      -0.474641       -12.9156
  52   2.0000      -0.466410       -12.6917
  53   2.0000      -0.462367       -12.5816
  54   2.0000      -0.454899       -12.3784
  55   2.0000      -0.448017       -12.1911
  56   2.0000      -0.443001       -12.0547
  57   2.0000      -0.441827       -12.0227
  58   2.0000      -0.438490       -11.9319
  59   2.0000      -0.425633       -11.5821
  60   2.0000      -0.421768       -11.4769
  61   2.0000      -0.411825       -11.2063
  62   2.0000      -0.410134       -11.1603
  63   2.0000      -0.337075        -9.1723
  64   2.0000      -0.330367        -8.9898
  65   2.0000      -0.320695        -8.7265
  66   2.0000      -0.302744        -8.2381
  67   0.0000       0.046004         1.2518
  68   0.0000       0.068067         1.8522
  69   0.0000       0.120862         3.2888
  70   0.0000       0.126901         3.4531
  71   0.0000       0.133537         3.6337

MULLIKEN ATOMIC CHARGES
-----------------------
   0 S :    0.122141
   1 C :   -0.111115
   2 C :   -0.111334
   3 C :    0.048205
   4 C :   -0.182494
   5 H :    0.014456
   6 C :    0.088244
   7 H :    0.017271
   8 H :   -0.021197
   9 C :   -0.072124
  10 H :    0.042452
  11 H :    0.028560
  12 C :   -0.030890
  13 H :    0.016734
  14 H :    0.038733
  15 H :    0.047300
  16 S :    0.116240
  17 C :   -0.102327
  18 C :   -0.038934
  19 C :   -0.006462
  20 C :   -0.194077
  21 H :   -0.001467
  22 C :    0.092329
  23 H :    0.011228
  24 H :    0.025831
  25 C :   -0.079048
  26 H :    0.037784
  27 H :    0.047689
  28 C :   -0.072562
  29 H :    0.034738
  30 H :    0.031752
  31 H :    0.044190
  32 H :    0.041205
  33 H :    0.076948
Sum of atomic charges:    0.0000000

LOEWDIN ATOMIC CHARGES
----------------------
   0 S :    0.427064
   1 C :   -0.208011
   2 C :   -0.062277
   3 C :   -0.062523
   4 C :   -0.199773
   5 H :    0.033601
   6 C :   -0.045721
   7 H :    0.033030
   8 H :    0.020601
   9 C :   -0.030136
  10 H :    0.027372
  11 H :    0.021364
  12 C :   -0.058898
  13 H :    0.017235
  14 H :    0.027739
  15 H :    0.033426
  16 S :    0.427195
  17 C :   -0.210513
  18 C :   -0.069405
  19 C :   -0.056232
  20 C :   -0.207758
  21 H :    0.017000
  22 C :   -0.034973
  23 H :    0.026775
  24 H :    0.036864
  25 C :   -0.035838
  26 H :    0.029101
  27 H :    0.031956
  28 C :   -0.072103
  29 H :    0.023882
  30 H :    0.027369
  31 H :    0.028315
  32 H :    0.023301
  33 H :    0.040972

  Mayer bond orders larger than 0.100000
B(  0-S ,  1-C ) :   1.1508 B(  0-S ,  4-C ) :   1.1874 B(  1-C ,  2-C ) :   1.5605
B(  1-C ,  4-C ) :   0.1045 B(  1-C , 32-H ) :   0.9738 B(  2-C ,  3-C ) :   1.2609
B(  2-C ,  6-C ) :   1.0519 B(  3-C ,  4-C ) :   1.5626 B(  3-C ,  5-H ) :   0.9966
B(  4-C , 20-C ) :   0.9813 B(  6-C ,  7-H ) :   0.9164 B(  6-C ,  8-H ) :   0.9259
B(  6-C ,  9-C ) :   1.0446 B(  9-C , 10-H ) :   0.9575 B(  9-C , 11-H ) :   0.9560
B(  9-C , 12-C ) :   1.0753 B( 12-C , 13-H ) :   0.9756 B( 12-C , 14-H ) :   0.9773
B( 12-C , 15-H ) :   0.9758 B( 16-S , 17-C ) :   1.1653 B( 16-S , 20-C ) :   1.1480
B( 17-C , 18-C ) :   1.6123 B( 17-C , 33-H ) :   0.9634 B( 18-C , 19-C ) :   1.2087
B( 18-C , 21-H ) :   0.9932 B( 19-C , 20-C ) :   1.6322 B( 19-C , 22-C ) :   1.0455
B( 22-C , 23-H ) :   0.9252 B( 22-C , 24-H ) :   0.9446 B( 22-C , 25-C ) :   1.0327
B( 25-C , 26-H ) :   0.9658 B( 25-C , 27-H ) :   0.9543 B( 25-C , 28-C ) :   1.0714
B( 28-C , 29-H ) :   0.9758 B( 28-C , 30-H ) :   0.9749 B( 28-C , 31-H ) :   0.9761

Dispersion correction           -0.013667837
FINAL SINGLE POINT ENERGY     -1339.874737639057

DIPOLE MOMENT
-------------
                                X             Y             Z
Electronic contribution:    -20.16444       8.97671      -3.32426
Nuclear contribution   :     20.58075      -9.15566       3.50240
                        -----------------------------------------
Total Dipole Moment    :      0.41630      -0.17895       0.17814
                        -----------------------------------------
Magnitude (a.u.)       :      0.48689
Magnitude (Debye)      :      1.23758

Rotational constants in cm-1:     0.018932     0.007328     0.006588
Rotational constants in MHz :   567.580070   219.681473   197.493011

                             ****ORCA TERMINATED NORMALLY****
TOTAL RUN TIME: 0 days 0 hours 0 minutes 19 seconds 945 msec
