                         Program Version 4.2.1 -  RELEASE  -
|  1> ! wB97X-D3 SP def2-SVP
|  2> %pal
|  3> nprocs 24
|  4> end
|  5>
|  6> * xyz 0 1
|  7> S 	 16.4894 	 -13.4589 	 -121.459
|  8> C 	 14.9638 	 -13.698 	 -122.214
|  9> C 	 14.057 	 -14.4143 	 -121.473
| 10> C 	 14.6361 	 -14.7424 	 -120.213
| 11> C 	 15.9524 	 -14.343 	 -120.043
| 12> H 	 14.1457 	 -15.2424 	 -119.352
| 13> C 	 12.603 	 -14.6397 	 -121.776
| 14> H 	 12.6058 	 -14.5382 	 -122.842
| 15> H 	 12.0469 	 -13.8848 	 -121.235
| 16> C 	 12.0437 	 -16.0625 	 -121.354
| 17> H 	 12.7418 	 -16.7486 	 -121.659
| 18> H 	 12.0266 	 -16.2982 	 -120.313
| 19> C 	 10.7256 	 -16.3126 	 -121.997
| 20> H 	 10.1967 	 -17.265 	 -121.796
| 21> H 	 10.0902 	 -15.5153 	 -121.544
| 22> H 	 10.8081 	 -16.0641 	 -123.084
| 23> S 	 18.2779 	 -15.7483 	 -119.259
| 24> C 	 18.7729 	 -15.7368 	 -117.623
| 25> C 	 17.9554 	 -14.9683 	 -116.845
| 26> C 	 16.8296 	 -14.4279 	 -117.61
| 27> C 	 16.8403 	 -14.7892 	 -118.941
| 28> H 	 18.2274 	 -14.8388 	 -115.758
| 29> C 	 15.7617 	 -13.5175 	 -117.044
| 30> H 	 15.3313 	 -12.9575 	 -117.904
| 31> H 	 16.3626 	 -12.7801 	 -116.41
| 32> C 	 14.6988 	 -14.3718 	 -116.269
| 33> H 	 15.1902 	 -14.6951 	 -115.338
| 34> H 	 14.4144 	 -15.2624 	 -116.855
| 35> C 	 13.3651 	 -13.6855 	 -115.912
| 36> H 	 13.1026 	 -13.0877 	 -116.738
| 37> H 	 13.4556 	 -13.0203 	 -115.076
| 38> H 	 12.5376 	 -14.33 	 -115.766
| 39> H 	 14.6969 	 -13.1546 	 -123.099
| 40> H 	 19.4533 	 -16.4148 	 -117.161
| 41> *
| 42>
| 43>                          ****END OF INPUT****

CARTESIAN COORDINATES (ANGSTROEM)
---------------------------------
  S     16.489400  -13.458900  -121.459000
  C     14.963800  -13.698000  -122.214000
  C     14.057000  -14.414300  -121.473000
  C     14.636100  -14.742400  -120.213000
  C     15.952400  -14.343000  -120.043000
  H     14.145700  -15.242400  -119.352000
  C     12.603000  -14.639700  -121.776000
  H     12.605800  -14.538200  -122.842000
  H     12.046900  -13.884800  -121.235000
  C     12.043700  -16.062500  -121.354000
  H     12.741800  -16.748600  -121.659000
  H     12.026600  -16.298200  -120.313000
  C     10.725600  -16.312600  -121.997000
  H     10.196700  -17.265000  -121.796000
  H     10.090200  -15.515300  -121.544000
  H     10.808100  -16.064100  -123.084000
  S     18.277900  -15.748300  -119.259000
  C     18.772900  -15.736800  -117.623000
  C     17.955400  -14.968300  -116.845000
  C     16.829600  -14.427900  -117.610000
  C     16.840300  -14.789200  -118.941000
  H     18.227400  -14.838800  -115.758000
  C     15.761700  -13.517500  -117.044000
  H     15.331300  -12.957500  -117.904000
  H     16.362600  -12.780100  -116.410000
  C     14.698800  -14.371800  -116.269000
  H     15.190200  -14.695100  -115.338000
  H     14.414400  -15.262400  -116.855000
  C     13.365100  -13.685500  -115.912000
  H     13.102600  -13.087700  -116.738000
  H     13.455600  -13.020300  -115.076000
  H     12.537600  -14.330000  -115.766000
  H     14.696900  -13.154600  -123.099000
  H     19.453300  -16.414800  -117.161000

 Total Charge           Charge          ....    0
 Multiplicity           Mult            ....    1
 Number of Electrons    NEL             ....  134
 Basis Dimension        Dim             ....  322

ORBITAL ENERGIES
----------------

  NO   OCC          E(Eh)            E(eV)
   0   2.0000     -88.968672     -2420.9606
   1   2.0000     -88.961201     -2420.7574
   2   2.0000     -10.330218      -281.0995
   3   2.0000     -10.324884      -280.9544
   4   2.0000     -10.311295      -280.5846
   5   2.0000     -10.310310      -280.5578
   6   2.0000     -10.303087      -280.3613
   7   2.0000     -10.299856      -280.2733
   8   2.0000     -10.297613      -280.2123
   9   2.0000     -10.297530      -280.2100
  10   2.0000     -10.296241      -280.1750
  11   2.0000     -10.295272      -280.1486
  12   2.0000     -10.291325      -280.0412
  13   2.0000     -10.283336      -279.8238
  14   2.0000     -10.278975      -279.7051
  15   2.0000     -10.267823      -279.4017
  16   2.0000      -8.083766      -219.9705
  17   2.0000      -8.076690      -219.7779
  18   2.0000      -6.042200      -164.4166
  19   2.0000      -6.038207      -164.3080
  20   2.0000      -6.035219      -164.2267
  21   2.0000      -6.034610      -164.2101
  22   2.0000      -6.031028      -164.1126
  23   2.0000      -6.027434      -164.0148
  24   2.0000      -1.007958       -27.4279
  25   2.0000      -0.988814       -26.9070
  26   2.0000      -0.916676       -24.9440
  27   2.0000      -0.903577       -24.5876
  28   2.0000      -0.871824       -23.7235
  29   2.0000      -0.854937       -23.2640
  30   2.0000      -0.846273       -23.0283
  31   2.0000      -0.818013       -22.2593
  32   2.0000      -0.780287       -21.2327
  33   2.0000      -0.769242       -20.9321
  34   2.0000      -0.713281       -19.4093
  35   2.0000      -0.699159       -19.0251
  36   2.0000      -0.693328       -18.8664
  37   2.0000      -0.654093       -17.7988
  38   2.0000      -0.643708       -17.5162
  39   2.0000      -0.617573       -16.8050
  40   2.0000      -0.586715       -15.9653
  41   2.0000      -0.578274       -15.7356
  42   2.0000      -0.569165       -15.4878
  43   2.0000      -0.561419       -15.2770
  44   2.0000      -0.531400       -14.4601
  45   2.0000      -0.523170       -14.2362
  46   2.0000      -0.519574       -14.1383
  47   2.0000      -0.513066       -13.9612
  48   2.0000      -0.504658       -13.7324
  49   2.0000      -0.498025       -13.5520
  50   2.0000      -0.495238       -13.4761
  51   2.0000      -0.476087       -12.9550
  52   2.0000      -0.472499       -12.8574
  53   2.0000      -0.466980       -12.7072
  54   2.0000      -0.457445       -12.4477
  55   2.0000      -0.451401       -12.2833
  56   2.0000      -0.439811       -11.9679
  57   2.0000      -0.437653       -11.9091
  58   2.0000      -0.433739       -11.8026
  59   2.0000      -0.429771       -11.6947
  60   2.0000      -0.423536       -11.5250
  61   2.0000      -0.416877       -11.3438
  62   2.0000      -0.410005       -11.1568
  63   2.0000      -0.345151        -9.3920
  64   2.0000      -0.331673        -9.0253
  65   2.0000      -0.325697        -8.8627
  66   2.0000      -0.299127        -8.1397
  67   0.0000       0.041791         1.1372
  68   0.0000       0.062258         1.6941
  69   0.0000       0.117542         3.1985
  70   0.0000       0.126406         3.4397
  71   0.0000       0.130057         3.5390

MULLIKEN ATOMIC CHARGES
-----------------------
   0 S :    0.128386
   1 C :   -0.126728
   2 C :   -0.085133
   3 C :    0.008023
   4 C :   -0.178038
   5 H :    0.021986
   6 C :    0.083271
   7 H :    0.018397
   8 H :    0.049831
   9 C :   -0.049965
  10 H :    0.005129
  11 H :    0.022437
  12 C :   -0.057922
  13 H :    0.048920
  14 H :    0.023347
  15 H :    0.036208
  16 S :    0.108529
  17 C :   -0.080492
  18 C :   -0.057627
  19 C :   -0.066198
  20 C :   -0.152386
  21 H :    0.041224
  22 C :    0.044849
  23 H :    0.041327
  24 H :    0.043841
  25 C :   -0.103158
  26 H :    0.032064
  27 H :    0.038550
  28 C :    0.010729
  29 H :    0.007122
  30 H :    0.023872
  31 H :    0.025042
  32 H :    0.041369
  33 H :    0.053195
Sum of atomic charges:   -0.0000000

LOEWDIN ATOMIC CHARGES
----------------------
   0 S :    0.420889
   1 C :   -0.201639
   2 C :   -0.068289
   3 C :   -0.061671
   4 C :   -0.199416
   5 H :    0.034550
   6 C :   -0.017328
   7 H :    0.030025
   8 H :    0.035614
   9 C :   -0.040667
  10 H :    0.012541
  11 H :    0.021576
  12 C :   -0.070466
  13 H :    0.030408
  14 H :    0.028019
  15 H :    0.029616
  16 S :    0.412289
  17 C :   -0.195704
  18 C :   -0.083405
  19 C :   -0.055474
  20 C :   -0.204780
  21 H :    0.042094
  22 C :   -0.037259
  23 H :    0.031581
  24 H :    0.038951
  25 C :   -0.039462
  26 H :    0.025432
  27 H :    0.025857
  28 C :   -0.061148
  29 H :    0.019140
  30 H :    0.022628
  31 H :    0.022447
  32 H :    0.023434
  33 H :    0.029616

  Mayer bond orders larger than 0.100000
B(  0-S ,  1-C ) :   1.1536 B(  0-S ,  4-C ) :   1.1511 B(  1-C ,  2-C ) :   1.6095
B(  1-C , 32-H ) :   0.9645 B(  2-C ,  3-C ) :   1.2449 B(  2-C ,  6-C ) :   1.0200
B(  3-C ,  4-C ) :   1.5824 B(  3-C ,  5-H ) :   0.9848 B(  4-C , 20-C ) :   1.0203
B(  6-C ,  7-H ) :   0.9381 B(  6-C ,  8-H ) :   0.9352 B(  6-C ,  9-C ) :   1.0577
B(  9-C , 10-H ) :   0.9547 B(  9-C , 11-H ) :   0.9479 B(  9-C , 12-C ) :   1.0891
B( 12-C , 13-H ) :   0.9723 B( 12-C , 14-H ) :   0.9715 B( 12-C , 15-H ) :   0.9738
B( 16-S , 17-C ) :   1.1652 B( 16-S , 20-C ) :   1.1277 B( 17-C , 18-C ) :   1.6296
B( 17-C , 33-H ) :   0.9628 B( 18-C , 19-C ) :   1.2225 B( 18-C , 21-H ) :   0.9827
B( 19-C , 20-C ) :   1.6226 B( 19-C , 22-C ) :   1.0432 B( 22-C , 23-H ) :   0.9292
B( 22-C , 24-H ) :   0.9394 B( 22-C , 25-C ) :   1.0487 B( 25-C , 26-H ) :   0.9571
B( 25-C , 27-H ) :   0.9591 B( 25-C , 28-C ) :   1.0809 B( 28-C , 29-H ) :   0.9714
B( 28-C , 30-H ) :   0.9742 B( 28-C , 31-H ) :   0.9762

Dispersion correction           -0.014226695
FINAL SINGLE POINT ENERGY     -1339.874757304930

DIPOLE MOMENT
-------------
                                X             Y             Z
Electronic contribution:     28.82253       1.79750      -8.34279
Nuclear contribution   :    -29.41064      -1.79786       8.67082
                        -----------------------------------------
Total Dipole Moment    :     -0.58810      -0.00036       0.32804
                        -----------------------------------------
Magnitude (a.u.)       :      0.67340
Magnitude (Debye)      :      1.71166

Rotational constants in cm-1:     0.016999     0.008825     0.006909
Rotational constants in MHz :   509.623842   264.565059   207.111686

                             ****ORCA TERMINATED NORMALLY****
TOTAL RUN TIME: 0 days 0 hours 0 minutes 21 seconds 558 msec
