                         Program Version 4.2.1 -  RELEASE  -
|  1> ! wB97X-D3 SP def2-SVP
|  2> %pal
|  3> nprocs 24
|  4> end
|  5>
|  6> * xyz 0 1
|  7> S 	 -123.297 	 67.8625 	 -39.2038
|  8> C 	 -124.031 	 69.4048 	 -39.2945
|  9> C 	 -125.063 	 69.5464 	 -40.2111
| 10> C 	 -125.219 	 68.3366 	 -40.9682
| 11> C 	 -124.269 	 67.3801 	 -40.6183
| 12> H 	 -125.891 	 68.1058 	 -41.7716
| 13> C 	 -125.953 	 70.7171 	 -40.3719
| 14> H 	 -126.383 	 70.651 	 -41.3739
| 15> H 	 -125.322 	 71.5746 	 -40.096
| 16> C 	 -127.125 	 70.8363 	 -39.3806
| 17> H 	 -127.814 	 69.98 	 -39.6548
| 18> H 	 -126.94 	 70.7184 	 -38.3205
| 19> C 	 -127.902 	 72.0981 	 -39.3344
| 20> H 	 -128.664 	 72.0538 	 -38.5609
| 21> H 	 -127.168 	 72.8999 	 -38.9324
| 22> H 	 -128.235 	 72.4785 	 -40.3055
| 23> S 	 -124.075 	 64.6746 	 -40.0869
| 24> C 	 -123.894 	 63.5021 	 -41.3441
| 25> C 	 -123.935 	 64.1581 	 -42.5563
| 26> C 	 -124.049 	 65.5544 	 -42.487
| 27> C 	 -124 	 66.0575 	 -41.1887
| 28> H 	 -124.053 	 63.6407 	 -43.4697
| 29> C 	 -124.142 	 66.3866 	 -43.7348
| 30> H 	 -123.214 	 66.3846 	 -44.2659
| 31> H 	 -124.348 	 67.3847 	 -43.4702
| 32> C 	 -125.274 	 65.9774 	 -44.6892
| 33> H 	 -126.176 	 65.7934 	 -44.1534
| 34> H 	 -125.023 	 64.964 	 -45.1229
| 35> C 	 -125.36 	 66.9576 	 -45.894
| 36> H 	 -125.347 	 67.958 	 -45.4977
| 37> H 	 -126.277 	 66.9734 	 -46.4895
| 38> H 	 -124.563 	 66.7568 	 -46.633
| 39> H 	 -123.671 	 70.2659 	 -38.7069
| 40> H 	 -124.085 	 62.4455 	 -41.2595
| 41> *
| 42>
| 43>                          ****END OF INPUT****

CARTESIAN COORDINATES (ANGSTROEM)
---------------------------------
  S    -123.297000   67.862500  -39.203800
  C    -124.031000   69.404800  -39.294500
  C    -125.063000   69.546400  -40.211100
  C    -125.219000   68.336600  -40.968200
  C    -124.269000   67.380100  -40.618300
  H    -125.891000   68.105800  -41.771600
  C    -125.953000   70.717100  -40.371900
  H    -126.383000   70.651000  -41.373900
  H    -125.322000   71.574600  -40.096000
  C    -127.125000   70.836300  -39.380600
  H    -127.814000   69.980000  -39.654800
  H    -126.940000   70.718400  -38.320500
  C    -127.902000   72.098100  -39.334400
  H    -128.664000   72.053800  -38.560900
  H    -127.168000   72.899900  -38.932400
  H    -128.235000   72.478500  -40.305500
  S    -124.075000   64.674600  -40.086900
  C    -123.894000   63.502100  -41.344100
  C    -123.935000   64.158100  -42.556300
  C    -124.049000   65.554400  -42.487000
  C    -124.000000   66.057500  -41.188700
  H    -124.053000   63.640700  -43.469700
  C    -124.142000   66.386600  -43.734800
  H    -123.214000   66.384600  -44.265900
  H    -124.348000   67.384700  -43.470200
  C    -125.274000   65.977400  -44.689200
  H    -126.176000   65.793400  -44.153400
  H    -125.023000   64.964000  -45.122900
  C    -125.360000   66.957600  -45.894000
  H    -125.347000   67.958000  -45.497700
  H    -126.277000   66.973400  -46.489500
  H    -124.563000   66.756800  -46.633000
  H    -123.671000   70.265900  -38.706900
  H    -124.085000   62.445500  -41.259500

 Total Charge           Charge          ....    0
 Multiplicity           Mult            ....    1
 Number of Electrons    NEL             ....  134
 Basis Dimension        Dim             ....  322

ORBITAL ENERGIES
----------------

  NO   OCC          E(Eh)            E(eV)
   0   2.0000     -88.969135     -2420.9732
   1   2.0000     -88.962722     -2420.7987
   2   2.0000     -10.333186      -281.1803
   3   2.0000     -10.327470      -281.0248
   4   2.0000     -10.315184      -280.6904
   5   2.0000     -10.313035      -280.6319
   6   2.0000     -10.301636      -280.3218
   7   2.0000     -10.298615      -280.2396
   8   2.0000     -10.298240      -280.2293
   9   2.0000     -10.295849      -280.1643
  10   2.0000     -10.290715      -280.0246
  11   2.0000     -10.286023      -279.8969
  12   2.0000     -10.285372      -279.8792
  13   2.0000     -10.283887      -279.8388
  14   2.0000     -10.282745      -279.8077
  15   2.0000     -10.282211      -279.7932
  16   2.0000      -8.084129      -219.9803
  17   2.0000      -8.077622      -219.8033
  18   2.0000      -6.042477      -164.4242
  19   2.0000      -6.038765      -164.3232
  20   2.0000      -6.036145      -164.2519
  21   2.0000      -6.034881      -164.2175
  22   2.0000      -6.031994      -164.1389
  23   2.0000      -6.028457      -164.0427
  24   2.0000      -1.007599       -27.4182
  25   2.0000      -0.987219       -26.8636
  26   2.0000      -0.918239       -24.9865
  27   2.0000      -0.911883       -24.8136
  28   2.0000      -0.871270       -23.7085
  29   2.0000      -0.859034       -23.3755
  30   2.0000      -0.847746       -23.0683
  31   2.0000      -0.817242       -22.2383
  32   2.0000      -0.783296       -21.3146
  33   2.0000      -0.770998       -20.9799
  34   2.0000      -0.707448       -19.2506
  35   2.0000      -0.700153       -19.0521
  36   2.0000      -0.691275       -18.8105
  37   2.0000      -0.662224       -18.0200
  38   2.0000      -0.642731       -17.4896
  39   2.0000      -0.620941       -16.8967
  40   2.0000      -0.601594       -16.3702
  41   2.0000      -0.582276       -15.8445
  42   2.0000      -0.570999       -15.5377
  43   2.0000      -0.558355       -15.1936
  44   2.0000      -0.532464       -14.4891
  45   2.0000      -0.523538       -14.2462
  46   2.0000      -0.518991       -14.1225
  47   2.0000      -0.512588       -13.9482
  48   2.0000      -0.505788       -13.7632
  49   2.0000      -0.501150       -13.6370
  50   2.0000      -0.491368       -13.3708
  51   2.0000      -0.480899       -13.0859
  52   2.0000      -0.473226       -12.8771
  53   2.0000      -0.464991       -12.6531
  54   2.0000      -0.461829       -12.5670
  55   2.0000      -0.450460       -12.2576
  56   2.0000      -0.449195       -12.2232
  57   2.0000      -0.443863       -12.0781
  58   2.0000      -0.435740       -11.8571
  59   2.0000      -0.424621       -11.5545
  60   2.0000      -0.417928       -11.3724
  61   2.0000      -0.416582       -11.3358
  62   2.0000      -0.404761       -11.0141
  63   2.0000      -0.351262        -9.5583
  64   2.0000      -0.332367        -9.0442
  65   2.0000      -0.329496        -8.9660
  66   2.0000      -0.285764        -7.7760
  67   0.0000       0.027747         0.7550
  68   0.0000       0.062999         1.7143
  69   0.0000       0.107660         2.9296
  70   0.0000       0.118469         3.2237
  71   0.0000       0.128965         3.5093

MULLIKEN ATOMIC CHARGES
-----------------------
   0 S :    0.123085
   1 C :   -0.117376
   2 C :   -0.092560
   3 C :    0.042672
   4 C :   -0.184335
   5 H :    0.009829
   6 C :    0.104235
   7 H :    0.028295
   8 H :    0.019233
   9 C :   -0.095752
  10 H :    0.023398
  11 H :    0.024872
  12 C :   -0.047761
  13 H :    0.040752
  14 H :    0.024145
  15 H :    0.030807
  16 S :    0.087815
  17 C :   -0.074672
  18 C :   -0.026049
  19 C :   -0.058462
  20 C :   -0.114540
  21 H :    0.001442
  22 C :    0.115162
  23 H :    0.031668
  24 H :   -0.009735
  25 C :   -0.115565
  26 H :    0.027595
  27 H :    0.030541
  28 C :   -0.038953
  29 H :    0.021995
  30 H :    0.031321
  31 H :    0.042354
  32 H :    0.051315
  33 H :    0.063229
Sum of atomic charges:    0.0000000

LOEWDIN ATOMIC CHARGES
----------------------
   0 S :    0.414344
   1 C :   -0.208983
   2 C :   -0.064588
   3 C :   -0.057095
   4 C :   -0.179232
   5 H :    0.030339
   6 C :   -0.031524
   7 H :    0.036008
   8 H :    0.035206
   9 C :   -0.053174
  10 H :    0.023779
  11 H :    0.025881
  12 C :   -0.067167
  13 H :    0.029645
  14 H :    0.029624
  15 H :    0.019755
  16 S :    0.407408
  17 C :   -0.191055
  18 C :   -0.069186
  19 C :   -0.059423
  20 C :   -0.198338
  21 H :    0.022869
  22 C :   -0.024069
  23 H :    0.032114
  24 H :    0.017760
  25 C :   -0.038786
  26 H :    0.018260
  27 H :    0.024135
  28 C :   -0.068270
  29 H :    0.021204
  30 H :    0.027572
  31 H :    0.031742
  32 H :    0.029875
  33 H :    0.033371

  Mayer bond orders larger than 0.100000
B(  0-S ,  1-C ) :   1.1482 B(  0-S ,  4-C ) :   1.1529 B(  1-C ,  2-C ) :   1.6158
B(  1-C , 32-H ) :   0.9586 B(  2-C ,  3-C ) :   1.2233 B(  2-C ,  6-C ) :   1.0451
B(  3-C ,  4-C ) :   1.5892 B(  3-C ,  5-H ) :   0.9900 B(  4-C , 20-C ) :   1.0165
B(  6-C ,  7-H ) :   0.9306 B(  6-C ,  8-H ) :   0.9271 B(  6-C ,  9-C ) :   1.0671
B(  9-C , 10-H ) :   0.9483 B(  9-C , 11-H ) :   0.9581 B(  9-C , 12-C ) :   1.0914
B( 12-C , 13-H ) :   0.9710 B( 12-C , 14-H ) :   0.9694 B( 12-C , 15-H ) :   0.9726
B( 16-S , 17-C ) :   1.1678 B( 16-S , 20-C ) :   1.1471 B( 17-C , 18-C ) :   1.5700
B( 17-C , 20-C ) :   0.1033 B( 17-C , 33-H ) :   0.9669 B( 18-C , 19-C ) :   1.2835
B( 18-C , 21-H ) :   0.9933 B( 19-C , 20-C ) :   1.5700 B( 19-C , 22-C ) :   1.0481
B( 22-C , 23-H ) :   0.9342 B( 22-C , 24-H ) :   0.9319 B( 22-C , 25-C ) :   1.0505
B( 25-C , 26-H ) :   0.9638 B( 25-C , 27-H ) :   0.9534 B( 25-C , 28-C ) :   1.0719
B( 28-C , 29-H ) :   0.9759 B( 28-C , 30-H ) :   0.9756 B( 28-C , 31-H ) :   0.9758

Dispersion correction           -0.013471312
FINAL SINGLE POINT ENERGY     -1339.871278015841

DIPOLE MOMENT
-------------
                                X             Y             Z
Electronic contribution:     16.54792     -17.50834      16.41059
Nuclear contribution   :    -17.03107      17.78576     -16.88133
                        -----------------------------------------
Total Dipole Moment    :     -0.48315       0.27743      -0.47074
                        -----------------------------------------
Magnitude (a.u.)       :      0.72938
Magnitude (Debye)      :      1.85393

Rotational constants in cm-1:     0.017828     0.008068     0.006135
Rotational constants in MHz :   534.456237   241.866311   183.907990

                             ****ORCA TERMINATED NORMALLY****
TOTAL RUN TIME: 0 days 0 hours 0 minutes 21 seconds 133 msec
