                         Program Version 4.2.1 -  RELEASE  -
|  1> ! wB97X-D3 SP def2-SVP
|  2> %pal
|  3> nprocs 24
|  4> end
|  5>
|  6> * xyz 0 1
|  7> S 	 -39.6024 	 -12.2887 	 13.3107
|  8> C 	 -40.8776 	 -11.794 	 14.4467
|  9> C 	 -40.5695 	 -12.1015 	 15.755
| 10> C 	 -39.182 	 -12.5965 	 15.8236
| 11> C 	 -38.5031 	 -12.5441 	 14.6309
| 12> H 	 -38.6967 	 -12.9812 	 16.7099
| 13> C 	 -41.4319 	 -12.0914 	 16.8964
| 14> H 	 -41.3018 	 -13.0415 	 17.4065
| 15> H 	 -42.4954 	 -12.1611 	 16.6272
| 16> C 	 -41.313 	 -11.004 	 17.9257
| 17> H 	 -42.0439 	 -11.2526 	 18.6723
| 18> H 	 -40.3124 	 -11.0555 	 18.3987
| 19> C 	 -41.3912 	 -9.55456 	 17.2967
| 20> H 	 -42.178 	 -9.34699 	 16.5481
| 21> H 	 -41.4607 	 -8.86856 	 18.144
| 22> H 	 -40.451 	 -9.20505 	 16.7802
| 23> S 	 -36.5659 	 -14.4697 	 14.7767
| 24> C 	 -34.9578 	 -14.1648 	 14.2234
| 25> C 	 -34.8737 	 -12.8555 	 13.7298
| 26> C 	 -36.1485 	 -12.1698 	 13.7109
| 27> C 	 -37.1624 	 -12.8163 	 14.4213
| 28> H 	 -33.8709 	 -12.4982 	 13.3978
| 29> C 	 -36.3435 	 -10.8049 	 13.125
| 30> H 	 -37.2218 	 -10.7664 	 12.4559
| 31> H 	 -35.4766 	 -10.6565 	 12.4985
| 32> C 	 -36.4353 	 -9.67827 	 14.1429
| 33> H 	 -35.7647 	 -9.92208 	 15.0218
| 34> H 	 -37.5133 	 -9.76422 	 14.442
| 35> C 	 -36.2101 	 -8.23811 	 13.6683
| 36> H 	 -35.2014 	 -8.18407 	 13.2102
| 37> H 	 -35.9404 	 -7.65564 	 14.5406
| 38> H 	 -37.0255 	 -7.68555 	 13.2344
| 39> H 	 -41.8172 	 -11.4259 	 14.1406
| 40> H 	 -34.2034 	 -14.9952 	 14.1316
| 41> *
| 42>
| 43>                          ****END OF INPUT****

CARTESIAN COORDINATES (ANGSTROEM)
---------------------------------
  S    -39.602400  -12.288700   13.310700
  C    -40.877600  -11.794000   14.446700
  C    -40.569500  -12.101500   15.755000
  C    -39.182000  -12.596500   15.823600
  C    -38.503100  -12.544100   14.630900
  H    -38.696700  -12.981200   16.709900
  C    -41.431900  -12.091400   16.896400
  H    -41.301800  -13.041500   17.406500
  H    -42.495400  -12.161100   16.627200
  C    -41.313000  -11.004000   17.925700
  H    -42.043900  -11.252600   18.672300
  H    -40.312400  -11.055500   18.398700
  C    -41.391200   -9.554560   17.296700
  H    -42.178000   -9.346990   16.548100
  H    -41.460700   -8.868560   18.144000
  H    -40.451000   -9.205050   16.780200
  S    -36.565900  -14.469700   14.776700
  C    -34.957800  -14.164800   14.223400
  C    -34.873700  -12.855500   13.729800
  C    -36.148500  -12.169800   13.710900
  C    -37.162400  -12.816300   14.421300
  H    -33.870900  -12.498200   13.397800
  C    -36.343500  -10.804900   13.125000
  H    -37.221800  -10.766400   12.455900
  H    -35.476600  -10.656500   12.498500
  C    -36.435300   -9.678270   14.142900
  H    -35.764700   -9.922080   15.021800
  H    -37.513300   -9.764220   14.442000
  C    -36.210100   -8.238110   13.668300
  H    -35.201400   -8.184070   13.210200
  H    -35.940400   -7.655640   14.540600
  H    -37.025500   -7.685550   13.234400
  H    -41.817200  -11.425900   14.140600
  H    -34.203400  -14.995200   14.131600

 Total Charge           Charge          ....    0
 Multiplicity           Mult            ....    1
 Number of Electrons    NEL             ....  134
 Basis Dimension        Dim             ....  322

ORBITAL ENERGIES
----------------

  NO   OCC          E(Eh)            E(eV)
   0   2.0000     -88.964716     -2420.8530
   1   2.0000     -88.960794     -2420.7463
   2   2.0000     -10.324626      -280.9474
   3   2.0000     -10.322893      -280.9002
   4   2.0000     -10.321795      -280.8703
   5   2.0000     -10.312888      -280.6280
   6   2.0000     -10.306814      -280.4627
   7   2.0000     -10.302558      -280.3469
   8   2.0000     -10.301021      -280.3050
   9   2.0000     -10.294828      -280.1365
  10   2.0000     -10.291079      -280.0345
  11   2.0000     -10.286704      -279.9155
  12   2.0000     -10.284522      -279.8561
  13   2.0000     -10.284363      -279.8518
  14   2.0000     -10.282465      -279.8001
  15   2.0000     -10.275324      -279.6058
  16   2.0000      -8.079267      -219.8480
  17   2.0000      -8.075509      -219.7458
  18   2.0000      -6.037926      -164.3003
  19   2.0000      -6.034010      -164.1938
  20   2.0000      -6.034006      -164.1936
  21   2.0000      -6.029823      -164.0798
  22   2.0000      -6.029656      -164.0753
  23   2.0000      -6.026465      -163.9885
  24   2.0000      -1.007885       -27.4259
  25   2.0000      -0.980534       -26.6817
  26   2.0000      -0.921767       -25.0826
  27   2.0000      -0.906650       -24.6712
  28   2.0000      -0.873134       -23.7592
  29   2.0000      -0.847237       -23.0545
  30   2.0000      -0.841572       -22.9003
  31   2.0000      -0.809510       -22.0279
  32   2.0000      -0.786150       -21.3922
  33   2.0000      -0.774960       -21.0877
  34   2.0000      -0.713309       -19.4101
  35   2.0000      -0.702648       -19.1200
  36   2.0000      -0.684387       -18.6231
  37   2.0000      -0.662154       -18.0181
  38   2.0000      -0.637806       -17.3556
  39   2.0000      -0.619270       -16.8512
  40   2.0000      -0.592445       -16.1213
  41   2.0000      -0.569615       -15.5000
  42   2.0000      -0.563981       -15.3467
  43   2.0000      -0.549041       -14.9402
  44   2.0000      -0.541685       -14.7400
  45   2.0000      -0.523289       -14.2394
  46   2.0000      -0.519346       -14.1321
  47   2.0000      -0.515648       -14.0315
  48   2.0000      -0.507427       -13.8078
  49   2.0000      -0.497898       -13.5485
  50   2.0000      -0.491897       -13.3852
  51   2.0000      -0.477182       -12.9848
  52   2.0000      -0.473397       -12.8818
  53   2.0000      -0.464646       -12.6437
  54   2.0000      -0.454598       -12.3702
  55   2.0000      -0.448143       -12.1946
  56   2.0000      -0.444125       -12.0852
  57   2.0000      -0.437815       -11.9136
  58   2.0000      -0.428482       -11.6596
  59   2.0000      -0.418567       -11.3898
  60   2.0000      -0.416178       -11.3248
  61   2.0000      -0.408738       -11.1223
  62   2.0000      -0.401832       -10.9344
  63   2.0000      -0.339286        -9.2324
  64   2.0000      -0.326958        -8.8970
  65   2.0000      -0.324321        -8.8252
  66   2.0000      -0.294107        -8.0030
  67   0.0000       0.027273         0.7421
  68   0.0000       0.062876         1.7109
  69   0.0000       0.095492         2.5985
  70   0.0000       0.119937         3.2636
  71   0.0000       0.126742         3.4488

MULLIKEN ATOMIC CHARGES
-----------------------
   0 S :    0.113079
   1 C :   -0.114921
   2 C :   -0.044617
   3 C :    0.012936
   4 C :   -0.149254
   5 H :    0.012253
   6 C :    0.041729
   7 H :    0.024916
   8 H :    0.017931
   9 C :   -0.044922
  10 H :    0.033332
  11 H :    0.031332
  12 C :   -0.090190
  13 H :    0.036336
  14 H :    0.034585
  15 H :    0.048091
  16 S :    0.095181
  17 C :   -0.119473
  18 C :   -0.052121
  19 C :   -0.053715
  20 C :   -0.139263
  21 H :    0.037485
  22 C :    0.093166
  23 H :    0.032090
  24 H :   -0.000927
  25 C :   -0.119686
  26 H :    0.042472
  27 H :    0.042640
  28 C :   -0.021282
  29 H :    0.023358
  30 H :    0.016596
  31 H :    0.047681
  32 H :    0.025479
  33 H :    0.087706
Sum of atomic charges:    0.0000000

LOEWDIN ATOMIC CHARGES
----------------------
   0 S :    0.399819
   1 C :   -0.176827
   2 C :   -0.055797
   3 C :   -0.051059
   4 C :   -0.203684
   5 H :    0.028730
   6 C :   -0.048560
   7 H :    0.037857
   8 H :    0.032389
   9 C :   -0.033072
  10 H :    0.024649
  11 H :    0.028018
  12 C :   -0.078164
  13 H :    0.023775
  14 H :    0.026494
  15 H :    0.035386
  16 S :    0.399122
  17 C :   -0.198502
  18 C :   -0.082843
  19 C :   -0.047358
  20 C :   -0.194922
  21 H :    0.038789
  22 C :   -0.041773
  23 H :    0.028257
  24 H :    0.021484
  25 C :   -0.047512
  26 H :    0.031675
  27 H :    0.031806
  28 C :   -0.076551
  29 H :    0.030072
  30 H :    0.030406
  31 H :    0.027570
  32 H :    0.016066
  33 H :    0.044260

  Mayer bond orders larger than 0.100000
B(  0-S ,  1-C ) :   1.1177 B(  0-S ,  4-C ) :   1.1242 B(  1-C ,  2-C ) :   1.6237
B(  1-C , 32-H ) :   0.9746 B(  2-C ,  3-C ) :   1.1863 B(  2-C ,  6-C ) :   1.0500
B(  3-C ,  4-C ) :   1.5813 B(  3-C ,  5-H ) :   1.0000 B(  4-C , 20-C ) :   1.1114
B(  6-C ,  7-H ) :   0.9264 B(  6-C ,  8-H ) :   0.9341 B(  6-C ,  9-C ) :   1.0876
B(  9-C , 10-H ) :   0.9571 B(  9-C , 11-H ) :   0.9520 B(  9-C , 12-C ) :   1.0599
B( 12-C , 13-H ) :   0.9799 B( 12-C , 14-H ) :   0.9756 B( 12-C , 15-H ) :   0.9722
B( 16-S , 17-C ) :   1.1819 B( 16-S , 20-C ) :   1.1187 B( 17-C , 18-C ) :   1.5780
B( 17-C , 20-C ) :   0.1059 B( 17-C , 33-H ) :   0.9599 B( 18-C , 19-C ) :   1.2475
B( 18-C , 21-H ) :   0.9852 B( 19-C , 20-C ) :   1.5459 B( 19-C , 22-C ) :   1.0685
B( 22-C , 23-H ) :   0.9257 B( 22-C , 24-H ) :   0.9238 B( 22-C , 25-C ) :   1.0572
B( 25-C , 26-H ) :   0.9590 B( 25-C , 27-H ) :   0.9505 B( 25-C , 28-C ) :   1.0932
B( 28-C , 29-H ) :   0.9665 B( 28-C , 30-H ) :   0.9670 B( 28-C , 31-H ) :   0.9749

Dispersion correction           -0.014888167
FINAL SINGLE POINT ENERGY     -1339.863279818783

DIPOLE MOMENT
-------------
                                X             Y             Z
Electronic contribution:      4.67964     -22.59882      -9.58729
Nuclear contribution   :     -4.70060      22.86885       9.87663
                        -----------------------------------------
Total Dipole Moment    :     -0.02096       0.27004       0.28935
                        -----------------------------------------
Magnitude (a.u.)       :      0.39633
Magnitude (Debye)      :      1.00739

Rotational constants in cm-1:     0.018357     0.009142     0.007440
Rotational constants in MHz :   550.336943   274.072726   223.046946

                             ****ORCA TERMINATED NORMALLY****
TOTAL RUN TIME: 0 days 0 hours 0 minutes 22 seconds 42 msec
