                         Program Version 4.2.1 -  RELEASE  -
|  1> ! wB97X-D3 SP def2-SVP
|  2> %pal
|  3> nprocs 24
|  4> end
|  5>
|  6> * xyz 0 1
|  7> S 	 -122.212 	 66.6805 	 -40.007
|  8> C 	 -121.882 	 68.4038 	 -39.8447
|  9> C 	 -122.399 	 68.8807 	 -38.6548
| 10> C 	 -123.258 	 67.8746 	 -38.1171
| 11> C 	 -123.098 	 66.6138 	 -38.5093
| 12> H 	 -123.851 	 67.9221 	 -37.2807
| 13> C 	 -122.238 	 70.2748 	 -38.1097
| 14> H 	 -123.086 	 70.9322 	 -38.5721
| 15> H 	 -121.318 	 70.6301 	 -38.586
| 16> C 	 -122.216 	 70.5439 	 -36.5679
| 17> H 	 -122.296 	 71.5852 	 -36.3135
| 18> H 	 -123.192 	 70.1146 	 -36.2525
| 19> C 	 -120.988 	 69.8919 	 -35.8447
| 20> H 	 -120.088 	 70.4244 	 -36.1391
| 21> H 	 -121 	 70.198 	 -34.8557
| 22> H 	 -120.799 	 68.7512 	 -35.9665
| 23> S 	 -124.308 	 64.231 	 -39.1255
| 24> C 	 -124.963 	 63.2241 	 -37.8455
| 25> C 	 -124.499 	 63.6519 	 -36.586
| 26> C 	 -123.823 	 64.8867 	 -36.5926
| 27> C 	 -123.682 	 65.3781 	 -37.9182
| 28> H 	 -124.61 	 63.0353 	 -35.7714
| 29> C 	 -123.43 	 65.5296 	 -35.2583
| 30> H 	 -122.408 	 65.9739 	 -35.3573
| 31> H 	 -123.292 	 64.7311 	 -34.5274
| 32> C 	 -124.383 	 66.5574 	 -34.621
| 33> H 	 -125.395 	 66.1827 	 -34.436
| 34> H 	 -124.558 	 67.4039 	 -35.3121
| 35> C 	 -123.866 	 67.0717 	 -33.3055
| 36> H 	 -124.224 	 67.9928 	 -32.9538
| 37> H 	 -122.769 	 67.1273 	 -33.4214
| 38> H 	 -124.186 	 66.4123 	 -32.5444
| 39> H 	 -121.302 	 69.0507 	 -40.5059
| 40> H 	 -125.382 	 62.284 	 -38.0402
| 41> *
| 42>
| 43>                          ****END OF INPUT****

CARTESIAN COORDINATES (ANGSTROEM)
---------------------------------
  S    -122.212000   66.680500  -40.007000
  C    -121.882000   68.403800  -39.844700
  C    -122.399000   68.880700  -38.654800
  C    -123.258000   67.874600  -38.117100
  C    -123.098000   66.613800  -38.509300
  H    -123.851000   67.922100  -37.280700
  C    -122.238000   70.274800  -38.109700
  H    -123.086000   70.932200  -38.572100
  H    -121.318000   70.630100  -38.586000
  C    -122.216000   70.543900  -36.567900
  H    -122.296000   71.585200  -36.313500
  H    -123.192000   70.114600  -36.252500
  C    -120.988000   69.891900  -35.844700
  H    -120.088000   70.424400  -36.139100
  H    -121.000000   70.198000  -34.855700
  H    -120.799000   68.751200  -35.966500
  S    -124.308000   64.231000  -39.125500
  C    -124.963000   63.224100  -37.845500
  C    -124.499000   63.651900  -36.586000
  C    -123.823000   64.886700  -36.592600
  C    -123.682000   65.378100  -37.918200
  H    -124.610000   63.035300  -35.771400
  C    -123.430000   65.529600  -35.258300
  H    -122.408000   65.973900  -35.357300
  H    -123.292000   64.731100  -34.527400
  C    -124.383000   66.557400  -34.621000
  H    -125.395000   66.182700  -34.436000
  H    -124.558000   67.403900  -35.312100
  C    -123.866000   67.071700  -33.305500
  H    -124.224000   67.992800  -32.953800
  H    -122.769000   67.127300  -33.421400
  H    -124.186000   66.412300  -32.544400
  H    -121.302000   69.050700  -40.505900
  H    -125.382000   62.284000  -38.040200

 Total Charge           Charge          ....    0
 Multiplicity           Mult            ....    1
 Number of Electrons    NEL             ....  134
 Basis Dimension        Dim             ....  322

ORBITAL ENERGIES
----------------

  NO   OCC          E(Eh)            E(eV)
   0   2.0000     -88.969364     -2420.9795
   1   2.0000     -88.960773     -2420.7457
   2   2.0000     -10.338228      -281.3175
   3   2.0000     -10.324028      -280.9311
   4   2.0000     -10.317887      -280.7640
   5   2.0000     -10.314743      -280.6784
   6   2.0000     -10.311852      -280.5997
   7   2.0000     -10.302183      -280.3366
   8   2.0000     -10.301519      -280.3186
   9   2.0000     -10.301458      -280.3169
  10   2.0000     -10.297795      -280.2173
  11   2.0000     -10.291890      -280.0566
  12   2.0000     -10.288497      -279.9642
  13   2.0000     -10.282373      -279.7976
  14   2.0000     -10.277105      -279.6543
  15   2.0000     -10.271375      -279.4983
  16   2.0000      -8.083478      -219.9626
  17   2.0000      -8.075671      -219.7502
  18   2.0000      -6.041870      -164.4077
  19   2.0000      -6.038072      -164.3043
  20   2.0000      -6.034397      -164.2043
  21   2.0000      -6.034376      -164.2037
  22   2.0000      -6.030202      -164.0901
  23   2.0000      -6.026137      -163.9795
  24   2.0000      -1.007449       -27.4141
  25   2.0000      -0.983804       -26.7707
  26   2.0000      -0.913113       -24.8471
  27   2.0000      -0.905316       -24.6349
  28   2.0000      -0.867926       -23.6175
  29   2.0000      -0.858847       -23.3704
  30   2.0000      -0.841877       -22.9086
  31   2.0000      -0.818196       -22.2643
  32   2.0000      -0.784441       -21.3457
  33   2.0000      -0.774869       -21.0853
  34   2.0000      -0.711184       -19.3523
  35   2.0000      -0.702537       -19.1170
  36   2.0000      -0.691475       -18.8160
  37   2.0000      -0.667663       -18.1680
  38   2.0000      -0.644748       -17.5445
  39   2.0000      -0.620636       -16.8884
  40   2.0000      -0.601665       -16.3721
  41   2.0000      -0.568729       -15.4759
  42   2.0000      -0.560515       -15.2524
  43   2.0000      -0.550359       -14.9760
  44   2.0000      -0.536621       -14.6022
  45   2.0000      -0.531662       -14.4672
  46   2.0000      -0.519073       -14.1247
  47   2.0000      -0.514841       -14.0095
  48   2.0000      -0.502930       -13.6854
  49   2.0000      -0.501501       -13.6465
  50   2.0000      -0.487779       -13.2732
  51   2.0000      -0.482590       -13.1319
  52   2.0000      -0.469850       -12.7853
  53   2.0000      -0.463126       -12.6023
  54   2.0000      -0.460148       -12.5213
  55   2.0000      -0.453579       -12.3425
  56   2.0000      -0.447079       -12.1656
  57   2.0000      -0.440963       -11.9992
  58   2.0000      -0.433311       -11.7910
  59   2.0000      -0.430332       -11.7099
  60   2.0000      -0.416407       -11.3310
  61   2.0000      -0.413998       -11.2655
  62   2.0000      -0.411941       -11.2095
  63   2.0000      -0.348205        -9.4751
  64   2.0000      -0.335646        -9.1334
  65   2.0000      -0.323435        -8.8011
  66   2.0000      -0.289598        -7.8804
  67   0.0000       0.023745         0.6461
  68   0.0000       0.072660         1.9772
  69   0.0000       0.100339         2.7304
  70   0.0000       0.119021         3.2387
  71   0.0000       0.124439         3.3861

MULLIKEN ATOMIC CHARGES
-----------------------
   0 S :    0.091264
   1 C :   -0.111106
   2 C :   -0.084621
   3 C :    0.070364
   4 C :   -0.120156
   5 H :   -0.071452
   6 C :    0.021949
   7 H :    0.059395
   8 H :    0.016177
   9 C :   -0.058794
  10 H :    0.030295
  11 H :    0.029463
  12 C :   -0.048167
  13 H :    0.019228
  14 H :    0.014461
  15 H :    0.069705
  16 S :    0.105309
  17 C :   -0.070988
  18 C :   -0.019337
  19 C :   -0.001977
  20 C :   -0.167761
  21 H :   -0.009740
  22 C :    0.040123
  23 H :    0.039134
  24 H :    0.017940
  25 C :   -0.070122
  26 H :    0.024595
  27 H :    0.032080
  28 C :   -0.008400
  29 H :    0.016249
  30 H :    0.031091
  31 H :    0.021964
  32 H :    0.048086
  33 H :    0.043750
Sum of atomic charges:    0.0000000

LOEWDIN ATOMIC CHARGES
----------------------
   0 S :    0.387669
   1 C :   -0.190308
   2 C :   -0.064309
   3 C :   -0.066466
   4 C :   -0.191686
   5 H :    0.009270
   6 C :   -0.042187
   7 H :    0.047071
   8 H :    0.025789
   9 C :   -0.037765
  10 H :    0.026900
  11 H :    0.024577
  12 C :   -0.073342
  13 H :    0.026554
  14 H :    0.016483
  15 H :    0.042791
  16 S :    0.404013
  17 C :   -0.174774
  18 C :   -0.056353
  19 C :   -0.052495
  20 C :   -0.179785
  21 H :    0.017970
  22 C :   -0.032376
  23 H :    0.036658
  24 H :    0.030886
  25 C :   -0.042491
  26 H :    0.024738
  27 H :    0.020937
  28 C :   -0.058775
  29 H :    0.020566
  30 H :    0.029190
  31 H :    0.022299
  32 H :    0.032085
  33 H :    0.016668

  Mayer bond orders larger than 0.100000
B(  0-S ,  1-C ) :   1.1324 B(  0-S ,  4-C ) :   1.1177 B(  1-C ,  2-C ) :   1.6243
B(  1-C , 32-H ) :   0.9647 B(  2-C ,  3-C ) :   1.1971 B(  2-C ,  6-C ) :   1.0244
B(  3-C ,  4-C ) :   1.6420 B(  3-C ,  5-H ) :   0.9963 B(  4-C , 20-C ) :   1.0307
B(  6-C ,  7-H ) :   0.9362 B(  6-C ,  8-H ) :   0.9403 B(  6-C ,  9-C ) :   1.0679
B(  9-C , 10-H ) :   0.9541 B(  9-C , 11-H ) :   0.9539 B(  9-C , 12-C ) :   1.0719
B( 12-C , 13-H ) :   0.9691 B( 12-C , 14-H ) :   0.9710 B( 12-C , 15-H ) :   0.9744
B( 16-S , 17-C ) :   1.1636 B( 16-S , 20-C ) :   1.1598 B( 17-C , 18-C ) :   1.5758
B( 17-C , 20-C ) :   0.1150 B( 17-C , 33-H ) :   0.9737 B( 18-C , 19-C ) :   1.2700
B( 18-C , 21-H ) :   0.9992 B( 19-C , 20-C ) :   1.5531 B( 19-C , 22-C ) :   1.0444
B( 22-C , 23-H ) :   0.9272 B( 22-C , 24-H ) :   0.9354 B( 22-C , 25-C ) :   1.0648
B( 25-C , 26-H ) :   0.9514 B( 25-C , 27-H ) :   0.9521 B( 25-C , 28-C ) :   1.0793
B( 28-C , 29-H ) :   0.9705 B( 28-C , 30-H ) :   0.9740 B( 28-C , 31-H ) :   0.9746

Dispersion correction           -0.014871051
FINAL SINGLE POINT ENERGY     -1339.851250744053

DIPOLE MOMENT
-------------
                                X             Y             Z
Electronic contribution:     -3.55329     -18.59029     -26.90951
Nuclear contribution   :      3.54743      18.95228      27.70661
                        -----------------------------------------
Total Dipole Moment    :     -0.00586       0.36198       0.79709
                        -----------------------------------------
Magnitude (a.u.)       :      0.87546
Magnitude (Debye)      :      2.22523

Rotational constants in cm-1:     0.016262     0.011012     0.006930
Rotational constants in MHz :   487.511045   330.138340   207.749646

                             ****ORCA TERMINATED NORMALLY****
TOTAL RUN TIME: 0 days 0 hours 0 minutes 22 seconds 528 msec
