                         Program Version 4.2.1 -  RELEASE  -
|  1> ! wB97X-D3 SP def2-SVP
|  2> %pal
|  3> nprocs 24
|  4> end
|  5>
|  6> * xyz 0 1
|  7> S 	 -131.234 	 29.8701 	 -12.977
|  8> C 	 -130.977 	 28.5248 	 -11.8289
|  9> C 	 -131.2 	 27.3307 	 -12.4355
| 10> C 	 -131.502 	 27.4278 	 -13.8309
| 11> C 	 -131.535 	 28.7741 	 -14.2882
| 12> H 	 -131.698 	 26.6144 	 -14.5007
| 13> C 	 -131.152 	 25.9466 	 -11.9128
| 14> H 	 -132.132 	 25.488 	 -12.1689
| 15> H 	 -131.144 	 26.1383 	 -10.7662
| 16> C 	 -129.9 	 25.0904 	 -12.2758
| 17> H 	 -130.136 	 24.2417 	 -11.6798
| 18> H 	 -129.862 	 24.9266 	 -13.3853
| 19> C 	 -128.516 	 25.6119 	 -11.8572
| 20> H 	 -127.706 	 24.9716 	 -12.1324
| 21> H 	 -128.315 	 26.5789 	 -12.3238
| 22> H 	 -128.358 	 25.6654 	 -10.7494
| 23> S 	 -131.312 	 30.7914 	 -16.1993
| 24> C 	 -132.175 	 30.6024 	 -17.7215
| 25> C 	 -132.8 	 29.3806 	 -17.779
| 26> C 	 -132.631 	 28.5844 	 -16.5968
| 27> C 	 -131.827 	 29.1975 	 -15.6491
| 28> H 	 -133.361 	 29.161 	 -18.7456
| 29> C 	 -133.299 	 27.2823 	 -16.5212
| 30> H 	 -134.232 	 27.3599 	 -17.0664
| 31> H 	 -133.621 	 27.1702 	 -15.4736
| 32> C 	 -132.575 	 26.071 	 -17.1053
| 33> H 	 -131.813 	 25.7409 	 -16.4483
| 34> H 	 -132.06 	 26.431 	 -17.9726
| 35> C 	 -133.347 	 24.7763 	 -17.6018
| 36> H 	 -134.028 	 25.0161 	 -18.3598
| 37> H 	 -133.893 	 24.2455 	 -16.8573
| 38> H 	 -132.623 	 24.0781 	 -18.0021
| 39> H 	 -130.662 	 28.5881 	 -10.8033
| 40> H 	 -132.288 	 31.3409 	 -18.4635
| 41> *
| 42>
| 43>                          ****END OF INPUT****

CARTESIAN COORDINATES (ANGSTROEM)
---------------------------------
  S    -131.234000   29.870100  -12.977000
  C    -130.977000   28.524800  -11.828900
  C    -131.200000   27.330700  -12.435500
  C    -131.502000   27.427800  -13.830900
  C    -131.535000   28.774100  -14.288200
  H    -131.698000   26.614400  -14.500700
  C    -131.152000   25.946600  -11.912800
  H    -132.132000   25.488000  -12.168900
  H    -131.144000   26.138300  -10.766200
  C    -129.900000   25.090400  -12.275800
  H    -130.136000   24.241700  -11.679800
  H    -129.862000   24.926600  -13.385300
  C    -128.516000   25.611900  -11.857200
  H    -127.706000   24.971600  -12.132400
  H    -128.315000   26.578900  -12.323800
  H    -128.358000   25.665400  -10.749400
  S    -131.312000   30.791400  -16.199300
  C    -132.175000   30.602400  -17.721500
  C    -132.800000   29.380600  -17.779000
  C    -132.631000   28.584400  -16.596800
  C    -131.827000   29.197500  -15.649100
  H    -133.361000   29.161000  -18.745600
  C    -133.299000   27.282300  -16.521200
  H    -134.232000   27.359900  -17.066400
  H    -133.621000   27.170200  -15.473600
  C    -132.575000   26.071000  -17.105300
  H    -131.813000   25.740900  -16.448300
  H    -132.060000   26.431000  -17.972600
  C    -133.347000   24.776300  -17.601800
  H    -134.028000   25.016100  -18.359800
  H    -133.893000   24.245500  -16.857300
  H    -132.623000   24.078100  -18.002100
  H    -130.662000   28.588100  -10.803300
  H    -132.288000   31.340900  -18.463500

 Total Charge           Charge          ....    0
 Multiplicity           Mult            ....    1
 Number of Electrons    NEL             ....  134
 Basis Dimension        Dim             ....  322

ORBITAL ENERGIES
----------------

  NO   OCC          E(Eh)            E(eV)
   0   2.0000     -88.968088     -2420.9448
   1   2.0000     -88.966532     -2420.9024
   2   2.0000     -10.333706      -281.1944
   3   2.0000     -10.330351      -281.1032
   4   2.0000     -10.316052      -280.7140
   5   2.0000     -10.312771      -280.6248
   6   2.0000     -10.302978      -280.3583
   7   2.0000     -10.300059      -280.2788
   8   2.0000     -10.299196      -280.2554
   9   2.0000     -10.293840      -280.1096
  10   2.0000     -10.293548      -280.1017
  11   2.0000     -10.290913      -280.0300
  12   2.0000     -10.287758      -279.9441
  13   2.0000     -10.286632      -279.9135
  14   2.0000     -10.278873      -279.7024
  15   2.0000     -10.277331      -279.6604
  16   2.0000      -8.082261      -219.9295
  17   2.0000      -8.080964      -219.8942
  18   2.0000      -6.041014      -164.3843
  19   2.0000      -6.039575      -164.3452
  20   2.0000      -6.036833      -164.2706
  21   2.0000      -6.035522      -164.2349
  22   2.0000      -6.032806      -164.1610
  23   2.0000      -6.031637      -164.1292
  24   2.0000      -1.006270       -27.3820
  25   2.0000      -0.983151       -26.7529
  26   2.0000      -0.912921       -24.8418
  27   2.0000      -0.910721       -24.7820
  28   2.0000      -0.869667       -23.6648
  29   2.0000      -0.853810       -23.2333
  30   2.0000      -0.844653       -22.9842
  31   2.0000      -0.812570       -22.1111
  32   2.0000      -0.785817       -21.3832
  33   2.0000      -0.778989       -21.1974
  34   2.0000      -0.715855       -19.4794
  35   2.0000      -0.702516       -19.1164
  36   2.0000      -0.700816       -19.0702
  37   2.0000      -0.663050       -18.0425
  38   2.0000      -0.632971       -17.2240
  39   2.0000      -0.618999       -16.8438
  40   2.0000      -0.595263       -16.1979
  41   2.0000      -0.569393       -15.4940
  42   2.0000      -0.566100       -15.4044
  43   2.0000      -0.546654       -14.8752
  44   2.0000      -0.541961       -14.7475
  45   2.0000      -0.525806       -14.3079
  46   2.0000      -0.522582       -14.2202
  47   2.0000      -0.513996       -13.9865
  48   2.0000      -0.503418       -13.6987
  49   2.0000      -0.501062       -13.6346
  50   2.0000      -0.495471       -13.4825
  51   2.0000      -0.484479       -13.1833
  52   2.0000      -0.469591       -12.7782
  53   2.0000      -0.467021       -12.7083
  54   2.0000      -0.457727       -12.4554
  55   2.0000      -0.451237       -12.2788
  56   2.0000      -0.446935       -12.1617
  57   2.0000      -0.442696       -12.0464
  58   2.0000      -0.434065       -11.8115
  59   2.0000      -0.422786       -11.5046
  60   2.0000      -0.418835       -11.3971
  61   2.0000      -0.413728       -11.2581
  62   2.0000      -0.410707       -11.1759
  63   2.0000      -0.358069        -9.7436
  64   2.0000      -0.332402        -9.0451
  65   2.0000      -0.329261        -8.9597
  66   2.0000      -0.285167        -7.7598
  67   0.0000       0.019955         0.5430
  68   0.0000       0.085746         2.3333
  69   0.0000       0.101635         2.7656
  70   0.0000       0.119986         3.2650
  71   0.0000       0.132591         3.6080

MULLIKEN ATOMIC CHARGES
-----------------------
   0 S :    0.105853
   1 C :   -0.122205
   2 C :   -0.057435
   3 C :   -0.003212
   4 C :   -0.122076
   5 H :   -0.014261
   6 C :    0.006384
   7 H :    0.049508
   8 H :    0.022433
   9 C :   -0.046352
  10 H :    0.032875
  11 H :    0.043895
  12 C :   -0.063066
  13 H :    0.029548
  14 H :    0.046539
  15 H :    0.028570
  16 S :    0.096995
  17 C :   -0.076119
  18 C :   -0.055188
  19 C :   -0.066244
  20 C :   -0.112488
  21 H :    0.045083
  22 C :    0.074034
  23 H :    0.006318
  24 H :    0.029767
  25 C :   -0.053325
  26 H :    0.021393
  27 H :    0.019007
  28 C :   -0.022842
  29 H :    0.020332
  30 H :    0.025383
  31 H :    0.033570
  32 H :    0.036704
  33 H :    0.040622
Sum of atomic charges:    0.0000000

LOEWDIN ATOMIC CHARGES
----------------------
   0 S :    0.396740
   1 C :   -0.192546
   2 C :   -0.070905
   3 C :   -0.066926
   4 C :   -0.186067
   5 H :    0.023778
   6 C :   -0.040644
   7 H :    0.039457
   8 H :    0.034542
   9 C :   -0.036525
  10 H :    0.024771
  11 H :    0.030433
  12 C :   -0.070352
  13 H :    0.025190
  14 H :    0.028925
  15 H :    0.028320
  16 S :    0.390227
  17 C :   -0.173657
  18 C :   -0.076078
  19 C :   -0.056983
  20 C :   -0.190350
  21 H :    0.045919
  22 C :   -0.040785
  23 H :    0.031136
  24 H :    0.032373
  25 C :   -0.033334
  26 H :    0.014244
  27 H :    0.025373
  28 C :   -0.054432
  29 H :    0.016628
  30 H :    0.020002
  31 H :    0.030857
  32 H :    0.028642
  33 H :    0.022025

  Mayer bond orders larger than 0.100000
B(  0-S ,  1-C ) :   1.1042 B(  0-S ,  4-C ) :   1.1550 B(  1-C ,  2-C ) :   1.6273
B(  1-C , 32-H ) :   0.9658 B(  2-C ,  3-C ) :   1.2277 B(  2-C ,  6-C ) :   1.0212
B(  3-C ,  4-C ) :   1.5349 B(  3-C ,  5-H ) :   0.9937 B(  4-C , 20-C ) :   1.0942
B(  6-C ,  7-H ) :   0.9405 B(  6-C ,  8-H ) :   0.9386 B(  6-C ,  9-C ) :   1.0582
B(  9-C , 10-H ) :   0.9560 B(  9-C , 11-H ) :   0.9547 B(  9-C , 12-C ) :   1.0823
B( 12-C , 13-H ) :   0.9726 B( 12-C , 14-H ) :   0.9733 B( 12-C , 15-H ) :   0.9732
B( 16-S , 17-C ) :   1.1418 B( 16-S , 20-C ) :   1.1209 B( 17-C , 18-C ) :   1.6341
B( 17-C , 33-H ) :   0.9713 B( 18-C , 19-C ) :   1.2293 B( 18-C , 21-H ) :   0.9784
B( 19-C , 20-C ) :   1.5793 B( 19-C , 22-C ) :   1.0686 B( 22-C , 23-H ) :   0.9204
B( 22-C , 24-H ) :   0.9172 B( 22-C , 25-C ) :   1.0568 B( 25-C , 26-H ) :   0.9512
B( 25-C , 27-H ) :   0.9484 B( 25-C , 28-C ) :   1.0850 B( 28-C , 29-H ) :   0.9754
B( 28-C , 30-H ) :   0.9779 B( 28-C , 31-H ) :   0.9740

Dispersion correction           -0.014373908
FINAL SINGLE POINT ENERGY     -1339.876220440957

DIPOLE MOMENT
-------------
                                X             Y             Z
Electronic contribution:     -0.34635      29.82635       0.09996
Nuclear contribution   :      0.16376     -30.53082      -0.32441
                        -----------------------------------------
Total Dipole Moment    :     -0.18259      -0.70447      -0.22444
                        -----------------------------------------
Magnitude (a.u.)       :      0.76157
Magnitude (Debye)      :      1.93575

Rotational constants in cm-1:     0.016801     0.009764     0.006773
Rotational constants in MHz :   503.689510   292.721468   203.055419

                             ****ORCA TERMINATED NORMALLY****
TOTAL RUN TIME: 0 days 0 hours 0 minutes 22 seconds 84 msec
