                         Program Version 4.2.1 -  RELEASE  -
|  1> ! wB97X-D3 SP def2-SVP
|  2> %pal
|  3> nprocs 24
|  4> end
|  5>
|  6> * xyz 0 1
|  7> S 	 -42.7387 	 -9.12271 	 5.12981
|  8> C 	 -41.3721 	 -9.48066 	 4.13121
|  9> C 	 -40.3057 	 -9.72317 	 4.9237
| 10> C 	 -40.5544 	 -9.54955 	 6.31157
| 11> C 	 -41.8303 	 -9.11624 	 6.57117
| 12> H 	 -39.9324 	 -9.66579 	 7.12787
| 13> C 	 -38.9917 	 -10.2342 	 4.39879
| 14> H 	 -39.2588 	 -11.2198 	 3.98952
| 15> H 	 -38.3481 	 -10.29 	 5.28478
| 16> C 	 -38.285 	 -9.37364 	 3.24895
| 17> H 	 -37.4848 	 -10.0114 	 2.81229
| 18> H 	 -38.9787 	 -9.11593 	 2.45796
| 19> C 	 -37.591 	 -8.19257 	 3.83412
| 20> H 	 -37.0392 	 -7.65513 	 3.10432
| 21> H 	 -38.2875 	 -7.40185 	 4.2323
| 22> H 	 -37.0057 	 -8.56335 	 4.66032
| 23> S 	 -43.4745 	 -9.57619 	 8.80644
| 24> C 	 -43.4394 	 -8.53549 	 10.2187
| 25> C 	 -42.6333 	 -7.508 	 9.90408
| 26> C 	 -42.0305 	 -7.50438 	 8.59275
| 27> C 	 -42.3294 	 -8.64896 	 7.89109
| 28> H 	 -42.5289 	 -6.73069 	 10.622
| 29> C 	 -41.0947 	 -6.39703 	 8.11921
| 30> H 	 -40.7279 	 -6.60755 	 7.11269
| 31> H 	 -40.2493 	 -6.27926 	 8.90159
| 32> C 	 -41.8273 	 -5.00653 	 8.05214
| 33> H 	 -42.2816 	 -4.81397 	 9.03977
| 34> H 	 -42.6136 	 -5.08282 	 7.36879
| 35> C 	 -40.9098 	 -3.70413 	 7.84665
| 36> H 	 -40.6146 	 -3.69182 	 6.81433
| 37> H 	 -40.0686 	 -3.59236 	 8.50652
| 38> H 	 -41.4892 	 -2.75817 	 7.87056
| 39> H 	 -41.53 	 -9.68815 	 3.08681
| 40> H 	 -44.1175 	 -8.64156 	 11.075
| 41> *
| 42>
| 43>                          ****END OF INPUT****

CARTESIAN COORDINATES (ANGSTROEM)
---------------------------------
  S    -42.738700   -9.122710    5.129810
  C    -41.372100   -9.480660    4.131210
  C    -40.305700   -9.723170    4.923700
  C    -40.554400   -9.549550    6.311570
  C    -41.830300   -9.116240    6.571170
  H    -39.932400   -9.665790    7.127870
  C    -38.991700  -10.234200    4.398790
  H    -39.258800  -11.219800    3.989520
  H    -38.348100  -10.290000    5.284780
  C    -38.285000   -9.373640    3.248950
  H    -37.484800  -10.011400    2.812290
  H    -38.978700   -9.115930    2.457960
  C    -37.591000   -8.192570    3.834120
  H    -37.039200   -7.655130    3.104320
  H    -38.287500   -7.401850    4.232300
  H    -37.005700   -8.563350    4.660320
  S    -43.474500   -9.576190    8.806440
  C    -43.439400   -8.535490   10.218700
  C    -42.633300   -7.508000    9.904080
  C    -42.030500   -7.504380    8.592750
  C    -42.329400   -8.648960    7.891090
  H    -42.528900   -6.730690   10.622000
  C    -41.094700   -6.397030    8.119210
  H    -40.727900   -6.607550    7.112690
  H    -40.249300   -6.279260    8.901590
  C    -41.827300   -5.006530    8.052140
  H    -42.281600   -4.813970    9.039770
  H    -42.613600   -5.082820    7.368790
  C    -40.909800   -3.704130    7.846650
  H    -40.614600   -3.691820    6.814330
  H    -40.068600   -3.592360    8.506520
  H    -41.489200   -2.758170    7.870560
  H    -41.530000   -9.688150    3.086810
  H    -44.117500   -8.641560   11.075000

 Total Charge           Charge          ....    0
 Multiplicity           Mult            ....    1
 Number of Electrons    NEL             ....  134
 Basis Dimension        Dim             ....  322

ORBITAL ENERGIES
----------------

  NO   OCC          E(Eh)            E(eV)
   0   2.0000     -88.961650     -2420.7696
   1   2.0000     -88.957718     -2420.6626
   2   2.0000     -10.327650      -281.0297
   3   2.0000     -10.326259      -280.9918
   4   2.0000     -10.317927      -280.7651
   5   2.0000     -10.308282      -280.5026
   6   2.0000     -10.303943      -280.3845
   7   2.0000     -10.299963      -280.2762
   8   2.0000     -10.296775      -280.1895
   9   2.0000     -10.294177      -280.1188
  10   2.0000     -10.290555      -280.0202
  11   2.0000     -10.289503      -279.9916
  12   2.0000     -10.287468      -279.9362
  13   2.0000     -10.286874      -279.9201
  14   2.0000     -10.279965      -279.7321
  15   2.0000     -10.273058      -279.5441
  16   2.0000      -8.077915      -219.8112
  17   2.0000      -8.073209      -219.6832
  18   2.0000      -6.036272      -164.2553
  19   2.0000      -6.032093      -164.1416
  20   2.0000      -6.031777      -164.1330
  21   2.0000      -6.028852      -164.0534
  22   2.0000      -6.027454      -164.0154
  23   2.0000      -6.023987      -163.9210
  24   2.0000      -1.014511       -27.6063
  25   2.0000      -0.993662       -27.0389
  26   2.0000      -0.911434       -24.8014
  27   2.0000      -0.896984       -24.4082
  28   2.0000      -0.873701       -23.7746
  29   2.0000      -0.853740       -23.2314
  30   2.0000      -0.839052       -22.8318
  31   2.0000      -0.823324       -22.4038
  32   2.0000      -0.778675       -21.1888
  33   2.0000      -0.770746       -20.9731
  34   2.0000      -0.705375       -19.1942
  35   2.0000      -0.701106       -19.0781
  36   2.0000      -0.695462       -18.9245
  37   2.0000      -0.657935       -17.9033
  38   2.0000      -0.653655       -17.7869
  39   2.0000      -0.610752       -16.6194
  40   2.0000      -0.594763       -16.1843
  41   2.0000      -0.579801       -15.7772
  42   2.0000      -0.561611       -15.2822
  43   2.0000      -0.555949       -15.1281
  44   2.0000      -0.540599       -14.7104
  45   2.0000      -0.526924       -14.3383
  46   2.0000      -0.520247       -14.1566
  47   2.0000      -0.513770       -13.9804
  48   2.0000      -0.503834       -13.7100
  49   2.0000      -0.501032       -13.6338
  50   2.0000      -0.488478       -13.2922
  51   2.0000      -0.482172       -13.1206
  52   2.0000      -0.471967       -12.8429
  53   2.0000      -0.467959       -12.7338
  54   2.0000      -0.463821       -12.6212
  55   2.0000      -0.444919       -12.1069
  56   2.0000      -0.442751       -12.0479
  57   2.0000      -0.437992       -11.9184
  58   2.0000      -0.436184       -11.8692
  59   2.0000      -0.422556       -11.4983
  60   2.0000      -0.414850       -11.2886
  61   2.0000      -0.411963       -11.2101
  62   2.0000      -0.405828       -11.0431
  63   2.0000      -0.338954        -9.2234
  64   2.0000      -0.329932        -8.9779
  65   2.0000      -0.323545        -8.8041
  66   2.0000      -0.311966        -8.4890
  67   0.0000       0.043954         1.1961
  68   0.0000       0.064611         1.7582
  69   0.0000       0.121011         3.2929
  70   0.0000       0.127161         3.4602
  71   0.0000       0.134723         3.6660

MULLIKEN ATOMIC CHARGES
-----------------------
   0 S :    0.114495
   1 C :   -0.140940
   2 C :   -0.069532
   3 C :    0.070465
   4 C :   -0.174648
   5 H :   -0.019187
   6 C :    0.045950
   7 H :    0.045782
   8 H :    0.021382
   9 C :   -0.068264
  10 H :    0.033870
  11 H :    0.029315
  12 C :   -0.040501
  13 H :    0.027526
  14 H :    0.037040
  15 H :    0.026447
  16 S :    0.085284
  17 C :   -0.095857
  18 C :   -0.025102
  19 C :   -0.014356
  20 C :   -0.173473
  21 H :    0.007456
  22 C :    0.068310
  23 H :    0.037840
  24 H :    0.044076
  25 C :   -0.097505
  26 H :    0.027199
  27 H :    0.024141
  28 C :   -0.046671
  29 H :    0.023520
  30 H :    0.037417
  31 H :    0.032845
  32 H :    0.052691
  33 H :    0.072986
Sum of atomic charges:   -0.0000000

LOEWDIN ATOMIC CHARGES
----------------------
   0 S :    0.433275
   1 C :   -0.201959
   2 C :   -0.070404
   3 C :   -0.054497
   4 C :   -0.207446
   5 H :    0.021627
   6 C :   -0.028646
   7 H :    0.036820
   8 H :    0.027798
   9 C :   -0.036950
  10 H :    0.028836
  11 H :    0.019953
  12 C :   -0.066483
  13 H :    0.020754
  14 H :    0.030826
  15 H :    0.023804
  16 S :    0.398221
  17 C :   -0.181142
  18 C :   -0.072250
  19 C :   -0.059687
  20 C :   -0.204028
  21 H :    0.024009
  22 C :   -0.030141
  23 H :    0.030069
  24 H :    0.040146
  25 C :   -0.033968
  26 H :    0.021139
  27 H :    0.016239
  28 C :   -0.069358
  29 H :    0.021117
  30 H :    0.022507
  31 H :    0.031568
  32 H :    0.027628
  33 H :    0.040622

  Mayer bond orders larger than 0.100000
B(  0-S ,  1-C ) :   1.1484 B(  0-S ,  4-C ) :   1.1877 B(  1-C ,  2-C ) :   1.5826
B(  1-C , 32-H ) :   0.9785 B(  2-C ,  3-C ) :   1.2425 B(  2-C ,  6-C ) :   1.0069
B(  3-C ,  4-C ) :   1.5634 B(  3-C ,  5-H ) :   1.0157 B(  4-C , 20-C ) :   0.9874
B(  6-C ,  7-H ) :   0.9373 B(  6-C ,  8-H ) :   0.9485 B(  6-C ,  9-C ) :   1.0709
B(  9-C , 10-H ) :   0.9546 B(  9-C , 11-H ) :   0.9568 B(  9-C , 12-C ) :   1.0801
B( 12-C , 13-H ) :   0.9716 B( 12-C , 14-H ) :   0.9742 B( 12-C , 15-H ) :   0.9741
B( 16-S , 17-C ) :   1.1434 B( 16-S , 20-C ) :   1.1524 B( 17-C , 18-C ) :   1.6203
B( 17-C , 33-H ) :   0.9683 B( 18-C , 19-C ) :   1.2234 B( 18-C , 21-H ) :   0.9922
B( 19-C , 20-C ) :   1.6082 B( 19-C , 22-C ) :   1.0504 B( 22-C , 23-H ) :   0.9342
B( 22-C , 24-H ) :   0.9400 B( 22-C , 25-C ) :   1.0473 B( 25-C , 26-H ) :   0.9642
B( 25-C , 27-H ) :   0.9595 B( 25-C , 28-C ) :   1.0710 B( 28-C , 29-H ) :   0.9767
B( 28-C , 30-H ) :   0.9777 B( 28-C , 31-H ) :   0.9754

Dispersion correction           -0.014003840
FINAL SINGLE POINT ENERGY     -1339.877445526907

DIPOLE MOMENT
-------------
                                X             Y             Z
Electronic contribution:    -21.51926     -16.99002       6.99526
Nuclear contribution   :     21.99218      17.29073      -7.05416
                        -----------------------------------------
Total Dipole Moment    :      0.47292       0.30071      -0.05890
                        -----------------------------------------
Magnitude (a.u.)       :      0.56352
Magnitude (Debye)      :      1.43236

Rotational constants in cm-1:     0.017576     0.008672     0.006677
Rotational constants in MHz :   526.909667   259.991651   200.180151

                             ****ORCA TERMINATED NORMALLY****
TOTAL RUN TIME: 0 days 0 hours 0 minutes 21 seconds 296 msec
