                         Program Version 4.2.1 -  RELEASE  -
|  1> ! wB97X-D3 SP def2-SVP
|  2> %pal
|  3> nprocs 24
|  4> end
|  5>
|  6> * xyz 0 1
|  7> S 	 -114.7 	 21.5909 	 -116.362
|  8> C 	 -116.386 	 21.3265 	 -116.701
|  9> C 	 -117.178 	 21.7152 	 -115.586
| 10> C 	 -116.411 	 22.2393 	 -114.519
| 11> C 	 -115.063 	 22.2023 	 -114.768
| 12> H 	 -116.839 	 22.5238 	 -113.545
| 13> C 	 -118.64 	 21.6524 	 -115.53
| 14> H 	 -119.026 	 21.3244 	 -116.426
| 15> H 	 -118.926 	 22.6485 	 -115.434
| 16> C 	 -119.169 	 20.8045 	 -114.406
| 17> H 	 -118.777 	 19.8384 	 -114.532
| 18> H 	 -118.672 	 21.1586 	 -113.516
| 19> C 	 -120.717 	 20.8961 	 -114.247
| 20> H 	 -121.2 	 21.908 	 -114.139
| 21> H 	 -121.168 	 20.6625 	 -115.242
| 22> H 	 -121.138 	 20.2508 	 -113.564
| 23> S 	 -112.954 	 23.8516 	 -114.183
| 24> C 	 -111.989 	 23.5733 	 -112.754
| 25> C 	 -112.683 	 22.6638 	 -111.928
| 26> C 	 -113.855 	 22.0995 	 -112.458
| 27> C 	 -114.082 	 22.5632 	 -113.708
| 28> H 	 -112.347 	 22.4173 	 -110.96
| 29> C 	 -114.565 	 20.9826 	 -111.712
| 30> H 	 -115.633 	 21.0982 	 -111.907
| 31> H 	 -114.262 	 21.0832 	 -110.651
| 32> C 	 -114.104 	 19.5735 	 -111.949
| 33> H 	 -114.68 	 18.9011 	 -111.347
| 34> H 	 -113.128 	 19.4262 	 -111.674
| 35> C 	 -114.17 	 19.2384 	 -113.463
| 36> H 	 -115.176 	 19.4388 	 -113.914
| 37> H 	 -113.889 	 18.2223 	 -113.661
| 38> H 	 -113.473 	 19.8231 	 -114.033
| 39> H 	 -116.906 	 20.8741 	 -117.606
| 40> H 	 -111.045 	 24.0998 	 -112.537
| 41> *
| 42>
| 43>                          ****END OF INPUT****

CARTESIAN COORDINATES (ANGSTROEM)
---------------------------------
  S    -114.700000   21.590900  -116.362000
  C    -116.386000   21.326500  -116.701000
  C    -117.178000   21.715200  -115.586000
  C    -116.411000   22.239300  -114.519000
  C    -115.063000   22.202300  -114.768000
  H    -116.839000   22.523800  -113.545000
  C    -118.640000   21.652400  -115.530000
  H    -119.026000   21.324400  -116.426000
  H    -118.926000   22.648500  -115.434000
  C    -119.169000   20.804500  -114.406000
  H    -118.777000   19.838400  -114.532000
  H    -118.672000   21.158600  -113.516000
  C    -120.717000   20.896100  -114.247000
  H    -121.200000   21.908000  -114.139000
  H    -121.168000   20.662500  -115.242000
  H    -121.138000   20.250800  -113.564000
  S    -112.954000   23.851600  -114.183000
  C    -111.989000   23.573300  -112.754000
  C    -112.683000   22.663800  -111.928000
  C    -113.855000   22.099500  -112.458000
  C    -114.082000   22.563200  -113.708000
  H    -112.347000   22.417300  -110.960000
  C    -114.565000   20.982600  -111.712000
  H    -115.633000   21.098200  -111.907000
  H    -114.262000   21.083200  -110.651000
  C    -114.104000   19.573500  -111.949000
  H    -114.680000   18.901100  -111.347000
  H    -113.128000   19.426200  -111.674000
  C    -114.170000   19.238400  -113.463000
  H    -115.176000   19.438800  -113.914000
  H    -113.889000   18.222300  -113.661000
  H    -113.473000   19.823100  -114.033000
  H    -116.906000   20.874100  -117.606000
  H    -111.045000   24.099800  -112.537000

 Total Charge           Charge          ....    0
 Multiplicity           Mult            ....    1
 Number of Electrons    NEL             ....  134
 Basis Dimension        Dim             ....  322

ORBITAL ENERGIES
----------------

  NO   OCC          E(Eh)            E(eV)
   0   2.0000     -88.972987     -2421.0781
   1   2.0000     -88.962946     -2420.8048
   2   2.0000     -10.328709      -281.0585
   3   2.0000     -10.325574      -280.9732
   4   2.0000     -10.321569      -280.8642
   5   2.0000     -10.320905      -280.8461
   6   2.0000     -10.297616      -280.2124
   7   2.0000     -10.297423      -280.2071
   8   2.0000     -10.292215      -280.0654
   9   2.0000     -10.291800      -280.0541
  10   2.0000     -10.290419      -280.0165
  11   2.0000     -10.284109      -279.8448
  12   2.0000     -10.282474      -279.8003
  13   2.0000     -10.274997      -279.5969
  14   2.0000     -10.273664      -279.5606
  15   2.0000     -10.265513      -279.3388
  16   2.0000      -8.086994      -220.0583
  17   2.0000      -8.077522      -219.8005
  18   2.0000      -6.045552      -164.5078
  19   2.0000      -6.041512      -164.3979
  20   2.0000      -6.037821      -164.2975
  21   2.0000      -6.035932      -164.2461
  22   2.0000      -6.032049      -164.1404
  23   2.0000      -6.028405      -164.0412
  24   2.0000      -1.007223       -27.4079
  25   2.0000      -0.986120       -26.8337
  26   2.0000      -0.923334       -25.1252
  27   2.0000      -0.914020       -24.8717
  28   2.0000      -0.863057       -23.4850
  29   2.0000      -0.852527       -23.1984
  30   2.0000      -0.846780       -23.0421
  31   2.0000      -0.810517       -22.0553
  32   2.0000      -0.783608       -21.3231
  33   2.0000      -0.773593       -21.0505
  34   2.0000      -0.717432       -19.5223
  35   2.0000      -0.703876       -19.1534
  36   2.0000      -0.692020       -18.8308
  37   2.0000      -0.667373       -18.1601
  38   2.0000      -0.636950       -17.3323
  39   2.0000      -0.624831       -17.0025
  40   2.0000      -0.596581       -16.2338
  41   2.0000      -0.571773       -15.5587
  42   2.0000      -0.559760       -15.2318
  43   2.0000      -0.549713       -14.9585
  44   2.0000      -0.546815       -14.8796
  45   2.0000      -0.530631       -14.4392
  46   2.0000      -0.518864       -14.1190
  47   2.0000      -0.514693       -14.0055
  48   2.0000      -0.501538       -13.6475
  49   2.0000      -0.495531       -13.4841
  50   2.0000      -0.493082       -13.4175
  51   2.0000      -0.481888       -13.1128
  52   2.0000      -0.470267       -12.7966
  53   2.0000      -0.464678       -12.6445
  54   2.0000      -0.457461       -12.4481
  55   2.0000      -0.450175       -12.2499
  56   2.0000      -0.448160       -12.1950
  57   2.0000      -0.442933       -12.0528
  58   2.0000      -0.434532       -11.8242
  59   2.0000      -0.425181       -11.5698
  60   2.0000      -0.418654       -11.3922
  61   2.0000      -0.416020       -11.3205
  62   2.0000      -0.411152       -11.1880
  63   2.0000      -0.341762        -9.2998
  64   2.0000      -0.334352        -9.0982
  65   2.0000      -0.325554        -8.8588
  66   2.0000      -0.295487        -8.0406
  67   0.0000       0.032238         0.8772
  68   0.0000       0.066678         1.8144
  69   0.0000       0.110737         3.0133
  70   0.0000       0.120596         3.2816
  71   0.0000       0.128364         3.4930

MULLIKEN ATOMIC CHARGES
-----------------------
   0 S :    0.139960
   1 C :   -0.141728
   2 C :   -0.136967
   3 C :    0.016386
   4 C :   -0.138958
   5 H :    0.030659
   6 C :    0.161531
   7 H :   -0.023488
   8 H :    0.014449
   9 C :   -0.058600
  10 H :    0.018358
  11 H :    0.012931
  12 C :   -0.026392
  13 H :    0.033644
  14 H :    0.016041
  15 H :    0.026116
  16 S :    0.100500
  17 C :   -0.100605
  18 C :   -0.032176
  19 C :   -0.017248
  20 C :   -0.208806
  21 H :   -0.006869
  22 C :    0.076262
  23 H :    0.026780
  24 H :    0.020054
  25 C :    0.008635
  26 H :    0.023849
  27 H :   -0.001449
  28 C :   -0.062094
  29 H :    0.036730
  30 H :    0.020824
  31 H :    0.029552
  32 H :    0.070199
  33 H :    0.071921
Sum of atomic charges:    0.0000000

LOEWDIN ATOMIC CHARGES
----------------------
   0 S :    0.426654
   1 C :   -0.226188
   2 C :   -0.058531
   3 C :   -0.066133
   4 C :   -0.200302
   5 H :    0.035919
   6 C :   -0.023944
   7 H :    0.015375
   8 H :    0.028648
   9 C :   -0.028371
  10 H :    0.021342
  11 H :    0.018318
  12 C :   -0.066600
  13 H :    0.034255
  14 H :    0.028297
  15 H :    0.013997
  16 S :    0.395788
  17 C :   -0.190558
  18 C :   -0.065114
  19 C :   -0.063706
  20 C :   -0.181886
  21 H :    0.019144
  22 C :   -0.025685
  23 H :    0.029386
  24 H :    0.037093
  25 C :   -0.026378
  26 H :    0.023671
  27 H :    0.012609
  28 C :   -0.065692
  29 H :    0.027687
  30 H :    0.019045
  31 H :    0.019123
  32 H :    0.046772
  33 H :    0.035967

  Mayer bond orders larger than 0.100000
B(  0-S ,  1-C ) :   1.1345 B(  0-S ,  4-C ) :   1.1655 B(  1-C ,  2-C ) :   1.5859
B(  1-C , 32-H ) :   0.9566 B(  2-C ,  3-C ) :   1.2553 B(  2-C ,  6-C ) :   1.0410
B(  3-C ,  4-C ) :   1.5571 B(  3-C ,  5-H ) :   0.9880 B(  4-C , 20-C ) :   1.0049
B(  6-C ,  7-H ) :   0.9229 B(  6-C ,  8-H ) :   0.9260 B(  6-C ,  9-C ) :   1.0574
B(  9-C , 10-H ) :   0.9540 B(  9-C , 11-H ) :   0.9576 B(  9-C , 12-C ) :   1.0727
B( 12-C , 13-H ) :   0.9747 B( 12-C , 14-H ) :   0.9706 B( 12-C , 15-H ) :   0.9778
B( 16-S , 17-C ) :   1.1551 B( 16-S , 20-C ) :   1.1535 B( 17-C , 18-C ) :   1.5776
B( 17-C , 20-C ) :   0.1048 B( 17-C , 33-H ) :   0.9692 B( 18-C , 19-C ) :   1.2530
B( 18-C , 21-H ) :   0.9912 B( 19-C , 20-C ) :   1.6086 B( 19-C , 22-C ) :   1.0415
B( 22-C , 23-H ) :   0.9313 B( 22-C , 24-H ) :   0.9239 B( 22-C , 25-C ) :   1.0911
B( 25-C , 26-H ) :   0.9521 B( 25-C , 27-H ) :   0.9461 B( 25-C , 28-C ) :   1.0812
B( 28-C , 29-H ) :   0.9745 B( 28-C , 30-H ) :   0.9729 B( 28-C , 31-H ) :   0.9697

Dispersion correction           -0.016002612
FINAL SINGLE POINT ENERGY     -1339.866215417151

DIPOLE MOMENT
-------------
                                X             Y             Z
Electronic contribution:     20.31759      15.26230      -9.70925
Nuclear contribution   :    -20.72748     -15.59827      10.08856
                        -----------------------------------------
Total Dipole Moment    :     -0.40989      -0.33597       0.37931
                        -----------------------------------------
Magnitude (a.u.)       :      0.65174
Magnitude (Debye)      :      1.65658

Rotational constants in cm-1:     0.020670     0.008885     0.007705
Rotational constants in MHz :   619.667966   266.365104   230.979625

                             ****ORCA TERMINATED NORMALLY****
TOTAL RUN TIME: 0 days 0 hours 0 minutes 23 seconds 198 msec
