                         Program Version 4.2.1 -  RELEASE  -
|  1> ! wB97X-D3 SP def2-SVP
|  2> %pal
|  3> nprocs 24
|  4> end
|  5>
|  6> * xyz 0 1
|  7> S 	 -121.771 	 53.5474 	 -32.5668
|  8> C 	 -121.33 	 52.6163 	 -34.0318
|  9> C 	 -120.229 	 51.9098 	 -33.7473
| 10> C 	 -119.726 	 52.0287 	 -32.424
| 11> C 	 -120.395 	 52.951 	 -31.6616
| 12> H 	 -118.845 	 51.6545 	 -31.9474
| 13> C 	 -119.434 	 51.1895 	 -34.8282
| 14> H 	 -118.39 	 51.2153 	 -34.5893
| 15> H 	 -119.563 	 51.6888 	 -35.7642
| 16> C 	 -119.797 	 49.6431 	 -34.9807
| 17> H 	 -119.744 	 49.1393 	 -34.0124
| 18> H 	 -120.839 	 49.5742 	 -35.3316
| 19> C 	 -118.81 	 48.9841 	 -36.0639
| 20> H 	 -118.843 	 47.9494 	 -36.204
| 21> H 	 -119.009 	 49.2834 	 -37.0628
| 22> H 	 -117.788 	 49.0845 	 -35.7793
| 23> S 	 -118.392 	 53.8397 	 -30.088
| 24> C 	 -118.693 	 54.1484 	 -28.4405
| 25> C 	 -120.002 	 53.9791 	 -28.0483
| 26> C 	 -120.812 	 53.5804 	 -29.1543
| 27> C 	 -120.093 	 53.3525 	 -30.3312
| 28> H 	 -120.256 	 54.1206 	 -26.9375
| 29> C 	 -122.264 	 53.3013 	 -28.9503
| 30> H 	 -122.329 	 52.7257 	 -28.013
| 31> H 	 -122.722 	 52.5883 	 -29.5517
| 32> C 	 -123.081 	 54.5945 	 -28.6195
| 33> H 	 -122.86 	 55.2383 	 -29.4571
| 34> H 	 -122.626 	 55.1047 	 -27.7145
| 35> C 	 -124.599 	 54.4616 	 -28.2891
| 36> H 	 -124.988 	 53.721 	 -27.6191
| 37> H 	 -125.085 	 54.3664 	 -29.1874
| 38> H 	 -124.823 	 55.4359 	 -27.8101
| 39> H 	 -121.8 	 52.848 	 -34.9946
| 40> H 	 -117.883 	 54.4676 	 -27.7548
| 41> *
| 42>
| 43>                          ****END OF INPUT****

CARTESIAN COORDINATES (ANGSTROEM)
---------------------------------
  S    -121.771000   53.547400  -32.566800
  C    -121.330000   52.616300  -34.031800
  C    -120.229000   51.909800  -33.747300
  C    -119.726000   52.028700  -32.424000
  C    -120.395000   52.951000  -31.661600
  H    -118.845000   51.654500  -31.947400
  C    -119.434000   51.189500  -34.828200
  H    -118.390000   51.215300  -34.589300
  H    -119.563000   51.688800  -35.764200
  C    -119.797000   49.643100  -34.980700
  H    -119.744000   49.139300  -34.012400
  H    -120.839000   49.574200  -35.331600
  C    -118.810000   48.984100  -36.063900
  H    -118.843000   47.949400  -36.204000
  H    -119.009000   49.283400  -37.062800
  H    -117.788000   49.084500  -35.779300
  S    -118.392000   53.839700  -30.088000
  C    -118.693000   54.148400  -28.440500
  C    -120.002000   53.979100  -28.048300
  C    -120.812000   53.580400  -29.154300
  C    -120.093000   53.352500  -30.331200
  H    -120.256000   54.120600  -26.937500
  C    -122.264000   53.301300  -28.950300
  H    -122.329000   52.725700  -28.013000
  H    -122.722000   52.588300  -29.551700
  C    -123.081000   54.594500  -28.619500
  H    -122.860000   55.238300  -29.457100
  H    -122.626000   55.104700  -27.714500
  C    -124.599000   54.461600  -28.289100
  H    -124.988000   53.721000  -27.619100
  H    -125.085000   54.366400  -29.187400
  H    -124.823000   55.435900  -27.810100
  H    -121.800000   52.848000  -34.994600
  H    -117.883000   54.467600  -27.754800

 Total Charge           Charge          ....    0
 Multiplicity           Mult            ....    1
 Number of Electrons    NEL             ....  134
 Basis Dimension        Dim             ....  322

ORBITAL ENERGIES
----------------

  NO   OCC          E(Eh)            E(eV)
   0   2.0000     -88.965912     -2420.8855
   1   2.0000     -88.959287     -2420.7053
   2   2.0000     -10.327484      -281.0251
   3   2.0000     -10.326862      -281.0082
   4   2.0000     -10.317579      -280.7556
   5   2.0000     -10.314630      -280.6754
   6   2.0000     -10.308244      -280.5016
   7   2.0000     -10.300615      -280.2940
   8   2.0000     -10.298711      -280.2422
   9   2.0000     -10.295490      -280.1545
  10   2.0000     -10.290735      -280.0251
  11   2.0000     -10.288960      -279.9768
  12   2.0000     -10.288388      -279.9613
  13   2.0000     -10.282793      -279.8090
  14   2.0000     -10.272492      -279.5287
  15   2.0000     -10.271295      -279.4961
  16   2.0000      -8.081178      -219.9000
  17   2.0000      -8.073736      -219.6975
  18   2.0000      -6.039543      -164.3443
  19   2.0000      -6.035657      -164.2386
  20   2.0000      -6.032375      -164.1493
  21   2.0000      -6.032010      -164.1393
  22   2.0000      -6.028226      -164.0364
  23   2.0000      -6.024427      -163.9330
  24   2.0000      -1.009982       -27.4830
  25   2.0000      -0.986922       -26.8555
  26   2.0000      -0.906157       -24.6578
  27   2.0000      -0.902678       -24.5631
  28   2.0000      -0.871270       -23.7085
  29   2.0000      -0.851823       -23.1793
  30   2.0000      -0.840407       -22.8686
  31   2.0000      -0.814424       -22.1616
  32   2.0000      -0.787862       -21.4388
  33   2.0000      -0.773265       -21.0416
  34   2.0000      -0.709633       -19.3101
  35   2.0000      -0.704742       -19.1770
  36   2.0000      -0.696119       -18.9424
  37   2.0000      -0.665372       -18.1057
  38   2.0000      -0.639561       -17.4033
  39   2.0000      -0.616054       -16.7637
  40   2.0000      -0.600308       -16.3352
  41   2.0000      -0.567215       -15.4347
  42   2.0000      -0.558521       -15.1981
  43   2.0000      -0.555259       -15.1094
  44   2.0000      -0.529240       -14.4013
  45   2.0000      -0.524020       -14.2593
  46   2.0000      -0.512945       -13.9580
  47   2.0000      -0.510722       -13.8974
  48   2.0000      -0.508337       -13.8326
  49   2.0000      -0.500214       -13.6115
  50   2.0000      -0.490605       -13.3500
  51   2.0000      -0.479146       -13.0382
  52   2.0000      -0.474303       -12.9064
  53   2.0000      -0.465888       -12.6774
  54   2.0000      -0.456499       -12.4220
  55   2.0000      -0.453196       -12.3321
  56   2.0000      -0.443643       -12.0721
  57   2.0000      -0.434677       -11.8282
  58   2.0000      -0.433874       -11.8063
  59   2.0000      -0.426655       -11.6099
  60   2.0000      -0.419278       -11.4091
  61   2.0000      -0.408968       -11.1286
  62   2.0000      -0.407830       -11.0976
  63   2.0000      -0.351577        -9.5669
  64   2.0000      -0.331394        -9.0177
  65   2.0000      -0.327715        -8.9176
  66   2.0000      -0.291913        -7.9434
  67   0.0000       0.029021         0.7897
  68   0.0000       0.073224         1.9925
  69   0.0000       0.110519         3.0074
  70   0.0000       0.111199         3.0259
  71   0.0000       0.125041         3.4025

MULLIKEN ATOMIC CHARGES
-----------------------
   0 S :    0.082877
   1 C :   -0.144732
   2 C :   -0.028174
   3 C :    0.023447
   4 C :   -0.133581
   5 H :    0.002329
   6 C :    0.063160
   7 H :    0.017514
   8 H :    0.018795
   9 C :   -0.080647
  10 H :    0.038339
  11 H :    0.032875
  12 C :   -0.020910
  13 H :    0.009502
  14 H :    0.022848
  15 H :    0.022561
  16 S :    0.105732
  17 C :   -0.103974
  18 C :   -0.061535
  19 C :   -0.016139
  20 C :   -0.167258
  21 H :    0.054759
  22 C :    0.089667
  23 H :    0.011000
  24 H :    0.008870
  25 C :   -0.129122
  26 H :    0.032823
  27 H :    0.033146
  28 C :   -0.004553
  29 H :    0.030892
  30 H :    0.023727
  31 H :    0.033832
  32 H :    0.063907
  33 H :    0.068025
Sum of atomic charges:    0.0000000

LOEWDIN ATOMIC CHARGES
----------------------
   0 S :    0.376677
   1 C :   -0.181029
   2 C :   -0.065374
   3 C :   -0.069834
   4 C :   -0.187377
   5 H :    0.025933
   6 C :   -0.021877
   7 H :    0.025233
   8 H :    0.025108
   9 C :   -0.028404
  10 H :    0.024168
  11 H :    0.023416
  12 C :   -0.068516
  13 H :    0.019855
  14 H :    0.022945
  15 H :    0.022612
  16 S :    0.415348
  17 C :   -0.199315
  18 C :   -0.082578
  19 C :   -0.048498
  20 C :   -0.189888
  21 H :    0.050867
  22 C :   -0.040741
  23 H :    0.035219
  24 H :    0.018531
  25 C :   -0.035676
  26 H :    0.022031
  27 H :    0.026022
  28 C :   -0.060450
  29 H :    0.024173
  30 H :    0.015598
  31 H :    0.035197
  32 H :    0.035945
  33 H :    0.034678

  Mayer bond orders larger than 0.100000
B(  0-S ,  1-C ) :   1.1109 B(  0-S ,  4-C ) :   1.1348 B(  1-C ,  2-C ) :   1.6315
B(  1-C , 32-H ) :   0.9734 B(  2-C ,  3-C ) :   1.1993 B(  2-C ,  6-C ) :   1.0170
B(  3-C ,  4-C ) :   1.5858 B(  3-C ,  5-H ) :   0.9998 B(  4-C , 20-C ) :   1.0657
B(  6-C ,  7-H ) :   0.9481 B(  6-C ,  8-H ) :   0.9504 B(  6-C ,  9-C ) :   1.0475
B(  9-C , 10-H ) :   0.9635 B(  9-C , 11-H ) :   0.9620 B(  9-C , 12-C ) :   1.0648
B( 12-C , 13-H ) :   0.9732 B( 12-C , 14-H ) :   0.9769 B( 12-C , 15-H ) :   0.9766
B( 16-S , 17-C ) :   1.1712 B( 16-S , 20-C ) :   1.1286 B( 17-C , 18-C ) :   1.6173
B( 17-C , 33-H ) :   0.9585 B( 18-C , 19-C ) :   1.2240 B( 18-C , 21-H ) :   0.9773
B( 19-C , 20-C ) :   1.5812 B( 19-C , 22-C ) :   1.0575 B( 22-C , 23-H ) :   0.9249
B( 22-C , 24-H ) :   0.9456 B( 22-C , 25-C ) :   1.0282 B( 25-C , 26-H ) :   0.9598
B( 25-C , 27-H ) :   0.9663 B( 25-C , 28-C ) :   1.0666 B( 28-C , 29-H ) :   0.9773
B( 28-C , 30-H ) :   0.9766 B( 28-C , 31-H ) :   0.9756

Dispersion correction           -0.013597720
FINAL SINGLE POINT ENERGY     -1339.859638131980

DIPOLE MOMENT
-------------
                                X             Y             Z
Electronic contribution:      8.20980      10.60039       4.38229
Nuclear contribution   :     -8.17530     -10.79002      -4.28446
                        -----------------------------------------
Total Dipole Moment    :      0.03450      -0.18964       0.09783
                        -----------------------------------------
Magnitude (a.u.)       :      0.21616
Magnitude (Debye)      :      0.54942

Rotational constants in cm-1:     0.022293     0.007083     0.005830
Rotational constants in MHz :   668.336209   212.328111   174.777293

                             ****ORCA TERMINATED NORMALLY****
TOTAL RUN TIME: 0 days 0 hours 0 minutes 20 seconds 613 msec
