                         Program Version 4.2.1 -  RELEASE  -
|  1> ! wB97X-D3 SP def2-SVP
|  2> %pal
|  3> nprocs 24
|  4> end
|  5>
|  6> * xyz 0 1
|  7> S 	 -105.413 	 66.0994 	 -12.9913
|  8> C 	 -104.452 	 67.5337 	 -12.8027
|  9> C 	 -103.191 	 67.2821 	 -12.3654
| 10> C 	 -103.085 	 65.8948 	 -12.0038
| 11> C 	 -104.257 	 65.1722 	 -12.1125
| 12> H 	 -102.178 	 65.5036 	 -11.5891
| 13> C 	 -101.975 	 68.2174 	 -12.1896
| 14> H 	 -102.295 	 69.1993 	 -12.5943
| 15> H 	 -101.09 	 67.9145 	 -12.6937
| 16> C 	 -101.598 	 68.5421 	 -10.6808
| 17> H 	 -102.46 	 68.7955 	 -10.1277
| 18> H 	 -101.437 	 67.7162 	 -10.0807
| 19> C 	 -100.576 	 69.6425 	 -10.5453
| 20> H 	 -100.257 	 69.7975 	 -9.5684
| 21> H 	 -99.7972 	 69.6257 	 -11.2824
| 22> H 	 -100.95 	 70.611 	 -10.7675
| 23> S 	 -105.079 	 62.6903 	 -12.9168
| 24> C 	 -105.048 	 61.3366 	 -11.7797
| 25> C 	 -104.347 	 61.7179 	 -10.6591
| 26> C 	 -104.069 	 63.1288 	 -10.6009
| 27> C 	 -104.534 	 63.8177 	 -11.6875
| 28> H 	 -103.876 	 61.0478 	 -9.96945
| 29> C 	 -103.354 	 63.8206 	 -9.404
| 30> H 	 -103.12 	 64.7963 	 -9.63918
| 31> H 	 -102.374 	 63.4071 	 -9.13438
| 32> C 	 -104.14 	 63.7969 	 -8.05557
| 33> H 	 -103.64 	 64.4519 	 -7.38093
| 34> H 	 -104.23 	 62.8077 	 -7.61993
| 35> C 	 -105.569 	 64.482 	 -8.21972
| 36> H 	 -105.532 	 65.4917 	 -8.58902
| 37> H 	 -106.186 	 64.5198 	 -7.37095
| 38> H 	 -106.243 	 63.9847 	 -8.84062
| 39> H 	 -104.739 	 68.5029 	 -13.2191
| 40> H 	 -105.059 	 60.2924 	 -12.0478
| 41> *
| 42>
| 43>                          ****END OF INPUT****

CARTESIAN COORDINATES (ANGSTROEM)
---------------------------------
  S    -105.413000   66.099400  -12.991300
  C    -104.452000   67.533700  -12.802700
  C    -103.191000   67.282100  -12.365400
  C    -103.085000   65.894800  -12.003800
  C    -104.257000   65.172200  -12.112500
  H    -102.178000   65.503600  -11.589100
  C    -101.975000   68.217400  -12.189600
  H    -102.295000   69.199300  -12.594300
  H    -101.090000   67.914500  -12.693700
  C    -101.598000   68.542100  -10.680800
  H    -102.460000   68.795500  -10.127700
  H    -101.437000   67.716200  -10.080700
  C    -100.576000   69.642500  -10.545300
  H    -100.257000   69.797500   -9.568400
  H    -99.797200   69.625700  -11.282400
  H    -100.950000   70.611000  -10.767500
  S    -105.079000   62.690300  -12.916800
  C    -105.048000   61.336600  -11.779700
  C    -104.347000   61.717900  -10.659100
  C    -104.069000   63.128800  -10.600900
  C    -104.534000   63.817700  -11.687500
  H    -103.876000   61.047800   -9.969450
  C    -103.354000   63.820600   -9.404000
  H    -103.120000   64.796300   -9.639180
  H    -102.374000   63.407100   -9.134380
  C    -104.140000   63.796900   -8.055570
  H    -103.640000   64.451900   -7.380930
  H    -104.230000   62.807700   -7.619930
  C    -105.569000   64.482000   -8.219720
  H    -105.532000   65.491700   -8.589020
  H    -106.186000   64.519800   -7.370950
  H    -106.243000   63.984700   -8.840620
  H    -104.739000   68.502900  -13.219100
  H    -105.059000   60.292400  -12.047800

 Total Charge           Charge          ....    0
 Multiplicity           Mult            ....    1
 Number of Electrons    NEL             ....  134
 Basis Dimension        Dim             ....  322

ORBITAL ENERGIES
----------------

  NO   OCC          E(Eh)            E(eV)
   0   2.0000     -88.965588     -2420.8767
   1   2.0000     -88.964423     -2420.8450
   2   2.0000     -10.327541      -281.0267
   3   2.0000     -10.325541      -280.9723
   4   2.0000     -10.318336      -280.7762
   5   2.0000     -10.313350      -280.6405
   6   2.0000     -10.304117      -280.3893
   7   2.0000     -10.302273      -280.3391
   8   2.0000     -10.301915      -280.3294
   9   2.0000     -10.295393      -280.1519
  10   2.0000     -10.291791      -280.0539
  11   2.0000     -10.289570      -279.9934
  12   2.0000     -10.288063      -279.9524
  13   2.0000     -10.280184      -279.7380
  14   2.0000     -10.269670      -279.4519
  15   2.0000     -10.259634      -279.1788
  16   2.0000      -8.081312      -219.9037
  17   2.0000      -8.079020      -219.8413
  18   2.0000      -6.039800      -164.3513
  19   2.0000      -6.037709      -164.2944
  20   2.0000      -6.035805      -164.2426
  21   2.0000      -6.033722      -164.1859
  22   2.0000      -6.031904      -164.1365
  23   2.0000      -6.029401      -164.0683
  24   2.0000      -1.012739       -27.5580
  25   2.0000      -0.987643       -26.8751
  26   2.0000      -0.911099       -24.7923
  27   2.0000      -0.899690       -24.4818
  28   2.0000      -0.876031       -23.8380
  29   2.0000      -0.852515       -23.1981
  30   2.0000      -0.839051       -22.8317
  31   2.0000      -0.814448       -22.1623
  32   2.0000      -0.787785       -21.4367
  33   2.0000      -0.780582       -21.2407
  34   2.0000      -0.723354       -19.6835
  35   2.0000      -0.707032       -19.2393
  36   2.0000      -0.699751       -19.0412
  37   2.0000      -0.663383       -18.0516
  38   2.0000      -0.641737       -17.4626
  39   2.0000      -0.625642       -17.0246
  40   2.0000      -0.597216       -16.2511
  41   2.0000      -0.573087       -15.5945
  42   2.0000      -0.554710       -15.0944
  43   2.0000      -0.548206       -14.9174
  44   2.0000      -0.540601       -14.7105
  45   2.0000      -0.530473       -14.4349
  46   2.0000      -0.517494       -14.0817
  47   2.0000      -0.508642       -13.8408
  48   2.0000      -0.503887       -13.7115
  49   2.0000      -0.496010       -13.4971
  50   2.0000      -0.492028       -13.3888
  51   2.0000      -0.479515       -13.0483
  52   2.0000      -0.475504       -12.9391
  53   2.0000      -0.468849       -12.7580
  54   2.0000      -0.462610       -12.5883
  55   2.0000      -0.448262       -12.1978
  56   2.0000      -0.443868       -12.0783
  57   2.0000      -0.439142       -11.9497
  58   2.0000      -0.434584       -11.8256
  59   2.0000      -0.430494       -11.7143
  60   2.0000      -0.425039       -11.5659
  61   2.0000      -0.414943       -11.2912
  62   2.0000      -0.408523       -11.1165
  63   2.0000      -0.352904        -9.6030
  64   2.0000      -0.331074        -9.0090
  65   2.0000      -0.327787        -8.9195
  66   2.0000      -0.295166        -8.0319
  67   0.0000       0.026322         0.7163
  68   0.0000       0.069010         1.8779
  69   0.0000       0.096620         2.6292
  70   0.0000       0.121505         3.3063
  71   0.0000       0.133874         3.6429

MULLIKEN ATOMIC CHARGES
-----------------------
   0 S :    0.117376
   1 C :   -0.123531
   2 C :   -0.087092
   3 C :    0.035450
   4 C :   -0.171611
   5 H :    0.005335
   6 C :    0.070716
   7 H :    0.018627
   8 H :    0.037984
   9 C :   -0.032567
  10 H :    0.002632
  11 H :   -0.002936
  12 C :    0.012951
  13 H :    0.018117
  14 H :    0.015914
  15 H :    0.004092
  16 S :    0.085718
  17 C :   -0.064367
  18 C :   -0.038187
  19 C :   -0.064049
  20 C :   -0.101735
  21 H :    0.018121
  22 C :    0.105140
  23 H :   -0.014761
  24 H :    0.025352
  25 C :   -0.058136
  26 H :    0.025028
  27 H :    0.035623
  28 C :   -0.034961
  29 H :    0.023935
  30 H :    0.008303
  31 H :    0.017401
  32 H :    0.045933
  33 H :    0.064186
Sum of atomic charges:    0.0000000

LOEWDIN ATOMIC CHARGES
----------------------
   0 S :    0.420763
   1 C :   -0.197457
   2 C :   -0.065453
   3 C :   -0.057092
   4 C :   -0.202136
   5 H :    0.024685
   6 C :   -0.017796
   7 H :    0.031975
   8 H :    0.027614
   9 C :   -0.040109
  10 H :    0.024283
  11 H :    0.012656
  12 C :   -0.059305
  13 H :    0.022500
  14 H :    0.023658
  15 H :    0.023671
  16 S :    0.393281
  17 C :   -0.183080
  18 C :   -0.061372
  19 C :   -0.052440
  20 C :   -0.193339
  21 H :    0.029027
  22 C :   -0.023919
  23 H :    0.013617
  24 H :    0.032840
  25 C :   -0.025532
  26 H :    0.021735
  27 H :    0.021437
  28 C :   -0.068152
  29 H :    0.025220
  30 H :    0.018638
  31 H :    0.018292
  32 H :    0.028640
  33 H :    0.032652

  Mayer bond orders larger than 0.100000
B(  0-S ,  1-C ) :   1.1391 B(  0-S ,  4-C ) :   1.1550 B(  1-C ,  2-C ) :   1.6380
B(  1-C , 32-H ) :   0.9613 B(  2-C ,  3-C ) :   1.2362 B(  2-C ,  6-C ) :   1.0230
B(  3-C ,  4-C ) :   1.5630 B(  3-C ,  5-H ) :   0.9984 B(  4-C , 20-C ) :   1.0309
B(  6-C ,  7-H ) :   0.9448 B(  6-C ,  8-H ) :   0.9468 B(  6-C ,  9-C ) :   1.0460
B(  9-C , 10-H ) :   0.9419 B(  9-C , 11-H ) :   0.9549 B(  9-C , 12-C ) :   1.0875
B( 12-C , 13-H ) :   0.9690 B( 12-C , 14-H ) :   0.9734 B( 12-C , 15-H ) :   0.9672
B( 16-S , 17-C ) :   1.1360 B( 16-S , 20-C ) :   1.1431 B( 17-C , 18-C ) :   1.6183
B( 17-C , 33-H ) :   0.9643 B( 18-C , 19-C ) :   1.2422 B( 18-C , 21-H ) :   0.9869
B( 19-C , 20-C ) :   1.6162 B( 19-C , 22-C ) :   1.0406 B( 22-C , 23-H ) :   0.9300
B( 22-C , 24-H ) :   0.9355 B( 22-C , 25-C ) :   1.0773 B( 25-C , 26-H ) :   0.9573
B( 25-C , 27-H ) :   0.9614 B( 25-C , 28-C ) :   1.0643 B( 28-C , 29-H ) :   0.9770
B( 28-C , 30-H ) :   0.9741 B( 28-C , 31-H ) :   0.9731

Dispersion correction           -0.014664284
FINAL SINGLE POINT ENERGY     -1339.848817697526

DIPOLE MOMENT
-------------
                                X             Y             Z
Electronic contribution:    -14.45454     -14.95410     -20.85664
Nuclear contribution   :     15.14978      15.17602      21.29084
                        -----------------------------------------
Total Dipole Moment    :      0.69525       0.22192       0.43420
                        -----------------------------------------
Magnitude (a.u.)       :      0.84920
Magnitude (Debye)      :      2.15850

Rotational constants in cm-1:     0.019357     0.008719     0.006994
Rotational constants in MHz :   580.306451   261.382928   209.661053

                             ****ORCA TERMINATED NORMALLY****
TOTAL RUN TIME: 0 days 0 hours 0 minutes 22 seconds 161 msec
