                         Program Version 4.2.1 -  RELEASE  -
|  1> ! wB97X-D3 SP def2-SVP
|  2> %pal
|  3> nprocs 24
|  4> end
|  5>
|  6> * xyz 0 1
|  7> S 	 -93.7807 	 -26.8015 	 -66.7038
|  8> C 	 -95.5759 	 -26.6747 	 -66.7355
|  9> C 	 -96.184 	 -27.125 	 -65.5306
| 10> C 	 -95.1751 	 -27.73 	 -64.7182
| 11> C 	 -93.8789 	 -27.6975 	 -65.1941
| 12> H 	 -95.2352 	 -28.2591 	 -63.7872
| 13> C 	 -97.6128 	 -27.0318 	 -65.1549
| 14> H 	 -97.7703 	 -27.8681 	 -64.45
| 15> H 	 -98.2081 	 -27.0156 	 -66.0549
| 16> C 	 -97.9101 	 -25.7734 	 -64.359
| 17> H 	 -97.5415 	 -24.8014 	 -64.8307
| 18> H 	 -98.9789 	 -25.6085 	 -64.3438
| 19> C 	 -97.2469 	 -25.718 	 -62.9397
| 20> H 	 -97.5077 	 -24.7307 	 -62.603
| 21> H 	 -97.6755 	 -26.5278 	 -62.3331
| 22> H 	 -96.1516 	 -25.8877 	 -62.8928
| 23> S 	 -92.4366 	 -30.0293 	 -64.996
| 24> C 	 -90.9927 	 -30.1657 	 -63.9938
| 25> C 	 -90.9304 	 -29.055 	 -63.194
| 26> C 	 -91.8596 	 -28.0161 	 -63.5457
| 27> C 	 -92.7181 	 -28.3796 	 -64.5853
| 28> H 	 -90.1589 	 -28.9835 	 -62.3962
| 29> C 	 -91.947 	 -26.6765 	 -62.7962
| 30> H 	 -91.3415 	 -26.669 	 -61.8911
| 31> H 	 -92.9941 	 -26.6293 	 -62.387
| 32> C 	 -91.7131 	 -25.4284 	 -63.6561
| 33> H 	 -92.6178 	 -25.1801 	 -64.1582
| 34> H 	 -90.9407 	 -25.7169 	 -64.4036
| 35> C 	 -91.134 	 -24.153 	 -62.9943
| 36> H 	 -90.1131 	 -24.2706 	 -62.5681
| 37> H 	 -91.7158 	 -23.9112 	 -62.1444
| 38> H 	 -91.199 	 -23.2218 	 -63.5171
| 39> H 	 -96.1032 	 -26.0422 	 -67.4624
| 40> H 	 -90.5464 	 -31.121 	 -63.8132
| 41> *
| 42>
| 43>                          ****END OF INPUT****

CARTESIAN COORDINATES (ANGSTROEM)
---------------------------------
  S    -93.780700  -26.801500  -66.703800
  C    -95.575900  -26.674700  -66.735500
  C    -96.184000  -27.125000  -65.530600
  C    -95.175100  -27.730000  -64.718200
  C    -93.878900  -27.697500  -65.194100
  H    -95.235200  -28.259100  -63.787200
  C    -97.612800  -27.031800  -65.154900
  H    -97.770300  -27.868100  -64.450000
  H    -98.208100  -27.015600  -66.054900
  C    -97.910100  -25.773400  -64.359000
  H    -97.541500  -24.801400  -64.830700
  H    -98.978900  -25.608500  -64.343800
  C    -97.246900  -25.718000  -62.939700
  H    -97.507700  -24.730700  -62.603000
  H    -97.675500  -26.527800  -62.333100
  H    -96.151600  -25.887700  -62.892800
  S    -92.436600  -30.029300  -64.996000
  C    -90.992700  -30.165700  -63.993800
  C    -90.930400  -29.055000  -63.194000
  C    -91.859600  -28.016100  -63.545700
  C    -92.718100  -28.379600  -64.585300
  H    -90.158900  -28.983500  -62.396200
  C    -91.947000  -26.676500  -62.796200
  H    -91.341500  -26.669000  -61.891100
  H    -92.994100  -26.629300  -62.387000
  C    -91.713100  -25.428400  -63.656100
  H    -92.617800  -25.180100  -64.158200
  H    -90.940700  -25.716900  -64.403600
  C    -91.134000  -24.153000  -62.994300
  H    -90.113100  -24.270600  -62.568100
  H    -91.715800  -23.911200  -62.144400
  H    -91.199000  -23.221800  -63.517100
  H    -96.103200  -26.042200  -67.462400
  H    -90.546400  -31.121000  -63.813200

 Total Charge           Charge          ....    0
 Multiplicity           Mult            ....    1
 Number of Electrons    NEL             ....  134
 Basis Dimension        Dim             ....  322

ORBITAL ENERGIES
----------------

  NO   OCC          E(Eh)            E(eV)
   0   2.0000     -88.968966     -2420.9686
   1   2.0000     -88.961429     -2420.7636
   2   2.0000     -10.330438      -281.1055
   3   2.0000     -10.326485      -280.9980
   4   2.0000     -10.323239      -280.9096
   5   2.0000     -10.316759      -280.7333
   6   2.0000     -10.308259      -280.5020
   7   2.0000     -10.306901      -280.4650
   8   2.0000     -10.298925      -280.2480
   9   2.0000     -10.295142      -280.1451
  10   2.0000     -10.294787      -280.1354
  11   2.0000     -10.294346      -280.1234
  12   2.0000     -10.293068      -280.0886
  13   2.0000     -10.282478      -279.8004
  14   2.0000     -10.282065      -279.7892
  15   2.0000     -10.272170      -279.5200
  16   2.0000      -8.082347      -219.9318
  17   2.0000      -8.076707      -219.7784
  18   2.0000      -6.040837      -164.3795
  19   2.0000      -6.037102      -164.2779
  20   2.0000      -6.035127      -164.2242
  21   2.0000      -6.033136      -164.1700
  22   2.0000      -6.031057      -164.1134
  23   2.0000      -6.027582      -164.0188
  24   2.0000      -1.004460       -27.3328
  25   2.0000      -0.981069       -26.6962
  26   2.0000      -0.917693       -24.9717
  27   2.0000      -0.901489       -24.5308
  28   2.0000      -0.865963       -23.5640
  29   2.0000      -0.845023       -22.9943
  30   2.0000      -0.844100       -22.9691
  31   2.0000      -0.816031       -22.2053
  32   2.0000      -0.785040       -21.3620
  33   2.0000      -0.772506       -21.0209
  34   2.0000      -0.704288       -19.1647
  35   2.0000      -0.702936       -19.1279
  36   2.0000      -0.689213       -18.7544
  37   2.0000      -0.660060       -17.9611
  38   2.0000      -0.643728       -17.5167
  39   2.0000      -0.611876       -16.6500
  40   2.0000      -0.592216       -16.1150
  41   2.0000      -0.574880       -15.6433
  42   2.0000      -0.561639       -15.2830
  43   2.0000      -0.556835       -15.1522
  44   2.0000      -0.539501       -14.6806
  45   2.0000      -0.524276       -14.2663
  46   2.0000      -0.519771       -14.1437
  47   2.0000      -0.511719       -13.9246
  48   2.0000      -0.502156       -13.6644
  49   2.0000      -0.492896       -13.4124
  50   2.0000      -0.488991       -13.3061
  51   2.0000      -0.478727       -13.0268
  52   2.0000      -0.471233       -12.8229
  53   2.0000      -0.463987       -12.6257
  54   2.0000      -0.459039       -12.4911
  55   2.0000      -0.451272       -12.2797
  56   2.0000      -0.442140       -12.0313
  57   2.0000      -0.435782       -11.8582
  58   2.0000      -0.435278       -11.8445
  59   2.0000      -0.426310       -11.6005
  60   2.0000      -0.418475       -11.3873
  61   2.0000      -0.409639       -11.1468
  62   2.0000      -0.405623       -11.0376
  63   2.0000      -0.337445        -9.1823
  64   2.0000      -0.329311        -8.9610
  65   2.0000      -0.316569        -8.6143
  66   2.0000      -0.312648        -8.5076
  67   0.0000       0.040503         1.1021
  68   0.0000       0.047080         1.2811
  69   0.0000       0.109142         2.9699
  70   0.0000       0.114963         3.1283
  71   0.0000       0.121876         3.3164

MULLIKEN ATOMIC CHARGES
-----------------------
   0 S :    0.117436
   1 C :   -0.128549
   2 C :   -0.092396
   3 C :    0.054371
   4 C :   -0.199759
   5 H :    0.002919
   6 C :    0.121246
   7 H :    0.032267
   8 H :    0.027704
   9 C :   -0.105575
  10 H :    0.028252
  11 H :    0.031907
  12 C :   -0.068876
  13 H :    0.038280
  14 H :    0.029299
  15 H :    0.053715
  16 S :    0.104036
  17 C :   -0.090717
  18 C :   -0.047208
  19 C :   -0.041699
  20 C :   -0.172174
  21 H :    0.033838
  22 C :    0.086476
  23 H :    0.010773
  24 H :    0.033356
  25 C :   -0.079759
  26 H :    0.035611
  27 H :    0.040949
  28 C :   -0.040790
  29 H :    0.032517
  30 H :    0.004450
  31 H :    0.030307
  32 H :    0.056267
  33 H :    0.061525
Sum of atomic charges:   -0.0000000

LOEWDIN ATOMIC CHARGES
----------------------
   0 S :    0.392782
   1 C :   -0.186967
   2 C :   -0.055099
   3 C :   -0.061643
   4 C :   -0.199019
   5 H :    0.029258
   6 C :   -0.031972
   7 H :    0.038804
   8 H :    0.034999
   9 C :   -0.043129
  10 H :    0.028040
  11 H :    0.021848
  12 C :   -0.066556
  13 H :    0.026514
  14 H :    0.022350
  15 H :    0.030002
  16 S :    0.418203
  17 C :   -0.182074
  18 C :   -0.074683
  19 C :   -0.056451
  20 C :   -0.213828
  21 H :    0.037384
  22 C :   -0.034350
  23 H :    0.025840
  24 H :    0.036951
  25 C :   -0.042218
  26 H :    0.019659
  27 H :    0.029062
  28 C :   -0.070795
  29 H :    0.028194
  30 H :    0.016549
  31 H :    0.026716
  32 H :    0.028033
  33 H :    0.027595

  Mayer bond orders larger than 0.100000
B(  0-S ,  1-C ) :   1.1427 B(  0-S ,  4-C ) :   1.1409 B(  1-C ,  2-C ) :   1.6035
B(  1-C ,  4-C ) :   0.1040 B(  1-C , 32-H ) :   0.9616 B(  2-C ,  3-C ) :   1.2138
B(  2-C ,  6-C ) :   1.0339 B(  3-C ,  4-C ) :   1.6166 B(  3-C ,  5-H ) :   0.9871
B(  4-C , 20-C ) :   1.0042 B(  6-C ,  7-H ) :   0.9370 B(  6-C ,  8-H ) :   0.9287
B(  6-C ,  9-C ) :   1.0732 B(  9-C , 10-H ) :   0.9570 B(  9-C , 11-H ) :   0.9574
B(  9-C , 12-C ) :   1.0639 B( 12-C , 13-H ) :   0.9755 B( 12-C , 14-H ) :   0.9759
B( 12-C , 15-H ) :   0.9727 B( 16-S , 17-C ) :   1.1635 B( 16-S , 20-C ) :   1.1680
B( 17-C , 18-C ) :   1.5884 B( 17-C , 20-C ) :   0.1008 B( 17-C , 33-H ) :   0.9695
B( 18-C , 19-C ) :   1.2717 B( 18-C , 21-H ) :   0.9821 B( 19-C , 20-C ) :   1.5708
B( 19-C , 22-C ) :   1.0415 B( 22-C , 23-H ) :   0.9411 B( 22-C , 24-H ) :   0.9284
B( 22-C , 25-C ) :   1.0440 B( 25-C , 26-H ) :   0.9524 B( 25-C , 27-H ) :   0.9672
B( 25-C , 28-C ) :   1.0881 B( 28-C , 29-H ) :   0.9750 B( 28-C , 30-H ) :   0.9700
B( 28-C , 31-H ) :   0.9746

Dispersion correction           -0.015289921
FINAL SINGLE POINT ENERGY     -1339.873170921073

DIPOLE MOMENT
-------------
                                X             Y             Z
Electronic contribution:      8.58342     -19.00326     -15.44342
Nuclear contribution   :     -8.97525      19.29177      16.01158
                        -----------------------------------------
Total Dipole Moment    :     -0.39183       0.28850       0.56815
                        -----------------------------------------
Magnitude (a.u.)       :      0.74804
Magnitude (Debye)      :      1.90137

Rotational constants in cm-1:     0.017298     0.009374     0.007768
Rotational constants in MHz :   518.594666   281.012847   232.879377

                             ****ORCA TERMINATED NORMALLY****
TOTAL RUN TIME: 0 days 0 hours 0 minutes 22 seconds 116 msec
