                         Program Version 4.2.1 -  RELEASE  -
|  1> ! wB97X-D3 SP def2-SVP
|  2> %pal
|  3> nprocs 24
|  4> end
|  5>
|  6> * xyz 0 1
|  7> S 	 -55.543 	 16.8218 	 -99.9273
|  8> C 	 -55.6792 	 18.3419 	 -100.82
|  9> C 	 -56.295 	 19.3505 	 -100.052
| 10> C 	 -56.5552 	 18.8041 	 -98.7316
| 11> C 	 -56.1228 	 17.5185 	 -98.4573
| 12> H 	 -57.0867 	 19.2712 	 -98.0033
| 13> C 	 -56.6877 	 20.7456 	 -100.52
| 14> H 	 -55.8636 	 21.0604 	 -101.182
| 15> H 	 -56.8155 	 21.3303 	 -99.6388
| 16> C 	 -58.0721 	 20.8485 	 -101.249
| 17> H 	 -57.9901 	 20.3871 	 -102.228
| 18> H 	 -58.7928 	 20.189 	 -100.753
| 19> C 	 -58.5214 	 22.3323 	 -101.37
| 20> H 	 -59.398 	 22.3977 	 -102.03
| 21> H 	 -58.8383 	 22.708 	 -100.387
| 22> H 	 -57.7004 	 22.9215 	 -101.65
| 23> S 	 -56.7674 	 15.1257 	 -97.2532
| 24> C 	 -56.8714 	 15.0452 	 -95.5059
| 25> C 	 -56.7549 	 16.3278 	 -94.9931
| 26> C 	 -56.3582 	 17.3453 	 -95.875
| 27> C 	 -56.2342 	 16.821 	 -97.1421
| 28> H 	 -56.8633 	 16.4874 	 -93.9634
| 29> C 	 -56.073 	 18.7152 	 -95.3307
| 30> H 	 -55.4135 	 19.3846 	 -95.9382
| 31> H 	 -55.4942 	 18.5384 	 -94.3719
| 32> C 	 -57.4334 	 19.4045 	 -95.0289
| 33> H 	 -58.0899 	 18.8788 	 -94.3691
| 34> H 	 -57.8915 	 19.5396 	 -96.0056
| 35> C 	 -57.3203 	 20.8554 	 -94.6028
| 36> H 	 -57.1729 	 21.4765 	 -95.442
| 37> H 	 -56.5187 	 20.9239 	 -93.9187
| 38> H 	 -58.2319 	 21.2979 	 -94.0493
| 39> H 	 -55.4799 	 18.4279 	 -101.876
| 40> H 	 -57.3037 	 14.2661 	 -94.9651
| 41> *
| 42>
| 43>                          ****END OF INPUT****

CARTESIAN COORDINATES (ANGSTROEM)
---------------------------------
  S    -55.543000   16.821800  -99.927300
  C    -55.679200   18.341900  -100.820000
  C    -56.295000   19.350500  -100.052000
  C    -56.555200   18.804100  -98.731600
  C    -56.122800   17.518500  -98.457300
  H    -57.086700   19.271200  -98.003300
  C    -56.687700   20.745600  -100.520000
  H    -55.863600   21.060400  -101.182000
  H    -56.815500   21.330300  -99.638800
  C    -58.072100   20.848500  -101.249000
  H    -57.990100   20.387100  -102.228000
  H    -58.792800   20.189000  -100.753000
  C    -58.521400   22.332300  -101.370000
  H    -59.398000   22.397700  -102.030000
  H    -58.838300   22.708000  -100.387000
  H    -57.700400   22.921500  -101.650000
  S    -56.767400   15.125700  -97.253200
  C    -56.871400   15.045200  -95.505900
  C    -56.754900   16.327800  -94.993100
  C    -56.358200   17.345300  -95.875000
  C    -56.234200   16.821000  -97.142100
  H    -56.863300   16.487400  -93.963400
  C    -56.073000   18.715200  -95.330700
  H    -55.413500   19.384600  -95.938200
  H    -55.494200   18.538400  -94.371900
  C    -57.433400   19.404500  -95.028900
  H    -58.089900   18.878800  -94.369100
  H    -57.891500   19.539600  -96.005600
  C    -57.320300   20.855400  -94.602800
  H    -57.172900   21.476500  -95.442000
  H    -56.518700   20.923900  -93.918700
  H    -58.231900   21.297900  -94.049300
  H    -55.479900   18.427900  -101.876000
  H    -57.303700   14.266100  -94.965100

 Total Charge           Charge          ....    0
 Multiplicity           Mult            ....    1
 Number of Electrons    NEL             ....  134
 Basis Dimension        Dim             ....  322

ORBITAL ENERGIES
----------------

  NO   OCC          E(Eh)            E(eV)
   0   2.0000     -88.966691     -2420.9068
   1   2.0000     -88.965201     -2420.8662
   2   2.0000     -10.333174      -281.1800
   3   2.0000     -10.328891      -281.0634
   4   2.0000     -10.315927      -280.7106
   5   2.0000     -10.314450      -280.6705
   6   2.0000     -10.306951      -280.4664
   7   2.0000     -10.306065      -280.4423
   8   2.0000     -10.303269      -280.3662
   9   2.0000     -10.296972      -280.1948
  10   2.0000     -10.289961      -280.0041
  11   2.0000     -10.289070      -279.9798
  12   2.0000     -10.287335      -279.9326
  13   2.0000     -10.285463      -279.8817
  14   2.0000     -10.281013      -279.7606
  15   2.0000     -10.276890      -279.6484
  16   2.0000      -8.081046      -219.8964
  17   2.0000      -8.079832      -219.8634
  18   2.0000      -6.039577      -164.3452
  19   2.0000      -6.038395      -164.3131
  20   2.0000      -6.035742      -164.2409
  21   2.0000      -6.034326      -164.2023
  22   2.0000      -6.031680      -164.1304
  23   2.0000      -6.030578      -164.1004
  24   2.0000      -1.005842       -27.3704
  25   2.0000      -0.982938       -26.7471
  26   2.0000      -0.916022       -24.9262
  27   2.0000      -0.908627       -24.7250
  28   2.0000      -0.865355       -23.5475
  29   2.0000      -0.859465       -23.3872
  30   2.0000      -0.844782       -22.9877
  31   2.0000      -0.812939       -22.1212
  32   2.0000      -0.783466       -21.3192
  33   2.0000      -0.774552       -21.0766
  34   2.0000      -0.706033       -19.2121
  35   2.0000      -0.702744       -19.1226
  36   2.0000      -0.696534       -18.9537
  37   2.0000      -0.669501       -18.2181
  38   2.0000      -0.643863       -17.5204
  39   2.0000      -0.619562       -16.8591
  40   2.0000      -0.601976       -16.3806
  41   2.0000      -0.576317       -15.6824
  42   2.0000      -0.569964       -15.5095
  43   2.0000      -0.559095       -15.2138
  44   2.0000      -0.530986       -14.4489
  45   2.0000      -0.528112       -14.3707
  46   2.0000      -0.515693       -14.0327
  47   2.0000      -0.513175       -13.9642
  48   2.0000      -0.507766       -13.8170
  49   2.0000      -0.499668       -13.5967
  50   2.0000      -0.494666       -13.4605
  51   2.0000      -0.480330       -13.0705
  52   2.0000      -0.473184       -12.8760
  53   2.0000      -0.465331       -12.6623
  54   2.0000      -0.459769       -12.5109
  55   2.0000      -0.452616       -12.3163
  56   2.0000      -0.443096       -12.0572
  57   2.0000      -0.440722       -11.9927
  58   2.0000      -0.434871       -11.8335
  59   2.0000      -0.428970       -11.6729
  60   2.0000      -0.423307       -11.5188
  61   2.0000      -0.418510       -11.3882
  62   2.0000      -0.417102       -11.3499
  63   2.0000      -0.352091        -9.5809
  64   2.0000      -0.333254        -9.0683
  65   2.0000      -0.326126        -8.8743
  66   2.0000      -0.287497        -7.8232
  67   0.0000       0.023586         0.6418
  68   0.0000       0.075279         2.0484
  69   0.0000       0.100176         2.7259
  70   0.0000       0.119623         3.2551
  71   0.0000       0.127128         3.4593

MULLIKEN ATOMIC CHARGES
-----------------------
   0 S :    0.102623
   1 C :   -0.127336
   2 C :   -0.091720
   3 C :    0.052336
   4 C :   -0.120602
   5 H :   -0.079264
   6 C :    0.076647
   7 H :    0.043054
   8 H :    0.013771
   9 C :   -0.086250
  10 H :    0.022651
  11 H :    0.033512
  12 C :   -0.027532
  13 H :    0.044368
  14 H :    0.028305
  15 H :    0.027796
  16 S :    0.086269
  17 C :   -0.048502
  18 C :   -0.042444
  19 C :   -0.021082
  20 C :   -0.117134
  21 H :   -0.002393
  22 C :    0.021645
  23 H :    0.044109
  24 H :    0.042070
  25 C :   -0.077758
  26 H :    0.033136
  27 H :    0.029539
  28 C :   -0.031249
  29 H :    0.023857
  30 H :    0.016541
  31 H :    0.042635
  32 H :    0.046548
  33 H :    0.041857
Sum of atomic charges:    0.0000000

LOEWDIN ATOMIC CHARGES
----------------------
   0 S :    0.404975
   1 C :   -0.195077
   2 C :   -0.055787
   3 C :   -0.063566
   4 C :   -0.199654
   5 H :    0.004053
   6 C :   -0.028753
   7 H :    0.038004
   8 H :    0.025618
   9 C :   -0.038711
  10 H :    0.019855
  11 H :    0.025245
  12 C :   -0.059698
  13 H :    0.031595
  14 H :    0.025838
  15 H :    0.019173
  16 S :    0.391395
  17 C :   -0.175522
  18 C :   -0.057444
  19 C :   -0.059079
  20 C :   -0.174703
  21 H :    0.020018
  22 C :   -0.031029
  23 H :    0.036858
  24 H :    0.037865
  25 C :   -0.038339
  26 H :    0.021941
  27 H :    0.024330
  28 C :   -0.064289
  29 H :    0.017586
  30 H :    0.015073
  31 H :    0.037653
  32 H :    0.024771
  33 H :    0.019804

  Mayer bond orders larger than 0.100000
B(  0-S ,  1-C ) :   1.1468 B(  0-S ,  4-C ) :   1.1496 B(  1-C ,  2-C ) :   1.5858
B(  1-C , 32-H ) :   0.9707 B(  2-C ,  3-C ) :   1.2532 B(  2-C ,  6-C ) :   1.0294
B(  3-C ,  4-C ) :   1.5683 B(  3-C ,  5-H ) :   1.0039 B(  4-C , 20-C ) :   1.0226
B(  6-C ,  7-H ) :   0.9361 B(  6-C ,  8-H ) :   0.9406 B(  6-C ,  9-C ) :   1.0581
B(  9-C , 10-H ) :   0.9557 B(  9-C , 11-H ) :   0.9599 B(  9-C , 12-C ) :   1.0728
B( 12-C , 13-H ) :   0.9748 B( 12-C , 14-H ) :   0.9758 B( 12-C , 15-H ) :   0.9745
B( 16-S , 17-C ) :   1.1407 B( 16-S , 20-C ) :   1.1460 B( 17-C , 18-C ) :   1.6130
B( 17-C , 33-H ) :   0.9732 B( 18-C , 19-C ) :   1.2498 B( 18-C , 21-H ) :   0.9889
B( 19-C , 20-C ) :   1.6060 B( 19-C , 22-C ) :   1.0318 B( 22-C , 23-H ) :   0.9454
B( 22-C , 24-H ) :   0.9316 B( 22-C , 25-C ) :   1.0511 B( 25-C , 26-H ) :   0.9580
B( 25-C , 27-H ) :   0.9600 B( 25-C , 28-C ) :   1.0785 B( 28-C , 29-H ) :   0.9789
B( 28-C , 30-H ) :   0.9712 B( 28-C , 31-H ) :   0.9739

Dispersion correction           -0.013877912
FINAL SINGLE POINT ENERGY     -1339.866643846228

DIPOLE MOMENT
-------------
                                X             Y             Z
Electronic contribution:     10.01499     -30.59490      -3.23826
Nuclear contribution   :    -10.43221      31.29737       3.51396
                        -----------------------------------------
Total Dipole Moment    :     -0.41722       0.70247       0.27570
                        -----------------------------------------
Magnitude (a.u.)       :      0.86229
Magnitude (Debye)      :      2.19176

Rotational constants in cm-1:     0.017021     0.008933     0.006354
Rotational constants in MHz :   510.267222   267.812128   190.473556

                             ****ORCA TERMINATED NORMALLY****
TOTAL RUN TIME: 0 days 0 hours 0 minutes 20 seconds 391 msec
