                         Program Version 4.2.1 -  RELEASE  -
|  1> ! wB97X-D3 SP def2-SVP
|  2> %pal
|  3> nprocs 24
|  4> end
|  5>
|  6> * xyz 0 1
|  7> S 	 -69.1748 	 11.5472 	 -73.9394
|  8> C 	 -70.4992 	 10.9784 	 -72.8768
|  9> C 	 -69.9219 	 10.5759 	 -71.6644
| 10> C 	 -68.5757 	 11.0978 	 -71.5165
| 11> C 	 -68.0165 	 11.6337 	 -72.6686
| 12> H 	 -67.9917 	 11.0418 	 -70.6104
| 13> C 	 -70.746 	 10.0044 	 -70.4347
| 14> H 	 -71.7708 	 9.76726 	 -70.8349
| 15> H 	 -70.8884 	 10.8747 	 -69.7594
| 16> C 	 -69.9927 	 8.78642 	 -69.7827
| 17> H 	 -69.0417 	 9.07879 	 -69.5426
| 18> H 	 -70.6199 	 8.58244 	 -68.9025
| 19> C 	 -70.1306 	 7.6562 	 -70.7415
| 20> H 	 -71.1858 	 7.58554 	 -71.0303
| 21> H 	 -69.6529 	 7.89494 	 -71.6809
| 22> H 	 -69.795 	 6.70312 	 -70.381
| 23> S 	 -66.7386 	 13.6198 	 -73.9998
| 24> C 	 -65.1192 	 13.8903 	 -73.7424
| 25> C 	 -64.5285 	 13.0652 	 -72.8358
| 26> C 	 -65.4319 	 12.1109 	 -72.3388
| 27> C 	 -66.6905 	 12.2068 	 -72.8732
| 28> H 	 -63.4493 	 13.1514 	 -72.5441
| 29> C 	 -64.9095 	 11.1502 	 -71.2468
| 30> H 	 -65.8286 	 11.0006 	 -70.6301
| 31> H 	 -64.1156 	 11.6311 	 -70.7086
| 32> C 	 -64.5572 	 9.75015 	 -71.7584
| 33> H 	 -63.5162 	 9.69496 	 -72.0635
| 34> H 	 -65.2431 	 9.46298 	 -72.5831
| 35> C 	 -64.8171 	 8.72567 	 -70.6179
| 36> H 	 -64.3903 	 8.9949 	 -69.6763
| 37> H 	 -64.3252 	 7.70058 	 -70.8685
| 38> H 	 -65.8194 	 8.56616 	 -70.3933
| 39> H 	 -71.5107 	 10.6606 	 -73.1423
| 40> H 	 -64.6357 	 14.7535 	 -74.1086
| 41> *
| 42>
| 43>                          ****END OF INPUT****

CARTESIAN COORDINATES (ANGSTROEM)
---------------------------------
  S    -69.174800   11.547200  -73.939400
  C    -70.499200   10.978400  -72.876800
  C    -69.921900   10.575900  -71.664400
  C    -68.575700   11.097800  -71.516500
  C    -68.016500   11.633700  -72.668600
  H    -67.991700   11.041800  -70.610400
  C    -70.746000   10.004400  -70.434700
  H    -71.770800    9.767260  -70.834900
  H    -70.888400   10.874700  -69.759400
  C    -69.992700    8.786420  -69.782700
  H    -69.041700    9.078790  -69.542600
  H    -70.619900    8.582440  -68.902500
  C    -70.130600    7.656200  -70.741500
  H    -71.185800    7.585540  -71.030300
  H    -69.652900    7.894940  -71.680900
  H    -69.795000    6.703120  -70.381000
  S    -66.738600   13.619800  -73.999800
  C    -65.119200   13.890300  -73.742400
  C    -64.528500   13.065200  -72.835800
  C    -65.431900   12.110900  -72.338800
  C    -66.690500   12.206800  -72.873200
  H    -63.449300   13.151400  -72.544100
  C    -64.909500   11.150200  -71.246800
  H    -65.828600   11.000600  -70.630100
  H    -64.115600   11.631100  -70.708600
  C    -64.557200    9.750150  -71.758400
  H    -63.516200    9.694960  -72.063500
  H    -65.243100    9.462980  -72.583100
  C    -64.817100    8.725670  -70.617900
  H    -64.390300    8.994900  -69.676300
  H    -64.325200    7.700580  -70.868500
  H    -65.819400    8.566160  -70.393300
  H    -71.510700   10.660600  -73.142300
  H    -64.635700   14.753500  -74.108600

 Total Charge           Charge          ....    0
 Multiplicity           Mult            ....    1
 Number of Electrons    NEL             ....  134
 Basis Dimension        Dim             ....  322

ORBITAL ENERGIES
----------------

  NO   OCC          E(Eh)            E(eV)
   0   2.0000     -88.965402     -2420.8717
   1   2.0000     -88.963903     -2420.8309
   2   2.0000     -10.332944      -281.1737
   3   2.0000     -10.330038      -281.0946
   4   2.0000     -10.318241      -280.7736
   5   2.0000     -10.307960      -280.4939
   6   2.0000     -10.307954      -280.4937
   7   2.0000     -10.304335      -280.3952
   8   2.0000     -10.304141      -280.3899
   9   2.0000     -10.296501      -280.1820
  10   2.0000     -10.293714      -280.1062
  11   2.0000     -10.291174      -280.0371
  12   2.0000     -10.290282      -280.0128
  13   2.0000     -10.284296      -279.8499
  14   2.0000     -10.277742      -279.6716
  15   2.0000     -10.270528      -279.4753
  16   2.0000      -8.080017      -219.8684
  17   2.0000      -8.079793      -219.8623
  18   2.0000      -6.038496      -164.3158
  19   2.0000      -6.038262      -164.3095
  20   2.0000      -6.034335      -164.2026
  21   2.0000      -6.034293      -164.2015
  22   2.0000      -6.030930      -164.1099
  23   2.0000      -6.030403      -164.0956
  24   2.0000      -1.012351       -27.5475
  25   2.0000      -0.985663       -26.8213
  26   2.0000      -0.913954       -24.8699
  27   2.0000      -0.911933       -24.8150
  28   2.0000      -0.870664       -23.6920
  29   2.0000      -0.856641       -23.3104
  30   2.0000      -0.837616       -22.7927
  31   2.0000      -0.810992       -22.0682
  32   2.0000      -0.782318       -21.2880
  33   2.0000      -0.771729       -20.9998
  34   2.0000      -0.712589       -19.3905
  35   2.0000      -0.701353       -19.0848
  36   2.0000      -0.692973       -18.8568
  37   2.0000      -0.665395       -18.1063
  38   2.0000      -0.636574       -17.3221
  39   2.0000      -0.619875       -16.8677
  40   2.0000      -0.597714       -16.2646
  41   2.0000      -0.573477       -15.6051
  42   2.0000      -0.568588       -15.4721
  43   2.0000      -0.555484       -15.1155
  44   2.0000      -0.541412       -14.7326
  45   2.0000      -0.521180       -14.1820
  46   2.0000      -0.514953       -14.0126
  47   2.0000      -0.507374       -13.8063
  48   2.0000      -0.502752       -13.6806
  49   2.0000      -0.497910       -13.5488
  50   2.0000      -0.494377       -13.4527
  51   2.0000      -0.484250       -13.1771
  52   2.0000      -0.472891       -12.8680
  53   2.0000      -0.468776       -12.7561
  54   2.0000      -0.456611       -12.4250
  55   2.0000      -0.448741       -12.2109
  56   2.0000      -0.442653       -12.0452
  57   2.0000      -0.439830       -11.9684
  58   2.0000      -0.435643       -11.8545
  59   2.0000      -0.433518       -11.7966
  60   2.0000      -0.426012       -11.5924
  61   2.0000      -0.410323       -11.1655
  62   2.0000      -0.403703       -10.9853
  63   2.0000      -0.356440        -9.6992
  64   2.0000      -0.335987        -9.1427
  65   2.0000      -0.326855        -8.8942
  66   2.0000      -0.286823        -7.8049
  67   0.0000       0.024133         0.6567
  68   0.0000       0.076699         2.0871
  69   0.0000       0.102283         2.7833
  70   0.0000       0.111640         3.0379
  71   0.0000       0.127431         3.4676

MULLIKEN ATOMIC CHARGES
-----------------------
   0 S :    0.098126
   1 C :   -0.115506
   2 C :   -0.113784
   3 C :   -0.008404
   4 C :   -0.101975
   5 H :    0.009245
   6 C :   -0.023020
   7 H :    0.026669
   8 H :    0.054442
   9 C :   -0.013102
  10 H :    0.013998
  11 H :    0.033850
  12 C :   -0.024816
  13 H :    0.015087
  14 H :    0.034617
  15 H :    0.031418
  16 S :    0.100895
  17 C :   -0.048361
  18 C :   -0.067146
  19 C :   -0.061639
  20 C :   -0.141862
  21 H :    0.032921
  22 C :    0.071622
  23 H :    0.013430
  24 H :    0.028023
  25 C :   -0.040456
  26 H :    0.033575
  27 H :    0.049735
  28 C :   -0.068497
  29 H :    0.019139
  30 H :    0.039866
  31 H :    0.022724
  32 H :    0.057986
  33 H :    0.041200
Sum of atomic charges:   -0.0000000

LOEWDIN ATOMIC CHARGES
----------------------
   0 S :    0.397530
   1 C :   -0.201862
   2 C :   -0.059922
   3 C :   -0.082857
   4 C :   -0.196855
   5 H :    0.022062
   6 C :   -0.027924
   7 H :    0.028777
   8 H :    0.034272
   9 C :   -0.028673
  10 H :    0.008912
  11 H :    0.030083
  12 C :   -0.060140
  13 H :    0.027321
  14 H :    0.026675
  15 H :    0.020400
  16 S :    0.423750
  17 C :   -0.194502
  18 C :   -0.086461
  19 C :   -0.051095
  20 C :   -0.184594
  21 H :    0.041024
  22 C :   -0.024535
  23 H :    0.032384
  24 H :    0.028302
  25 C :   -0.034395
  26 H :    0.024055
  27 H :    0.035229
  28 C :   -0.067356
  29 H :    0.017461
  30 H :    0.035329
  31 H :    0.013268
  32 H :    0.032871
  33 H :    0.021467

  Mayer bond orders larger than 0.100000
B(  0-S ,  1-C ) :   1.1168 B(  0-S ,  4-C ) :   1.1565 B(  1-C ,  2-C ) :   1.6146
B(  1-C , 32-H ) :   0.9626 B(  2-C ,  3-C ) :   1.2225 B(  2-C ,  6-C ) :   1.0091
B(  3-C ,  4-C ) :   1.5840 B(  3-C ,  5-H ) :   0.9871 B(  4-C , 20-C ) :   1.0445
B(  6-C ,  7-H ) :   0.9509 B(  6-C ,  8-H ) :   0.9513 B(  6-C ,  9-C ) :   1.0528
B(  9-C , 10-H ) :   0.9602 B(  9-C , 11-H ) :   0.9541 B(  9-C , 12-C ) :   1.0759
B( 12-C , 13-H ) :   0.9699 B( 12-C , 14-H ) :   0.9725 B( 12-C , 15-H ) :   0.9732
B( 16-S , 17-C ) :   1.1929 B( 16-S , 20-C ) :   1.1244 B( 17-C , 18-C ) :   1.5859
B( 17-C , 33-H ) :   0.9656 B( 18-C , 19-C ) :   1.2597 B( 18-C , 21-H ) :   0.9867
B( 19-C , 20-C ) :   1.6146 B( 19-C , 22-C ) :   1.0215 B( 22-C , 23-H ) :   0.9404
B( 22-C , 24-H ) :   0.9317 B( 22-C , 25-C ) :   1.0625 B( 25-C , 26-H ) :   0.9557
B( 25-C , 27-H ) :   0.9596 B( 25-C , 28-C ) :   1.0761 B( 28-C , 29-H ) :   0.9743
B( 28-C , 30-H ) :   0.9741 B( 28-C , 31-H ) :   0.9764

Dispersion correction           -0.014477235
FINAL SINGLE POINT ENERGY     -1339.863969472109

DIPOLE MOMENT
-------------
                                X             Y             Z
Electronic contribution:     -1.94035      22.92931     -20.04757
Nuclear contribution   :      2.19765     -23.15642      20.65593
                        -----------------------------------------
Total Dipole Moment    :      0.25731      -0.22711       0.60836
                        -----------------------------------------
Magnitude (a.u.)       :      0.69849
Magnitude (Debye)      :      1.77542

Rotational constants in cm-1:     0.018119     0.009896     0.006921
Rotational constants in MHz :   543.185925   296.664150   207.493534

                             ****ORCA TERMINATED NORMALLY****
TOTAL RUN TIME: 0 days 0 hours 0 minutes 22 seconds 161 msec
