                         Program Version 4.2.1 -  RELEASE  -
|  1> ! wB97X-D3 SP def2-SVP
|  2> %pal
|  3> nprocs 24
|  4> end
|  5>
|  6> * xyz 0 1
|  7> S 	 -57.714 	 16.3774 	 -99.4349
|  8> C 	 -58.772 	 16.2761 	 -100.826
|  9> C 	 -59.8382 	 15.3901 	 -100.664
| 10> C 	 -59.8905 	 14.8919 	 -99.3238
| 11> C 	 -58.7518 	 15.2536 	 -98.609
| 12> H 	 -60.5279 	 14.1996 	 -98.8464
| 13> C 	 -61.0038 	 15.2532 	 -101.579
| 14> H 	 -61.1097 	 16.0664 	 -102.25
| 15> H 	 -61.8731 	 15.1655 	 -100.974
| 16> C 	 -60.7973 	 13.9766 	 -102.543
| 17> H 	 -59.8687 	 14.1413 	 -103.066
| 18> H 	 -60.5271 	 13.1464 	 -101.883
| 19> C 	 -61.8468 	 13.6295 	 -103.533
| 20> H 	 -61.4276 	 12.9548 	 -104.278
| 21> H 	 -62.681 	 13.0953 	 -103.073
| 22> H 	 -62.1844 	 14.5598 	 -104.02
| 23> S 	 -57.9026 	 15.7442 	 -96.0773
| 24> C 	 -58.1271 	 14.4794 	 -94.8971
| 25> C 	 -58.267 	 13.2337 	 -95.4583
| 26> C 	 -58.4173 	 13.2799 	 -96.867
| 27> C 	 -58.3963 	 14.6049 	 -97.315
| 28> H 	 -58.2492 	 12.3476 	 -94.7798
| 29> C 	 -58.7321 	 12.1001 	 -97.7025
| 30> H 	 -57.9077 	 11.369 	 -97.7337
| 31> H 	 -58.6814 	 12.4498 	 -98.7477
| 32> C 	 -60.1105 	 11.4824 	 -97.5492
| 33> H 	 -60.7834 	 12.3218 	 -97.6777
| 34> H 	 -60.1204 	 11.2364 	 -96.4678
| 35> C 	 -60.3633 	 10.3114 	 -98.4296
| 36> H 	 -59.6298 	 9.56311 	 -98.1819
| 37> H 	 -60.1224 	 10.4475 	 -99.4576
| 38> H 	 -61.2392 	 9.79861 	 -98.2976
| 39> H 	 -58.6977 	 16.7829 	 -101.743
| 40> H 	 -57.9657 	 14.7186 	 -93.8434
| 41> *
| 42>
| 43>                          ****END OF INPUT****

CARTESIAN COORDINATES (ANGSTROEM)
---------------------------------
  S    -57.714000   16.377400  -99.434900
  C    -58.772000   16.276100  -100.826000
  C    -59.838200   15.390100  -100.664000
  C    -59.890500   14.891900  -99.323800
  C    -58.751800   15.253600  -98.609000
  H    -60.527900   14.199600  -98.846400
  C    -61.003800   15.253200  -101.579000
  H    -61.109700   16.066400  -102.250000
  H    -61.873100   15.165500  -100.974000
  C    -60.797300   13.976600  -102.543000
  H    -59.868700   14.141300  -103.066000
  H    -60.527100   13.146400  -101.883000
  C    -61.846800   13.629500  -103.533000
  H    -61.427600   12.954800  -104.278000
  H    -62.681000   13.095300  -103.073000
  H    -62.184400   14.559800  -104.020000
  S    -57.902600   15.744200  -96.077300
  C    -58.127100   14.479400  -94.897100
  C    -58.267000   13.233700  -95.458300
  C    -58.417300   13.279900  -96.867000
  C    -58.396300   14.604900  -97.315000
  H    -58.249200   12.347600  -94.779800
  C    -58.732100   12.100100  -97.702500
  H    -57.907700   11.369000  -97.733700
  H    -58.681400   12.449800  -98.747700
  C    -60.110500   11.482400  -97.549200
  H    -60.783400   12.321800  -97.677700
  H    -60.120400   11.236400  -96.467800
  C    -60.363300   10.311400  -98.429600
  H    -59.629800    9.563110  -98.181900
  H    -60.122400   10.447500  -99.457600
  H    -61.239200    9.798610  -98.297600
  H    -58.697700   16.782900  -101.743000
  H    -57.965700   14.718600  -93.843400

 Total Charge           Charge          ....    0
 Multiplicity           Mult            ....    1
 Number of Electrons    NEL             ....  134
 Basis Dimension        Dim             ....  322

ORBITAL ENERGIES
----------------

  NO   OCC          E(Eh)            E(eV)
   0   2.0000     -88.971542     -2421.0387
   1   2.0000     -88.962940     -2420.8047
   2   2.0000     -10.327868      -281.0356
   3   2.0000     -10.327755      -281.0325
   4   2.0000     -10.316528      -280.7270
   5   2.0000     -10.310171      -280.5540
   6   2.0000     -10.304458      -280.3986
   7   2.0000     -10.300221      -280.2833
   8   2.0000     -10.297244      -280.2022
   9   2.0000     -10.289762      -279.9987
  10   2.0000     -10.287897      -279.9479
  11   2.0000     -10.286507      -279.9101
  12   2.0000     -10.286084      -279.8986
  13   2.0000     -10.283105      -279.8175
  14   2.0000     -10.277832      -279.6740
  15   2.0000     -10.268167      -279.4110
  16   2.0000      -8.086092      -220.0337
  17   2.0000      -8.078438      -219.8255
  18   2.0000      -6.044548      -164.4805
  19   2.0000      -6.040735      -164.3768
  20   2.0000      -6.036831      -164.2705
  21   2.0000      -6.036725      -164.2676
  22   2.0000      -6.033057      -164.1678
  23   2.0000      -6.029173      -164.0621
  24   2.0000      -1.007209       -27.4076
  25   2.0000      -0.985234       -26.8096
  26   2.0000      -0.919674       -25.0256
  27   2.0000      -0.909964       -24.7614
  28   2.0000      -0.866529       -23.5794
  29   2.0000      -0.860469       -23.4146
  30   2.0000      -0.853568       -23.2268
  31   2.0000      -0.815636       -22.1946
  32   2.0000      -0.787154       -21.4196
  33   2.0000      -0.773042       -21.0356
  34   2.0000      -0.708973       -19.2921
  35   2.0000      -0.698291       -19.0015
  36   2.0000      -0.693920       -18.8825
  37   2.0000      -0.661718       -18.0063
  38   2.0000      -0.643198       -17.5023
  39   2.0000      -0.619913       -16.8687
  40   2.0000      -0.602261       -16.3884
  41   2.0000      -0.567747       -15.4492
  42   2.0000      -0.565802       -15.3963
  43   2.0000      -0.557060       -15.1584
  44   2.0000      -0.534437       -14.5428
  45   2.0000      -0.525085       -14.2883
  46   2.0000      -0.523210       -14.2373
  47   2.0000      -0.517861       -14.0917
  48   2.0000      -0.507608       -13.8127
  49   2.0000      -0.499271       -13.5858
  50   2.0000      -0.489780       -13.3276
  51   2.0000      -0.486819       -13.2470
  52   2.0000      -0.469687       -12.7808
  53   2.0000      -0.468182       -12.7399
  54   2.0000      -0.464226       -12.6322
  55   2.0000      -0.451555       -12.2874
  56   2.0000      -0.448756       -12.2113
  57   2.0000      -0.437319       -11.9000
  58   2.0000      -0.432933       -11.7807
  59   2.0000      -0.432075       -11.7574
  60   2.0000      -0.420466       -11.4415
  61   2.0000      -0.417686       -11.3658
  62   2.0000      -0.407105       -11.0779
  63   2.0000      -0.344250        -9.3675
  64   2.0000      -0.333453        -9.0737
  65   2.0000      -0.330486        -8.9930
  66   2.0000      -0.287530        -7.8241
  67   0.0000       0.029611         0.8057
  68   0.0000       0.068357         1.8601
  69   0.0000       0.100623         2.7381
  70   0.0000       0.120373         3.2755
  71   0.0000       0.126605         3.4451

MULLIKEN ATOMIC CHARGES
-----------------------
   0 S :    0.128444
   1 C :   -0.080808
   2 C :   -0.098052
   3 C :    0.041849
   4 C :   -0.124519
   5 H :   -0.017680
   6 C :    0.097619
   7 H :    0.009042
   8 H :    0.023193
   9 C :   -0.121236
  10 H :    0.017994
  11 H :    0.019312
  12 C :   -0.003123
  13 H :    0.035473
  14 H :    0.033283
  15 H :    0.029614
  16 S :    0.095147
  17 C :   -0.101028
  18 C :   -0.046887
  19 C :   -0.004054
  20 C :   -0.180650
  21 H :    0.037965
  22 C :    0.010591
  23 H :    0.026715
  24 H :    0.017958
  25 C :   -0.059856
  26 H :    0.021712
  27 H :    0.023043
  28 C :    0.048562
  29 H :    0.004116
  30 H :    0.017333
  31 H :    0.018599
  32 H :    0.020694
  33 H :    0.059635
Sum of atomic charges:    0.0000000

LOEWDIN ATOMIC CHARGES
----------------------
   0 S :    0.411753
   1 C :   -0.193954
   2 C :   -0.055383
   3 C :   -0.058182
   4 C :   -0.195687
   5 H :    0.022961
   6 C :   -0.020132
   7 H :    0.021478
   8 H :    0.027006
   9 C :   -0.044417
  10 H :    0.020723
  11 H :    0.020010
  12 C :   -0.066709
  13 H :    0.030719
  14 H :    0.025901
  15 H :    0.027928
  16 S :    0.398599
  17 C :   -0.181182
  18 C :   -0.074907
  19 C :   -0.057479
  20 C :   -0.187429
  21 H :    0.041638
  22 C :   -0.043587
  23 H :    0.031662
  24 H :    0.030411
  25 C :   -0.037043
  26 H :    0.018296
  27 H :    0.026256
  28 C :   -0.057584
  29 H :    0.030299
  30 H :    0.025338
  31 H :    0.018304
  32 H :    0.017639
  33 H :    0.026753

  Mayer bond orders larger than 0.100000
B(  0-S ,  1-C ) :   1.1280 B(  0-S ,  4-C ) :   1.1569 B(  1-C ,  2-C ) :   1.6211
B(  1-C , 32-H ) :   0.9669 B(  2-C ,  3-C ) :   1.2166 B(  2-C ,  6-C ) :   1.0405
B(  3-C ,  4-C ) :   1.5763 B(  3-C ,  5-H ) :   1.0017 B(  4-C , 20-C ) :   1.0082
B(  6-C ,  7-H ) :   0.9405 B(  6-C ,  8-H ) :   0.9463 B(  6-C ,  9-C ) :   1.0381
B(  9-C , 10-H ) :   0.9583 B(  9-C , 11-H ) :   0.9578 B(  9-C , 12-C ) :   1.0906
B( 12-C , 13-H ) :   0.9704 B( 12-C , 14-H ) :   0.9730 B( 12-C , 15-H ) :   0.9681
B( 16-S , 17-C ) :   1.1583 B( 16-S , 20-C ) :   1.1469 B( 17-C , 18-C ) :   1.6153
B( 17-C , 20-C ) :   0.1002 B( 17-C , 33-H ) :   0.9680 B( 18-C , 19-C ) :   1.2123
B( 18-C , 21-H ) :   0.9878 B( 19-C , 20-C ) :   1.5957 B( 19-C , 22-C ) :   1.0630
B( 22-C , 23-H ) :   0.9277 B( 22-C , 24-H ) :   0.9237 B( 22-C , 25-C ) :   1.0515
B( 25-C , 26-H ) :   0.9490 B( 25-C , 27-H ) :   0.9524 B( 25-C , 28-C ) :   1.0863
B( 28-C , 29-H ) :   0.9591 B( 28-C , 30-H ) :   0.9690 B( 28-C , 31-H ) :   0.9694

Dispersion correction           -0.014390633
FINAL SINGLE POINT ENERGY     -1339.867918132154

DIPOLE MOMENT
-------------
                                X             Y             Z
Electronic contribution:     17.79364      22.29225      17.40068
Nuclear contribution   :    -18.09864     -22.86728     -17.59476
                        -----------------------------------------
Total Dipole Moment    :     -0.30500      -0.57503      -0.19408
                        -----------------------------------------
Magnitude (a.u.)       :      0.67923
Magnitude (Debye)      :      1.72647

Rotational constants in cm-1:     0.017665     0.009455     0.006508
Rotational constants in MHz :   529.574531   283.448122   195.105977

                             ****ORCA TERMINATED NORMALLY****
TOTAL RUN TIME: 0 days 0 hours 0 minutes 22 seconds 121 msec
