                         Program Version 4.2.1 -  RELEASE  -
|  1> ! wB97X-D3 SP def2-SVP
|  2> %pal
|  3> nprocs 24
|  4> end
|  5>
|  6> * xyz 0 1
|  7> S 	 -111.94 	 35.0554 	 -115.455
|  8> C 	 -112.189 	 33.3741 	 -116.141
|  9> C 	 -113.173 	 32.6565 	 -115.417
| 10> C 	 -113.673 	 33.4393 	 -114.322
| 11> C 	 -113.166 	 34.7172 	 -114.233
| 12> H 	 -114.548 	 33.2286 	 -113.619
| 13> C 	 -113.69 	 31.3038 	 -115.688
| 14> H 	 -113.687 	 31.1555 	 -116.679
| 15> H 	 -114.763 	 31.1536 	 -115.399
| 16> C 	 -112.883 	 30.1495 	 -115.171
| 17> H 	 -111.858 	 30.2438 	 -115.48
| 18> H 	 -112.809 	 30.1176 	 -114.125
| 19> C 	 -113.326 	 28.7802 	 -115.742
| 20> H 	 -114.337 	 28.5797 	 -115.549
| 21> H 	 -113.305 	 28.763 	 -116.83
| 22> H 	 -112.714 	 27.9973 	 -115.237
| 23> S 	 -112.368 	 35.9615 	 -111.935
| 24> C 	 -113.386 	 37.1876 	 -111.259
| 25> C 	 -114.602 	 37.2254 	 -111.844
| 26> C 	 -114.72 	 36.3073 	 -112.937
| 27> C 	 -113.547 	 35.6531 	 -113.172
| 28> H 	 -115.368 	 37.859 	 -111.432
| 29> C 	 -115.915 	 36.2397 	 -113.74
| 30> H 	 -115.695 	 35.3417 	 -114.337
| 31> H 	 -115.805 	 36.9848 	 -114.521
| 32> C 	 -117.349 	 36.0972 	 -113.059
| 33> H 	 -117.409 	 36.5958 	 -112.171
| 34> H 	 -117.455 	 35.1228 	 -112.63
| 35> C 	 -118.452 	 36.4609 	 -114.137
| 36> H 	 -119.437 	 36.6597 	 -113.813
| 37> H 	 -118.485 	 35.6604 	 -114.836
| 38> H 	 -118.105 	 37.3383 	 -114.735
| 39> H 	 -111.639 	 32.9244 	 -116.985
| 40> H 	 -113.056 	 37.7667 	 -110.423
| 41> *
| 42>
| 43>                          ****END OF INPUT****

CARTESIAN COORDINATES (ANGSTROEM)
---------------------------------
  S    -111.940000   35.055400  -115.455000
  C    -112.189000   33.374100  -116.141000
  C    -113.173000   32.656500  -115.417000
  C    -113.673000   33.439300  -114.322000
  C    -113.166000   34.717200  -114.233000
  H    -114.548000   33.228600  -113.619000
  C    -113.690000   31.303800  -115.688000
  H    -113.687000   31.155500  -116.679000
  H    -114.763000   31.153600  -115.399000
  C    -112.883000   30.149500  -115.171000
  H    -111.858000   30.243800  -115.480000
  H    -112.809000   30.117600  -114.125000
  C    -113.326000   28.780200  -115.742000
  H    -114.337000   28.579700  -115.549000
  H    -113.305000   28.763000  -116.830000
  H    -112.714000   27.997300  -115.237000
  S    -112.368000   35.961500  -111.935000
  C    -113.386000   37.187600  -111.259000
  C    -114.602000   37.225400  -111.844000
  C    -114.720000   36.307300  -112.937000
  C    -113.547000   35.653100  -113.172000
  H    -115.368000   37.859000  -111.432000
  C    -115.915000   36.239700  -113.740000
  H    -115.695000   35.341700  -114.337000
  H    -115.805000   36.984800  -114.521000
  C    -117.349000   36.097200  -113.059000
  H    -117.409000   36.595800  -112.171000
  H    -117.455000   35.122800  -112.630000
  C    -118.452000   36.460900  -114.137000
  H    -119.437000   36.659700  -113.813000
  H    -118.485000   35.660400  -114.836000
  H    -118.105000   37.338300  -114.735000
  H    -111.639000   32.924400  -116.985000
  H    -113.056000   37.766700  -110.423000

 Total Charge           Charge          ....    0
 Multiplicity           Mult            ....    1
 Number of Electrons    NEL             ....  134
 Basis Dimension        Dim             ....  322

ORBITAL ENERGIES
----------------

  NO   OCC          E(Eh)            E(eV)
   0   2.0000     -88.970704     -2421.0159
   1   2.0000     -88.958613     -2420.6869
   2   2.0000     -10.327835      -281.0347
   3   2.0000     -10.326592      -281.0009
   4   2.0000     -10.317456      -280.7523
   5   2.0000     -10.308880      -280.5189
   6   2.0000     -10.306866      -280.4641
   7   2.0000     -10.297568      -280.2111
   8   2.0000     -10.294397      -280.1248
   9   2.0000     -10.288630      -279.9679
  10   2.0000     -10.285501      -279.8827
  11   2.0000     -10.285147      -279.8731
  12   2.0000     -10.282383      -279.7979
  13   2.0000     -10.279641      -279.7232
  14   2.0000     -10.277778      -279.6726
  15   2.0000     -10.277608      -279.6679
  16   2.0000      -8.083627      -219.9667
  17   2.0000      -8.074544      -219.7195
  18   2.0000      -6.042267      -164.4185
  19   2.0000      -6.038478      -164.3153
  20   2.0000      -6.034252      -164.2004
  21   2.0000      -6.032947      -164.1648
  22   2.0000      -6.028994      -164.0573
  23   2.0000      -6.025241      -163.9551
  24   2.0000      -1.008157       -27.4333
  25   2.0000      -0.978727       -26.6325
  26   2.0000      -0.920883       -25.0585
  27   2.0000      -0.907626       -24.6978
  28   2.0000      -0.868219       -23.6254
  29   2.0000      -0.852347       -23.1935
  30   2.0000      -0.845825       -23.0161
  31   2.0000      -0.813298       -22.1310
  32   2.0000      -0.783780       -21.3277
  33   2.0000      -0.770084       -20.9550
  34   2.0000      -0.725686       -19.7469
  35   2.0000      -0.709404       -19.3039
  36   2.0000      -0.697602       -18.9827
  37   2.0000      -0.659019       -17.9328
  38   2.0000      -0.642981       -17.4964
  39   2.0000      -0.614464       -16.7204
  40   2.0000      -0.599924       -16.3248
  41   2.0000      -0.571663       -15.5558
  42   2.0000      -0.563024       -15.3207
  43   2.0000      -0.550300       -14.9744
  44   2.0000      -0.532885       -14.5005
  45   2.0000      -0.529969       -14.4212
  46   2.0000      -0.518993       -14.1225
  47   2.0000      -0.512920       -13.9573
  48   2.0000      -0.502592       -13.6762
  49   2.0000      -0.499617       -13.5953
  50   2.0000      -0.487211       -13.2577
  51   2.0000      -0.470900       -12.8138
  52   2.0000      -0.467015       -12.7081
  53   2.0000      -0.462702       -12.5908
  54   2.0000      -0.459240       -12.4966
  55   2.0000      -0.456015       -12.4088
  56   2.0000      -0.445050       -12.1104
  57   2.0000      -0.442258       -12.0345
  58   2.0000      -0.440724       -11.9927
  59   2.0000      -0.428749       -11.6669
  60   2.0000      -0.423358       -11.5201
  61   2.0000      -0.417891       -11.3714
  62   2.0000      -0.414654       -11.2833
  63   2.0000      -0.336726        -9.1628
  64   2.0000      -0.328016        -8.9258
  65   2.0000      -0.325331        -8.8527
  66   2.0000      -0.301600        -8.2070
  67   0.0000       0.037989         1.0337
  68   0.0000       0.063392         1.7250
  69   0.0000       0.103637         2.8201
  70   0.0000       0.118724         3.2306
  71   0.0000       0.128800         3.5048

MULLIKEN ATOMIC CHARGES
-----------------------
   0 S :    0.115157
   1 C :   -0.129996
   2 C :   -0.080740
   3 C :    0.025925
   4 C :   -0.191864
   5 H :    0.044110
   6 C :    0.122993
   7 H :   -0.023583
   8 H :    0.028581
   9 C :   -0.057471
  10 H :    0.015017
  11 H :    0.014498
  12 C :   -0.035431
  13 H :    0.009697
  14 H :    0.026292
  15 H :    0.046080
  16 S :    0.107191
  17 C :   -0.082125
  18 C :   -0.025515
  19 C :   -0.030743
  20 C :   -0.181476
  21 H :    0.014284
  22 C :    0.054757
  23 H :    0.009140
  24 H :    0.036660
  25 C :   -0.004865
  26 H :   -0.000749
  27 H :    0.014565
  28 C :   -0.032755
  29 H :    0.029491
  30 H :    0.025710
  31 H :    0.033670
  32 H :    0.056857
  33 H :    0.046637
Sum of atomic charges:   -0.0000000

LOEWDIN ATOMIC CHARGES
----------------------
   0 S :    0.375550
   1 C :   -0.180833
   2 C :   -0.053981
   3 C :   -0.068043
   4 C :   -0.197132
   5 H :    0.045972
   6 C :   -0.032571
   7 H :    0.015493
   8 H :    0.038610
   9 C :   -0.031007
  10 H :    0.022403
  11 H :    0.015679
  12 C :   -0.060126
  13 H :    0.013547
  14 H :    0.024081
  15 H :    0.035485
  16 S :    0.410373
  17 C :   -0.176897
  18 C :   -0.072721
  19 C :   -0.059486
  20 C :   -0.209239
  21 H :    0.030702
  22 C :   -0.040376
  23 H :    0.034484
  24 H :    0.038018
  25 C :   -0.023615
  26 H :    0.007312
  27 H :    0.025442
  28 C :   -0.057186
  29 H :    0.018802
  30 H :    0.023152
  31 H :    0.031855
  32 H :    0.033161
  33 H :    0.023093

  Mayer bond orders larger than 0.100000
B(  0-S ,  1-C ) :   1.1183 B(  0-S ,  4-C ) :   1.1372 B(  1-C ,  2-C ) :   1.6185
B(  1-C , 32-H ) :   0.9641 B(  2-C ,  3-C ) :   1.2192 B(  2-C ,  6-C ) :   1.0369
B(  3-C ,  4-C ) :   1.6089 B(  3-C ,  5-H ) :   0.9749 B(  4-C , 20-C ) :   1.0125
B(  6-C ,  7-H ) :   0.9156 B(  6-C ,  8-H ) :   0.9368 B(  6-C ,  9-C ) :   1.0691
B(  9-C , 10-H ) :   0.9509 B(  9-C , 11-H ) :   0.9541 B(  9-C , 12-C ) :   1.0820
B( 12-C , 13-H ) :   0.9742 B( 12-C , 14-H ) :   0.9740 B( 12-C , 15-H ) :   0.9736
B( 16-S , 17-C ) :   1.1545 B( 16-S , 20-C ) :   1.1443 B( 17-C , 18-C ) :   1.6250
B( 17-C , 33-H ) :   0.9703 B( 18-C , 19-C ) :   1.2019 B( 18-C , 21-H ) :   0.9976
B( 19-C , 20-C ) :   1.6183 B( 19-C , 22-C ) :   1.0665 B( 22-C , 23-H ) :   0.9137
B( 22-C , 24-H ) :   0.9271 B( 22-C , 25-C ) :   1.0289 B( 25-C , 26-H ) :   0.9669
B( 25-C , 27-H ) :   0.9510 B( 25-C , 28-C ) :   1.0585 B( 28-C , 29-H ) :   0.9785
B( 28-C , 30-H ) :   0.9787 B( 28-C , 31-H ) :   0.9804

Dispersion correction           -0.013613177
FINAL SINGLE POINT ENERGY     -1339.851848767599

DIPOLE MOMENT
-------------
                                X             Y             Z
Electronic contribution:     20.27077      16.56789       6.51923
Nuclear contribution   :    -20.85678     -16.89183      -6.55597
                        -----------------------------------------
Total Dipole Moment    :     -0.58601      -0.32394      -0.03675
                        -----------------------------------------
Magnitude (a.u.)       :      0.67060
Magnitude (Debye)      :      1.70452

Rotational constants in cm-1:     0.017605     0.007703     0.006306
Rotational constants in MHz :   527.781934   230.931424   189.047535

                             ****ORCA TERMINATED NORMALLY****
TOTAL RUN TIME: 0 days 0 hours 0 minutes 20 seconds 985 msec
