                         Program Version 4.2.1 -  RELEASE  -
|  1> ! wB97X-D3 SP def2-SVP
|  2> %pal
|  3> nprocs 24
|  4> end
|  5>
|  6> * xyz 0 1
|  7> S 	 -48.8173 	 10.4164 	 -21.0847
|  8> C 	 -50.5227 	 10.0646 	 -20.7075
|  9> C 	 -51.2424 	 11.2504 	 -20.7674
| 10> C 	 -50.4846 	 12.2992 	 -21.302
| 11> C 	 -49.178 	 12.0427 	 -21.4614
| 12> H 	 -50.7588 	 13.2891 	 -21.4949
| 13> C 	 -52.7093 	 11.2969 	 -20.4419
| 14> H 	 -52.9444 	 12.3845 	 -20.3424
| 15> H 	 -52.7907 	 10.8722 	 -19.4465
| 16> C 	 -53.587 	 10.5401 	 -21.537
| 17> H 	 -53.1977 	 11.0301 	 -22.4814
| 18> H 	 -53.278 	 9.45396 	 -21.4583
| 19> C 	 -55.1031 	 10.7318 	 -21.445
| 20> H 	 -55.7204 	 10.3671 	 -22.2375
| 21> H 	 -55.3896 	 10.1536 	 -20.58
| 22> H 	 -55.3884 	 11.8241 	 -21.2814
| 23> S 	 -47.0879 	 12.6968 	 -23.2008
| 24> C 	 -46.2316 	 14.183 	 -23.014
| 25> C 	 -46.7963 	 14.9009 	 -21.9901
| 26> C 	 -47.8407 	 14.2374 	 -21.2998
| 27> C 	 -48.1479 	 13.0105 	 -21.819
| 28> H 	 -46.3903 	 15.8581 	 -21.7497
| 29> C 	 -48.4874 	 14.78 	 -20.0789
| 30> H 	 -47.6371 	 15.053 	 -19.3964
| 31> H 	 -48.9773 	 13.9554 	 -19.5343
| 32> C 	 -49.5446 	 15.9119 	 -20.3302
| 33> H 	 -50.2848 	 15.6621 	 -20.9906
| 34> H 	 -48.9246 	 16.7426 	 -20.8339
| 35> C 	 -50.1687 	 16.3897 	 -19.072
| 36> H 	 -49.3528 	 16.8297 	 -18.4414
| 37> H 	 -50.5037 	 15.4669 	 -18.5566
| 38> H 	 -50.9425 	 17.1303 	 -19.248
| 39> H 	 -50.755 	 9.14488 	 -20.138
| 40> H 	 -45.391 	 14.4525 	 -23.5915
| 41> *
| 42>
| 43>                          ****END OF INPUT****

CARTESIAN COORDINATES (ANGSTROEM)
---------------------------------
  S    -48.817300   10.416400  -21.084700
  C    -50.522700   10.064600  -20.707500
  C    -51.242400   11.250400  -20.767400
  C    -50.484600   12.299200  -21.302000
  C    -49.178000   12.042700  -21.461400
  H    -50.758800   13.289100  -21.494900
  C    -52.709300   11.296900  -20.441900
  H    -52.944400   12.384500  -20.342400
  H    -52.790700   10.872200  -19.446500
  C    -53.587000   10.540100  -21.537000
  H    -53.197700   11.030100  -22.481400
  H    -53.278000    9.453960  -21.458300
  C    -55.103100   10.731800  -21.445000
  H    -55.720400   10.367100  -22.237500
  H    -55.389600   10.153600  -20.580000
  H    -55.388400   11.824100  -21.281400
  S    -47.087900   12.696800  -23.200800
  C    -46.231600   14.183000  -23.014000
  C    -46.796300   14.900900  -21.990100
  C    -47.840700   14.237400  -21.299800
  C    -48.147900   13.010500  -21.819000
  H    -46.390300   15.858100  -21.749700
  C    -48.487400   14.780000  -20.078900
  H    -47.637100   15.053000  -19.396400
  H    -48.977300   13.955400  -19.534300
  C    -49.544600   15.911900  -20.330200
  H    -50.284800   15.662100  -20.990600
  H    -48.924600   16.742600  -20.833900
  C    -50.168700   16.389700  -19.072000
  H    -49.352800   16.829700  -18.441400
  H    -50.503700   15.466900  -18.556600
  H    -50.942500   17.130300  -19.248000
  H    -50.755000    9.144880  -20.138000
  H    -45.391000   14.452500  -23.591500

 Total Charge           Charge          ....    0
 Multiplicity           Mult            ....    1
 Number of Electrons    NEL             ....  134
 Basis Dimension        Dim             ....  322

ORBITAL ENERGIES
----------------

  NO   OCC          E(Eh)            E(eV)
   0   2.0000     -88.962779     -2420.8003
   1   2.0000     -88.960778     -2420.7458
   2   2.0000     -10.323707      -280.9223
   3   2.0000     -10.322358      -280.8856
   4   2.0000     -10.316640      -280.7300
   5   2.0000     -10.313769      -280.6519
   6   2.0000     -10.301135      -280.3081
   7   2.0000     -10.301003      -280.3045
   8   2.0000     -10.297784      -280.2170
   9   2.0000     -10.296811      -280.1905
  10   2.0000     -10.293175      -280.0915
  11   2.0000     -10.289324      -279.9867
  12   2.0000     -10.285286      -279.8769
  13   2.0000     -10.283546      -279.8295
  14   2.0000     -10.281853      -279.7834
  15   2.0000     -10.280071      -279.7349
  16   2.0000      -8.078126      -219.8170
  17   2.0000      -8.075962      -219.7581
  18   2.0000      -6.036459      -164.2604
  19   2.0000      -6.034366      -164.2034
  20   2.0000      -6.032489      -164.1524
  21   2.0000      -6.030339      -164.0939
  22   2.0000      -6.029083      -164.0597
  23   2.0000      -6.026869      -163.9994
  24   2.0000      -1.014227       -27.5985
  25   2.0000      -0.990962       -26.9655
  26   2.0000      -0.913439       -24.8559
  27   2.0000      -0.908634       -24.7252
  28   2.0000      -0.870486       -23.6871
  29   2.0000      -0.857777       -23.3413
  30   2.0000      -0.849024       -23.1031
  31   2.0000      -0.820424       -22.3249
  32   2.0000      -0.781292       -21.2600
  33   2.0000      -0.768895       -20.9227
  34   2.0000      -0.702560       -19.1176
  35   2.0000      -0.699092       -19.0233
  36   2.0000      -0.697267       -18.9736
  37   2.0000      -0.664133       -18.0720
  38   2.0000      -0.648790       -17.6545
  39   2.0000      -0.619983       -16.8706
  40   2.0000      -0.599715       -16.3191
  41   2.0000      -0.567354       -15.4385
  42   2.0000      -0.566946       -15.4274
  43   2.0000      -0.558527       -15.1983
  44   2.0000      -0.537502       -14.6262
  45   2.0000      -0.525870       -14.3097
  46   2.0000      -0.522342       -14.2137
  47   2.0000      -0.516390       -14.0517
  48   2.0000      -0.510623       -13.8948
  49   2.0000      -0.502289       -13.6680
  50   2.0000      -0.494193       -13.4477
  51   2.0000      -0.476142       -12.9565
  52   2.0000      -0.471223       -12.8226
  53   2.0000      -0.462776       -12.5928
  54   2.0000      -0.458707       -12.4820
  55   2.0000      -0.451917       -12.2973
  56   2.0000      -0.446701       -12.1553
  57   2.0000      -0.441524       -12.0145
  58   2.0000      -0.429368       -11.6837
  59   2.0000      -0.424071       -11.5396
  60   2.0000      -0.418039       -11.3754
  61   2.0000      -0.413897       -11.2627
  62   2.0000      -0.407515       -11.0890
  63   2.0000      -0.344445        -9.3728
  64   2.0000      -0.334593        -9.1047
  65   2.0000      -0.328736        -8.9454
  66   2.0000      -0.299213        -8.1420
  67   0.0000       0.032770         0.8917
  68   0.0000       0.069207         1.8832
  69   0.0000       0.115638         3.1467
  70   0.0000       0.127681         3.4744
  71   0.0000       0.130419         3.5489

MULLIKEN ATOMIC CHARGES
-----------------------
   0 S :    0.106183
   1 C :   -0.146494
   2 C :   -0.092614
   3 C :    0.059054
   4 C :   -0.146263
   5 H :   -0.033783
   6 C :    0.060755
   7 H :    0.021959
   8 H :    0.028591
   9 C :   -0.105157
  10 H :    0.044708
  11 H :    0.048036
  12 C :   -0.030044
  13 H :    0.038921
  14 H :    0.023513
  15 H :    0.038686
  16 S :    0.097378
  17 C :   -0.073078
  18 C :   -0.024911
  19 C :   -0.008460
  20 C :   -0.162224
  21 H :    0.004390
  22 C :    0.008492
  23 H :    0.038225
  24 H :    0.029104
  25 C :   -0.066187
  26 H :    0.013102
  27 H :    0.029379
  28 C :   -0.025160
  29 H :    0.031200
  30 H :    0.030038
  31 H :    0.043574
  32 H :    0.071721
  33 H :    0.047365
Sum of atomic charges:    0.0000000

LOEWDIN ATOMIC CHARGES
----------------------
   0 S :    0.412350
   1 C :   -0.195977
   2 C :   -0.061293
   3 C :   -0.064784
   4 C :   -0.200343
   5 H :    0.022222
   6 C :   -0.034696
   7 H :    0.030142
   8 H :    0.027644
   9 C :   -0.041126
  10 H :    0.030963
  11 H :    0.031662
  12 C :   -0.073490
  13 H :    0.024763
  14 H :    0.024314
  15 H :    0.033851
  16 S :    0.402806
  17 C :   -0.178053
  18 C :   -0.071391
  19 C :   -0.061753
  20 C :   -0.193043
  21 H :    0.026114
  22 C :   -0.036441
  23 H :    0.038723
  24 H :    0.028986
  25 C :   -0.037600
  26 H :    0.008068
  27 H :    0.029084
  28 C :   -0.066047
  29 H :    0.030291
  30 H :    0.028632
  31 H :    0.026784
  32 H :    0.034288
  33 H :    0.024349

  Mayer bond orders larger than 0.100000
B(  0-S ,  1-C ) :   1.1399 B(  0-S ,  4-C ) :   1.1757 B(  1-C ,  2-C ) :   1.5774
B(  1-C ,  4-C ) :   0.1000 B(  1-C , 32-H ) :   0.9664 B(  2-C ,  3-C ) :   1.2386
B(  2-C ,  6-C ) :   1.0277 B(  3-C ,  4-C ) :   1.5757 B(  3-C ,  5-H ) :   1.0129
B(  4-C , 20-C ) :   1.0071 B(  6-C ,  7-H ) :   0.9424 B(  6-C ,  8-H ) :   0.9335
B(  6-C ,  9-C ) :   1.0422 B(  9-C , 10-H ) :   0.9602 B(  9-C , 11-H ) :   0.9565
B(  9-C , 12-C ) :   1.0731 B( 12-C , 13-H ) :   0.9758 B( 12-C , 14-H ) :   0.9729
B( 12-C , 15-H ) :   0.9738 B( 16-S , 17-C ) :   1.1651 B( 16-S , 20-C ) :   1.1379
B( 17-C , 18-C ) :   1.5877 B( 17-C , 33-H ) :   0.9758 B( 18-C , 19-C ) :   1.2400
B( 18-C , 21-H ) :   0.9989 B( 19-C , 20-C ) :   1.6035 B( 19-C , 22-C ) :   1.0513
B( 22-C , 23-H ) :   0.9360 B( 22-C , 24-H ) :   0.9295 B( 22-C , 25-C ) :   1.0504
B( 25-C , 26-H ) :   0.9543 B( 25-C , 27-H ) :   0.9522 B( 25-C , 28-C ) :   1.0896
B( 28-C , 29-H ) :   0.9724 B( 28-C , 30-H ) :   0.9687 B( 28-C , 31-H ) :   0.9724

Dispersion correction           -0.014236597
FINAL SINGLE POINT ENERGY     -1339.880444666018

DIPOLE MOMENT
-------------
                                X             Y             Z
Electronic contribution:     24.71939     -11.11408     -11.02566
Nuclear contribution   :    -25.11904      11.53022      11.40679
                        -----------------------------------------
Total Dipole Moment    :     -0.39965       0.41614       0.38113
                        -----------------------------------------
Magnitude (a.u.)       :      0.69148
Magnitude (Debye)      :      1.75761

Rotational constants in cm-1:     0.018360     0.008428     0.006506
Rotational constants in MHz :   550.425602   252.651027   195.053594

                             ****ORCA TERMINATED NORMALLY****
TOTAL RUN TIME: 0 days 0 hours 0 minutes 20 seconds 622 msec
