                         Program Version 4.2.1 -  RELEASE  -
|  1> ! wB97X-D3 SP def2-SVP
|  2> %pal
|  3> nprocs 24
|  4> end
|  5>
|  6> * xyz 0 1
|  7> S 	 -103.014 	 40.8414 	 -94.9934
|  8> C 	 -103.347 	 39.5693 	 -93.8665
|  9> C 	 -102.145 	 39.1726 	 -93.2248
| 10> C 	 -100.989 	 39.7147 	 -93.9325
| 11> C 	 -101.264 	 40.6752 	 -94.8664
| 12> H 	 -99.9921 	 39.4844 	 -93.6159
| 13> C 	 -101.956 	 38.1225 	 -92.1817
| 14> H 	 -101.102 	 37.5201 	 -92.3912
| 15> H 	 -102.813 	 37.466 	 -92.1642
| 16> C 	 -101.614 	 38.4833 	 -90.693
| 17> H 	 -100.667 	 38.903 	 -90.5431
| 18> H 	 -102.233 	 39.2947 	 -90.3777
| 19> C 	 -101.599 	 37.3521 	 -89.6278
| 20> H 	 -102.658 	 37.1587 	 -89.3525
| 21> H 	 -101.124 	 36.4208 	 -90.0244
| 22> H 	 -101.072 	 37.6128 	 -88.7125
| 23> S 	 -100.482 	 43.4035 	 -94.8262
| 24> C 	 -99.0349 	 43.8872 	 -95.704
| 25> C 	 -98.4471 	 42.8374 	 -96.2781
| 26> C 	 -99.0953 	 41.5806 	 -96.1186
| 27> C 	 -100.254 	 41.6682 	 -95.2934
| 28> H 	 -97.545 	 42.8875 	 -96.85
| 29> C 	 -98.6872 	 40.329 	 -96.8227
| 30> H 	 -98.7161 	 39.5342 	 -96.0565
| 31> H 	 -97.6878 	 40.3056 	 -97.3089
| 32> C 	 -99.6883 	 39.8464 	 -97.8754
| 33> H 	 -100.672 	 39.8109 	 -97.4091
| 34> H 	 -99.5733 	 38.8371 	 -98.2632
| 35> C 	 -99.8015 	 41.0085 	 -98.9121
| 36> H 	 -100.706 	 40.7348 	 -99.5054
| 37> H 	 -98.9531 	 41.1895 	 -99.6105
| 38> H 	 -100.095 	 41.9947 	 -98.4332
| 39> H 	 -104.366 	 39.1661 	 -93.6511
| 40> H 	 -98.5514 	 44.8795 	 -95.6897
| 41> *
| 42>
| 43>                          ****END OF INPUT****

CARTESIAN COORDINATES (ANGSTROEM)
---------------------------------
  S    -103.014000   40.841400  -94.993400
  C    -103.347000   39.569300  -93.866500
  C    -102.145000   39.172600  -93.224800
  C    -100.989000   39.714700  -93.932500
  C    -101.264000   40.675200  -94.866400
  H    -99.992100   39.484400  -93.615900
  C    -101.956000   38.122500  -92.181700
  H    -101.102000   37.520100  -92.391200
  H    -102.813000   37.466000  -92.164200
  C    -101.614000   38.483300  -90.693000
  H    -100.667000   38.903000  -90.543100
  H    -102.233000   39.294700  -90.377700
  C    -101.599000   37.352100  -89.627800
  H    -102.658000   37.158700  -89.352500
  H    -101.124000   36.420800  -90.024400
  H    -101.072000   37.612800  -88.712500
  S    -100.482000   43.403500  -94.826200
  C    -99.034900   43.887200  -95.704000
  C    -98.447100   42.837400  -96.278100
  C    -99.095300   41.580600  -96.118600
  C    -100.254000   41.668200  -95.293400
  H    -97.545000   42.887500  -96.850000
  C    -98.687200   40.329000  -96.822700
  H    -98.716100   39.534200  -96.056500
  H    -97.687800   40.305600  -97.308900
  C    -99.688300   39.846400  -97.875400
  H    -100.672000   39.810900  -97.409100
  H    -99.573300   38.837100  -98.263200
  C    -99.801500   41.008500  -98.912100
  H    -100.706000   40.734800  -99.505400
  H    -98.953100   41.189500  -99.610500
  H    -100.095000   41.994700  -98.433200
  H    -104.366000   39.166100  -93.651100
  H    -98.551400   44.879500  -95.689700

 Total Charge           Charge          ....    0
 Multiplicity           Mult            ....    1
 Number of Electrons    NEL             ....  134
 Basis Dimension        Dim             ....  322

ORBITAL ENERGIES
----------------

  NO   OCC          E(Eh)            E(eV)
   0   2.0000     -88.970885     -2421.0209
   1   2.0000     -88.965624     -2420.8777
   2   2.0000     -10.337254      -281.2910
   3   2.0000     -10.334067      -281.2043
   4   2.0000     -10.328251      -281.0460
   5   2.0000     -10.316245      -280.7193
   6   2.0000     -10.311323      -280.5854
   7   2.0000     -10.305414      -280.4246
   8   2.0000     -10.296790      -280.1899
   9   2.0000     -10.292675      -280.0779
  10   2.0000     -10.290153      -280.0093
  11   2.0000     -10.286559      -279.9115
  12   2.0000     -10.286400      -279.9072
  13   2.0000     -10.282089      -279.7899
  14   2.0000     -10.281502      -279.7739
  15   2.0000     -10.277668      -279.6696
  16   2.0000      -8.085453      -220.0164
  17   2.0000      -8.079201      -219.8462
  18   2.0000      -6.044071      -164.4675
  19   2.0000      -6.039845      -164.3525
  20   2.0000      -6.037902      -164.2997
  21   2.0000      -6.036209      -164.2536
  22   2.0000      -6.033859      -164.1896
  23   2.0000      -6.029830      -164.0800
  24   2.0000      -1.003689       -27.3118
  25   2.0000      -0.982926       -26.7468
  26   2.0000      -0.909057       -24.7367
  27   2.0000      -0.908013       -24.7083
  28   2.0000      -0.870575       -23.6895
  29   2.0000      -0.851455       -23.1693
  30   2.0000      -0.837833       -22.7986
  31   2.0000      -0.815695       -22.1962
  32   2.0000      -0.779711       -21.2170
  33   2.0000      -0.766613       -20.8606
  34   2.0000      -0.709305       -19.3012
  35   2.0000      -0.702745       -19.1227
  36   2.0000      -0.683725       -18.6051
  37   2.0000      -0.658536       -17.9197
  38   2.0000      -0.645698       -17.5703
  39   2.0000      -0.622295       -16.9335
  40   2.0000      -0.594463       -16.1762
  41   2.0000      -0.574118       -15.6226
  42   2.0000      -0.560271       -15.2457
  43   2.0000      -0.547570       -14.9001
  44   2.0000      -0.545525       -14.8445
  45   2.0000      -0.520077       -14.1520
  46   2.0000      -0.513833       -13.9821
  47   2.0000      -0.510809       -13.8998
  48   2.0000      -0.502477       -13.6731
  49   2.0000      -0.501275       -13.6404
  50   2.0000      -0.483826       -13.1656
  51   2.0000      -0.480813       -13.0836
  52   2.0000      -0.472583       -12.8596
  53   2.0000      -0.466262       -12.6876
  54   2.0000      -0.458175       -12.4676
  55   2.0000      -0.455457       -12.3936
  56   2.0000      -0.436900       -11.8887
  57   2.0000      -0.430227       -11.7071
  58   2.0000      -0.428870       -11.6701
  59   2.0000      -0.426455       -11.6044
  60   2.0000      -0.414890       -11.2897
  61   2.0000      -0.411415       -11.1952
  62   2.0000      -0.406097       -11.0505
  63   2.0000      -0.350811        -9.5460
  64   2.0000      -0.329963        -8.9787
  65   2.0000      -0.324631        -8.8337
  66   2.0000      -0.294246        -8.0068
  67   0.0000       0.030082         0.8186
  68   0.0000       0.054980         1.4961
  69   0.0000       0.108353         2.9484
  70   0.0000       0.118062         3.2126
  71   0.0000       0.131862         3.5881

MULLIKEN ATOMIC CHARGES
-----------------------
   0 S :    0.115940
   1 C :   -0.129456
   2 C :   -0.084753
   3 C :    0.046020
   4 C :   -0.145034
   5 H :    0.014323
   6 C :    0.071147
   7 H :    0.017789
   8 H :    0.017827
   9 C :   -0.054203
  10 H :    0.007318
  11 H :    0.016002
  12 C :   -0.079844
  13 H :    0.037175
  14 H :    0.036494
  15 H :    0.040662
  16 S :    0.095584
  17 C :   -0.088323
  18 C :   -0.009031
  19 C :   -0.066233
  20 C :   -0.165374
  21 H :    0.005288
  22 C :    0.078310
  23 H :    0.022817
  24 H :    0.030696
  25 C :   -0.062847
  26 H :    0.030329
  27 H :    0.033922
  28 C :   -0.110568
  29 H :    0.031849
  30 H :    0.039529
  31 H :    0.062235
  32 H :    0.076076
  33 H :    0.068334
Sum of atomic charges:    0.0000000

LOEWDIN ATOMIC CHARGES
----------------------
   0 S :    0.413329
   1 C :   -0.202951
   2 C :   -0.061497
   3 C :   -0.045815
   4 C :   -0.206206
   5 H :    0.027885
   6 C :   -0.033625
   7 H :    0.030051
   8 H :    0.029216
   9 C :   -0.040753
  10 H :    0.014736
  11 H :    0.018348
  12 C :   -0.066276
  13 H :    0.026523
  14 H :    0.027777
  15 H :    0.028442
  16 S :    0.377189
  17 C :   -0.184956
  18 C :   -0.074658
  19 C :   -0.054886
  20 C :   -0.175375
  21 H :    0.029134
  22 C :   -0.039992
  23 H :    0.031943
  24 H :    0.032224
  25 C :   -0.039127
  26 H :    0.025235
  27 H :    0.024792
  28 C :   -0.081024
  29 H :    0.027103
  30 H :    0.022419
  31 H :    0.037276
  32 H :    0.042010
  33 H :    0.041509

  Mayer bond orders larger than 0.100000
B(  0-S ,  1-C ) :   1.1555 B(  0-S ,  4-C ) :   1.1315 B(  1-C ,  2-C ) :   1.5693
B(  1-C , 32-H ) :   0.9641 B(  2-C ,  3-C ) :   1.2613 B(  2-C ,  6-C ) :   1.0525
B(  3-C ,  4-C ) :   1.5659 B(  3-C ,  5-H ) :   0.9881 B(  4-C , 20-C ) :   1.0385
B(  6-C ,  7-H ) :   0.9384 B(  6-C ,  8-H ) :   0.9463 B(  6-C ,  9-C ) :   1.0423
B(  9-C , 10-H ) :   0.9580 B(  9-C , 11-H ) :   0.9560 B(  9-C , 12-C ) :   1.0764
B( 12-C , 13-H ) :   0.9784 B( 12-C , 14-H ) :   0.9754 B( 12-C , 15-H ) :   0.9768
B( 16-S , 17-C ) :   1.1369 B( 16-S , 20-C ) :   1.1321 B( 17-C , 18-C ) :   1.6191
B( 17-C , 33-H ) :   0.9589 B( 18-C , 19-C ) :   1.2590 B( 18-C , 21-H ) :   0.9898
B( 19-C , 20-C ) :   1.5763 B( 19-C , 22-C ) :   1.0467 B( 22-C , 23-H ) :   0.9226
B( 22-C , 24-H ) :   0.9445 B( 22-C , 25-C ) :   1.0714 B( 25-C , 26-H ) :   0.9511
B( 25-C , 27-H ) :   0.9588 B( 25-C , 28-C ) :   1.0613 B( 28-C , 29-H ) :   0.9755
B( 28-C , 30-H ) :   0.9778 B( 28-C , 31-H ) :   0.9696

Dispersion correction           -0.014618614
FINAL SINGLE POINT ENERGY     -1339.862085713685

DIPOLE MOMENT
-------------
                                X             Y             Z
Electronic contribution:     -6.31236      18.14840      -4.38823
Nuclear contribution   :      6.60647     -18.61565       4.63051
                        -----------------------------------------
Total Dipole Moment    :      0.29410      -0.46725       0.24228
                        -----------------------------------------
Magnitude (a.u.)       :      0.60292
Magnitude (Debye)      :      1.53251

Rotational constants in cm-1:     0.021634     0.007252     0.006954
Rotational constants in MHz :   648.560139   217.401758   208.486071

                             ****ORCA TERMINATED NORMALLY****
TOTAL RUN TIME: 0 days 0 hours 0 minutes 21 seconds 377 msec
