                         Program Version 4.2.1 -  RELEASE  -
|  1> ! wB97X-D3 SP def2-SVP
|  2> %pal
|  3> nprocs 24
|  4> end
|  5>
|  6> * xyz 0 1
|  7> S 	 -39.8147 	 18.9772 	 11.8082
|  8> C 	 -39.9253 	 17.5641 	 12.7151
|  9> C 	 -40.0953 	 17.844 	 14.0832
| 10> C 	 -40.0522 	 19.266 	 14.3631
| 11> C 	 -39.9471 	 19.9987 	 13.1655
| 12> H 	 -40.205 	 19.7215 	 15.3389
| 13> C 	 -40.5187 	 16.7948 	 15.1413
| 14> H 	 -40.1066 	 15.7692 	 14.9631
| 15> H 	 -41.6062 	 16.6552 	 15.03
| 16> C 	 -40.2137 	 17.0784 	 16.6033
| 17> H 	 -39.1145 	 17.1206 	 16.7077
| 18> H 	 -40.7151 	 18.0267 	 16.9433
| 19> C 	 -40.7813 	 16.0438 	 17.5769
| 20> H 	 -40.6403 	 16.3932 	 18.5849
| 21> H 	 -41.9054 	 15.9656 	 17.3791
| 22> H 	 -40.1657 	 15.1188 	 17.4017
| 23> S 	 -40.9256 	 22.4878 	 13.1423
| 24> C 	 -39.867 	 23.7912 	 12.6273
| 25> C 	 -38.5423 	 23.4892 	 12.8128
| 26> C 	 -38.3858 	 22.0387 	 13.0106
| 27> C 	 -39.6073 	 21.3781 	 13.1476
| 28> H 	 -37.8221 	 24.3333 	 12.8535
| 29> C 	 -36.9855 	 21.4018 	 13.1545
| 30> H 	 -36.4298 	 21.6359 	 12.2702
| 31> H 	 -37.2435 	 20.2912 	 13.1267
| 32> C 	 -36.3294 	 21.6534 	 14.4636
| 33> H 	 -36.0432 	 22.6646 	 14.5687
| 34> H 	 -35.3511 	 21.2796 	 14.4248
| 35> C 	 -37.0692 	 21.1432 	 15.696
| 36> H 	 -36.7298 	 21.814 	 16.4835
| 37> H 	 -36.8602 	 20.1298 	 15.8907
| 38> H 	 -38.1382 	 21.396 	 15.7247
| 39> H 	 -40.0541 	 16.5333 	 12.2905
| 40> H 	 -40.2616 	 24.7892 	 12.5681
| 41> *
| 42>
| 43>                          ****END OF INPUT****

CARTESIAN COORDINATES (ANGSTROEM)
---------------------------------
  S    -39.814700   18.977200   11.808200
  C    -39.925300   17.564100   12.715100
  C    -40.095300   17.844000   14.083200
  C    -40.052200   19.266000   14.363100
  C    -39.947100   19.998700   13.165500
  H    -40.205000   19.721500   15.338900
  C    -40.518700   16.794800   15.141300
  H    -40.106600   15.769200   14.963100
  H    -41.606200   16.655200   15.030000
  C    -40.213700   17.078400   16.603300
  H    -39.114500   17.120600   16.707700
  H    -40.715100   18.026700   16.943300
  C    -40.781300   16.043800   17.576900
  H    -40.640300   16.393200   18.584900
  H    -41.905400   15.965600   17.379100
  H    -40.165700   15.118800   17.401700
  S    -40.925600   22.487800   13.142300
  C    -39.867000   23.791200   12.627300
  C    -38.542300   23.489200   12.812800
  C    -38.385800   22.038700   13.010600
  C    -39.607300   21.378100   13.147600
  H    -37.822100   24.333300   12.853500
  C    -36.985500   21.401800   13.154500
  H    -36.429800   21.635900   12.270200
  H    -37.243500   20.291200   13.126700
  C    -36.329400   21.653400   14.463600
  H    -36.043200   22.664600   14.568700
  H    -35.351100   21.279600   14.424800
  C    -37.069200   21.143200   15.696000
  H    -36.729800   21.814000   16.483500
  H    -36.860200   20.129800   15.890700
  H    -38.138200   21.396000   15.724700
  H    -40.054100   16.533300   12.290500
  H    -40.261600   24.789200   12.568100

 Total Charge           Charge          ....    0
 Multiplicity           Mult            ....    1
 Number of Electrons    NEL             ....  134
 Basis Dimension        Dim             ....  322

ORBITAL ENERGIES
----------------

  NO   OCC          E(Eh)            E(eV)
   0   2.0000     -88.969798     -2420.9913
   1   2.0000     -88.957592     -2420.6591
   2   2.0000     -10.321266      -280.8559
   3   2.0000     -10.317861      -280.7633
   4   2.0000     -10.314599      -280.6745
   5   2.0000     -10.311614      -280.5933
   6   2.0000     -10.306421      -280.4520
   7   2.0000     -10.305113      -280.4164
   8   2.0000     -10.297974      -280.2221
   9   2.0000     -10.297910      -280.2204
  10   2.0000     -10.296563      -280.1837
  11   2.0000     -10.289430      -279.9896
  12   2.0000     -10.287292      -279.9314
  13   2.0000     -10.286212      -279.9021
  14   2.0000     -10.271362      -279.4980
  15   2.0000     -10.268673      -279.4248
  16   2.0000      -8.085859      -220.0274
  17   2.0000      -8.073302      -219.6857
  18   2.0000      -6.044129      -164.4691
  19   2.0000      -6.039928      -164.3548
  20   2.0000      -6.037029      -164.2759
  21   2.0000      -6.031784      -164.1332
  22   2.0000      -6.027794      -164.0246
  23   2.0000      -6.023921      -163.9192
  24   2.0000      -1.011897       -27.5351
  25   2.0000      -0.984326       -26.7849
  26   2.0000      -0.910823       -24.7847
  27   2.0000      -0.910649       -24.7800
  28   2.0000      -0.874030       -23.7836
  29   2.0000      -0.850293       -23.1377
  30   2.0000      -0.840970       -22.8840
  31   2.0000      -0.811375       -22.0786
  32   2.0000      -0.781312       -21.2606
  33   2.0000      -0.769518       -20.9397
  34   2.0000      -0.709086       -19.2952
  35   2.0000      -0.695110       -18.9149
  36   2.0000      -0.679498       -18.4901
  37   2.0000      -0.654140       -17.8000
  38   2.0000      -0.641329       -17.4514
  39   2.0000      -0.616393       -16.7729
  40   2.0000      -0.588756       -16.0209
  41   2.0000      -0.574782       -15.6406
  42   2.0000      -0.568864       -15.4796
  43   2.0000      -0.555003       -15.1024
  44   2.0000      -0.544329       -14.8119
  45   2.0000      -0.521702       -14.1962
  46   2.0000      -0.518313       -14.1040
  47   2.0000      -0.507495       -13.8096
  48   2.0000      -0.503851       -13.7105
  49   2.0000      -0.497787       -13.5455
  50   2.0000      -0.489550       -13.3213
  51   2.0000      -0.479277       -13.0418
  52   2.0000      -0.465879       -12.6772
  53   2.0000      -0.462571       -12.5872
  54   2.0000      -0.455348       -12.3907
  55   2.0000      -0.448357       -12.2004
  56   2.0000      -0.446822       -12.1586
  57   2.0000      -0.431359       -11.7379
  58   2.0000      -0.428796       -11.6681
  59   2.0000      -0.424388       -11.5482
  60   2.0000      -0.421467       -11.4687
  61   2.0000      -0.412039       -11.2121
  62   2.0000      -0.400040       -10.8857
  63   2.0000      -0.337313        -9.1787
  64   2.0000      -0.329561        -8.9678
  65   2.0000      -0.313965        -8.5434
  66   2.0000      -0.305510        -8.3133
  67   0.0000       0.048226         1.3123
  68   0.0000       0.054157         1.4737
  69   0.0000       0.104634         2.8472
  70   0.0000       0.121587         3.3085
  71   0.0000       0.135636         3.6908

MULLIKEN ATOMIC CHARGES
-----------------------
   0 S :    0.157023
   1 C :   -0.141083
   2 C :   -0.067830
   3 C :    0.023848
   4 C :   -0.161697
   5 H :    0.026124
   6 C :    0.036595
   7 H :    0.021561
   8 H :    0.038217
   9 C :   -0.131940
  10 H :    0.040925
  11 H :    0.035579
  12 C :   -0.057347
  13 H :    0.038009
  14 H :    0.045221
  15 H :    0.040952
  16 S :    0.096674
  17 C :   -0.094994
  18 C :   -0.043857
  19 C :   -0.062870
  20 C :   -0.187863
  21 H :    0.041415
  22 C :    0.077547
  23 H :    0.027612
  24 H :    0.031136
  25 C :   -0.023640
  26 H :   -0.001130
  27 H :    0.005896
  28 C :   -0.025244
  29 H :    0.017730
  30 H :    0.037801
  31 H :    0.038490
  32 H :    0.069004
  33 H :    0.052133
Sum of atomic charges:   -0.0000000

LOEWDIN ATOMIC CHARGES
----------------------
   0 S :    0.473906
   1 C :   -0.233892
   2 C :   -0.064616
   3 C :   -0.055002
   4 C :   -0.229745
   5 H :    0.032708
   6 C :   -0.041928
   7 H :    0.030747
   8 H :    0.033231
   9 C :   -0.053750
  10 H :    0.026203
  11 H :    0.024139
  12 C :   -0.067132
  13 H :    0.024164
  14 H :    0.034132
  15 H :    0.029482
  16 S :    0.404924
  17 C :   -0.179931
  18 C :   -0.074395
  19 C :   -0.048881
  20 C :   -0.218711
  21 H :    0.040833
  22 C :   -0.032022
  23 H :    0.027116
  24 H :    0.036557
  25 C :   -0.042888
  26 H :    0.015835
  27 H :    0.022928
  28 C :   -0.057517
  29 H :    0.030972
  30 H :    0.020943
  31 H :    0.029416
  32 H :    0.041098
  33 H :    0.021077

  Mayer bond orders larger than 0.100000
B(  0-S ,  1-C ) :   1.1763 B(  0-S ,  4-C ) :   1.1883 B(  1-C ,  2-C ) :   1.5649
B(  1-C , 32-H ) :   0.9635 B(  2-C ,  3-C ) :   1.2881 B(  2-C ,  6-C ) :   1.0114
B(  3-C ,  4-C ) :   1.5221 B(  3-C ,  5-H ) :   0.9889 B(  4-C , 20-C ) :   1.0068
B(  6-C ,  7-H ) :   0.9444 B(  6-C ,  8-H ) :   0.9379 B(  6-C ,  9-C ) :   1.0725
B(  9-C , 10-H ) :   0.9591 B(  9-C , 11-H ) :   0.9464 B(  9-C , 12-C ) :   1.0851
B( 12-C , 13-H ) :   0.9745 B( 12-C , 14-H ) :   0.9726 B( 12-C , 15-H ) :   0.9738
B( 16-S , 17-C ) :   1.1527 B( 16-S , 20-C ) :   1.1425 B( 17-C , 18-C ) :   1.6393
B( 17-C , 33-H ) :   0.9658 B( 18-C , 19-C ) :   1.1906 B( 18-C , 21-H ) :   0.9852
B( 19-C , 20-C ) :   1.6246 B( 19-C , 22-C ) :   1.0338 B( 22-C , 23-H ) :   0.9345
B( 22-C , 24-H ) :   0.9317 B( 22-C , 25-C ) :   1.0836 B( 25-C , 26-H ) :   0.9526
B( 25-C , 27-H ) :   0.9414 B( 25-C , 28-C ) :   1.0720 B( 28-C , 29-H ) :   0.9675
B( 28-C , 30-H ) :   0.9775 B( 28-C , 31-H ) :   0.9718

Dispersion correction           -0.015328297
FINAL SINGLE POINT ENERGY     -1339.863793021848

DIPOLE MOMENT
-------------
                                X             Y             Z
Electronic contribution:     -9.81988      11.68377     -22.00800
Nuclear contribution   :     10.12606     -11.80319      22.47912
                        -----------------------------------------
Total Dipole Moment    :      0.30617      -0.11942       0.47113
                        -----------------------------------------
Magnitude (a.u.)       :      0.57443
Magnitude (Debye)      :      1.46007

Rotational constants in cm-1:     0.019802     0.008437     0.007546
Rotational constants in MHz :   593.660009   252.936622   226.209703

                             ****ORCA TERMINATED NORMALLY****
TOTAL RUN TIME: 0 days 0 hours 0 minutes 21 seconds 160 msec
