                         Program Version 4.2.1 -  RELEASE  -
|  1> ! wB97X-D3 SP def2-SVP
|  2> %pal
|  3> nprocs 24
|  4> end
|  5>
|  6> * xyz 0 1
|  7> S 	 33.2938 	 -3.90964 	 -122.372
|  8> C 	 31.725 	 -3.20208 	 -122.244
|  9> C 	 31.2662 	 -3.19217 	 -120.944
| 10> C 	 32.1394 	 -3.85907 	 -120.057
| 11> C 	 33.2707 	 -4.44956 	 -120.703
| 12> H 	 32.1358 	 -4.00418 	 -119
| 13> C 	 29.9071 	 -2.71986 	 -120.449
| 14> H 	 29.1412 	 -2.59822 	 -121.28
| 15> H 	 30.1556 	 -1.73335 	 -120.082
| 16> C 	 29.2493 	 -3.57804 	 -119.378
| 17> H 	 29.144 	 -4.56848 	 -119.809
| 18> H 	 29.7964 	 -3.87626 	 -118.578
| 19> C 	 27.9366 	 -2.99948 	 -118.876
| 20> H 	 28.0925 	 -1.94314 	 -118.622
| 21> H 	 27.2226 	 -3.13225 	 -119.673
| 22> H 	 27.4356 	 -3.41172 	 -118.117
| 23> S 	 35.2152 	 -6.09667 	 -121.542
| 24> C 	 36.1897 	 -7.04766 	 -120.473
| 25> C 	 35.7761 	 -6.87705 	 -119.168
| 26> C 	 34.8516 	 -5.81104 	 -118.998
| 27> C 	 34.3075 	 -5.38473 	 -120.251
| 28> H 	 36.2623 	 -7.46981 	 -118.461
| 29> C 	 34.3066 	 -5.49916 	 -117.66
| 30> H 	 34.6171 	 -6.34679 	 -117.063
| 31> H 	 33.1993 	 -5.53989 	 -117.646
| 32> C 	 34.9264 	 -4.2288 	 -117.08
| 33> H 	 34.8686 	 -3.40747 	 -117.782
| 34> H 	 35.968 	 -4.36244 	 -116.934
| 35> C 	 34.4259 	 -3.97341 	 -115.646
| 36> H 	 35.0016 	 -3.19483 	 -115.205
| 37> H 	 34.6107 	 -4.75455 	 -115.061
| 38> H 	 33.405 	 -3.71862 	 -115.577
| 39> H 	 31.2173 	 -2.64262 	 -123.09
| 40> H 	 36.8286 	 -7.85639 	 -120.74
| 41> *
| 42>
| 43>                          ****END OF INPUT****

CARTESIAN COORDINATES (ANGSTROEM)
---------------------------------
  S     33.293800   -3.909640  -122.372000
  C     31.725000   -3.202080  -122.244000
  C     31.266200   -3.192170  -120.944000
  C     32.139400   -3.859070  -120.057000
  C     33.270700   -4.449560  -120.703000
  H     32.135800   -4.004180  -119.000000
  C     29.907100   -2.719860  -120.449000
  H     29.141200   -2.598220  -121.280000
  H     30.155600   -1.733350  -120.082000
  C     29.249300   -3.578040  -119.378000
  H     29.144000   -4.568480  -119.809000
  H     29.796400   -3.876260  -118.578000
  C     27.936600   -2.999480  -118.876000
  H     28.092500   -1.943140  -118.622000
  H     27.222600   -3.132250  -119.673000
  H     27.435600   -3.411720  -118.117000
  S     35.215200   -6.096670  -121.542000
  C     36.189700   -7.047660  -120.473000
  C     35.776100   -6.877050  -119.168000
  C     34.851600   -5.811040  -118.998000
  C     34.307500   -5.384730  -120.251000
  H     36.262300   -7.469810  -118.461000
  C     34.306600   -5.499160  -117.660000
  H     34.617100   -6.346790  -117.063000
  H     33.199300   -5.539890  -117.646000
  C     34.926400   -4.228800  -117.080000
  H     34.868600   -3.407470  -117.782000
  H     35.968000   -4.362440  -116.934000
  C     34.425900   -3.973410  -115.646000
  H     35.001600   -3.194830  -115.205000
  H     34.610700   -4.754550  -115.061000
  H     33.405000   -3.718620  -115.577000
  H     31.217300   -2.642620  -123.090000
  H     36.828600   -7.856390  -120.740000

 Total Charge           Charge          ....    0
 Multiplicity           Mult            ....    1
 Number of Electrons    NEL             ....  134
 Basis Dimension        Dim             ....  322

ORBITAL ENERGIES
----------------

  NO   OCC          E(Eh)            E(eV)
   0   2.0000     -88.965315     -2420.8693
   1   2.0000     -88.964999     -2420.8607
   2   2.0000     -10.335743      -281.2499
   3   2.0000     -10.332587      -281.1640
   4   2.0000     -10.314791      -280.6797
   5   2.0000     -10.311850      -280.5997
   6   2.0000     -10.304615      -280.4028
   7   2.0000     -10.302144      -280.3356
   8   2.0000     -10.296751      -280.1888
   9   2.0000     -10.295400      -280.1521
  10   2.0000     -10.289527      -279.9923
  11   2.0000     -10.289126      -279.9814
  12   2.0000     -10.281011      -279.7605
  13   2.0000     -10.275965      -279.6232
  14   2.0000     -10.267612      -279.3959
  15   2.0000     -10.261250      -279.2228
  16   2.0000      -8.080472      -219.8808
  17   2.0000      -8.080410      -219.8791
  18   2.0000      -6.038902      -164.3269
  19   2.0000      -6.038870      -164.3260
  20   2.0000      -6.034879      -164.2174
  21   2.0000      -6.034719      -164.2130
  22   2.0000      -6.031413      -164.1231
  23   2.0000      -6.031174      -164.1166
  24   2.0000      -1.009538       -27.4709
  25   2.0000      -0.986519       -26.8445
  26   2.0000      -0.918424       -24.9916
  27   2.0000      -0.914631       -24.8884
  28   2.0000      -0.874399       -23.7936
  29   2.0000      -0.856650       -23.3106
  30   2.0000      -0.848600       -23.0916
  31   2.0000      -0.816675       -22.2228
  32   2.0000      -0.784862       -21.3572
  33   2.0000      -0.774357       -21.0713
  34   2.0000      -0.720563       -19.6075
  35   2.0000      -0.709845       -19.3159
  36   2.0000      -0.692950       -18.8561
  37   2.0000      -0.669081       -18.2066
  38   2.0000      -0.638095       -17.3634
  39   2.0000      -0.622721       -16.9451
  40   2.0000      -0.596463       -16.2306
  41   2.0000      -0.573339       -15.6013
  42   2.0000      -0.567896       -15.4532
  43   2.0000      -0.565895       -15.3988
  44   2.0000      -0.530571       -14.4376
  45   2.0000      -0.529583       -14.4107
  46   2.0000      -0.518148       -14.0995
  47   2.0000      -0.513035       -13.9604
  48   2.0000      -0.509807       -13.8725
  49   2.0000      -0.501068       -13.6347
  50   2.0000      -0.498918       -13.5763
  51   2.0000      -0.489763       -13.3271
  52   2.0000      -0.471423       -12.8281
  53   2.0000      -0.464790       -12.6476
  54   2.0000      -0.462630       -12.5888
  55   2.0000      -0.451899       -12.2968
  56   2.0000      -0.446970       -12.1627
  57   2.0000      -0.444433       -12.0936
  58   2.0000      -0.436709       -11.8834
  59   2.0000      -0.426394       -11.6028
  60   2.0000      -0.419026       -11.4023
  61   2.0000      -0.413907       -11.2630
  62   2.0000      -0.408995       -11.1293
  63   2.0000      -0.359873        -9.7926
  64   2.0000      -0.334969        -9.1150
  65   2.0000      -0.326367        -8.8809
  66   2.0000      -0.276598        -7.5266
  67   0.0000       0.013953         0.3797
  68   0.0000       0.088121         2.3979
  69   0.0000       0.102097         2.7782
  70   0.0000       0.118413         3.2222
  71   0.0000       0.135421         3.6850

MULLIKEN ATOMIC CHARGES
-----------------------
   0 S :    0.100600
   1 C :   -0.146516
   2 C :   -0.057804
   3 C :    0.010093
   4 C :   -0.141931
   5 H :   -0.005443
   6 C :    0.061035
   7 H :    0.035868
   8 H :    0.034261
   9 C :   -0.050904
  10 H :    0.018997
  11 H :   -0.003170
  12 C :    0.009433
  13 H :    0.029807
  14 H :    0.018340
  15 H :   -0.002049
  16 S :    0.091221
  17 C :   -0.069461
  18 C :   -0.026528
  19 C :   -0.049095
  20 C :   -0.108160
  21 H :    0.000374
  22 C :    0.031311
  23 H :    0.007776
  24 H :    0.038510
  25 C :   -0.069883
  26 H :    0.033923
  27 H :    0.013852
  28 C :    0.049465
  29 H :    0.016740
  30 H :   -0.009369
  31 H :    0.017719
  32 H :    0.072022
  33 H :    0.048965
Sum of atomic charges:    0.0000000

LOEWDIN ATOMIC CHARGES
----------------------
   0 S :    0.410684
   1 C :   -0.219985
   2 C :   -0.066377
   3 C :   -0.067585
   4 C :   -0.185379
   5 H :    0.024219
   6 C :   -0.027135
   7 H :    0.038272
   8 H :    0.031525
   9 C :   -0.041597
  10 H :    0.028806
  11 H :    0.007312
  12 C :   -0.052461
  13 H :    0.030333
  14 H :    0.027123
  15 H :    0.008754
  16 S :    0.424515
  17 C :   -0.191160
  18 C :   -0.063646
  19 C :   -0.058199
  20 C :   -0.198658
  21 H :    0.022793
  22 C :   -0.036300
  23 H :    0.030160
  24 H :    0.030402
  25 C :   -0.030387
  26 H :    0.023910
  27 H :    0.023443
  28 C :   -0.046305
  29 H :    0.026050
  30 H :    0.007670
  31 H :    0.018697
  32 H :    0.043728
  33 H :    0.026779

  Mayer bond orders larger than 0.100000
B(  0-S ,  1-C ) :   1.1395 B(  0-S ,  4-C ) :   1.1665 B(  1-C ,  2-C ) :   1.6011
B(  1-C ,  4-C ) :   0.1010 B(  1-C , 32-H ) :   0.9589 B(  2-C ,  3-C ) :   1.2556
B(  2-C ,  6-C ) :   1.0040 B(  3-C ,  4-C ) :   1.5326 B(  3-C ,  5-H ) :   0.9969
B(  4-C , 20-C ) :   1.0892 B(  6-C ,  7-H ) :   0.9548 B(  6-C ,  8-H ) :   0.9260
B(  6-C ,  9-C ) :   1.0648 B(  9-C , 10-H ) :   0.9504 B(  9-C , 11-H ) :   0.9464
B(  9-C , 12-C ) :   1.0822 B( 12-C , 13-H ) :   0.9748 B( 12-C , 14-H ) :   0.9729
B( 12-C , 15-H ) :   0.9711 B( 16-S , 17-C ) :   1.1634 B( 16-S , 20-C ) :   1.1604
B( 17-C , 18-C ) :   1.6009 B( 17-C , 20-C ) :   0.1008 B( 17-C , 33-H ) :   0.9659
B( 18-C , 19-C ) :   1.2703 B( 18-C , 21-H ) :   0.9912 B( 19-C , 20-C ) :   1.5082
B( 19-C , 22-C ) :   1.0512 B( 22-C , 23-H ) :   0.9297 B( 22-C , 24-H ) :   0.9454
B( 22-C , 25-C ) :   1.0509 B( 25-C , 26-H ) :   0.9637 B( 25-C , 27-H ) :   0.9494
B( 25-C , 28-C ) :   1.0818 B( 28-C , 29-H ) :   0.9705 B( 28-C , 30-H ) :   0.9656
B( 28-C , 31-H ) :   0.9739

Dispersion correction           -0.013628725
FINAL SINGLE POINT ENERGY     -1339.843408289977

DIPOLE MOMENT
-------------
                                X             Y             Z
Electronic contribution:     16.81845      -7.74308     -25.10952
Nuclear contribution   :    -17.05613       7.65844      25.77530
                        -----------------------------------------
Total Dipole Moment    :     -0.23768      -0.08464       0.66578
                        -----------------------------------------
Magnitude (a.u.)       :      0.71198
Magnitude (Debye)      :      1.80971

Rotational constants in cm-1:     0.016673     0.009226     0.006497
Rotational constants in MHz :   499.846795   276.598627   194.776511

                             ****ORCA TERMINATED NORMALLY****
TOTAL RUN TIME: 0 days 0 hours 0 minutes 21 seconds 327 msec
