                         Program Version 4.2.1 -  RELEASE  -
|  1> ! wB97X-D3 SP def2-SVP
|  2> %pal
|  3> nprocs 24
|  4> end
|  5>
|  6> * xyz 0 1
|  7> S 	 -46.2211 	 10.7108 	 26.4463
|  8> C 	 -45.673 	 12.1521 	 27.2593
|  9> C 	 -46.6834 	 13.1192 	 27.3038
| 10> C 	 -47.9577 	 12.572 	 26.8635
| 11> C 	 -47.8512 	 11.3084 	 26.3845
| 12> H 	 -48.8811 	 13.1862 	 26.8759
| 13> C 	 -46.4725 	 14.5708 	 27.7437
| 14> H 	 -45.4069 	 14.7388 	 28.0134
| 15> H 	 -47.0597 	 14.689 	 28.6248
| 16> C 	 -46.8126 	 15.525 	 26.6601
| 17> H 	 -47.785 	 15.2716 	 26.2324
| 18> H 	 -46.9802 	 16.5368 	 27.0732
| 19> C 	 -45.8227 	 15.6031 	 25.4406
| 20> H 	 -46.0088 	 16.4092 	 24.7668
| 21> H 	 -44.8251 	 15.5304 	 25.7593
| 22> H 	 -45.9177 	 14.7367 	 24.7453
| 23> S 	 -49.053 	 8.81552 	 26.2079
| 24> C 	 -50.7662 	 8.8035 	 25.8139
| 25> C 	 -51.1218 	 9.92062 	 25.0796
| 26> C 	 -50.0904 	 10.932 	 25.1392
| 27> C 	 -49.0225 	 10.5392 	 25.988
| 28> H 	 -52.0489 	 9.84563 	 24.56
| 29> C 	 -50.195 	 12.2891 	 24.4736
| 30> H 	 -49.9472 	 12.124 	 23.413
| 31> H 	 -49.3374 	 12.9325 	 24.6835
| 32> C 	 -51.5386 	 12.9953 	 24.6204
| 33> H 	 -52.2595 	 12.2541 	 24.2995
| 34> H 	 -51.5216 	 13.8436 	 23.9783
| 35> C 	 -51.8229 	 13.5538 	 26.0094
| 36> H 	 -51.8236 	 12.7421 	 26.6751
| 37> H 	 -52.7746 	 13.9031 	 25.9754
| 38> H 	 -51.1869 	 14.3721 	 26.3301
| 39> H 	 -44.6246 	 12.3363 	 27.494
| 40> H 	 -51.3805 	 7.95606 	 25.8475
| 41> *
| 42>
| 43>                          ****END OF INPUT****

CARTESIAN COORDINATES (ANGSTROEM)
---------------------------------
  S    -46.221100   10.710800   26.446300
  C    -45.673000   12.152100   27.259300
  C    -46.683400   13.119200   27.303800
  C    -47.957700   12.572000   26.863500
  C    -47.851200   11.308400   26.384500
  H    -48.881100   13.186200   26.875900
  C    -46.472500   14.570800   27.743700
  H    -45.406900   14.738800   28.013400
  H    -47.059700   14.689000   28.624800
  C    -46.812600   15.525000   26.660100
  H    -47.785000   15.271600   26.232400
  H    -46.980200   16.536800   27.073200
  C    -45.822700   15.603100   25.440600
  H    -46.008800   16.409200   24.766800
  H    -44.825100   15.530400   25.759300
  H    -45.917700   14.736700   24.745300
  S    -49.053000    8.815520   26.207900
  C    -50.766200    8.803500   25.813900
  C    -51.121800    9.920620   25.079600
  C    -50.090400   10.932000   25.139200
  C    -49.022500   10.539200   25.988000
  H    -52.048900    9.845630   24.560000
  C    -50.195000   12.289100   24.473600
  H    -49.947200   12.124000   23.413000
  H    -49.337400   12.932500   24.683500
  C    -51.538600   12.995300   24.620400
  H    -52.259500   12.254100   24.299500
  H    -51.521600   13.843600   23.978300
  C    -51.822900   13.553800   26.009400
  H    -51.823600   12.742100   26.675100
  H    -52.774600   13.903100   25.975400
  H    -51.186900   14.372100   26.330100
  H    -44.624600   12.336300   27.494000
  H    -51.380500    7.956060   25.847500

 Total Charge           Charge          ....    0
 Multiplicity           Mult            ....    1
 Number of Electrons    NEL             ....  134
 Basis Dimension        Dim             ....  322

ORBITAL ENERGIES
----------------

  NO   OCC          E(Eh)            E(eV)
   0   2.0000     -88.965877     -2420.8846
   1   2.0000     -88.963557     -2420.8215
   2   2.0000     -10.326502      -280.9984
   3   2.0000     -10.325832      -280.9802
   4   2.0000     -10.313491      -280.6443
   5   2.0000     -10.313414      -280.6423
   6   2.0000     -10.309232      -280.5285
   7   2.0000     -10.303096      -280.3615
   8   2.0000     -10.296717      -280.1879
   9   2.0000     -10.292969      -280.0859
  10   2.0000     -10.292040      -280.0607
  11   2.0000     -10.288912      -279.9755
  12   2.0000     -10.287007      -279.9237
  13   2.0000     -10.281610      -279.7768
  14   2.0000     -10.274881      -279.5937
  15   2.0000     -10.264037      -279.2987
  16   2.0000      -8.080941      -219.8936
  17   2.0000      -8.078607      -219.8301
  18   2.0000      -6.039563      -164.3449
  19   2.0000      -6.037058      -164.2767
  20   2.0000      -6.035505      -164.2344
  21   2.0000      -6.033516      -164.1803
  22   2.0000      -6.031482      -164.1250
  23   2.0000      -6.028974      -164.0567
  24   2.0000      -1.007277       -27.4094
  25   2.0000      -0.983379       -26.7591
  26   2.0000      -0.915285       -24.9062
  27   2.0000      -0.912485       -24.8300
  28   2.0000      -0.869682       -23.6652
  29   2.0000      -0.851293       -23.1649
  30   2.0000      -0.840807       -22.8795
  31   2.0000      -0.817294       -22.2397
  32   2.0000      -0.787865       -21.4389
  33   2.0000      -0.777060       -21.1449
  34   2.0000      -0.711206       -19.3529
  35   2.0000      -0.699322       -19.0295
  36   2.0000      -0.694068       -18.8865
  37   2.0000      -0.653153       -17.7732
  38   2.0000      -0.636174       -17.3112
  39   2.0000      -0.626090       -17.0368
  40   2.0000      -0.602807       -16.4032
  41   2.0000      -0.567008       -15.4291
  42   2.0000      -0.562007       -15.2930
  43   2.0000      -0.555216       -15.1082
  44   2.0000      -0.545484       -14.8434
  45   2.0000      -0.534982       -14.5576
  46   2.0000      -0.523877       -14.2554
  47   2.0000      -0.509202       -13.8561
  48   2.0000      -0.503410       -13.6985
  49   2.0000      -0.494349       -13.4519
  50   2.0000      -0.484504       -13.1840
  51   2.0000      -0.478572       -13.0226
  52   2.0000      -0.474500       -12.9118
  53   2.0000      -0.471837       -12.8393
  54   2.0000      -0.458387       -12.4733
  55   2.0000      -0.454115       -12.3571
  56   2.0000      -0.448109       -12.1937
  57   2.0000      -0.440959       -11.9991
  58   2.0000      -0.439042       -11.9469
  59   2.0000      -0.428584       -11.6624
  60   2.0000      -0.420728       -11.4486
  61   2.0000      -0.409849       -11.1526
  62   2.0000      -0.407327       -11.0839
  63   2.0000      -0.354395        -9.6436
  64   2.0000      -0.330725        -8.9995
  65   2.0000      -0.322556        -8.7772
  66   2.0000      -0.283170        -7.7055
  67   0.0000       0.023949         0.6517
  68   0.0000       0.072019         1.9597
  69   0.0000       0.099704         2.7131
  70   0.0000       0.121967         3.3189
  71   0.0000       0.128711         3.5024

MULLIKEN ATOMIC CHARGES
-----------------------
   0 S :    0.107756
   1 C :   -0.131770
   2 C :   -0.116847
   3 C :   -0.010681
   4 C :   -0.116956
   5 H :    0.023508
   6 C :    0.112189
   7 H :    0.019225
   8 H :    0.032428
   9 C :   -0.087885
  10 H :    0.016494
  11 H :    0.030316
  12 C :   -0.032166
  13 H :    0.031474
  14 H :    0.016285
  15 H :    0.032129
  16 S :    0.101856
  17 C :   -0.068806
  18 C :   -0.041263
  19 C :   -0.042946
  20 C :   -0.141393
  21 H :    0.019795
  22 C :    0.054413
  23 H :    0.031768
  24 H :    0.010438
  25 C :   -0.061973
  26 H :    0.028362
  27 H :    0.018184
  28 C :    0.016969
  29 H :    0.023498
  30 H :    0.006135
  31 H :    0.032795
  32 H :    0.052428
  33 H :    0.034243
Sum of atomic charges:    0.0000000

LOEWDIN ATOMIC CHARGES
----------------------
   0 S :    0.402785
   1 C :   -0.206640
   2 C :   -0.055793
   3 C :   -0.068878
   4 C :   -0.194740
   5 H :    0.036454
   6 C :   -0.028629
   7 H :    0.032186
   8 H :    0.031599
   9 C :   -0.043257
  10 H :    0.019786
  11 H :    0.026102
  12 C :   -0.062316
  13 H :    0.024710
  14 H :    0.015236
  15 H :    0.032283
  16 S :    0.399771
  17 C :   -0.168786
  18 C :   -0.068873
  19 C :   -0.048444
  20 C :   -0.197110
  21 H :    0.030654
  22 C :   -0.044757
  23 H :    0.039109
  24 H :    0.028445
  25 C :   -0.031047
  26 H :    0.023022
  27 H :    0.020672
  28 C :   -0.051227
  29 H :    0.021289
  30 H :    0.015855
  31 H :    0.025575
  32 H :    0.028686
  33 H :    0.016279

  Mayer bond orders larger than 0.100000
B(  0-S ,  1-C ) :   1.1270 B(  0-S ,  4-C ) :   1.1407 B(  1-C ,  2-C ) :   1.6213
B(  1-C , 32-H ) :   0.9666 B(  2-C ,  3-C ) :   1.2259 B(  2-C ,  6-C ) :   1.0201
B(  3-C ,  4-C ) :   1.5793 B(  3-C ,  5-H ) :   0.9859 B(  4-C , 20-C ) :   1.0737
B(  6-C ,  7-H ) :   0.9425 B(  6-C ,  8-H ) :   0.9329 B(  6-C ,  9-C ) :   1.0804
B(  9-C , 10-H ) :   0.9557 B(  9-C , 11-H ) :   0.9553 B(  9-C , 12-C ) :   1.0621
B( 12-C , 13-H ) :   0.9758 B( 12-C , 14-H ) :   0.9780 B( 12-C , 15-H ) :   0.9737
B( 16-S , 17-C ) :   1.1517 B( 16-S , 20-C ) :   1.1355 B( 17-C , 18-C ) :   1.6216
B( 17-C , 20-C ) :   0.1006 B( 17-C , 33-H ) :   0.9734 B( 18-C , 19-C ) :   1.2111
B( 18-C , 21-H ) :   0.9964 B( 19-C , 20-C ) :   1.5517 B( 19-C , 22-C ) :   1.0488
B( 22-C , 23-H ) :   0.9196 B( 22-C , 24-H ) :   0.9284 B( 22-C , 25-C ) :   1.0771
B( 25-C , 26-H ) :   0.9534 B( 25-C , 27-H ) :   0.9491 B( 25-C , 28-C ) :   1.0914
B( 28-C , 29-H ) :   0.9707 B( 28-C , 30-H ) :   0.9653 B( 28-C , 31-H ) :   0.9676

Dispersion correction           -0.015396514
FINAL SINGLE POINT ENERGY     -1339.864947043948

DIPOLE MOMENT
-------------
                                X             Y             Z
Electronic contribution:      7.03214     -28.24201       4.08717
Nuclear contribution   :     -7.37602      28.87581      -4.36658
                        -----------------------------------------
Total Dipole Moment    :     -0.34389       0.63380      -0.27941
                        -----------------------------------------
Magnitude (a.u.)       :      0.77332
Magnitude (Debye)      :      1.96563

Rotational constants in cm-1:     0.018603     0.010185     0.007195
Rotational constants in MHz :   557.701388   305.353285   215.706260

                             ****ORCA TERMINATED NORMALLY****
TOTAL RUN TIME: 0 days 0 hours 0 minutes 22 seconds 752 msec
