                         Program Version 4.2.1 -  RELEASE  -
|  1> ! wB97X-D3 SP def2-SVP
|  2> %pal
|  3> nprocs 24
|  4> end
|  5>
|  6> * xyz 0 1
|  7> S 	 -49.461 	 4.06695 	 -17.7028
|  8> C 	 -49.9489 	 2.6819 	 -18.5562
|  9> C 	 -50.4857 	 1.74931 	 -17.6909
| 10> C 	 -50.3395 	 2.09599 	 -16.2849
| 11> C 	 -49.8102 	 3.403 	 -16.1734
| 12> H 	 -50.6022 	 1.48269 	 -15.4465
| 13> C 	 -51.1415 	 0.405532 	 -18.0432
| 14> H 	 -50.4799 	 -0.33918 	 -17.7177
| 15> H 	 -51.2947 	 0.212532 	 -19.1198
| 16> C 	 -52.5457 	 0.27847 	 -17.3893
| 17> H 	 -52.5455 	 0.399406 	 -16.2978
| 18> H 	 -53.1679 	 1.07129 	 -17.6121
| 19> C 	 -53.2861 	 -0.98827 	 -17.8303
| 20> H 	 -54.2317 	 -1.11702 	 -17.336
| 21> H 	 -53.5063 	 -1.12427 	 -18.9078
| 22> H 	 -52.7555 	 -1.85752 	 -17.5867
| 23> S 	 -50.154 	 5.7296 	 -14.637
| 24> C 	 -49.2006 	 5.82271 	 -13.241
| 25> C 	 -48.3533 	 4.78781 	 -13.0076
| 26> C 	 -48.4984 	 3.80904 	 -13.9779
| 27> C 	 -49.4128 	 4.11782 	 -14.9571
| 28> H 	 -47.7226 	 4.85196 	 -12.1402
| 29> C 	 -47.6732 	 2.54341 	 -13.9653
| 30> H 	 -46.688 	 2.82237 	 -13.6546
| 31> H 	 -47.5014 	 2.22303 	 -14.9386
| 32> C 	 -48.2073 	 1.35833 	 -13.1088
| 33> H 	 -48.9317 	 0.791384 	 -13.6822
| 34> H 	 -48.6481 	 1.74101 	 -12.2426
| 35> C 	 -47.0616 	 0.380917 	 -12.7699
| 36> H 	 -46.2933 	 0.785628 	 -12.1554
| 37> H 	 -46.5633 	 -0.0330856 	 -13.6718
| 38> H 	 -47.357 	 -0.514091 	 -12.3027
| 39> H 	 -50.0797 	 2.57085 	 -19.6364
| 40> H 	 -49.1221 	 6.74378 	 -12.7364
| 41> *
| 42>
| 43>                          ****END OF INPUT****

CARTESIAN COORDINATES (ANGSTROEM)
---------------------------------
  S    -49.461000    4.066950  -17.702800
  C    -49.948900    2.681900  -18.556200
  C    -50.485700    1.749310  -17.690900
  C    -50.339500    2.095990  -16.284900
  C    -49.810200    3.403000  -16.173400
  H    -50.602200    1.482690  -15.446500
  C    -51.141500    0.405532  -18.043200
  H    -50.479900   -0.339180  -17.717700
  H    -51.294700    0.212532  -19.119800
  C    -52.545700    0.278470  -17.389300
  H    -52.545500    0.399406  -16.297800
  H    -53.167900    1.071290  -17.612100
  C    -53.286100   -0.988270  -17.830300
  H    -54.231700   -1.117020  -17.336000
  H    -53.506300   -1.124270  -18.907800
  H    -52.755500   -1.857520  -17.586700
  S    -50.154000    5.729600  -14.637000
  C    -49.200600    5.822710  -13.241000
  C    -48.353300    4.787810  -13.007600
  C    -48.498400    3.809040  -13.977900
  C    -49.412800    4.117820  -14.957100
  H    -47.722600    4.851960  -12.140200
  C    -47.673200    2.543410  -13.965300
  H    -46.688000    2.822370  -13.654600
  H    -47.501400    2.223030  -14.938600
  C    -48.207300    1.358330  -13.108800
  H    -48.931700    0.791384  -13.682200
  H    -48.648100    1.741010  -12.242600
  C    -47.061600    0.380917  -12.769900
  H    -46.293300    0.785628  -12.155400
  H    -46.563300   -0.033086  -13.671800
  H    -47.357000   -0.514091  -12.302700
  H    -50.079700    2.570850  -19.636400
  H    -49.122100    6.743780  -12.736400

 Total Charge           Charge          ....    0
 Multiplicity           Mult            ....    1
 Number of Electrons    NEL             ....  134
 Basis Dimension        Dim             ....  322

ORBITAL ENERGIES
----------------

  NO   OCC          E(Eh)            E(eV)
   0   2.0000     -88.965171     -2420.8654
   1   2.0000     -88.963376     -2420.8165
   2   2.0000     -10.327478      -281.0250
   3   2.0000     -10.323516      -280.9172
   4   2.0000     -10.308902      -280.5195
   5   2.0000     -10.305787      -280.4347
   6   2.0000     -10.301774      -280.3255
   7   2.0000     -10.297587      -280.2116
   8   2.0000     -10.296759      -280.1891
   9   2.0000     -10.291320      -280.0411
  10   2.0000     -10.284989      -279.8688
  11   2.0000     -10.284141      -279.8457
  12   2.0000     -10.281948      -279.7860
  13   2.0000     -10.279540      -279.7205
  14   2.0000     -10.272412      -279.5266
  15   2.0000     -10.272052      -279.5167
  16   2.0000      -8.081425      -219.9068
  17   2.0000      -8.078872      -219.8373
  18   2.0000      -6.039847      -164.3526
  19   2.0000      -6.037065      -164.2769
  20   2.0000      -6.035519      -164.2348
  21   2.0000      -6.033399      -164.1771
  22   2.0000      -6.032383      -164.1495
  23   2.0000      -6.029807      -164.0794
  24   2.0000      -1.011095       -27.5133
  25   2.0000      -0.991589       -26.9825
  26   2.0000      -0.909599       -24.7514
  27   2.0000      -0.908815       -24.7301
  28   2.0000      -0.868764       -23.6403
  29   2.0000      -0.856470       -23.3057
  30   2.0000      -0.847035       -23.0490
  31   2.0000      -0.812698       -22.1146
  32   2.0000      -0.785742       -21.3811
  33   2.0000      -0.773497       -21.0479
  34   2.0000      -0.715123       -19.4595
  35   2.0000      -0.709708       -19.3121
  36   2.0000      -0.695047       -18.9132
  37   2.0000      -0.662317       -18.0226
  38   2.0000      -0.641918       -17.4675
  39   2.0000      -0.621460       -16.9108
  40   2.0000      -0.602262       -16.3884
  41   2.0000      -0.571730       -15.5576
  42   2.0000      -0.563237       -15.3264
  43   2.0000      -0.555598       -15.1186
  44   2.0000      -0.527043       -14.3416
  45   2.0000      -0.519398       -14.1335
  46   2.0000      -0.517658       -14.0862
  47   2.0000      -0.510521       -13.8920
  48   2.0000      -0.509228       -13.8568
  49   2.0000      -0.499597       -13.5947
  50   2.0000      -0.496223       -13.5029
  51   2.0000      -0.475042       -12.9266
  52   2.0000      -0.469683       -12.7807
  53   2.0000      -0.467112       -12.7108
  54   2.0000      -0.460227       -12.5234
  55   2.0000      -0.455141       -12.3850
  56   2.0000      -0.450043       -12.2463
  57   2.0000      -0.441349       -12.0097
  58   2.0000      -0.434720       -11.8293
  59   2.0000      -0.430795       -11.7225
  60   2.0000      -0.424874       -11.5614
  61   2.0000      -0.419192       -11.4068
  62   2.0000      -0.411224       -11.1900
  63   2.0000      -0.337873        -9.1940
  64   2.0000      -0.336586        -9.1590
  65   2.0000      -0.327378        -8.9084
  66   2.0000      -0.297793        -8.1034
  67   0.0000       0.038293         1.0420
  68   0.0000       0.069580         1.8934
  69   0.0000       0.119533         3.2527
  70   0.0000       0.124300         3.3824
  71   0.0000       0.135186         3.6786

MULLIKEN ATOMIC CHARGES
-----------------------
   0 S :    0.132565
   1 C :   -0.113159
   2 C :   -0.111846
   3 C :    0.027483
   4 C :   -0.155588
   5 H :    0.014117
   6 C :    0.090745
   7 H :    0.026189
   8 H :    0.019149
   9 C :   -0.067258
  10 H :    0.023983
  11 H :    0.012895
  12 C :   -0.032010
  13 H :    0.024248
  14 H :    0.030741
  15 H :    0.008365
  16 S :    0.106816
  17 C :   -0.071513
  18 C :   -0.039056
  19 C :   -0.004018
  20 C :   -0.186624
  21 H :    0.012046
  22 C :    0.105253
  23 H :    0.003975
  24 H :    0.006508
  25 C :   -0.017588
  26 H :    0.026152
  27 H :    0.017995
  28 C :   -0.045844
  29 H :    0.025707
  30 H :    0.023340
  31 H :    0.015551
  32 H :    0.051496
  33 H :    0.039184
Sum of atomic charges:    0.0000000

LOEWDIN ATOMIC CHARGES
----------------------
   0 S :    0.453056
   1 C :   -0.228339
   2 C :   -0.059954
   3 C :   -0.059725
   4 C :   -0.211029
   5 H :    0.027144
   6 C :   -0.024569
   7 H :    0.025011
   8 H :    0.030603
   9 C :   -0.037422
  10 H :    0.025729
  11 H :    0.017612
  12 C :   -0.066180
  13 H :    0.025819
  14 H :    0.028477
  15 H :    0.015219
  16 S :    0.404690
  17 C :   -0.183991
  18 C :   -0.075476
  19 C :   -0.049327
  20 C :   -0.191851
  21 H :    0.034358
  22 C :   -0.020722
  23 H :    0.026600
  24 H :    0.022150
  25 C :   -0.021807
  26 H :    0.023341
  27 H :    0.015828
  28 C :   -0.064665
  29 H :    0.019356
  30 H :    0.029433
  31 H :    0.018453
  32 H :    0.034911
  33 H :    0.017267

  Mayer bond orders larger than 0.100000
B(  0-S ,  1-C ) :   1.1435 B(  0-S ,  4-C ) :   1.1982 B(  1-C ,  2-C ) :   1.6121
B(  1-C , 32-H ) :   0.9642 B(  2-C ,  3-C ) :   1.2397 B(  2-C ,  6-C ) :   1.0231
B(  3-C ,  4-C ) :   1.5360 B(  3-C ,  5-H ) :   0.9997 B(  4-C , 20-C ) :   1.0147
B(  6-C ,  7-H ) :   0.9374 B(  6-C ,  8-H ) :   0.9501 B(  6-C ,  9-C ) :   1.0512
B(  9-C , 10-H ) :   0.9513 B(  9-C , 11-H ) :   0.9547 B(  9-C , 12-C ) :   1.0898
B( 12-C , 13-H ) :   0.9716 B( 12-C , 14-H ) :   0.9737 B( 12-C , 15-H ) :   0.9733
B( 16-S , 17-C ) :   1.1811 B( 16-S , 20-C ) :   1.1302 B( 17-C , 18-C ) :   1.6081
B( 17-C , 33-H ) :   0.9637 B( 18-C , 19-C ) :   1.2312 B( 18-C , 21-H ) :   1.0026
B( 19-C , 20-C ) :   1.6122 B( 19-C , 22-C ) :   1.0431 B( 22-C , 23-H ) :   0.9384
B( 22-C , 24-H ) :   0.9189 B( 22-C , 25-C ) :   1.0562 B( 25-C , 26-H ) :   0.9515
B( 25-C , 27-H ) :   0.9610 B( 25-C , 28-C ) :   1.0861 B( 28-C , 29-H ) :   0.9773
B( 28-C , 30-H ) :   0.9718 B( 28-C , 31-H ) :   0.9729

Dispersion correction           -0.014069993
FINAL SINGLE POINT ENERGY     -1339.876908863935

DIPOLE MOMENT
-------------
                                X             Y             Z
Electronic contribution:      1.99497      29.02962      -4.30849
Nuclear contribution   :     -1.91385     -29.55400       4.50168
                        -----------------------------------------
Total Dipole Moment    :      0.08112      -0.52438       0.19320
                        -----------------------------------------
Magnitude (a.u.)       :      0.56469
Magnitude (Debye)      :      1.43534

Rotational constants in cm-1:     0.016912     0.008654     0.006785
Rotational constants in MHz :   507.011458   259.441945   203.405782

                             ****ORCA TERMINATED NORMALLY****
TOTAL RUN TIME: 0 days 0 hours 0 minutes 21 seconds 420 msec
