                         Program Version 4.2.1 -  RELEASE  -
|  1> ! wB97X-D3 SP def2-SVP
|  2> %pal
|  3> nprocs 24
|  4> end
|  5>
|  6> * xyz 0 1
|  7> S 	 -137.536 	 2.71307 	 4.55274
|  8> C 	 -137.509 	 1.36057 	 3.408
|  9> C 	 -136.615 	 0.349703 	 3.77848
| 10> C 	 -135.999 	 0.689926 	 5.05406
| 11> C 	 -136.468 	 1.82924 	 5.61439
| 12> H 	 -135.176 	 0.246903 	 5.54136
| 13> C 	 -136.16 	 -0.866166 	 2.99587
| 14> H 	 -136.92 	 -1.18711 	 2.34428
| 15> H 	 -135.854 	 -1.76396 	 3.62656
| 16> C 	 -134.902 	 -0.668697 	 2.1758
| 17> H 	 -134.865 	 0.155603 	 1.50126
| 18> H 	 -134.093 	 -0.588389 	 2.90646
| 19> C 	 -134.513 	 -1.93765 	 1.40135
| 20> H 	 -134.566 	 -2.80235 	 1.90668
| 21> H 	 -135.225 	 -2.07406 	 0.558132
| 22> H 	 -133.526 	 -1.89293 	 0.936149
| 23> S 	 -135.249 	 3.96837 	 6.74022
| 24> C 	 -135.119 	 4.15692 	 8.47665
| 25> C 	 -135.684 	 3.10841 	 9.10297
| 26> C 	 -136.148 	 2.08637 	 8.19317
| 27> C 	 -136.006 	 2.37822 	 6.84351
| 28> H 	 -135.622 	 3.0852 	 10.2001
| 29> C 	 -136.86 	 0.852594 	 8.69136
| 30> H 	 -137.451 	 0.471438 	 7.86637
| 31> H 	 -137.569 	 1.05138 	 9.49872
| 32> C 	 -135.997 	 -0.314269 	 9.15645
| 33> H 	 -136.69 	 -0.944201 	 9.70599
| 34> H 	 -135.178 	 0.0253316 	 9.78021
| 35> C 	 -135.464 	 -1.12391 	 7.98453
| 36> H 	 -134.57 	 -0.590243 	 7.52895
| 37> H 	 -136.266 	 -1.16904 	 7.27469
| 38> H 	 -134.852 	 -2.01043 	 8.34403
| 39> H 	 -137.945 	 1.25542 	 2.42386
| 40> H 	 -134.621 	 4.98049 	 8.93993
| 41> *
| 42>
| 43>                          ****END OF INPUT****

CARTESIAN COORDINATES (ANGSTROEM)
---------------------------------
  S    -137.536000    2.713070    4.552740
  C    -137.509000    1.360570    3.408000
  C    -136.615000    0.349703    3.778480
  C    -135.999000    0.689926    5.054060
  C    -136.468000    1.829240    5.614390
  H    -135.176000    0.246903    5.541360
  C    -136.160000   -0.866166    2.995870
  H    -136.920000   -1.187110    2.344280
  H    -135.854000   -1.763960    3.626560
  C    -134.902000   -0.668697    2.175800
  H    -134.865000    0.155603    1.501260
  H    -134.093000   -0.588389    2.906460
  C    -134.513000   -1.937650    1.401350
  H    -134.566000   -2.802350    1.906680
  H    -135.225000   -2.074060    0.558132
  H    -133.526000   -1.892930    0.936149
  S    -135.249000    3.968370    6.740220
  C    -135.119000    4.156920    8.476650
  C    -135.684000    3.108410    9.102970
  C    -136.148000    2.086370    8.193170
  C    -136.006000    2.378220    6.843510
  H    -135.622000    3.085200   10.200100
  C    -136.860000    0.852594    8.691360
  H    -137.451000    0.471438    7.866370
  H    -137.569000    1.051380    9.498720
  C    -135.997000   -0.314269    9.156450
  H    -136.690000   -0.944201    9.705990
  H    -135.178000    0.025332    9.780210
  C    -135.464000   -1.123910    7.984530
  H    -134.570000   -0.590243    7.528950
  H    -136.266000   -1.169040    7.274690
  H    -134.852000   -2.010430    8.344030
  H    -137.945000    1.255420    2.423860
  H    -134.621000    4.980490    8.939930

 Total Charge           Charge          ....    0
 Multiplicity           Mult            ....    1
 Number of Electrons    NEL             ....  134
 Basis Dimension        Dim             ....  322

ORBITAL ENERGIES
----------------

  NO   OCC          E(Eh)            E(eV)
   0   2.0000     -88.971024     -2421.0247
   1   2.0000     -88.957647     -2420.6606
   2   2.0000     -10.324923      -280.9554
   3   2.0000     -10.324123      -280.9337
   4   2.0000     -10.318886      -280.7912
   5   2.0000     -10.314074      -280.6602
   6   2.0000     -10.307421      -280.4792
   7   2.0000     -10.305525      -280.4276
   8   2.0000     -10.295379      -280.1515
   9   2.0000     -10.293912      -280.1116
  10   2.0000     -10.288891      -279.9750
  11   2.0000     -10.283662      -279.8327
  12   2.0000     -10.283576      -279.8303
  13   2.0000     -10.281135      -279.7639
  14   2.0000     -10.280181      -279.7380
  15   2.0000     -10.271231      -279.4944
  16   2.0000      -8.085111      -220.0071
  17   2.0000      -8.072859      -219.6737
  18   2.0000      -6.043835      -164.4611
  19   2.0000      -6.039768      -164.3504
  20   2.0000      -6.035602      -164.2371
  21   2.0000      -6.031406      -164.1229
  22   2.0000      -6.027240      -164.0096
  23   2.0000      -6.023586      -163.9101
  24   2.0000      -1.009415       -27.4676
  25   2.0000      -0.983131       -26.7523
  26   2.0000      -0.918334       -24.9891
  27   2.0000      -0.912353       -24.8264
  28   2.0000      -0.877160       -23.8687
  29   2.0000      -0.850430       -23.1414
  30   2.0000      -0.843033       -22.9401
  31   2.0000      -0.820338       -22.3225
  32   2.0000      -0.783426       -21.3181
  33   2.0000      -0.771586       -20.9959
  34   2.0000      -0.710788       -19.3415
  35   2.0000      -0.702300       -19.1106
  36   2.0000      -0.692327       -18.8392
  37   2.0000      -0.656033       -17.8516
  38   2.0000      -0.646889       -17.6028
  39   2.0000      -0.621265       -16.9055
  40   2.0000      -0.603773       -16.4295
  41   2.0000      -0.581863       -15.8333
  42   2.0000      -0.566816       -15.4238
  43   2.0000      -0.553680       -15.0664
  44   2.0000      -0.542726       -14.7683
  45   2.0000      -0.526077       -14.3153
  46   2.0000      -0.518922       -14.1206
  47   2.0000      -0.515738       -14.0339
  48   2.0000      -0.505905       -13.7664
  49   2.0000      -0.501651       -13.6506
  50   2.0000      -0.490017       -13.3340
  51   2.0000      -0.478380       -13.0174
  52   2.0000      -0.469802       -12.7840
  53   2.0000      -0.463015       -12.5993
  54   2.0000      -0.453364       -12.3367
  55   2.0000      -0.452461       -12.3121
  56   2.0000      -0.441479       -12.0133
  57   2.0000      -0.441009       -12.0005
  58   2.0000      -0.431912       -11.7529
  59   2.0000      -0.427872       -11.6430
  60   2.0000      -0.420206       -11.4344
  61   2.0000      -0.414169       -11.2701
  62   2.0000      -0.403059       -10.9678
  63   2.0000      -0.345134        -9.3916
  64   2.0000      -0.330817        -9.0020
  65   2.0000      -0.325811        -8.8658
  66   2.0000      -0.300879        -8.1873
  67   0.0000       0.035514         0.9664
  68   0.0000       0.062711         1.7064
  69   0.0000       0.111361         3.0303
  70   0.0000       0.121832         3.3152
  71   0.0000       0.126552         3.4437

MULLIKEN ATOMIC CHARGES
-----------------------
   0 S :    0.132375
   1 C :   -0.102134
   2 C :   -0.066314
   3 C :    0.048051
   4 C :   -0.150933
   5 H :   -0.010209
   6 C :    0.058066
   7 H :    0.006429
   8 H :    0.037568
   9 C :   -0.062503
  10 H :    0.028617
  11 H :    0.023710
  12 C :   -0.024576
  13 H :   -0.001233
  14 H :    0.020133
  15 H :    0.035917
  16 S :    0.075217
  17 C :   -0.083720
  18 C :   -0.027562
  19 C :   -0.019077
  20 C :   -0.165338
  21 H :    0.028564
  22 C :    0.034348
  23 H :    0.022178
  24 H :    0.027166
  25 C :   -0.050022
  26 H :    0.028213
  27 H :    0.024255
  28 C :   -0.076198
  29 H :    0.035001
  30 H :    0.040125
  31 H :    0.042079
  32 H :    0.039179
  33 H :    0.052628
Sum of atomic charges:    0.0000000

LOEWDIN ATOMIC CHARGES
----------------------
   0 S :    0.404769
   1 C :   -0.192842
   2 C :   -0.054270
   3 C :   -0.048687
   4 C :   -0.202044
   5 H :    0.024265
   6 C :   -0.033212
   7 H :    0.019646
   8 H :    0.043248
   9 C :   -0.033569
  10 H :    0.019712
  11 H :    0.023853
  12 C :   -0.058444
  13 H :    0.004542
  14 H :    0.025943
  15 H :    0.030290
  16 S :    0.386589
  17 C :   -0.171847
  18 C :   -0.077984
  19 C :   -0.052575
  20 C :   -0.193895
  21 H :    0.037858
  22 C :   -0.034945
  23 H :    0.028471
  24 H :    0.031921
  25 C :   -0.038438
  26 H :    0.023529
  27 H :    0.021043
  28 C :   -0.075399
  29 H :    0.027619
  30 H :    0.021040
  31 H :    0.036168
  32 H :    0.029955
  33 H :    0.027691

  Mayer bond orders larger than 0.100000
B(  0-S ,  1-C ) :   1.1228 B(  0-S ,  4-C ) :   1.1188 B(  1-C ,  2-C ) :   1.6457
B(  1-C , 32-H ) :   0.9615 B(  2-C ,  3-C ) :   1.1920 B(  2-C ,  6-C ) :   1.0347
B(  3-C ,  4-C ) :   1.6238 B(  3-C ,  5-H ) :   0.9931 B(  4-C , 20-C ) :   1.0473
B(  6-C ,  7-H ) :   0.9379 B(  6-C ,  8-H ) :   0.9426 B(  6-C ,  9-C ) :   1.0606
B(  9-C , 10-H ) :   0.9582 B(  9-C , 11-H ) :   0.9563 B(  9-C , 12-C ) :   1.0851
B( 12-C , 13-H ) :   0.9718 B( 12-C , 14-H ) :   0.9730 B( 12-C , 15-H ) :   0.9734
B( 16-S , 17-C ) :   1.1493 B( 16-S , 20-C ) :   1.1230 B( 17-C , 18-C ) :   1.6288
B( 17-C , 33-H ) :   0.9701 B( 18-C , 19-C ) :   1.2167 B( 18-C , 21-H ) :   0.9903
B( 19-C , 20-C ) :   1.6090 B( 19-C , 22-C ) :   1.0483 B( 22-C , 23-H ) :   0.9349
B( 22-C , 24-H ) :   0.9398 B( 22-C , 25-C ) :   1.0718 B( 25-C , 26-H ) :   0.9530
B( 25-C , 27-H ) :   0.9546 B( 25-C , 28-C ) :   1.0896 B( 28-C , 29-H ) :   0.9666
B( 28-C , 30-H ) :   0.9681 B( 28-C , 31-H ) :   0.9642

Dispersion correction           -0.014792689
FINAL SINGLE POINT ENERGY     -1339.863809007829

DIPOLE MOMENT
-------------
                                X             Y             Z
Electronic contribution:     -7.11567      26.94874       3.87307
Nuclear contribution   :      7.36789     -27.46075      -3.74359
                        -----------------------------------------
Total Dipole Moment    :      0.25221      -0.51201       0.12948
                        -----------------------------------------
Magnitude (a.u.)       :      0.58526
Magnitude (Debye)      :      1.48761

Rotational constants in cm-1:     0.019978     0.008493     0.006989
Rotational constants in MHz :   598.935916   254.607123   209.529177

                             ****ORCA TERMINATED NORMALLY****
TOTAL RUN TIME: 0 days 0 hours 0 minutes 21 seconds 83 msec
