                         Program Version 4.2.1 -  RELEASE  -
|  1> ! wB97X-D3 SP def2-SVP
|  2> %pal
|  3> nprocs 24
|  4> end
|  5>
|  6> * xyz 0 1
|  7> S 	 -92.481 	 -27.3648 	 -66.858
|  8> C 	 -94.0749 	 -27.6115 	 -67.6321
|  9> C 	 -94.9958 	 -28.0885 	 -66.7426
| 10> C 	 -94.4512 	 -28.3528 	 -65.389
| 11> C 	 -93.1468 	 -27.8838 	 -65.2853
| 12> H 	 -94.9994 	 -28.6944 	 -64.4938
| 13> C 	 -96.4472 	 -28.28 	 -67.0723
| 14> H 	 -96.89 	 -28.9602 	 -66.3664
| 15> H 	 -96.5608 	 -28.9981 	 -67.9538
| 16> C 	 -97.226 	 -27.0221 	 -67.4676
| 17> H 	 -96.7643 	 -26.6379 	 -68.3917
| 18> H 	 -98.1723 	 -27.2843 	 -67.8496
| 19> C 	 -97.0684 	 -25.8461 	 -66.4818
| 20> H 	 -97.4942 	 -24.9744 	 -66.9424
| 21> H 	 -97.6559 	 -25.9865 	 -65.5545
| 22> H 	 -96.0167 	 -25.6465 	 -66.2342
| 23> S 	 -90.7514 	 -28.5959 	 -64.229
| 24> C 	 -90.3846 	 -28.2047 	 -62.5677
| 25> C 	 -91.5468 	 -27.7997 	 -61.8902
| 26> C 	 -92.6072 	 -27.5386 	 -62.788
| 27> C 	 -92.3389 	 -27.8995 	 -64.0875
| 28> H 	 -91.5411 	 -27.7217 	 -60.8191
| 29> C 	 -93.8819 	 -26.9258 	 -62.2431
| 30> H 	 -94.1091 	 -27.1669 	 -61.154
| 31> H 	 -94.6582 	 -27.4467 	 -62.7623
| 32> C 	 -93.9895 	 -25.4644 	 -62.6484
| 33> H 	 -94.038 	 -25.1939 	 -63.6594
| 34> H 	 -93.1435 	 -24.8851 	 -62.3217
| 35> C 	 -95.3645 	 -24.8409 	 -62.2213
| 36> H 	 -95.4718 	 -23.7603 	 -62.2119
| 37> H 	 -95.4434 	 -25.1311 	 -61.1464
| 38> H 	 -96.131 	 -25.3991 	 -62.761
| 39> H 	 -94.4144 	 -27.3084 	 -68.5871
| 40> H 	 -89.4277 	 -28.3753 	 -62.0566
| 41> *
| 42>
| 43>                          ****END OF INPUT****

CARTESIAN COORDINATES (ANGSTROEM)
---------------------------------
  S    -92.481000  -27.364800  -66.858000
  C    -94.074900  -27.611500  -67.632100
  C    -94.995800  -28.088500  -66.742600
  C    -94.451200  -28.352800  -65.389000
  C    -93.146800  -27.883800  -65.285300
  H    -94.999400  -28.694400  -64.493800
  C    -96.447200  -28.280000  -67.072300
  H    -96.890000  -28.960200  -66.366400
  H    -96.560800  -28.998100  -67.953800
  C    -97.226000  -27.022100  -67.467600
  H    -96.764300  -26.637900  -68.391700
  H    -98.172300  -27.284300  -67.849600
  C    -97.068400  -25.846100  -66.481800
  H    -97.494200  -24.974400  -66.942400
  H    -97.655900  -25.986500  -65.554500
  H    -96.016700  -25.646500  -66.234200
  S    -90.751400  -28.595900  -64.229000
  C    -90.384600  -28.204700  -62.567700
  C    -91.546800  -27.799700  -61.890200
  C    -92.607200  -27.538600  -62.788000
  C    -92.338900  -27.899500  -64.087500
  H    -91.541100  -27.721700  -60.819100
  C    -93.881900  -26.925800  -62.243100
  H    -94.109100  -27.166900  -61.154000
  H    -94.658200  -27.446700  -62.762300
  C    -93.989500  -25.464400  -62.648400
  H    -94.038000  -25.193900  -63.659400
  H    -93.143500  -24.885100  -62.321700
  C    -95.364500  -24.840900  -62.221300
  H    -95.471800  -23.760300  -62.211900
  H    -95.443400  -25.131100  -61.146400
  H    -96.131000  -25.399100  -62.761000
  H    -94.414400  -27.308400  -68.587100
  H    -89.427700  -28.375300  -62.056600

 Total Charge           Charge          ....    0
 Multiplicity           Mult            ....    1
 Number of Electrons    NEL             ....  134
 Basis Dimension        Dim             ....  322

ORBITAL ENERGIES
----------------

  NO   OCC          E(Eh)            E(eV)
   0   2.0000     -88.969072     -2420.9715
   1   2.0000     -88.966849     -2420.9110
   2   2.0000     -10.334643      -281.2199
   3   2.0000     -10.322919      -280.9009
   4   2.0000     -10.319372      -280.8044
   5   2.0000     -10.312186      -280.6088
   6   2.0000     -10.304096      -280.3887
   7   2.0000     -10.302948      -280.3575
   8   2.0000     -10.301579      -280.3202
   9   2.0000     -10.295343      -280.1505
  10   2.0000     -10.293243      -280.0934
  11   2.0000     -10.292918      -280.0845
  12   2.0000     -10.288358      -279.9604
  13   2.0000     -10.277793      -279.6730
  14   2.0000     -10.277619      -279.6682
  15   2.0000     -10.277436      -279.6632
  16   2.0000      -8.082418      -219.9338
  17   2.0000      -8.081776      -219.9163
  18   2.0000      -6.041218      -164.3899
  19   2.0000      -6.040232      -164.3631
  20   2.0000      -6.037199      -164.2805
  21   2.0000      -6.036241      -164.2545
  22   2.0000      -6.032863      -164.1625
  23   2.0000      -6.032594      -164.1552
  24   2.0000      -1.007088       -27.4043
  25   2.0000      -0.978977       -26.6393
  26   2.0000      -0.912351       -24.8263
  27   2.0000      -0.910181       -24.7673
  28   2.0000      -0.868381       -23.6299
  29   2.0000      -0.851631       -23.1740
  30   2.0000      -0.840941       -22.8832
  31   2.0000      -0.812674       -22.1140
  32   2.0000      -0.782367       -21.2893
  33   2.0000      -0.771858       -21.0033
  34   2.0000      -0.710697       -19.3390
  35   2.0000      -0.706531       -19.2257
  36   2.0000      -0.695691       -18.9307
  37   2.0000      -0.667143       -18.1539
  38   2.0000      -0.635723       -17.2989
  39   2.0000      -0.610473       -16.6118
  40   2.0000      -0.593937       -16.1618
  41   2.0000      -0.576121       -15.6771
  42   2.0000      -0.563649       -15.3377
  43   2.0000      -0.549265       -14.9463
  44   2.0000      -0.536139       -14.5891
  45   2.0000      -0.527184       -14.3454
  46   2.0000      -0.516006       -14.0412
  47   2.0000      -0.512194       -13.9375
  48   2.0000      -0.508223       -13.8294
  49   2.0000      -0.500911       -13.6305
  50   2.0000      -0.495295       -13.4777
  51   2.0000      -0.477330       -12.9888
  52   2.0000      -0.475217       -12.9313
  53   2.0000      -0.460785       -12.5386
  54   2.0000      -0.458600       -12.4791
  55   2.0000      -0.446866       -12.1598
  56   2.0000      -0.445019       -12.1096
  57   2.0000      -0.434445       -11.8219
  58   2.0000      -0.433551       -11.7975
  59   2.0000      -0.426688       -11.6108
  60   2.0000      -0.419024       -11.4022
  61   2.0000      -0.407725       -11.0948
  62   2.0000      -0.404754       -11.0139
  63   2.0000      -0.346546        -9.4300
  64   2.0000      -0.332239        -9.0407
  65   2.0000      -0.328112        -8.9284
  66   2.0000      -0.291346        -7.9279
  67   0.0000       0.024300         0.6612
  68   0.0000       0.069338         1.8868
  69   0.0000       0.101013         2.7487
  70   0.0000       0.114352         3.1117
  71   0.0000       0.127746         3.4761

MULLIKEN ATOMIC CHARGES
-----------------------
   0 S :    0.106124
   1 C :   -0.086735
   2 C :   -0.115916
   3 C :    0.023774
   4 C :   -0.152527
   5 H :    0.040537
   6 C :    0.041849
   7 H :    0.011897
   8 H :    0.032437
   9 C :   -0.034326
  10 H :    0.012507
  11 H :    0.014930
  12 C :   -0.048005
  13 H :    0.026034
  14 H :    0.032908
  15 H :    0.056402
  16 S :    0.115547
  17 C :   -0.106852
  18 C :   -0.042069
  19 C :   -0.040293
  20 C :   -0.148354
  21 H :    0.017109
  22 C :    0.101022
  23 H :    0.040431
  24 H :   -0.015452
  25 C :   -0.058879
  26 H :    0.028090
  27 H :    0.021164
  28 C :   -0.062445
  29 H :    0.043542
  30 H :    0.015474
  31 H :    0.035195
  32 H :    0.029692
  33 H :    0.065187
Sum of atomic charges:    0.0000000

LOEWDIN ATOMIC CHARGES
----------------------
   0 S :    0.373942
   1 C :   -0.181976
   2 C :   -0.058766
   3 C :   -0.062578
   4 C :   -0.177752
   5 H :    0.037163
   6 C :   -0.046193
   7 H :    0.024749
   8 H :    0.041491
   9 C :   -0.037309
  10 H :    0.025004
  11 H :    0.019793
  12 C :   -0.065377
  13 H :    0.023821
  14 H :    0.024181
  15 H :    0.032398
  16 S :    0.418367
  17 C :   -0.189811
  18 C :   -0.068195
  19 C :   -0.054786
  20 C :   -0.207545
  21 H :    0.030336
  22 C :   -0.029584
  23 H :    0.040762
  24 H :    0.021707
  25 C :   -0.038498
  26 H :    0.022372
  27 H :    0.020850
  28 C :   -0.066639
  29 H :    0.026095
  30 H :    0.021596
  31 H :    0.024406
  32 H :    0.022762
  33 H :    0.033214

  Mayer bond orders larger than 0.100000
B(  0-S ,  1-C ) :   1.0980 B(  0-S ,  4-C ) :   1.1288 B(  1-C ,  2-C ) :   1.6704
B(  1-C , 32-H ) :   0.9687 B(  2-C ,  3-C ) :   1.1818 B(  2-C ,  6-C ) :   1.0264
B(  3-C ,  4-C ) :   1.6096 B(  3-C ,  5-H ) :   0.9790 B(  4-C , 20-C ) :   1.0503
B(  6-C ,  7-H ) :   0.9426 B(  6-C ,  8-H ) :   0.9357 B(  6-C ,  9-C ) :   1.0690
B(  9-C , 10-H ) :   0.9513 B(  9-C , 11-H ) :   0.9530 B(  9-C , 12-C ) :   1.0702
B( 12-C , 13-H ) :   0.9732 B( 12-C , 14-H ) :   0.9773 B( 12-C , 15-H ) :   0.9694
B( 16-S , 17-C ) :   1.1665 B( 16-S , 20-C ) :   1.1471 B( 17-C , 18-C ) :   1.5797
B( 17-C , 20-C ) :   0.1039 B( 17-C , 33-H ) :   0.9665 B( 18-C , 19-C ) :   1.2607
B( 18-C , 21-H ) :   0.9962 B( 19-C , 20-C ) :   1.5866 B( 19-C , 22-C ) :   1.0372
B( 22-C , 23-H ) :   0.9399 B( 22-C , 24-H ) :   0.9187 B( 22-C , 25-C ) :   1.0539
B( 25-C , 26-H ) :   0.9592 B( 25-C , 27-H ) :   0.9559 B( 25-C , 28-C ) :   1.0650
B( 28-C , 29-H ) :   0.9760 B( 28-C , 30-H ) :   0.9752 B( 28-C , 31-H ) :   0.9774

Dispersion correction           -0.015430422
FINAL SINGLE POINT ENERGY     -1339.863154436468

DIPOLE MOMENT
-------------
                                X             Y             Z
Electronic contribution:     26.78319     -12.80876      -5.29726
Nuclear contribution   :    -27.40004      12.91121       5.55002
                        -----------------------------------------
Total Dipole Moment    :     -0.61685       0.10245       0.25276
                        -----------------------------------------
Magnitude (a.u.)       :      0.67445
Magnitude (Debye)      :      1.71432

Rotational constants in cm-1:     0.019077     0.009994     0.007266
Rotational constants in MHz :   571.899096   299.603222   217.819458

                             ****ORCA TERMINATED NORMALLY****
TOTAL RUN TIME: 0 days 0 hours 0 minutes 21 seconds 458 msec
