                         Program Version 4.2.1 -  RELEASE  -
|  1> ! wB97X-D3 SP def2-SVP
|  2> %pal
|  3> nprocs 24
|  4> end
|  5>
|  6> * xyz 0 1
|  7> S 	 -112.434 	 58.1113 	 -25.229
|  8> C 	 -112.692 	 59.4475 	 -24.1005
|  9> C 	 -113.152 	 60.541 	 -24.7508
| 10> C 	 -113.487 	 60.2754 	 -26.1476
| 11> C 	 -113.096 	 59.0195 	 -26.5647
| 12> H 	 -114.063 	 60.9014 	 -26.832
| 13> C 	 -113.671 	 61.7853 	 -24.1041
| 14> H 	 -113.401 	 62.7222 	 -24.5852
| 15> H 	 -113.294 	 61.8668 	 -23.0627
| 16> C 	 -115.16 	 61.7948 	 -24.0755
| 17> H 	 -115.459 	 62.1637 	 -25.0907
| 18> H 	 -115.671 	 60.8079 	 -23.8795
| 19> C 	 -115.721 	 62.8965 	 -23.2353
| 20> H 	 -116.809 	 63.0967 	 -23.3773
| 21> H 	 -115.558 	 62.7619 	 -22.1056
| 22> H 	 -115.248 	 63.7749 	 -23.3672
| 23> S 	 -112.834 	 56.7822 	 -28.0627
| 24> C 	 -113.667 	 56.5527 	 -29.5508
| 25> C 	 -114.332 	 57.6976 	 -29.8835
| 26> C 	 -114.166 	 58.8234 	 -28.968
| 27> C 	 -113.363 	 58.4432 	 -27.879
| 28> H 	 -114.987 	 57.5599 	 -30.7404
| 29> C 	 -114.952 	 60.0602 	 -29.3395
| 30> H 	 -115.237 	 60.0481 	 -30.3748
| 31> H 	 -114.282 	 60.9328 	 -29.0837
| 32> C 	 -116.273 	 60.317 	 -28.5431
| 33> H 	 -116.5 	 61.369 	 -28.6745
| 34> H 	 -116.057 	 60.1218 	 -27.4892
| 35> C 	 -117.356 	 59.3823 	 -28.9551
| 36> H 	 -118.301 	 59.5381 	 -28.5036
| 37> H 	 -117.122 	 58.3714 	 -28.9007
| 38> H 	 -117.506 	 59.7282 	 -29.9891
| 39> H 	 -112.452 	 59.3888 	 -23.003
| 40> H 	 -113.788 	 55.5041 	 -29.9299
| 41> *
| 42>
| 43>                          ****END OF INPUT****

CARTESIAN COORDINATES (ANGSTROEM)
---------------------------------
  S    -112.434000   58.111300  -25.229000
  C    -112.692000   59.447500  -24.100500
  C    -113.152000   60.541000  -24.750800
  C    -113.487000   60.275400  -26.147600
  C    -113.096000   59.019500  -26.564700
  H    -114.063000   60.901400  -26.832000
  C    -113.671000   61.785300  -24.104100
  H    -113.401000   62.722200  -24.585200
  H    -113.294000   61.866800  -23.062700
  C    -115.160000   61.794800  -24.075500
  H    -115.459000   62.163700  -25.090700
  H    -115.671000   60.807900  -23.879500
  C    -115.721000   62.896500  -23.235300
  H    -116.809000   63.096700  -23.377300
  H    -115.558000   62.761900  -22.105600
  H    -115.248000   63.774900  -23.367200
  S    -112.834000   56.782200  -28.062700
  C    -113.667000   56.552700  -29.550800
  C    -114.332000   57.697600  -29.883500
  C    -114.166000   58.823400  -28.968000
  C    -113.363000   58.443200  -27.879000
  H    -114.987000   57.559900  -30.740400
  C    -114.952000   60.060200  -29.339500
  H    -115.237000   60.048100  -30.374800
  H    -114.282000   60.932800  -29.083700
  C    -116.273000   60.317000  -28.543100
  H    -116.500000   61.369000  -28.674500
  H    -116.057000   60.121800  -27.489200
  C    -117.356000   59.382300  -28.955100
  H    -118.301000   59.538100  -28.503600
  H    -117.122000   58.371400  -28.900700
  H    -117.506000   59.728200  -29.989100
  H    -112.452000   59.388800  -23.003000
  H    -113.788000   55.504100  -29.929900

 Total Charge           Charge          ....    0
 Multiplicity           Mult            ....    1
 Number of Electrons    NEL             ....  134
 Basis Dimension        Dim             ....  322

ORBITAL ENERGIES
----------------

  NO   OCC          E(Eh)            E(eV)
   0   2.0000     -88.964902     -2420.8581
   1   2.0000     -88.961221     -2420.7579
   2   2.0000     -10.334767      -281.2233
   3   2.0000     -10.331997      -281.1479
   4   2.0000     -10.318417      -280.7784
   5   2.0000     -10.317762      -280.7606
   6   2.0000     -10.313526      -280.6453
   7   2.0000     -10.301903      -280.3290
   8   2.0000     -10.299133      -280.2537
   9   2.0000     -10.295479      -280.1542
  10   2.0000     -10.295074      -280.1432
  11   2.0000     -10.290815      -280.0273
  12   2.0000     -10.288043      -279.9519
  13   2.0000     -10.285976      -279.8956
  14   2.0000     -10.275282      -279.6046
  15   2.0000     -10.267945      -279.4050
  16   2.0000      -8.079573      -219.8563
  17   2.0000      -8.077113      -219.7894
  18   2.0000      -6.038361      -164.3122
  19   2.0000      -6.035611      -164.2373
  20   2.0000      -6.034171      -164.1981
  21   2.0000      -6.031403      -164.1228
  22   2.0000      -6.029937      -164.0829
  23   2.0000      -6.027875      -164.0268
  24   2.0000      -1.009393       -27.4670
  25   2.0000      -0.986179       -26.8353
  26   2.0000      -0.924672       -25.1616
  27   2.0000      -0.916894       -24.9500
  28   2.0000      -0.875265       -23.8172
  29   2.0000      -0.856055       -23.2944
  30   2.0000      -0.844462       -22.9790
  31   2.0000      -0.816717       -22.2240
  32   2.0000      -0.785039       -21.3620
  33   2.0000      -0.777234       -21.1496
  34   2.0000      -0.711024       -19.3480
  35   2.0000      -0.698238       -19.0000
  36   2.0000      -0.687069       -18.6961
  37   2.0000      -0.667019       -18.1505
  38   2.0000      -0.634614       -17.2687
  39   2.0000      -0.620474       -16.8840
  40   2.0000      -0.598760       -16.2931
  41   2.0000      -0.579204       -15.7609
  42   2.0000      -0.566251       -15.4085
  43   2.0000      -0.556168       -15.1341
  44   2.0000      -0.554330       -15.0841
  45   2.0000      -0.528395       -14.3784
  46   2.0000      -0.516166       -14.0456
  47   2.0000      -0.512747       -13.9525
  48   2.0000      -0.505738       -13.7618
  49   2.0000      -0.501991       -13.6599
  50   2.0000      -0.497150       -13.5281
  51   2.0000      -0.488500       -13.2928
  52   2.0000      -0.475268       -12.9327
  53   2.0000      -0.464303       -12.6343
  54   2.0000      -0.462674       -12.5900
  55   2.0000      -0.444544       -12.0967
  56   2.0000      -0.442458       -12.0399
  57   2.0000      -0.439874       -11.9696
  58   2.0000      -0.436253       -11.8710
  59   2.0000      -0.424601       -11.5540
  60   2.0000      -0.416125       -11.3233
  61   2.0000      -0.411129       -11.1874
  62   2.0000      -0.404892       -11.0177
  63   2.0000      -0.367478        -9.9996
  64   2.0000      -0.333605        -9.0779
  65   2.0000      -0.323384        -8.7997
  66   2.0000      -0.285538        -7.7699
  67   0.0000       0.018979         0.5164
  68   0.0000       0.089862         2.4453
  69   0.0000       0.099106         2.6968
  70   0.0000       0.115461         3.1419
  71   0.0000       0.128008         3.4833

MULLIKEN ATOMIC CHARGES
-----------------------
   0 S :    0.094250
   1 C :   -0.146619
   2 C :   -0.028245
   3 C :   -0.036491
   4 C :   -0.078486
   5 H :    0.002781
   6 C :    0.062185
   7 H :    0.023474
   8 H :    0.016908
   9 C :   -0.099834
  10 H :    0.026595
  11 H :    0.053665
  12 C :   -0.030076
  13 H :    0.041697
  14 H :    0.024740
  15 H :   -0.007426
  16 S :    0.073466
  17 C :   -0.111699
  18 C :   -0.053543
  19 C :   -0.052885
  20 C :   -0.108117
  21 H :    0.026205
  22 C :    0.026589
  23 H :    0.020829
  24 H :    0.046598
  25 C :   -0.069266
  26 H :    0.031067
  27 H :    0.033101
  28 C :   -0.008297
  29 H :    0.024755
  30 H :    0.034671
  31 H :    0.009909
  32 H :    0.073142
  33 H :    0.084358
Sum of atomic charges:   -0.0000000

LOEWDIN ATOMIC CHARGES
----------------------
   0 S :    0.386408
   1 C :   -0.194510
   2 C :   -0.061663
   3 C :   -0.067586
   4 C :   -0.186023
   5 H :    0.028125
   6 C :   -0.034766
   7 H :    0.031929
   8 H :    0.027499
   9 C :   -0.047114
  10 H :    0.028519
  11 H :    0.032958
  12 C :   -0.066714
  13 H :    0.032481
  14 H :    0.027877
  15 H :    0.005814
  16 S :    0.406424
  17 C :   -0.201495
  18 C :   -0.078714
  19 C :   -0.055878
  20 C :   -0.186942
  21 H :    0.033564
  22 C :   -0.030856
  23 H :    0.027485
  24 H :    0.037246
  25 C :   -0.038165
  26 H :    0.023762
  27 H :    0.021469
  28 C :   -0.057526
  29 H :    0.022976
  30 H :    0.019969
  31 H :    0.026870
  32 H :    0.043854
  33 H :    0.042725

  Mayer bond orders larger than 0.100000
B(  0-S ,  1-C ) :   1.1080 B(  0-S ,  4-C ) :   1.1324 B(  1-C ,  2-C ) :   1.6543
B(  1-C , 32-H ) :   0.9593 B(  2-C ,  3-C ) :   1.1867 B(  2-C ,  6-C ) :   1.0489
B(  3-C ,  4-C ) :   1.6061 B(  3-C ,  5-H ) :   0.9900 B(  4-C , 20-C ) :   1.0900
B(  6-C ,  7-H ) :   0.9260 B(  6-C ,  8-H ) :   0.9488 B(  6-C ,  9-C ) :   1.0603
B(  9-C , 10-H ) :   0.9436 B(  9-C , 11-H ) :   0.9603 B(  9-C , 12-C ) :   1.0901
B( 12-C , 13-H ) :   0.9732 B( 12-C , 14-H ) :   0.9688 B( 12-C , 15-H ) :   0.9635
B( 16-S , 17-C ) :   1.1576 B( 16-S , 20-C ) :   1.1446 B( 17-C , 18-C ) :   1.6195
B( 17-C , 33-H ) :   0.9603 B( 18-C , 19-C ) :   1.2286 B( 18-C , 21-H ) :   0.9877
B( 19-C , 20-C ) :   1.5650 B( 19-C , 22-C ) :   1.0495 B( 22-C , 23-H ) :   0.9357
B( 22-C , 24-H ) :   0.9308 B( 22-C , 25-C ) :   1.0652 B( 25-C , 26-H ) :   0.9592
B( 25-C , 27-H ) :   0.9492 B( 25-C , 28-C ) :   1.0752 B( 28-C , 29-H ) :   0.9695
B( 28-C , 30-H ) :   0.9762 B( 28-C , 31-H ) :   0.9732

Dispersion correction           -0.014685508
FINAL SINGLE POINT ENERGY     -1339.864159776213

DIPOLE MOMENT
-------------
                                X             Y             Z
Electronic contribution:     21.79539     -22.36566      -3.07650
Nuclear contribution   :    -22.51815      22.81924       3.02024
                        -----------------------------------------
Total Dipole Moment    :     -0.72276       0.45358      -0.05627
                        -----------------------------------------
Magnitude (a.u.)       :      0.85516
Magnitude (Debye)      :      2.17364

Rotational constants in cm-1:     0.018842     0.009695     0.006816
Rotational constants in MHz :   564.875768   290.645291   204.325643

                             ****ORCA TERMINATED NORMALLY****
TOTAL RUN TIME: 0 days 0 hours 0 minutes 22 seconds 352 msec
