                         Program Version 4.2.1 -  RELEASE  -
|  1> ! wB97X-D3 SP def2-SVP
|  2> %pal
|  3> nprocs 24
|  4> end
|  5>
|  6> * xyz 0 1
|  7> S 	 -123.409 	 33.3274 	 -113.257
|  8> C 	 -123.679 	 31.571 	 -113.301
|  9> C 	 -124.132 	 31.1334 	 -112.067
| 10> C 	 -124.232 	 32.1641 	 -111.077
| 11> C 	 -123.737 	 33.3749 	 -111.497
| 12> H 	 -124.457 	 32.0639 	 -110.092
| 13> C 	 -124.705 	 29.7338 	 -111.865
| 14> H 	 -124.063 	 29.1121 	 -111.27
| 15> H 	 -124.693 	 29.2214 	 -112.87
| 16> C 	 -126.118 	 29.6502 	 -111.295
| 17> H 	 -126.109 	 29.8409 	 -110.235
| 18> H 	 -126.833 	 30.2659 	 -111.846
| 19> C 	 -126.749 	 28.2189 	 -111.158
| 20> H 	 -126.449 	 27.5241 	 -112.011
| 21> H 	 -126.344 	 27.8314 	 -110.274
| 22> H 	 -127.849 	 28.284 	 -111.082
| 23> S 	 -122.268 	 35.7021 	 -111.164
| 24> C 	 -122.779 	 36.7871 	 -109.937
| 25> C 	 -123.969 	 36.5157 	 -109.304
| 26> C 	 -124.46 	 35.2172 	 -109.705
| 27> C 	 -123.663 	 34.6665 	 -110.764
| 28> H 	 -124.436 	 37.0943 	 -108.547
| 29> C 	 -125.759 	 34.7154 	 -109.116
| 30> H 	 -126.047 	 35.2782 	 -108.23
| 31> H 	 -125.679 	 33.729 	 -108.775
| 32> C 	 -126.97 	 34.8768 	 -110.127
| 33> H 	 -126.635 	 34.1779 	 -110.869
| 34> H 	 -126.883 	 35.9172 	 -110.362
| 35> C 	 -128.348 	 34.6426 	 -109.508
| 36> H 	 -128.527 	 33.5782 	 -109.242
| 37> H 	 -129.215 	 34.9912 	 -110.15
| 38> H 	 -128.462 	 35.1567 	 -108.611
| 39> H 	 -123.763 	 30.9242 	 -114.221
| 40> H 	 -122.194 	 37.7018 	 -109.701
| 41> *
| 42>
| 43>                          ****END OF INPUT****

CARTESIAN COORDINATES (ANGSTROEM)
---------------------------------
  S    -123.409000   33.327400  -113.257000
  C    -123.679000   31.571000  -113.301000
  C    -124.132000   31.133400  -112.067000
  C    -124.232000   32.164100  -111.077000
  C    -123.737000   33.374900  -111.497000
  H    -124.457000   32.063900  -110.092000
  C    -124.705000   29.733800  -111.865000
  H    -124.063000   29.112100  -111.270000
  H    -124.693000   29.221400  -112.870000
  C    -126.118000   29.650200  -111.295000
  H    -126.109000   29.840900  -110.235000
  H    -126.833000   30.265900  -111.846000
  C    -126.749000   28.218900  -111.158000
  H    -126.449000   27.524100  -112.011000
  H    -126.344000   27.831400  -110.274000
  H    -127.849000   28.284000  -111.082000
  S    -122.268000   35.702100  -111.164000
  C    -122.779000   36.787100  -109.937000
  C    -123.969000   36.515700  -109.304000
  C    -124.460000   35.217200  -109.705000
  C    -123.663000   34.666500  -110.764000
  H    -124.436000   37.094300  -108.547000
  C    -125.759000   34.715400  -109.116000
  H    -126.047000   35.278200  -108.230000
  H    -125.679000   33.729000  -108.775000
  C    -126.970000   34.876800  -110.127000
  H    -126.635000   34.177900  -110.869000
  H    -126.883000   35.917200  -110.362000
  C    -128.348000   34.642600  -109.508000
  H    -128.527000   33.578200  -109.242000
  H    -129.215000   34.991200  -110.150000
  H    -128.462000   35.156700  -108.611000
  H    -123.763000   30.924200  -114.221000
  H    -122.194000   37.701800  -109.701000

 Total Charge           Charge          ....    0
 Multiplicity           Mult            ....    1
 Number of Electrons    NEL             ....  134
 Basis Dimension        Dim             ....  322

ORBITAL ENERGIES
----------------

  NO   OCC          E(Eh)            E(eV)
   0   2.0000     -88.972577     -2421.0669
   1   2.0000     -88.965228     -2420.8669
   2   2.0000     -10.336428      -281.2685
   3   2.0000     -10.335675      -281.2480
   4   2.0000     -10.319517      -280.8083
   5   2.0000     -10.319159      -280.7986
   6   2.0000     -10.313112      -280.6340
   7   2.0000     -10.303424      -280.3704
   8   2.0000     -10.295075      -280.1432
   9   2.0000     -10.294940      -280.1396
  10   2.0000     -10.289314      -279.9865
  11   2.0000     -10.287353      -279.9331
  12   2.0000     -10.286865      -279.9198
  13   2.0000     -10.283600      -279.8310
  14   2.0000     -10.282847      -279.8105
  15   2.0000     -10.280204      -279.7386
  16   2.0000      -8.087248      -220.0652
  17   2.0000      -8.078922      -219.8386
  18   2.0000      -6.045601      -164.5092
  19   2.0000      -6.041913      -164.4088
  20   2.0000      -6.038031      -164.3032
  21   2.0000      -6.037600      -164.2914
  22   2.0000      -6.033729      -164.1861
  23   2.0000      -6.029406      -164.0685
  24   2.0000      -1.001117       -27.2418
  25   2.0000      -0.980385       -26.6776
  26   2.0000      -0.909938       -24.7607
  27   2.0000      -0.907835       -24.7034
  28   2.0000      -0.866033       -23.5660
  29   2.0000      -0.853817       -23.2335
  30   2.0000      -0.844286       -22.9742
  31   2.0000      -0.815993       -22.2043
  32   2.0000      -0.784858       -21.3571
  33   2.0000      -0.767909       -20.8959
  34   2.0000      -0.708362       -19.2755
  35   2.0000      -0.695685       -18.9306
  36   2.0000      -0.684410       -18.6237
  37   2.0000      -0.664842       -18.0913
  38   2.0000      -0.641117       -17.4457
  39   2.0000      -0.622937       -16.9510
  40   2.0000      -0.598690       -16.2912
  41   2.0000      -0.577531       -15.7154
  42   2.0000      -0.573732       -15.6120
  43   2.0000      -0.556258       -15.1365
  44   2.0000      -0.523144       -14.2355
  45   2.0000      -0.516815       -14.0633
  46   2.0000      -0.513626       -13.9765
  47   2.0000      -0.511072       -13.9070
  48   2.0000      -0.507924       -13.8213
  49   2.0000      -0.493200       -13.4206
  50   2.0000      -0.488681       -13.2977
  51   2.0000      -0.485392       -13.2082
  52   2.0000      -0.467588       -12.7237
  53   2.0000      -0.465677       -12.6717
  54   2.0000      -0.461927       -12.5697
  55   2.0000      -0.457282       -12.4433
  56   2.0000      -0.448933       -12.2161
  57   2.0000      -0.435769       -11.8579
  58   2.0000      -0.433570       -11.7980
  59   2.0000      -0.426693       -11.6109
  60   2.0000      -0.420014       -11.4292
  61   2.0000      -0.412605       -11.2275
  62   2.0000      -0.409530       -11.1439
  63   2.0000      -0.354081        -9.6350
  64   2.0000      -0.335382        -9.1262
  65   2.0000      -0.330185        -8.9848
  66   2.0000      -0.284606        -7.7445
  67   0.0000       0.022886         0.6228
  68   0.0000       0.069409         1.8887
  69   0.0000       0.101708         2.7676
  70   0.0000       0.115518         3.1434
  71   0.0000       0.131871         3.5884

MULLIKEN ATOMIC CHARGES
-----------------------
   0 S :    0.083886
   1 C :   -0.132702
   2 C :   -0.075000
   3 C :    0.044646
   4 C :   -0.108878
   5 H :   -0.028997
   6 C :    0.070581
   7 H :    0.023759
   8 H :    0.015971
   9 C :   -0.095950
  10 H :    0.027029
  11 H :    0.041550
  12 C :   -0.066064
  13 H :    0.036277
  14 H :    0.020037
  15 H :    0.046053
  16 S :    0.124761
  17 C :   -0.089703
  18 C :   -0.009687
  19 C :   -0.061925
  20 C :   -0.159443
  21 H :    0.008832
  22 C :    0.058723
  23 H :    0.002692
  24 H :    0.012369
  25 C :   -0.052915
  26 H :    0.045150
  27 H :    0.027767
  28 C :   -0.036481
  29 H :    0.030143
  30 H :    0.047866
  31 H :    0.009344
  32 H :    0.072970
  33 H :    0.067340
Sum of atomic charges:    0.0000000

LOEWDIN ATOMIC CHARGES
----------------------
   0 S :    0.368951
   1 C :   -0.202294
   2 C :   -0.059806
   3 C :   -0.061511
   4 C :   -0.166240
   5 H :    0.013993
   6 C :   -0.033508
   7 H :    0.026630
   8 H :    0.031774
   9 C :   -0.043894
  10 H :    0.023661
  11 H :    0.024557
  12 C :   -0.062561
  13 H :    0.027182
  14 H :    0.013722
  15 H :    0.031862
  16 S :    0.417632
  17 C :   -0.193029
  18 C :   -0.067319
  19 C :   -0.042053
  20 C :   -0.197268
  21 H :    0.028625
  22 C :   -0.028987
  23 H :    0.024207
  24 H :    0.016511
  25 C :   -0.027462
  26 H :    0.026443
  27 H :    0.023974
  28 C :   -0.069808
  29 H :    0.028171
  30 H :    0.036879
  31 H :    0.013803
  32 H :    0.043620
  33 H :    0.033542

  Mayer bond orders larger than 0.100000
B(  0-S ,  1-C ) :   1.1129 B(  0-S ,  4-C ) :   1.1399 B(  1-C ,  2-C ) :   1.6407
B(  1-C , 32-H ) :   0.9559 B(  2-C ,  3-C ) :   1.2124 B(  2-C ,  6-C ) :   1.0291
B(  3-C ,  4-C ) :   1.5989 B(  3-C ,  5-H ) :   1.0135 B(  4-C , 20-C ) :   1.0414
B(  6-C ,  7-H ) :   0.9320 B(  6-C ,  8-H ) :   0.9422 B(  6-C ,  9-C ) :   1.0735
B(  9-C , 10-H ) :   0.9552 B(  9-C , 11-H ) :   0.9646 B(  9-C , 12-C ) :   1.0635
B( 12-C , 13-H ) :   0.9765 B( 12-C , 14-H ) :   0.9847 B( 12-C , 15-H ) :   0.9765
B( 16-S , 17-C ) :   1.1686 B( 16-S , 20-C ) :   1.1423 B( 17-C , 18-C ) :   1.5986
B( 17-C , 33-H ) :   0.9576 B( 18-C , 19-C ) :   1.2554 B( 18-C , 21-H ) :   0.9938
B( 19-C , 20-C ) :   1.5622 B( 19-C , 22-C ) :   1.0600 B( 22-C , 23-H ) :   0.9316
B( 22-C , 24-H ) :   0.9319 B( 22-C , 25-C ) :   1.0419 B( 25-C , 26-H ) :   0.9629
B( 25-C , 27-H ) :   0.9566 B( 25-C , 28-C ) :   1.0840 B( 28-C , 29-H ) :   0.9736
B( 28-C , 30-H ) :   0.9740 B( 28-C , 31-H ) :   0.9705

Dispersion correction           -0.013998569
FINAL SINGLE POINT ENERGY     -1339.862775406550

DIPOLE MOMENT
-------------
                                X             Y             Z
Electronic contribution:     25.67845      17.30844     -10.47255
Nuclear contribution   :    -26.22760     -17.48074      11.00615
                        -----------------------------------------
Total Dipole Moment    :     -0.54915      -0.17229       0.53360
                        -----------------------------------------
Magnitude (a.u.)       :      0.78484
Magnitude (Debye)      :      1.99491

Rotational constants in cm-1:     0.017460     0.009030     0.006543
Rotational constants in MHz :   523.426559   270.698866   196.163800

                             ****ORCA TERMINATED NORMALLY****
TOTAL RUN TIME: 0 days 0 hours 0 minutes 21 seconds 502 msec
