                         Program Version 4.2.1 -  RELEASE  -
|  1> ! wB97X-D3 SP def2-SVP
|  2> %pal
|  3> nprocs 24
|  4> end
|  5>
|  6> * xyz 0 1
|  7> S 	 -106.846 	 50.9625 	 -81.4098
|  8> C 	 -105.154 	 51.3481 	 -81.4816
|  9> C 	 -104.504 	 50.6642 	 -82.4759
| 10> C 	 -105.408 	 49.6618 	 -83.0596
| 11> C 	 -106.707 	 49.7383 	 -82.6196
| 12> H 	 -105.215 	 49.1186 	 -83.9948
| 13> C 	 -103.095 	 50.9036 	 -83.0215
| 14> H 	 -102.456 	 50.0642 	 -82.6326
| 15> H 	 -102.767 	 51.7834 	 -82.4379
| 16> C 	 -102.84 	 50.9749 	 -84.5576
| 17> H 	 -101.704 	 51.1401 	 -84.8071
| 18> H 	 -103.174 	 50.0587 	 -85.0699
| 19> C 	 -103.508 	 52.1851 	 -85.2194
| 20> H 	 -103.411 	 52.0206 	 -86.3044
| 21> H 	 -104.575 	 52.2975 	 -84.8932
| 22> H 	 -102.989 	 53.053 	 -84.9376
| 23> S 	 -109.149 	 49.8204 	 -83.8283
| 24> C 	 -109.912 	 48.2882 	 -84.3015
| 25> C 	 -109.116 	 47.2052 	 -84.0191
| 26> C 	 -107.956 	 47.5349 	 -83.2628
| 27> C 	 -107.87 	 48.9108 	 -83.0461
| 28> H 	 -109.332 	 46.1987 	 -84.2594
| 29> C 	 -106.965 	 46.4701 	 -82.9059
| 30> H 	 -106.166 	 47.0366 	 -82.4138
| 31> H 	 -106.644 	 46.1502 	 -83.8992
| 32> C 	 -107.524 	 45.202 	 -82.1993
| 33> H 	 -106.769 	 44.4144 	 -82.305
| 34> H 	 -108.311 	 44.9036 	 -82.8447
| 35> C 	 -107.984 	 45.3685 	 -80.741
| 36> H 	 -108.682 	 46.1868 	 -80.6641
| 37> H 	 -107.135 	 45.59 	 -80.0616
| 38> H 	 -108.486 	 44.4862 	 -80.2735
| 39> H 	 -104.818 	 52.3617 	 -81.1364
| 40> H 	 -110.83 	 48.3059 	 -84.8421
| 41> *
| 42>
| 43>                          ****END OF INPUT****

CARTESIAN COORDINATES (ANGSTROEM)
---------------------------------
  S    -106.846000   50.962500  -81.409800
  C    -105.154000   51.348100  -81.481600
  C    -104.504000   50.664200  -82.475900
  C    -105.408000   49.661800  -83.059600
  C    -106.707000   49.738300  -82.619600
  H    -105.215000   49.118600  -83.994800
  C    -103.095000   50.903600  -83.021500
  H    -102.456000   50.064200  -82.632600
  H    -102.767000   51.783400  -82.437900
  C    -102.840000   50.974900  -84.557600
  H    -101.704000   51.140100  -84.807100
  H    -103.174000   50.058700  -85.069900
  C    -103.508000   52.185100  -85.219400
  H    -103.411000   52.020600  -86.304400
  H    -104.575000   52.297500  -84.893200
  H    -102.989000   53.053000  -84.937600
  S    -109.149000   49.820400  -83.828300
  C    -109.912000   48.288200  -84.301500
  C    -109.116000   47.205200  -84.019100
  C    -107.956000   47.534900  -83.262800
  C    -107.870000   48.910800  -83.046100
  H    -109.332000   46.198700  -84.259400
  C    -106.965000   46.470100  -82.905900
  H    -106.166000   47.036600  -82.413800
  H    -106.644000   46.150200  -83.899200
  C    -107.524000   45.202000  -82.199300
  H    -106.769000   44.414400  -82.305000
  H    -108.311000   44.903600  -82.844700
  C    -107.984000   45.368500  -80.741000
  H    -108.682000   46.186800  -80.664100
  H    -107.135000   45.590000  -80.061600
  H    -108.486000   44.486200  -80.273500
  H    -104.818000   52.361700  -81.136400
  H    -110.830000   48.305900  -84.842100

 Total Charge           Charge          ....    0
 Multiplicity           Mult            ....    1
 Number of Electrons    NEL             ....  134
 Basis Dimension        Dim             ....  322

ORBITAL ENERGIES
----------------

  NO   OCC          E(Eh)            E(eV)
   0   2.0000     -88.966212     -2420.8937
   1   2.0000     -88.961463     -2420.7645
   2   2.0000     -10.328809      -281.0612
   3   2.0000     -10.327678      -281.0304
   4   2.0000     -10.320438      -280.8334
   5   2.0000     -10.313701      -280.6501
   6   2.0000     -10.307564      -280.4831
   7   2.0000     -10.302720      -280.3513
   8   2.0000     -10.302022      -280.3323
   9   2.0000     -10.301572      -280.3200
  10   2.0000     -10.294416      -280.1253
  11   2.0000     -10.292450      -280.0718
  12   2.0000     -10.292244      -280.0662
  13   2.0000     -10.290163      -280.0096
  14   2.0000     -10.279718      -279.7253
  15   2.0000     -10.275037      -279.5980
  16   2.0000      -8.080754      -219.8885
  17   2.0000      -8.077193      -219.7916
  18   2.0000      -6.039218      -164.3355
  19   2.0000      -6.035718      -164.2402
  20   2.0000      -6.035399      -164.2316
  21   2.0000      -6.031516      -164.1259
  22   2.0000      -6.031470      -164.1247
  23   2.0000      -6.027918      -164.0280
  24   2.0000      -1.006484       -27.3878
  25   2.0000      -0.984904       -26.8006
  26   2.0000      -0.910254       -24.7693
  27   2.0000      -0.905830       -24.6489
  28   2.0000      -0.868381       -23.6298
  29   2.0000      -0.849597       -23.1187
  30   2.0000      -0.843100       -22.9419
  31   2.0000      -0.814576       -22.1657
  32   2.0000      -0.782937       -21.3048
  33   2.0000      -0.773052       -21.0358
  34   2.0000      -0.710192       -19.3253
  35   2.0000      -0.698238       -19.0000
  36   2.0000      -0.687066       -18.6960
  37   2.0000      -0.662211       -18.0197
  38   2.0000      -0.636930       -17.3318
  39   2.0000      -0.615731       -16.7549
  40   2.0000      -0.596933       -16.2434
  41   2.0000      -0.562398       -15.3036
  42   2.0000      -0.551371       -15.0036
  43   2.0000      -0.546968       -14.8838
  44   2.0000      -0.542778       -14.7697
  45   2.0000      -0.538224       -14.6458
  46   2.0000      -0.520602       -14.1663
  47   2.0000      -0.511786       -13.9264
  48   2.0000      -0.497013       -13.5244
  49   2.0000      -0.496332       -13.5059
  50   2.0000      -0.488556       -13.2943
  51   2.0000      -0.477262       -12.9870
  52   2.0000      -0.465596       -12.6695
  53   2.0000      -0.459412       -12.5012
  54   2.0000      -0.458912       -12.4876
  55   2.0000      -0.449809       -12.2399
  56   2.0000      -0.442950       -12.0533
  57   2.0000      -0.438476       -11.9315
  58   2.0000      -0.432072       -11.7573
  59   2.0000      -0.429066       -11.6755
  60   2.0000      -0.425263       -11.5720
  61   2.0000      -0.417315       -11.3557
  62   2.0000      -0.412471       -11.2239
  63   2.0000      -0.345622        -9.4049
  64   2.0000      -0.329024        -8.9532
  65   2.0000      -0.325688        -8.8624
  66   2.0000      -0.300398        -8.1743
  67   0.0000       0.033386         0.9085
  68   0.0000       0.070263         1.9119
  69   0.0000       0.104090         2.8324
  70   0.0000       0.119096         3.2408
  71   0.0000       0.125796         3.4231

MULLIKEN ATOMIC CHARGES
-----------------------
   0 S :    0.100818
   1 C :   -0.122717
   2 C :   -0.138825
   3 C :    0.023219
   4 C :   -0.172121
   5 H :    0.027337
   6 C :    0.065967
   7 H :    0.051833
   8 H :    0.017278
   9 C :   -0.116742
  10 H :    0.048944
  11 H :    0.040201
  12 C :   -0.048618
  13 H :    0.040370
  14 H :    0.050260
  15 H :    0.019752
  16 S :    0.097225
  17 C :   -0.079113
  18 C :   -0.014665
  19 C :   -0.062042
  20 C :   -0.145417
  21 H :    0.006252
  22 C :    0.068099
  23 H :    0.031512
  24 H :    0.032991
  25 C :   -0.041180
  26 H :    0.028750
  27 H :    0.007760
  28 C :   -0.054625
  29 H :    0.037547
  30 H :    0.037428
  31 H :    0.040378
  32 H :    0.070468
  33 H :    0.051677
Sum of atomic charges:   -0.0000000

LOEWDIN ATOMIC CHARGES
----------------------
   0 S :    0.412324
   1 C :   -0.218795
   2 C :   -0.062055
   3 C :   -0.077933
   4 C :   -0.202183
   5 H :    0.032995
   6 C :   -0.040636
   7 H :    0.042623
   8 H :    0.030961
   9 C :   -0.047975
  10 H :    0.040165
  11 H :    0.023036
  12 C :   -0.067160
  13 H :    0.029791
  14 H :    0.031679
  15 H :    0.015475
  16 S :    0.394571
  17 C :   -0.162068
  18 C :   -0.064701
  19 C :   -0.053239
  20 C :   -0.204902
  21 H :    0.023897
  22 C :   -0.029945
  23 H :    0.031575
  24 H :    0.038558
  25 C :   -0.035479
  26 H :    0.026746
  27 H :    0.016006
  28 C :   -0.070051
  29 H :    0.025461
  30 H :    0.030544
  31 H :    0.031537
  32 H :    0.037110
  33 H :    0.022068

  Mayer bond orders larger than 0.100000
B(  0-S ,  1-C ) :   1.1349 B(  0-S ,  4-C ) :   1.1642 B(  1-C ,  2-C ) :   1.6502
B(  1-C , 32-H ) :   0.9478 B(  2-C ,  3-C ) :   1.2141 B(  2-C ,  6-C ) :   1.0176
B(  3-C ,  4-C ) :   1.6094 B(  3-C ,  5-H ) :   0.9834 B(  4-C , 20-C ) :   0.9808
B(  6-C ,  7-H ) :   0.9344 B(  6-C ,  8-H ) :   0.9431 B(  6-C ,  9-C ) :   1.0624
B(  9-C , 10-H ) :   0.9564 B(  9-C , 11-H ) :   0.9559 B(  9-C , 12-C ) :   1.0685
B( 12-C , 13-H ) :   0.9753 B( 12-C , 14-H ) :   0.9766 B( 12-C , 15-H ) :   0.9773
B( 16-S , 17-C ) :   1.1509 B( 16-S , 20-C ) :   1.1480 B( 17-C , 18-C ) :   1.5992
B( 17-C , 33-H ) :   0.9750 B( 18-C , 19-C ) :   1.2355 B( 18-C , 21-H ) :   0.9939
B( 19-C , 20-C ) :   1.6039 B( 19-C , 22-C ) :   1.0341 B( 22-C , 23-H ) :   0.9353
B( 22-C , 24-H ) :   0.9272 B( 22-C , 25-C ) :   1.0675 B( 25-C , 26-H ) :   0.9536
B( 25-C , 27-H ) :   0.9527 B( 25-C , 28-C ) :   1.0700 B( 28-C , 29-H ) :   0.9763
B( 28-C , 30-H ) :   0.9747 B( 28-C , 31-H ) :   0.9748

Dispersion correction           -0.014335034
FINAL SINGLE POINT ENERGY     -1339.881713419767

DIPOLE MOMENT
-------------
                                X             Y             Z
Electronic contribution:    -15.98486      10.41798       3.72207
Nuclear contribution   :     16.33860     -10.77489      -4.21625
                        -----------------------------------------
Total Dipole Moment    :      0.35374      -0.35691      -0.49418
                        -----------------------------------------
Magnitude (a.u.)       :      0.70479
Magnitude (Debye)      :      1.79143

Rotational constants in cm-1:     0.019348     0.007993     0.007360
Rotational constants in MHz :   580.052449   239.628675   220.652485

                             ****ORCA TERMINATED NORMALLY****
TOTAL RUN TIME: 0 days 0 hours 0 minutes 21 seconds 441 msec
