                         Program Version 4.2.1 -  RELEASE  -
|  1> ! wB97X-D3 SP def2-SVP
|  2> %pal
|  3> nprocs 24
|  4> end
|  5>
|  6> * xyz 0 1
|  7> S 	 -41.4593 	 -49.4394 	 -70.0407
|  8> C 	 -40.0453 	 -49.4069 	 -69.0363
|  9> C 	 -39.2432 	 -50.4545 	 -69.3161
| 10> C 	 -39.8043 	 -51.3382 	 -70.3035
| 11> C 	 -41.0425 	 -50.9775 	 -70.788
| 12> H 	 -39.2694 	 -52.2046 	 -70.6642
| 13> C 	 -37.9297 	 -50.5949 	 -68.705
| 14> H 	 -38.117 	 -51.3785 	 -67.9389
| 15> H 	 -37.5585 	 -49.7205 	 -68.1539
| 16> C 	 -36.7057 	 -50.973 	 -69.5898
| 17> H 	 -37.0106 	 -51.6312 	 -70.3852
| 18> H 	 -36.4556 	 -50.0015 	 -70.0233
| 19> C 	 -35.5018 	 -51.5559 	 -68.8801
| 20> H 	 -35.7945 	 -52.5086 	 -68.4213
| 21> H 	 -34.6519 	 -51.786 	 -69.4481
| 22> H 	 -35.2067 	 -50.9052 	 -68.0679
| 23> S 	 -42.7934 	 -50.5483 	 -72.9393
| 24> C 	 -43.795 	 -51.8678 	 -73.4148
| 25> C 	 -43.343 	 -53.0363 	 -72.9085
| 26> C 	 -42.3394 	 -52.9061 	 -71.8808
| 27> C 	 -41.9521 	 -51.6511 	 -71.7167
| 28> H 	 -43.6745 	 -54.0026 	 -73.286
| 29> C 	 -41.6576 	 -54.0945 	 -71.1963
| 30> H 	 -40.5939 	 -53.9532 	 -71.3591
| 31> H 	 -41.9615 	 -55.0008 	 -71.7062
| 32> C 	 -41.9842 	 -54.3463 	 -69.7209
| 33> H 	 -43.068 	 -54.346 	 -69.6693
| 34> H 	 -41.7502 	 -53.4683 	 -69.146
| 35> C 	 -41.3376 	 -55.5171 	 -69.0911
| 36> H 	 -41.6935 	 -55.6556 	 -68.0931
| 37> H 	 -40.2155 	 -55.444 	 -69.1464
| 38> H 	 -41.3836 	 -56.4747 	 -69.5792
| 39> H 	 -39.7324 	 -48.6471 	 -68.2972
| 40> H 	 -44.3753 	 -51.824 	 -74.3252
| 41> *
| 42>
| 43>                          ****END OF INPUT****

CARTESIAN COORDINATES (ANGSTROEM)
---------------------------------
  S    -41.459300  -49.439400  -70.040700
  C    -40.045300  -49.406900  -69.036300
  C    -39.243200  -50.454500  -69.316100
  C    -39.804300  -51.338200  -70.303500
  C    -41.042500  -50.977500  -70.788000
  H    -39.269400  -52.204600  -70.664200
  C    -37.929700  -50.594900  -68.705000
  H    -38.117000  -51.378500  -67.938900
  H    -37.558500  -49.720500  -68.153900
  C    -36.705700  -50.973000  -69.589800
  H    -37.010600  -51.631200  -70.385200
  H    -36.455600  -50.001500  -70.023300
  C    -35.501800  -51.555900  -68.880100
  H    -35.794500  -52.508600  -68.421300
  H    -34.651900  -51.786000  -69.448100
  H    -35.206700  -50.905200  -68.067900
  S    -42.793400  -50.548300  -72.939300
  C    -43.795000  -51.867800  -73.414800
  C    -43.343000  -53.036300  -72.908500
  C    -42.339400  -52.906100  -71.880800
  C    -41.952100  -51.651100  -71.716700
  H    -43.674500  -54.002600  -73.286000
  C    -41.657600  -54.094500  -71.196300
  H    -40.593900  -53.953200  -71.359100
  H    -41.961500  -55.000800  -71.706200
  C    -41.984200  -54.346300  -69.720900
  H    -43.068000  -54.346000  -69.669300
  H    -41.750200  -53.468300  -69.146000
  C    -41.337600  -55.517100  -69.091100
  H    -41.693500  -55.655600  -68.093100
  H    -40.215500  -55.444000  -69.146400
  H    -41.383600  -56.474700  -69.579200
  H    -39.732400  -48.647100  -68.297200
  H    -44.375300  -51.824000  -74.325200

 Total Charge           Charge          ....    0
 Multiplicity           Mult            ....    1
 Number of Electrons    NEL             ....  134
 Basis Dimension        Dim             ....  322

ORBITAL ENERGIES
----------------

  NO   OCC          E(Eh)            E(eV)
   0   2.0000     -88.962409     -2420.7902
   1   2.0000     -88.960916     -2420.7496
   2   2.0000     -10.333510      -281.1891
   3   2.0000     -10.330023      -281.0942
   4   2.0000     -10.313855      -280.6543
   5   2.0000     -10.309461      -280.5347
   6   2.0000     -10.301620      -280.3213
   7   2.0000     -10.295583      -280.1570
   8   2.0000     -10.294699      -280.1330
   9   2.0000     -10.294351      -280.1235
  10   2.0000     -10.293015      -280.0872
  11   2.0000     -10.291957      -280.0584
  12   2.0000     -10.286932      -279.9216
  13   2.0000     -10.279489      -279.7191
  14   2.0000     -10.276192      -279.6294
  15   2.0000     -10.275775      -279.6181
  16   2.0000      -8.077275      -219.7938
  17   2.0000      -8.075386      -219.7424
  18   2.0000      -6.035920      -164.2457
  19   2.0000      -6.034001      -164.1935
  20   2.0000      -6.031658      -164.1297
  21   2.0000      -6.030169      -164.0892
  22   2.0000      -6.027950      -164.0289
  23   2.0000      -6.025792      -163.9701
  24   2.0000      -1.009111       -27.4593
  25   2.0000      -0.989408       -26.9231
  26   2.0000      -0.916494       -24.9391
  27   2.0000      -0.914116       -24.8744
  28   2.0000      -0.875921       -23.8350
  29   2.0000      -0.858365       -23.3573
  30   2.0000      -0.844655       -22.9842
  31   2.0000      -0.819455       -22.2985
  32   2.0000      -0.788000       -21.4426
  33   2.0000      -0.776518       -21.1301
  34   2.0000      -0.716131       -19.4869
  35   2.0000      -0.702765       -19.1232
  36   2.0000      -0.693222       -18.8635
  37   2.0000      -0.664915       -18.0933
  38   2.0000      -0.639385       -17.3986
  39   2.0000      -0.625988       -17.0340
  40   2.0000      -0.599143       -16.3035
  41   2.0000      -0.572062       -15.5666
  42   2.0000      -0.565290       -15.3823
  43   2.0000      -0.563383       -15.3304
  44   2.0000      -0.534037       -14.5319
  45   2.0000      -0.530472       -14.4349
  46   2.0000      -0.521757       -14.1977
  47   2.0000      -0.514774       -14.0077
  48   2.0000      -0.505139       -13.7455
  49   2.0000      -0.503634       -13.7046
  50   2.0000      -0.495650       -13.4873
  51   2.0000      -0.491508       -13.3746
  52   2.0000      -0.470506       -12.8031
  53   2.0000      -0.466816       -12.7027
  54   2.0000      -0.462856       -12.5949
  55   2.0000      -0.455457       -12.3936
  56   2.0000      -0.448612       -12.2074
  57   2.0000      -0.436752       -11.8846
  58   2.0000      -0.425272       -11.5722
  59   2.0000      -0.423698       -11.5294
  60   2.0000      -0.420559       -11.4440
  61   2.0000      -0.414382       -11.2759
  62   2.0000      -0.407669       -11.0932
  63   2.0000      -0.356966        -9.7135
  64   2.0000      -0.330649        -8.9974
  65   2.0000      -0.325009        -8.8439
  66   2.0000      -0.295264        -8.0345
  67   0.0000       0.027954         0.7607
  68   0.0000       0.072121         1.9625
  69   0.0000       0.098681         2.6852
  70   0.0000       0.124879         3.3981
  71   0.0000       0.133093         3.6216

MULLIKEN ATOMIC CHARGES
-----------------------
   0 S :    0.108573
   1 C :   -0.130851
   2 C :   -0.064312
   3 C :    0.018092
   4 C :   -0.118977
   5 H :    0.005143
   6 C :    0.026512
   7 H :    0.037477
   8 H :    0.021306
   9 C :   -0.078081
  10 H :    0.025596
  11 H :    0.031118
  12 C :   -0.019548
  13 H :    0.021041
  14 H :    0.029484
  15 H :    0.023383
  16 S :    0.076007
  17 C :   -0.065323
  18 C :   -0.038573
  19 C :   -0.043430
  20 C :   -0.152871
  21 H :    0.017199
  22 C :    0.064695
  23 H :    0.026689
  24 H :    0.007370
  25 C :   -0.047284
  26 H :    0.019851
  27 H :    0.030679
  28 C :   -0.018875
  29 H :    0.038662
  30 H :    0.019424
  31 H :    0.012945
  32 H :    0.053478
  33 H :    0.063403
Sum of atomic charges:    0.0000000

LOEWDIN ATOMIC CHARGES
----------------------
   0 S :    0.406080
   1 C :   -0.204430
   2 C :   -0.072865
   3 C :   -0.066111
   4 C :   -0.185758
   5 H :    0.025638
   6 C :   -0.037648
   7 H :    0.035820
   8 H :    0.030588
   9 C :   -0.038031
  10 H :    0.017520
  11 H :    0.026244
  12 C :   -0.059471
  13 H :    0.026504
  14 H :    0.021720
  15 H :    0.024222
  16 S :    0.361805
  17 C :   -0.185007
  18 C :   -0.068710
  19 C :   -0.056205
  20 C :   -0.156428
  21 H :    0.030605
  22 C :   -0.022319
  23 H :    0.026217
  24 H :    0.027402
  25 C :   -0.043039
  26 H :    0.025528
  27 H :    0.025793
  28 C :   -0.067885
  29 H :    0.028601
  30 H :    0.031208
  31 H :    0.020935
  32 H :    0.039560
  33 H :    0.031916

  Mayer bond orders larger than 0.100000
B(  0-S ,  1-C ) :   1.1239 B(  0-S ,  4-C ) :   1.1508 B(  1-C ,  2-C ) :   1.6276
B(  1-C , 32-H ) :   0.9630 B(  2-C ,  3-C ) :   1.2304 B(  2-C ,  6-C ) :   1.0311
B(  3-C ,  4-C ) :   1.5675 B(  3-C ,  5-H ) :   0.9964 B(  4-C , 20-C ) :   1.0356
B(  6-C ,  7-H ) :   0.9297 B(  6-C ,  8-H ) :   0.9493 B(  6-C ,  9-C ) :   1.0445
B(  9-C , 10-H ) :   0.9605 B(  9-C , 11-H ) :   0.9575 B(  9-C , 12-C ) :   1.0879
B( 12-C , 13-H ) :   0.9722 B( 12-C , 14-H ) :   0.9736 B( 12-C , 15-H ) :   0.9740
B( 16-S , 17-C ) :   1.1396 B( 16-S , 20-C ) :   1.1025 B( 17-C , 18-C ) :   1.6493
B( 17-C , 33-H ) :   0.9589 B( 18-C , 19-C ) :   1.2040 B( 18-C , 21-H ) :   0.9840
B( 19-C , 20-C ) :   1.6894 B( 19-C , 22-C ) :   1.0280 B( 22-C , 23-H ) :   0.9410
B( 22-C , 24-H ) :   0.9288 B( 22-C , 25-C ) :   1.0645 B( 25-C , 26-H ) :   0.9479
B( 25-C , 27-H ) :   0.9497 B( 25-C , 28-C ) :   1.0941 B( 28-C , 29-H ) :   0.9707
B( 28-C , 30-H ) :   0.9661 B( 28-C , 31-H ) :   0.9703

Dispersion correction           -0.014022585
FINAL SINGLE POINT ENERGY     -1339.876545498783

DIPOLE MOMENT
-------------
                                X             Y             Z
Electronic contribution:    -20.66295      18.82672     -13.64783
Nuclear contribution   :     21.19640     -19.45394      13.78523
                        -----------------------------------------
Total Dipole Moment    :      0.53345      -0.62722       0.13739
                        -----------------------------------------
Magnitude (a.u.)       :      0.83477
Magnitude (Debye)      :      2.12182

Rotational constants in cm-1:     0.017764     0.008772     0.006794
Rotational constants in MHz :   532.553519   262.978196   203.688106

                             ****ORCA TERMINATED NORMALLY****
TOTAL RUN TIME: 0 days 0 hours 0 minutes 21 seconds 684 msec
