                         Program Version 4.2.1 -  RELEASE  -
|  1> ! wB97X-D3 SP def2-SVP
|  2> %pal
|  3> nprocs 24
|  4> end
|  5>
|  6> * xyz 0 1
|  7> S 	 -40.7578 	 8.68794 	 29.0363
|  8> C 	 -42.0684 	 9.15279 	 30.0936
|  9> C 	 -43.2867 	 9.20397 	 29.4162
| 10> C 	 -43.1551 	 8.7401 	 28.0944
| 11> C 	 -41.8667 	 8.41654 	 27.7537
| 12> H 	 -43.9375 	 8.43272 	 27.4337
| 13> C 	 -44.6046 	 9.68542 	 30.0375
| 14> H 	 -44.3769 	 9.72317 	 31.0934
| 15> H 	 -45.4664 	 8.99233 	 29.925
| 16> C 	 -45.042 	 11.0983 	 29.7273
| 17> H 	 -46.059 	 11.3501 	 30.1203
| 18> H 	 -44.3483 	 11.7165 	 30.2793
| 19> C 	 -44.8984 	 11.5551 	 28.2754
| 20> H 	 -45.5735 	 11.0746 	 27.5959
| 21> H 	 -45.0714 	 12.691 	 28.0648
| 22> H 	 -43.8601 	 11.4624 	 27.9486
| 23> S 	 -40.5266 	 6.27659 	 26.602
| 24> C 	 -40.0842 	 6.40331 	 24.941
| 25> C 	 -40.708 	 7.49329 	 24.3023
| 26> C 	 -41.4942 	 8.34949 	 25.2209
| 27> C 	 -41.4086 	 7.78406 	 26.5389
| 28> H 	 -40.5555 	 7.5507 	 23.2256
| 29> C 	 -42.1924 	 9.7595 	 24.8573
| 30> H 	 -41.3529 	 10.4782 	 24.6634
| 31> H 	 -42.6508 	 10.2259 	 25.7428
| 32> C 	 -43.3282 	 9.80386 	 23.7975
| 33> H 	 -42.8494 	 9.67628 	 22.8404
| 34> H 	 -43.6159 	 10.8926 	 23.6538
| 35> C 	 -44.4911 	 8.86098 	 23.9902
| 36> H 	 -44.954 	 8.94728 	 23.0417
| 37> H 	 -45.2393 	 9.27424 	 24.6975
| 38> H 	 -44.3044 	 7.81891 	 24.3465
| 39> H 	 -41.917 	 9.4943 	 31.1245
| 40> H 	 -39.3492 	 5.73748 	 24.551
| 41> *
| 42>
| 43>                          ****END OF INPUT****

CARTESIAN COORDINATES (ANGSTROEM)
---------------------------------
  S    -40.757800    8.687940   29.036300
  C    -42.068400    9.152790   30.093600
  C    -43.286700    9.203970   29.416200
  C    -43.155100    8.740100   28.094400
  C    -41.866700    8.416540   27.753700
  H    -43.937500    8.432720   27.433700
  C    -44.604600    9.685420   30.037500
  H    -44.376900    9.723170   31.093400
  H    -45.466400    8.992330   29.925000
  C    -45.042000   11.098300   29.727300
  H    -46.059000   11.350100   30.120300
  H    -44.348300   11.716500   30.279300
  C    -44.898400   11.555100   28.275400
  H    -45.573500   11.074600   27.595900
  H    -45.071400   12.691000   28.064800
  H    -43.860100   11.462400   27.948600
  S    -40.526600    6.276590   26.602000
  C    -40.084200    6.403310   24.941000
  C    -40.708000    7.493290   24.302300
  C    -41.494200    8.349490   25.220900
  C    -41.408600    7.784060   26.538900
  H    -40.555500    7.550700   23.225600
  C    -42.192400    9.759500   24.857300
  H    -41.352900   10.478200   24.663400
  H    -42.650800   10.225900   25.742800
  C    -43.328200    9.803860   23.797500
  H    -42.849400    9.676280   22.840400
  H    -43.615900   10.892600   23.653800
  C    -44.491100    8.860980   23.990200
  H    -44.954000    8.947280   23.041700
  H    -45.239300    9.274240   24.697500
  H    -44.304400    7.818910   24.346500
  H    -41.917000    9.494300   31.124500
  H    -39.349200    5.737480   24.551000

 Total Charge           Charge          ....    0
 Multiplicity           Mult            ....    1
 Number of Electrons    NEL             ....  134
 Basis Dimension        Dim             ....  322

ORBITAL ENERGIES
----------------

  NO   OCC          E(Eh)            E(eV)
   0   2.0000     -88.967077     -2420.9172
   1   2.0000     -88.966446     -2420.9001
   2   2.0000     -10.327242      -281.0185
   3   2.0000     -10.320823      -280.8439
   4   2.0000     -10.320365      -280.8314
   5   2.0000     -10.316713      -280.7320
   6   2.0000     -10.315802      -280.7072
   7   2.0000     -10.303750      -280.3793
   8   2.0000     -10.302465      -280.3443
   9   2.0000     -10.301888      -280.3286
  10   2.0000     -10.293043      -280.0879
  11   2.0000     -10.291527      -280.0467
  12   2.0000     -10.286629      -279.9134
  13   2.0000     -10.286525      -279.9106
  14   2.0000     -10.279175      -279.7106
  15   2.0000     -10.279023      -279.7064
  16   2.0000      -8.082288      -219.9302
  17   2.0000      -8.081880      -219.9191
  18   2.0000      -6.040635      -164.3740
  19   2.0000      -6.040238      -164.3632
  20   2.0000      -6.036684      -164.2665
  21   2.0000      -6.036263      -164.2551
  22   2.0000      -6.033240      -164.1728
  23   2.0000      -6.032778      -164.1602
  24   2.0000      -1.008238       -27.4355
  25   2.0000      -0.979718       -26.6595
  26   2.0000      -0.913076       -24.8461
  27   2.0000      -0.900237       -24.4967
  28   2.0000      -0.865953       -23.5638
  29   2.0000      -0.849198       -23.1078
  30   2.0000      -0.841510       -22.8987
  31   2.0000      -0.811084       -22.0707
  32   2.0000      -0.787215       -21.4212
  33   2.0000      -0.773062       -21.0361
  34   2.0000      -0.701702       -19.0943
  35   2.0000      -0.694335       -18.8938
  36   2.0000      -0.691057       -18.8046
  37   2.0000      -0.651215       -17.7205
  38   2.0000      -0.641434       -17.4543
  39   2.0000      -0.615127       -16.7385
  40   2.0000      -0.590896       -16.0791
  41   2.0000      -0.574955       -15.6453
  42   2.0000      -0.550961       -14.9924
  43   2.0000      -0.546453       -14.8698
  44   2.0000      -0.539332       -14.6760
  45   2.0000      -0.534545       -14.5457
  46   2.0000      -0.515443       -14.0259
  47   2.0000      -0.506178       -13.7738
  48   2.0000      -0.501389       -13.6435
  49   2.0000      -0.499316       -13.5871
  50   2.0000      -0.489483       -13.3195
  51   2.0000      -0.477416       -12.9911
  52   2.0000      -0.467352       -12.7173
  53   2.0000      -0.463206       -12.6045
  54   2.0000      -0.460675       -12.5356
  55   2.0000      -0.447822       -12.1859
  56   2.0000      -0.441231       -12.0065
  57   2.0000      -0.435919       -11.8620
  58   2.0000      -0.429837       -11.6965
  59   2.0000      -0.422934       -11.5086
  60   2.0000      -0.420544       -11.4436
  61   2.0000      -0.412695       -11.2300
  62   2.0000      -0.401917       -10.9367
  63   2.0000      -0.339826        -9.2471
  64   2.0000      -0.334587        -9.1046
  65   2.0000      -0.327053        -8.8996
  66   2.0000      -0.292914        -7.9706
  67   0.0000       0.031160         0.8479
  68   0.0000       0.070869         1.9284
  69   0.0000       0.112369         3.0577
  70   0.0000       0.122010         3.3201
  71   0.0000       0.125056         3.4029

MULLIKEN ATOMIC CHARGES
-----------------------
   0 S :    0.125491
   1 C :   -0.136374
   2 C :   -0.103834
   3 C :    0.047590
   4 C :   -0.173739
   5 H :    0.006988
   6 C :    0.087040
   7 H :    0.011586
   8 H :    0.041249
   9 C :   -0.052898
  10 H :    0.037410
  11 H :    0.014606
  12 C :   -0.097050
  13 H :    0.027155
  14 H :    0.035754
  15 H :    0.053818
  16 S :    0.124970
  17 C :   -0.113344
  18 C :   -0.035020
  19 C :   -0.021256
  20 C :   -0.177852
  21 H :    0.028707
  22 C :    0.039578
  23 H :    0.044396
  24 H :    0.024532
  25 C :   -0.083860
  26 H :    0.016958
  27 H :    0.032427
  28 C :   -0.039999
  29 H :    0.029506
  30 H :    0.030213
  31 H :    0.063470
  32 H :    0.053897
  33 H :    0.057886
Sum of atomic charges:    0.0000000

LOEWDIN ATOMIC CHARGES
----------------------
   0 S :    0.426245
   1 C :   -0.202320
   2 C :   -0.062267
   3 C :   -0.059975
   4 C :   -0.204757
   5 H :    0.030943
   6 C :   -0.033138
   7 H :    0.031386
   8 H :    0.033062
   9 C :   -0.044789
  10 H :    0.029887
  11 H :    0.022567
  12 C :   -0.078067
  13 H :    0.015472
  14 H :    0.035671
  15 H :    0.026459
  16 S :    0.419773
  17 C :   -0.194683
  18 C :   -0.072795
  19 C :   -0.046172
  20 C :   -0.212811
  21 H :    0.032545
  22 C :   -0.038175
  23 H :    0.038459
  24 H :    0.029408
  25 C :   -0.049602
  26 H :    0.016074
  27 H :    0.036409
  28 C :   -0.070389
  29 H :    0.028182
  30 H :    0.027821
  31 H :    0.036850
  32 H :    0.029306
  33 H :    0.023420

  Mayer bond orders larger than 0.100000
B(  0-S ,  1-C ) :   1.1483 B(  0-S ,  4-C ) :   1.1695 B(  1-C ,  2-C ) :   1.6015
B(  1-C , 32-H ) :   0.9629 B(  2-C ,  3-C ) :   1.2474 B(  2-C ,  6-C ) :   1.0172
B(  3-C ,  4-C ) :   1.5659 B(  3-C ,  5-H ) :   0.9987 B(  4-C , 20-C ) :   1.0409
B(  6-C ,  7-H ) :   0.9367 B(  6-C ,  8-H ) :   0.9449 B(  6-C ,  9-C ) :   1.0692
B(  9-C , 10-H ) :   0.9557 B(  9-C , 11-H ) :   0.9516 B(  9-C , 12-C ) :   1.0925
B( 12-C , 13-H ) :   0.9773 B( 12-C , 14-H ) :   0.9712 B( 12-C , 15-H ) :   0.9639
B( 16-S , 17-C ) :   1.1611 B( 16-S , 20-C ) :   1.1627 B( 17-C , 18-C ) :   1.6013
B( 17-C , 33-H ) :   0.9732 B( 18-C , 19-C ) :   1.2272 B( 18-C , 21-H ) :   0.9908
B( 19-C , 20-C ) :   1.5626 B( 19-C , 22-C ) :   1.0201 B( 22-C , 23-H ) :   0.9417
B( 22-C , 24-H ) :   0.9389 B( 22-C , 25-C ) :   1.0681 B( 25-C , 26-H ) :   0.9614
B( 25-C , 27-H ) :   0.9483 B( 25-C , 28-C ) :   1.0651 B( 28-C , 29-H ) :   0.9695
B( 28-C , 30-H ) :   0.9729 B( 28-C , 31-H ) :   0.9726

Dispersion correction           -0.015548892
FINAL SINGLE POINT ENERGY     -1339.868794131731

DIPOLE MOMENT
-------------
                                X             Y             Z
Electronic contribution:     22.67716     -17.81981       7.49740
Nuclear contribution   :    -23.01194      18.16503      -7.72690
                        -----------------------------------------
Total Dipole Moment    :     -0.33478       0.34522      -0.22950
                        -----------------------------------------
Magnitude (a.u.)       :      0.53285
Magnitude (Debye)      :      1.35439

Rotational constants in cm-1:     0.017913     0.010427     0.007233
Rotational constants in MHz :   537.018363   312.601306   216.846483

                             ****ORCA TERMINATED NORMALLY****
TOTAL RUN TIME: 0 days 0 hours 0 minutes 22 seconds 477 msec
