                         Program Version 4.2.1 -  RELEASE  -
|  1> ! wB97X-D3 SP def2-SVP
|  2> %pal
|  3> nprocs 24
|  4> end
|  5>
|  6> * xyz 0 1
|  7> S 	 -69.388 	 21.6302 	 -114.436
|  8> C 	 -69.7836 	 22.2823 	 -112.896
|  9> C 	 -68.7214 	 21.9701 	 -111.983
| 10> C 	 -67.6432 	 21.2397 	 -112.649
| 11> C 	 -67.8206 	 20.9935 	 -114.025
| 12> H 	 -66.6778 	 21.0024 	 -112.273
| 13> C 	 -68.5974 	 22.351 	 -110.545
| 14> H 	 -68.4235 	 21.4563 	 -109.946
| 15> H 	 -69.5083 	 22.851 	 -110.291
| 16> C 	 -67.4163 	 23.3355 	 -110.204
| 17> H 	 -66.6195 	 23.1961 	 -110.916
| 18> H 	 -67.8304 	 24.2815 	 -110.415
| 19> C 	 -66.9316 	 23.2845 	 -108.825
| 20> H 	 -66.1841 	 23.9454 	 -108.525
| 21> H 	 -67.806 	 23.52 	 -108.179
| 22> H 	 -66.6014 	 22.299 	 -108.665
| 23> S 	 -66.7729 	 21.4855 	 -116.588
| 24> C 	 -65.2606 	 20.7307 	 -116.992
| 25> C 	 -64.981 	 19.7306 	 -116.178
| 26> C 	 -65.8675 	 19.5911 	 -115.048
| 27> C 	 -66.887 	 20.5837 	 -115.02
| 28> H 	 -64.1679 	 19.0065 	 -116.344
| 29> C 	 -65.4933 	 18.6045 	 -113.967
| 30> H 	 -66.0739 	 18.9041 	 -113.136
| 31> H 	 -64.4677 	 18.6865 	 -113.757
| 32> C 	 -65.7376 	 17.1433 	 -114.34
| 33> H 	 -65.0599 	 16.8928 	 -115.152
| 34> H 	 -66.8215 	 16.9744 	 -114.723
| 35> C 	 -65.4721 	 16.3309 	 -113.089
| 36> H 	 -64.3697 	 16.0673 	 -112.954
| 37> H 	 -66.0229 	 15.3861 	 -113.17
| 38> H 	 -65.7946 	 16.8279 	 -112.184
| 39> H 	 -70.597 	 22.8985 	 -112.593
| 40> H 	 -64.7606 	 20.8251 	 -117.916
| 41> *
| 42>
| 43>                          ****END OF INPUT****

CARTESIAN COORDINATES (ANGSTROEM)
---------------------------------
  S    -69.388000   21.630200  -114.436000
  C    -69.783600   22.282300  -112.896000
  C    -68.721400   21.970100  -111.983000
  C    -67.643200   21.239700  -112.649000
  C    -67.820600   20.993500  -114.025000
  H    -66.677800   21.002400  -112.273000
  C    -68.597400   22.351000  -110.545000
  H    -68.423500   21.456300  -109.946000
  H    -69.508300   22.851000  -110.291000
  C    -67.416300   23.335500  -110.204000
  H    -66.619500   23.196100  -110.916000
  H    -67.830400   24.281500  -110.415000
  C    -66.931600   23.284500  -108.825000
  H    -66.184100   23.945400  -108.525000
  H    -67.806000   23.520000  -108.179000
  H    -66.601400   22.299000  -108.665000
  S    -66.772900   21.485500  -116.588000
  C    -65.260600   20.730700  -116.992000
  C    -64.981000   19.730600  -116.178000
  C    -65.867500   19.591100  -115.048000
  C    -66.887000   20.583700  -115.020000
  H    -64.167900   19.006500  -116.344000
  C    -65.493300   18.604500  -113.967000
  H    -66.073900   18.904100  -113.136000
  H    -64.467700   18.686500  -113.757000
  C    -65.737600   17.143300  -114.340000
  H    -65.059900   16.892800  -115.152000
  H    -66.821500   16.974400  -114.723000
  C    -65.472100   16.330900  -113.089000
  H    -64.369700   16.067300  -112.954000
  H    -66.022900   15.386100  -113.170000
  H    -65.794600   16.827900  -112.184000
  H    -70.597000   22.898500  -112.593000
  H    -64.760600   20.825100  -117.916000

 Total Charge           Charge          ....    0
 Multiplicity           Mult            ....    1
 Number of Electrons    NEL             ....  134
 Basis Dimension        Dim             ....  322

ORBITAL ENERGIES
----------------

  NO   OCC          E(Eh)            E(eV)
   0   2.0000     -88.966250     -2420.8947
   1   2.0000     -88.962531     -2420.7935
   2   2.0000     -10.336156      -281.2611
   3   2.0000     -10.332495      -281.1615
   4   2.0000     -10.319166      -280.7988
   5   2.0000     -10.309889      -280.5463
   6   2.0000     -10.309655      -280.5400
   7   2.0000     -10.306531      -280.4550
   8   2.0000     -10.297161      -280.2000
   9   2.0000     -10.292002      -280.0596
  10   2.0000     -10.290768      -280.0260
  11   2.0000     -10.289231      -279.9842
  12   2.0000     -10.282913      -279.8123
  13   2.0000     -10.281422      -279.7717
  14   2.0000     -10.275857      -279.6203
  15   2.0000     -10.268443      -279.4185
  16   2.0000      -8.081281      -219.9028
  17   2.0000      -8.076865      -219.7827
  18   2.0000      -6.039814      -164.3517
  19   2.0000      -6.035627      -164.2378
  20   2.0000      -6.035432      -164.2325
  21   2.0000      -6.032300      -164.1472
  22   2.0000      -6.031537      -164.1265
  23   2.0000      -6.027237      -164.0095
  24   2.0000      -1.004890       -27.3445
  25   2.0000      -0.983319       -26.7575
  26   2.0000      -0.918372       -24.9902
  27   2.0000      -0.916293       -24.9336
  28   2.0000      -0.878685       -23.9102
  29   2.0000      -0.853639       -23.2287
  30   2.0000      -0.845838       -23.0164
  31   2.0000      -0.818693       -22.2778
  32   2.0000      -0.782031       -21.2801
  33   2.0000      -0.769861       -20.9490
  34   2.0000      -0.712328       -19.3834
  35   2.0000      -0.700686       -19.0666
  36   2.0000      -0.697559       -18.9815
  37   2.0000      -0.658052       -17.9065
  38   2.0000      -0.644572       -17.5397
  39   2.0000      -0.620088       -16.8734
  40   2.0000      -0.600806       -16.3488
  41   2.0000      -0.576257       -15.6808
  42   2.0000      -0.572554       -15.5800
  43   2.0000      -0.568709       -15.4754
  44   2.0000      -0.532186       -14.4815
  45   2.0000      -0.529670       -14.4131
  46   2.0000      -0.518177       -14.1003
  47   2.0000      -0.516765       -14.0619
  48   2.0000      -0.510820       -13.9001
  49   2.0000      -0.502984       -13.6869
  50   2.0000      -0.499340       -13.5877
  51   2.0000      -0.483430       -13.1548
  52   2.0000      -0.473285       -12.8787
  53   2.0000      -0.463510       -12.6128
  54   2.0000      -0.458686       -12.4815
  55   2.0000      -0.455293       -12.3892
  56   2.0000      -0.446329       -12.1452
  57   2.0000      -0.439326       -11.9547
  58   2.0000      -0.425973       -11.5913
  59   2.0000      -0.422650       -11.5009
  60   2.0000      -0.419869       -11.4252
  61   2.0000      -0.416924       -11.3451
  62   2.0000      -0.408170       -11.1069
  63   2.0000      -0.358321        -9.7504
  64   2.0000      -0.328254        -8.9322
  65   2.0000      -0.321931        -8.7602
  66   2.0000      -0.286832        -7.8051
  67   0.0000       0.019439         0.5290
  68   0.0000       0.074161         2.0180
  69   0.0000       0.108011         2.9391
  70   0.0000       0.121847         3.3156
  71   0.0000       0.128676         3.5015

MULLIKEN ATOMIC CHARGES
-----------------------
   0 S :    0.108372
   1 C :   -0.085458
   2 C :   -0.129947
   3 C :    0.034004
   4 C :   -0.168899
   5 H :    0.006668
   6 C :    0.080140
   7 H :    0.031989
   8 H :    0.009628
   9 C :   -0.064400
  10 H :    0.024938
  11 H :    0.010033
  12 C :   -0.002318
  13 H :    0.025247
  14 H :    0.025512
  15 H :    0.015822
  16 S :    0.089763
  17 C :   -0.046466
  18 C :   -0.037542
  19 C :   -0.049668
  20 C :   -0.134377
  21 H :    0.024175
  22 C :    0.092247
  23 H :   -0.000343
  24 H :    0.019357
  25 C :   -0.109559
  26 H :    0.029453
  27 H :    0.051870
  28 C :   -0.041371
  29 H :    0.039640
  30 H :    0.036249
  31 H :    0.029345
  32 H :    0.042106
  33 H :    0.043788
Sum of atomic charges:    0.0000000

LOEWDIN ATOMIC CHARGES
----------------------
   0 S :    0.427817
   1 C :   -0.210327
   2 C :   -0.057879
   3 C :   -0.062236
   4 C :   -0.201347
   5 H :    0.021292
   6 C :   -0.027399
   7 H :    0.032017
   8 H :    0.025509
   9 C :   -0.035957
  10 H :    0.019440
  11 H :    0.017210
  12 C :   -0.056125
  13 H :    0.021061
  14 H :    0.031443
  15 H :    0.018602
  16 S :    0.378225
  17 C :   -0.174314
  18 C :   -0.077549
  19 C :   -0.043664
  20 C :   -0.185060
  21 H :    0.033940
  22 C :   -0.027522
  23 H :    0.020985
  24 H :    0.026491
  25 C :   -0.041723
  26 H :    0.021336
  27 H :    0.036203
  28 C :   -0.069833
  29 H :    0.032801
  30 H :    0.028340
  31 H :    0.022866
  32 H :    0.028660
  33 H :    0.026696

  Mayer bond orders larger than 0.100000
B(  0-S ,  1-C ) :   1.1547 B(  0-S ,  4-C ) :   1.1517 B(  1-C ,  2-C ) :   1.5613
B(  1-C , 32-H ) :   0.9726 B(  2-C ,  3-C ) :   1.2565 B(  2-C ,  6-C ) :   1.0512
B(  3-C ,  4-C ) :   1.5427 B(  3-C ,  5-H ) :   0.9850 B(  4-C , 20-C ) :   1.1047
B(  6-C ,  7-H ) :   0.9425 B(  6-C ,  8-H ) :   0.9356 B(  6-C ,  9-C ) :   1.0414
B(  9-C , 10-H ) :   0.9634 B(  9-C , 11-H ) :   0.9522 B(  9-C , 12-C ) :   1.0914
B( 12-C , 13-H ) :   0.9700 B( 12-C , 14-H ) :   0.9698 B( 12-C , 15-H ) :   0.9733
B( 16-S , 17-C ) :   1.1352 B( 16-S , 20-C ) :   1.1058 B( 17-C , 18-C ) :   1.6452
B( 17-C , 33-H ) :   0.9632 B( 18-C , 19-C ) :   1.2309 B( 18-C , 21-H ) :   0.9820
B( 19-C , 20-C ) :   1.5736 B( 19-C , 22-C ) :   1.0496 B( 22-C , 23-H ) :   0.9284
B( 22-C , 24-H ) :   0.9365 B( 22-C , 25-C ) :   1.0641 B( 25-C , 26-H ) :   0.9547
B( 25-C , 27-H ) :   0.9574 B( 25-C , 28-C ) :   1.0787 B( 28-C , 29-H ) :   0.9716
B( 28-C , 30-H ) :   0.9745 B( 28-C , 31-H ) :   0.9745

Dispersion correction           -0.013218358
FINAL SINGLE POINT ENERGY     -1339.859891984520

DIPOLE MOMENT
-------------
                                X             Y             Z
Electronic contribution:    -10.25263       8.84442     -24.69716
Nuclear contribution   :     10.74811      -9.02880      25.20059
                        -----------------------------------------
Total Dipole Moment    :      0.49549      -0.18437       0.50342
                        -----------------------------------------
Magnitude (a.u.)       :      0.73003
Magnitude (Debye)      :      1.85558

Rotational constants in cm-1:     0.016291     0.008290     0.006625
Rotational constants in MHz :   488.393678   248.540674   198.607694

                             ****ORCA TERMINATED NORMALLY****
TOTAL RUN TIME: 0 days 0 hours 0 minutes 21 seconds 36 msec
