                         Program Version 4.2.1 -  RELEASE  -
|  1> ! wB97X-D3 SP def2-SVP
|  2> %pal
|  3> nprocs 24
|  4> end
|  5>
|  6> * xyz 0 1
|  7> S 	 -101.579 	 4.32586 	 -119.893
|  8> C 	 -102.83 	 3.2884 	 -120.665
|  9> C 	 -102.272 	 2.14859 	 -121.2
| 10> C 	 -100.876 	 2.07823 	 -120.934
| 11> C 	 -100.348 	 3.13502 	 -120.235
| 12> H 	 -100.112 	 1.31583 	 -121.167
| 13> C 	 -103.038 	 1.14179 	 -122.042
| 14> H 	 -103.958 	 1.62504 	 -122.369
| 15> H 	 -103.351 	 0.402145 	 -121.251
| 16> C 	 -102.42 	 0.362014 	 -123.226
| 17> H 	 -102.624 	 0.823428 	 -124.164
| 18> H 	 -101.328 	 0.316541 	 -123.157
| 19> C 	 -102.835 	 -1.10549 	 -123.314
| 20> H 	 -102.824 	 -1.45958 	 -122.346
| 21> H 	 -103.824 	 -1.32205 	 -123.76
| 22> H 	 -102.077 	 -1.6524 	 -123.82
| 23> S 	 -98.7691 	 4.42796 	 -118.435
| 24> C 	 -97.0666 	 4.101 	 -118.219
| 25> C 	 -96.641 	 3.14451 	 -119.096
| 26> C 	 -97.7678 	 2.66714 	 -119.912
| 27> C 	 -98.9523 	 3.37933 	 -119.792
| 28> H 	 -95.6488 	 2.77498 	 -119.159
| 29> C 	 -97.474 	 1.53614 	 -120.912
| 30> H 	 -97.3635 	 1.94252 	 -121.932
| 31> H 	 -98.2727 	 0.837067 	 -120.945
| 32> C 	 -96.2001 	 0.703029 	 -120.653
| 33> H 	 -96.2219 	 0.332811 	 -119.623
| 34> H 	 -95.3874 	 1.37847 	 -120.762
| 35> C 	 -96.0156 	 -0.394855 	 -121.638
| 36> H 	 -96.7668 	 -1.18609 	 -121.615
| 37> H 	 -95.116 	 -0.910687 	 -121.391
| 38> H 	 -95.8967 	 -0.0518717 	 -122.676
| 39> H 	 -103.815 	 3.54643 	 -120.89
| 40> H 	 -96.4304 	 4.50422 	 -117.426
| 41> *
| 42>
| 43>                          ****END OF INPUT****

CARTESIAN COORDINATES (ANGSTROEM)
---------------------------------
  S    -101.579000    4.325860  -119.893000
  C    -102.830000    3.288400  -120.665000
  C    -102.272000    2.148590  -121.200000
  C    -100.876000    2.078230  -120.934000
  C    -100.348000    3.135020  -120.235000
  H    -100.112000    1.315830  -121.167000
  C    -103.038000    1.141790  -122.042000
  H    -103.958000    1.625040  -122.369000
  H    -103.351000    0.402145  -121.251000
  C    -102.420000    0.362014  -123.226000
  H    -102.624000    0.823428  -124.164000
  H    -101.328000    0.316541  -123.157000
  C    -102.835000   -1.105490  -123.314000
  H    -102.824000   -1.459580  -122.346000
  H    -103.824000   -1.322050  -123.760000
  H    -102.077000   -1.652400  -123.820000
  S    -98.769100    4.427960  -118.435000
  C    -97.066600    4.101000  -118.219000
  C    -96.641000    3.144510  -119.096000
  C    -97.767800    2.667140  -119.912000
  C    -98.952300    3.379330  -119.792000
  H    -95.648800    2.774980  -119.159000
  C    -97.474000    1.536140  -120.912000
  H    -97.363500    1.942520  -121.932000
  H    -98.272700    0.837067  -120.945000
  C    -96.200100    0.703029  -120.653000
  H    -96.221900    0.332811  -119.623000
  H    -95.387400    1.378470  -120.762000
  C    -96.015600   -0.394855  -121.638000
  H    -96.766800   -1.186090  -121.615000
  H    -95.116000   -0.910687  -121.391000
  H    -95.896700   -0.051872  -122.676000
  H    -103.815000    3.546430  -120.890000
  H    -96.430400    4.504220  -117.426000

 Total Charge           Charge          ....    0
 Multiplicity           Mult            ....    1
 Number of Electrons    NEL             ....  134
 Basis Dimension        Dim             ....  322

ORBITAL ENERGIES
----------------

  NO   OCC          E(Eh)            E(eV)
   0   2.0000     -88.965200     -2420.8662
   1   2.0000     -88.962682     -2420.7976
   2   2.0000     -10.333059      -281.1768
   3   2.0000     -10.329717      -281.0859
   4   2.0000     -10.319897      -280.8187
   5   2.0000     -10.310670      -280.5676
   6   2.0000     -10.308736      -280.5150
   7   2.0000     -10.304709      -280.4054
   8   2.0000     -10.298351      -280.2324
   9   2.0000     -10.295295      -280.1492
  10   2.0000     -10.292228      -280.0658
  11   2.0000     -10.291068      -280.0342
  12   2.0000     -10.287606      -279.9400
  13   2.0000     -10.285089      -279.8715
  14   2.0000     -10.277608      -279.6679
  15   2.0000     -10.271645      -279.5057
  16   2.0000      -8.079223      -219.8468
  17   2.0000      -8.078234      -219.8199
  18   2.0000      -6.037959      -164.3012
  19   2.0000      -6.036873      -164.2717
  20   2.0000      -6.033891      -164.1905
  21   2.0000      -6.032538      -164.1537
  22   2.0000      -6.029722      -164.0771
  23   2.0000      -6.028866      -164.0538
  24   2.0000      -1.008457       -27.4415
  25   2.0000      -0.983796       -26.7705
  26   2.0000      -0.916993       -24.9526
  27   2.0000      -0.911369       -24.7996
  28   2.0000      -0.875157       -23.8142
  29   2.0000      -0.853911       -23.2361
  30   2.0000      -0.843758       -22.9598
  31   2.0000      -0.821547       -22.3554
  32   2.0000      -0.783256       -21.3135
  33   2.0000      -0.775334       -21.0979
  34   2.0000      -0.713966       -19.4280
  35   2.0000      -0.704783       -19.1781
  36   2.0000      -0.696722       -18.9588
  37   2.0000      -0.657094       -17.8804
  38   2.0000      -0.642031       -17.4706
  39   2.0000      -0.618548       -16.8316
  40   2.0000      -0.600742       -16.3470
  41   2.0000      -0.581084       -15.8121
  42   2.0000      -0.570821       -15.5328
  43   2.0000      -0.565140       -15.3782
  44   2.0000      -0.533086       -14.5060
  45   2.0000      -0.523155       -14.2358
  46   2.0000      -0.520106       -14.1528
  47   2.0000      -0.508491       -13.8368
  48   2.0000      -0.504884       -13.7386
  49   2.0000      -0.499855       -13.6017
  50   2.0000      -0.497533       -13.5386
  51   2.0000      -0.483618       -13.1599
  52   2.0000      -0.478621       -13.0239
  53   2.0000      -0.469040       -12.7632
  54   2.0000      -0.461387       -12.5550
  55   2.0000      -0.459591       -12.5061
  56   2.0000      -0.447908       -12.1882
  57   2.0000      -0.435610       -11.8535
  58   2.0000      -0.433497       -11.7961
  59   2.0000      -0.426949       -11.6179
  60   2.0000      -0.421869       -11.4796
  61   2.0000      -0.416396       -11.3307
  62   2.0000      -0.408157       -11.1065
  63   2.0000      -0.361730        -9.8432
  64   2.0000      -0.332789        -9.0557
  65   2.0000      -0.324134        -8.8201
  66   2.0000      -0.287036        -7.8106
  67   0.0000       0.023094         0.6284
  68   0.0000       0.086640         2.3576
  69   0.0000       0.096295         2.6203
  70   0.0000       0.117440         3.1957
  71   0.0000       0.136740         3.7209

MULLIKEN ATOMIC CHARGES
-----------------------
   0 S :    0.090781
   1 C :   -0.094150
   2 C :   -0.068679
   3 C :   -0.009212
   4 C :   -0.126849
   5 H :   -0.008173
   6 C :    0.053650
   7 H :    0.022947
   8 H :    0.048793
   9 C :   -0.054068
  10 H :    0.029666
  11 H :    0.025405
  12 C :   -0.034101
  13 H :    0.006388
  14 H :    0.042947
  15 H :    0.023027
  16 S :    0.077972
  17 C :   -0.070062
  18 C :   -0.020147
  19 C :   -0.102128
  20 C :   -0.053926
  21 H :    0.013203
  22 C :    0.019424
  23 H :    0.043468
  24 H :    0.028189
  25 C :   -0.096395
  26 H :    0.036461
  27 H :    0.025869
  28 C :   -0.010524
  29 H :    0.026066
  30 H :    0.020732
  31 H :    0.030909
  32 H :    0.018649
  33 H :    0.063869
Sum of atomic charges:   -0.0000000

LOEWDIN ATOMIC CHARGES
----------------------
   0 S :    0.379999
   1 C :   -0.178768
   2 C :   -0.055710
   3 C :   -0.081024
   4 C :   -0.178703
   5 H :    0.032049
   6 C :   -0.035315
   7 H :    0.030930
   8 H :    0.043793
   9 C :   -0.037967
  10 H :    0.022429
  11 H :    0.026395
  12 C :   -0.056052
  13 H :    0.013007
  14 H :    0.028294
  15 H :    0.024435
  16 S :    0.412699
  17 C :   -0.180985
  18 C :   -0.070490
  19 C :   -0.055169
  20 C :   -0.205310
  21 H :    0.027758
  22 C :   -0.033629
  23 H :    0.037017
  24 H :    0.017215
  25 C :   -0.041398
  26 H :    0.027136
  27 H :    0.018403
  28 C :   -0.061510
  29 H :    0.023943
  30 H :    0.025909
  31 H :    0.028334
  32 H :    0.015802
  33 H :    0.036482

  Mayer bond orders larger than 0.100000
B(  0-S ,  1-C ) :   1.1129 B(  0-S ,  4-C ) :   1.1370 B(  1-C ,  2-C ) :   1.6427
B(  1-C , 32-H ) :   0.9708 B(  2-C ,  3-C ) :   1.2069 B(  2-C ,  6-C ) :   1.0154
B(  3-C ,  4-C ) :   1.6301 B(  3-C ,  5-H ) :   0.9777 B(  4-C , 20-C ) :   1.0390
B(  6-C ,  7-H ) :   0.9423 B(  6-C ,  8-H ) :   0.9392 B(  6-C ,  9-C ) :   1.0478
B(  9-C , 10-H ) :   0.9577 B(  9-C , 11-H ) :   0.9604 B(  9-C , 12-C ) :   1.0826
B( 12-C , 13-H ) :   0.9747 B( 12-C , 14-H ) :   0.9774 B( 12-C , 15-H ) :   0.9744
B( 16-S , 17-C ) :   1.1642 B( 16-S , 20-C ) :   1.1249 B( 17-C , 18-C ) :   1.5973
B( 17-C , 33-H ) :   0.9624 B( 18-C , 19-C ) :   1.2479 B( 18-C , 21-H ) :   0.9905
B( 19-C , 20-C ) :   1.6082 B( 19-C , 22-C ) :   1.0253 B( 22-C , 23-H ) :   0.9390
B( 22-C , 24-H ) :   0.9300 B( 22-C , 25-C ) :   1.0855 B( 25-C , 26-H ) :   0.9544
B( 25-C , 27-H ) :   0.9385 B( 25-C , 28-C ) :   1.1022 B( 28-C , 29-H ) :   0.9701
B( 28-C , 30-H ) :   0.9658 B( 28-C , 31-H ) :   0.9698

Dispersion correction           -0.012984404
FINAL SINGLE POINT ENERGY     -1339.869887613661

DIPOLE MOMENT
-------------
                                X             Y             Z
Electronic contribution:     -3.98183      27.98367      18.47358
Nuclear contribution   :      4.33027     -28.74621     -18.86174
                        -----------------------------------------
Total Dipole Moment    :      0.34843      -0.76254      -0.38816
                        -----------------------------------------
Magnitude (a.u.)       :      0.92387
Magnitude (Debye)      :      2.34830

Rotational constants in cm-1:     0.015599     0.009376     0.005954
Rotational constants in MHz :   467.659085   281.100013   178.506246

                             ****ORCA TERMINATED NORMALLY****
TOTAL RUN TIME: 0 days 0 hours 0 minutes 21 seconds 19 msec
