                         Program Version 4.2.1 -  RELEASE  -
|  1> ! wB97X-D3 SP def2-SVP
|  2> %pal
|  3> nprocs 24
|  4> end
|  5>
|  6> * xyz 0 1
|  7> S 	 -109.619 	 62.4183 	 -70.2488
|  8> C 	 -109.524 	 64.1538 	 -70.2354
|  9> C 	 -110.701 	 64.8282 	 -70.5525
| 10> C 	 -111.709 	 63.8758 	 -70.8425
| 11> C 	 -111.344 	 62.5386 	 -70.7887
| 12> H 	 -112.761 	 64.1778 	 -71.0995
| 13> C 	 -110.876 	 66.3231 	 -70.6933
| 14> H 	 -110.78 	 66.5748 	 -69.615
| 15> H 	 -111.913 	 66.4524 	 -70.8637
| 16> C 	 -109.852 	 67.1446 	 -71.493
| 17> H 	 -110.26 	 68.104 	 -71.3543
| 18> H 	 -108.861 	 67.2146 	 -71.074
| 19> C 	 -109.701 	 66.7978 	 -73.0064
| 20> H 	 -108.657 	 66.3987 	 -73.1041
| 21> H 	 -110.443 	 66.0306 	 -73.3462
| 22> H 	 -109.762 	 67.6965 	 -73.6673
| 23> S 	 -112.416 	 60.429 	 -69.284
| 24> C 	 -113.898 	 59.7652 	 -69.864
| 25> C 	 -114.308 	 60.2982 	 -71.0809
| 26> C 	 -113.378 	 61.1958 	 -71.5651
| 27> C 	 -112.276 	 61.3783 	 -70.766
| 28> H 	 -115.262 	 60.0005 	 -71.4373
| 29> C 	 -113.621 	 61.7634 	 -72.8876
| 30> H 	 -113.607 	 62.7923 	 -72.8001
| 31> H 	 -114.678 	 61.6111 	 -73.1095
| 32> C 	 -112.659 	 61.4456 	 -74.0447
| 33> H 	 -111.658 	 61.5617 	 -73.624
| 34> H 	 -112.789 	 62.2567 	 -74.829
| 35> C 	 -112.867 	 60.0921 	 -74.6784
| 36> H 	 -112.226 	 59.9741 	 -75.5957
| 37> H 	 -113.893 	 59.9353 	 -74.9285
| 38> H 	 -112.59 	 59.4044 	 -73.9566
| 39> H 	 -108.558 	 64.6436 	 -70.0194
| 40> H 	 -114.591 	 59.1439 	 -69.3255
| 41> *
| 42>
| 43>                          ****END OF INPUT****

CARTESIAN COORDINATES (ANGSTROEM)
---------------------------------
  S    -109.619000   62.418300  -70.248800
  C    -109.524000   64.153800  -70.235400
  C    -110.701000   64.828200  -70.552500
  C    -111.709000   63.875800  -70.842500
  C    -111.344000   62.538600  -70.788700
  H    -112.761000   64.177800  -71.099500
  C    -110.876000   66.323100  -70.693300
  H    -110.780000   66.574800  -69.615000
  H    -111.913000   66.452400  -70.863700
  C    -109.852000   67.144600  -71.493000
  H    -110.260000   68.104000  -71.354300
  H    -108.861000   67.214600  -71.074000
  C    -109.701000   66.797800  -73.006400
  H    -108.657000   66.398700  -73.104100
  H    -110.443000   66.030600  -73.346200
  H    -109.762000   67.696500  -73.667300
  S    -112.416000   60.429000  -69.284000
  C    -113.898000   59.765200  -69.864000
  C    -114.308000   60.298200  -71.080900
  C    -113.378000   61.195800  -71.565100
  C    -112.276000   61.378300  -70.766000
  H    -115.262000   60.000500  -71.437300
  C    -113.621000   61.763400  -72.887600
  H    -113.607000   62.792300  -72.800100
  H    -114.678000   61.611100  -73.109500
  C    -112.659000   61.445600  -74.044700
  H    -111.658000   61.561700  -73.624000
  H    -112.789000   62.256700  -74.829000
  C    -112.867000   60.092100  -74.678400
  H    -112.226000   59.974100  -75.595700
  H    -113.893000   59.935300  -74.928500
  H    -112.590000   59.404400  -73.956600
  H    -108.558000   64.643600  -70.019400
  H    -114.591000   59.143900  -69.325500

 Total Charge           Charge          ....    0
 Multiplicity           Mult            ....    1
 Number of Electrons    NEL             ....  134
 Basis Dimension        Dim             ....  322

ORBITAL ENERGIES
----------------

  NO   OCC          E(Eh)            E(eV)
   0   2.0000     -88.967995     -2420.9422
   1   2.0000     -88.966585     -2420.9039
   2   2.0000     -10.333264      -281.1824
   3   2.0000     -10.323352      -280.9127
   4   2.0000     -10.314075      -280.6602
   5   2.0000     -10.312578      -280.6195
   6   2.0000     -10.298932      -280.2482
   7   2.0000     -10.297566      -280.2110
   8   2.0000     -10.294727      -280.1338
   9   2.0000     -10.290870      -280.0288
  10   2.0000     -10.288539      -279.9654
  11   2.0000     -10.287022      -279.9241
  12   2.0000     -10.284259      -279.8489
  13   2.0000     -10.283576      -279.8303
  14   2.0000     -10.274886      -279.5939
  15   2.0000     -10.265266      -279.3321
  16   2.0000      -8.082748      -219.9427
  17   2.0000      -8.080513      -219.8819
  18   2.0000      -6.041114      -164.3871
  19   2.0000      -6.038974      -164.3288
  20   2.0000      -6.037224      -164.2812
  21   2.0000      -6.035214      -164.2265
  22   2.0000      -6.033672      -164.1846
  23   2.0000      -6.031331      -164.1209
  24   2.0000      -1.006471       -27.3875
  25   2.0000      -0.983062       -26.7505
  26   2.0000      -0.913563       -24.8593
  27   2.0000      -0.909899       -24.7596
  28   2.0000      -0.863167       -23.4880
  29   2.0000      -0.856234       -23.2993
  30   2.0000      -0.848310       -23.0837
  31   2.0000      -0.810918       -22.0662
  32   2.0000      -0.786492       -21.4015
  33   2.0000      -0.772353       -21.0168
  34   2.0000      -0.709635       -19.3102
  35   2.0000      -0.706622       -19.2282
  36   2.0000      -0.683940       -18.6110
  37   2.0000      -0.663767       -18.0620
  38   2.0000      -0.633047       -17.2261
  39   2.0000      -0.612928       -16.6786
  40   2.0000      -0.594473       -16.1764
  41   2.0000      -0.575083       -15.6488
  42   2.0000      -0.550599       -14.9826
  43   2.0000      -0.548825       -14.9343
  44   2.0000      -0.546908       -14.8821
  45   2.0000      -0.535358       -14.5678
  46   2.0000      -0.517465       -14.0809
  47   2.0000      -0.514630       -14.0038
  48   2.0000      -0.496007       -13.4970
  49   2.0000      -0.487585       -13.2679
  50   2.0000      -0.485743       -13.2177
  51   2.0000      -0.474581       -12.9140
  52   2.0000      -0.471214       -12.8224
  53   2.0000      -0.466131       -12.6841
  54   2.0000      -0.463636       -12.6162
  55   2.0000      -0.446096       -12.1389
  56   2.0000      -0.443887       -12.0788
  57   2.0000      -0.438193       -11.9238
  58   2.0000      -0.431186       -11.7332
  59   2.0000      -0.428262       -11.6536
  60   2.0000      -0.419973       -11.4280
  61   2.0000      -0.414982       -11.2922
  62   2.0000      -0.410706       -11.1759
  63   2.0000      -0.347915        -9.4672
  64   2.0000      -0.334413        -9.0998
  65   2.0000      -0.325545        -8.8585
  66   2.0000      -0.285097        -7.7579
  67   0.0000       0.028620         0.7788
  68   0.0000       0.062546         1.7020
  69   0.0000       0.107787         2.9330
  70   0.0000       0.124588         3.3902
  71   0.0000       0.130759         3.5581

MULLIKEN ATOMIC CHARGES
-----------------------
   0 S :    0.097913
   1 C :   -0.147725
   2 C :   -0.102407
   3 C :    0.005735
   4 C :   -0.173164
   5 H :    0.032671
   6 C :    0.076759
   7 H :    0.041562
   8 H :    0.006072
   9 C :   -0.021014
  10 H :    0.019500
  11 H :    0.027266
  12 C :   -0.086086
  13 H :    0.041834
  14 H :    0.052349
  15 H :    0.044309
  16 S :    0.119026
  17 C :   -0.087192
  18 C :   -0.042424
  19 C :   -0.052745
  20 C :   -0.115501
  21 H :    0.003373
  22 C :    0.123059
  23 H :   -0.017620
  24 H :   -0.000187
  25 C :   -0.084746
  26 H :    0.037409
  27 H :    0.028211
  28 C :   -0.002022
  29 H :    0.040834
  30 H :    0.015585
  31 H :    0.020541
  32 H :    0.053533
  33 H :    0.045293
Sum of atomic charges:   -0.0000000

LOEWDIN ATOMIC CHARGES
----------------------
   0 S :    0.382715
   1 C :   -0.200738
   2 C :   -0.072185
   3 C :   -0.064599
   4 C :   -0.183775
   5 H :    0.036471
   6 C :   -0.032237
   7 H :    0.047557
   8 H :    0.025055
   9 C :   -0.038538
  10 H :    0.023072
  11 H :    0.025388
  12 C :   -0.075261
  13 H :    0.033343
  14 H :    0.032749
  15 H :    0.030619
  16 S :    0.420699
  17 C :   -0.186892
  18 C :   -0.069168
  19 C :   -0.061188
  20 C :   -0.203473
  21 H :    0.028444
  22 C :   -0.033030
  23 H :    0.020692
  24 H :    0.028167
  25 C :   -0.032818
  26 H :    0.027376
  27 H :    0.026559
  28 C :   -0.059405
  29 H :    0.033579
  30 H :    0.019250
  31 H :    0.018069
  32 H :    0.027539
  33 H :    0.025968

  Mayer bond orders larger than 0.100000
B(  0-S ,  1-C ) :   1.1543 B(  0-S ,  4-C ) :   1.1336 B(  1-C ,  2-C ) :   1.5949
B(  1-C , 32-H ) :   0.9623 B(  2-C ,  3-C ) :   1.2709 B(  2-C ,  6-C ) :   0.9961
B(  3-C ,  4-C ) :   1.5776 B(  3-C ,  5-H ) :   0.9701 B(  4-C , 20-C ) :   1.0213
B(  6-C ,  7-H ) :   0.9264 B(  6-C ,  8-H ) :   0.9426 B(  6-C ,  9-C ) :   1.0769
B(  9-C , 10-H ) :   0.9537 B(  9-C , 11-H ) :   0.9597 B(  9-C , 12-C ) :   1.0489
B( 12-C , 13-H ) :   0.9806 B( 12-C , 14-H ) :   0.9827 B( 12-C , 15-H ) :   0.9787
B( 16-S , 17-C ) :   1.1841 B( 16-S , 20-C ) :   1.1317 B( 17-C , 18-C ) :   1.5833
B( 17-C , 33-H ) :   0.9629 B( 18-C , 19-C ) :   1.2637 B( 18-C , 21-H ) :   1.0046
B( 19-C , 20-C ) :   1.5732 B( 19-C , 22-C ) :   1.0518 B( 22-C , 23-H ) :   0.8993
B( 22-C , 24-H ) :   0.9278 B( 22-C , 25-C ) :   1.0726 B( 25-C , 26-H ) :   0.9541
B( 25-C , 27-H ) :   0.9545 B( 25-C , 28-C ) :   1.0795 B( 28-C , 29-H ) :   0.9725
B( 28-C , 30-H ) :   0.9729 B( 28-C , 31-H ) :   0.9760

Dispersion correction           -0.014666346
FINAL SINGLE POINT ENERGY     -1339.861635625484

DIPOLE MOMENT
-------------
                                X             Y             Z
Electronic contribution:      2.58257     -15.23924      20.76856
Nuclear contribution   :     -2.96895      15.88734     -20.94067
                        -----------------------------------------
Total Dipole Moment    :     -0.38638       0.64810      -0.17212
                        -----------------------------------------
Magnitude (a.u.)       :      0.77392
Magnitude (Debye)      :      1.96715

Rotational constants in cm-1:     0.020042     0.008479     0.006955
Rotational constants in MHz :   600.847689   254.208828   208.514514

                             ****ORCA TERMINATED NORMALLY****
TOTAL RUN TIME: 0 days 0 hours 0 minutes 22 seconds 81 msec
