                         Program Version 4.2.1 -  RELEASE  -
|  1> ! wB97X-D3 SP def2-SVP
|  2> %pal
|  3> nprocs 24
|  4> end
|  5>
|  6> * xyz 0 1
|  7> S 	 -63.2548 	 12.4904 	 -109.21
|  8> C 	 -63.2953 	 11.5523 	 -107.723
|  9> C 	 -63.1128 	 12.3473 	 -106.583
| 10> C 	 -62.835 	 13.733 	 -106.927
| 11> C 	 -62.9977 	 14.0092 	 -108.275
| 12> H 	 -62.6874 	 14.5138 	 -106.244
| 13> C 	 -63.0843 	 11.7259 	 -105.233
| 14> H 	 -62.2324 	 11.0179 	 -105.191
| 15> H 	 -63.8966 	 11.0837 	 -105.156
| 16> C 	 -63.0268 	 12.7417 	 -104.066
| 17> H 	 -62.066 	 13.3396 	 -104.175
| 18> H 	 -63.8386 	 13.4131 	 -104.058
| 19> C 	 -63.1219 	 12.1822 	 -102.655
| 20> H 	 -62.8614 	 12.9081 	 -101.91
| 21> H 	 -64.1105 	 11.8596 	 -102.367
| 22> H 	 -62.3475 	 11.3915 	 -102.576
| 23> S 	 -63.6793 	 16.7354 	 -108.394
| 24> C 	 -63.0301 	 17.5675 	 -109.77
| 25> C 	 -62.1805 	 16.8174 	 -110.499
| 26> C 	 -61.8886 	 15.5817 	 -109.913
| 27> C 	 -62.7772 	 15.2776 	 -108.911
| 28> H 	 -61.6904 	 17.2489 	 -111.375
| 29> C 	 -60.7574 	 14.76 	 -110.414
| 30> H 	 -60.7306 	 15.0419 	 -111.449
| 31> H 	 -61.1551 	 13.7531 	 -110.409
| 32> C 	 -59.4067 	 14.8806 	 -109.738
| 33> H 	 -59.1785 	 15.9045 	 -109.691
| 34> H 	 -58.6314 	 14.4442 	 -110.372
| 35> C 	 -59.4375 	 14.2885 	 -108.307
| 36> H 	 -59.9728 	 14.9614 	 -107.662
| 37> H 	 -58.4626 	 14.2436 	 -107.845
| 38> H 	 -59.9144 	 13.2525 	 -108.217
| 39> H 	 -63.4309 	 10.4877 	 -107.67
| 40> H 	 -63.1673 	 18.6331 	 -110.075
| 41> *
| 42>
| 43>                          ****END OF INPUT****

CARTESIAN COORDINATES (ANGSTROEM)
---------------------------------
  S    -63.254800   12.490400  -109.210000
  C    -63.295300   11.552300  -107.723000
  C    -63.112800   12.347300  -106.583000
  C    -62.835000   13.733000  -106.927000
  C    -62.997700   14.009200  -108.275000
  H    -62.687400   14.513800  -106.244000
  C    -63.084300   11.725900  -105.233000
  H    -62.232400   11.017900  -105.191000
  H    -63.896600   11.083700  -105.156000
  C    -63.026800   12.741700  -104.066000
  H    -62.066000   13.339600  -104.175000
  H    -63.838600   13.413100  -104.058000
  C    -63.121900   12.182200  -102.655000
  H    -62.861400   12.908100  -101.910000
  H    -64.110500   11.859600  -102.367000
  H    -62.347500   11.391500  -102.576000
  S    -63.679300   16.735400  -108.394000
  C    -63.030100   17.567500  -109.770000
  C    -62.180500   16.817400  -110.499000
  C    -61.888600   15.581700  -109.913000
  C    -62.777200   15.277600  -108.911000
  H    -61.690400   17.248900  -111.375000
  C    -60.757400   14.760000  -110.414000
  H    -60.730600   15.041900  -111.449000
  H    -61.155100   13.753100  -110.409000
  C    -59.406700   14.880600  -109.738000
  H    -59.178500   15.904500  -109.691000
  H    -58.631400   14.444200  -110.372000
  C    -59.437500   14.288500  -108.307000
  H    -59.972800   14.961400  -107.662000
  H    -58.462600   14.243600  -107.845000
  H    -59.914400   13.252500  -108.217000
  H    -63.430900   10.487700  -107.670000
  H    -63.167300   18.633100  -110.075000

 Total Charge           Charge          ....    0
 Multiplicity           Mult            ....    1
 Number of Electrons    NEL             ....  134
 Basis Dimension        Dim             ....  322

ORBITAL ENERGIES
----------------

  NO   OCC          E(Eh)            E(eV)
   0   2.0000     -88.967711     -2420.9345
   1   2.0000     -88.966126     -2420.8914
   2   2.0000     -10.329021      -281.0669
   3   2.0000     -10.320701      -280.8406
   4   2.0000     -10.313716      -280.6505
   5   2.0000     -10.313546      -280.6459
   6   2.0000     -10.303257      -280.3659
   7   2.0000     -10.293789      -280.1082
   8   2.0000     -10.292570      -280.0751
   9   2.0000     -10.289290      -279.9858
  10   2.0000     -10.288595      -279.9669
  11   2.0000     -10.283667      -279.8328
  12   2.0000     -10.281416      -279.7715
  13   2.0000     -10.278360      -279.6884
  14   2.0000     -10.277286      -279.6592
  15   2.0000     -10.273022      -279.5431
  16   2.0000      -8.080897      -219.8924
  17   2.0000      -8.080525      -219.8823
  18   2.0000      -6.039538      -164.3442
  19   2.0000      -6.039106      -164.3324
  20   2.0000      -6.035618      -164.2375
  21   2.0000      -6.035242      -164.2273
  22   2.0000      -6.031616      -164.1286
  23   2.0000      -6.031069      -164.1137
  24   2.0000      -1.005799       -27.3692
  25   2.0000      -0.979748       -26.6603
  26   2.0000      -0.913377       -24.8543
  27   2.0000      -0.910211       -24.7681
  28   2.0000      -0.871490       -23.7144
  29   2.0000      -0.851331       -23.1659
  30   2.0000      -0.845396       -23.0044
  31   2.0000      -0.817195       -22.2370
  32   2.0000      -0.784251       -21.3406
  33   2.0000      -0.768398       -20.9092
  34   2.0000      -0.716221       -19.4894
  35   2.0000      -0.701512       -19.0891
  36   2.0000      -0.685425       -18.6514
  37   2.0000      -0.663067       -18.0430
  38   2.0000      -0.637563       -17.3490
  39   2.0000      -0.617377       -16.7997
  40   2.0000      -0.590829       -16.0773
  41   2.0000      -0.575197       -15.6519
  42   2.0000      -0.565028       -15.3752
  43   2.0000      -0.549301       -14.9472
  44   2.0000      -0.542253       -14.7554
  45   2.0000      -0.523702       -14.2507
  46   2.0000      -0.514410       -13.9978
  47   2.0000      -0.510068       -13.8797
  48   2.0000      -0.503930       -13.7126
  49   2.0000      -0.492354       -13.3976
  50   2.0000      -0.490338       -13.3428
  51   2.0000      -0.483594       -13.1593
  52   2.0000      -0.472549       -12.8587
  53   2.0000      -0.466627       -12.6976
  54   2.0000      -0.456146       -12.4124
  55   2.0000      -0.451771       -12.2933
  56   2.0000      -0.441695       -12.0191
  57   2.0000      -0.436601       -11.8805
  58   2.0000      -0.429957       -11.6997
  59   2.0000      -0.423348       -11.5199
  60   2.0000      -0.422204       -11.4887
  61   2.0000      -0.416755       -11.3405
  62   2.0000      -0.415402       -11.3037
  63   2.0000      -0.342281        -9.3139
  64   2.0000      -0.332345        -9.0436
  65   2.0000      -0.325068        -8.8456
  66   2.0000      -0.287370        -7.8197
  67   0.0000       0.025890         0.7045
  68   0.0000       0.068503         1.8641
  69   0.0000       0.106830         2.9070
  70   0.0000       0.113061         3.0765
  71   0.0000       0.130495         3.5509

MULLIKEN ATOMIC CHARGES
-----------------------
   0 S :    0.110663
   1 C :   -0.125813
   2 C :   -0.085429
   3 C :    0.033045
   4 C :   -0.144246
   5 H :   -0.001602
   6 C :    0.098378
   7 H :    0.037424
   8 H :    0.008990
   9 C :   -0.117396
  10 H :    0.044457
  11 H :    0.026083
  12 C :   -0.023326
  13 H :    0.025587
  14 H :    0.032348
  15 H :    0.025033
  16 S :    0.114705
  17 C :   -0.090695
  18 C :   -0.041168
  19 C :   -0.081851
  20 C :   -0.168989
  21 H :    0.018311
  22 C :    0.105316
  23 H :    0.005127
  24 H :    0.007455
  25 C :    0.007437
  26 H :    0.007455
  27 H :    0.031521
  28 C :   -0.067642
  29 H :    0.028128
  30 H :    0.024628
  31 H :    0.051735
  32 H :    0.040988
  33 H :    0.063344
Sum of atomic charges:   -0.0000000

LOEWDIN ATOMIC CHARGES
----------------------
   0 S :    0.392410
   1 C :   -0.195302
   2 C :   -0.056071
   3 C :   -0.052373
   4 C :   -0.172879
   5 H :    0.020954
   6 C :   -0.033192
   7 H :    0.039179
   8 H :    0.023576
   9 C :   -0.043821
  10 H :    0.031962
  11 H :    0.018815
  12 C :   -0.061851
  13 H :    0.025706
  14 H :    0.023066
  15 H :    0.024971
  16 S :    0.392078
  17 C :   -0.192720
  18 C :   -0.078113
  19 C :   -0.054850
  20 C :   -0.193285
  21 H :    0.033754
  22 C :   -0.033258
  23 H :    0.027743
  24 H :    0.018053
  25 C :   -0.028332
  26 H :    0.018423
  27 H :    0.026852
  28 C :   -0.067957
  29 H :    0.022723
  30 H :    0.021772
  31 H :    0.036080
  32 H :    0.024903
  33 H :    0.040984

  Mayer bond orders larger than 0.100000
B(  0-S ,  1-C ) :   1.1352 B(  0-S ,  4-C ) :   1.1285 B(  1-C ,  2-C ) :   1.6126
B(  1-C , 32-H ) :   0.9720 B(  2-C ,  3-C ) :   1.2321 B(  2-C ,  6-C ) :   1.0195
B(  3-C ,  4-C ) :   1.5750 B(  3-C ,  5-H ) :   0.9930 B(  4-C , 20-C ) :   1.0730
B(  6-C ,  7-H ) :   0.9298 B(  6-C ,  8-H ) :   0.9318 B(  6-C ,  9-C ) :   1.0787
B(  9-C , 10-H ) :   0.9475 B(  9-C , 11-H ) :   0.9588 B(  9-C , 12-C ) :   1.0920
B( 12-C , 13-H ) :   0.9704 B( 12-C , 14-H ) :   0.9751 B( 12-C , 15-H ) :   0.9734
B( 16-S , 17-C ) :   1.1417 B( 16-S , 20-C ) :   1.1121 B( 17-C , 18-C ) :   1.6472
B( 17-C , 33-H ) :   0.9538 B( 18-C , 19-C ) :   1.2395 B( 18-C , 21-H ) :   0.9826
B( 19-C , 20-C ) :   1.5838 B( 19-C , 22-C ) :   1.0293 B( 22-C , 23-H ) :   0.9212
B( 22-C , 24-H ) :   0.9170 B( 22-C , 25-C ) :   1.0763 B( 25-C , 26-H ) :   0.9488
B( 25-C , 27-H ) :   0.9542 B( 25-C , 28-C ) :   1.0751 B( 28-C , 29-H ) :   0.9730
B( 28-C , 30-H ) :   0.9724 B( 28-C , 31-H ) :   0.9759

Dispersion correction           -0.015571390
FINAL SINGLE POINT ENERGY     -1339.873798571101

DIPOLE MOMENT
-------------
                                X             Y             Z
Electronic contribution:    -13.29947       7.73279     -16.08713
Nuclear contribution   :     13.68610      -7.77756      16.37518
                        -----------------------------------------
Total Dipole Moment    :      0.38663      -0.04476       0.28805
                        -----------------------------------------
Magnitude (a.u.)       :      0.48421
Magnitude (Debye)      :      1.23077

Rotational constants in cm-1:     0.020356     0.008265     0.007628
Rotational constants in MHz :   610.267085   247.767740   228.678222

                             ****ORCA TERMINATED NORMALLY****
TOTAL RUN TIME: 0 days 0 hours 0 minutes 22 seconds 348 msec
