                         Program Version 4.2.1 -  RELEASE  -
|  1> ! wB97X-D3 SP def2-SVP
|  2> %pal
|  3> nprocs 24
|  4> end
|  5>
|  6> * xyz 0 1
|  7> S 	 -56.1229 	 14.0981 	 -92.597
|  8> C 	 -54.9921 	 12.7915 	 -92.0963
|  9> C 	 -53.7323 	 13.2533 	 -91.7896
| 10> C 	 -53.7559 	 14.6866 	 -91.8438
| 11> C 	 -54.9611 	 15.2788 	 -92.2044
| 12> H 	 -52.8811 	 15.3756 	 -91.7528
| 13> C 	 -52.5885 	 12.3729 	 -91.4166
| 14> H 	 -51.7737 	 12.715 	 -92.1208
| 15> H 	 -52.7143 	 11.3137 	 -91.7398
| 16> C 	 -52.0524 	 12.4654 	 -89.9168
| 17> H 	 -51.6988 	 13.4681 	 -89.6864
| 18> H 	 -52.8478 	 12.2826 	 -89.214
| 19> C 	 -50.9016 	 11.5441 	 -89.6807
| 20> H 	 -50.0471 	 11.8942 	 -90.2074
| 21> H 	 -50.6038 	 11.3107 	 -88.5982
| 22> H 	 -51.0328 	 10.5402 	 -90.0184
| 23> S 	 -56.5203 	 17.0122 	 -93.593
| 24> C 	 -56.2613 	 18.6937 	 -93.4106
| 25> C 	 -55.3437 	 18.9771 	 -92.4766
| 26> C 	 -54.6712 	 17.8312 	 -91.9776
| 27> C 	 -55.1804 	 16.664 	 -92.4739
| 28> H 	 -55.0289 	 19.9811 	 -92.228
| 29> C 	 -53.5942 	 18.0558 	 -90.924
| 30> H 	 -53.5122 	 17.1714 	 -90.3374
| 31> H 	 -53.9898 	 18.7704 	 -90.1826
| 32> C 	 -52.2845 	 18.4909 	 -91.4257
| 33> H 	 -52.3421 	 19.5638 	 -91.6247
| 34> H 	 -51.9821 	 17.9806 	 -92.2846
| 35> C 	 -51.1562 	 18.2757 	 -90.364
| 36> H 	 -51.1224 	 17.2668 	 -89.9564
| 37> H 	 -51.4309 	 19.0483 	 -89.5604
| 38> H 	 -50.1523 	 18.5854 	 -90.7368
| 39> H 	 -55.2811 	 11.8052 	 -91.9239
| 40> H 	 -56.8887 	 19.5369 	 -93.7473
| 41> *
| 42>
| 43>                          ****END OF INPUT****

CARTESIAN COORDINATES (ANGSTROEM)
---------------------------------
  S    -56.122900   14.098100  -92.597000
  C    -54.992100   12.791500  -92.096300
  C    -53.732300   13.253300  -91.789600
  C    -53.755900   14.686600  -91.843800
  C    -54.961100   15.278800  -92.204400
  H    -52.881100   15.375600  -91.752800
  C    -52.588500   12.372900  -91.416600
  H    -51.773700   12.715000  -92.120800
  H    -52.714300   11.313700  -91.739800
  C    -52.052400   12.465400  -89.916800
  H    -51.698800   13.468100  -89.686400
  H    -52.847800   12.282600  -89.214000
  C    -50.901600   11.544100  -89.680700
  H    -50.047100   11.894200  -90.207400
  H    -50.603800   11.310700  -88.598200
  H    -51.032800   10.540200  -90.018400
  S    -56.520300   17.012200  -93.593000
  C    -56.261300   18.693700  -93.410600
  C    -55.343700   18.977100  -92.476600
  C    -54.671200   17.831200  -91.977600
  C    -55.180400   16.664000  -92.473900
  H    -55.028900   19.981100  -92.228000
  C    -53.594200   18.055800  -90.924000
  H    -53.512200   17.171400  -90.337400
  H    -53.989800   18.770400  -90.182600
  C    -52.284500   18.490900  -91.425700
  H    -52.342100   19.563800  -91.624700
  H    -51.982100   17.980600  -92.284600
  C    -51.156200   18.275700  -90.364000
  H    -51.122400   17.266800  -89.956400
  H    -51.430900   19.048300  -89.560400
  H    -50.152300   18.585400  -90.736800
  H    -55.281100   11.805200  -91.923900
  H    -56.888700   19.536900  -93.747300

 Total Charge           Charge          ....    0
 Multiplicity           Mult            ....    1
 Number of Electrons    NEL             ....  134
 Basis Dimension        Dim             ....  322

ORBITAL ENERGIES
----------------

  NO   OCC          E(Eh)            E(eV)
   0   2.0000     -88.966311     -2420.8964
   1   2.0000     -88.964225     -2420.8396
   2   2.0000     -10.326638      -281.0021
   3   2.0000     -10.325950      -280.9834
   4   2.0000     -10.311242      -280.5832
   5   2.0000     -10.310846      -280.5724
   6   2.0000     -10.305738      -280.4334
   7   2.0000     -10.304700      -280.4052
   8   2.0000     -10.298473      -280.2357
   9   2.0000     -10.296412      -280.1796
  10   2.0000     -10.291389      -280.0429
  11   2.0000     -10.289142      -279.9818
  12   2.0000     -10.286103      -279.8991
  13   2.0000     -10.284892      -279.8661
  14   2.0000     -10.281169      -279.7648
  15   2.0000     -10.277363      -279.6613
  16   2.0000      -8.081360      -219.9050
  17   2.0000      -8.079602      -219.8572
  18   2.0000      -6.039968      -164.3559
  19   2.0000      -6.038238      -164.3088
  20   2.0000      -6.035932      -164.2461
  21   2.0000      -6.034157      -164.1978
  22   2.0000      -6.031880      -164.1358
  23   2.0000      -6.030048      -164.0859
  24   2.0000      -1.014788       -27.6138
  25   2.0000      -0.988253       -26.8917
  26   2.0000      -0.920042       -25.0356
  27   2.0000      -0.913823       -24.8664
  28   2.0000      -0.878132       -23.8952
  29   2.0000      -0.855134       -23.2694
  30   2.0000      -0.845650       -23.0113
  31   2.0000      -0.814410       -22.1612
  32   2.0000      -0.783395       -21.3173
  33   2.0000      -0.774880       -21.0856
  34   2.0000      -0.713436       -19.4136
  35   2.0000      -0.705227       -19.1902
  36   2.0000      -0.698071       -18.9955
  37   2.0000      -0.666077       -18.1249
  38   2.0000      -0.641329       -17.4515
  39   2.0000      -0.616803       -16.7841
  40   2.0000      -0.600077       -16.3289
  41   2.0000      -0.575299       -15.6547
  42   2.0000      -0.569237       -15.4897
  43   2.0000      -0.561354       -15.2752
  44   2.0000      -0.529693       -14.4137
  45   2.0000      -0.523441       -14.2435
  46   2.0000      -0.521663       -14.1952
  47   2.0000      -0.510017       -13.8783
  48   2.0000      -0.507650       -13.8139
  49   2.0000      -0.502242       -13.6667
  50   2.0000      -0.489932       -13.3317
  51   2.0000      -0.486149       -13.2288
  52   2.0000      -0.472588       -12.8598
  53   2.0000      -0.466173       -12.6852
  54   2.0000      -0.457735       -12.4556
  55   2.0000      -0.453073       -12.3287
  56   2.0000      -0.450800       -12.2669
  57   2.0000      -0.442145       -12.0314
  58   2.0000      -0.431616       -11.7449
  59   2.0000      -0.428838       -11.6693
  60   2.0000      -0.419729       -11.4214
  61   2.0000      -0.418051       -11.3757
  62   2.0000      -0.410118       -11.1599
  63   2.0000      -0.362420        -9.8619
  64   2.0000      -0.336628        -9.1601
  65   2.0000      -0.328783        -8.9466
  66   2.0000      -0.283050        -7.7022
  67   0.0000       0.023010         0.6261
  68   0.0000       0.077751         2.1157
  69   0.0000       0.103086         2.8051
  70   0.0000       0.116055         3.1580
  71   0.0000       0.127918         3.4808

MULLIKEN ATOMIC CHARGES
-----------------------
   0 S :    0.092345
   1 C :   -0.103674
   2 C :   -0.039400
   3 C :   -0.030386
   4 C :   -0.103548
   5 H :    0.016326
   6 C :    0.012134
   7 H :    0.040234
   8 H :    0.030234
   9 C :   -0.030993
  10 H :    0.027485
  11 H :    0.031172
  12 C :   -0.050109
  13 H :    0.021335
  14 H :    0.041298
  15 H :    0.013459
  16 S :    0.088690
  17 C :   -0.061371
  18 C :   -0.040454
  19 C :   -0.062191
  20 C :   -0.126764
  21 H :    0.012133
  22 C :    0.058824
  23 H :    0.002419
  24 H :    0.025510
  25 C :   -0.029445
  26 H :    0.026473
  27 H :    0.021308
  28 C :   -0.087313
  29 H :    0.042184
  30 H :    0.034540
  31 H :    0.042523
  32 H :    0.022246
  33 H :    0.062778
Sum of atomic charges:    0.0000000

LOEWDIN ATOMIC CHARGES
----------------------
   0 S :    0.398895
   1 C :   -0.171794
   2 C :   -0.059709
   3 C :   -0.075628
   4 C :   -0.201916
   5 H :    0.032449
   6 C :   -0.036074
   7 H :    0.042083
   8 H :    0.034828
   9 C :   -0.034919
  10 H :    0.025611
  11 H :    0.023679
  12 C :   -0.072497
  13 H :    0.020985
  14 H :    0.037342
  15 H :    0.018318
  16 S :    0.396917
  17 C :   -0.197512
  18 C :   -0.072917
  19 C :   -0.053868
  20 C :   -0.179743
  21 H :    0.029536
  22 C :   -0.033820
  23 H :    0.020833
  24 H :    0.035556
  25 C :   -0.036986
  26 H :    0.026710
  27 H :    0.014932
  28 C :   -0.067595
  29 H :    0.021516
  30 H :    0.032240
  31 H :    0.028047
  32 H :    0.013615
  33 H :    0.040883

  Mayer bond orders larger than 0.100000
B(  0-S ,  1-C ) :   1.1185 B(  0-S ,  4-C ) :   1.1420 B(  1-C ,  2-C ) :   1.6168
B(  1-C , 32-H ) :   0.9760 B(  2-C ,  3-C ) :   1.2255 B(  2-C ,  6-C ) :   1.0319
B(  3-C ,  4-C ) :   1.5653 B(  3-C ,  5-H ) :   0.9869 B(  4-C , 20-C ) :   1.0929
B(  6-C ,  7-H ) :   0.9329 B(  6-C ,  8-H ) :   0.9461 B(  6-C ,  9-C ) :   1.0438
B(  9-C , 10-H ) :   0.9542 B(  9-C , 11-H ) :   0.9596 B(  9-C , 12-C ) :   1.0844
B( 12-C , 13-H ) :   0.9745 B( 12-C , 14-H ) :   0.9719 B( 12-C , 15-H ) :   0.9721
B( 16-S , 17-C ) :   1.1422 B( 16-S , 20-C ) :   1.1096 B( 17-C , 18-C ) :   1.6437
B( 17-C , 33-H ) :   0.9542 B( 18-C , 19-C ) :   1.2388 B( 18-C , 21-H ) :   0.9869
B( 19-C , 20-C ) :   1.6238 B( 19-C , 22-C ) :   1.0399 B( 22-C , 23-H ) :   0.9331
B( 22-C , 24-H ) :   0.9283 B( 22-C , 25-C ) :   1.0657 B( 25-C , 26-H ) :   0.9499
B( 25-C , 27-H ) :   0.9559 B( 25-C , 28-C ) :   1.0811 B( 28-C , 29-H ) :   0.9772
B( 28-C , 30-H ) :   0.9759 B( 28-C , 31-H ) :   0.9757

Dispersion correction           -0.013713773
FINAL SINGLE POINT ENERGY     -1339.873895145051

DIPOLE MOMENT
-------------
                                X             Y             Z
Electronic contribution:    -29.08065       2.60852     -17.03056
Nuclear contribution   :     29.70090      -2.50225      17.41765
                        -----------------------------------------
Total Dipole Moment    :      0.62026       0.10627       0.38709
                        -----------------------------------------
Magnitude (a.u.)       :      0.73882
Magnitude (Debye)      :      1.87792

Rotational constants in cm-1:     0.017549     0.009159     0.006177
Rotational constants in MHz :   526.111281   274.588718   185.174797

                             ****ORCA TERMINATED NORMALLY****
TOTAL RUN TIME: 0 days 0 hours 0 minutes 21 seconds 502 msec
