                         Program Version 4.2.1 -  RELEASE  -
|  1> ! wB97X-D3 SP def2-SVP
|  2> %pal
|  3> nprocs 24
|  4> end
|  5>
|  6> * xyz 0 1
|  7> S 	 -56.3258 	 -59.0098 	 -82.3742
|  8> C 	 -55.8888 	 -57.756 	 -81.2274
|  9> C 	 -56.785 	 -56.6803 	 -81.3162
| 10> C 	 -57.8958 	 -56.9387 	 -82.1803
| 11> C 	 -57.6968 	 -58.0352 	 -82.9637
| 12> H 	 -58.7685 	 -56.3562 	 -82.337
| 13> C 	 -56.8955 	 -55.5449 	 -80.3307
| 14> H 	 -56.0672 	 -54.8368 	 -80.2999
| 15> H 	 -56.9237 	 -56.0174 	 -79.3406
| 16> C 	 -58.1431 	 -54.609 	 -80.478
| 17> H 	 -58.2544 	 -54.2312 	 -81.5277
| 18> H 	 -59.1021 	 -55.2209 	 -80.3176
| 19> C 	 -58.0949 	 -53.4533 	 -79.5555
| 20> H 	 -58.1851 	 -53.8725 	 -78.5426
| 21> H 	 -57.0798 	 -53.0622 	 -79.5718
| 22> H 	 -58.8586 	 -52.7589 	 -79.8751
| 23> S 	 -59.749 	 -59.7711 	 -83.3612
| 24> C 	 -60.5558 	 -59.9405 	 -84.8708
| 25> C 	 -60.205 	 -58.8192 	 -85.6604
| 26> C 	 -59.0202 	 -58.1433 	 -85.1833
| 27> C 	 -58.6947 	 -58.5564 	 -83.9055
| 28> H 	 -60.6281 	 -58.6444 	 -86.5868
| 29> C 	 -58.5673 	 -56.8914 	 -85.8907
| 30> H 	 -57.6158 	 -56.6157 	 -85.4896
| 31> H 	 -59.3582 	 -56.1523 	 -85.7177
| 32> C 	 -58.4489 	 -57.0977 	 -87.4171
| 33> H 	 -58.2522 	 -56.0998 	 -87.8378
| 34> H 	 -59.2449 	 -57.409 	 -88.0554
| 35> C 	 -57.3681 	 -58.1157 	 -87.8345
| 36> H 	 -57.6172 	 -59.1692 	 -87.6776
| 37> H 	 -56.4433 	 -57.947 	 -87.2321
| 38> H 	 -57.0293 	 -58.094 	 -88.8328
| 39> H 	 -54.9491 	 -57.6958 	 -80.7174
| 40> H 	 -61.5203 	 -60.3926 	 -85.0314
| 41> *
| 42>
| 43>                          ****END OF INPUT****

CARTESIAN COORDINATES (ANGSTROEM)
---------------------------------
  S    -56.325800  -59.009800  -82.374200
  C    -55.888800  -57.756000  -81.227400
  C    -56.785000  -56.680300  -81.316200
  C    -57.895800  -56.938700  -82.180300
  C    -57.696800  -58.035200  -82.963700
  H    -58.768500  -56.356200  -82.337000
  C    -56.895500  -55.544900  -80.330700
  H    -56.067200  -54.836800  -80.299900
  H    -56.923700  -56.017400  -79.340600
  C    -58.143100  -54.609000  -80.478000
  H    -58.254400  -54.231200  -81.527700
  H    -59.102100  -55.220900  -80.317600
  C    -58.094900  -53.453300  -79.555500
  H    -58.185100  -53.872500  -78.542600
  H    -57.079800  -53.062200  -79.571800
  H    -58.858600  -52.758900  -79.875100
  S    -59.749000  -59.771100  -83.361200
  C    -60.555800  -59.940500  -84.870800
  C    -60.205000  -58.819200  -85.660400
  C    -59.020200  -58.143300  -85.183300
  C    -58.694700  -58.556400  -83.905500
  H    -60.628100  -58.644400  -86.586800
  C    -58.567300  -56.891400  -85.890700
  H    -57.615800  -56.615700  -85.489600
  H    -59.358200  -56.152300  -85.717700
  C    -58.448900  -57.097700  -87.417100
  H    -58.252200  -56.099800  -87.837800
  H    -59.244900  -57.409000  -88.055400
  C    -57.368100  -58.115700  -87.834500
  H    -57.617200  -59.169200  -87.677600
  H    -56.443300  -57.947000  -87.232100
  H    -57.029300  -58.094000  -88.832800
  H    -54.949100  -57.695800  -80.717400
  H    -61.520300  -60.392600  -85.031400

 Total Charge           Charge          ....    0
 Multiplicity           Mult            ....    1
 Number of Electrons    NEL             ....  134
 Basis Dimension        Dim             ....  322

ORBITAL ENERGIES
----------------

  NO   OCC          E(Eh)            E(eV)
   0   2.0000     -88.967036     -2420.9161
   1   2.0000     -88.962526     -2420.7934
   2   2.0000     -10.327502      -281.0256
   3   2.0000     -10.319522      -280.8085
   4   2.0000     -10.316219      -280.7186
   5   2.0000     -10.313234      -280.6374
   6   2.0000     -10.303892      -280.3832
   7   2.0000     -10.297566      -280.2110
   8   2.0000     -10.293961      -280.1129
   9   2.0000     -10.293070      -280.0887
  10   2.0000     -10.292870      -280.0832
  11   2.0000     -10.290773      -280.0262
  12   2.0000     -10.288701      -279.9698
  13   2.0000     -10.285191      -279.8743
  14   2.0000     -10.277572      -279.6669
  15   2.0000     -10.270172      -279.4656
  16   2.0000      -8.081083      -219.8975
  17   2.0000      -8.078602      -219.8299
  18   2.0000      -6.039624      -164.3465
  19   2.0000      -6.037015      -164.2755
  20   2.0000      -6.035667      -164.2389
  21   2.0000      -6.032822      -164.1614
  22   2.0000      -6.031863      -164.1353
  23   2.0000      -6.029463      -164.0700
  24   2.0000      -1.009365       -27.4662
  25   2.0000      -0.984734       -26.7960
  26   2.0000      -0.914568       -24.8866
  27   2.0000      -0.909741       -24.7553
  28   2.0000      -0.871439       -23.7131
  29   2.0000      -0.852781       -23.2054
  30   2.0000      -0.844521       -22.9806
  31   2.0000      -0.816287       -22.2123
  32   2.0000      -0.781040       -21.2532
  33   2.0000      -0.768999       -20.9255
  34   2.0000      -0.709265       -19.3001
  35   2.0000      -0.701054       -19.0766
  36   2.0000      -0.686029       -18.6678
  37   2.0000      -0.660424       -17.9710
  38   2.0000      -0.645283       -17.5591
  39   2.0000      -0.620554       -16.8861
  40   2.0000      -0.595450       -16.2030
  41   2.0000      -0.570697       -15.5294
  42   2.0000      -0.568775       -15.4771
  43   2.0000      -0.559979       -15.2378
  44   2.0000      -0.538250       -14.6465
  45   2.0000      -0.530903       -14.4466
  46   2.0000      -0.519180       -14.1276
  47   2.0000      -0.510561       -13.8931
  48   2.0000      -0.500119       -13.6089
  49   2.0000      -0.495890       -13.4939
  50   2.0000      -0.492553       -13.4031
  51   2.0000      -0.483211       -13.1488
  52   2.0000      -0.471266       -12.8238
  53   2.0000      -0.462451       -12.5839
  54   2.0000      -0.453521       -12.3409
  55   2.0000      -0.452020       -12.3001
  56   2.0000      -0.442633       -12.0447
  57   2.0000      -0.437929       -11.9166
  58   2.0000      -0.427320       -11.6280
  59   2.0000      -0.423983       -11.5372
  60   2.0000      -0.423819       -11.5327
  61   2.0000      -0.413276       -11.2458
  62   2.0000      -0.405656       -11.0385
  63   2.0000      -0.340646        -9.2695
  64   2.0000      -0.323238        -8.7957
  65   2.0000      -0.322357        -8.7718
  66   2.0000      -0.305461        -8.3120
  67   0.0000       0.038397         1.0448
  68   0.0000       0.053661         1.4602
  69   0.0000       0.109213         2.9718
  70   0.0000       0.118666         3.2291
  71   0.0000       0.131314         3.5732

MULLIKEN ATOMIC CHARGES
-----------------------
   0 S :    0.112045
   1 C :   -0.118368
   2 C :   -0.049571
   3 C :    0.023547
   4 C :   -0.150433
   5 H :    0.013393
   6 C :    0.031175
   7 H :    0.023675
   8 H :    0.042858
   9 C :   -0.175086
  10 H :    0.036731
  11 H :    0.040884
  12 C :    0.022228
  13 H :    0.027568
  14 H :    0.020498
  15 H :    0.045333
  16 S :    0.123626
  17 C :   -0.079930
  18 C :   -0.039652
  19 C :   -0.057285
  20 C :   -0.176292
  21 H :   -0.001438
  22 C :    0.105188
  23 H :    0.030127
  24 H :    0.047582
  25 C :   -0.083359
  26 H :    0.022054
  27 H :    0.025116
  28 C :   -0.065221
  29 H :    0.038868
  30 H :    0.022994
  31 H :    0.022176
  32 H :    0.054052
  33 H :    0.064920
Sum of atomic charges:   -0.0000000

LOEWDIN ATOMIC CHARGES
----------------------
   0 S :    0.396622
   1 C :   -0.194145
   2 C :   -0.061906
   3 C :   -0.052071
   4 C :   -0.188135
   5 H :    0.030509
   6 C :   -0.037690
   7 H :    0.027126
   8 H :    0.037796
   9 C :   -0.055417
  10 H :    0.022621
  11 H :    0.027344
  12 C :   -0.061708
  13 H :    0.029305
  14 H :    0.023966
  15 H :    0.031401
  16 S :    0.446897
  17 C :   -0.207442
  18 C :   -0.055039
  19 C :   -0.062080
  20 C :   -0.223294
  21 H :    0.013502
  22 C :   -0.019304
  23 H :    0.030170
  24 H :    0.040386
  25 C :   -0.047221
  26 H :    0.025787
  27 H :    0.020966
  28 C :   -0.070029
  29 H :    0.027761
  30 H :    0.025723
  31 H :    0.019241
  32 H :    0.027434
  33 H :    0.030926

  Mayer bond orders larger than 0.100000
B(  0-S ,  1-C ) :   1.1449 B(  0-S ,  4-C ) :   1.1445 B(  1-C ,  2-C ) :   1.6098
B(  1-C ,  4-C ) :   0.1005 B(  1-C , 32-H ) :   0.9714 B(  2-C ,  3-C ) :   1.2399
B(  2-C ,  6-C ) :   1.0133 B(  3-C ,  4-C ) :   1.5877 B(  3-C ,  5-H ) :   0.9887
B(  4-C , 20-C ) :   0.9958 B(  6-C ,  7-H ) :   0.9365 B(  6-C ,  8-H ) :   0.9402
B(  6-C ,  9-C ) :   1.0859 B(  9-C , 10-H ) :   0.9529 B(  9-C , 11-H ) :   0.9415
B(  9-C , 12-C ) :   1.0817 B( 12-C , 13-H ) :   0.9701 B( 12-C , 14-H ) :   0.9695
B( 12-C , 15-H ) :   0.9685 B( 16-S , 17-C ) :   1.1699 B( 16-S , 20-C ) :   1.1848
B( 17-C , 18-C ) :   1.5825 B( 17-C , 33-H ) :   0.9628 B( 18-C , 19-C ) :   1.2635
B( 18-C , 21-H ) :   0.9887 B( 19-C , 20-C ) :   1.5753 B( 19-C , 22-C ) :   1.0490
B( 22-C , 23-H ) :   0.9298 B( 22-C , 24-H ) :   0.9394 B( 22-C , 25-C ) :   1.0665
B( 25-C , 26-H ) :   0.9547 B( 25-C , 27-H ) :   0.9592 B( 25-C , 28-C ) :   1.0654
B( 28-C , 29-H ) :   0.9735 B( 28-C , 30-H ) :   0.9765 B( 28-C , 31-H ) :   0.9754

Dispersion correction           -0.013967372
FINAL SINGLE POINT ENERGY     -1339.857524493230

DIPOLE MOMENT
-------------
                                X             Y             Z
Electronic contribution:     -0.54926     -21.73825       4.62933
Nuclear contribution   :      0.33560      22.46704      -4.64430
                        -----------------------------------------
Total Dipole Moment    :     -0.21366       0.72878      -0.01497
                        -----------------------------------------
Magnitude (a.u.)       :      0.75961
Magnitude (Debye)      :      1.93077

Rotational constants in cm-1:     0.018967     0.007697     0.007219
Rotational constants in MHz :   568.610785   230.741669   216.414648

                             ****ORCA TERMINATED NORMALLY****
TOTAL RUN TIME: 0 days 0 hours 0 minutes 20 seconds 329 msec
