                         Program Version 4.2.1 -  RELEASE  -
|  1> ! wB97X-D3 SP def2-SVP
|  2> %pal
|  3> nprocs 24
|  4> end
|  5>
|  6> * xyz 0 1
|  7> S 	 -40.9494 	 20.0021 	 26.3091
|  8> C 	 -41.6469 	 19.7845 	 27.905
|  9> C 	 -40.8559 	 19.0274 	 28.7319
| 10> C 	 -39.777 	 18.4002 	 28.0259
| 11> C 	 -39.73 	 18.8123 	 26.7002
| 12> H 	 -39.0692 	 17.6692 	 28.3934
| 13> C 	 -41.0429 	 18.9263 	 30.2401
| 14> H 	 -40.1544 	 18.7375 	 30.8011
| 15> H 	 -41.6416 	 18.0135 	 30.3063
| 16> C 	 -41.8169 	 20.0678 	 30.8377
| 17> H 	 -41.3648 	 20.9776 	 30.6071
| 18> H 	 -42.778 	 20.189 	 30.4004
| 19> C 	 -41.8321 	 19.9137 	 32.4621
| 20> H 	 -40.7965 	 20.016 	 32.7737
| 21> H 	 -42.4254 	 20.788 	 32.8931
| 22> H 	 -42.201 	 18.9687 	 32.8617
| 23> S 	 -39.745 	 17.5257 	 24.3462
| 24> C 	 -38.2476 	 17.2616 	 23.4091
| 25> C 	 -37.2357 	 17.9572 	 23.9921
| 26> C 	 -37.5627 	 18.5742 	 25.253
| 27> C 	 -38.8996 	 18.4169 	 25.6102
| 28> H 	 -36.2603 	 18.0208 	 23.4955
| 29> C 	 -36.5318 	 19.2976 	 26.1302
| 30> H 	 -35.9698 	 18.7046 	 26.872
| 31> H 	 -37.0473 	 20.0058 	 26.7586
| 32> C 	 -35.5359 	 20.1842 	 25.3997
| 33> H 	 -36.0871 	 20.8815 	 24.7928
| 34> H 	 -35.0825 	 19.4592 	 24.6934
| 35> C 	 -34.3924 	 20.7813 	 26.1587
| 36> H 	 -33.6558 	 21.256 	 25.4918
| 37> H 	 -33.9092 	 19.8467 	 26.6084
| 38> H 	 -34.725 	 21.473 	 26.9243
| 39> H 	 -42.3507 	 20.4992 	 28.2927
| 40> H 	 -38.2257 	 16.7452 	 22.4085
| 41> *
| 42>
| 43>                          ****END OF INPUT****

CARTESIAN COORDINATES (ANGSTROEM)
---------------------------------
  S    -40.949400   20.002100   26.309100
  C    -41.646900   19.784500   27.905000
  C    -40.855900   19.027400   28.731900
  C    -39.777000   18.400200   28.025900
  C    -39.730000   18.812300   26.700200
  H    -39.069200   17.669200   28.393400
  C    -41.042900   18.926300   30.240100
  H    -40.154400   18.737500   30.801100
  H    -41.641600   18.013500   30.306300
  C    -41.816900   20.067800   30.837700
  H    -41.364800   20.977600   30.607100
  H    -42.778000   20.189000   30.400400
  C    -41.832100   19.913700   32.462100
  H    -40.796500   20.016000   32.773700
  H    -42.425400   20.788000   32.893100
  H    -42.201000   18.968700   32.861700
  S    -39.745000   17.525700   24.346200
  C    -38.247600   17.261600   23.409100
  C    -37.235700   17.957200   23.992100
  C    -37.562700   18.574200   25.253000
  C    -38.899600   18.416900   25.610200
  H    -36.260300   18.020800   23.495500
  C    -36.531800   19.297600   26.130200
  H    -35.969800   18.704600   26.872000
  H    -37.047300   20.005800   26.758600
  C    -35.535900   20.184200   25.399700
  H    -36.087100   20.881500   24.792800
  H    -35.082500   19.459200   24.693400
  C    -34.392400   20.781300   26.158700
  H    -33.655800   21.256000   25.491800
  H    -33.909200   19.846700   26.608400
  H    -34.725000   21.473000   26.924300
  H    -42.350700   20.499200   28.292700
  H    -38.225700   16.745200   22.408500

 Total Charge           Charge          ....    0
 Multiplicity           Mult            ....    1
 Number of Electrons    NEL             ....  134
 Basis Dimension        Dim             ....  322

ORBITAL ENERGIES
----------------

  NO   OCC          E(Eh)            E(eV)
   0   2.0000     -88.964565     -2420.8489
   1   2.0000     -88.960118     -2420.7279
   2   2.0000     -10.328390      -281.0498
   3   2.0000     -10.325820      -280.9799
   4   2.0000     -10.322565      -280.8913
   5   2.0000     -10.308919      -280.5199
   6   2.0000     -10.308108      -280.4979
   7   2.0000     -10.302714      -280.3511
   8   2.0000     -10.297852      -280.2188
   9   2.0000     -10.295811      -280.1633
  10   2.0000     -10.291256      -280.0393
  11   2.0000     -10.290162      -280.0095
  12   2.0000     -10.288734      -279.9707
  13   2.0000     -10.285596      -279.8853
  14   2.0000     -10.284235      -279.8483
  15   2.0000     -10.279450      -279.7180
  16   2.0000      -8.079541      -219.8555
  17   2.0000      -8.074522      -219.7189
  18   2.0000      -6.037966      -164.3014
  19   2.0000      -6.034175      -164.1982
  20   2.0000      -6.033172      -164.1710
  21   2.0000      -6.030195      -164.0899
  22   2.0000      -6.028978      -164.0568
  23   2.0000      -6.025210      -163.9543
  24   2.0000      -1.007437       -27.4138
  25   2.0000      -0.981179       -26.6992
  26   2.0000      -0.915895       -24.9228
  27   2.0000      -0.911224       -24.7957
  28   2.0000      -0.870076       -23.6760
  29   2.0000      -0.848506       -23.0890
  30   2.0000      -0.843661       -22.9572
  31   2.0000      -0.813370       -22.1329
  32   2.0000      -0.781184       -21.2571
  33   2.0000      -0.769572       -20.9411
  34   2.0000      -0.720893       -19.6165
  35   2.0000      -0.700332       -19.0570
  36   2.0000      -0.691905       -18.8277
  37   2.0000      -0.651888       -17.7388
  38   2.0000      -0.642241       -17.4763
  39   2.0000      -0.614525       -16.7221
  40   2.0000      -0.600053       -16.3283
  41   2.0000      -0.575582       -15.6624
  42   2.0000      -0.572191       -15.5701
  43   2.0000      -0.561390       -15.2762
  44   2.0000      -0.524280       -14.2664
  45   2.0000      -0.520946       -14.1757
  46   2.0000      -0.519638       -14.1401
  47   2.0000      -0.514177       -13.9915
  48   2.0000      -0.500920       -13.6307
  49   2.0000      -0.496937       -13.5224
  50   2.0000      -0.489362       -13.3162
  51   2.0000      -0.482187       -13.1210
  52   2.0000      -0.474304       -12.9065
  53   2.0000      -0.466856       -12.7038
  54   2.0000      -0.458951       -12.4887
  55   2.0000      -0.452603       -12.3159
  56   2.0000      -0.447757       -12.1841
  57   2.0000      -0.440604       -11.9894
  58   2.0000      -0.432590       -11.7714
  59   2.0000      -0.423809       -11.5324
  60   2.0000      -0.419093       -11.4041
  61   2.0000      -0.416349       -11.3294
  62   2.0000      -0.401042       -10.9129
  63   2.0000      -0.343051        -9.3349
  64   2.0000      -0.327181        -8.9031
  65   2.0000      -0.324259        -8.8235
  66   2.0000      -0.302298        -8.2260
  67   0.0000       0.036608         0.9962
  68   0.0000       0.058093         1.5808
  69   0.0000       0.109699         2.9851
  70   0.0000       0.122602         3.3362
  71   0.0000       0.129423         3.5218

MULLIKEN ATOMIC CHARGES
-----------------------
   0 S :    0.115086
   1 C :   -0.118458
   2 C :   -0.109352
   3 C :    0.060108
   4 C :   -0.188914
   5 H :    0.013648
   6 C :    0.095871
   7 H :    0.018758
   8 H :    0.041070
   9 C :   -0.084142
  10 H :    0.018896
  11 H :    0.029238
  12 C :   -0.071721
  13 H :    0.033099
  14 H :    0.047627
  15 H :    0.040559
  16 S :    0.093239
  17 C :   -0.113474
  18 C :   -0.044232
  19 C :    0.008959
  20 C :   -0.171079
  21 H :    0.031676
  22 C :    0.091545
  23 H :    0.026525
  24 H :    0.012129
  25 C :   -0.133820
  26 H :    0.026345
  27 H :    0.018886
  28 C :   -0.035264
  29 H :    0.046109
  30 H :    0.032661
  31 H :    0.037931
  32 H :    0.048511
  33 H :    0.081979
Sum of atomic charges:   -0.0000000

LOEWDIN ATOMIC CHARGES
----------------------
   0 S :    0.408562
   1 C :   -0.204921
   2 C :   -0.054716
   3 C :   -0.054909
   4 C :   -0.193390
   5 H :    0.034942
   6 C :   -0.030284
   7 H :    0.026416
   8 H :    0.041551
   9 C :   -0.032630
  10 H :    0.016245
  11 H :    0.017768
  12 C :   -0.064485
  13 H :    0.023316
  14 H :    0.034446
  15 H :    0.023522
  16 S :    0.386404
  17 C :   -0.180943
  18 C :   -0.078173
  19 C :   -0.054015
  20 C :   -0.198851
  21 H :    0.035058
  22 C :   -0.034571
  23 H :    0.029294
  24 H :    0.026198
  25 C :   -0.051519
  26 H :    0.018476
  27 H :    0.019869
  28 C :   -0.064091
  29 H :    0.032570
  30 H :    0.034911
  31 H :    0.022416
  32 H :    0.021073
  33 H :    0.044460

  Mayer bond orders larger than 0.100000
B(  0-S ,  1-C ) :   1.1213 B(  0-S ,  4-C ) :   1.1675 B(  1-C ,  2-C ) :   1.6475
B(  1-C , 32-H ) :   0.9551 B(  2-C ,  3-C ) :   1.2182 B(  2-C ,  6-C ) :   0.9991
B(  3-C ,  4-C ) :   1.5908 B(  3-C ,  5-H ) :   1.0004 B(  4-C , 20-C ) :   1.0215
B(  6-C ,  7-H ) :   0.9533 B(  6-C ,  8-H ) :   0.9214 B(  6-C ,  9-C ) :   1.0771
B(  9-C , 10-H ) :   0.9619 B(  9-C , 11-H ) :   0.9460 B(  9-C , 12-C ) :   1.0663
B( 12-C , 13-H ) :   0.9777 B( 12-C , 14-H ) :   0.9770 B( 12-C , 15-H ) :   0.9803
B( 16-S , 17-C ) :   1.1373 B( 16-S , 20-C ) :   1.1422 B( 17-C , 18-C ) :   1.6305
B( 17-C , 20-C ) :   0.1004 B( 17-C , 33-H ) :   0.9594 B( 18-C , 19-C ) :   1.2162
B( 18-C , 21-H ) :   0.9835 B( 19-C , 20-C ) :   1.6114 B( 19-C , 22-C ) :   1.0360
B( 22-C , 23-H ) :   0.9365 B( 22-C , 24-H ) :   0.9294 B( 22-C , 25-C ) :   1.0569
B( 25-C , 26-H ) :   0.9574 B( 25-C , 27-H ) :   0.9531 B( 25-C , 28-C ) :   1.0865
B( 28-C , 29-H ) :   0.9710 B( 28-C , 30-H ) :   0.9701 B( 28-C , 31-H ) :   0.9750

Dispersion correction           -0.013145043
FINAL SINGLE POINT ENERGY     -1339.871490571908

DIPOLE MOMENT
-------------
                                X             Y             Z
Electronic contribution:    -11.92278      -8.68641     -21.39945
Nuclear contribution   :     12.34885       8.82005      21.86248
                        -----------------------------------------
Total Dipole Moment    :      0.42607       0.13363       0.46302
                        -----------------------------------------
Magnitude (a.u.)       :      0.64326
Magnitude (Debye)      :      1.63504

Rotational constants in cm-1:     0.019976     0.007196     0.005825
Rotational constants in MHz :   598.855113   215.736006   174.625808

                             ****ORCA TERMINATED NORMALLY****
TOTAL RUN TIME: 0 days 0 hours 0 minutes 20 seconds 700 msec
