                         Program Version 4.2.1 -  RELEASE  -
|  1> ! wB97X-D3 SP def2-SVP
|  2> %pal
|  3> nprocs 24
|  4> end
|  5>
|  6> * xyz 0 1
|  7> S 	 -105.379 	 10.9729 	 -8.65461
|  8> C 	 -104.58 	 12.5052 	 -8.85979
|  9> C 	 -104.667 	 13.2522 	 -7.70181
| 10> C 	 -105.343 	 12.6006 	 -6.67129
| 11> C 	 -105.992 	 11.4672 	 -7.1036
| 12> H 	 -105.523 	 13.0118 	 -5.69874
| 13> C 	 -104.097 	 14.6391 	 -7.5132
| 14> H 	 -104.629 	 15.1333 	 -6.64824
| 15> H 	 -104.406 	 15.2192 	 -8.38237
| 16> C 	 -102.575 	 14.663 	 -7.34311
| 17> H 	 -102.168 	 14.022 	 -8.08036
| 18> H 	 -102.307 	 15.6756 	 -7.54101
| 19> C 	 -102.164 	 14.3759 	 -5.9347
| 20> H 	 -102.629 	 15.0656 	 -5.23565
| 21> H 	 -102.397 	 13.3691 	 -5.67577
| 22> H 	 -101.092 	 14.5926 	 -5.79048
| 23> S 	 -108.288 	 9.93643 	 -7.5064
| 24> C 	 -109.41 	 9.59425 	 -6.19426
| 25> C 	 -108.953 	 10.0716 	 -4.98616
| 26> C 	 -107.622 	 10.6464 	 -5.08545
| 27> C 	 -107.096 	 10.7331 	 -6.44433
| 28> H 	 -109.542 	 9.89911 	 -4.06942
| 29> C 	 -106.992 	 11.1674 	 -3.8631
| 30> H 	 -107.578 	 11.0963 	 -3.00565
| 31> H 	 -106.977 	 12.2287 	 -3.98764
| 32> C 	 -105.623 	 10.5589 	 -3.58201
| 33> H 	 -105.013 	 10.624 	 -4.50314
| 34> H 	 -105.742 	 9.52363 	 -3.33632
| 35> C 	 -104.851 	 11.1 	 -2.36879
| 36> H 	 -105.545 	 11.4616 	 -1.58025
| 37> H 	 -104.177 	 11.9258 	 -2.61684
| 38> H 	 -104.205 	 10.3954 	 -1.90987
| 39> H 	 -103.968 	 12.8015 	 -9.69201
| 40> H 	 -110.408 	 9.28431 	 -6.42841
| 41> *
| 42>
| 43>                          ****END OF INPUT****

CARTESIAN COORDINATES (ANGSTROEM)
---------------------------------
  S    -105.379000   10.972900   -8.654610
  C    -104.580000   12.505200   -8.859790
  C    -104.667000   13.252200   -7.701810
  C    -105.343000   12.600600   -6.671290
  C    -105.992000   11.467200   -7.103600
  H    -105.523000   13.011800   -5.698740
  C    -104.097000   14.639100   -7.513200
  H    -104.629000   15.133300   -6.648240
  H    -104.406000   15.219200   -8.382370
  C    -102.575000   14.663000   -7.343110
  H    -102.168000   14.022000   -8.080360
  H    -102.307000   15.675600   -7.541010
  C    -102.164000   14.375900   -5.934700
  H    -102.629000   15.065600   -5.235650
  H    -102.397000   13.369100   -5.675770
  H    -101.092000   14.592600   -5.790480
  S    -108.288000    9.936430   -7.506400
  C    -109.410000    9.594250   -6.194260
  C    -108.953000   10.071600   -4.986160
  C    -107.622000   10.646400   -5.085450
  C    -107.096000   10.733100   -6.444330
  H    -109.542000    9.899110   -4.069420
  C    -106.992000   11.167400   -3.863100
  H    -107.578000   11.096300   -3.005650
  H    -106.977000   12.228700   -3.987640
  C    -105.623000   10.558900   -3.582010
  H    -105.013000   10.624000   -4.503140
  H    -105.742000    9.523630   -3.336320
  C    -104.851000   11.100000   -2.368790
  H    -105.545000   11.461600   -1.580250
  H    -104.177000   11.925800   -2.616840
  H    -104.205000   10.395400   -1.909870
  H    -103.968000   12.801500   -9.692010
  H    -110.408000    9.284310   -6.428410

 Total Charge           Charge          ....    0
 Multiplicity           Mult            ....    1
 Number of Electrons    NEL             ....  134
 Basis Dimension        Dim             ....  322

ORBITAL ENERGIES
----------------

  NO   OCC          E(Eh)            E(eV)
   0   2.0000     -88.968593     -2420.9585
   1   2.0000     -88.964641     -2420.8510
   2   2.0000     -10.339950      -281.3644
   3   2.0000     -10.334741      -281.2226
   4   2.0000     -10.318023      -280.7677
   5   2.0000     -10.312382      -280.6142
   6   2.0000     -10.310189      -280.5545
   7   2.0000     -10.299998      -280.2772
   8   2.0000     -10.295558      -280.1564
   9   2.0000     -10.291269      -280.0397
  10   2.0000     -10.289119      -279.9812
  11   2.0000     -10.281540      -279.7749
  12   2.0000     -10.281078      -279.7624
  13   2.0000     -10.278148      -279.6826
  14   2.0000     -10.275127      -279.6004
  15   2.0000     -10.273243      -279.5492
  16   2.0000      -8.083492      -219.9630
  17   2.0000      -8.078693      -219.8324
  18   2.0000      -6.041999      -164.4112
  19   2.0000      -6.038005      -164.3025
  20   2.0000      -6.037262      -164.2823
  21   2.0000      -6.034220      -164.1995
  22   2.0000      -6.033141      -164.1701
  23   2.0000      -6.029579      -164.0732
  24   2.0000      -1.008495       -27.4425
  25   2.0000      -0.980562       -26.6825
  26   2.0000      -0.918384       -24.9905
  27   2.0000      -0.912830       -24.8394
  28   2.0000      -0.868739       -23.6396
  29   2.0000      -0.853840       -23.2342
  30   2.0000      -0.847077       -23.0501
  31   2.0000      -0.817391       -22.2423
  32   2.0000      -0.783445       -21.3186
  33   2.0000      -0.769960       -20.9517
  34   2.0000      -0.710459       -19.3326
  35   2.0000      -0.704688       -19.1755
  36   2.0000      -0.691636       -18.8204
  37   2.0000      -0.663004       -18.0413
  38   2.0000      -0.638847       -17.3839
  39   2.0000      -0.621137       -16.9020
  40   2.0000      -0.598231       -16.2787
  41   2.0000      -0.580458       -15.7951
  42   2.0000      -0.566516       -15.4157
  43   2.0000      -0.552564       -15.0360
  44   2.0000      -0.543203       -14.7813
  45   2.0000      -0.526200       -14.3186
  46   2.0000      -0.516110       -14.0441
  47   2.0000      -0.512968       -13.9586
  48   2.0000      -0.505095       -13.7443
  49   2.0000      -0.501623       -13.6498
  50   2.0000      -0.494878       -13.4663
  51   2.0000      -0.483182       -13.1480
  52   2.0000      -0.480068       -13.0633
  53   2.0000      -0.466013       -12.6809
  54   2.0000      -0.455773       -12.4022
  55   2.0000      -0.451723       -12.2920
  56   2.0000      -0.443427       -12.0663
  57   2.0000      -0.433387       -11.7930
  58   2.0000      -0.432597       -11.7716
  59   2.0000      -0.427366       -11.6292
  60   2.0000      -0.417935       -11.3726
  61   2.0000      -0.416301       -11.3281
  62   2.0000      -0.411681       -11.2024
  63   2.0000      -0.357499        -9.7280
  64   2.0000      -0.334959        -9.1147
  65   2.0000      -0.326219        -8.8769
  66   2.0000      -0.278691        -7.5836
  67   0.0000       0.014926         0.4061
  68   0.0000       0.075818         2.0631
  69   0.0000       0.107138         2.9154
  70   0.0000       0.120229         3.2716
  71   0.0000       0.130344         3.5468

MULLIKEN ATOMIC CHARGES
-----------------------
   0 S :    0.116078
   1 C :   -0.109762
   2 C :   -0.100201
   3 C :    0.025830
   4 C :   -0.126306
   5 H :   -0.005257
   6 C :    0.019642
   7 H :    0.025077
   8 H :    0.031326
   9 C :   -0.008879
  10 H :    0.018706
  11 H :    0.014872
  12 C :   -0.033579
  13 H :    0.017880
  14 H :    0.032150
  15 H :    0.033626
  16 S :    0.082820
  17 C :   -0.088925
  18 C :   -0.030726
  19 C :   -0.079095
  20 C :   -0.115524
  21 H :    0.036887
  22 C :    0.111781
  23 H :   -0.014516
  24 H :    0.022751
  25 C :   -0.085493
  26 H :    0.044553
  27 H :    0.025538
  28 C :   -0.039116
  29 H :    0.025802
  30 H :    0.026883
  31 H :    0.024867
  32 H :    0.040386
  33 H :    0.059926
Sum of atomic charges:   -0.0000000

LOEWDIN ATOMIC CHARGES
----------------------
   0 S :    0.415645
   1 C :   -0.204640
   2 C :   -0.063661
   3 C :   -0.068165
   4 C :   -0.187327
   5 H :    0.026858
   6 C :   -0.031945
   7 H :    0.032086
   8 H :    0.031849
   9 C :   -0.032055
  10 H :    0.019233
  11 H :    0.021067
  12 C :   -0.060180
  13 H :    0.024035
  14 H :    0.020960
  15 H :    0.029642
  16 S :    0.391206
  17 C :   -0.178526
  18 C :   -0.074168
  19 C :   -0.046100
  20 C :   -0.191518
  21 H :    0.040273
  22 C :   -0.036277
  23 H :    0.020607
  24 H :    0.029317
  25 C :   -0.038441
  26 H :    0.028820
  27 H :    0.025031
  28 C :   -0.067951
  29 H :    0.026747
  30 H :    0.024144
  31 H :    0.021544
  32 H :    0.026035
  33 H :    0.025858

  Mayer bond orders larger than 0.100000
B(  0-S ,  1-C ) :   1.1270 B(  0-S ,  4-C ) :   1.1688 B(  1-C ,  2-C ) :   1.5975
B(  1-C ,  4-C ) :   0.1009 B(  1-C , 32-H ) :   0.9706 B(  2-C ,  3-C ) :   1.2817
B(  2-C ,  6-C ) :   1.0130 B(  3-C ,  4-C ) :   1.5259 B(  3-C ,  5-H ) :   0.9942
B(  4-C , 20-C ) :   1.0691 B(  6-C ,  7-H ) :   0.9453 B(  6-C ,  8-H ) :   0.9403
B(  6-C ,  9-C ) :   1.0710 B(  9-C , 10-H ) :   0.9549 B(  9-C , 11-H ) :   0.9500
B(  9-C , 12-C ) :   1.0891 B( 12-C , 13-H ) :   0.9708 B( 12-C , 14-H ) :   0.9765
B( 12-C , 15-H ) :   0.9715 B( 16-S , 17-C ) :   1.1643 B( 16-S , 20-C ) :   1.1381
B( 17-C , 18-C ) :   1.5865 B( 17-C , 20-C ) :   0.1002 B( 17-C , 33-H ) :   0.9667
B( 18-C , 19-C ) :   1.2724 B( 18-C , 21-H ) :   0.9860 B( 19-C , 20-C ) :   1.5220
B( 19-C , 22-C ) :   1.0594 B( 22-C , 23-H ) :   0.9173 B( 22-C , 24-H ) :   0.9209
B( 22-C , 25-C ) :   1.0615 B( 25-C , 26-H ) :   0.9605 B( 25-C , 27-H ) :   0.9565
B( 25-C , 28-C ) :   1.0770 B( 28-C , 29-H ) :   0.9729 B( 28-C , 30-H ) :   0.9746
B( 28-C , 31-H ) :   0.9772

Dispersion correction           -0.014504354
FINAL SINGLE POINT ENERGY     -1339.874078943180

DIPOLE MOMENT
-------------
                                X             Y             Z
Electronic contribution:    -17.42707     -14.86182     -20.32418
Nuclear contribution   :     17.52524      15.37396      20.83199
                        -----------------------------------------
Total Dipole Moment    :      0.09817       0.51213       0.50781
                        -----------------------------------------
Magnitude (a.u.)       :      0.72787
Magnitude (Debye)      :      1.85009

Rotational constants in cm-1:     0.018290     0.009557     0.006822
Rotational constants in MHz :   548.312651   286.502741   204.519432

                             ****ORCA TERMINATED NORMALLY****
TOTAL RUN TIME: 0 days 0 hours 0 minutes 22 seconds 273 msec
