                         Program Version 4.2.1 -  RELEASE  -
|  1> ! wB97X-D3 SP def2-SVP
|  2> %pal
|  3> nprocs 24
|  4> end
|  5>
|  6> * xyz 0 1
|  7> S 	 -49.7837 	 -4.18562 	 -17.3481
|  8> C 	 -50.7103 	 -4.37769 	 -18.8665
|  9> C 	 -51.3828 	 -3.23442 	 -19.2063
| 10> C 	 -51.116 	 -2.17887 	 -18.2483
| 11> C 	 -50.2548 	 -2.49632 	 -17.2119
| 12> H 	 -51.4218 	 -1.12896 	 -18.2755
| 13> C 	 -52.2741 	 -3.00011 	 -20.3675
| 14> H 	 -52.0387 	 -3.68849 	 -21.1711
| 15> H 	 -51.9405 	 -2.10581 	 -20.9289
| 16> C 	 -53.8714 	 -3.14765 	 -20.2004
| 17> H 	 -54.1659 	 -4.13689 	 -19.8804
| 18> H 	 -54.2916 	 -2.49309 	 -19.4449
| 19> C 	 -54.6012 	 -2.69565 	 -21.3825
| 20> H 	 -55.6296 	 -2.64328 	 -21.0481
| 21> H 	 -54.1673 	 -1.82145 	 -21.8575
| 22> H 	 -54.4227 	 -3.43134 	 -22.1759
| 23> S 	 -48.0824 	 -1.07428 	 -16.4152
| 24> C 	 -48.3414 	 -0.0204347 	 -14.9775
| 25> C 	 -49.6108 	 -0.119615 	 -14.3917
| 26> C 	 -50.4095 	 -1.05821 	 -15.1288
| 27> C 	 -49.7328 	 -1.56605 	 -16.2466
| 28> H 	 -49.8718 	 0.409098 	 -13.5113
| 29> C 	 -51.7398 	 -1.50994 	 -14.5942
| 30> H 	 -51.8639 	 -1.02151 	 -13.6528
| 31> H 	 -51.8393 	 -2.53066 	 -14.4457
| 32> C 	 -52.9191 	 -0.996728 	 -15.4555
| 33> H 	 -52.803 	 -1.45311 	 -16.4171
| 34> H 	 -52.9689 	 0.136798 	 -15.5352
| 35> C 	 -54.3439 	 -1.47919 	 -15.0527
| 36> H 	 -54.2166 	 -2.47991 	 -14.6779
| 37> H 	 -55.0696 	 -1.52102 	 -15.8743
| 38> H 	 -54.7087 	 -0.888907 	 -14.2407
| 39> H 	 -50.6856 	 -5.29413 	 -19.4382
| 40> H 	 -47.5706 	 0.683832 	 -14.6819
| 41> *
| 42>
| 43>                          ****END OF INPUT****

CARTESIAN COORDINATES (ANGSTROEM)
---------------------------------
  S    -49.783700   -4.185620  -17.348100
  C    -50.710300   -4.377690  -18.866500
  C    -51.382800   -3.234420  -19.206300
  C    -51.116000   -2.178870  -18.248300
  C    -50.254800   -2.496320  -17.211900
  H    -51.421800   -1.128960  -18.275500
  C    -52.274100   -3.000110  -20.367500
  H    -52.038700   -3.688490  -21.171100
  H    -51.940500   -2.105810  -20.928900
  C    -53.871400   -3.147650  -20.200400
  H    -54.165900   -4.136890  -19.880400
  H    -54.291600   -2.493090  -19.444900
  C    -54.601200   -2.695650  -21.382500
  H    -55.629600   -2.643280  -21.048100
  H    -54.167300   -1.821450  -21.857500
  H    -54.422700   -3.431340  -22.175900
  S    -48.082400   -1.074280  -16.415200
  C    -48.341400   -0.020435  -14.977500
  C    -49.610800   -0.119615  -14.391700
  C    -50.409500   -1.058210  -15.128800
  C    -49.732800   -1.566050  -16.246600
  H    -49.871800    0.409098  -13.511300
  C    -51.739800   -1.509940  -14.594200
  H    -51.863900   -1.021510  -13.652800
  H    -51.839300   -2.530660  -14.445700
  C    -52.919100   -0.996728  -15.455500
  H    -52.803000   -1.453110  -16.417100
  H    -52.968900    0.136798  -15.535200
  C    -54.343900   -1.479190  -15.052700
  H    -54.216600   -2.479910  -14.677900
  H    -55.069600   -1.521020  -15.874300
  H    -54.708700   -0.888907  -14.240700
  H    -50.685600   -5.294130  -19.438200
  H    -47.570600    0.683832  -14.681900

 Total Charge           Charge          ....    0
 Multiplicity           Mult            ....    1
 Number of Electrons    NEL             ....  134
 Basis Dimension        Dim             ....  322

ORBITAL ENERGIES
----------------

  NO   OCC          E(Eh)            E(eV)
   0   2.0000     -88.970668     -2421.0149
   1   2.0000     -88.962893     -2420.8034
   2   2.0000     -10.323812      -280.9252
   3   2.0000     -10.323235      -280.9095
   4   2.0000     -10.322419      -280.8873
   5   2.0000     -10.316885      -280.7367
   6   2.0000     -10.304516      -280.4001
   7   2.0000     -10.302928      -280.3569
   8   2.0000     -10.297961      -280.2218
   9   2.0000     -10.296109      -280.1714
  10   2.0000     -10.292229      -280.0658
  11   2.0000     -10.286344      -279.9057
  12   2.0000     -10.283397      -279.8255
  13   2.0000     -10.282137      -279.7912
  14   2.0000     -10.274023      -279.5704
  15   2.0000     -10.271114      -279.4912
  16   2.0000      -8.084885      -220.0009
  17   2.0000      -8.077045      -219.7876
  18   2.0000      -6.043240      -164.4449
  19   2.0000      -6.039638      -164.3469
  20   2.0000      -6.035668      -164.2389
  21   2.0000      -6.035630      -164.2379
  22   2.0000      -6.031651      -164.1296
  23   2.0000      -6.027743      -164.0232
  24   2.0000      -1.002480       -27.2789
  25   2.0000      -0.977243       -26.5921
  26   2.0000      -0.913016       -24.8444
  27   2.0000      -0.906468       -24.6663
  28   2.0000      -0.875432       -23.8217
  29   2.0000      -0.851893       -23.1812
  30   2.0000      -0.846698       -23.0398
  31   2.0000      -0.812676       -22.1140
  32   2.0000      -0.782597       -21.2955
  33   2.0000      -0.768423       -20.9099
  34   2.0000      -0.702482       -19.1155
  35   2.0000      -0.700834       -19.0707
  36   2.0000      -0.686494       -18.6804
  37   2.0000      -0.667291       -18.1579
  38   2.0000      -0.646534       -17.5931
  39   2.0000      -0.613974       -16.7071
  40   2.0000      -0.598625       -16.2894
  41   2.0000      -0.571286       -15.5455
  42   2.0000      -0.565623       -15.3914
  43   2.0000      -0.558393       -15.1946
  44   2.0000      -0.541416       -14.7327
  45   2.0000      -0.522234       -14.2107
  46   2.0000      -0.516383       -14.0515
  47   2.0000      -0.509389       -13.8612
  48   2.0000      -0.501842       -13.6558
  49   2.0000      -0.500169       -13.6103
  50   2.0000      -0.487183       -13.2569
  51   2.0000      -0.481721       -13.1083
  52   2.0000      -0.475017       -12.9259
  53   2.0000      -0.466240       -12.6870
  54   2.0000      -0.454068       -12.3558
  55   2.0000      -0.449857       -12.2412
  56   2.0000      -0.446257       -12.1433
  57   2.0000      -0.435854       -11.8602
  58   2.0000      -0.431429       -11.7398
  59   2.0000      -0.424156       -11.5419
  60   2.0000      -0.418544       -11.3891
  61   2.0000      -0.408669       -11.1205
  62   2.0000      -0.407263       -11.0822
  63   2.0000      -0.341035        -9.2800
  64   2.0000      -0.326780        -8.8921
  65   2.0000      -0.324234        -8.8228
  66   2.0000      -0.300526        -8.1777
  67   0.0000       0.037314         1.0154
  68   0.0000       0.057341         1.5603
  69   0.0000       0.105441         2.8692
  70   0.0000       0.121848         3.3157
  71   0.0000       0.123365         3.3569

MULLIKEN ATOMIC CHARGES
-----------------------
   0 S :    0.096281
   1 C :   -0.126596
   2 C :   -0.044453
   3 C :    0.051786
   4 C :   -0.195564
   5 H :    0.024656
   6 C :    0.034194
   7 H :    0.002680
   8 H :    0.029351
   9 C :   -0.044457
  10 H :    0.026949
  11 H :    0.018655
  12 C :   -0.030403
  13 H :    0.044428
  14 H :    0.026581
  15 H :    0.016001
  16 S :    0.125644
  17 C :   -0.106186
  18 C :   -0.006967
  19 C :   -0.041108
  20 C :   -0.182117
  21 H :    0.014086
  22 C :    0.167977
  23 H :   -0.000092
  24 H :    0.017131
  25 C :   -0.148565
  26 H :    0.033214
  27 H :    0.037700
  28 C :   -0.022079
  29 H :    0.014548
  30 H :    0.038755
  31 H :    0.023013
  32 H :    0.046809
  33 H :    0.058145
Sum of atomic charges:    0.0000000

LOEWDIN ATOMIC CHARGES
----------------------
   0 S :    0.376330
   1 C :   -0.176682
   2 C :   -0.068515
   3 C :   -0.056680
   4 C :   -0.201399
   5 H :    0.034145
   6 C :   -0.043076
   7 H :    0.028370
   8 H :    0.037261
   9 C :   -0.033810
  10 H :    0.024151
  11 H :    0.020417
  12 C :   -0.064985
  13 H :    0.032520
  14 H :    0.026088
  15 H :    0.022085
  16 S :    0.405790
  17 C :   -0.166345
  18 C :   -0.058166
  19 C :   -0.044042
  20 C :   -0.212573
  21 H :    0.029845
  22 C :   -0.018982
  23 H :    0.026385
  24 H :    0.023990
  25 C :   -0.042282
  26 H :    0.018740
  27 H :    0.027566
  28 C :   -0.063935
  29 H :    0.021004
  30 H :    0.028135
  31 H :    0.017221
  32 H :    0.027554
  33 H :    0.023872

  Mayer bond orders larger than 0.100000
B(  0-S ,  1-C ) :   1.1244 B(  0-S ,  4-C ) :   1.1298 B(  1-C ,  2-C ) :   1.6289
B(  1-C , 32-H ) :   0.9703 B(  2-C ,  3-C ) :   1.2045 B(  2-C ,  6-C ) :   1.0421
B(  3-C ,  4-C ) :   1.6197 B(  3-C ,  5-H ) :   0.9791 B(  4-C , 20-C ) :   1.0380
B(  6-C ,  7-H ) :   0.9317 B(  6-C ,  8-H ) :   0.9397 B(  6-C ,  9-C ) :   1.0403
B(  9-C , 10-H ) :   0.9538 B(  9-C , 11-H ) :   0.9638 B(  9-C , 12-C ) :   1.0806
B( 12-C , 13-H ) :   0.9733 B( 12-C , 14-H ) :   0.9718 B( 12-C , 15-H ) :   0.9718
B( 16-S , 17-C ) :   1.1501 B( 16-S , 20-C ) :   1.1512 B( 17-C , 18-C ) :   1.6113
B( 17-C , 20-C ) :   0.1003 B( 17-C , 33-H ) :   0.9664 B( 18-C , 19-C ) :   1.2436
B( 18-C , 21-H ) :   0.9919 B( 19-C , 20-C ) :   1.5938 B( 19-C , 22-C ) :   1.0497
B( 22-C , 23-H ) :   0.9257 B( 22-C , 24-H ) :   0.9240 B( 22-C , 25-C ) :   1.0617
B( 25-C , 26-H ) :   0.9556 B( 25-C , 27-H ) :   0.9582 B( 25-C , 28-C ) :   1.0778
B( 28-C , 29-H ) :   0.9705 B( 28-C , 30-H ) :   0.9773 B( 28-C , 31-H ) :   0.9770

Dispersion correction           -0.014444384
FINAL SINGLE POINT ENERGY     -1339.862664934684

DIPOLE MOMENT
-------------
                                X             Y             Z
Electronic contribution:     30.21425      -2.96598       7.51807
Nuclear contribution   :    -30.69956       3.16945      -7.62738
                        -----------------------------------------
Total Dipole Moment    :     -0.48531       0.20347      -0.10931
                        -----------------------------------------
Magnitude (a.u.)       :      0.53747
Magnitude (Debye)      :      1.36613

Rotational constants in cm-1:     0.018409     0.008812     0.006955
Rotational constants in MHz :   551.898182   264.180527   208.491596

                             ****ORCA TERMINATED NORMALLY****
TOTAL RUN TIME: 0 days 0 hours 0 minutes 21 seconds 655 msec
