                         Program Version 4.2.1 -  RELEASE  -
|  1> ! wB97X-D3 SP def2-SVP
|  2> %pal
|  3> nprocs 24
|  4> end
|  5>
|  6> * xyz 0 1
|  7> S 	 -124.997 	 63.8088 	 -51.9251
|  8> C 	 -124.049 	 63.5619 	 -53.3738
|  9> C 	 -122.742 	 63.7837 	 -53.142
| 10> C 	 -122.394 	 64.0606 	 -51.7742
| 11> C 	 -123.495 	 63.9948 	 -50.9829
| 12> H 	 -121.428 	 64.4487 	 -51.298
| 13> C 	 -121.794 	 63.7622 	 -54.3136
| 14> H 	 -122.368 	 63.505 	 -55.2605
| 15> H 	 -121.204 	 62.8253 	 -54.2891
| 16> C 	 -120.953 	 65.0254 	 -54.5662
| 17> H 	 -120.432 	 64.9866 	 -55.5483
| 18> H 	 -121.667 	 65.8639 	 -54.695
| 19> C 	 -119.834 	 65.2484 	 -53.526
| 20> H 	 -119.305 	 66.1731 	 -53.7239
| 21> H 	 -120.266 	 65.4424 	 -52.5774
| 22> H 	 -119.139 	 64.3824 	 -53.4531
| 23> S 	 -125.055 	 65.3522 	 -48.8887
| 24> C 	 -124.365 	 65.4488 	 -47.3203
| 25> C 	 -123.059 	 64.9759 	 -47.3234
| 26> C 	 -122.715 	 64.3474 	 -48.5188
| 27> C 	 -123.586 	 64.4882 	 -49.589
| 28> H 	 -122.514 	 65.0216 	 -46.3603
| 29> C 	 -121.398 	 63.5567 	 -48.5265
| 30> H 	 -120.932 	 63.8662 	 -47.6559
| 31> H 	 -120.732 	 64.0204 	 -49.3044
| 32> C 	 -121.516 	 62.0573 	 -48.616
| 33> H 	 -120.426 	 61.8484 	 -48.533
| 34> H 	 -121.922 	 61.884 	 -49.6153
| 35> C 	 -122.338 	 61.3806 	 -47.5148
| 36> H 	 -123.365 	 61.6112 	 -47.6505
| 37> H 	 -122.05 	 61.7353 	 -46.463
| 38> H 	 -122.279 	 60.2784 	 -47.4639
| 39> H 	 -124.443 	 63.5363 	 -54.3305
| 40> H 	 -124.834 	 65.828 	 -46.3928
| 41> *
| 42>
| 43>                          ****END OF INPUT****

CARTESIAN COORDINATES (ANGSTROEM)
---------------------------------
  S    -124.997000   63.808800  -51.925100
  C    -124.049000   63.561900  -53.373800
  C    -122.742000   63.783700  -53.142000
  C    -122.394000   64.060600  -51.774200
  C    -123.495000   63.994800  -50.982900
  H    -121.428000   64.448700  -51.298000
  C    -121.794000   63.762200  -54.313600
  H    -122.368000   63.505000  -55.260500
  H    -121.204000   62.825300  -54.289100
  C    -120.953000   65.025400  -54.566200
  H    -120.432000   64.986600  -55.548300
  H    -121.667000   65.863900  -54.695000
  C    -119.834000   65.248400  -53.526000
  H    -119.305000   66.173100  -53.723900
  H    -120.266000   65.442400  -52.577400
  H    -119.139000   64.382400  -53.453100
  S    -125.055000   65.352200  -48.888700
  C    -124.365000   65.448800  -47.320300
  C    -123.059000   64.975900  -47.323400
  C    -122.715000   64.347400  -48.518800
  C    -123.586000   64.488200  -49.589000
  H    -122.514000   65.021600  -46.360300
  C    -121.398000   63.556700  -48.526500
  H    -120.932000   63.866200  -47.655900
  H    -120.732000   64.020400  -49.304400
  C    -121.516000   62.057300  -48.616000
  H    -120.426000   61.848400  -48.533000
  H    -121.922000   61.884000  -49.615300
  C    -122.338000   61.380600  -47.514800
  H    -123.365000   61.611200  -47.650500
  H    -122.050000   61.735300  -46.463000
  H    -122.279000   60.278400  -47.463900
  H    -124.443000   63.536300  -54.330500
  H    -124.834000   65.828000  -46.392800

 Total Charge           Charge          ....    0
 Multiplicity           Mult            ....    1
 Number of Electrons    NEL             ....  134
 Basis Dimension        Dim             ....  322

ORBITAL ENERGIES
----------------

  NO   OCC          E(Eh)            E(eV)
   0   2.0000     -88.967050     -2420.9165
   1   2.0000     -88.964945     -2420.8592
   2   2.0000     -10.335880      -281.2536
   3   2.0000     -10.333289      -281.1831
   4   2.0000     -10.319290      -280.8021
   5   2.0000     -10.306207      -280.4462
   6   2.0000     -10.302860      -280.3551
   7   2.0000     -10.301196      -280.3098
   8   2.0000     -10.298564      -280.2382
   9   2.0000     -10.296202      -280.1739
  10   2.0000     -10.293378      -280.0971
  11   2.0000     -10.291245      -280.0390
  12   2.0000     -10.285814      -279.8912
  13   2.0000     -10.285287      -279.8769
  14   2.0000     -10.279503      -279.7195
  15   2.0000     -10.278658      -279.6965
  16   2.0000      -8.080728      -219.8878
  17   2.0000      -8.079549      -219.8557
  18   2.0000      -6.039357      -164.3393
  19   2.0000      -6.038162      -164.3067
  20   2.0000      -6.035286      -164.2285
  21   2.0000      -6.034307      -164.2018
  22   2.0000      -6.031502      -164.1255
  23   2.0000      -6.029973      -164.0839
  24   2.0000      -1.006344       -27.3840
  25   2.0000      -0.986483       -26.8436
  26   2.0000      -0.911476       -24.8025
  27   2.0000      -0.909075       -24.7372
  28   2.0000      -0.871257       -23.7081
  29   2.0000      -0.848556       -23.0904
  30   2.0000      -0.841538       -22.8994
  31   2.0000      -0.818567       -22.2743
  32   2.0000      -0.786128       -21.3916
  33   2.0000      -0.774412       -21.0728
  34   2.0000      -0.712709       -19.3938
  35   2.0000      -0.699258       -19.0278
  36   2.0000      -0.688116       -18.7246
  37   2.0000      -0.657710       -17.8972
  38   2.0000      -0.643309       -17.5053
  39   2.0000      -0.617618       -16.8062
  40   2.0000      -0.589667       -16.0457
  41   2.0000      -0.572444       -15.5770
  42   2.0000      -0.554909       -15.0999
  43   2.0000      -0.544346       -14.8124
  44   2.0000      -0.537574       -14.6281
  45   2.0000      -0.536982       -14.6120
  46   2.0000      -0.514609       -14.0032
  47   2.0000      -0.511845       -13.9280
  48   2.0000      -0.504858       -13.7379
  49   2.0000      -0.498006       -13.5514
  50   2.0000      -0.489006       -13.3065
  51   2.0000      -0.483976       -13.1697
  52   2.0000      -0.477918       -13.0048
  53   2.0000      -0.469720       -12.7817
  54   2.0000      -0.462254       -12.5786
  55   2.0000      -0.446262       -12.1434
  56   2.0000      -0.439477       -11.9588
  57   2.0000      -0.437375       -11.9016
  58   2.0000      -0.433628       -11.7996
  59   2.0000      -0.419555       -11.4167
  60   2.0000      -0.413572       -11.2539
  61   2.0000      -0.411294       -11.1919
  62   2.0000      -0.400929       -10.9098
  63   2.0000      -0.360207        -9.8017
  64   2.0000      -0.333170        -9.0660
  65   2.0000      -0.330658        -8.9977
  66   2.0000      -0.287225        -7.8158
  67   0.0000       0.018608         0.5063
  68   0.0000       0.078473         2.1354
  69   0.0000       0.099103         2.6967
  70   0.0000       0.123424         3.3585
  71   0.0000       0.126695         3.4476

MULLIKEN ATOMIC CHARGES
-----------------------
   0 S :    0.085488
   1 C :   -0.079578
   2 C :   -0.072337
   3 C :   -0.015001
   4 C :   -0.124372
   5 H :    0.054432
   6 C :    0.025975
   7 H :    0.016185
   8 H :    0.036315
   9 C :   -0.078830
  10 H :    0.033408
  11 H :    0.036514
  12 C :   -0.032156
  13 H :    0.029762
  14 H :    0.012903
  15 H :    0.042337
  16 S :    0.096909
  17 C :   -0.106756
  18 C :   -0.051286
  19 C :   -0.082530
  20 C :   -0.130333
  21 H :    0.033594
  22 C :    0.067051
  23 H :   -0.018043
  24 H :    0.029907
  25 C :   -0.032099
  26 H :    0.034767
  27 H :    0.043108
  28 C :   -0.060917
  29 H :    0.040452
  30 H :    0.027690
  31 H :    0.041671
  32 H :    0.025293
  33 H :    0.070477
Sum of atomic charges:   -0.0000000

LOEWDIN ATOMIC CHARGES
----------------------
   0 S :    0.382154
   1 C :   -0.180789
   2 C :   -0.061423
   3 C :   -0.072558
   4 C :   -0.169697
   5 H :    0.049805
   6 C :   -0.042345
   7 H :    0.034962
   8 H :    0.032207
   9 C :   -0.044516
  10 H :    0.028376
  11 H :    0.028879
  12 C :   -0.065860
  13 H :    0.027971
  14 H :    0.014412
  15 H :    0.031756
  16 S :    0.383826
  17 C :   -0.194151
  18 C :   -0.088790
  19 C :   -0.062515
  20 C :   -0.181466
  21 H :    0.038502
  22 C :   -0.029522
  23 H :    0.013670
  24 H :    0.032266
  25 C :   -0.039037
  26 H :    0.032069
  27 H :    0.028578
  28 C :   -0.068970
  29 H :    0.024328
  30 H :    0.030141
  31 H :    0.030205
  32 H :    0.016672
  33 H :    0.040863

  Mayer bond orders larger than 0.100000
B(  0-S ,  1-C ) :   1.1114 B(  0-S ,  4-C ) :   1.1353 B(  1-C ,  2-C ) :   1.6621
B(  1-C , 32-H ) :   0.9724 B(  2-C ,  3-C ) :   1.1980 B(  2-C ,  6-C ) :   1.0232
B(  3-C ,  4-C ) :   1.5997 B(  3-C ,  5-H ) :   0.9678 B(  4-C , 20-C ) :   1.0750
B(  6-C ,  7-H ) :   0.9388 B(  6-C ,  8-H ) :   0.9389 B(  6-C ,  9-C ) :   1.0617
B(  9-C , 10-H ) :   0.9559 B(  9-C , 11-H ) :   0.9556 B(  9-C , 12-C ) :   1.0758
B( 12-C , 13-H ) :   0.9656 B( 12-C , 14-H ) :   0.9721 B( 12-C , 15-H ) :   0.9756
B( 16-S , 17-C ) :   1.1807 B( 16-S , 20-C ) :   1.1010 B( 17-C , 18-C ) :   1.5855
B( 17-C , 20-C ) :   0.1007 B( 17-C , 33-H ) :   0.9590 B( 18-C , 19-C ) :   1.2769
B( 18-C , 21-H ) :   0.9841 B( 19-C , 20-C ) :   1.5828 B( 19-C , 22-C ) :   1.0186
B( 22-C , 23-H ) :   0.9240 B( 22-C , 24-H ) :   0.9347 B( 22-C , 25-C ) :   1.0624
B( 25-C , 26-H ) :   0.9544 B( 25-C , 27-H ) :   0.9534 B( 25-C , 28-C ) :   1.0716
B( 28-C , 29-H ) :   0.9719 B( 28-C , 30-H ) :   0.9743 B( 28-C , 31-H ) :   0.9757

Dispersion correction           -0.015093681
FINAL SINGLE POINT ENERGY     -1339.864060009487

DIPOLE MOMENT
-------------
                                X             Y             Z
Electronic contribution:    -23.44404       6.46944       3.59718
Nuclear contribution   :     24.07672      -6.41468      -3.60895
                        -----------------------------------------
Total Dipole Moment    :      0.63268       0.05476      -0.01177
                        -----------------------------------------
Magnitude (a.u.)       :      0.63515
Magnitude (Debye)      :      1.61443

Rotational constants in cm-1:     0.019159     0.008953     0.007635
Rotational constants in MHz :   574.361003   268.417510   228.886740

                             ****ORCA TERMINATED NORMALLY****
TOTAL RUN TIME: 0 days 0 hours 0 minutes 21 seconds 353 msec
