                         Program Version 4.2.1 -  RELEASE  -
|  1> ! wB97X-D3 SP def2-SVP
|  2> %pal
|  3> nprocs 24
|  4> end
|  5>
|  6> * xyz 0 1
|  7> S 	 -33.5085 	 -8.80099 	 9.61099
|  8> C 	 -33.1025 	 -8.28882 	 11.2384
|  9> C 	 -34.1603 	 -7.53512 	 11.762
| 10> C 	 -35.2838 	 -7.48403 	 10.9053
| 11> C 	 -34.9946 	 -7.90081 	 9.61905
| 12> H 	 -36.1856 	 -6.98649 	 11.1728
| 13> C 	 -34.1196 	 -6.8593 	 13.1687
| 14> H 	 -33.2065 	 -7.13286 	 13.6415
| 15> H 	 -34.8994 	 -7.37685 	 13.6885
| 16> C 	 -34.3766 	 -5.3614 	 13.1842
| 17> H 	 -35.3801 	 -5.23707 	 12.9561
| 18> H 	 -34.2383 	 -4.85451 	 14.1843
| 19> C 	 -33.5669 	 -4.62441 	 12.103
| 20> H 	 -33.7153 	 -4.98982 	 11.103
| 21> H 	 -33.906 	 -3.57087 	 12.0022
| 22> H 	 -32.5038 	 -4.66834 	 12.2576
| 23> S 	 -36.3219 	 -9.28119 	 7.53627
| 24> C 	 -37.5285 	 -8.37775 	 6.6312
| 25> C 	 -37.7244 	 -7.08034 	 7.09999
| 26> C 	 -36.768 	 -6.74887 	 8.11086
| 27> C 	 -35.9107 	 -7.82125 	 8.50737
| 28> H 	 -38.5186 	 -6.46808 	 6.6564
| 29> C 	 -36.6023 	 -5.31016 	 8.55189
| 30> H 	 -36.6895 	 -4.80822 	 7.5714
| 31> H 	 -35.5963 	 -5.10212 	 8.9655
| 32> C 	 -37.6963 	 -4.74552 	 9.39327
| 33> H 	 -37.6279 	 -5.14324 	 10.3692
| 34> H 	 -38.7036 	 -4.92832 	 8.93833
| 35> C 	 -37.4974 	 -3.25237 	 9.46372
| 36> H 	 -37.5657 	 -2.8581 	 8.49967
| 37> H 	 -36.4762 	 -3.04291 	 9.83631
| 38> H 	 -38.2716 	 -2.91515 	 10.2074
| 39> H 	 -32.1383 	 -8.37741 	 11.709
| 40> H 	 -38.1393 	 -8.73705 	 5.79996
| 41> *
| 42>
| 43>                          ****END OF INPUT****

CARTESIAN COORDINATES (ANGSTROEM)
---------------------------------
  S    -33.508500   -8.800990    9.610990
  C    -33.102500   -8.288820   11.238400
  C    -34.160300   -7.535120   11.762000
  C    -35.283800   -7.484030   10.905300
  C    -34.994600   -7.900810    9.619050
  H    -36.185600   -6.986490   11.172800
  C    -34.119600   -6.859300   13.168700
  H    -33.206500   -7.132860   13.641500
  H    -34.899400   -7.376850   13.688500
  C    -34.376600   -5.361400   13.184200
  H    -35.380100   -5.237070   12.956100
  H    -34.238300   -4.854510   14.184300
  C    -33.566900   -4.624410   12.103000
  H    -33.715300   -4.989820   11.103000
  H    -33.906000   -3.570870   12.002200
  H    -32.503800   -4.668340   12.257600
  S    -36.321900   -9.281190    7.536270
  C    -37.528500   -8.377750    6.631200
  C    -37.724400   -7.080340    7.099990
  C    -36.768000   -6.748870    8.110860
  C    -35.910700   -7.821250    8.507370
  H    -38.518600   -6.468080    6.656400
  C    -36.602300   -5.310160    8.551890
  H    -36.689500   -4.808220    7.571400
  H    -35.596300   -5.102120    8.965500
  C    -37.696300   -4.745520    9.393270
  H    -37.627900   -5.143240   10.369200
  H    -38.703600   -4.928320    8.938330
  C    -37.497400   -3.252370    9.463720
  H    -37.565700   -2.858100    8.499670
  H    -36.476200   -3.042910    9.836310
  H    -38.271600   -2.915150   10.207400
  H    -32.138300   -8.377410   11.709000
  H    -38.139300   -8.737050    5.799960

 Total Charge           Charge          ....    0
 Multiplicity           Mult            ....    1
 Number of Electrons    NEL             ....  134
 Basis Dimension        Dim             ....  322

ORBITAL ENERGIES
----------------

  NO   OCC          E(Eh)            E(eV)
   0   2.0000     -88.967934     -2420.9406
   1   2.0000     -88.967158     -2420.9194
   2   2.0000     -10.331420      -281.1322
   3   2.0000     -10.330796      -281.1153
   4   2.0000     -10.322272      -280.8833
   5   2.0000     -10.314974      -280.6847
   6   2.0000     -10.308679      -280.5134
   7   2.0000     -10.303432      -280.3706
   8   2.0000     -10.298455      -280.2352
   9   2.0000     -10.291736      -280.0524
  10   2.0000     -10.289976      -280.0045
  11   2.0000     -10.289766      -279.9988
  12   2.0000     -10.287402      -279.9344
  13   2.0000     -10.282022      -279.7881
  14   2.0000     -10.277330      -279.6604
  15   2.0000     -10.273784      -279.5639
  16   2.0000      -8.081984      -219.9220
  17   2.0000      -8.081537      -219.9098
  18   2.0000      -6.040480      -164.3698
  19   2.0000      -6.040122      -164.3601
  20   2.0000      -6.036462      -164.2605
  21   2.0000      -6.036206      -164.2535
  22   2.0000      -6.032765      -164.1599
  23   2.0000      -6.032287      -164.1469
  24   2.0000      -1.004955       -27.3462
  25   2.0000      -0.979340       -26.6492
  26   2.0000      -0.921869       -25.0853
  27   2.0000      -0.912841       -24.8397
  28   2.0000      -0.868789       -23.6410
  29   2.0000      -0.854104       -23.2413
  30   2.0000      -0.844387       -22.9769
  31   2.0000      -0.813301       -22.1310
  32   2.0000      -0.785302       -21.3691
  33   2.0000      -0.768374       -20.9085
  34   2.0000      -0.711075       -19.3493
  35   2.0000      -0.699705       -19.0399
  36   2.0000      -0.693031       -18.8583
  37   2.0000      -0.658052       -17.9065
  38   2.0000      -0.638847       -17.3839
  39   2.0000      -0.625270       -17.0145
  40   2.0000      -0.595280       -16.1984
  41   2.0000      -0.578958       -15.7542
  42   2.0000      -0.565235       -15.3808
  43   2.0000      -0.556349       -15.1390
  44   2.0000      -0.546292       -14.8654
  45   2.0000      -0.530525       -14.4363
  46   2.0000      -0.517132       -14.0719
  47   2.0000      -0.508953       -13.8493
  48   2.0000      -0.505696       -13.7607
  49   2.0000      -0.499041       -13.5796
  50   2.0000      -0.490909       -13.3583
  51   2.0000      -0.482900       -13.1404
  52   2.0000      -0.468631       -12.7521
  53   2.0000      -0.465417       -12.6646
  54   2.0000      -0.458243       -12.4694
  55   2.0000      -0.452259       -12.3066
  56   2.0000      -0.444640       -12.0993
  57   2.0000      -0.439399       -11.9567
  58   2.0000      -0.434935       -11.8352
  59   2.0000      -0.430093       -11.7034
  60   2.0000      -0.424912       -11.5624
  61   2.0000      -0.416864       -11.3435
  62   2.0000      -0.409118       -11.1327
  63   2.0000      -0.347932        -9.4677
  64   2.0000      -0.331231        -9.0132
  65   2.0000      -0.329331        -8.9615
  66   2.0000      -0.286438        -7.7944
  67   0.0000       0.021445         0.5836
  68   0.0000       0.071151         1.9361
  69   0.0000       0.107241         2.9182
  70   0.0000       0.112346         3.0571
  71   0.0000       0.123634         3.3642

MULLIKEN ATOMIC CHARGES
-----------------------
   0 S :    0.109737
   1 C :   -0.112255
   2 C :   -0.149482
   3 C :    0.046468
   4 C :   -0.155445
   5 H :   -0.004154
   6 C :    0.122182
   7 H :    0.006629
   8 H :    0.030454
   9 C :   -0.053109
  10 H :    0.004443
  11 H :    0.044075
  12 C :   -0.061309
  13 H :    0.034238
  14 H :    0.031252
  15 H :    0.028684
  16 S :    0.102211
  17 C :   -0.093793
  18 C :   -0.050691
  19 C :   -0.016102
  20 C :   -0.128092
  21 H :    0.032144
  22 C :    0.008155
  23 H :    0.024990
  24 H :    0.038461
  25 C :   -0.065812
  26 H :    0.014594
  27 H :    0.033502
  28 C :   -0.018496
  29 H :    0.017978
  30 H :    0.024412
  31 H :    0.044594
  32 H :    0.048648
  33 H :    0.060889
Sum of atomic charges:   -0.0000000

LOEWDIN ATOMIC CHARGES
----------------------
   0 S :    0.410055
   1 C :   -0.201987
   2 C :   -0.056125
   3 C :   -0.058508
   4 C :   -0.194837
   5 H :    0.024496
   6 C :   -0.022510
   7 H :    0.021859
   8 H :    0.032213
   9 C :   -0.040082
  10 H :    0.012008
  11 H :    0.035359
  12 C :   -0.067317
  13 H :    0.022661
  14 H :    0.028389
  15 H :    0.021977
  16 S :    0.381578
  17 C :   -0.179451
  18 C :   -0.078103
  19 C :   -0.047220
  20 C :   -0.193230
  21 H :    0.037717
  22 C :   -0.038473
  23 H :    0.035163
  24 H :    0.033017
  25 C :   -0.040127
  26 H :    0.013304
  27 H :    0.028815
  28 C :   -0.056273
  29 H :    0.014442
  30 H :    0.025655
  31 H :    0.034035
  32 H :    0.028039
  33 H :    0.033460

  Mayer bond orders larger than 0.100000
B(  0-S ,  1-C ) :   1.1355 B(  0-S ,  4-C ) :   1.1586 B(  1-C ,  2-C ) :   1.6004
B(  1-C , 32-H ) :   0.9675 B(  2-C ,  3-C ) :   1.2575 B(  2-C ,  6-C ) :   1.0061
B(  3-C ,  4-C ) :   1.5335 B(  3-C ,  5-H ) :   0.9962 B(  4-C , 20-C ) :   1.0798
B(  6-C ,  7-H ) :   0.9437 B(  6-C ,  8-H ) :   0.9401 B(  6-C ,  9-C ) :   1.0676
B(  9-C , 10-H ) :   0.9502 B(  9-C , 11-H ) :   0.9570 B(  9-C , 12-C ) :   1.0834
B( 12-C , 13-H ) :   0.9668 B( 12-C , 14-H ) :   0.9734 B( 12-C , 15-H ) :   0.9769
B( 16-S , 17-C ) :   1.1596 B( 16-S , 20-C ) :   1.1083 B( 17-C , 18-C ) :   1.6185
B( 17-C , 33-H ) :   0.9621 B( 18-C , 19-C ) :   1.2405 B( 18-C , 21-H ) :   0.9851
B( 19-C , 20-C ) :   1.5787 B( 19-C , 22-C ) :   1.0284 B( 22-C , 23-H ) :   0.9382
B( 22-C , 24-H ) :   0.9384 B( 22-C , 25-C ) :   1.0746 B( 25-C , 26-H ) :   0.9474
B( 25-C , 27-H ) :   0.9510 B( 25-C , 28-C ) :   1.0863 B( 28-C , 29-H ) :   0.9753
B( 28-C , 30-H ) :   0.9690 B( 28-C , 31-H ) :   0.9732

Dispersion correction           -0.015621917
FINAL SINGLE POINT ENERGY     -1339.875672618463

DIPOLE MOMENT
-------------
                                X             Y             Z
Electronic contribution:      4.49254     -27.99718     -14.49104
Nuclear contribution   :     -4.81657      28.64889      14.76040
                        -----------------------------------------
Total Dipole Moment    :     -0.32402       0.65171       0.26936
                        -----------------------------------------
Magnitude (a.u.)       :      0.77606
Magnitude (Debye)      :      1.97259

Rotational constants in cm-1:     0.016736     0.011119     0.007160
Rotational constants in MHz :   501.738768   333.326541   214.637335

                             ****ORCA TERMINATED NORMALLY****
TOTAL RUN TIME: 0 days 0 hours 0 minutes 22 seconds 923 msec
