                         Program Version 4.2.1 -  RELEASE  -
|  1> ! wB97X-D3 SP def2-SVP
|  2> %pal
|  3> nprocs 24
|  4> end
|  5>
|  6> * xyz 0 1
|  7> S 	 -132.43 	 13.9637 	 -15.4233
|  8> C 	 -133.563 	 13.0188 	 -14.4402
|  9> C 	 -134.695 	 12.6646 	 -15.0962
| 10> C 	 -134.634 	 13.0839 	 -16.4418
| 11> C 	 -133.496 	 13.7866 	 -16.8661
| 12> H 	 -135.467 	 12.9639 	 -17.1903
| 13> C 	 -135.878 	 11.881 	 -14.4651
| 14> H 	 -135.401 	 10.9151 	 -14.4941
| 15> H 	 -136.649 	 11.8211 	 -15.2164
| 16> C 	 -136.331 	 12.3989 	 -13.0761
| 17> H 	 -135.599 	 12.1634 	 -12.3526
| 18> H 	 -136.637 	 13.4516 	 -13.0413
| 19> C 	 -137.554 	 11.5189 	 -12.5892
| 20> H 	 -137.944 	 11.9217 	 -11.6813
| 21> H 	 -138.392 	 11.4148 	 -13.2521
| 22> H 	 -137.285 	 10.4854 	 -12.4154
| 23> S 	 -133.67 	 16.3055 	 -18.1242
| 24> C 	 -133.378 	 16.4239 	 -19.8248
| 25> C 	 -133.024 	 15.1888 	 -20.3864
| 26> C 	 -132.994 	 14.1332 	 -19.3596
| 27> C 	 -133.301 	 14.5406 	 -18.0919
| 28> H 	 -132.797 	 15.0292 	 -21.4784
| 29> C 	 -132.519 	 12.7535 	 -19.5989
| 30> H 	 -133.258 	 12.1509 	 -20.126
| 31> H 	 -132.574 	 12.2544 	 -18.6282
| 32> C 	 -131.018 	 12.5897 	 -19.9078
| 33> H 	 -130.545 	 13.1626 	 -19.1429
| 34> H 	 -130.778 	 13.1044 	 -20.7958
| 35> C 	 -130.549 	 11.1501 	 -19.9511
| 36> H 	 -129.614 	 10.9196 	 -20.468
| 37> H 	 -131.349 	 10.6384 	 -20.5364
| 38> H 	 -130.438 	 10.785 	 -18.9187
| 39> H 	 -133.383 	 12.7039 	 -13.4489
| 40> H 	 -133.466 	 17.377 	 -20.355
| 41> *
| 42>
| 43>                          ****END OF INPUT****

CARTESIAN COORDINATES (ANGSTROEM)
---------------------------------
  S    -132.430000   13.963700  -15.423300
  C    -133.563000   13.018800  -14.440200
  C    -134.695000   12.664600  -15.096200
  C    -134.634000   13.083900  -16.441800
  C    -133.496000   13.786600  -16.866100
  H    -135.467000   12.963900  -17.190300
  C    -135.878000   11.881000  -14.465100
  H    -135.401000   10.915100  -14.494100
  H    -136.649000   11.821100  -15.216400
  C    -136.331000   12.398900  -13.076100
  H    -135.599000   12.163400  -12.352600
  H    -136.637000   13.451600  -13.041300
  C    -137.554000   11.518900  -12.589200
  H    -137.944000   11.921700  -11.681300
  H    -138.392000   11.414800  -13.252100
  H    -137.285000   10.485400  -12.415400
  S    -133.670000   16.305500  -18.124200
  C    -133.378000   16.423900  -19.824800
  C    -133.024000   15.188800  -20.386400
  C    -132.994000   14.133200  -19.359600
  C    -133.301000   14.540600  -18.091900
  H    -132.797000   15.029200  -21.478400
  C    -132.519000   12.753500  -19.598900
  H    -133.258000   12.150900  -20.126000
  H    -132.574000   12.254400  -18.628200
  C    -131.018000   12.589700  -19.907800
  H    -130.545000   13.162600  -19.142900
  H    -130.778000   13.104400  -20.795800
  C    -130.549000   11.150100  -19.951100
  H    -129.614000   10.919600  -20.468000
  H    -131.349000   10.638400  -20.536400
  H    -130.438000   10.785000  -18.918700
  H    -133.383000   12.703900  -13.448900
  H    -133.466000   17.377000  -20.355000

 Total Charge           Charge          ....    0
 Multiplicity           Mult            ....    1
 Number of Electrons    NEL             ....  134
 Basis Dimension        Dim             ....  322

ORBITAL ENERGIES
----------------

  NO   OCC          E(Eh)            E(eV)
   0   2.0000     -88.965100     -2420.8634
   1   2.0000     -88.960838     -2420.7475
   2   2.0000     -10.333480      -281.1883
   3   2.0000     -10.325853      -280.9808
   4   2.0000     -10.323274      -280.9106
   5   2.0000     -10.310676      -280.5678
   6   2.0000     -10.303660      -280.3769
   7   2.0000     -10.302937      -280.3572
   8   2.0000     -10.300510      -280.2911
   9   2.0000     -10.298271      -280.2302
  10   2.0000     -10.298158      -280.2271
  11   2.0000     -10.296636      -280.1857
  12   2.0000     -10.280684      -279.7516
  13   2.0000     -10.278291      -279.6865
  14   2.0000     -10.276280      -279.6318
  15   2.0000     -10.275454      -279.6093
  16   2.0000      -8.078628      -219.8306
  17   2.0000      -8.075511      -219.7458
  18   2.0000      -6.037207      -164.2808
  19   2.0000      -6.034047      -164.1948
  20   2.0000      -6.033298      -164.1744
  21   2.0000      -6.030036      -164.0856
  22   2.0000      -6.029386      -164.0679
  23   2.0000      -6.026219      -163.9818
  24   2.0000      -0.999152       -27.1883
  25   2.0000      -0.979066       -26.6417
  26   2.0000      -0.910984       -24.7891
  27   2.0000      -0.907799       -24.7025
  28   2.0000      -0.868593       -23.6356
  29   2.0000      -0.849208       -23.1081
  30   2.0000      -0.842009       -22.9122
  31   2.0000      -0.809730       -22.0339
  32   2.0000      -0.781939       -21.2777
  33   2.0000      -0.769255       -20.9325
  34   2.0000      -0.716568       -19.4988
  35   2.0000      -0.703559       -19.1448
  36   2.0000      -0.698557       -19.0087
  37   2.0000      -0.655279       -17.8311
  38   2.0000      -0.638090       -17.3633
  39   2.0000      -0.609921       -16.5968
  40   2.0000      -0.594589       -16.1796
  41   2.0000      -0.572566       -15.5803
  42   2.0000      -0.565288       -15.3823
  43   2.0000      -0.560125       -15.2418
  44   2.0000      -0.530493       -14.4355
  45   2.0000      -0.521331       -14.1861
  46   2.0000      -0.519874       -14.1465
  47   2.0000      -0.513268       -13.9667
  48   2.0000      -0.502977       -13.6867
  49   2.0000      -0.498669       -13.5695
  50   2.0000      -0.492786       -13.4094
  51   2.0000      -0.473666       -12.8891
  52   2.0000      -0.463294       -12.6069
  53   2.0000      -0.459442       -12.5020
  54   2.0000      -0.455277       -12.3887
  55   2.0000      -0.454285       -12.3617
  56   2.0000      -0.447685       -12.1821
  57   2.0000      -0.439777       -11.9669
  58   2.0000      -0.430783       -11.7222
  59   2.0000      -0.426299       -11.6002
  60   2.0000      -0.420986       -11.4556
  61   2.0000      -0.415389       -11.3033
  62   2.0000      -0.402035       -10.9399
  63   2.0000      -0.335470        -9.1286
  64   2.0000      -0.329130        -8.9561
  65   2.0000      -0.324519        -8.8306
  66   2.0000      -0.305423        -8.3110
  67   0.0000       0.037218         1.0127
  68   0.0000       0.054192         1.4746
  69   0.0000       0.117159         3.1880
  70   0.0000       0.124437         3.3861
  71   0.0000       0.128877         3.5069

MULLIKEN ATOMIC CHARGES
-----------------------
   0 S :    0.100657
   1 C :   -0.115779
   2 C :   -0.087472
   3 C :    0.026146
   4 C :   -0.194578
   5 H :    0.028053
   6 C :    0.083486
   7 H :    0.043069
   8 H :    0.015010
   9 C :   -0.051813
  10 H :    0.030086
  11 H :    0.055427
  12 C :   -0.048266
  13 H :    0.025796
  14 H :    0.021964
  15 H :    0.021620
  16 S :    0.102490
  17 C :   -0.104897
  18 C :   -0.031219
  19 C :   -0.058959
  20 C :   -0.146605
  21 H :    0.044725
  22 C :    0.040078
  23 H :    0.025090
  24 H :    0.015030
  25 C :   -0.025179
  26 H :    0.018947
  27 H :    0.010502
  28 C :   -0.055599
  29 H :    0.036810
  30 H :    0.034008
  31 H :    0.043524
  32 H :    0.025797
  33 H :    0.072050
Sum of atomic charges:    0.0000000

LOEWDIN ATOMIC CHARGES
----------------------
   0 S :    0.375382
   1 C :   -0.178116
   2 C :   -0.071226
   3 C :   -0.057326
   4 C :   -0.191171
   5 H :    0.038142
   6 C :   -0.024527
   7 H :    0.039620
   8 H :    0.026497
   9 C :   -0.025935
  10 H :    0.022170
  11 H :    0.033900
  12 C :   -0.063900
  13 H :    0.021332
  14 H :    0.019569
  15 H :    0.023099
  16 S :    0.388527
  17 C :   -0.184520
  18 C :   -0.082654
  19 C :   -0.049559
  20 C :   -0.194418
  21 H :    0.042123
  22 C :   -0.043548
  23 H :    0.028248
  24 H :    0.033140
  25 C :   -0.033176
  26 H :    0.023034
  27 H :    0.011933
  28 C :   -0.066944
  29 H :    0.027377
  30 H :    0.031088
  31 H :    0.029957
  32 H :    0.017961
  33 H :    0.033923

  Mayer bond orders larger than 0.100000
B(  0-S ,  1-C ) :   1.1418 B(  0-S ,  4-C ) :   1.1260 B(  1-C ,  2-C ) :   1.6218
B(  1-C ,  4-C ) :   0.1032 B(  1-C , 32-H ) :   0.9697 B(  2-C ,  3-C ) :   1.2642
B(  2-C ,  6-C ) :   0.9792 B(  3-C ,  4-C ) :   1.5835 B(  3-C ,  5-H ) :   0.9802
B(  4-C , 20-C ) :   1.0377 B(  6-C ,  7-H ) :   0.9363 B(  6-C ,  8-H ) :   0.9480
B(  6-C ,  9-C ) :   1.0661 B(  9-C , 10-H ) :   0.9501 B(  9-C , 11-H ) :   0.9652
B(  9-C , 12-C ) :   1.0773 B( 12-C , 13-H ) :   0.9764 B( 12-C , 14-H ) :   0.9783
B( 12-C , 15-H ) :   0.9764 B( 16-S , 17-C ) :   1.1731 B( 16-S , 20-C ) :   1.1036
B( 17-C , 18-C ) :   1.5982 B( 17-C , 33-H ) :   0.9652 B( 18-C , 19-C ) :   1.2130
B( 18-C , 21-H ) :   0.9845 B( 19-C , 20-C ) :   1.6388 B( 19-C , 22-C ) :   1.0725
B( 22-C , 23-H ) :   0.9208 B( 22-C , 24-H ) :   0.9283 B( 22-C , 25-C ) :   1.0415
B( 25-C , 26-H ) :   0.9524 B( 25-C , 27-H ) :   0.9581 B( 25-C , 28-C ) :   1.0785
B( 28-C , 29-H ) :   0.9746 B( 28-C , 30-H ) :   0.9744 B( 28-C , 31-H ) :   0.9765

Dispersion correction           -0.013724067
FINAL SINGLE POINT ENERGY     -1339.869790881073

DIPOLE MOMENT
-------------
                                X             Y             Z
Electronic contribution:      5.90291      20.70572      -2.84990
Nuclear contribution   :     -6.25451     -21.19685       2.84289
                        -----------------------------------------
Total Dipole Moment    :     -0.35160      -0.49113      -0.00701
                        -----------------------------------------
Magnitude (a.u.)       :      0.60405
Magnitude (Debye)      :      1.53538

Rotational constants in cm-1:     0.020555     0.007026     0.006094
Rotational constants in MHz :   616.220849   210.645261   182.699952

                             ****ORCA TERMINATED NORMALLY****
TOTAL RUN TIME: 0 days 0 hours 0 minutes 20 seconds 785 msec
