                         Program Version 4.2.1 -  RELEASE  -
|  1> ! wB97X-D3 SP def2-SVP
|  2> %pal
|  3> nprocs 24
|  4> end
|  5>
|  6> * xyz 0 1
|  7> S 	 -97.8085 	 -26.7755 	 -64.0593
|  8> C 	 -97.938 	 -25.4789 	 -65.2348
|  9> C 	 -98.8821 	 -24.5499 	 -64.8722
| 10> C 	 -99.4181 	 -24.9115 	 -63.5781
| 11> C 	 -98.7467 	 -25.9038 	 -62.8778
| 12> H 	 -100.161 	 -24.3156 	 -62.9978
| 13> C 	 -99.3716 	 -23.3293 	 -65.6649
| 14> H 	 -100.454 	 -23.2469 	 -65.6197
| 15> H 	 -99.1567 	 -23.4174 	 -66.7631
| 16> C 	 -98.7315 	 -22.0251 	 -65.1456
| 17> H 	 -99.3337 	 -21.7793 	 -64.2475
| 18> H 	 -97.7442 	 -22.1311 	 -64.6925
| 19> C 	 -98.7951 	 -20.8777 	 -66.2384
| 20> H 	 -99.7706 	 -20.671 	 -66.5627
| 21> H 	 -98.3672 	 -19.9473 	 -65.7581
| 22> H 	 -98.2552 	 -21.1015 	 -67.1573
| 23> S 	 -98.8101 	 -28.0957 	 -61.2668
| 24> C 	 -99.602 	 -28.0524 	 -59.7642
| 25> C 	 -99.8074 	 -26.7865 	 -59.3257
| 26> C 	 -99.4795 	 -25.8384 	 -60.3432
| 27> C 	 -99.0176 	 -26.4038 	 -61.5409
| 28> H 	 -100.197 	 -26.5609 	 -58.3833
| 29> C 	 -99.8242 	 -24.3254 	 -60.1275
| 30> H 	 -100.471 	 -24.351 	 -59.2852
| 31> H 	 -100.328 	 -23.9409 	 -61.0426
| 32> C 	 -98.6004 	 -23.4984 	 -59.8183
| 33> H 	 -98.0809 	 -23.5014 	 -60.766
| 34> H 	 -98.0235 	 -23.94 	 -59.0783
| 35> C 	 -98.8864 	 -22.0047 	 -59.557
| 36> H 	 -99.6514 	 -21.8546 	 -58.7882
| 37> H 	 -99.2834 	 -21.4835 	 -60.4612
| 38> H 	 -97.9066 	 -21.5163 	 -59.2894
| 39> H 	 -97.3987 	 -25.507 	 -66.1408
| 40> H 	 -99.7043 	 -28.8029 	 -59.0356
| 41> *
| 42>
| 43>                          ****END OF INPUT****

CARTESIAN COORDINATES (ANGSTROEM)
---------------------------------
  S    -97.808500  -26.775500  -64.059300
  C    -97.938000  -25.478900  -65.234800
  C    -98.882100  -24.549900  -64.872200
  C    -99.418100  -24.911500  -63.578100
  C    -98.746700  -25.903800  -62.877800
  H    -100.161000  -24.315600  -62.997800
  C    -99.371600  -23.329300  -65.664900
  H    -100.454000  -23.246900  -65.619700
  H    -99.156700  -23.417400  -66.763100
  C    -98.731500  -22.025100  -65.145600
  H    -99.333700  -21.779300  -64.247500
  H    -97.744200  -22.131100  -64.692500
  C    -98.795100  -20.877700  -66.238400
  H    -99.770600  -20.671000  -66.562700
  H    -98.367200  -19.947300  -65.758100
  H    -98.255200  -21.101500  -67.157300
  S    -98.810100  -28.095700  -61.266800
  C    -99.602000  -28.052400  -59.764200
  C    -99.807400  -26.786500  -59.325700
  C    -99.479500  -25.838400  -60.343200
  C    -99.017600  -26.403800  -61.540900
  H    -100.197000  -26.560900  -58.383300
  C    -99.824200  -24.325400  -60.127500
  H    -100.471000  -24.351000  -59.285200
  H    -100.328000  -23.940900  -61.042600
  C    -98.600400  -23.498400  -59.818300
  H    -98.080900  -23.501400  -60.766000
  H    -98.023500  -23.940000  -59.078300
  C    -98.886400  -22.004700  -59.557000
  H    -99.651400  -21.854600  -58.788200
  H    -99.283400  -21.483500  -60.461200
  H    -97.906600  -21.516300  -59.289400
  H    -97.398700  -25.507000  -66.140800
  H    -99.704300  -28.802900  -59.035600

 Total Charge           Charge          ....    0
 Multiplicity           Mult            ....    1
 Number of Electrons    NEL             ....  134
 Basis Dimension        Dim             ....  322

ORBITAL ENERGIES
----------------

  NO   OCC          E(Eh)            E(eV)
   0   2.0000     -88.965744     -2420.8810
   1   2.0000     -88.963509     -2420.8202
   2   2.0000     -10.333113      -281.1783
   3   2.0000     -10.328861      -281.0626
   4   2.0000     -10.313065      -280.6328
   5   2.0000     -10.309024      -280.5228
   6   2.0000     -10.306907      -280.4652
   7   2.0000     -10.305665      -280.4314
   8   2.0000     -10.300388      -280.2878
   9   2.0000     -10.298212      -280.2286
  10   2.0000     -10.293474      -280.0997
  11   2.0000     -10.290703      -280.0243
  12   2.0000     -10.288166      -279.9552
  13   2.0000     -10.284259      -279.8489
  14   2.0000     -10.284105      -279.8447
  15   2.0000     -10.275483      -279.6101
  16   2.0000      -8.081989      -219.9221
  17   2.0000      -8.078659      -219.8315
  18   2.0000      -6.040465      -164.3694
  19   2.0000      -6.037313      -164.2836
  20   2.0000      -6.036264      -164.2551
  21   2.0000      -6.033230      -164.1725
  22   2.0000      -6.032709      -164.1584
  23   2.0000      -6.029130      -164.0610
  24   2.0000      -1.015046       -27.6208
  25   2.0000      -0.990864       -26.9628
  26   2.0000      -0.911243       -24.7962
  27   2.0000      -0.908526       -24.7222
  28   2.0000      -0.875104       -23.8128
  29   2.0000      -0.850404       -23.1407
  30   2.0000      -0.840764       -22.8783
  31   2.0000      -0.817310       -22.2401
  32   2.0000      -0.782242       -21.2859
  33   2.0000      -0.773556       -21.0495
  34   2.0000      -0.711132       -19.3509
  35   2.0000      -0.703239       -19.1361
  36   2.0000      -0.692150       -18.8344
  37   2.0000      -0.670533       -18.2461
  38   2.0000      -0.643565       -17.5123
  39   2.0000      -0.620941       -16.8967
  40   2.0000      -0.594125       -16.1670
  41   2.0000      -0.575334       -15.6556
  42   2.0000      -0.572171       -15.5696
  43   2.0000      -0.553104       -15.0507
  44   2.0000      -0.526499       -14.3268
  45   2.0000      -0.523407       -14.2426
  46   2.0000      -0.514764       -14.0074
  47   2.0000      -0.510251       -13.8846
  48   2.0000      -0.507324       -13.8050
  49   2.0000      -0.505409       -13.7529
  50   2.0000      -0.494161       -13.4468
  51   2.0000      -0.485899       -13.2220
  52   2.0000      -0.475027       -12.9261
  53   2.0000      -0.472311       -12.8522
  54   2.0000      -0.461922       -12.5695
  55   2.0000      -0.453834       -12.3494
  56   2.0000      -0.449627       -12.2350
  57   2.0000      -0.438942       -11.9442
  58   2.0000      -0.428916       -11.6714
  59   2.0000      -0.423072       -11.5124
  60   2.0000      -0.420970       -11.4552
  61   2.0000      -0.414744       -11.2857
  62   2.0000      -0.405492       -11.0340
  63   2.0000      -0.362540        -9.8652
  64   2.0000      -0.335024        -9.1165
  65   2.0000      -0.324641        -8.8339
  66   2.0000      -0.285913        -7.7801
  67   0.0000       0.020089         0.5467
  68   0.0000       0.080797         2.1986
  69   0.0000       0.100452         2.7334
  70   0.0000       0.118484         3.2241
  71   0.0000       0.124326         3.3831

MULLIKEN ATOMIC CHARGES
-----------------------
   0 S :    0.088003
   1 C :   -0.105006
   2 C :   -0.063267
   3 C :   -0.013477
   4 C :   -0.109683
   5 H :    0.016271
   6 C :    0.053864
   7 H :    0.036551
   8 H :    0.026925
   9 C :   -0.092224
  10 H :    0.025585
  11 H :    0.042601
  12 C :   -0.045952
  13 H :    0.020165
  14 H :    0.044494
  15 H :    0.036970
  16 S :    0.105598
  17 C :   -0.035194
  18 C :   -0.037752
  19 C :   -0.077530
  20 C :   -0.133399
  21 H :   -0.002818
  22 C :    0.072877
  23 H :    0.001000
  24 H :    0.025954
  25 C :   -0.042749
  26 H :    0.028000
  27 H :    0.017588
  28 C :   -0.060741
  29 H :    0.028765
  30 H :    0.031140
  31 H :    0.047511
  32 H :    0.033739
  33 H :    0.036189
Sum of atomic charges:   -0.0000000

LOEWDIN ATOMIC CHARGES
----------------------
   0 S :    0.393673
   1 C :   -0.180491
   2 C :   -0.059861
   3 C :   -0.072821
   4 C :   -0.191124
   5 H :    0.028761
   6 C :   -0.032555
   7 H :    0.032772
   8 H :    0.030714
   9 C :   -0.042755
  10 H :    0.025105
  11 H :    0.026186
  12 C :   -0.064086
  13 H :    0.016167
  14 H :    0.035174
  15 H :    0.025163
  16 S :    0.435589
  17 C :   -0.190111
  18 C :   -0.067228
  19 C :   -0.050486
  20 C :   -0.205597
  21 H :    0.023251
  22 C :   -0.023467
  23 H :    0.017952
  24 H :    0.028556
  25 C :   -0.037189
  26 H :    0.028362
  27 H :    0.015143
  28 C :   -0.069926
  29 H :    0.020001
  30 H :    0.026697
  31 H :    0.034265
  32 H :    0.019705
  33 H :    0.024459

  Mayer bond orders larger than 0.100000
B(  0-S ,  1-C ) :   1.1350 B(  0-S ,  4-C ) :   1.1393 B(  1-C ,  2-C ) :   1.6147
B(  1-C , 32-H ) :   0.9775 B(  2-C ,  3-C ) :   1.2316 B(  2-C ,  6-C ) :   1.0242
B(  3-C ,  4-C ) :   1.5726 B(  3-C ,  5-H ) :   0.9815 B(  4-C , 20-C ) :   1.0844
B(  6-C ,  7-H ) :   0.9417 B(  6-C ,  8-H ) :   0.9531 B(  6-C ,  9-C ) :   1.0365
B(  9-C , 10-H ) :   0.9552 B(  9-C , 11-H ) :   0.9658 B(  9-C , 12-C ) :   1.0708
B( 12-C , 13-H ) :   0.9754 B( 12-C , 14-H ) :   0.9762 B( 12-C , 15-H ) :   0.9784
B( 16-S , 17-C ) :   1.1744 B( 16-S , 20-C ) :   1.1397 B( 17-C , 18-C ) :   1.5958
B( 17-C , 33-H ) :   0.9642 B( 18-C , 19-C ) :   1.2760 B( 18-C , 21-H ) :   0.9986
B( 19-C , 20-C ) :   1.5653 B( 19-C , 22-C ) :   1.0272 B( 22-C , 23-H ) :   0.9302
B( 22-C , 24-H ) :   0.9424 B( 22-C , 25-C ) :   1.0689 B( 25-C , 26-H ) :   0.9540
B( 25-C , 27-H ) :   0.9568 B( 25-C , 28-C ) :   1.0819 B( 28-C , 29-H ) :   0.9758
B( 28-C , 30-H ) :   0.9735 B( 28-C , 31-H ) :   0.9746

Dispersion correction           -0.013879833
FINAL SINGLE POINT ENERGY     -1339.867713975211

DIPOLE MOMENT
-------------
                                X             Y             Z
Electronic contribution:      3.86084     -32.96031       1.08301
Nuclear contribution   :     -4.11896      33.57597      -0.95438
                        -----------------------------------------
Total Dipole Moment    :     -0.25812       0.61566       0.12863
                        -----------------------------------------
Magnitude (a.u.)       :      0.67986
Magnitude (Debye)      :      1.72806

Rotational constants in cm-1:     0.017970     0.009068     0.006380
Rotational constants in MHz :   538.733119   271.838670   191.262999

                             ****ORCA TERMINATED NORMALLY****
TOTAL RUN TIME: 0 days 0 hours 0 minutes 21 seconds 539 msec
