                         Program Version 4.2.1 -  RELEASE  -
|  1> ! wB97X-D3 SP def2-SVP
|  2> %pal
|  3> nprocs 24
|  4> end
|  5>
|  6> * xyz 0 1
|  7> S 	 -49.1927 	 7.36648 	 -17.6221
|  8> C 	 -48.7532 	 6.65419 	 -19.165
|  9> C 	 -49.8594 	 6.11239 	 -19.7843
| 10> C 	 -51.0593 	 6.17114 	 -19.0238
| 11> C 	 -50.842 	 6.77134 	 -17.8173
| 12> H 	 -52.018 	 5.8317 	 -19.3906
| 13> C 	 -49.8618 	 5.6704 	 -21.1822
| 14> H 	 -48.8359 	 5.51488 	 -21.4738
| 15> H 	 -50.059 	 6.57647 	 -21.818
| 16> C 	 -50.6338 	 4.46936 	 -21.5961
| 17> H 	 -51.6531 	 4.79622 	 -21.8766
| 18> H 	 -50.2177 	 4.17484 	 -22.5596
| 19> C 	 -50.6123 	 3.3346 	 -20.6031
| 20> H 	 -51.4119 	 3.57492 	 -19.9085
| 21> H 	 -50.6728 	 2.28272 	 -20.9655
| 22> H 	 -49.6771 	 3.21027 	 -20.1131
| 23> S 	 -51.4185 	 8.5612 	 -15.7691
| 24> C 	 -52.7193 	 8.20739 	 -14.6183
| 25> C 	 -53.5141 	 7.27782 	 -15.1168
| 26> C 	 -53.1202 	 6.74085 	 -16.4135
| 27> C 	 -51.8393 	 7.11223 	 -16.7848
| 28> H 	 -54.3382 	 6.85608 	 -14.5205
| 29> C 	 -54.037 	 5.72908 	 -17.1017
| 30> H 	 -53.9598 	 5.92143 	 -18.1553
| 31> H 	 -55.1192 	 5.84947 	 -16.8284
| 32> C 	 -53.6098 	 4.2915 	 -16.8094
| 33> H 	 -52.5124 	 4.2648 	 -16.8021
| 34> H 	 -53.9962 	 3.7155 	 -17.5949
| 35> C 	 -54.1752 	 3.73905 	 -15.5166
| 36> H 	 -53.7998 	 4.23714 	 -14.6037
| 37> H 	 -54.1072 	 2.64659 	 -15.583
| 38> H 	 -55.2875 	 3.75736 	 -15.5072
| 39> H 	 -47.8068 	 6.9152 	 -19.5788
| 40> H 	 -52.9089 	 8.72552 	 -13.7661
| 41> *
| 42>
| 43>                          ****END OF INPUT****

CARTESIAN COORDINATES (ANGSTROEM)
---------------------------------
  S    -49.192700    7.366480  -17.622100
  C    -48.753200    6.654190  -19.165000
  C    -49.859400    6.112390  -19.784300
  C    -51.059300    6.171140  -19.023800
  C    -50.842000    6.771340  -17.817300
  H    -52.018000    5.831700  -19.390600
  C    -49.861800    5.670400  -21.182200
  H    -48.835900    5.514880  -21.473800
  H    -50.059000    6.576470  -21.818000
  C    -50.633800    4.469360  -21.596100
  H    -51.653100    4.796220  -21.876600
  H    -50.217700    4.174840  -22.559600
  C    -50.612300    3.334600  -20.603100
  H    -51.411900    3.574920  -19.908500
  H    -50.672800    2.282720  -20.965500
  H    -49.677100    3.210270  -20.113100
  S    -51.418500    8.561200  -15.769100
  C    -52.719300    8.207390  -14.618300
  C    -53.514100    7.277820  -15.116800
  C    -53.120200    6.740850  -16.413500
  C    -51.839300    7.112230  -16.784800
  H    -54.338200    6.856080  -14.520500
  C    -54.037000    5.729080  -17.101700
  H    -53.959800    5.921430  -18.155300
  H    -55.119200    5.849470  -16.828400
  C    -53.609800    4.291500  -16.809400
  H    -52.512400    4.264800  -16.802100
  H    -53.996200    3.715500  -17.594900
  C    -54.175200    3.739050  -15.516600
  H    -53.799800    4.237140  -14.603700
  H    -54.107200    2.646590  -15.583000
  H    -55.287500    3.757360  -15.507200
  H    -47.806800    6.915200  -19.578800
  H    -52.908900    8.725520  -13.766100

 Total Charge           Charge          ....    0
 Multiplicity           Mult            ....    1
 Number of Electrons    NEL             ....  134
 Basis Dimension        Dim             ....  322

ORBITAL ENERGIES
----------------

  NO   OCC          E(Eh)            E(eV)
   0   2.0000     -88.966129     -2420.8915
   1   2.0000     -88.955125     -2420.5920
   2   2.0000     -10.335232      -281.2360
   3   2.0000     -10.333852      -281.1984
   4   2.0000     -10.311196      -280.5819
   5   2.0000     -10.306330      -280.4495
   6   2.0000     -10.305745      -280.4336
   7   2.0000     -10.298667      -280.2410
   8   2.0000     -10.295055      -280.1427
   9   2.0000     -10.292384      -280.0700
  10   2.0000     -10.289864      -280.0014
  11   2.0000     -10.285969      -279.8954
  12   2.0000     -10.285308      -279.8775
  13   2.0000     -10.280733      -279.7530
  14   2.0000     -10.280585      -279.7489
  15   2.0000     -10.275731      -279.6168
  16   2.0000      -8.080663      -219.8860
  17   2.0000      -8.069269      -219.5760
  18   2.0000      -6.039217      -164.3355
  19   2.0000      -6.035266      -164.2279
  20   2.0000      -6.031301      -164.1200
  21   2.0000      -6.028094      -164.0328
  22   2.0000      -6.024093      -163.9239
  23   2.0000      -6.019485      -163.7985
  24   2.0000      -1.006128       -27.3781
  25   2.0000      -0.983255       -26.7557
  26   2.0000      -0.923573       -25.1317
  27   2.0000      -0.912289       -24.8246
  28   2.0000      -0.872397       -23.7391
  29   2.0000      -0.852251       -23.1909
  30   2.0000      -0.838843       -22.8261
  31   2.0000      -0.823927       -22.4202
  32   2.0000      -0.784994       -21.3608
  33   2.0000      -0.775946       -21.1146
  34   2.0000      -0.714863       -19.4524
  35   2.0000      -0.701572       -19.0907
  36   2.0000      -0.690194       -18.7811
  37   2.0000      -0.660679       -17.9780
  38   2.0000      -0.642574       -17.4853
  39   2.0000      -0.631238       -17.1769
  40   2.0000      -0.601528       -16.3684
  41   2.0000      -0.565958       -15.4005
  42   2.0000      -0.559649       -15.2288
  43   2.0000      -0.557077       -15.1588
  44   2.0000      -0.549876       -14.9629
  45   2.0000      -0.542370       -14.7586
  46   2.0000      -0.523714       -14.2510
  47   2.0000      -0.509446       -13.8627
  48   2.0000      -0.507966       -13.8225
  49   2.0000      -0.500375       -13.6159
  50   2.0000      -0.487240       -13.2585
  51   2.0000      -0.486585       -13.2407
  52   2.0000      -0.476465       -12.9653
  53   2.0000      -0.468164       -12.7394
  54   2.0000      -0.458600       -12.4791
  55   2.0000      -0.448877       -12.2146
  56   2.0000      -0.440626       -11.9901
  57   2.0000      -0.438740       -11.9387
  58   2.0000      -0.424402       -11.5486
  59   2.0000      -0.419721       -11.4212
  60   2.0000      -0.418985       -11.4012
  61   2.0000      -0.411057       -11.1854
  62   2.0000      -0.405539       -11.0353
  63   2.0000      -0.360460        -9.8086
  64   2.0000      -0.332471        -9.0470
  65   2.0000      -0.321142        -8.7387
  66   2.0000      -0.285708        -7.7745
  67   0.0000       0.017675         0.4810
  68   0.0000       0.076067         2.0699
  69   0.0000       0.100705         2.7403
  70   0.0000       0.118446         3.2231
  71   0.0000       0.126136         3.4323

MULLIKEN ATOMIC CHARGES
-----------------------
   0 S :    0.099236
   1 C :   -0.117315
   2 C :   -0.084115
   3 C :   -0.010127
   4 C :   -0.081078
   5 H :    0.009898
   6 C :    0.056254
   7 H :    0.002959
   8 H :    0.046963
   9 C :   -0.065958
  10 H :    0.024972
  11 H :    0.022447
  12 C :   -0.027807
  13 H :    0.032943
  14 H :    0.034038
  15 H :    0.026203
  16 S :    0.044892
  17 C :   -0.022307
  18 C :   -0.035911
  19 C :   -0.078110
  20 C :   -0.113912
  21 H :    0.028770
  22 C :    0.041095
  23 H :    0.020650
  24 H :    0.028734
  25 C :   -0.039962
  26 H :    0.044110
  27 H :    0.012649
  28 C :   -0.058018
  29 H :    0.054227
  30 H :    0.030756
  31 H :    0.014409
  32 H :    0.043132
  33 H :    0.015284
Sum of atomic charges:    0.0000000

LOEWDIN ATOMIC CHARGES
----------------------
   0 S :    0.398779
   1 C :   -0.191356
   2 C :   -0.059192
   3 C :   -0.063555
   4 C :   -0.175987
   5 H :    0.030729
   6 C :   -0.045015
   7 H :    0.027471
   8 H :    0.044978
   9 C :   -0.048210
  10 H :    0.023244
  11 H :    0.027490
  12 C :   -0.068690
  13 H :    0.027778
  14 H :    0.033804
  15 H :    0.025527
  16 S :    0.341091
  17 C :   -0.153492
  18 C :   -0.074663
  19 C :   -0.056089
  20 C :   -0.162527
  21 H :    0.035294
  22 C :   -0.033461
  23 H :    0.022975
  24 H :    0.034715
  25 C :   -0.036319
  26 H :    0.030488
  27 H :    0.016876
  28 C :   -0.072567
  29 H :    0.029637
  30 H :    0.031269
  31 H :    0.024732
  32 H :    0.021839
  33 H :    0.012407

  Mayer bond orders larger than 0.100000
B(  0-S ,  1-C ) :   1.1184 B(  0-S ,  4-C ) :   1.1571 B(  1-C ,  2-C ) :   1.6060
B(  1-C , 32-H ) :   0.9749 B(  2-C ,  3-C ) :   1.2334 B(  2-C ,  6-C ) :   1.0407
B(  3-C ,  4-C ) :   1.5621 B(  3-C ,  5-H ) :   0.9938 B(  4-C , 20-C ) :   1.0631
B(  6-C ,  7-H ) :   0.9282 B(  6-C ,  8-H ) :   0.9249 B(  6-C ,  9-C ) :   1.0749
B(  9-C , 10-H ) :   0.9516 B(  9-C , 11-H ) :   0.9515 B(  9-C , 12-C ) :   1.0781
B( 12-C , 13-H ) :   0.9681 B( 12-C , 14-H ) :   0.9726 B( 12-C , 15-H ) :   0.9721
B( 16-S , 17-C ) :   1.1075 B( 16-S , 20-C ) :   1.1013 B( 17-C , 18-C ) :   1.6791
B( 17-C , 33-H ) :   0.9787 B( 18-C , 19-C ) :   1.1858 B( 18-C , 21-H ) :   0.9809
B( 19-C , 20-C ) :   1.6422 B( 19-C , 22-C ) :   1.0482 B( 22-C , 23-H ) :   0.9335
B( 22-C , 24-H ) :   0.9374 B( 22-C , 25-C ) :   1.0715 B( 25-C , 26-H ) :   0.9526
B( 25-C , 27-H ) :   0.9501 B( 25-C , 28-C ) :   1.0961 B( 28-C , 29-H ) :   0.9724
B( 28-C , 30-H ) :   0.9698 B( 28-C , 31-H ) :   0.9686

Dispersion correction           -0.015132403
FINAL SINGLE POINT ENERGY     -1339.859097180709

DIPOLE MOMENT
-------------
                                X             Y             Z
Electronic contribution:     11.78508      23.38220      11.71919
Nuclear contribution   :    -12.18734     -23.85677     -12.20626
                        -----------------------------------------
Total Dipole Moment    :     -0.40226      -0.47457      -0.48707
                        -----------------------------------------
Magnitude (a.u.)       :      0.79010
Magnitude (Debye)      :      2.00829

Rotational constants in cm-1:     0.018509     0.010116     0.007048
Rotational constants in MHz :   554.873791   303.257103   211.287271

                             ****ORCA TERMINATED NORMALLY****
TOTAL RUN TIME: 0 days 0 hours 0 minutes 22 seconds 755 msec
