                         Program Version 4.2.1 -  RELEASE  -
|  1> ! wB97X-D3 SP def2-SVP
|  2> %pal
|  3> nprocs 24
|  4> end
|  5>
|  6> * xyz 0 1
|  7> S 	 -108.747 	 57.7558 	 -102.359
|  8> C 	 -110.275 	 56.8861 	 -102.638
|  9> C 	 -110.694 	 56.2744 	 -101.519
| 10> C 	 -109.761 	 56.5033 	 -100.384
| 11> C 	 -108.582 	 57.09 	 -100.755
| 12> H 	 -109.761 	 55.9914 	 -99.467
| 13> C 	 -111.952 	 55.3732 	 -101.515
| 14> H 	 -112.169 	 55.1592 	 -100.447
| 15> H 	 -111.646 	 54.3788 	 -101.971
| 16> C 	 -113.239 	 55.8526 	 -102.169
| 17> H 	 -113.457 	 56.828 	 -101.865
| 18> H 	 -113.039 	 55.7678 	 -103.219
| 19> C 	 -114.446 	 54.9413 	 -101.868
| 20> H 	 -114.862 	 54.9793 	 -100.805
| 21> H 	 -115.21 	 55.3775 	 -102.483
| 22> H 	 -114.272 	 53.9401 	 -102.139
| 23> S 	 -107.117 	 56.4483 	 -98.4364
| 24> C 	 -105.663 	 57.2688 	 -98.0359
| 25> C 	 -105.35 	 58.056 	 -99.0983
| 26> C 	 -106.366 	 58.2712 	 -100.097
| 27> C 	 -107.433 	 57.3865 	 -99.9317
| 28> H 	 -104.49 	 58.6453 	 -99.073
| 29> C 	 -106.044 	 59.2948 	 -101.2
| 30> H 	 -106.766 	 59.4382 	 -101.99
| 31> H 	 -105.234 	 58.8583 	 -101.703
| 32> C 	 -105.643 	 60.6945 	 -100.826
| 33> H 	 -105.692 	 61.2137 	 -101.726
| 34> H 	 -104.616 	 60.7866 	 -100.472
| 35> C 	 -106.553 	 61.4533 	 -99.8987
| 36> H 	 -106.598 	 62.5021 	 -100.032
| 37> H 	 -106.285 	 61.3608 	 -98.889
| 38> H 	 -107.612 	 61.2887 	 -100.114
| 39> H 	 -110.936 	 56.9842 	 -103.59
| 40> H 	 -104.952 	 56.8626 	 -97.3274
| 41> *
| 42>
| 43>                          ****END OF INPUT****

CARTESIAN COORDINATES (ANGSTROEM)
---------------------------------
  S    -108.747000   57.755800  -102.359000
  C    -110.275000   56.886100  -102.638000
  C    -110.694000   56.274400  -101.519000
  C    -109.761000   56.503300  -100.384000
  C    -108.582000   57.090000  -100.755000
  H    -109.761000   55.991400  -99.467000
  C    -111.952000   55.373200  -101.515000
  H    -112.169000   55.159200  -100.447000
  H    -111.646000   54.378800  -101.971000
  C    -113.239000   55.852600  -102.169000
  H    -113.457000   56.828000  -101.865000
  H    -113.039000   55.767800  -103.219000
  C    -114.446000   54.941300  -101.868000
  H    -114.862000   54.979300  -100.805000
  H    -115.210000   55.377500  -102.483000
  H    -114.272000   53.940100  -102.139000
  S    -107.117000   56.448300  -98.436400
  C    -105.663000   57.268800  -98.035900
  C    -105.350000   58.056000  -99.098300
  C    -106.366000   58.271200  -100.097000
  C    -107.433000   57.386500  -99.931700
  H    -104.490000   58.645300  -99.073000
  C    -106.044000   59.294800  -101.200000
  H    -106.766000   59.438200  -101.990000
  H    -105.234000   58.858300  -101.703000
  C    -105.643000   60.694500  -100.826000
  H    -105.692000   61.213700  -101.726000
  H    -104.616000   60.786600  -100.472000
  C    -106.553000   61.453300  -99.898700
  H    -106.598000   62.502100  -100.032000
  H    -106.285000   61.360800  -98.889000
  H    -107.612000   61.288700  -100.114000
  H    -110.936000   56.984200  -103.590000
  H    -104.952000   56.862600  -97.327400

 Total Charge           Charge          ....    0
 Multiplicity           Mult            ....    1
 Number of Electrons    NEL             ....  134
 Basis Dimension        Dim             ....  322

ORBITAL ENERGIES
----------------

  NO   OCC          E(Eh)            E(eV)
   0   2.0000     -88.961927     -2420.7771
   1   2.0000     -88.961563     -2420.7672
   2   2.0000     -10.334086      -281.2048
   3   2.0000     -10.330948      -281.1194
   4   2.0000     -10.316178      -280.7175
   5   2.0000     -10.315897      -280.7098
   6   2.0000     -10.308402      -280.5059
   7   2.0000     -10.303638      -280.3762
   8   2.0000     -10.296850      -280.1915
   9   2.0000     -10.292434      -280.0714
  10   2.0000     -10.287739      -279.9436
  11   2.0000     -10.286860      -279.9197
  12   2.0000     -10.283214      -279.8205
  13   2.0000     -10.280008      -279.7332
  14   2.0000     -10.276780      -279.6454
  15   2.0000     -10.262287      -279.2510
  16   2.0000      -8.076790      -219.7806
  17   2.0000      -8.075887      -219.7561
  18   2.0000      -6.035435      -164.2325
  19   2.0000      -6.034677      -164.2119
  20   2.0000      -6.031232      -164.1182
  21   2.0000      -6.030556      -164.0998
  22   2.0000      -6.027445      -164.0151
  23   2.0000      -6.026260      -163.9829
  24   2.0000      -1.006742       -27.3949
  25   2.0000      -0.984349       -26.7855
  26   2.0000      -0.917288       -24.9607
  27   2.0000      -0.912815       -24.8390
  28   2.0000      -0.875655       -23.8278
  29   2.0000      -0.851479       -23.1699
  30   2.0000      -0.841104       -22.8876
  31   2.0000      -0.814491       -22.1634
  32   2.0000      -0.793339       -21.5878
  33   2.0000      -0.775479       -21.1019
  34   2.0000      -0.710507       -19.3339
  35   2.0000      -0.704036       -19.1578
  36   2.0000      -0.694231       -18.8910
  37   2.0000      -0.662145       -18.0179
  38   2.0000      -0.631774       -17.1915
  39   2.0000      -0.612962       -16.6795
  40   2.0000      -0.602963       -16.4075
  41   2.0000      -0.574204       -15.6249
  42   2.0000      -0.568151       -15.4602
  43   2.0000      -0.561820       -15.2879
  44   2.0000      -0.547598       -14.9009
  45   2.0000      -0.527193       -14.3456
  46   2.0000      -0.516839       -14.0639
  47   2.0000      -0.512378       -13.9425
  48   2.0000      -0.506960       -13.7951
  49   2.0000      -0.497888       -13.5482
  50   2.0000      -0.490263       -13.3407
  51   2.0000      -0.480603       -13.0779
  52   2.0000      -0.472199       -12.8492
  53   2.0000      -0.466971       -12.7069
  54   2.0000      -0.464820       -12.6484
  55   2.0000      -0.448644       -12.2082
  56   2.0000      -0.443833       -12.0773
  57   2.0000      -0.440974       -11.9995
  58   2.0000      -0.427435       -11.6311
  59   2.0000      -0.423162       -11.5148
  60   2.0000      -0.419199       -11.4070
  61   2.0000      -0.408217       -11.1082
  62   2.0000      -0.400383       -10.8950
  63   2.0000      -0.367254        -9.9935
  64   2.0000      -0.328332        -8.9344
  65   2.0000      -0.324740        -8.8366
  66   2.0000      -0.288516        -7.8509
  67   0.0000       0.019295         0.5250
  68   0.0000       0.085765         2.3338
  69   0.0000       0.115392         3.1400
  70   0.0000       0.121965         3.3188
  71   0.0000       0.125645         3.4190

MULLIKEN ATOMIC CHARGES
-----------------------
   0 S :    0.068344
   1 C :   -0.146868
   2 C :   -0.081141
   3 C :    0.022386
   4 C :   -0.115766
   5 H :    0.005296
   6 C :    0.020585
   7 H :    0.020193
   8 H :    0.050528
   9 C :   -0.056282
  10 H :    0.025376
  11 H :    0.027051
  12 C :   -0.046448
  13 H :    0.045059
  14 H :    0.029376
  15 H :    0.025753
  16 S :    0.071530
  17 C :   -0.065984
  18 C :   -0.027556
  19 C :   -0.064237
  20 C :   -0.106527
  21 H :   -0.001149
  22 C :    0.071032
  23 H :    0.025320
  24 H :    0.025356
  25 C :   -0.050335
  26 H :    0.009501
  27 H :    0.021974
  28 C :   -0.015839
  29 H :    0.007416
  30 H :    0.025785
  31 H :    0.022288
  32 H :    0.084053
  33 H :    0.073932
Sum of atomic charges:    0.0000000

LOEWDIN ATOMIC CHARGES
----------------------
   0 S :    0.390198
   1 C :   -0.203610
   2 C :   -0.064932
   3 C :   -0.067027
   4 C :   -0.176142
   5 H :    0.018252
   6 C :   -0.038857
   7 H :    0.027643
   8 H :    0.040400
   9 C :   -0.034195
  10 H :    0.019497
  11 H :    0.021938
  12 C :   -0.059091
  13 H :    0.033885
  14 H :    0.026856
  15 H :    0.017227
  16 S :    0.395636
  17 C :   -0.191328
  18 C :   -0.064990
  19 C :   -0.053271
  20 C :   -0.179359
  21 H :    0.018078
  22 C :   -0.034854
  23 H :    0.019682
  24 H :    0.034505
  25 C :   -0.037830
  26 H :    0.022833
  27 H :    0.021186
  28 C :   -0.065642
  29 H :    0.023512
  30 H :    0.020305
  31 H :    0.031407
  32 H :    0.050572
  33 H :    0.037517

  Mayer bond orders larger than 0.100000
B(  0-S ,  1-C ) :   1.0962 B(  0-S ,  4-C ) :   1.1295 B(  1-C ,  2-C ) :   1.6818
B(  1-C , 32-H ) :   0.9534 B(  2-C ,  3-C ) :   1.1986 B(  2-C ,  6-C ) :   1.0080
B(  3-C ,  4-C ) :   1.6054 B(  3-C ,  5-H ) :   0.9861 B(  4-C , 20-C ) :   1.1037
B(  6-C ,  7-H ) :   0.9465 B(  6-C ,  8-H ) :   0.9381 B(  6-C ,  9-C ) :   1.0716
B(  9-C , 10-H ) :   0.9600 B(  9-C , 11-H ) :   0.9475 B(  9-C , 12-C ) :   1.0936
B( 12-C , 13-H ) :   0.9742 B( 12-C , 14-H ) :   0.9738 B( 12-C , 15-H ) :   0.9744
B( 16-S , 17-C ) :   1.1492 B( 16-S , 20-C ) :   1.1286 B( 17-C , 18-C ) :   1.6137
B( 17-C , 33-H ) :   0.9629 B( 18-C , 19-C ) :   1.2521 B( 18-C , 21-H ) :   0.9883
B( 19-C , 20-C ) :   1.5745 B( 19-C , 22-C ) :   1.0202 B( 22-C , 23-H ) :   0.9377
B( 22-C , 24-H ) :   0.9253 B( 22-C , 25-C ) :   1.0968 B( 25-C , 26-H ) :   0.9493
B( 25-C , 27-H ) :   0.9509 B( 25-C , 28-C ) :   1.0877 B( 28-C , 29-H ) :   0.9688
B( 28-C , 30-H ) :   0.9732 B( 28-C , 31-H ) :   0.9683

Dispersion correction           -0.013499051
FINAL SINGLE POINT ENERGY     -1339.850866511874

DIPOLE MOMENT
-------------
                                X             Y             Z
Electronic contribution:     12.71658      -6.01659       5.11691
Nuclear contribution   :    -12.76382       6.12637      -5.31254
                        -----------------------------------------
Total Dipole Moment    :     -0.04725       0.10978      -0.19564
                        -----------------------------------------
Magnitude (a.u.)       :      0.22926
Magnitude (Debye)      :      0.58272

Rotational constants in cm-1:     0.025521     0.006716     0.005717
Rotational constants in MHz :   765.091744   201.354890   171.381838

                             ****ORCA TERMINATED NORMALLY****
TOTAL RUN TIME: 0 days 0 hours 0 minutes 20 seconds 753 msec
