                         Program Version 4.2.1 -  RELEASE  -
|  1> ! wB97X-D3 SP def2-SVP
|  2> %pal
|  3> nprocs 24
|  4> end
|  5>
|  6> * xyz 0 1
|  7> S 	 -100.16 	 14.4868 	 -119.585
|  8> C 	 -98.9545 	 14.6459 	 -118.347
|  9> C 	 -99.5044 	 14.894 	 -117.068
| 10> C 	 -100.947 	 14.7426 	 -117.055
| 11> C 	 -101.413 	 14.5311 	 -118.354
| 12> H 	 -101.596 	 14.7282 	 -116.178
| 13> C 	 -98.6764 	 15.0252 	 -115.824
| 14> H 	 -98.3191 	 16.012 	 -115.839
| 15> H 	 -97.7685 	 14.4865 	 -116.02
| 16> C 	 -99.4081 	 14.6829 	 -114.428
| 17> H 	 -100.3 	 15.1816 	 -114.341
| 18> H 	 -99.7358 	 13.6362 	 -114.271
| 19> C 	 -98.4532 	 14.968 	 -113.236
| 20> H 	 -98.763 	 14.5638 	 -112.276
| 21> H 	 -97.5671 	 14.4806 	 -113.507
| 22> H 	 -98.208 	 15.9495 	 -113.038
| 23> S 	 -103.152 	 15.0689 	 -120.339
| 24> C 	 -104.726 	 14.4376 	 -120.33
| 25> C 	 -105.1 	 13.8753 	 -119.17
| 26> C 	 -103.978 	 13.77 	 -118.268
| 27> C 	 -102.82 	 14.3498 	 -118.777
| 28> H 	 -106.121 	 13.4102 	 -119.141
| 29> C 	 -104.195 	 13.1069 	 -116.985
| 30> H 	 -103.157 	 12.7092 	 -116.679
| 31> H 	 -104.856 	 12.276 	 -117.241
| 32> C 	 -104.686 	 13.958 	 -115.767
| 33> H 	 -105.711 	 14.2708 	 -115.763
| 34> H 	 -104.123 	 14.8335 	 -115.586
| 35> C 	 -104.638 	 13.1455 	 -114.506
| 36> H 	 -103.698 	 12.7129 	 -114.315
| 37> H 	 -105.317 	 12.3606 	 -114.516
| 38> H 	 -104.81 	 13.8318 	 -113.636
| 39> H 	 -97.8775 	 14.7508 	 -118.62
| 40> H 	 -105.379 	 14.4546 	 -121.191
| 41> *
| 42>
| 43>                          ****END OF INPUT****

CARTESIAN COORDINATES (ANGSTROEM)
---------------------------------
  S    -100.160000   14.486800  -119.585000
  C    -98.954500   14.645900  -118.347000
  C    -99.504400   14.894000  -117.068000
  C    -100.947000   14.742600  -117.055000
  C    -101.413000   14.531100  -118.354000
  H    -101.596000   14.728200  -116.178000
  C    -98.676400   15.025200  -115.824000
  H    -98.319100   16.012000  -115.839000
  H    -97.768500   14.486500  -116.020000
  C    -99.408100   14.682900  -114.428000
  H    -100.300000   15.181600  -114.341000
  H    -99.735800   13.636200  -114.271000
  C    -98.453200   14.968000  -113.236000
  H    -98.763000   14.563800  -112.276000
  H    -97.567100   14.480600  -113.507000
  H    -98.208000   15.949500  -113.038000
  S    -103.152000   15.068900  -120.339000
  C    -104.726000   14.437600  -120.330000
  C    -105.100000   13.875300  -119.170000
  C    -103.978000   13.770000  -118.268000
  C    -102.820000   14.349800  -118.777000
  H    -106.121000   13.410200  -119.141000
  C    -104.195000   13.106900  -116.985000
  H    -103.157000   12.709200  -116.679000
  H    -104.856000   12.276000  -117.241000
  C    -104.686000   13.958000  -115.767000
  H    -105.711000   14.270800  -115.763000
  H    -104.123000   14.833500  -115.586000
  C    -104.638000   13.145500  -114.506000
  H    -103.698000   12.712900  -114.315000
  H    -105.317000   12.360600  -114.516000
  H    -104.810000   13.831800  -113.636000
  H    -97.877500   14.750800  -118.620000
  H    -105.379000   14.454600  -121.191000

 Total Charge           Charge          ....    0
 Multiplicity           Mult            ....    1
 Number of Electrons    NEL             ....  134
 Basis Dimension        Dim             ....  322

ORBITAL ENERGIES
----------------

  NO   OCC          E(Eh)            E(eV)
   0   2.0000     -88.969034     -2420.9705
   1   2.0000     -88.958755     -2420.6908
   2   2.0000     -10.332907      -281.1727
   3   2.0000     -10.324239      -280.9368
   4   2.0000     -10.315912      -280.7102
   5   2.0000     -10.306413      -280.4518
   6   2.0000     -10.304695      -280.4050
   7   2.0000     -10.299628      -280.2671
   8   2.0000     -10.299270      -280.2574
   9   2.0000     -10.295013      -280.1416
  10   2.0000     -10.293374      -280.0970
  11   2.0000     -10.292268      -280.0669
  12   2.0000     -10.289180      -279.9828
  13   2.0000     -10.281775      -279.7813
  14   2.0000     -10.269479      -279.4467
  15   2.0000     -10.267822      -279.4016
  16   2.0000      -8.083613      -219.9663
  17   2.0000      -8.075082      -219.7342
  18   2.0000      -6.042102      -164.4140
  19   2.0000      -6.038151      -164.3064
  20   2.0000      -6.034412      -164.2047
  21   2.0000      -6.033486      -164.1795
  22   2.0000      -6.029460      -164.0700
  23   2.0000      -6.025767      -163.9695
  24   2.0000      -1.008501       -27.4427
  25   2.0000      -0.983907       -26.7735
  26   2.0000      -0.914348       -24.8807
  27   2.0000      -0.907318       -24.6894
  28   2.0000      -0.867651       -23.6100
  29   2.0000      -0.861771       -23.4500
  30   2.0000      -0.850059       -23.1313
  31   2.0000      -0.818755       -22.2794
  32   2.0000      -0.780140       -21.2287
  33   2.0000      -0.766300       -20.8521
  34   2.0000      -0.724005       -19.7012
  35   2.0000      -0.707554       -19.2535
  36   2.0000      -0.686312       -18.6755
  37   2.0000      -0.661509       -18.0006
  38   2.0000      -0.636142       -17.3103
  39   2.0000      -0.621933       -16.9237
  40   2.0000      -0.593341       -16.1456
  41   2.0000      -0.571724       -15.5574
  42   2.0000      -0.563184       -15.3250
  43   2.0000      -0.560177       -15.2432
  44   2.0000      -0.532213       -14.4823
  45   2.0000      -0.525646       -14.3036
  46   2.0000      -0.515771       -14.0348
  47   2.0000      -0.508012       -13.8237
  48   2.0000      -0.506245       -13.7756
  49   2.0000      -0.502099       -13.6628
  50   2.0000      -0.492780       -13.4092
  51   2.0000      -0.481735       -13.1087
  52   2.0000      -0.466329       -12.6895
  53   2.0000      -0.463449       -12.6111
  54   2.0000      -0.461501       -12.5581
  55   2.0000      -0.451208       -12.2780
  56   2.0000      -0.443603       -12.0710
  57   2.0000      -0.441706       -12.0194
  58   2.0000      -0.438619       -11.9354
  59   2.0000      -0.433070       -11.7844
  60   2.0000      -0.426293       -11.6000
  61   2.0000      -0.418817       -11.3966
  62   2.0000      -0.416544       -11.3347
  63   2.0000      -0.351742        -9.5714
  64   2.0000      -0.330719        -8.9993
  65   2.0000      -0.325735        -8.8637
  66   2.0000      -0.283416        -7.7121
  67   0.0000       0.028127         0.7654
  68   0.0000       0.078476         2.1354
  69   0.0000       0.108114         2.9419
  70   0.0000       0.122777         3.3409
  71   0.0000       0.124440         3.3862

MULLIKEN ATOMIC CHARGES
-----------------------
   0 S :    0.121930
   1 C :   -0.145373
   2 C :   -0.098812
   3 C :   -0.000729
   4 C :   -0.114730
   5 H :    0.015010
   6 C :    0.093246
   7 H :    0.023203
   8 H :    0.020528
   9 C :   -0.069599
  10 H :    0.018203
  11 H :    0.037407
  12 C :   -0.004263
  13 H :    0.025140
  14 H :    0.013705
  15 H :    0.014318
  16 S :    0.086593
  17 C :   -0.081350
  18 C :   -0.052531
  19 C :   -0.042312
  20 C :   -0.129406
  21 H :    0.037729
  22 C :    0.011754
  23 H :    0.031372
  24 H :    0.030058
  25 C :   -0.021726
  26 H :    0.020297
  27 H :    0.018339
  28 C :   -0.021354
  29 H :    0.004776
  30 H :    0.014220
  31 H :    0.031802
  32 H :    0.064398
  33 H :    0.048155
Sum of atomic charges:    0.0000000

LOEWDIN ATOMIC CHARGES
----------------------
   0 S :    0.412729
   1 C :   -0.219908
   2 C :   -0.054371
   3 C :   -0.066683
   4 C :   -0.186869
   5 H :    0.033329
   6 C :   -0.028940
   7 H :    0.031283
   8 H :    0.032316
   9 C :   -0.027536
  10 H :    0.007701
  11 H :    0.032179
  12 C :   -0.054579
  13 H :    0.027044
  14 H :    0.020541
  15 H :    0.013259
  16 S :    0.411411
  17 C :   -0.195320
  18 C :   -0.083767
  19 C :   -0.064080
  20 C :   -0.193906
  21 H :    0.044150
  22 C :   -0.037660
  23 H :    0.039071
  24 H :    0.034594
  25 C :   -0.032974
  26 H :    0.024818
  27 H :    0.018371
  28 C :   -0.055307
  29 H :    0.012275
  30 H :    0.014020
  31 H :    0.032509
  32 H :    0.033435
  33 H :    0.026865

  Mayer bond orders larger than 0.100000
B(  0-S ,  1-C ) :   1.1362 B(  0-S ,  4-C ) :   1.1643 B(  1-C ,  2-C ) :   1.6047
B(  1-C , 32-H ) :   0.9633 B(  2-C ,  3-C ) :   1.2434 B(  2-C ,  6-C ) :   1.0164
B(  3-C ,  4-C ) :   1.5552 B(  3-C ,  5-H ) :   0.9903 B(  4-C , 20-C ) :   1.0336
B(  6-C ,  7-H ) :   0.9222 B(  6-C ,  8-H ) :   0.9417 B(  6-C ,  9-C ) :   1.0558
B(  9-C , 10-H ) :   0.9523 B(  9-C , 11-H ) :   0.9611 B(  9-C , 12-C ) :   1.0793
B( 12-C , 13-H ) :   0.9744 B( 12-C , 14-H ) :   0.9745 B( 12-C , 15-H ) :   0.9781
B( 16-S , 17-C ) :   1.1581 B( 16-S , 20-C ) :   1.1285 B( 17-C , 18-C ) :   1.6481
B( 17-C , 33-H ) :   0.9620 B( 18-C , 19-C ) :   1.2061 B( 18-C , 21-H ) :   0.9823
B( 19-C , 20-C ) :   1.6114 B( 19-C , 22-C ) :   1.0673 B( 22-C , 23-H ) :   0.9340
B( 22-C , 24-H ) :   0.9283 B( 22-C , 25-C ) :   1.0630 B( 25-C , 26-H ) :   0.9494
B( 25-C , 27-H ) :   0.9553 B( 25-C , 28-C ) :   1.0895 B( 28-C , 29-H ) :   0.9717
B( 28-C , 30-H ) :   0.9749 B( 28-C , 31-H ) :   0.9723

Dispersion correction           -0.013773204
FINAL SINGLE POINT ENERGY     -1339.856619301214

DIPOLE MOMENT
-------------
                                X             Y             Z
Electronic contribution:     -0.48345       4.32255     -33.15425
Nuclear contribution   :      0.43789      -4.42730      33.78097
                        -----------------------------------------
Total Dipole Moment    :     -0.04556      -0.10474       0.62672
                        -----------------------------------------
Magnitude (a.u.)       :      0.63704
Magnitude (Debye)      :      1.61924

Rotational constants in cm-1:     0.016818     0.009565     0.006315
Rotational constants in MHz :   504.203604   286.766246   189.321441

                             ****ORCA TERMINATED NORMALLY****
TOTAL RUN TIME: 0 days 0 hours 0 minutes 21 seconds 572 msec
