                         Program Version 4.2.1 -  RELEASE  -
|  1> ! wB97X-D3 SP def2-SVP
|  2> %pal
|  3> nprocs 24
|  4> end
|  5>
|  6> * xyz 0 1
|  7> S 	 38.7273 	 -27.6631 	 -124.048
|  8> C 	 38.536 	 -25.9116 	 -123.809
|  9> C 	 39.5425 	 -25.2157 	 -124.465
| 10> C 	 40.3652 	 -26.09 	 -125.242
| 11> C 	 40.0952 	 -27.4639 	 -125.048
| 12> H 	 41.179 	 -25.8025 	 -125.879
| 13> C 	 39.7487 	 -23.6958 	 -124.61
| 14> H 	 38.833 	 -23.2077 	 -124.298
| 15> H 	 39.7964 	 -23.4378 	 -125.679
| 16> C 	 40.9365 	 -23.1688 	 -123.765
| 17> H 	 40.7749 	 -23.3777 	 -122.72
| 18> H 	 41.8264 	 -23.8007 	 -123.995
| 19> C 	 41.2468 	 -21.6455 	 -123.981
| 20> H 	 42.2424 	 -21.3855 	 -123.6
| 21> H 	 41.2886 	 -21.5617 	 -125.049
| 22> H 	 40.4246 	 -20.9726 	 -123.775
| 23> S 	 40.1696 	 -29.4365 	 -126.82
| 24> C 	 41.6627 	 -30.2614 	 -127.244
| 25> C 	 42.6757 	 -29.7812 	 -126.479
| 26> C 	 42.3256 	 -28.6613 	 -125.644
| 27> C 	 40.9099 	 -28.4536 	 -125.597
| 28> H 	 43.5769 	 -30.2227 	 -126.661
| 29> C 	 43.3004 	 -28.0661 	 -124.671
| 30> H 	 43.557 	 -27.0774 	 -125.107
| 31> H 	 44.1802 	 -28.6611 	 -124.693
| 32> C 	 42.872 	 -27.9421 	 -123.255
| 33> H 	 42.5416 	 -28.944 	 -122.867
| 34> H 	 42.0164 	 -27.2748 	 -123.026
| 35> C 	 44.0529 	 -27.6098 	 -122.239
| 36> H 	 44.9778 	 -28.1008 	 -122.508
| 37> H 	 43.738 	 -27.9257 	 -121.288
| 38> H 	 44.338 	 -26.5597 	 -122.17
| 39> H 	 37.6856 	 -25.4732 	 -123.219
| 40> H 	 41.6853 	 -31.1278 	 -127.94
| 41> *
| 42>
| 43>                          ****END OF INPUT****

CARTESIAN COORDINATES (ANGSTROEM)
---------------------------------
  S     38.727300  -27.663100  -124.048000
  C     38.536000  -25.911600  -123.809000
  C     39.542500  -25.215700  -124.465000
  C     40.365200  -26.090000  -125.242000
  C     40.095200  -27.463900  -125.048000
  H     41.179000  -25.802500  -125.879000
  C     39.748700  -23.695800  -124.610000
  H     38.833000  -23.207700  -124.298000
  H     39.796400  -23.437800  -125.679000
  C     40.936500  -23.168800  -123.765000
  H     40.774900  -23.377700  -122.720000
  H     41.826400  -23.800700  -123.995000
  C     41.246800  -21.645500  -123.981000
  H     42.242400  -21.385500  -123.600000
  H     41.288600  -21.561700  -125.049000
  H     40.424600  -20.972600  -123.775000
  S     40.169600  -29.436500  -126.820000
  C     41.662700  -30.261400  -127.244000
  C     42.675700  -29.781200  -126.479000
  C     42.325600  -28.661300  -125.644000
  C     40.909900  -28.453600  -125.597000
  H     43.576900  -30.222700  -126.661000
  C     43.300400  -28.066100  -124.671000
  H     43.557000  -27.077400  -125.107000
  H     44.180200  -28.661100  -124.693000
  C     42.872000  -27.942100  -123.255000
  H     42.541600  -28.944000  -122.867000
  H     42.016400  -27.274800  -123.026000
  C     44.052900  -27.609800  -122.239000
  H     44.977800  -28.100800  -122.508000
  H     43.738000  -27.925700  -121.288000
  H     44.338000  -26.559700  -122.170000
  H     37.685600  -25.473200  -123.219000
  H     41.685300  -31.127800  -127.940000

 Total Charge           Charge          ....    0
 Multiplicity           Mult            ....    1
 Number of Electrons    NEL             ....  134
 Basis Dimension        Dim             ....  322

ORBITAL ENERGIES
----------------

  NO   OCC          E(Eh)            E(eV)
   0   2.0000     -88.970104     -2420.9996
   1   2.0000     -88.958914     -2420.6951
   2   2.0000     -10.323865      -280.9267
   3   2.0000     -10.323316      -280.9117
   4   2.0000     -10.323056      -280.9046
   5   2.0000     -10.316867      -280.7362
   6   2.0000     -10.308319      -280.5036
   7   2.0000     -10.305695      -280.4322
   8   2.0000     -10.296954      -280.1944
   9   2.0000     -10.291941      -280.0579
  10   2.0000     -10.291811      -280.0544
  11   2.0000     -10.287281      -279.9311
  12   2.0000     -10.286840      -279.9191
  13   2.0000     -10.286344      -279.9057
  14   2.0000     -10.280512      -279.7470
  15   2.0000     -10.272034      -279.5162
  16   2.0000      -8.084795      -219.9985
  17   2.0000      -8.074225      -219.7108
  18   2.0000      -6.043213      -164.4442
  19   2.0000      -6.039221      -164.3355
  20   2.0000      -6.035727      -164.2405
  21   2.0000      -6.032693      -164.1579
  22   2.0000      -6.028404      -164.0412
  23   2.0000      -6.025242      -163.9552
  24   2.0000      -1.009690       -27.4751
  25   2.0000      -0.982465       -26.7342
  26   2.0000      -0.909247       -24.7419
  27   2.0000      -0.908283       -24.7156
  28   2.0000      -0.876550       -23.8521
  29   2.0000      -0.847970       -23.0744
  30   2.0000      -0.842904       -22.9366
  31   2.0000      -0.811594       -22.0846
  32   2.0000      -0.783442       -21.3185
  33   2.0000      -0.770661       -20.9708
  34   2.0000      -0.713235       -19.4081
  35   2.0000      -0.703916       -19.1545
  36   2.0000      -0.690014       -18.7762
  37   2.0000      -0.663016       -18.0416
  38   2.0000      -0.640774       -17.4363
  39   2.0000      -0.618213       -16.8224
  40   2.0000      -0.592835       -16.1319
  41   2.0000      -0.570512       -15.5244
  42   2.0000      -0.563625       -15.3370
  43   2.0000      -0.553432       -15.0596
  44   2.0000      -0.531390       -14.4599
  45   2.0000      -0.527246       -14.3471
  46   2.0000      -0.514944       -14.0123
  47   2.0000      -0.511150       -13.9091
  48   2.0000      -0.503949       -13.7131
  49   2.0000      -0.502205       -13.6657
  50   2.0000      -0.493239       -13.4217
  51   2.0000      -0.486512       -13.2387
  52   2.0000      -0.471315       -12.8251
  53   2.0000      -0.466082       -12.6827
  54   2.0000      -0.456552       -12.4234
  55   2.0000      -0.447935       -12.1889
  56   2.0000      -0.442218       -12.0334
  57   2.0000      -0.439419       -11.9572
  58   2.0000      -0.434024       -11.8104
  59   2.0000      -0.423177       -11.5152
  60   2.0000      -0.416937       -11.3454
  61   2.0000      -0.415162       -11.2971
  62   2.0000      -0.406729       -11.0677
  63   2.0000      -0.342947        -9.3321
  64   2.0000      -0.334452        -9.1009
  65   2.0000      -0.320791        -8.7292
  66   2.0000      -0.294359        -8.0099
  67   0.0000       0.027138         0.7385
  68   0.0000       0.070062         1.9065
  69   0.0000       0.116663         3.1745
  70   0.0000       0.124476         3.3872
  71   0.0000       0.129471         3.5231

MULLIKEN ATOMIC CHARGES
-----------------------
   0 S :    0.126417
   1 C :   -0.156422
   2 C :   -0.070278
   3 C :    0.024187
   4 C :   -0.163652
   5 H :    0.010506
   6 C :    0.059756
   7 H :    0.009635
   8 H :    0.037296
   9 C :   -0.090852
  10 H :    0.028143
  11 H :    0.028826
  12 C :   -0.014110
  13 H :    0.046137
  14 H :    0.008459
  15 H :    0.033466
  16 S :    0.092528
  17 C :   -0.106957
  18 C :   -0.003773
  19 C :   -0.032819
  20 C :   -0.156695
  21 H :   -0.016052
  22 C :    0.120878
  23 H :    0.030610
  24 H :    0.001677
  25 C :   -0.114655
  26 H :    0.031970
  27 H :    0.053530
  28 C :   -0.031294
  29 H :    0.017935
  30 H :    0.023415
  31 H :    0.027456
  32 H :    0.071722
  33 H :    0.073012
Sum of atomic charges:    0.0000000

LOEWDIN ATOMIC CHARGES
----------------------
   0 S :    0.423584
   1 C :   -0.202367
   2 C :   -0.062066
   3 C :   -0.055923
   4 C :   -0.225389
   5 H :    0.027490
   6 C :   -0.030360
   7 H :    0.024845
   8 H :    0.033532
   9 C :   -0.040151
  10 H :    0.021007
  11 H :    0.026091
  12 C :   -0.066857
  13 H :    0.031829
  14 H :    0.021604
  15 H :    0.026536
  16 S :    0.410224
  17 C :   -0.183525
  18 C :   -0.067863
  19 C :   -0.047027
  20 C :   -0.207456
  21 H :    0.017859
  22 C :   -0.037344
  23 H :    0.036601
  24 H :    0.026797
  25 C :   -0.043114
  26 H :    0.029846
  27 H :    0.030415
  28 C :   -0.059533
  29 H :    0.020246
  30 H :    0.019541
  31 H :    0.021795
  32 H :    0.040617
  33 H :    0.038522

  Mayer bond orders larger than 0.100000
B(  0-S ,  1-C ) :   1.1377 B(  0-S ,  4-C ) :   1.1639 B(  1-C ,  2-C ) :   1.5935
B(  1-C , 32-H ) :   0.9641 B(  2-C ,  3-C ) :   1.2539 B(  2-C ,  6-C ) :   1.0201
B(  3-C ,  4-C ) :   1.5315 B(  3-C ,  5-H ) :   0.9992 B(  4-C , 20-C ) :   1.0667
B(  6-C ,  7-H ) :   0.9404 B(  6-C ,  8-H ) :   0.9480 B(  6-C ,  9-C ) :   1.0496
B(  9-C , 10-H ) :   0.9557 B(  9-C , 11-H ) :   0.9606 B(  9-C , 12-C ) :   1.0705
B( 12-C , 13-H ) :   0.9748 B( 12-C , 14-H ) :   0.9725 B( 12-C , 15-H ) :   0.9749
B( 16-S , 17-C ) :   1.1608 B( 16-S , 20-C ) :   1.1592 B( 17-C , 18-C ) :   1.6040
B( 17-C , 20-C ) :   0.1062 B( 17-C , 33-H ) :   0.9619 B( 18-C , 19-C ) :   1.2373
B( 18-C , 21-H ) :   1.0053 B( 19-C , 20-C ) :   1.5354 B( 19-C , 22-C ) :   1.0529
B( 22-C , 23-H ) :   0.9094 B( 22-C , 24-H ) :   0.9351 B( 22-C , 25-C ) :   1.0816
B( 25-C , 26-H ) :   0.9588 B( 25-C , 27-H ) :   0.9475 B( 25-C , 28-C ) :   1.0753
B( 28-C , 29-H ) :   0.9757 B( 28-C , 30-H ) :   0.9788 B( 28-C , 31-H ) :   0.9773

Dispersion correction           -0.014775324
FINAL SINGLE POINT ENERGY     -1339.870829869363

DIPOLE MOMENT
-------------
                                X             Y             Z
Electronic contribution:    -17.36934     -21.47834     -12.16770
Nuclear contribution   :     17.83217      21.86699      12.22043
                        -----------------------------------------
Total Dipole Moment    :      0.46284       0.38865       0.05273
                        -----------------------------------------
Magnitude (a.u.)       :      0.60667
Magnitude (Debye)      :      1.54203

Rotational constants in cm-1:     0.017890     0.008968     0.007310
Rotational constants in MHz :   536.317826   268.867368   219.140346

                             ****ORCA TERMINATED NORMALLY****
TOTAL RUN TIME: 0 days 0 hours 0 minutes 20 seconds 918 msec
