                         Program Version 4.2.1 -  RELEASE  -
|  1> ! wB97X-D3 SP def2-SVP
|  2> %pal
|  3> nprocs 24
|  4> end
|  5>
|  6> * xyz 0 1
|  7> S 	 -54.0138 	 17.4936 	 -99.7952
|  8> C 	 -55.1195 	 18.3171 	 -100.911
|  9> C 	 -56.438 	 18.3282 	 -100.361
| 10> C 	 -56.4856 	 17.8041 	 -99.0532
| 11> C 	 -55.2362 	 17.4273 	 -98.5334
| 12> H 	 -57.362 	 17.7487 	 -98.4324
| 13> C 	 -57.6562 	 18.9507 	 -100.969
| 14> H 	 -57.4534 	 19.0183 	 -102.058
| 15> H 	 -57.5976 	 20.0061 	 -100.598
| 16> C 	 -59.0063 	 18.2271 	 -100.592
| 17> H 	 -58.9107 	 17.1497 	 -100.774
| 18> H 	 -59.3367 	 18.512 	 -99.5808
| 19> C 	 -60.1207 	 18.7388 	 -101.503
| 20> H 	 -61.0843 	 18.331 	 -101.284
| 21> H 	 -60.453 	 19.7447 	 -101.303
| 22> H 	 -59.9908 	 18.5512 	 -102.617
| 23> S 	 -53.9667 	 15.3072 	 -97.1828
| 24> C 	 -53.9814 	 15.4294 	 -95.447
| 25> C 	 -54.5793 	 16.5724 	 -94.9759
| 26> C 	 -55.2002 	 17.3688 	 -95.9694
| 27> C 	 -54.8428 	 16.8613 	 -97.2395
| 28> H 	 -54.512 	 16.7272 	 -93.9324
| 29> C 	 -55.6466 	 18.7404 	 -95.6599
| 30> H 	 -55.9272 	 19.2943 	 -96.6022
| 31> H 	 -54.8378 	 19.2227 	 -95.1372
| 32> C 	 -56.8167 	 18.7592 	 -94.6734
| 33> H 	 -56.5803 	 18.2587 	 -93.6585
| 34> H 	 -57.52 	 17.9273 	 -95.0572
| 35> C 	 -57.5384 	 20.0502 	 -94.5189
| 36> H 	 -58.2831 	 20.2801 	 -95.3284
| 37> H 	 -56.9219 	 20.9334 	 -94.3377
| 38> H 	 -58.1625 	 19.9692 	 -93.6314
| 39> H 	 -54.8949 	 18.6374 	 -101.909
| 40> H 	 -53.3603 	 14.8096 	 -94.8879
| 41> *
| 42>
| 43>                          ****END OF INPUT****

CARTESIAN COORDINATES (ANGSTROEM)
---------------------------------
  S    -54.013800   17.493600  -99.795200
  C    -55.119500   18.317100  -100.911000
  C    -56.438000   18.328200  -100.361000
  C    -56.485600   17.804100  -99.053200
  C    -55.236200   17.427300  -98.533400
  H    -57.362000   17.748700  -98.432400
  C    -57.656200   18.950700  -100.969000
  H    -57.453400   19.018300  -102.058000
  H    -57.597600   20.006100  -100.598000
  C    -59.006300   18.227100  -100.592000
  H    -58.910700   17.149700  -100.774000
  H    -59.336700   18.512000  -99.580800
  C    -60.120700   18.738800  -101.503000
  H    -61.084300   18.331000  -101.284000
  H    -60.453000   19.744700  -101.303000
  H    -59.990800   18.551200  -102.617000
  S    -53.966700   15.307200  -97.182800
  C    -53.981400   15.429400  -95.447000
  C    -54.579300   16.572400  -94.975900
  C    -55.200200   17.368800  -95.969400
  C    -54.842800   16.861300  -97.239500
  H    -54.512000   16.727200  -93.932400
  C    -55.646600   18.740400  -95.659900
  H    -55.927200   19.294300  -96.602200
  H    -54.837800   19.222700  -95.137200
  C    -56.816700   18.759200  -94.673400
  H    -56.580300   18.258700  -93.658500
  H    -57.520000   17.927300  -95.057200
  C    -57.538400   20.050200  -94.518900
  H    -58.283100   20.280100  -95.328400
  H    -56.921900   20.933400  -94.337700
  H    -58.162500   19.969200  -93.631400
  H    -54.894900   18.637400  -101.909000
  H    -53.360300   14.809600  -94.887900

 Total Charge           Charge          ....    0
 Multiplicity           Mult            ....    1
 Number of Electrons    NEL             ....  134
 Basis Dimension        Dim             ....  322

ORBITAL ENERGIES
----------------

  NO   OCC          E(Eh)            E(eV)
   0   2.0000     -88.967541     -2420.9299
   1   2.0000     -88.964926     -2420.8587
   2   2.0000     -10.330628      -281.1107
   3   2.0000     -10.329666      -281.0845
   4   2.0000     -10.315294      -280.6934
   5   2.0000     -10.309886      -280.5463
   6   2.0000     -10.302091      -280.3341
   7   2.0000     -10.301048      -280.3058
   8   2.0000     -10.298829      -280.2454
   9   2.0000     -10.298088      -280.2252
  10   2.0000     -10.295394      -280.1519
  11   2.0000     -10.291318      -280.0410
  12   2.0000     -10.290634      -280.0224
  13   2.0000     -10.289396      -279.9887
  14   2.0000     -10.280848      -279.7561
  15   2.0000     -10.278677      -279.6970
  16   2.0000      -8.082036      -219.9234
  17   2.0000      -8.078871      -219.8373
  18   2.0000      -6.040448      -164.3690
  19   2.0000      -6.037362      -164.2850
  20   2.0000      -6.036734      -164.2679
  21   2.0000      -6.033377      -164.1765
  22   2.0000      -6.032757      -164.1597
  23   2.0000      -6.029840      -164.0803
  24   2.0000      -1.001451       -27.2509
  25   2.0000      -0.978712       -26.6321
  26   2.0000      -0.914875       -24.8950
  27   2.0000      -0.909048       -24.7365
  28   2.0000      -0.865509       -23.5517
  29   2.0000      -0.857304       -23.3284
  30   2.0000      -0.845157       -22.9979
  31   2.0000      -0.812593       -22.1118
  32   2.0000      -0.785071       -21.3629
  33   2.0000      -0.767540       -20.8858
  34   2.0000      -0.711706       -19.3665
  35   2.0000      -0.693285       -18.8653
  36   2.0000      -0.692774       -18.8513
  37   2.0000      -0.655918       -17.8484
  38   2.0000      -0.637107       -17.3366
  39   2.0000      -0.619895       -16.8682
  40   2.0000      -0.601661       -16.3720
  41   2.0000      -0.574057       -15.6209
  42   2.0000      -0.565949       -15.4003
  43   2.0000      -0.555296       -15.1104
  44   2.0000      -0.526273       -14.3206
  45   2.0000      -0.522388       -14.2149
  46   2.0000      -0.513968       -13.9858
  47   2.0000      -0.509022       -13.8512
  48   2.0000      -0.503953       -13.7133
  49   2.0000      -0.499901       -13.6030
  50   2.0000      -0.492357       -13.3977
  51   2.0000      -0.479634       -13.0515
  52   2.0000      -0.469643       -12.7796
  53   2.0000      -0.464753       -12.6466
  54   2.0000      -0.457427       -12.4472
  55   2.0000      -0.450996       -12.2722
  56   2.0000      -0.445551       -12.1241
  57   2.0000      -0.436886       -11.8883
  58   2.0000      -0.434667       -11.8279
  59   2.0000      -0.426907       -11.6167
  60   2.0000      -0.424510       -11.5515
  61   2.0000      -0.414201       -11.2710
  62   2.0000      -0.402227       -10.9452
  63   2.0000      -0.341258        -9.2861
  64   2.0000      -0.332661        -9.0522
  65   2.0000      -0.327354        -8.9077
  66   2.0000      -0.284024        -7.7287
  67   0.0000       0.024926         0.6783
  68   0.0000       0.066533         1.8105
  69   0.0000       0.107664         2.9297
  70   0.0000       0.117587         3.1997
  71   0.0000       0.124707         3.3935

MULLIKEN ATOMIC CHARGES
-----------------------
   0 S :    0.100371
   1 C :   -0.112975
   2 C :   -0.105096
   3 C :    0.036794
   4 C :   -0.168247
   5 H :    0.005932
   6 C :    0.037476
   7 H :    0.025002
   8 H :    0.055430
   9 C :   -0.075952
  10 H :    0.053548
  11 H :    0.043811
  12 C :   -0.050581
  13 H :    0.010610
  14 H :    0.017823
  15 H :    0.045123
  16 S :    0.110772
  17 C :   -0.071515
  18 C :   -0.026146
  19 C :   -0.006416
  20 C :   -0.145894
  21 H :    0.007423
  22 C :    0.079181
  23 H :    0.043721
  24 H :    0.036234
  25 C :   -0.175662
  26 H :    0.039155
  27 H :    0.032331
  28 C :   -0.013589
  29 H :    0.039721
  30 H :    0.033454
  31 H :    0.024616
  32 H :    0.038991
  33 H :    0.034552
Sum of atomic charges:   -0.0000000

LOEWDIN ATOMIC CHARGES
----------------------
   0 S :    0.398397
   1 C :   -0.202795
   2 C :   -0.063580
   3 C :   -0.067709
   4 C :   -0.186155
   5 H :    0.028637
   6 C :   -0.038091
   7 H :    0.031458
   8 H :    0.044048
   9 C :   -0.036179
  10 H :    0.033588
  11 H :    0.031306
  12 C :   -0.078677
  13 H :    0.021666
  14 H :    0.023702
  15 H :    0.032314
  16 S :    0.394737
  17 C :   -0.174967
  18 C :   -0.059962
  19 C :   -0.055404
  20 C :   -0.189187
  21 H :    0.026171
  22 C :   -0.033077
  23 H :    0.038884
  24 H :    0.033633
  25 C :   -0.062406
  26 H :    0.029389
  27 H :    0.030187
  28 C :   -0.074303
  29 H :    0.032431
  30 H :    0.026327
  31 H :    0.029671
  32 H :    0.022701
  33 H :    0.013245

  Mayer bond orders larger than 0.100000
B(  0-S ,  1-C ) :   1.1397 B(  0-S ,  4-C ) :   1.1648 B(  1-C ,  2-C ) :   1.5695
B(  1-C ,  4-C ) :   0.1130 B(  1-C , 32-H ) :   0.9738 B(  2-C ,  3-C ) :   1.2653
B(  2-C ,  6-C ) :   1.0220 B(  3-C ,  4-C ) :   1.5326 B(  3-C ,  5-H ) :   0.9965
B(  4-C , 20-C ) :   1.0421 B(  6-C ,  7-H ) :   0.9455 B(  6-C ,  8-H ) :   0.9330
B(  6-C ,  9-C ) :   1.0588 B(  9-C , 10-H ) :   0.9629 B(  9-C , 11-H ) :   0.9428
B(  9-C , 12-C ) :   1.0962 B( 12-C , 13-H ) :   0.9671 B( 12-C , 14-H ) :   0.9684
B( 12-C , 15-H ) :   0.9743 B( 16-S , 17-C ) :   1.1425 B( 16-S , 20-C ) :   1.1453
B( 17-C , 18-C ) :   1.6376 B( 17-C , 33-H ) :   0.9704 B( 18-C , 19-C ) :   1.2056
B( 18-C , 21-H ) :   0.9945 B( 19-C , 20-C ) :   1.5702 B( 19-C , 22-C ) :   1.0703
B( 22-C , 23-H ) :   0.9361 B( 22-C , 24-H ) :   0.9320 B( 22-C , 25-C ) :   1.0343
B( 25-C , 26-H ) :   0.9547 B( 25-C , 27-H ) :   0.9550 B( 25-C , 28-C ) :   1.0887
B( 28-C , 29-H ) :   0.9712 B( 28-C , 30-H ) :   0.9697 B( 28-C , 31-H ) :   0.9683

Dispersion correction           -0.013668042
FINAL SINGLE POINT ENERGY     -1339.867270577229

DIPOLE MOMENT
-------------
                                X             Y             Z
Electronic contribution:     26.39279     -16.59546      -3.07974
Nuclear contribution   :    -26.93373      17.00924       3.34824
                        -----------------------------------------
Total Dipole Moment    :     -0.54093       0.41378       0.26850
                        -----------------------------------------
Magnitude (a.u.)       :      0.73206
Magnitude (Debye)      :      1.86076

Rotational constants in cm-1:     0.016111     0.008965     0.006526
Rotational constants in MHz :   483.007934   268.766914   195.637649

                             ****ORCA TERMINATED NORMALLY****
TOTAL RUN TIME: 0 days 0 hours 0 minutes 22 seconds 438 msec
