                         Program Version 4.2.1 -  RELEASE  -
|  1> ! wB97X-D3 SP def2-SVP
|  2> %pal
|  3> nprocs 24
|  4> end
|  5>
|  6> * xyz 0 1
|  7> S 	 -114.525 	 35.1345 	 -115.782
|  8> C 	 -114.319 	 33.5673 	 -116.624
|  9> C 	 -113.621 	 32.7544 	 -115.749
| 10> C 	 -112.911 	 33.4187 	 -114.718
| 11> C 	 -113.363 	 34.6993 	 -114.592
| 12> H 	 -112.266 	 32.9782 	 -113.935
| 13> C 	 -113.408 	 31.29 	 -115.922
| 14> H 	 -112.322 	 31.026 	 -115.931
| 15> H 	 -113.753 	 31.0317 	 -116.924
| 16> C 	 -114.182 	 30.5108 	 -114.884
| 17> H 	 -114.095 	 31.0286 	 -113.966
| 18> H 	 -115.245 	 30.4677 	 -115.096
| 19> C 	 -113.537 	 29.1033 	 -114.914
| 20> H 	 -113.458 	 28.803 	 -115.948
| 21> H 	 -112.524 	 29.199 	 -114.559
| 22> H 	 -114.182 	 28.4454 	 -114.369
| 23> S 	 -111.109 	 35.7462 	 -113.411
| 24> C 	 -111.219 	 37.023 	 -112.225
| 25> C 	 -112.558 	 37.4213 	 -112.056
| 26> C 	 -113.48 	 36.625 	 -112.8
| 27> C 	 -112.852 	 35.7202 	 -113.674
| 28> H 	 -112.805 	 38.0894 	 -111.194
| 29> C 	 -114.913 	 36.7743 	 -112.589
| 30> H 	 -115.361 	 36.3167 	 -113.477
| 31> H 	 -115.276 	 37.7384 	 -112.506
| 32> C 	 -115.469 	 35.9446 	 -111.431
| 33> H 	 -115.155 	 36.3592 	 -110.475
| 34> H 	 -115.033 	 34.938 	 -111.419
| 35> C 	 -117.025 	 35.7155 	 -111.549
| 36> H 	 -117.425 	 35.186 	 -110.643
| 37> H 	 -117.229 	 35.1662 	 -112.426
| 38> H 	 -117.649 	 36.6627 	 -111.487
| 39> H 	 -114.776 	 33.2278 	 -117.565
| 40> H 	 -110.472 	 37.4283 	 -111.593
| 41> *
| 42>
| 43>                          ****END OF INPUT****

CARTESIAN COORDINATES (ANGSTROEM)
---------------------------------
  S    -114.525000   35.134500  -115.782000
  C    -114.319000   33.567300  -116.624000
  C    -113.621000   32.754400  -115.749000
  C    -112.911000   33.418700  -114.718000
  C    -113.363000   34.699300  -114.592000
  H    -112.266000   32.978200  -113.935000
  C    -113.408000   31.290000  -115.922000
  H    -112.322000   31.026000  -115.931000
  H    -113.753000   31.031700  -116.924000
  C    -114.182000   30.510800  -114.884000
  H    -114.095000   31.028600  -113.966000
  H    -115.245000   30.467700  -115.096000
  C    -113.537000   29.103300  -114.914000
  H    -113.458000   28.803000  -115.948000
  H    -112.524000   29.199000  -114.559000
  H    -114.182000   28.445400  -114.369000
  S    -111.109000   35.746200  -113.411000
  C    -111.219000   37.023000  -112.225000
  C    -112.558000   37.421300  -112.056000
  C    -113.480000   36.625000  -112.800000
  C    -112.852000   35.720200  -113.674000
  H    -112.805000   38.089400  -111.194000
  C    -114.913000   36.774300  -112.589000
  H    -115.361000   36.316700  -113.477000
  H    -115.276000   37.738400  -112.506000
  C    -115.469000   35.944600  -111.431000
  H    -115.155000   36.359200  -110.475000
  H    -115.033000   34.938000  -111.419000
  C    -117.025000   35.715500  -111.549000
  H    -117.425000   35.186000  -110.643000
  H    -117.229000   35.166200  -112.426000
  H    -117.649000   36.662700  -111.487000
  H    -114.776000   33.227800  -117.565000
  H    -110.472000   37.428300  -111.593000

 Total Charge           Charge          ....    0
 Multiplicity           Mult            ....    1
 Number of Electrons    NEL             ....  134
 Basis Dimension        Dim             ....  322

ORBITAL ENERGIES
----------------

  NO   OCC          E(Eh)            E(eV)
   0   2.0000     -88.969152     -2420.9737
   1   2.0000     -88.966760     -2420.9086
   2   2.0000     -10.329730      -281.0862
   3   2.0000     -10.328856      -281.0625
   4   2.0000     -10.318298      -280.7752
   5   2.0000     -10.316760      -280.7333
   6   2.0000     -10.301169      -280.3091
   7   2.0000     -10.298400      -280.2337
   8   2.0000     -10.296208      -280.1741
   9   2.0000     -10.293060      -280.0884
  10   2.0000     -10.286884      -279.9204
  11   2.0000     -10.285907      -279.8937
  12   2.0000     -10.282529      -279.8019
  13   2.0000     -10.279953      -279.7317
  14   2.0000     -10.278089      -279.6810
  15   2.0000     -10.274871      -279.5934
  16   2.0000      -8.083098      -219.9523
  17   2.0000      -8.081121      -219.8985
  18   2.0000      -6.041652      -164.4017
  19   2.0000      -6.039726      -164.3493
  20   2.0000      -6.037584      -164.2910
  21   2.0000      -6.035760      -164.2414
  22   2.0000      -6.034002      -164.1935
  23   2.0000      -6.031704      -164.1310
  24   2.0000      -1.010050       -27.4849
  25   2.0000      -0.984785       -26.7974
  26   2.0000      -0.921080       -25.0639
  27   2.0000      -0.912108       -24.8197
  28   2.0000      -0.869242       -23.6533
  29   2.0000      -0.851175       -23.1617
  30   2.0000      -0.843507       -22.9530
  31   2.0000      -0.813324       -22.1317
  32   2.0000      -0.780158       -21.2292
  33   2.0000      -0.767532       -20.8856
  34   2.0000      -0.709926       -19.3181
  35   2.0000      -0.703274       -19.1370
  36   2.0000      -0.693924       -18.8826
  37   2.0000      -0.667323       -18.1588
  38   2.0000      -0.636269       -17.3138
  39   2.0000      -0.620349       -16.8806
  40   2.0000      -0.597586       -16.2611
  41   2.0000      -0.573064       -15.5939
  42   2.0000      -0.569529       -15.4977
  43   2.0000      -0.562762       -15.3135
  44   2.0000      -0.527468       -14.3531
  45   2.0000      -0.524829       -14.2813
  46   2.0000      -0.516256       -14.0480
  47   2.0000      -0.511115       -13.9081
  48   2.0000      -0.507440       -13.8081
  49   2.0000      -0.504495       -13.7280
  50   2.0000      -0.491504       -13.3745
  51   2.0000      -0.476526       -12.9669
  52   2.0000      -0.469905       -12.7868
  53   2.0000      -0.466285       -12.6883
  54   2.0000      -0.459994       -12.5171
  55   2.0000      -0.452291       -12.3075
  56   2.0000      -0.448167       -12.1952
  57   2.0000      -0.439452       -11.9581
  58   2.0000      -0.427302       -11.6275
  59   2.0000      -0.425365       -11.5748
  60   2.0000      -0.421867       -11.4796
  61   2.0000      -0.418570       -11.3899
  62   2.0000      -0.405194       -11.0259
  63   2.0000      -0.347944        -9.4680
  64   2.0000      -0.331381        -9.0173
  65   2.0000      -0.330207        -8.9854
  66   2.0000      -0.287424        -7.8212
  67   0.0000       0.025734         0.7002
  68   0.0000       0.072555         1.9743
  69   0.0000       0.099335         2.7031
  70   0.0000       0.121355         3.3022
  71   0.0000       0.125671         3.4197

MULLIKEN ATOMIC CHARGES
-----------------------
   0 S :    0.102890
   1 C :   -0.130508
   2 C :   -0.090444
   3 C :   -0.013859
   4 C :   -0.117744
   5 H :    0.036476
   6 C :    0.032509
   7 H :    0.036752
   8 H :    0.005351
   9 C :   -0.062651
  10 H :    0.022225
  11 H :    0.028240
  12 C :   -0.007858
  13 H :    0.023930
  14 H :    0.031414
  15 H :    0.031207
  16 S :    0.111995
  17 C :   -0.084234
  18 C :   -0.049608
  19 C :   -0.053539
  20 C :   -0.137090
  21 H :    0.038766
  22 C :    0.122130
  23 H :   -0.005868
  24 H :    0.011978
  25 C :   -0.076276
  26 H :    0.018789
  27 H :    0.029384
  28 C :   -0.071782
  29 H :    0.037099
  30 H :    0.041044
  31 H :    0.034476
  32 H :    0.058577
  33 H :    0.046230
Sum of atomic charges:   -0.0000000

LOEWDIN ATOMIC CHARGES
----------------------
   0 S :    0.407440
   1 C :   -0.196408
   2 C :   -0.059644
   3 C :   -0.078223
   4 C :   -0.191790
   5 H :    0.039725
   6 C :   -0.035890
   7 H :    0.033643
   8 H :    0.024369
   9 C :   -0.032142
  10 H :    0.016197
  11 H :    0.025584
  12 C :   -0.051907
  13 H :    0.023947
  14 H :    0.024575
  15 H :    0.020950
  16 S :    0.415637
  17 C :   -0.187835
  18 C :   -0.075594
  19 C :   -0.057623
  20 C :   -0.197390
  21 H :    0.039267
  22 C :   -0.032970
  23 H :    0.021643
  24 H :    0.022397
  25 C :   -0.033457
  26 H :    0.017277
  27 H :    0.026950
  28 C :   -0.069815
  29 H :    0.031154
  30 H :    0.019523
  31 H :    0.028848
  32 H :    0.036272
  33 H :    0.025288

  Mayer bond orders larger than 0.100000
B(  0-S ,  1-C ) :   1.1085 B(  0-S ,  4-C ) :   1.1606 B(  1-C ,  2-C ) :   1.6218
B(  1-C , 32-H ) :   0.9683 B(  2-C ,  3-C ) :   1.2152 B(  2-C ,  6-C ) :   1.0353
B(  3-C ,  4-C ) :   1.5783 B(  3-C ,  5-H ) :   0.9859 B(  4-C , 20-C ) :   1.0271
B(  6-C ,  7-H ) :   0.9522 B(  6-C ,  8-H ) :   0.9280 B(  6-C ,  9-C ) :   1.0508
B(  9-C , 10-H ) :   0.9643 B(  9-C , 11-H ) :   0.9492 B(  9-C , 12-C ) :   1.0729
B( 12-C , 13-H ) :   0.9709 B( 12-C , 14-H ) :   0.9780 B( 12-C , 15-H ) :   0.9736
B( 16-S , 17-C ) :   1.1620 B( 16-S , 20-C ) :   1.1396 B( 17-C , 18-C ) :   1.5950
B( 17-C , 20-C ) :   0.1022 B( 17-C , 33-H ) :   0.9695 B( 18-C , 19-C ) :   1.2639
B( 18-C , 21-H ) :   0.9782 B( 19-C , 20-C ) :   1.5539 B( 19-C , 22-C ) :   1.0728
B( 22-C , 23-H ) :   0.9172 B( 22-C , 24-H ) :   0.9294 B( 22-C , 25-C ) :   1.0555
B( 25-C , 26-H ) :   0.9565 B( 25-C , 27-H ) :   0.9553 B( 25-C , 28-C ) :   1.0762
B( 28-C , 29-H ) :   0.9751 B( 28-C , 30-H ) :   0.9770 B( 28-C , 31-H ) :   0.9754

Dispersion correction           -0.014069722
FINAL SINGLE POINT ENERGY     -1339.869007147886

DIPOLE MOMENT
-------------
                                X             Y             Z
Electronic contribution:     13.60418      16.45251      -7.82673
Nuclear contribution   :    -13.81893     -16.86027       8.15757
                        -----------------------------------------
Total Dipole Moment    :     -0.21475      -0.40776       0.33085
                        -----------------------------------------
Magnitude (a.u.)       :      0.56731
Magnitude (Debye)      :      1.44199

Rotational constants in cm-1:     0.018160     0.008396     0.007293
Rotational constants in MHz :   544.409529   251.692824   218.653096

                             ****ORCA TERMINATED NORMALLY****
TOTAL RUN TIME: 0 days 0 hours 0 minutes 20 seconds 393 msec
