                         Program Version 4.2.1 -  RELEASE  -
|  1> ! wB97X-D3 SP def2-SVP
|  2> %pal
|  3> nprocs 24
|  4> end
|  5>
|  6> * xyz 0 1
|  7> S 	 -52.8497 	 14.9548 	 -98.7914
|  8> C 	 -54.1186 	 16.1873 	 -98.4056
|  9> C 	 -53.5129 	 17.4531 	 -98.5129
| 10> C 	 -52.2948 	 17.4476 	 -99.3698
| 11> C 	 -51.857 	 16.1408 	 -99.6212
| 12> H 	 -51.7566 	 18.3117 	 -99.7413
| 13> C 	 -54.1443 	 18.7861 	 -98.1023
| 14> H 	 -55.1524 	 18.7347 	 -98.4156
| 15> H 	 -53.7008 	 19.5609 	 -98.7154
| 16> C 	 -53.966 	 19.1464 	 -96.6482
| 17> H 	 -52.9192 	 19.3384 	 -96.4112
| 18> H 	 -54.2904 	 20.1986 	 -96.5327
| 19> C 	 -54.5495 	 18.1074 	 -95.6181
| 20> H 	 -55.64 	 17.9748 	 -95.8656
| 21> H 	 -54.0842 	 17.063 	 -95.5728
| 22> H 	 -54.3252 	 18.444 	 -94.6168
| 23> S 	 -49.5085 	 14.7303 	 -99.2732
| 24> C 	 -48.4414 	 14.5757 	 -100.545
| 25> C 	 -48.7597 	 15.4461 	 -101.628
| 26> C 	 -49.971 	 16.1919 	 -101.401
| 27> C 	 -50.596 	 15.8023 	 -100.167
| 28> H 	 -48.1135 	 15.4285 	 -102.497
| 29> C 	 -50.7145 	 16.8799 	 -102.458
| 30> H 	 -51.6396 	 17.2975 	 -102.087
| 31> H 	 -51.0986 	 16.1279 	 -103.123
| 32> C 	 -50.0124 	 18.0609 	 -103.11
| 33> H 	 -50.725 	 18.7193 	 -103.628
| 34> H 	 -49.3648 	 17.6839 	 -103.859
| 35> C 	 -49.1988 	 18.8996 	 -102.028
| 36> H 	 -48.86 	 19.8607 	 -102.446
| 37> H 	 -48.3584 	 18.4095 	 -101.585
| 38> H 	 -49.8757 	 19.3422 	 -101.278
| 39> H 	 -55.1099 	 15.971 	 -97.995
| 40> H 	 -47.5586 	 13.9613 	 -100.613
| 41> *
| 42>
| 43>                          ****END OF INPUT****

CARTESIAN COORDINATES (ANGSTROEM)
---------------------------------
  S    -52.849700   14.954800  -98.791400
  C    -54.118600   16.187300  -98.405600
  C    -53.512900   17.453100  -98.512900
  C    -52.294800   17.447600  -99.369800
  C    -51.857000   16.140800  -99.621200
  H    -51.756600   18.311700  -99.741300
  C    -54.144300   18.786100  -98.102300
  H    -55.152400   18.734700  -98.415600
  H    -53.700800   19.560900  -98.715400
  C    -53.966000   19.146400  -96.648200
  H    -52.919200   19.338400  -96.411200
  H    -54.290400   20.198600  -96.532700
  C    -54.549500   18.107400  -95.618100
  H    -55.640000   17.974800  -95.865600
  H    -54.084200   17.063000  -95.572800
  H    -54.325200   18.444000  -94.616800
  S    -49.508500   14.730300  -99.273200
  C    -48.441400   14.575700  -100.545000
  C    -48.759700   15.446100  -101.628000
  C    -49.971000   16.191900  -101.401000
  C    -50.596000   15.802300  -100.167000
  H    -48.113500   15.428500  -102.497000
  C    -50.714500   16.879900  -102.458000
  H    -51.639600   17.297500  -102.087000
  H    -51.098600   16.127900  -103.123000
  C    -50.012400   18.060900  -103.110000
  H    -50.725000   18.719300  -103.628000
  H    -49.364800   17.683900  -103.859000
  C    -49.198800   18.899600  -102.028000
  H    -48.860000   19.860700  -102.446000
  H    -48.358400   18.409500  -101.585000
  H    -49.875700   19.342200  -101.278000
  H    -55.109900   15.971000  -97.995000
  H    -47.558600   13.961300  -100.613000

 Total Charge           Charge          ....    0
 Multiplicity           Mult            ....    1
 Number of Electrons    NEL             ....  134
 Basis Dimension        Dim             ....  322

ORBITAL ENERGIES
----------------

  NO   OCC          E(Eh)            E(eV)
   0   2.0000     -88.967098     -2420.9178
   1   2.0000     -88.965334     -2420.8698
   2   2.0000     -10.329644      -281.0839
   3   2.0000     -10.325142      -280.9614
   4   2.0000     -10.323657      -280.9210
   5   2.0000     -10.312527      -280.6181
   6   2.0000     -10.311332      -280.5856
   7   2.0000     -10.304088      -280.3885
   8   2.0000     -10.301114      -280.3076
   9   2.0000     -10.294977      -280.1406
  10   2.0000     -10.290740      -280.0253
  11   2.0000     -10.288454      -279.9631
  12   2.0000     -10.287949      -279.9493
  13   2.0000     -10.286756      -279.9169
  14   2.0000     -10.278948      -279.7044
  15   2.0000     -10.278430      -279.6903
  16   2.0000      -8.082649      -219.9401
  17   2.0000      -8.079029      -219.8416
  18   2.0000      -6.040983      -164.3835
  19   2.0000      -6.037782      -164.2964
  20   2.0000      -6.036816      -164.2701
  21   2.0000      -6.033806      -164.1882
  22   2.0000      -6.033783      -164.1876
  23   2.0000      -6.029445      -164.0695
  24   2.0000      -1.003491       -27.3064
  25   2.0000      -0.975235       -26.5375
  26   2.0000      -0.913498       -24.8575
  27   2.0000      -0.910477       -24.7753
  28   2.0000      -0.865603       -23.5543
  29   2.0000      -0.843801       -22.9610
  30   2.0000      -0.835427       -22.7331
  31   2.0000      -0.805390       -21.9158
  32   2.0000      -0.784738       -21.3538
  33   2.0000      -0.774634       -21.0789
  34   2.0000      -0.713292       -19.4097
  35   2.0000      -0.700856       -19.0713
  36   2.0000      -0.696044       -18.9403
  37   2.0000      -0.650907       -17.7121
  38   2.0000      -0.636479       -17.3195
  39   2.0000      -0.615308       -16.7434
  40   2.0000      -0.595319       -16.1994
  41   2.0000      -0.562205       -15.2984
  42   2.0000      -0.557353       -15.1664
  43   2.0000      -0.550907       -14.9910
  44   2.0000      -0.543243       -14.7824
  45   2.0000      -0.536047       -14.5866
  46   2.0000      -0.520260       -14.1570
  47   2.0000      -0.510278       -13.8854
  48   2.0000      -0.507151       -13.8003
  49   2.0000      -0.489710       -13.3257
  50   2.0000      -0.485441       -13.2095
  51   2.0000      -0.479856       -13.0575
  52   2.0000      -0.465936       -12.6788
  53   2.0000      -0.460001       -12.5173
  54   2.0000      -0.453962       -12.3529
  55   2.0000      -0.451528       -12.2867
  56   2.0000      -0.443523       -12.0689
  57   2.0000      -0.441738       -12.0203
  58   2.0000      -0.436012       -11.8645
  59   2.0000      -0.426574       -11.6077
  60   2.0000      -0.417481       -11.3602
  61   2.0000      -0.406152       -11.0520
  62   2.0000      -0.401755       -10.9323
  63   2.0000      -0.347263        -9.4495
  64   2.0000      -0.327665        -8.9162
  65   2.0000      -0.324190        -8.8216
  66   2.0000      -0.279775        -7.6131
  67   0.0000       0.022404         0.6096
  68   0.0000       0.063702         1.7334
  69   0.0000       0.110907         3.0179
  70   0.0000       0.113567         3.0903
  71   0.0000       0.118040         3.2120

MULLIKEN ATOMIC CHARGES
-----------------------
   0 S :    0.092834
   1 C :   -0.121845
   2 C :   -0.106477
   3 C :    0.034187
   4 C :   -0.144797
   5 H :    0.017892
   6 C :    0.077144
   7 H :    0.023865
   8 H :    0.012778
   9 C :   -0.055240
  10 H :    0.018572
  11 H :    0.028521
  12 C :   -0.083817
  13 H :    0.041377
  14 H :    0.055188
  15 H :    0.035237
  16 S :    0.134031
  17 C :   -0.093366
  18 C :   -0.058278
  19 C :   -0.022697
  20 C :   -0.166474
  21 H :    0.019667
  22 C :    0.069897
  23 H :    0.006795
  24 H :    0.038788
  25 C :   -0.059480
  26 H :    0.030607
  27 H :    0.022567
  28 C :   -0.063696
  29 H :    0.022248
  30 H :    0.052083
  31 H :    0.024053
  32 H :    0.063125
  33 H :    0.054711
Sum of atomic charges:   -0.0000000

LOEWDIN ATOMIC CHARGES
----------------------
   0 S :    0.376571
   1 C :   -0.184980
   2 C :   -0.047198
   3 C :   -0.057048
   4 C :   -0.192927
   5 H :    0.030096
   6 C :   -0.033655
   7 H :    0.025947
   8 H :    0.030119
   9 C :   -0.046039
  10 H :    0.024340
  11 H :    0.029665
  12 C :   -0.076950
  13 H :    0.027883
  14 H :    0.037488
  15 H :    0.025153
  16 S :    0.440261
  17 C :   -0.217783
  18 C :   -0.074803
  19 C :   -0.050539
  20 C :   -0.199424
  21 H :    0.029239
  22 C :   -0.041435
  23 H :    0.028009
  24 H :    0.036231
  25 C :   -0.032230
  26 H :    0.027890
  27 H :    0.015052
  28 C :   -0.069254
  29 H :    0.026729
  30 H :    0.025192
  31 H :    0.025409
  32 H :    0.032734
  33 H :    0.030256

  Mayer bond orders larger than 0.100000
B(  0-S ,  1-C ) :   1.1073 B(  0-S ,  4-C ) :   1.1341 B(  1-C ,  2-C ) :   1.6131
B(  1-C , 32-H ) :   0.9731 B(  2-C ,  3-C ) :   1.2151 B(  2-C ,  6-C ) :   1.0183
B(  3-C ,  4-C ) :   1.5544 B(  3-C ,  5-H ) :   0.9887 B(  4-C , 20-C ) :   1.1029
B(  6-C ,  7-H ) :   0.9463 B(  6-C ,  8-H ) :   0.9391 B(  6-C ,  9-C ) :   1.0796
B(  9-C , 10-H ) :   0.9499 B(  9-C , 11-H ) :   0.9532 B(  9-C , 12-C ) :   1.0631
B( 12-C , 13-H ) :   0.9778 B( 12-C , 14-H ) :   0.9698 B( 12-C , 15-H ) :   0.9737
B( 16-S , 17-C ) :   1.1859 B( 16-S , 20-C ) :   1.1531 B( 17-C , 18-C ) :   1.5694
B( 17-C , 20-C ) :   0.1029 B( 17-C , 33-H ) :   0.9681 B( 18-C , 19-C ) :   1.2555
B( 18-C , 21-H ) :   0.9936 B( 19-C , 20-C ) :   1.5192 B( 19-C , 22-C ) :   1.0733
B( 22-C , 23-H ) :   0.9241 B( 22-C , 24-H ) :   0.9373 B( 22-C , 25-C ) :   1.0544
B( 25-C , 26-H ) :   0.9605 B( 25-C , 27-H ) :   0.9567 B( 25-C , 28-C ) :   1.0811
B( 28-C , 29-H ) :   0.9706 B( 28-C , 30-H ) :   0.9693 B( 28-C , 31-H ) :   0.9740

Dispersion correction           -0.015066656
FINAL SINGLE POINT ENERGY     -1339.853172183893

DIPOLE MOMENT
-------------
                                X             Y             Z
Electronic contribution:      5.24714     -22.23417       1.62248
Nuclear contribution   :     -5.33453      22.81295      -1.78360
                        -----------------------------------------
Total Dipole Moment    :     -0.08739       0.57878      -0.16112
                        -----------------------------------------
Magnitude (a.u.)       :      0.60711
Magnitude (Debye)      :      1.54315

Rotational constants in cm-1:     0.021343     0.008324     0.006830
Rotational constants in MHz :   639.848072   249.535123   204.769723

                             ****ORCA TERMINATED NORMALLY****
TOTAL RUN TIME: 0 days 0 hours 0 minutes 20 seconds 704 msec
