                         Program Version 4.2.1 -  RELEASE  -
|  1> ! wB97X-D3 SP def2-SVP
|  2> %pal
|  3> nprocs 24
|  4> end
|  5>
|  6> * xyz 0 1
|  7> S 	 -140.862 	 6.89088 	 -7.04106
|  8> C 	 -139.365 	 7.25591 	 -7.92596
|  9> C 	 -138.78 	 8.42009 	 -7.47683
| 10> C 	 -139.65 	 9.05271 	 -6.51224
| 11> C 	 -140.865 	 8.4287 	 -6.27691
| 12> H 	 -139.365 	 9.90837 	 -5.91695
| 13> C 	 -137.383 	 8.94272 	 -7.80399
| 14> H 	 -137.016 	 8.26739 	 -8.57556
| 15> H 	 -136.684 	 8.75201 	 -7.05857
| 16> C 	 -137.205 	 10.3503 	 -8.22313
| 17> H 	 -137.601 	 10.5106 	 -9.1935
| 18> H 	 -137.77 	 11.0341 	 -7.60183
| 19> C 	 -135.619 	 10.6633 	 -8.2563
| 20> H 	 -135.628 	 11.6905 	 -8.49589
| 21> H 	 -135.136 	 10.4631 	 -7.38855
| 22> H 	 -135.214 	 10.1632 	 -9.14415
| 23> S 	 -142.517 	 7.62351 	 -4.10739
| 24> C 	 -143.628 	 8.78256 	 -3.44835
| 25> C 	 -143.533 	 10.0364 	 -4.09428
| 26> C 	 -142.512 	 10.0229 	 -5.10729
| 27> C 	 -141.992 	 8.77076 	 -5.38317
| 28> H 	 -144.149 	 10.9065 	 -3.83486
| 29> C 	 -142.28 	 11.2588 	 -5.88066
| 30> H 	 -143.06 	 11.3882 	 -6.56769
| 31> H 	 -141.435 	 11.037 	 -6.53131
| 32> C 	 -142.076 	 12.5488 	 -5.18238
| 33> H 	 -141.15 	 12.4154 	 -4.64558
| 34> H 	 -142.869 	 12.8261 	 -4.44301
| 35> C 	 -142.02 	 13.7936 	 -6.11662
| 36> H 	 -141.858 	 14.7686 	 -5.57452
| 37> H 	 -143.086 	 13.9325 	 -6.47734
| 38> H 	 -141.286 	 13.6924 	 -6.88059
| 39> H 	 -138.864 	 6.63621 	 -8.6171
| 40> H 	 -144.09 	 8.77815 	 -2.48728
| 41> *
| 42>
| 43>                          ****END OF INPUT****

CARTESIAN COORDINATES (ANGSTROEM)
---------------------------------
  S    -140.862000    6.890880   -7.041060
  C    -139.365000    7.255910   -7.925960
  C    -138.780000    8.420090   -7.476830
  C    -139.650000    9.052710   -6.512240
  C    -140.865000    8.428700   -6.276910
  H    -139.365000    9.908370   -5.916950
  C    -137.383000    8.942720   -7.803990
  H    -137.016000    8.267390   -8.575560
  H    -136.684000    8.752010   -7.058570
  C    -137.205000   10.350300   -8.223130
  H    -137.601000   10.510600   -9.193500
  H    -137.770000   11.034100   -7.601830
  C    -135.619000   10.663300   -8.256300
  H    -135.628000   11.690500   -8.495890
  H    -135.136000   10.463100   -7.388550
  H    -135.214000   10.163200   -9.144150
  S    -142.517000    7.623510   -4.107390
  C    -143.628000    8.782560   -3.448350
  C    -143.533000   10.036400   -4.094280
  C    -142.512000   10.022900   -5.107290
  C    -141.992000    8.770760   -5.383170
  H    -144.149000   10.906500   -3.834860
  C    -142.280000   11.258800   -5.880660
  H    -143.060000   11.388200   -6.567690
  H    -141.435000   11.037000   -6.531310
  C    -142.076000   12.548800   -5.182380
  H    -141.150000   12.415400   -4.645580
  H    -142.869000   12.826100   -4.443010
  C    -142.020000   13.793600   -6.116620
  H    -141.858000   14.768600   -5.574520
  H    -143.086000   13.932500   -6.477340
  H    -141.286000   13.692400   -6.880590
  H    -138.864000    6.636210   -8.617100
  H    -144.090000    8.778150   -2.487280

 Total Charge           Charge          ....    0
 Multiplicity           Mult            ....    1
 Number of Electrons    NEL             ....  134
 Basis Dimension        Dim             ....  322

ORBITAL ENERGIES
----------------

  NO   OCC          E(Eh)            E(eV)
   0   2.0000     -88.970453     -2421.0091
   1   2.0000     -88.964670     -2420.8517
   2   2.0000     -10.331867      -281.1444
   3   2.0000     -10.331328      -281.1297
   4   2.0000     -10.319923      -280.8194
   5   2.0000     -10.312300      -280.6119
   6   2.0000     -10.302750      -280.3521
   7   2.0000     -10.302611      -280.3483
   8   2.0000     -10.298277      -280.2304
   9   2.0000     -10.293643      -280.1043
  10   2.0000     -10.287460      -279.9360
  11   2.0000     -10.287160      -279.9278
  12   2.0000     -10.285125      -279.8725
  13   2.0000     -10.284839      -279.8647
  14   2.0000     -10.277361      -279.6612
  15   2.0000     -10.275700      -279.6160
  16   2.0000      -8.084418      -219.9882
  17   2.0000      -8.079699      -219.8598
  18   2.0000      -6.043041      -164.4395
  19   2.0000      -6.039032      -164.3304
  20   2.0000      -6.038230      -164.3086
  21   2.0000      -6.035086      -164.2231
  22   2.0000      -6.034260      -164.2006
  23   2.0000      -6.030321      -164.0934
  24   2.0000      -1.005381       -27.3578
  25   2.0000      -0.982925       -26.7468
  26   2.0000      -0.918743       -25.0003
  27   2.0000      -0.917108       -24.9558
  28   2.0000      -0.869132       -23.6503
  29   2.0000      -0.852719       -23.2037
  30   2.0000      -0.839925       -22.8555
  31   2.0000      -0.813130       -22.1264
  32   2.0000      -0.787985       -21.4422
  33   2.0000      -0.777207       -21.1489
  34   2.0000      -0.715156       -19.4604
  35   2.0000      -0.701343       -19.0845
  36   2.0000      -0.697933       -18.9917
  37   2.0000      -0.657777       -17.8990
  38   2.0000      -0.645517       -17.5654
  39   2.0000      -0.620524       -16.8853
  40   2.0000      -0.599845       -16.3226
  41   2.0000      -0.577582       -15.7168
  42   2.0000      -0.575106       -15.6494
  43   2.0000      -0.563871       -15.3437
  44   2.0000      -0.529922       -14.4199
  45   2.0000      -0.529168       -14.3994
  46   2.0000      -0.518195       -14.1008
  47   2.0000      -0.513269       -13.9668
  48   2.0000      -0.504412       -13.7258
  49   2.0000      -0.500154       -13.6099
  50   2.0000      -0.489759       -13.3270
  51   2.0000      -0.483374       -13.1533
  52   2.0000      -0.471063       -12.8183
  53   2.0000      -0.464072       -12.6280
  54   2.0000      -0.459639       -12.5074
  55   2.0000      -0.457793       -12.4572
  56   2.0000      -0.453812       -12.3489
  57   2.0000      -0.443968       -12.0810
  58   2.0000      -0.427356       -11.6290
  59   2.0000      -0.422560       -11.4984
  60   2.0000      -0.420594       -11.4449
  61   2.0000      -0.414844       -11.2885
  62   2.0000      -0.413191       -11.2435
  63   2.0000      -0.350509        -9.5378
  64   2.0000      -0.330215        -8.9856
  65   2.0000      -0.328183        -8.9303
  66   2.0000      -0.289954        -7.8900
  67   0.0000       0.027019         0.7352
  68   0.0000       0.064984         1.7683
  69   0.0000       0.106366         2.8944
  70   0.0000       0.117343         3.1931
  71   0.0000       0.124810         3.3963

MULLIKEN ATOMIC CHARGES
-----------------------
   0 S :    0.099993
   1 C :   -0.095688
   2 C :   -0.089960
   3 C :    0.021683
   4 C :   -0.175041
   5 H :    0.013160
   6 C :    0.112494
   7 H :   -0.000732
   8 H :    0.014885
   9 C :   -0.092637
  10 H :    0.018837
  11 H :    0.024917
  12 C :   -0.013994
  13 H :    0.023045
  14 H :    0.026176
  15 H :    0.036499
  16 S :    0.107790
  17 C :   -0.071887
  18 C :   -0.056681
  19 C :   -0.050397
  20 C :   -0.092981
  21 H :    0.033194
  22 C :    0.100399
  23 H :    0.014460
  24 H :    0.002370
  25 C :   -0.096893
  26 H :    0.022779
  27 H :    0.032305
  28 C :   -0.065154
  29 H :    0.041151
  30 H :    0.036964
  31 H :    0.034878
  32 H :    0.024761
  33 H :    0.059306
Sum of atomic charges:    0.0000000

LOEWDIN ATOMIC CHARGES
----------------------
   0 S :    0.408198
   1 C :   -0.183461
   2 C :   -0.056966
   3 C :   -0.071178
   4 C :   -0.197748
   5 H :    0.026448
   6 C :   -0.034225
   7 H :    0.031153
   8 H :    0.025025
   9 C :   -0.029303
  10 H :    0.020002
  11 H :    0.018460
  12 C :   -0.043243
  13 H :    0.023861
  14 H :    0.009162
  15 H :    0.031229
  16 S :    0.400493
  17 C :   -0.187769
  18 C :   -0.068262
  19 C :   -0.048938
  20 C :   -0.194572
  21 H :    0.034574
  22 C :   -0.039662
  23 H :    0.027402
  24 H :    0.030693
  25 C :   -0.042815
  26 H :    0.019932
  27 H :    0.025749
  28 C :   -0.065821
  29 H :    0.032887
  30 H :    0.032274
  31 H :    0.017633
  32 H :    0.018903
  33 H :    0.029887

  Mayer bond orders larger than 0.100000
B(  0-S ,  1-C ) :   1.1294 B(  0-S ,  4-C ) :   1.1589 B(  1-C ,  2-C ) :   1.6323
B(  1-C , 32-H ) :   0.9699 B(  2-C ,  3-C ) :   1.2366 B(  2-C ,  6-C ) :   1.0134
B(  3-C ,  4-C ) :   1.5755 B(  3-C ,  5-H ) :   0.9877 B(  4-C , 20-C ) :   1.0184
B(  6-C ,  7-H ) :   0.9277 B(  6-C ,  8-H ) :   0.9396 B(  6-C ,  9-C ) :   1.0629
B(  9-C , 10-H ) :   0.9532 B(  9-C , 11-H ) :   0.9614 B(  9-C , 12-C ) :   1.0721
B( 12-C , 13-H ) :   0.9748 B( 12-C , 14-H ) :   0.9813 B( 12-C , 15-H ) :   0.9773
B( 16-S , 17-C ) :   1.1674 B( 16-S , 20-C ) :   1.1168 B( 17-C , 18-C ) :   1.5949
B( 17-C , 33-H ) :   0.9639 B( 18-C , 19-C ) :   1.2426 B( 18-C , 21-H ) :   0.9853
B( 19-C , 20-C ) :   1.5992 B( 19-C , 22-C ) :   1.0592 B( 22-C , 23-H ) :   0.9262
B( 22-C , 24-H ) :   0.9195 B( 22-C , 25-C ) :   1.0592 B( 25-C , 26-H ) :   0.9546
B( 25-C , 27-H ) :   0.9534 B( 25-C , 28-C ) :   1.0823 B( 28-C , 29-H ) :   0.9748
B( 28-C , 30-H ) :   0.9737 B( 28-C , 31-H ) :   0.9777

Dispersion correction           -0.013392898
FINAL SINGLE POINT ENERGY     -1339.854928305570

DIPOLE MOMENT
-------------
                                X             Y             Z
Electronic contribution:    -15.77747     -27.54601       8.84969
Nuclear contribution   :     16.20882      28.27365      -8.83515
                        -----------------------------------------
Total Dipole Moment    :      0.43135       0.72764       0.01455
                        -----------------------------------------
Magnitude (a.u.)       :      0.84601
Magnitude (Debye)      :      2.15039

Rotational constants in cm-1:     0.016226     0.008942     0.006178
Rotational constants in MHz :   486.449166   268.080454   185.200413

                             ****ORCA TERMINATED NORMALLY****
TOTAL RUN TIME: 0 days 0 hours 0 minutes 21 seconds 189 msec
