                         Program Version 4.2.1 -  RELEASE  -
|  1> ! wB97X-D3 SP def2-SVP
|  2> %pal
|  3> nprocs 24
|  4> end
|  5>
|  6> * xyz 0 1
|  7> S 	 -107.586 	 52.2161 	 -111.247
|  8> C 	 -106.571 	 53.5655 	 -110.951
|  9> C 	 -106.742 	 54.0806 	 -109.746
| 10> C 	 -107.762 	 53.373 	 -109.022
| 11> C 	 -108.386 	 52.3385 	 -109.704
| 12> H 	 -108.237 	 53.6207 	 -108.061
| 13> C 	 -106.05 	 55.2854 	 -109.117
| 14> H 	 -106.587 	 55.5374 	 -108.192
| 15> H 	 -106.242 	 56.0496 	 -109.886
| 16> C 	 -104.492 	 55.1162 	 -108.789
| 17> H 	 -104.02 	 54.7755 	 -109.732
| 18> H 	 -104.146 	 56.1092 	 -108.642
| 19> C 	 -104.14 	 54.1399 	 -107.677
| 20> H 	 -103.047 	 54.2386 	 -107.28
| 21> H 	 -104.887 	 54.382 	 -106.911
| 22> H 	 -104.312 	 53.0786 	 -108.052
| 23> S 	 -109.584 	 51.0018 	 -107.559
| 24> C 	 -111.28 	 50.439 	 -107.729
| 25> C 	 -111.571 	 50.3452 	 -109.023
| 26> C 	 -110.622 	 50.9031 	 -109.908
| 27> C 	 -109.443 	 51.4204 	 -109.272
| 28> H 	 -112.519 	 50.0263 	 -109.382
| 29> C 	 -110.878 	 50.9363 	 -111.377
| 30> H 	 -111.459 	 50.1256 	 -111.638
| 31> H 	 -109.877 	 50.7712 	 -111.831
| 32> C 	 -111.438 	 52.2626 	 -112.046
| 33> H 	 -111.927 	 52.0338 	 -112.983
| 34> H 	 -110.689 	 52.8689 	 -112.447
| 35> C 	 -112.319 	 53.0831 	 -111.095
| 36> H 	 -111.736 	 53.2447 	 -110.15
| 37> H 	 -113.203 	 52.3976 	 -110.863
| 38> H 	 -112.609 	 53.9628 	 -111.625
| 39> H 	 -105.845 	 53.9713 	 -111.628
| 40> H 	 -112.021 	 50.2308 	 -107.019
| 41> *
| 42>
| 43>                          ****END OF INPUT****

CARTESIAN COORDINATES (ANGSTROEM)
---------------------------------
  S    -107.586000   52.216100  -111.247000
  C    -106.571000   53.565500  -110.951000
  C    -106.742000   54.080600  -109.746000
  C    -107.762000   53.373000  -109.022000
  C    -108.386000   52.338500  -109.704000
  H    -108.237000   53.620700  -108.061000
  C    -106.050000   55.285400  -109.117000
  H    -106.587000   55.537400  -108.192000
  H    -106.242000   56.049600  -109.886000
  C    -104.492000   55.116200  -108.789000
  H    -104.020000   54.775500  -109.732000
  H    -104.146000   56.109200  -108.642000
  C    -104.140000   54.139900  -107.677000
  H    -103.047000   54.238600  -107.280000
  H    -104.887000   54.382000  -106.911000
  H    -104.312000   53.078600  -108.052000
  S    -109.584000   51.001800  -107.559000
  C    -111.280000   50.439000  -107.729000
  C    -111.571000   50.345200  -109.023000
  C    -110.622000   50.903100  -109.908000
  C    -109.443000   51.420400  -109.272000
  H    -112.519000   50.026300  -109.382000
  C    -110.878000   50.936300  -111.377000
  H    -111.459000   50.125600  -111.638000
  H    -109.877000   50.771200  -111.831000
  C    -111.438000   52.262600  -112.046000
  H    -111.927000   52.033800  -112.983000
  H    -110.689000   52.868900  -112.447000
  C    -112.319000   53.083100  -111.095000
  H    -111.736000   53.244700  -110.150000
  H    -113.203000   52.397600  -110.863000
  H    -112.609000   53.962800  -111.625000
  H    -105.845000   53.971300  -111.628000
  H    -112.021000   50.230800  -107.019000

 Total Charge           Charge          ....    0
 Multiplicity           Mult            ....    1
 Number of Electrons    NEL             ....  134
 Basis Dimension        Dim             ....  322

ORBITAL ENERGIES
----------------

  NO   OCC          E(Eh)            E(eV)
   0   2.0000     -88.967031     -2420.9160
   1   2.0000     -88.965207     -2420.8663
   2   2.0000     -10.336390      -281.2675
   3   2.0000     -10.333634      -281.1925
   4   2.0000     -10.314849      -280.6813
   5   2.0000     -10.306783      -280.4618
   6   2.0000     -10.304874      -280.4099
   7   2.0000     -10.299899      -280.2745
   8   2.0000     -10.296241      -280.1750
   9   2.0000     -10.295138      -280.1450
  10   2.0000     -10.290878      -280.0290
  11   2.0000     -10.290349      -280.0146
  12   2.0000     -10.286612      -279.9129
  13   2.0000     -10.283772      -279.8357
  14   2.0000     -10.276896      -279.6486
  15   2.0000     -10.276117      -279.6274
  16   2.0000      -8.080500      -219.8816
  17   2.0000      -8.080487      -219.8812
  18   2.0000      -6.039245      -164.3362
  19   2.0000      -6.039005      -164.3297
  20   2.0000      -6.035151      -164.2248
  21   2.0000      -6.034896      -164.2179
  22   2.0000      -6.031226      -164.1180
  23   2.0000      -6.031092      -164.1144
  24   2.0000      -1.011225       -27.5168
  25   2.0000      -0.989267       -26.9193
  26   2.0000      -0.907936       -24.7062
  27   2.0000      -0.902523       -24.5589
  28   2.0000      -0.876768       -23.8581
  29   2.0000      -0.849580       -23.1182
  30   2.0000      -0.841152       -22.8889
  31   2.0000      -0.821885       -22.3646
  32   2.0000      -0.780700       -21.2439
  33   2.0000      -0.769921       -20.9506
  34   2.0000      -0.714583       -19.4448
  35   2.0000      -0.700510       -19.0619
  36   2.0000      -0.691242       -18.8097
  37   2.0000      -0.666287       -18.1306
  38   2.0000      -0.640524       -17.4295
  39   2.0000      -0.607973       -16.5438
  40   2.0000      -0.586757       -15.9665
  41   2.0000      -0.579140       -15.7592
  42   2.0000      -0.553835       -15.0706
  43   2.0000      -0.551757       -15.0141
  44   2.0000      -0.549998       -14.9662
  45   2.0000      -0.543099       -14.7785
  46   2.0000      -0.515661       -14.0319
  47   2.0000      -0.510988       -13.9047
  48   2.0000      -0.504919       -13.7395
  49   2.0000      -0.498200       -13.5567
  50   2.0000      -0.480274       -13.0689
  51   2.0000      -0.478364       -13.0170
  52   2.0000      -0.474703       -12.9173
  53   2.0000      -0.467357       -12.7174
  54   2.0000      -0.463314       -12.6074
  55   2.0000      -0.446175       -12.1410
  56   2.0000      -0.443029       -12.0554
  57   2.0000      -0.435663       -11.8550
  58   2.0000      -0.427415       -11.6306
  59   2.0000      -0.418233       -11.3807
  60   2.0000      -0.416146       -11.3239
  61   2.0000      -0.415629       -11.3098
  62   2.0000      -0.403485       -10.9794
  63   2.0000      -0.358762        -9.7624
  64   2.0000      -0.332734        -9.0542
  65   2.0000      -0.330131        -8.9833
  66   2.0000      -0.287936        -7.8351
  67   0.0000       0.016154         0.4396
  68   0.0000       0.085278         2.3205
  69   0.0000       0.108460         2.9514
  70   0.0000       0.121218         3.2985
  71   0.0000       0.132037         3.5929

MULLIKEN ATOMIC CHARGES
-----------------------
   0 S :    0.096388
   1 C :   -0.113173
   2 C :   -0.073514
   3 C :   -0.009888
   4 C :   -0.138872
   5 H :    0.018658
   6 C :    0.039811
   7 H :    0.027949
   8 H :    0.042677
   9 C :   -0.055525
  10 H :    0.021171
  11 H :    0.026332
  12 C :   -0.086651
  13 H :    0.062522
  14 H :    0.032944
  15 H :    0.059524
  16 S :    0.090431
  17 C :   -0.060755
  18 C :    0.003623
  19 C :   -0.109118
  20 C :   -0.117617
  21 H :    0.004200
  22 C :    0.087858
  23 H :    0.004937
  24 H :    0.030494
  25 C :   -0.048180
  26 H :    0.014177
  27 H :    0.004292
  28 C :   -0.057205
  29 H :    0.063244
  30 H :    0.030840
  31 H :    0.036032
  32 H :    0.036230
  33 H :    0.036166
Sum of atomic charges:   -0.0000000

LOEWDIN ATOMIC CHARGES
----------------------
   0 S :    0.424472
   1 C :   -0.200084
   2 C :   -0.075085
   3 C :   -0.071031
   4 C :   -0.196024
   5 H :    0.029484
   6 C :   -0.027260
   7 H :    0.028919
   8 H :    0.038269
   9 C :   -0.040308
  10 H :    0.021097
  11 H :    0.018012
  12 C :   -0.078074
  13 H :    0.041599
  14 H :    0.024795
  15 H :    0.037940
  16 S :    0.385797
  17 C :   -0.159852
  18 C :   -0.068393
  19 C :   -0.055801
  20 C :   -0.192656
  21 H :    0.027405
  22 C :   -0.033226
  23 H :    0.019641
  24 H :    0.031047
  25 C :   -0.038555
  26 H :    0.021881
  27 H :    0.010593
  28 C :   -0.065354
  29 H :    0.035445
  30 H :    0.028251
  31 H :    0.021601
  32 H :    0.028770
  33 H :    0.026685

  Mayer bond orders larger than 0.100000
B(  0-S ,  1-C ) :   1.1382 B(  0-S ,  4-C ) :   1.1454 B(  1-C ,  2-C ) :   1.6455
B(  1-C , 32-H ) :   0.9652 B(  2-C ,  3-C ) :   1.2323 B(  2-C ,  6-C ) :   0.9976
B(  3-C ,  4-C ) :   1.5887 B(  3-C ,  5-H ) :   0.9853 B(  4-C , 20-C ) :   1.0610
B(  6-C ,  7-H ) :   0.9457 B(  6-C ,  8-H ) :   0.9417 B(  6-C ,  9-C ) :   1.0676
B(  9-C , 10-H ) :   0.9584 B(  9-C , 11-H ) :   0.9585 B(  9-C , 12-C ) :   1.0582
B( 12-C , 13-H ) :   0.9720 B( 12-C , 14-H ) :   0.9770 B( 12-C , 15-H ) :   0.9741
B( 16-S , 17-C ) :   1.1348 B( 16-S , 20-C ) :   1.1270 B( 17-C , 18-C ) :   1.6108
B( 17-C , 33-H ) :   0.9697 B( 18-C , 19-C ) :   1.2713 B( 18-C , 21-H ) :   0.9867
B( 19-C , 20-C ) :   1.5316 B( 19-C , 22-C ) :   1.0551 B( 22-C , 23-H ) :   0.9304
B( 22-C , 24-H ) :   0.9368 B( 22-C , 25-C ) :   1.0423 B( 25-C , 26-H ) :   0.9547
B( 25-C , 27-H ) :   0.9522 B( 25-C , 28-C ) :   1.0932 B( 28-C , 29-H ) :   0.9634
B( 28-C , 30-H ) :   0.9779 B( 28-C , 31-H ) :   0.9736

Dispersion correction           -0.015206571
FINAL SINGLE POINT ENERGY     -1339.858651026072

DIPOLE MOMENT
-------------
                                X             Y             Z
Electronic contribution:     -2.35637     -12.45934       2.92916
Nuclear contribution   :      2.22982      12.85856      -3.07358
                        -----------------------------------------
Total Dipole Moment    :     -0.12655       0.39922      -0.14442
                        -----------------------------------------
Magnitude (a.u.)       :      0.44300
Magnitude (Debye)      :      1.12601

Rotational constants in cm-1:     0.022957     0.008214     0.006830
Rotational constants in MHz :   688.247676   246.246103   204.758700

                             ****ORCA TERMINATED NORMALLY****
TOTAL RUN TIME: 0 days 0 hours 0 minutes 21 seconds 810 msec
