                         Program Version 4.2.1 -  RELEASE  -
|  1> ! wB97X-D3 SP def2-SVP
|  2> %pal
|  3> nprocs 24
|  4> end
|  5>
|  6> * xyz 0 1
|  7> S 	 -119.707 	 24.9893 	 -12.4363
|  8> C 	 -118.946 	 23.8573 	 -13.4964
|  9> C 	 -117.566 	 23.7636 	 -13.3648
| 10> C 	 -117.114 	 24.4588 	 -12.1609
| 11> C 	 -118.186 	 25.1476 	 -11.5797
| 12> H 	 -116.101 	 24.6445 	 -11.82
| 13> C 	 -116.727 	 22.8936 	 -14.2807
| 14> H 	 -116.828 	 23.4027 	 -15.2548
| 15> H 	 -117.103 	 21.8054 	 -14.4199
| 16> C 	 -115.283 	 22.8612 	 -13.9126
| 17> H 	 -114.898 	 23.8938 	 -13.8473
| 18> H 	 -115.138 	 22.1719 	 -13.0689
| 19> C 	 -114.512 	 22.2098 	 -15.0795
| 20> H 	 -113.46 	 22.3275 	 -14.8579
| 21> H 	 -114.735 	 21.0864 	 -15.1392
| 22> H 	 -114.672 	 22.7219 	 -16.0262
| 23> S 	 -118.409 	 25.0915 	 -8.7241
| 24> C 	 -118.089 	 26.5986 	 -7.94813
| 25> C 	 -117.459 	 27.5087 	 -8.75493
| 26> C 	 -117.549 	 27.1588 	 -10.1604
| 27> C 	 -118.076 	 25.921 	 -10.337
| 28> H 	 -117.055 	 28.4442 	 -8.31961
| 29> C 	 -117.048 	 28.1569 	 -11.1556
| 30> H 	 -116.417 	 27.6454 	 -11.8715
| 31> H 	 -116.382 	 28.8338 	 -10.6745
| 32> C 	 -118.204 	 28.7515 	 -12.0066
| 33> H 	 -119.015 	 29.1711 	 -11.4267
| 34> H 	 -118.634 	 27.8494 	 -12.5618
| 35> C 	 -117.769 	 29.794 	 -13.0348
| 36> H 	 -116.919 	 29.3952 	 -13.6036
| 37> H 	 -117.449 	 30.5965 	 -12.3408
| 38> H 	 -118.519 	 30.2959 	 -13.6268
| 39> H 	 -119.55 	 23.3668 	 -14.2222
| 40> H 	 -118.28 	 26.8608 	 -6.97469
| 41> *
| 42>
| 43>                          ****END OF INPUT****

CARTESIAN COORDINATES (ANGSTROEM)
---------------------------------
  S    -119.707000   24.989300  -12.436300
  C    -118.946000   23.857300  -13.496400
  C    -117.566000   23.763600  -13.364800
  C    -117.114000   24.458800  -12.160900
  C    -118.186000   25.147600  -11.579700
  H    -116.101000   24.644500  -11.820000
  C    -116.727000   22.893600  -14.280700
  H    -116.828000   23.402700  -15.254800
  H    -117.103000   21.805400  -14.419900
  C    -115.283000   22.861200  -13.912600
  H    -114.898000   23.893800  -13.847300
  H    -115.138000   22.171900  -13.068900
  C    -114.512000   22.209800  -15.079500
  H    -113.460000   22.327500  -14.857900
  H    -114.735000   21.086400  -15.139200
  H    -114.672000   22.721900  -16.026200
  S    -118.409000   25.091500   -8.724100
  C    -118.089000   26.598600   -7.948130
  C    -117.459000   27.508700   -8.754930
  C    -117.549000   27.158800  -10.160400
  C    -118.076000   25.921000  -10.337000
  H    -117.055000   28.444200   -8.319610
  C    -117.048000   28.156900  -11.155600
  H    -116.417000   27.645400  -11.871500
  H    -116.382000   28.833800  -10.674500
  C    -118.204000   28.751500  -12.006600
  H    -119.015000   29.171100  -11.426700
  H    -118.634000   27.849400  -12.561800
  C    -117.769000   29.794000  -13.034800
  H    -116.919000   29.395200  -13.603600
  H    -117.449000   30.596500  -12.340800
  H    -118.519000   30.295900  -13.626800
  H    -119.550000   23.366800  -14.222200
  H    -118.280000   26.860800   -6.974690

 Total Charge           Charge          ....    0
 Multiplicity           Mult            ....    1
 Number of Electrons    NEL             ....  134
 Basis Dimension        Dim             ....  322

ORBITAL ENERGIES
----------------

  NO   OCC          E(Eh)            E(eV)
   0   2.0000     -88.967497     -2420.9287
   1   2.0000     -88.961136     -2420.7556
   2   2.0000     -10.326755      -281.0053
   3   2.0000     -10.322713      -280.8953
   4   2.0000     -10.308278      -280.5025
   5   2.0000     -10.306662      -280.4585
   6   2.0000     -10.303976      -280.3854
   7   2.0000     -10.300845      -280.3002
   8   2.0000     -10.299889      -280.2742
   9   2.0000     -10.296206      -280.1740
  10   2.0000     -10.289990      -280.0049
  11   2.0000     -10.288525      -279.9650
  12   2.0000     -10.287969      -279.9499
  13   2.0000     -10.286771      -279.9173
  14   2.0000     -10.282236      -279.7939
  15   2.0000     -10.276209      -279.6299
  16   2.0000      -8.082279      -219.9300
  17   2.0000      -8.075227      -219.7381
  18   2.0000      -6.040560      -164.3720
  19   2.0000      -6.036826      -164.2704
  20   2.0000      -6.033870      -164.1899
  21   2.0000      -6.033238      -164.1727
  22   2.0000      -6.030143      -164.0885
  23   2.0000      -6.025579      -163.9643
  24   2.0000      -1.000009       -27.2116
  25   2.0000      -0.979658       -26.6579
  26   2.0000      -0.918245       -24.9867
  27   2.0000      -0.907913       -24.7056
  28   2.0000      -0.865944       -23.5635
  29   2.0000      -0.849745       -23.1227
  30   2.0000      -0.846678       -23.0393
  31   2.0000      -0.809113       -22.0171
  32   2.0000      -0.781945       -21.2778
  33   2.0000      -0.767753       -20.8916
  34   2.0000      -0.707702       -19.2575
  35   2.0000      -0.691968       -18.8294
  36   2.0000      -0.681032       -18.5318
  37   2.0000      -0.655453       -17.8358
  38   2.0000      -0.644049       -17.5255
  39   2.0000      -0.613552       -16.6956
  40   2.0000      -0.596700       -16.2370
  41   2.0000      -0.584232       -15.8977
  42   2.0000      -0.563721       -15.3396
  43   2.0000      -0.559210       -15.2169
  44   2.0000      -0.524748       -14.2791
  45   2.0000      -0.522258       -14.2114
  46   2.0000      -0.510656       -13.8956
  47   2.0000      -0.507818       -13.8184
  48   2.0000      -0.505480       -13.7548
  49   2.0000      -0.496426       -13.5084
  50   2.0000      -0.490296       -13.3416
  51   2.0000      -0.476806       -12.9746
  52   2.0000      -0.469361       -12.7720
  53   2.0000      -0.463640       -12.6163
  54   2.0000      -0.456921       -12.4335
  55   2.0000      -0.453864       -12.3503
  56   2.0000      -0.439904       -11.9704
  57   2.0000      -0.437375       -11.9016
  58   2.0000      -0.430954       -11.7269
  59   2.0000      -0.428105       -11.6493
  60   2.0000      -0.420964       -11.4550
  61   2.0000      -0.413969       -11.2647
  62   2.0000      -0.405104       -11.0235
  63   2.0000      -0.334996        -9.1157
  64   2.0000      -0.326223        -8.8770
  65   2.0000      -0.312783        -8.5113
  66   2.0000      -0.308420        -8.3925
  67   0.0000       0.038053         1.0355
  68   0.0000       0.057624         1.5680
  69   0.0000       0.100922         2.7462
  70   0.0000       0.115068         3.1312
  71   0.0000       0.132695         3.6108

MULLIKEN ATOMIC CHARGES
-----------------------
   0 S :    0.131718
   1 C :   -0.123272
   2 C :   -0.064639
   3 C :    0.042186
   4 C :   -0.205939
   5 H :    0.026518
   6 C :    0.024306
   7 H :    0.032602
   8 H :    0.052254
   9 C :   -0.100627
  10 H :    0.040296
  11 H :    0.046034
  12 C :   -0.055888
  13 H :    0.028772
  14 H :    0.042298
  15 H :    0.030309
  16 S :    0.103811
  17 C :   -0.044502
  18 C :   -0.062470
  19 C :   -0.013079
  20 C :   -0.180619
  21 H :    0.027767
  22 C :    0.136315
  23 H :    0.009317
  24 H :    0.006187
  25 C :   -0.118766
  26 H :    0.030352
  27 H :    0.037720
  28 C :   -0.029049
  29 H :    0.035449
  30 H :    0.020439
  31 H :    0.039887
  32 H :    0.034530
  33 H :    0.019782
Sum of atomic charges:    0.0000000

LOEWDIN ATOMIC CHARGES
----------------------
   0 S :    0.423258
   1 C :   -0.196876
   2 C :   -0.063975
   3 C :   -0.054532
   4 C :   -0.198141
   5 H :    0.035681
   6 C :   -0.045225
   7 H :    0.034707
   8 H :    0.042668
   9 C :   -0.048212
  10 H :    0.029602
  11 H :    0.032093
  12 C :   -0.066288
  13 H :    0.022380
  14 H :    0.032113
  15 H :    0.021270
  16 S :    0.369348
  17 C :   -0.171459
  18 C :   -0.076737
  19 C :   -0.044599
  20 C :   -0.182229
  21 H :    0.034385
  22 C :   -0.025311
  23 H :    0.030623
  24 H :    0.022237
  25 C :   -0.040658
  26 H :    0.020104
  27 H :    0.023492
  28 C :   -0.070223
  29 H :    0.025886
  30 H :    0.028001
  31 H :    0.026157
  32 H :    0.017375
  33 H :    0.013083

  Mayer bond orders larger than 0.100000
B(  0-S ,  1-C ) :   1.1518 B(  0-S ,  4-C ) :   1.1603 B(  1-C ,  2-C ) :   1.6128
B(  1-C , 32-H ) :   0.9779 B(  2-C ,  3-C ) :   1.2249 B(  2-C ,  6-C ) :   0.9983
B(  3-C ,  4-C ) :   1.5827 B(  3-C ,  5-H ) :   0.9876 B(  4-C , 20-C ) :   1.0215
B(  6-C ,  7-H ) :   0.9336 B(  6-C ,  8-H ) :   0.9424 B(  6-C ,  9-C ) :   1.1100
B(  9-C , 10-H ) :   0.9446 B(  9-C , 11-H ) :   0.9467 B(  9-C , 12-C ) :   1.0919
B( 12-C , 13-H ) :   0.9739 B( 12-C , 14-H ) :   0.9723 B( 12-C , 15-H ) :   0.9753
B( 16-S , 17-C ) :   1.1454 B( 16-S , 20-C ) :   1.0955 B( 17-C , 18-C ) :   1.6602
B( 17-C , 33-H ) :   0.9710 B( 18-C , 19-C ) :   1.1961 B( 18-C , 21-H ) :   0.9816
B( 19-C , 20-C ) :   1.6580 B( 19-C , 22-C ) :   1.0490 B( 22-C , 23-H ) :   0.9136
B( 22-C , 24-H ) :   0.9361 B( 22-C , 25-C ) :   1.0482 B( 25-C , 26-H ) :   0.9625
B( 25-C , 27-H ) :   0.9516 B( 25-C , 28-C ) :   1.0774 B( 28-C , 29-H ) :   0.9730
B( 28-C , 30-H ) :   0.9746 B( 28-C , 31-H ) :   0.9745

Dispersion correction           -0.014237205
FINAL SINGLE POINT ENERGY     -1339.864161993801

DIPOLE MOMENT
-------------
                                X             Y             Z
Electronic contribution:    -16.39633      -4.93046      18.66510
Nuclear contribution   :     16.85966       5.12588     -19.02312
                        -----------------------------------------
Total Dipole Moment    :      0.46333       0.19542      -0.35802
                        -----------------------------------------
Magnitude (a.u.)       :      0.61729
Magnitude (Debye)      :      1.56903

Rotational constants in cm-1:     0.017316     0.008191     0.007232
Rotational constants in MHz :   519.134720   245.545110   216.808595

                             ****ORCA TERMINATED NORMALLY****
TOTAL RUN TIME: 0 days 0 hours 0 minutes 21 seconds 465 msec
