                         Program Version 4.2.1 -  RELEASE  -
|  1> ! wB97X-D3 SP def2-SVP
|  2> %pal
|  3> nprocs 24
|  4> end
|  5>
|  6> * xyz 0 1
|  7> S 	 -128.096 	 67.4643 	 -58.5694
|  8> C 	 -126.867 	 68.5833 	 -58.2218
|  9> C 	 -126.751 	 69.5546 	 -59.2524
| 10> C 	 -127.667 	 69.3347 	 -60.2745
| 11> C 	 -128.464 	 68.1855 	 -60.0898
| 12> H 	 -127.723 	 69.9728 	 -61.1192
| 13> C 	 -125.735 	 70.6608 	 -59.3116
| 14> H 	 -125.362 	 70.6382 	 -60.3383
| 15> H 	 -124.955 	 70.3649 	 -58.659
| 16> C 	 -126.208 	 72.0832 	 -58.8636
| 17> H 	 -127.141 	 72.4794 	 -59.379
| 18> H 	 -126.532 	 72.0348 	 -57.8528
| 19> C 	 -125.037 	 73.0787 	 -59.1162
| 20> H 	 -124.68 	 72.9586 	 -60.1487
| 21> H 	 -125.356 	 74.0878 	 -58.9551
| 22> H 	 -124.111 	 72.872 	 -58.5264
| 23> S 	 -130.994 	 67.2982 	 -59.9593
| 24> C 	 -131.81 	 66.7416 	 -61.4015
| 25> C 	 -131.013 	 66.8669 	 -62.4856
| 26> C 	 -129.759 	 67.4841 	 -62.2568
| 27> C 	 -129.566 	 67.7294 	 -60.8715
| 28> H 	 -131.379 	 66.5389 	 -63.4503
| 29> C 	 -128.749 	 67.7996 	 -63.3451
| 30> H 	 -127.837 	 68.1242 	 -62.9158
| 31> H 	 -128.957 	 68.7263 	 -63.8745
| 32> C 	 -128.609 	 66.6939 	 -64.4346
| 33> H 	 -127.94 	 67.152 	 -65.2467
| 34> H 	 -129.607 	 66.4481 	 -64.855
| 35> C 	 -128.034 	 65.4259 	 -63.8827
| 36> H 	 -127.129 	 65.5929 	 -63.3221
| 37> H 	 -127.73 	 64.7766 	 -64.7217
| 38> H 	 -128.713 	 64.814 	 -63.2392
| 39> H 	 -126.259 	 68.6019 	 -57.343
| 40> H 	 -132.865 	 66.3704 	 -61.4595
| 41> *
| 42>
| 43>                          ****END OF INPUT****

CARTESIAN COORDINATES (ANGSTROEM)
---------------------------------
  S    -128.096000   67.464300  -58.569400
  C    -126.867000   68.583300  -58.221800
  C    -126.751000   69.554600  -59.252400
  C    -127.667000   69.334700  -60.274500
  C    -128.464000   68.185500  -60.089800
  H    -127.723000   69.972800  -61.119200
  C    -125.735000   70.660800  -59.311600
  H    -125.362000   70.638200  -60.338300
  H    -124.955000   70.364900  -58.659000
  C    -126.208000   72.083200  -58.863600
  H    -127.141000   72.479400  -59.379000
  H    -126.532000   72.034800  -57.852800
  C    -125.037000   73.078700  -59.116200
  H    -124.680000   72.958600  -60.148700
  H    -125.356000   74.087800  -58.955100
  H    -124.111000   72.872000  -58.526400
  S    -130.994000   67.298200  -59.959300
  C    -131.810000   66.741600  -61.401500
  C    -131.013000   66.866900  -62.485600
  C    -129.759000   67.484100  -62.256800
  C    -129.566000   67.729400  -60.871500
  H    -131.379000   66.538900  -63.450300
  C    -128.749000   67.799600  -63.345100
  H    -127.837000   68.124200  -62.915800
  H    -128.957000   68.726300  -63.874500
  C    -128.609000   66.693900  -64.434600
  H    -127.940000   67.152000  -65.246700
  H    -129.607000   66.448100  -64.855000
  C    -128.034000   65.425900  -63.882700
  H    -127.129000   65.592900  -63.322100
  H    -127.730000   64.776600  -64.721700
  H    -128.713000   64.814000  -63.239200
  H    -126.259000   68.601900  -57.343000
  H    -132.865000   66.370400  -61.459500

 Total Charge           Charge          ....    0
 Multiplicity           Mult            ....    1
 Number of Electrons    NEL             ....  134
 Basis Dimension        Dim             ....  322

ORBITAL ENERGIES
----------------

  NO   OCC          E(Eh)            E(eV)
   0   2.0000     -88.969938     -2420.9951
   1   2.0000     -88.963563     -2420.8216
   2   2.0000     -10.326206      -280.9904
   3   2.0000     -10.325761      -280.9783
   4   2.0000     -10.315346      -280.6948
   5   2.0000     -10.310432      -280.5611
   6   2.0000     -10.304848      -280.4092
   7   2.0000     -10.296239      -280.1749
   8   2.0000     -10.294497      -280.1275
   9   2.0000     -10.293139      -280.0905
  10   2.0000     -10.290308      -280.0135
  11   2.0000     -10.288991      -279.9777
  12   2.0000     -10.288294      -279.9587
  13   2.0000     -10.287643      -279.9410
  14   2.0000     -10.281978      -279.7869
  15   2.0000     -10.272498      -279.5289
  16   2.0000      -8.085577      -220.0197
  17   2.0000      -8.078530      -219.8280
  18   2.0000      -6.043830      -164.4610
  19   2.0000      -6.039749      -164.3499
  20   2.0000      -6.037058      -164.2767
  21   2.0000      -6.036760      -164.2686
  22   2.0000      -6.032955      -164.1651
  23   2.0000      -6.029296      -164.0655
  24   2.0000      -1.012336       -27.5471
  25   2.0000      -0.987015       -26.8580
  26   2.0000      -0.911640       -24.8070
  27   2.0000      -0.907273       -24.6881
  28   2.0000      -0.871898       -23.7255
  29   2.0000      -0.854864       -23.2620
  30   2.0000      -0.844417       -22.9778
  31   2.0000      -0.813410       -22.1340
  32   2.0000      -0.783394       -21.3172
  33   2.0000      -0.768507       -20.9122
  34   2.0000      -0.709204       -19.2984
  35   2.0000      -0.702633       -19.1196
  36   2.0000      -0.693730       -18.8774
  37   2.0000      -0.654529       -17.8106
  38   2.0000      -0.638846       -17.3839
  39   2.0000      -0.627474       -17.0744
  40   2.0000      -0.602744       -16.4015
  41   2.0000      -0.568278       -15.4636
  42   2.0000      -0.555820       -15.1246
  43   2.0000      -0.543814       -14.7979
  44   2.0000      -0.536199       -14.5907
  45   2.0000      -0.529153       -14.3990
  46   2.0000      -0.517580       -14.0841
  47   2.0000      -0.510469       -13.8906
  48   2.0000      -0.503516       -13.7014
  49   2.0000      -0.500265       -13.6129
  50   2.0000      -0.493784       -13.4365
  51   2.0000      -0.475633       -12.9426
  52   2.0000      -0.471458       -12.8290
  53   2.0000      -0.466329       -12.6895
  54   2.0000      -0.461133       -12.5481
  55   2.0000      -0.451960       -12.2985
  56   2.0000      -0.444851       -12.1050
  57   2.0000      -0.439821       -11.9681
  58   2.0000      -0.431346       -11.7375
  59   2.0000      -0.424335       -11.5467
  60   2.0000      -0.421342       -11.4653
  61   2.0000      -0.420613       -11.4455
  62   2.0000      -0.411654       -11.2017
  63   2.0000      -0.352434        -9.5902
  64   2.0000      -0.332260        -9.0412
  65   2.0000      -0.328962        -8.9515
  66   2.0000      -0.281182        -7.6514
  67   0.0000       0.026942         0.7331
  68   0.0000       0.073786         2.0078
  69   0.0000       0.117125         3.1871
  70   0.0000       0.122394         3.3305
  71   0.0000       0.136215         3.7066

MULLIKEN ATOMIC CHARGES
-----------------------
   0 S :    0.137535
   1 C :   -0.114015
   2 C :   -0.105314
   3 C :    0.043934
   4 C :   -0.156295
   5 H :   -0.005324
   6 C :    0.070152
   7 H :    0.028314
   8 H :    0.008714
   9 C :   -0.066993
  10 H :    0.037201
  11 H :    0.022478
  12 C :   -0.045108
  13 H :    0.026508
  14 H :    0.036284
  15 H :    0.033314
  16 S :    0.102128
  17 C :   -0.106976
  18 C :   -0.038488
  19 C :   -0.015546
  20 C :   -0.163464
  21 H :    0.011216
  22 C :    0.106059
  23 H :   -0.005834
  24 H :    0.026384
  25 C :   -0.114993
  26 H :    0.042446
  27 H :    0.037876
  28 C :   -0.044345
  29 H :    0.025882
  30 H :    0.029992
  31 H :    0.046611
  32 H :    0.037811
  33 H :    0.071855
Sum of atomic charges:    0.0000000

LOEWDIN ATOMIC CHARGES
----------------------
   0 S :    0.456165
   1 C :   -0.221713
   2 C :   -0.064282
   3 C :   -0.060162
   4 C :   -0.209960
   5 H :    0.023962
   6 C :   -0.028504
   7 H :    0.032187
   8 H :    0.026054
   9 C :   -0.036407
  10 H :    0.030632
  11 H :    0.018911
  12 C :   -0.068141
  13 H :    0.025942
  14 H :    0.022125
  15 H :    0.028425
  16 S :    0.405388
  17 C :   -0.196429
  18 C :   -0.075103
  19 C :   -0.052955
  20 C :   -0.197132
  21 H :    0.029827
  22 C :   -0.035475
  23 H :    0.022187
  24 H :    0.033443
  25 C :   -0.044340
  26 H :    0.034445
  27 H :    0.024994
  28 C :   -0.072954
  29 H :    0.022798
  30 H :    0.027876
  31 H :    0.032156
  32 H :    0.023592
  33 H :    0.042451

  Mayer bond orders larger than 0.100000
B(  0-S ,  1-C ) :   1.1717 B(  0-S ,  4-C ) :   1.1871 B(  1-C ,  2-C ) :   1.5275
B(  1-C ,  4-C ) :   0.1093 B(  1-C , 32-H ) :   0.9722 B(  2-C ,  3-C ) :   1.3304
B(  2-C ,  6-C ) :   1.0238 B(  3-C ,  4-C ) :   1.4731 B(  3-C ,  5-H ) :   1.0002
B(  4-C , 20-C ) :   1.0782 B(  6-C ,  7-H ) :   0.9434 B(  6-C ,  8-H ) :   0.9366
B(  6-C ,  9-C ) :   1.0549 B(  9-C , 10-H ) :   0.9602 B(  9-C , 11-H ) :   0.9545
B(  9-C , 12-C ) :   1.0702 B( 12-C , 13-H ) :   0.9754 B( 12-C , 14-H ) :   0.9762
B( 12-C , 15-H ) :   0.9752 B( 16-S , 17-C ) :   1.1413 B( 16-S , 20-C ) :   1.1535
B( 17-C , 18-C ) :   1.6195 B( 17-C , 33-H ) :   0.9593 B( 18-C , 19-C ) :   1.2497
B( 18-C , 21-H ) :   0.9872 B( 19-C , 20-C ) :   1.5469 B( 19-C , 22-C ) :   1.0446
B( 22-C , 23-H ) :   0.9235 B( 22-C , 24-H ) :   0.9277 B( 22-C , 25-C ) :   1.0729
B( 25-C , 26-H ) :   0.9527 B( 25-C , 27-H ) :   0.9518 B( 25-C , 28-C ) :   1.0825
B( 28-C , 29-H ) :   0.9740 B( 28-C , 30-H ) :   0.9717 B( 28-C , 31-H ) :   0.9706

Dispersion correction           -0.013848798
FINAL SINGLE POINT ENERGY     -1339.890903762915

DIPOLE MOMENT
-------------
                                X             Y             Z
Electronic contribution:    -16.74585     -11.89653      13.79915
Nuclear contribution   :     17.04275      12.21505     -14.18162
                        -----------------------------------------
Total Dipole Moment    :      0.29689       0.31852      -0.38247
                        -----------------------------------------
Magnitude (a.u.)       :      0.57956
Magnitude (Debye)      :      1.47311

Rotational constants in cm-1:     0.020636     0.007534     0.006470
Rotational constants in MHz :   618.650717   225.877722   193.968676

                             ****ORCA TERMINATED NORMALLY****
TOTAL RUN TIME: 0 days 0 hours 0 minutes 21 seconds 245 msec
