                         Program Version 4.2.1 -  RELEASE  -
|  1> ! wB97X-D3 SP def2-SVP
|  2> %pal
|  3> nprocs 24
|  4> end
|  5>
|  6> * xyz 0 1
|  7> S 	 -54.0925 	 2.07456 	 -23.2472
|  8> C 	 -55.8621 	 2.18755 	 -22.9094
|  9> C 	 -56.4864 	 2.21877 	 -24.1361
| 10> C 	 -55.6165 	 2.05046 	 -25.2323
| 11> C 	 -54.2717 	 1.93318 	 -24.9333
| 12> H 	 -56.0816 	 2.08646 	 -26.2053
| 13> C 	 -58.0236 	 2.44666 	 -24.3349
| 14> H 	 -58.5714 	 2.24797 	 -23.4069
| 15> H 	 -58.2521 	 1.70012 	 -25.114
| 16> C 	 -58.4091 	 3.83931 	 -24.9592
| 17> H 	 -58.1183 	 4.49595 	 -24.1192
| 18> H 	 -57.7891 	 4.22861 	 -25.6935
| 19> C 	 -59.9148 	 3.89417 	 -25.3666
| 20> H 	 -60.4358 	 4.77769 	 -24.9448
| 21> H 	 -60.0774 	 3.99399 	 -26.4532
| 22> H 	 -60.4662 	 3.03207 	 -24.9916
| 23> S 	 -52.0584 	 0.491298 	 -25.649
| 24> C 	 -51.0062 	 0.986567 	 -26.9246
| 25> C 	 -51.6965 	 1.91597 	 -27.6582
| 26> C 	 -52.8681 	 2.48278 	 -27.0226
| 27> C 	 -53.1556 	 1.91028 	 -25.8194
| 28> H 	 -51.2838 	 2.16833 	 -28.6791
| 29> C 	 -53.6198 	 3.53665 	 -27.7952
| 30> H 	 -53.037 	 4.32833 	 -28.3254
| 31> H 	 -54.1652 	 4.07632 	 -27.0567
| 32> C 	 -54.722 	 2.95892 	 -28.72
| 33> H 	 -55.3418 	 3.71685 	 -29.165
| 34> H 	 -55.4041 	 2.42389 	 -28.0655
| 35> C 	 -54.2392 	 1.92179 	 -29.7638
| 36> H 	 -55.1046 	 1.66303 	 -30.4385
| 37> H 	 -53.8045 	 1.02456 	 -29.44
| 38> H 	 -53.4622 	 2.34946 	 -30.393
| 39> H 	 -56.4091 	 2.60486 	 -22.0677
| 40> H 	 -50.1275 	 0.492383 	 -27.257
| 41> *
| 42>
| 43>                          ****END OF INPUT****

CARTESIAN COORDINATES (ANGSTROEM)
---------------------------------
  S    -54.092500    2.074560  -23.247200
  C    -55.862100    2.187550  -22.909400
  C    -56.486400    2.218770  -24.136100
  C    -55.616500    2.050460  -25.232300
  C    -54.271700    1.933180  -24.933300
  H    -56.081600    2.086460  -26.205300
  C    -58.023600    2.446660  -24.334900
  H    -58.571400    2.247970  -23.406900
  H    -58.252100    1.700120  -25.114000
  C    -58.409100    3.839310  -24.959200
  H    -58.118300    4.495950  -24.119200
  H    -57.789100    4.228610  -25.693500
  C    -59.914800    3.894170  -25.366600
  H    -60.435800    4.777690  -24.944800
  H    -60.077400    3.993990  -26.453200
  H    -60.466200    3.032070  -24.991600
  S    -52.058400    0.491298  -25.649000
  C    -51.006200    0.986567  -26.924600
  C    -51.696500    1.915970  -27.658200
  C    -52.868100    2.482780  -27.022600
  C    -53.155600    1.910280  -25.819400
  H    -51.283800    2.168330  -28.679100
  C    -53.619800    3.536650  -27.795200
  H    -53.037000    4.328330  -28.325400
  H    -54.165200    4.076320  -27.056700
  C    -54.722000    2.958920  -28.720000
  H    -55.341800    3.716850  -29.165000
  H    -55.404100    2.423890  -28.065500
  C    -54.239200    1.921790  -29.763800
  H    -55.104600    1.663030  -30.438500
  H    -53.804500    1.024560  -29.440000
  H    -53.462200    2.349460  -30.393000
  H    -56.409100    2.604860  -22.067700
  H    -50.127500    0.492383  -27.257000

 Total Charge           Charge          ....    0
 Multiplicity           Mult            ....    1
 Number of Electrons    NEL             ....  134
 Basis Dimension        Dim             ....  322

ORBITAL ENERGIES
----------------

  NO   OCC          E(Eh)            E(eV)
   0   2.0000     -88.967511     -2420.9291
   1   2.0000     -88.959135     -2420.7011
   2   2.0000     -10.331590      -281.1369
   3   2.0000     -10.331112      -281.1238
   4   2.0000     -10.317080      -280.7420
   5   2.0000     -10.315367      -280.6954
   6   2.0000     -10.308275      -280.5024
   7   2.0000     -10.303132      -280.3625
   8   2.0000     -10.301086      -280.3068
   9   2.0000     -10.296679      -280.1869
  10   2.0000     -10.292706      -280.0788
  11   2.0000     -10.292651      -280.0773
  12   2.0000     -10.290819      -280.0274
  13   2.0000     -10.289384      -279.9884
  14   2.0000     -10.287052      -279.9249
  15   2.0000     -10.275918      -279.6219
  16   2.0000      -8.082111      -219.9254
  17   2.0000      -8.074123      -219.7081
  18   2.0000      -6.040722      -164.3764
  19   2.0000      -6.036502      -164.2616
  20   2.0000      -6.032820      -164.1614
  21   2.0000      -6.032741      -164.1592
  22   2.0000      -6.028753      -164.0507
  23   2.0000      -6.024530      -163.9358
  24   2.0000      -1.012995       -27.5650
  25   2.0000      -0.988061       -26.8865
  26   2.0000      -0.909578       -24.7509
  27   2.0000      -0.908791       -24.7295
  28   2.0000      -0.875117       -23.8131
  29   2.0000      -0.848173       -23.0800
  30   2.0000      -0.839156       -22.8346
  31   2.0000      -0.814680       -22.1686
  32   2.0000      -0.785932       -21.3863
  33   2.0000      -0.777898       -21.1677
  34   2.0000      -0.717944       -19.5362
  35   2.0000      -0.708815       -19.2878
  36   2.0000      -0.698176       -18.9983
  37   2.0000      -0.662363       -18.0238
  38   2.0000      -0.637348       -17.3431
  39   2.0000      -0.625193       -17.0124
  40   2.0000      -0.596044       -16.2192
  41   2.0000      -0.569785       -15.5046
  42   2.0000      -0.558797       -15.2056
  43   2.0000      -0.555106       -15.1052
  44   2.0000      -0.541980       -14.7480
  45   2.0000      -0.531051       -14.4506
  46   2.0000      -0.517881       -14.0923
  47   2.0000      -0.516210       -14.0468
  48   2.0000      -0.499462       -13.5910
  49   2.0000      -0.496052       -13.4983
  50   2.0000      -0.492326       -13.3969
  51   2.0000      -0.489363       -13.3162
  52   2.0000      -0.475025       -12.9261
  53   2.0000      -0.471739       -12.8367
  54   2.0000      -0.460481       -12.5303
  55   2.0000      -0.452642       -12.3170
  56   2.0000      -0.447997       -12.1906
  57   2.0000      -0.439331       -11.9548
  58   2.0000      -0.429493       -11.6871
  59   2.0000      -0.418911       -11.3992
  60   2.0000      -0.413965       -11.2646
  61   2.0000      -0.411927       -11.2091
  62   2.0000      -0.409887       -11.1536
  63   2.0000      -0.349720        -9.5164
  64   2.0000      -0.332024        -9.0348
  65   2.0000      -0.322277        -8.7696
  66   2.0000      -0.301019        -8.1912
  67   0.0000       0.022145         0.6026
  68   0.0000       0.066258         1.8030
  69   0.0000       0.108231         2.9451
  70   0.0000       0.115539         3.1440
  71   0.0000       0.128232         3.4894

MULLIKEN ATOMIC CHARGES
-----------------------
   0 S :    0.110823
   1 C :   -0.106608
   2 C :   -0.142523
   3 C :    0.040062
   4 C :   -0.115679
   5 H :   -0.012494
   6 C :    0.030623
   7 H :    0.037622
   8 H :    0.037030
   9 C :   -0.056869
  10 H :    0.025614
  11 H :    0.015350
  12 C :   -0.061056
  13 H :    0.038226
  14 H :    0.042395
  15 H :    0.037306
  16 S :    0.079653
  17 C :   -0.056505
  18 C :   -0.077931
  19 C :   -0.037415
  20 C :   -0.125153
  21 H :    0.037901
  22 C :    0.075362
  23 H :    0.041118
  24 H :    0.010025
  25 C :   -0.052638
  26 H :    0.029253
  27 H :    0.012977
  28 C :   -0.060009
  29 H :    0.038389
  30 H :    0.037330
  31 H :    0.018974
  32 H :    0.057538
  33 H :    0.051309
Sum of atomic charges:   -0.0000000

LOEWDIN ATOMIC CHARGES
----------------------
   0 S :    0.421042
   1 C :   -0.198160
   2 C :   -0.063499
   3 C :   -0.067805
   4 C :   -0.210966
   5 H :    0.024929
   6 C :   -0.026432
   7 H :    0.031067
   8 H :    0.030717
   9 C :   -0.043127
  10 H :    0.028230
  11 H :    0.014359
  12 C :   -0.071549
  13 H :    0.032214
  14 H :    0.030422
  15 H :    0.026531
  16 S :    0.388185
  17 C :   -0.181605
  18 C :   -0.078858
  19 C :   -0.051704
  20 C :   -0.180365
  21 H :    0.037643
  22 C :   -0.033094
  23 H :    0.035318
  24 H :    0.027366
  25 C :   -0.033210
  26 H :    0.023909
  27 H :    0.018689
  28 C :   -0.068481
  29 H :    0.033996
  30 H :    0.018644
  31 H :    0.020044
  32 H :    0.037248
  33 H :    0.028301

  Mayer bond orders larger than 0.100000
B(  0-S ,  1-C ) :   1.1260 B(  0-S ,  4-C ) :   1.1749 B(  1-C ,  2-C ) :   1.6120
B(  1-C , 32-H ) :   0.9602 B(  2-C ,  3-C ) :   1.2915 B(  2-C ,  6-C ) :   1.0110
B(  3-C ,  4-C ) :   1.5095 B(  3-C ,  5-H ) :   0.9980 B(  4-C , 20-C ) :   1.0358
B(  6-C ,  7-H ) :   0.9491 B(  6-C ,  8-H ) :   0.9449 B(  6-C ,  9-C ) :   1.0492
B(  9-C , 10-H ) :   0.9593 B(  9-C , 11-H ) :   0.9651 B(  9-C , 12-C ) :   1.0511
B( 12-C , 13-H ) :   0.9767 B( 12-C , 14-H ) :   0.9783 B( 12-C , 15-H ) :   0.9803
B( 16-S , 17-C ) :   1.1447 B( 16-S , 20-C ) :   1.1278 B( 17-C , 18-C ) :   1.6194
B( 17-C , 33-H ) :   0.9726 B( 18-C , 19-C ) :   1.2136 B( 18-C , 21-H ) :   0.9802
B( 19-C , 20-C ) :   1.6180 B( 19-C , 22-C ) :   1.0472 B( 22-C , 23-H ) :   0.9458
B( 22-C , 24-H ) :   0.9219 B( 22-C , 25-C ) :   1.0756 B( 25-C , 26-H ) :   0.9545
B( 25-C , 27-H ) :   0.9498 B( 25-C , 28-C ) :   1.0821 B( 28-C , 29-H ) :   0.9726
B( 28-C , 30-H ) :   0.9717 B( 28-C , 31-H ) :   0.9751

Dispersion correction           -0.014900746
FINAL SINGLE POINT ENERGY     -1339.852801587972

DIPOLE MOMENT
-------------
                                X             Y             Z
Electronic contribution:     23.52193     -11.03078      16.91489
Nuclear contribution   :    -24.10050      11.47399     -17.53170
                        -----------------------------------------
Total Dipole Moment    :     -0.57857       0.44320      -0.61681
                        -----------------------------------------
Magnitude (a.u.)       :      0.95479
Magnitude (Debye)      :      2.42688

Rotational constants in cm-1:     0.019273     0.009097     0.006606
Rotational constants in MHz :   577.788371   272.711721   198.033635

                             ****ORCA TERMINATED NORMALLY****
TOTAL RUN TIME: 0 days 0 hours 0 minutes 22 seconds 250 msec
