                         Program Version 4.2.1 -  RELEASE  -
|  1> ! wB97X-D3 SP def2-SVP
|  2> %pal
|  3> nprocs 24
|  4> end
|  5>
|  6> * xyz 0 1
|  7> S 	 -131.759 	 12.1084 	 -7.03136
|  8> C 	 -130.146 	 12.039 	 -6.38367
|  9> C 	 -129.378 	 11.2119 	 -7.14379
| 10> C 	 -130.062 	 10.7125 	 -8.30416
| 11> C 	 -131.413 	 11.1084 	 -8.40275
| 12> H 	 -129.688 	 10.1318 	 -9.0806
| 13> C 	 -127.837 	 10.9757 	 -6.95212
| 14> H 	 -127.81 	 10.2681 	 -6.09704
| 15> H 	 -127.366 	 11.9069 	 -6.55183
| 16> C 	 -127.128 	 10.303 	 -8.1854
| 17> H 	 -126.1 	 10.1175 	 -7.94376
| 18> H 	 -127.506 	 9.2999 	 -8.30308
| 19> C 	 -127.108 	 11.1977 	 -9.44919
| 20> H 	 -128.122 	 11.3222 	 -9.90501
| 21> H 	 -126.651 	 12.1312 	 -9.18005
| 22> H 	 -126.491 	 10.6448 	 -10.2016
| 23> S 	 -133.14 	 12.4598 	 -9.92999
| 24> C 	 -133.937 	 11.7639 	 -11.3102
| 25> C 	 -133.506 	 10.437 	 -11.513
| 26> C 	 -132.561 	 10.0368 	 -10.5524
| 27> C 	 -132.328 	 10.9786 	 -9.54768
| 28> H 	 -133.888 	 9.79729 	 -12.2771
| 29> C 	 -131.847 	 8.6897 	 -10.6995
| 30> H 	 -132.493 	 7.90798 	 -10.8939
| 31> H 	 -131.396 	 8.52079 	 -9.73653
| 32> C 	 -130.696 	 8.61559 	 -11.7701
| 33> H 	 -129.966 	 9.40479 	 -11.6811
| 34> H 	 -131.127 	 8.78008 	 -12.6931
| 35> C 	 -130.027 	 7.24232 	 -11.8255
| 36> H 	 -129.3 	 7.01837 	 -11.1109
| 37> H 	 -129.463 	 7.24085 	 -12.8262
| 38> H 	 -130.66 	 6.38081 	 -11.7962
| 39> H 	 -129.845 	 12.5759 	 -5.4658
| 40> H 	 -134.579 	 12.4053 	 -11.8814
| 41> *
| 42>
| 43>                          ****END OF INPUT****

CARTESIAN COORDINATES (ANGSTROEM)
---------------------------------
  S    -131.759000   12.108400   -7.031360
  C    -130.146000   12.039000   -6.383670
  C    -129.378000   11.211900   -7.143790
  C    -130.062000   10.712500   -8.304160
  C    -131.413000   11.108400   -8.402750
  H    -129.688000   10.131800   -9.080600
  C    -127.837000   10.975700   -6.952120
  H    -127.810000   10.268100   -6.097040
  H    -127.366000   11.906900   -6.551830
  C    -127.128000   10.303000   -8.185400
  H    -126.100000   10.117500   -7.943760
  H    -127.506000    9.299900   -8.303080
  C    -127.108000   11.197700   -9.449190
  H    -128.122000   11.322200   -9.905010
  H    -126.651000   12.131200   -9.180050
  H    -126.491000   10.644800  -10.201600
  S    -133.140000   12.459800   -9.929990
  C    -133.937000   11.763900  -11.310200
  C    -133.506000   10.437000  -11.513000
  C    -132.561000   10.036800  -10.552400
  C    -132.328000   10.978600   -9.547680
  H    -133.888000    9.797290  -12.277100
  C    -131.847000    8.689700  -10.699500
  H    -132.493000    7.907980  -10.893900
  H    -131.396000    8.520790   -9.736530
  C    -130.696000    8.615590  -11.770100
  H    -129.966000    9.404790  -11.681100
  H    -131.127000    8.780080  -12.693100
  C    -130.027000    7.242320  -11.825500
  H    -129.300000    7.018370  -11.110900
  H    -129.463000    7.240850  -12.826200
  H    -130.660000    6.380810  -11.796200
  H    -129.845000   12.575900   -5.465800
  H    -134.579000   12.405300  -11.881400

 Total Charge           Charge          ....    0
 Multiplicity           Mult            ....    1
 Number of Electrons    NEL             ....  134
 Basis Dimension        Dim             ....  322

ORBITAL ENERGIES
----------------

  NO   OCC          E(Eh)            E(eV)
   0   2.0000     -88.964307     -2420.8419
   1   2.0000     -88.963859     -2420.8297
   2   2.0000     -10.331965      -281.1471
   3   2.0000     -10.328826      -281.0616
   4   2.0000     -10.319620      -280.8111
   5   2.0000     -10.313035      -280.6319
   6   2.0000     -10.303281      -280.3665
   7   2.0000     -10.303023      -280.3595
   8   2.0000     -10.302556      -280.3468
   9   2.0000     -10.295653      -280.1590
  10   2.0000     -10.290510      -280.0190
  11   2.0000     -10.290024      -280.0058
  12   2.0000     -10.285747      -279.8894
  13   2.0000     -10.283882      -279.8387
  14   2.0000     -10.282910      -279.8122
  15   2.0000     -10.278374      -279.6888
  16   2.0000      -8.079751      -219.8612
  17   2.0000      -8.078977      -219.8401
  18   2.0000      -6.038077      -164.3044
  19   2.0000      -6.037482      -164.2882
  20   2.0000      -6.033978      -164.1929
  21   2.0000      -6.033272      -164.1737
  22   2.0000      -6.030819      -164.1069
  23   2.0000      -6.029865      -164.0810
  24   2.0000      -1.009197       -27.4617
  25   2.0000      -0.986081       -26.8326
  26   2.0000      -0.908828       -24.7305
  27   2.0000      -0.903300       -24.5800
  28   2.0000      -0.870156       -23.6781
  29   2.0000      -0.855147       -23.2697
  30   2.0000      -0.838456       -22.8155
  31   2.0000      -0.813865       -22.1464
  32   2.0000      -0.783074       -21.3085
  33   2.0000      -0.773081       -21.0366
  34   2.0000      -0.713146       -19.4057
  35   2.0000      -0.703382       -19.1400
  36   2.0000      -0.691819       -18.8253
  37   2.0000      -0.669728       -18.2242
  38   2.0000      -0.642987       -17.4966
  39   2.0000      -0.620386       -16.8816
  40   2.0000      -0.599267       -16.3069
  41   2.0000      -0.569895       -15.5076
  42   2.0000      -0.563278       -15.3276
  43   2.0000      -0.546139       -14.8612
  44   2.0000      -0.530346       -14.4314
  45   2.0000      -0.524964       -14.2850
  46   2.0000      -0.517057       -14.0698
  47   2.0000      -0.512213       -13.9380
  48   2.0000      -0.511452       -13.9173
  49   2.0000      -0.502796       -13.6818
  50   2.0000      -0.491544       -13.3756
  51   2.0000      -0.487409       -13.2631
  52   2.0000      -0.478216       -13.0129
  53   2.0000      -0.467140       -12.7115
  54   2.0000      -0.458770       -12.4838
  55   2.0000      -0.448139       -12.1945
  56   2.0000      -0.441860       -12.0236
  57   2.0000      -0.439341       -11.9551
  58   2.0000      -0.431647       -11.7457
  59   2.0000      -0.427646       -11.6368
  60   2.0000      -0.424236       -11.5441
  61   2.0000      -0.416942       -11.3456
  62   2.0000      -0.409076       -11.1315
  63   2.0000      -0.353041        -9.6067
  64   2.0000      -0.331586        -9.0229
  65   2.0000      -0.327498        -8.9117
  66   2.0000      -0.286449        -7.7947
  67   0.0000       0.025710         0.6996
  68   0.0000       0.077165         2.0998
  69   0.0000       0.114857         3.1254
  70   0.0000       0.123711         3.3663
  71   0.0000       0.127767         3.4767

MULLIKEN ATOMIC CHARGES
-----------------------
   0 S :    0.102645
   1 C :   -0.157027
   2 C :   -0.057381
   3 C :    0.028062
   4 C :   -0.130749
   5 H :   -0.022311
   6 C :    0.035748
   7 H :    0.040791
   8 H :    0.038736
   9 C :   -0.070976
  10 H :    0.021765
  11 H :    0.027914
  12 C :   -0.061812
  13 H :    0.052072
  14 H :    0.037896
  15 H :    0.038631
  16 S :    0.099756
  17 C :   -0.096367
  18 C :   -0.009999
  19 C :   -0.058149
  20 C :   -0.134052
  21 H :    0.013258
  22 C :    0.093025
  23 H :    0.003193
  24 H :    0.013619
  25 C :   -0.029011
  26 H :    0.024547
  27 H :    0.003704
  28 C :   -0.049156
  29 H :    0.019574
  30 H :    0.037340
  31 H :    0.024102
  32 H :    0.062904
  33 H :    0.057710
Sum of atomic charges:    0.0000000

LOEWDIN ATOMIC CHARGES
----------------------
   0 S :    0.415587
   1 C :   -0.208577
   2 C :   -0.064774
   3 C :   -0.065061
   4 C :   -0.200089
   5 H :    0.014902
   6 C :   -0.033652
   7 H :    0.036354
   8 H :    0.032480
   9 C :   -0.045147
  10 H :    0.024888
  11 H :    0.022483
  12 C :   -0.064811
  13 H :    0.029111
  14 H :    0.025197
  15 H :    0.030837
  16 S :    0.428279
  17 C :   -0.183068
  18 C :   -0.066021
  19 C :   -0.058647
  20 C :   -0.202744
  21 H :    0.029496
  22 C :   -0.020879
  23 H :    0.018671
  24 H :    0.025650
  25 C :   -0.028593
  26 H :    0.023308
  27 H :    0.013097
  28 C :   -0.063721
  29 H :    0.014805
  30 H :    0.038911
  31 H :    0.021511
  32 H :    0.037667
  33 H :    0.022550

  Mayer bond orders larger than 0.100000
B(  0-S ,  1-C ) :   1.1396 B(  0-S ,  4-C ) :   1.1714 B(  1-C ,  2-C ) :   1.6016
B(  1-C , 32-H ) :   0.9715 B(  2-C ,  3-C ) :   1.2665 B(  2-C ,  6-C ) :   0.9839
B(  3-C ,  4-C ) :   1.5292 B(  3-C ,  5-H ) :   0.9964 B(  4-C , 20-C ) :   1.0334
B(  6-C ,  7-H ) :   0.9363 B(  6-C ,  8-H ) :   0.9532 B(  6-C ,  9-C ) :   1.0882
B(  9-C , 10-H ) :   0.9519 B(  9-C , 11-H ) :   0.9463 B(  9-C , 12-C ) :   1.0684
B( 12-C , 13-H ) :   0.9746 B( 12-C , 14-H ) :   0.9737 B( 12-C , 15-H ) :   0.9737
B( 16-S , 17-C ) :   1.1862 B( 16-S , 20-C ) :   1.1633 B( 17-C , 18-C ) :   1.5281
B( 17-C , 20-C ) :   0.1094 B( 17-C , 33-H ) :   0.9769 B( 18-C , 19-C ) :   1.2843
B( 18-C , 21-H ) :   0.9998 B( 19-C , 20-C ) :   1.5619 B( 19-C , 22-C ) :   1.0496
B( 22-C , 23-H ) :   0.9313 B( 22-C , 24-H ) :   0.9362 B( 22-C , 25-C ) :   1.0629
B( 25-C , 26-H ) :   0.9526 B( 25-C , 27-H ) :   0.9533 B( 25-C , 28-C ) :   1.0791
B( 28-C , 29-H ) :   0.9779 B( 28-C , 30-H ) :   0.9743 B( 28-C , 31-H ) :   0.9742

Dispersion correction           -0.014717723
FINAL SINGLE POINT ENERGY     -1339.874872856570

DIPOLE MOMENT
-------------
                                X             Y             Z
Electronic contribution:    -23.14388      17.51703      10.67040
Nuclear contribution   :     23.70462     -17.87106     -10.99360
                        -----------------------------------------
Total Dipole Moment    :      0.56073      -0.35403      -0.32321
                        -----------------------------------------
Magnitude (a.u.)       :      0.73771
Magnitude (Debye)      :      1.87512

Rotational constants in cm-1:     0.015533     0.011150     0.007273
Rotational constants in MHz :   465.668677   334.263882   218.034866

                             ****ORCA TERMINATED NORMALLY****
TOTAL RUN TIME: 0 days 0 hours 0 minutes 22 seconds 465 msec
