                         Program Version 4.2.1 -  RELEASE  -
|  1> ! wB97X-D3 SP def2-SVP
|  2> %pal
|  3> nprocs 24
|  4> end
|  5>
|  6> * xyz 0 1
|  7> S 	 -91.0002 	 -34.5587 	 -61.1275
|  8> C 	 -91.2954 	 -35.6085 	 -62.5783
|  9> C 	 -90.5832 	 -36.8116 	 -62.445
| 10> C 	 -89.909 	 -36.9155 	 -61.1629
| 11> C 	 -89.9161 	 -35.7232 	 -60.4229
| 12> H 	 -89.4345 	 -37.6879 	 -60.7086
| 13> C 	 -90.6268 	 -37.839 	 -63.4737
| 14> H 	 -91.0628 	 -37.4764 	 -64.4324
| 15> H 	 -91.4477 	 -38.5179 	 -63.0893
| 16> C 	 -89.1936 	 -38.54 	 -63.7505
| 17> H 	 -88.4728 	 -37.6967 	 -63.9437
| 18> H 	 -88.7203 	 -38.8556 	 -62.8116
| 19> C 	 -89.0651 	 -39.5455 	 -64.8358
| 20> H 	 -89.1431 	 -40.5677 	 -64.3437
| 21> H 	 -89.7806 	 -39.4289 	 -65.6647
| 22> H 	 -88.0799 	 -39.4678 	 -65.3011
| 23> S 	 -87.5698 	 -35.3539 	 -59.1079
| 24> C 	 -87.6143 	 -35.1589 	 -57.3715
| 25> C 	 -88.9292 	 -35.2031 	 -56.8768
| 26> C 	 -89.9055 	 -35.4309 	 -57.8765
| 27> C 	 -89.3207 	 -35.4746 	 -59.1587
| 28> H 	 -89.0563 	 -35.0509 	 -55.8576
| 29> C 	 -91.4013 	 -35.4786 	 -57.6161
| 30> H 	 -91.9356 	 -35.5933 	 -58.5555
| 31> H 	 -91.6947 	 -34.5365 	 -57.2299
| 32> C 	 -91.8375 	 -36.5737 	 -56.6985
| 33> H 	 -92.9187 	 -36.5368 	 -56.723
| 34> H 	 -91.5304 	 -36.3018 	 -55.6778
| 35> C 	 -91.3823 	 -37.9859 	 -57.1717
| 36> H 	 -90.2796 	 -37.9259 	 -56.9573
| 37> H 	 -91.5139 	 -38.1896 	 -58.1809
| 38> H 	 -91.7804 	 -38.7714 	 -56.573
| 39> H 	 -91.9934 	 -35.4764 	 -63.4028
| 40> H 	 -86.728 	 -34.9852 	 -56.8285
| 41> *
| 42>
| 43>                          ****END OF INPUT****

CARTESIAN COORDINATES (ANGSTROEM)
---------------------------------
  S    -91.000200  -34.558700  -61.127500
  C    -91.295400  -35.608500  -62.578300
  C    -90.583200  -36.811600  -62.445000
  C    -89.909000  -36.915500  -61.162900
  C    -89.916100  -35.723200  -60.422900
  H    -89.434500  -37.687900  -60.708600
  C    -90.626800  -37.839000  -63.473700
  H    -91.062800  -37.476400  -64.432400
  H    -91.447700  -38.517900  -63.089300
  C    -89.193600  -38.540000  -63.750500
  H    -88.472800  -37.696700  -63.943700
  H    -88.720300  -38.855600  -62.811600
  C    -89.065100  -39.545500  -64.835800
  H    -89.143100  -40.567700  -64.343700
  H    -89.780600  -39.428900  -65.664700
  H    -88.079900  -39.467800  -65.301100
  S    -87.569800  -35.353900  -59.107900
  C    -87.614300  -35.158900  -57.371500
  C    -88.929200  -35.203100  -56.876800
  C    -89.905500  -35.430900  -57.876500
  C    -89.320700  -35.474600  -59.158700
  H    -89.056300  -35.050900  -55.857600
  C    -91.401300  -35.478600  -57.616100
  H    -91.935600  -35.593300  -58.555500
  H    -91.694700  -34.536500  -57.229900
  C    -91.837500  -36.573700  -56.698500
  H    -92.918700  -36.536800  -56.723000
  H    -91.530400  -36.301800  -55.677800
  C    -91.382300  -37.985900  -57.171700
  H    -90.279600  -37.925900  -56.957300
  H    -91.513900  -38.189600  -58.180900
  H    -91.780400  -38.771400  -56.573000
  H    -91.993400  -35.476400  -63.402800
  H    -86.728000  -34.985200  -56.828500

 Total Charge           Charge          ....    0
 Multiplicity           Mult            ....    1
 Number of Electrons    NEL             ....  134
 Basis Dimension        Dim             ....  322

ORBITAL ENERGIES
----------------

  NO   OCC          E(Eh)            E(eV)
   0   2.0000     -88.967403     -2420.9261
   1   2.0000     -88.964932     -2420.8589
   2   2.0000     -10.325734      -280.9775
   3   2.0000     -10.322485      -280.8891
   4   2.0000     -10.317851      -280.7630
   5   2.0000     -10.316472      -280.7255
   6   2.0000     -10.305272      -280.4207
   7   2.0000     -10.304616      -280.4028
   8   2.0000     -10.301245      -280.3111
   9   2.0000     -10.293365      -280.0967
  10   2.0000     -10.292974      -280.0861
  11   2.0000     -10.290744      -280.0254
  12   2.0000     -10.283333      -279.8237
  13   2.0000     -10.282461      -279.8000
  14   2.0000     -10.281884      -279.7843
  15   2.0000     -10.269572      -279.4492
  16   2.0000      -8.082031      -219.9233
  17   2.0000      -8.078285      -219.8213
  18   2.0000      -6.040349      -164.3663
  19   2.0000      -6.036884      -164.2720
  20   2.0000      -6.036499      -164.2615
  21   2.0000      -6.033073      -164.1683
  22   2.0000      -6.032894      -164.1634
  23   2.0000      -6.029116      -164.0606
  24   2.0000      -1.003266       -27.3003
  25   2.0000      -0.976163       -26.5627
  26   2.0000      -0.913838       -24.8668
  27   2.0000      -0.909144       -24.7391
  28   2.0000      -0.870954       -23.6999
  29   2.0000      -0.849192       -23.1077
  30   2.0000      -0.843392       -22.9499
  31   2.0000      -0.814280       -22.1577
  32   2.0000      -0.787107       -21.4183
  33   2.0000      -0.768699       -20.9174
  34   2.0000      -0.712896       -19.3989
  35   2.0000      -0.698551       -19.0086
  36   2.0000      -0.688856       -18.7447
  37   2.0000      -0.661841       -18.0096
  38   2.0000      -0.643331       -17.5059
  39   2.0000      -0.615700       -16.7541
  40   2.0000      -0.600165       -16.3313
  41   2.0000      -0.565157       -15.3787
  42   2.0000      -0.557854       -15.1800
  43   2.0000      -0.553702       -15.0670
  44   2.0000      -0.544538       -14.8176
  45   2.0000      -0.525498       -14.2995
  46   2.0000      -0.523505       -14.2453
  47   2.0000      -0.510825       -13.9003
  48   2.0000      -0.505694       -13.7606
  49   2.0000      -0.498832       -13.5739
  50   2.0000      -0.492614       -13.4047
  51   2.0000      -0.480078       -13.0636
  52   2.0000      -0.473679       -12.8895
  53   2.0000      -0.466676       -12.6989
  54   2.0000      -0.459710       -12.5093
  55   2.0000      -0.448946       -12.2164
  56   2.0000      -0.445210       -12.1148
  57   2.0000      -0.439569       -11.9613
  58   2.0000      -0.432266       -11.7625
  59   2.0000      -0.426151       -11.5961
  60   2.0000      -0.415426       -11.3043
  61   2.0000      -0.407282       -11.0827
  62   2.0000      -0.401384       -10.9222
  63   2.0000      -0.335796        -9.1375
  64   2.0000      -0.328364        -8.9352
  65   2.0000      -0.320532        -8.7221
  66   2.0000      -0.298108        -8.1119
  67   0.0000       0.034795         0.9468
  68   0.0000       0.057918         1.5760
  69   0.0000       0.110816         3.0155
  70   0.0000       0.118066         3.2127
  71   0.0000       0.125289         3.4093

MULLIKEN ATOMIC CHARGES
-----------------------
   0 S :    0.105627
   1 C :   -0.122208
   2 C :   -0.083507
   3 C :    0.088332
   4 C :   -0.194334
   5 H :   -0.029550
   6 C :    0.054594
   7 H :    0.022570
   8 H :    0.052695
   9 C :   -0.124787
  10 H :    0.033222
  11 H :    0.029722
  12 C :   -0.032567
  13 H :    0.045866
  14 H :    0.035884
  15 H :    0.035964
  16 S :    0.121968
  17 C :   -0.092786
  18 C :   -0.014828
  19 C :   -0.017561
  20 C :   -0.190999
  21 H :   -0.003789
  22 C :    0.117074
  23 H :    0.017192
  24 H :    0.024374
  25 C :   -0.094347
  26 H :    0.025043
  27 H :    0.027634
  28 C :   -0.026026
  29 H :    0.041354
  30 H :    0.023585
  31 H :    0.030088
  32 H :    0.048108
  33 H :    0.046395
Sum of atomic charges:    0.0000000

LOEWDIN ATOMIC CHARGES
----------------------
   0 S :    0.391931
   1 C :   -0.194246
   2 C :   -0.057454
   3 C :   -0.052123
   4 C :   -0.196310
   5 H :    0.012003
   6 C :   -0.040904
   7 H :    0.031302
   8 H :    0.043403
   9 C :   -0.054289
  10 H :    0.031548
  11 H :    0.024938
  12 C :   -0.073572
  13 H :    0.036097
  14 H :    0.028007
  15 H :    0.031248
  16 S :    0.417402
  17 C :   -0.174724
  18 C :   -0.063805
  19 C :   -0.044189
  20 C :   -0.212864
  21 H :    0.020874
  22 C :   -0.028916
  23 H :    0.025084
  24 H :    0.029609
  25 C :   -0.038520
  26 H :    0.021590
  27 H :    0.021530
  28 C :   -0.057673
  29 H :    0.035566
  30 H :    0.016265
  31 H :    0.021882
  32 H :    0.030730
  33 H :    0.018579

  Mayer bond orders larger than 0.100000
B(  0-S ,  1-C ) :   1.1154 B(  0-S ,  4-C ) :   1.1463 B(  1-C ,  2-C ) :   1.6153
B(  1-C ,  4-C ) :   0.1002 B(  1-C , 32-H ) :   0.9678 B(  2-C ,  3-C ) :   1.1923
B(  2-C ,  6-C ) :   1.0461 B(  3-C ,  4-C ) :   1.5913 B(  3-C ,  5-H ) :   1.0050
B(  4-C , 20-C ) :   1.0328 B(  6-C ,  7-H ) :   0.9401 B(  6-C ,  8-H ) :   0.9297
B(  6-C ,  9-C ) :   1.0314 B(  9-C , 10-H ) :   0.9609 B(  9-C , 11-H ) :   0.9566
B(  9-C , 12-C ) :   1.0836 B( 12-C , 13-H ) :   0.9755 B( 12-C , 14-H ) :   0.9741
B( 12-C , 15-H ) :   0.9731 B( 16-S , 17-C ) :   1.1737 B( 16-S , 20-C ) :   1.1571
B( 17-C , 18-C ) :   1.5736 B( 17-C , 20-C ) :   0.1112 B( 17-C , 33-H ) :   0.9757
B( 18-C , 19-C ) :   1.2422 B( 18-C , 21-H ) :   1.0052 B( 19-C , 20-C ) :   1.5552
B( 19-C , 22-C ) :   1.0381 B( 22-C , 23-H ) :   0.9219 B( 22-C , 24-H ) :   0.9329
B( 22-C , 25-C ) :   1.0856 B( 25-C , 26-H ) :   0.9548 B( 25-C , 27-H ) :   0.9569
B( 25-C , 28-C ) :   1.0685 B( 28-C , 29-H ) :   0.9699 B( 28-C , 30-H ) :   0.9772
B( 28-C , 31-H ) :   0.9749

Dispersion correction           -0.014956403
FINAL SINGLE POINT ENERGY     -1339.864069989289

DIPOLE MOMENT
-------------
                                X             Y             Z
Electronic contribution:      7.04310      19.26240       3.89267
Nuclear contribution   :     -7.18207     -19.68597      -3.79207
                        -----------------------------------------
Total Dipole Moment    :     -0.13897      -0.42356       0.10060
                        -----------------------------------------
Magnitude (a.u.)       :      0.45699
Magnitude (Debye)      :      1.16157

Rotational constants in cm-1:     0.019875     0.007863     0.007392
Rotational constants in MHz :   595.851157   235.725345   221.611872

                             ****ORCA TERMINATED NORMALLY****
TOTAL RUN TIME: 0 days 0 hours 0 minutes 20 seconds 729 msec
