                         Program Version 4.2.1 -  RELEASE  -
|  1> ! wB97X-D3 SP def2-SVP
|  2> %pal
|  3> nprocs 24
|  4> end
|  5>
|  6> * xyz 0 1
|  7> S 	 -118.884 	 35.4642 	 -120.402
|  8> C 	 -117.52 	 35.4378 	 -119.311
|  9> C 	 -117.928 	 35.3371 	 -118.012
| 10> C 	 -119.346 	 35.4537 	 -117.882
| 11> C 	 -120.003 	 35.5626 	 -119.1
| 12> H 	 -119.778 	 35.2736 	 -116.889
| 13> C 	 -117.028 	 35.3407 	 -116.813
| 14> H 	 -116.033 	 34.9228 	 -117.137
| 15> H 	 -117.446 	 34.7105 	 -116.039
| 16> C 	 -116.71 	 36.6859 	 -116.131
| 17> H 	 -115.848 	 36.6097 	 -115.463
| 18> H 	 -116.408 	 37.3815 	 -116.895
| 19> C 	 -117.9 	 37.4277 	 -115.602
| 20> H 	 -118.57 	 36.724 	 -115.046
| 21> H 	 -117.548 	 38.2094 	 -115.056
| 22> H 	 -118.484 	 37.6911 	 -116.439
| 23> S 	 -121.934 	 35.1935 	 -121.014
| 24> C 	 -123.598 	 35.3107 	 -120.576
| 25> C 	 -123.772 	 35.781 	 -119.308
| 26> C 	 -122.525 	 35.94 	 -118.571
| 27> C 	 -121.427 	 35.5675 	 -119.353
| 28> H 	 -124.758 	 36.0244 	 -118.941
| 29> C 	 -122.54 	 36.5699 	 -117.242
| 30> H 	 -121.505 	 36.7568 	 -117.048
| 31> H 	 -122.905 	 35.7871 	 -116.608
| 32> C 	 -123.253 	 37.9321 	 -117.22
| 33> H 	 -124.329 	 37.8834 	 -117.341
| 34> H 	 -122.962 	 38.5899 	 -118.068
| 35> C 	 -122.952 	 38.5756 	 -115.796
| 36> H 	 -123.776 	 39.2797 	 -115.622
| 37> H 	 -122.007 	 39.1377 	 -115.73
| 38> H 	 -122.94 	 37.827 	 -115.025
| 39> H 	 -116.48 	 35.3157 	 -119.576
| 40> H 	 -124.526 	 35.1159 	 -121.179
| 41> *
| 42>
| 43>                          ****END OF INPUT****

CARTESIAN COORDINATES (ANGSTROEM)
---------------------------------
  S    -118.884000   35.464200  -120.402000
  C    -117.520000   35.437800  -119.311000
  C    -117.928000   35.337100  -118.012000
  C    -119.346000   35.453700  -117.882000
  C    -120.003000   35.562600  -119.100000
  H    -119.778000   35.273600  -116.889000
  C    -117.028000   35.340700  -116.813000
  H    -116.033000   34.922800  -117.137000
  H    -117.446000   34.710500  -116.039000
  C    -116.710000   36.685900  -116.131000
  H    -115.848000   36.609700  -115.463000
  H    -116.408000   37.381500  -116.895000
  C    -117.900000   37.427700  -115.602000
  H    -118.570000   36.724000  -115.046000
  H    -117.548000   38.209400  -115.056000
  H    -118.484000   37.691100  -116.439000
  S    -121.934000   35.193500  -121.014000
  C    -123.598000   35.310700  -120.576000
  C    -123.772000   35.781000  -119.308000
  C    -122.525000   35.940000  -118.571000
  C    -121.427000   35.567500  -119.353000
  H    -124.758000   36.024400  -118.941000
  C    -122.540000   36.569900  -117.242000
  H    -121.505000   36.756800  -117.048000
  H    -122.905000   35.787100  -116.608000
  C    -123.253000   37.932100  -117.220000
  H    -124.329000   37.883400  -117.341000
  H    -122.962000   38.589900  -118.068000
  C    -122.952000   38.575600  -115.796000
  H    -123.776000   39.279700  -115.622000
  H    -122.007000   39.137700  -115.730000
  H    -122.940000   37.827000  -115.025000
  H    -116.480000   35.315700  -119.576000
  H    -124.526000   35.115900  -121.179000

 Total Charge           Charge          ....    0
 Multiplicity           Mult            ....    1
 Number of Electrons    NEL             ....  134
 Basis Dimension        Dim             ....  322

ORBITAL ENERGIES
----------------

  NO   OCC          E(Eh)            E(eV)
   0   2.0000     -88.967972     -2420.9416
   1   2.0000     -88.964875     -2420.8573
   2   2.0000     -10.331644      -281.1383
   3   2.0000     -10.328262      -281.0463
   4   2.0000     -10.317390      -280.7504
   5   2.0000     -10.310529      -280.5637
   6   2.0000     -10.302208      -280.3373
   7   2.0000     -10.295944      -280.1669
   8   2.0000     -10.294854      -280.1372
   9   2.0000     -10.293334      -280.0959
  10   2.0000     -10.293148      -280.0908
  11   2.0000     -10.290119      -280.0084
  12   2.0000     -10.285955      -279.8951
  13   2.0000     -10.281814      -279.7824
  14   2.0000     -10.279942      -279.7315
  15   2.0000     -10.265858      -279.3482
  16   2.0000      -8.083291      -219.9575
  17   2.0000      -8.079770      -219.8617
  18   2.0000      -6.041907      -164.4087
  19   2.0000      -6.038502      -164.3160
  20   2.0000      -6.037747      -164.2954
  21   2.0000      -6.034415      -164.2048
  22   2.0000      -6.033896      -164.1907
  23   2.0000      -6.030139      -164.0884
  24   2.0000      -1.011766       -27.5316
  25   2.0000      -0.986497       -26.8439
  26   2.0000      -0.918690       -24.9988
  27   2.0000      -0.913199       -24.8494
  28   2.0000      -0.874566       -23.7981
  29   2.0000      -0.853148       -23.2153
  30   2.0000      -0.843262       -22.9463
  31   2.0000      -0.816945       -22.2302
  32   2.0000      -0.785918       -21.3859
  33   2.0000      -0.771589       -20.9960
  34   2.0000      -0.712515       -19.3885
  35   2.0000      -0.702213       -19.1082
  36   2.0000      -0.697928       -18.9916
  37   2.0000      -0.658968       -17.9314
  38   2.0000      -0.632163       -17.2020
  39   2.0000      -0.622026       -16.9262
  40   2.0000      -0.591901       -16.1064
  41   2.0000      -0.573841       -15.6150
  42   2.0000      -0.568926       -15.4813
  43   2.0000      -0.562151       -15.2969
  44   2.0000      -0.543213       -14.7816
  45   2.0000      -0.527977       -14.3670
  46   2.0000      -0.515525       -14.0282
  47   2.0000      -0.513181       -13.9644
  48   2.0000      -0.504080       -13.7167
  49   2.0000      -0.502917       -13.6851
  50   2.0000      -0.493547       -13.4301
  51   2.0000      -0.477112       -12.9829
  52   2.0000      -0.470540       -12.8040
  53   2.0000      -0.469470       -12.7749
  54   2.0000      -0.464255       -12.6330
  55   2.0000      -0.455554       -12.3962
  56   2.0000      -0.444637       -12.0992
  57   2.0000      -0.441860       -12.0236
  58   2.0000      -0.431236       -11.7345
  59   2.0000      -0.426567       -11.6075
  60   2.0000      -0.421191       -11.4612
  61   2.0000      -0.411854       -11.2071
  62   2.0000      -0.406424       -11.0594
  63   2.0000      -0.364078        -9.9071
  64   2.0000      -0.334973        -9.1151
  65   2.0000      -0.324720        -8.8361
  66   2.0000      -0.281306        -7.6547
  67   0.0000       0.021499         0.5850
  68   0.0000       0.081592         2.2202
  69   0.0000       0.101666         2.7665
  70   0.0000       0.114615         3.1188
  71   0.0000       0.133870         3.6428

MULLIKEN ATOMIC CHARGES
-----------------------
   0 S :    0.101339
   1 C :   -0.103506
   2 C :   -0.103228
   3 C :   -0.027124
   4 C :   -0.096610
   5 H :    0.022031
   6 C :    0.040522
   7 H :    0.026138
   8 H :    0.025026
   9 C :   -0.065075
  10 H :    0.032708
  11 H :    0.011632
  12 C :   -0.006067
  13 H :    0.012609
  14 H :    0.022339
  15 H :    0.034893
  16 S :    0.089695
  17 C :   -0.080458
  18 C :   -0.044412
  19 C :   -0.101764
  20 C :   -0.112011
  21 H :    0.011951
  22 C :    0.112088
  23 H :    0.012859
  24 H :    0.039825
  25 C :   -0.104704
  26 H :    0.029048
  27 H :    0.047954
  28 C :   -0.048740
  29 H :    0.032499
  30 H :    0.046769
  31 H :    0.029088
  32 H :    0.041656
  33 H :    0.071030
Sum of atomic charges:    0.0000000

LOEWDIN ATOMIC CHARGES
----------------------
   0 S :    0.416709
   1 C :   -0.198123
   2 C :   -0.066858
   3 C :   -0.079146
   4 C :   -0.192536
   5 H :    0.032617
   6 C :   -0.033155
   7 H :    0.035461
   8 H :    0.026860
   9 C :   -0.040295
  10 H :    0.023378
  11 H :    0.023632
  12 C :   -0.052183
  13 H :    0.020398
  14 H :    0.015861
  15 H :    0.022862
  16 S :    0.391069
  17 C :   -0.197818
  18 C :   -0.075178
  19 C :   -0.050382
  20 C :   -0.190261
  21 H :    0.028237
  22 C :   -0.034974
  23 H :    0.029219
  24 H :    0.036435
  25 C :   -0.033577
  26 H :    0.018899
  27 H :    0.034499
  28 C :   -0.063391
  29 H :    0.026827
  30 H :    0.028904
  31 H :    0.021211
  32 H :    0.029105
  33 H :    0.045695

  Mayer bond orders larger than 0.100000
B(  0-S ,  1-C ) :   1.1249 B(  0-S ,  4-C ) :   1.1572 B(  1-C ,  2-C ) :   1.6213
B(  1-C , 32-H ) :   0.9650 B(  2-C ,  3-C ) :   1.2594 B(  2-C ,  6-C ) :   1.0430
B(  3-C ,  4-C ) :   1.5304 B(  3-C ,  5-H ) :   0.9856 B(  4-C , 20-C ) :   1.0964
B(  6-C ,  7-H ) :   0.9364 B(  6-C ,  8-H ) :   0.9375 B(  6-C ,  9-C ) :   1.0750
B(  9-C , 10-H ) :   0.9584 B(  9-C , 11-H ) :   0.9491 B(  9-C , 12-C ) :   1.0783
B( 12-C , 13-H ) :   0.9747 B( 12-C , 14-H ) :   0.9687 B( 12-C , 15-H ) :   0.9701
B( 16-S , 17-C ) :   1.1424 B( 16-S , 20-C ) :   1.1106 B( 17-C , 18-C ) :   1.6478
B( 17-C , 33-H ) :   0.9563 B( 18-C , 19-C ) :   1.2104 B( 18-C , 21-H ) :   0.9902
B( 19-C , 20-C ) :   1.6007 B( 19-C , 22-C ) :   1.0484 B( 22-C , 23-H ) :   0.9312
B( 22-C , 24-H ) :   0.9129 B( 22-C , 25-C ) :   1.0672 B( 25-C , 26-H ) :   0.9568
B( 25-C , 27-H ) :   0.9577 B( 25-C , 28-C ) :   1.0702 B( 28-C , 29-H ) :   0.9780
B( 28-C , 30-H ) :   0.9781 B( 28-C , 31-H ) :   0.9754

Dispersion correction           -0.014544368
FINAL SINGLE POINT ENERGY     -1339.872965814414

DIPOLE MOMENT
-------------
                                X             Y             Z
Electronic contribution:     -1.68914     -13.59013     -27.65289
Nuclear contribution   :      1.54817      13.83768      28.27172
                        -----------------------------------------
Total Dipole Moment    :     -0.14097       0.24755       0.61883
                        -----------------------------------------
Magnitude (a.u.)       :      0.68125
Magnitude (Debye)      :      1.73159

Rotational constants in cm-1:     0.016994     0.010404     0.006780
Rotational constants in MHz :   509.459942   311.899571   203.271684

                             ****ORCA TERMINATED NORMALLY****
TOTAL RUN TIME: 0 days 0 hours 0 minutes 22 seconds 356 msec
