                         Program Version 4.2.1 -  RELEASE  -
|  1> ! wB97X-D3 SP def2-SVP
|  2> %pal
|  3> nprocs 24
|  4> end
|  5>
|  6> * xyz 0 1
|  7> S 	 -40.0059 	 12.6545 	 -9.87031
|  8> C 	 -39.4135 	 11.3591 	 -10.7422
|  9> C 	 -38.517 	 10.6593 	 -9.95458
| 10> C 	 -38.5756 	 11.0522 	 -8.59846
| 11> C 	 -39.3646 	 12.1638 	 -8.41597
| 12> H 	 -38.0869 	 10.5965 	 -7.71661
| 13> C 	 -37.7676 	 9.44751 	 -10.4082
| 14> H 	 -38.334 	 8.99874 	 -11.1879
| 15> H 	 -37.831 	 8.75425 	 -9.58782
| 16> C 	 -36.3422 	 9.68818 	 -10.9031
| 17> H 	 -36.221 	 10.4876 	 -11.7391
| 18> H 	 -35.6726 	 9.96912 	 -10.0553
| 19> C 	 -35.6283 	 8.4473 	 -11.5144
| 20> H 	 -36.1296 	 7.90829 	 -12.3142
| 21> H 	 -34.662 	 8.67534 	 -11.9673
| 22> H 	 -35.5133 	 7.74319 	 -10.7053
| 23> S 	 -39.3623 	 14.7617 	 -7.26779
| 24> C 	 -40.1793 	 14.9306 	 -5.65013
| 25> C 	 -40.1467 	 13.6952 	 -5.04452
| 26> C 	 -39.8576 	 12.536 	 -5.91307
| 27> C 	 -39.5433 	 12.979 	 -7.22846
| 28> H 	 -40.4455 	 13.5395 	 -4.01247
| 29> C 	 -40.0148 	 11.0696 	 -5.46259
| 30> H 	 -39.9441 	 10.3671 	 -6.34789
| 31> H 	 -41.0754 	 10.8408 	 -5.18541
| 32> C 	 -39.023 	 10.6856 	 -4.31437
| 33> H 	 -39.3493 	 11.2194 	 -3.35035
| 34> H 	 -37.9981 	 11.173 	 -4.44902
| 35> C 	 -38.953 	 9.16448 	 -4.12087
| 36> H 	 -39.813 	 8.61378 	 -4.02583
| 37> H 	 -38.4795 	 8.86054 	 -3.14994
| 38> H 	 -38.3213 	 8.77847 	 -4.88464
| 39> H 	 -39.5979 	 11.1499 	 -11.8552
| 40> H 	 -40.4479 	 15.8401 	 -5.09657
| 41> *
| 42>
| 43>                          ****END OF INPUT****

CARTESIAN COORDINATES (ANGSTROEM)
---------------------------------
  S    -40.005900   12.654500   -9.870310
  C    -39.413500   11.359100  -10.742200
  C    -38.517000   10.659300   -9.954580
  C    -38.575600   11.052200   -8.598460
  C    -39.364600   12.163800   -8.415970
  H    -38.086900   10.596500   -7.716610
  C    -37.767600    9.447510  -10.408200
  H    -38.334000    8.998740  -11.187900
  H    -37.831000    8.754250   -9.587820
  C    -36.342200    9.688180  -10.903100
  H    -36.221000   10.487600  -11.739100
  H    -35.672600    9.969120  -10.055300
  C    -35.628300    8.447300  -11.514400
  H    -36.129600    7.908290  -12.314200
  H    -34.662000    8.675340  -11.967300
  H    -35.513300    7.743190  -10.705300
  S    -39.362300   14.761700   -7.267790
  C    -40.179300   14.930600   -5.650130
  C    -40.146700   13.695200   -5.044520
  C    -39.857600   12.536000   -5.913070
  C    -39.543300   12.979000   -7.228460
  H    -40.445500   13.539500   -4.012470
  C    -40.014800   11.069600   -5.462590
  H    -39.944100   10.367100   -6.347890
  H    -41.075400   10.840800   -5.185410
  C    -39.023000   10.685600   -4.314370
  H    -39.349300   11.219400   -3.350350
  H    -37.998100   11.173000   -4.449020
  C    -38.953000    9.164480   -4.120870
  H    -39.813000    8.613780   -4.025830
  H    -38.479500    8.860540   -3.149940
  H    -38.321300    8.778470   -4.884640
  H    -39.597900   11.149900  -11.855200
  H    -40.447900   15.840100   -5.096570

 Total Charge           Charge          ....    0
 Multiplicity           Mult            ....    1
 Number of Electrons    NEL             ....  134
 Basis Dimension        Dim             ....  322

ORBITAL ENERGIES
----------------

  NO   OCC          E(Eh)            E(eV)
   0   2.0000     -88.965266     -2420.8679
   1   2.0000     -88.963911     -2420.8311
   2   2.0000     -10.334005      -281.2026
   3   2.0000     -10.324289      -280.9382
   4   2.0000     -10.320040      -280.8226
   5   2.0000     -10.312971      -280.6302
   6   2.0000     -10.311030      -280.5774
   7   2.0000     -10.304332      -280.3951
   8   2.0000     -10.304066      -280.3879
   9   2.0000     -10.299334      -280.2591
  10   2.0000     -10.297538      -280.2103
  11   2.0000     -10.296939      -280.1939
  12   2.0000     -10.292443      -280.0716
  13   2.0000     -10.286923      -279.9214
  14   2.0000     -10.276320      -279.6329
  15   2.0000     -10.276169      -279.6288
  16   2.0000      -8.081797      -219.9169
  17   2.0000      -8.078210      -219.8193
  18   2.0000      -6.039963      -164.3558
  19   2.0000      -6.037115      -164.2783
  20   2.0000      -6.035590      -164.2368
  21   2.0000      -6.033190      -164.1715
  22   2.0000      -6.032956      -164.1651
  23   2.0000      -6.028404      -164.0412
  24   2.0000      -1.022864       -27.8336
  25   2.0000      -0.974938       -26.5294
  26   2.0000      -0.913281       -24.8516
  27   2.0000      -0.899684       -24.4816
  28   2.0000      -0.869986       -23.6735
  29   2.0000      -0.853994       -23.2384
  30   2.0000      -0.840717       -22.8771
  31   2.0000      -0.816000       -22.2045
  32   2.0000      -0.783976       -21.3331
  33   2.0000      -0.769649       -20.9432
  34   2.0000      -0.704279       -19.1644
  35   2.0000      -0.697877       -18.9902
  36   2.0000      -0.694124       -18.8881
  37   2.0000      -0.656505       -17.8644
  38   2.0000      -0.640142       -17.4191
  39   2.0000      -0.619828       -16.8664
  40   2.0000      -0.591338       -16.0911
  41   2.0000      -0.569971       -15.5097
  42   2.0000      -0.558581       -15.1998
  43   2.0000      -0.554321       -15.0838
  44   2.0000      -0.529285       -14.4026
  45   2.0000      -0.519698       -14.1417
  46   2.0000      -0.515829       -14.0364
  47   2.0000      -0.512465       -13.9449
  48   2.0000      -0.510824       -13.9002
  49   2.0000      -0.503393       -13.6980
  50   2.0000      -0.498215       -13.5571
  51   2.0000      -0.476391       -12.9632
  52   2.0000      -0.474225       -12.9043
  53   2.0000      -0.462565       -12.5870
  54   2.0000      -0.454988       -12.3809
  55   2.0000      -0.452879       -12.3235
  56   2.0000      -0.445398       -12.1199
  57   2.0000      -0.435228       -11.8432
  58   2.0000      -0.431696       -11.7470
  59   2.0000      -0.425770       -11.5858
  60   2.0000      -0.415859       -11.3161
  61   2.0000      -0.408840       -11.1251
  62   2.0000      -0.408149       -11.1063
  63   2.0000      -0.350605        -9.5404
  64   2.0000      -0.331380        -9.0173
  65   2.0000      -0.325799        -8.8654
  66   2.0000      -0.288738        -7.8569
  67   0.0000       0.026865         0.7310
  68   0.0000       0.074874         2.0374
  69   0.0000       0.101084         2.7506
  70   0.0000       0.121582         3.3084
  71   0.0000       0.128931         3.5084

MULLIKEN ATOMIC CHARGES
-----------------------
   0 S :    0.140685
   1 C :   -0.140401
   2 C :   -0.099343
   3 C :    0.018839
   4 C :   -0.174612
   5 H :    0.020781
   6 C :    0.105266
   7 H :    0.005101
   8 H :    0.016604
   9 C :   -0.108195
  10 H :    0.045721
  11 H :    0.038699
  12 C :   -0.051922
  13 H :    0.024276
  14 H :    0.035713
  15 H :    0.022941
  16 S :    0.092965
  17 C :   -0.105002
  18 C :   -0.017715
  19 C :   -0.037986
  20 C :   -0.133633
  21 H :    0.022516
  22 C :    0.026327
  23 H :    0.031147
  24 H :    0.041684
  25 C :   -0.122638
  26 H :    0.038019
  27 H :    0.050868
  28 C :   -0.010705
  29 H :    0.016465
  30 H :    0.027020
  31 H :    0.029820
  32 H :    0.079470
  33 H :    0.071225
Sum of atomic charges:   -0.0000000

LOEWDIN ATOMIC CHARGES
----------------------
   0 S :    0.488358
   1 C :   -0.237425
   2 C :   -0.067704
   3 C :   -0.069212
   4 C :   -0.228599
   5 H :    0.036427
   6 C :   -0.031771
   7 H :    0.026279
   8 H :    0.030205
   9 C :   -0.045165
  10 H :    0.033667
  11 H :    0.029123
  12 C :   -0.071972
  13 H :    0.020281
  14 H :    0.027717
  15 H :    0.020117
  16 S :    0.351338
  17 C :   -0.173464
  18 C :   -0.064865
  19 C :   -0.056438
  20 C :   -0.181280
  21 H :    0.028309
  22 C :   -0.043673
  23 H :    0.034017
  24 H :    0.036410
  25 C :   -0.049365
  26 H :    0.027501
  27 H :    0.034345
  28 C :   -0.065332
  29 H :    0.015188
  30 H :    0.034500
  31 H :    0.023831
  32 H :    0.049097
  33 H :    0.039556

  Mayer bond orders larger than 0.100000
B(  0-S ,  1-C ) :   1.1802 B(  0-S ,  4-C ) :   1.2040 B(  1-C ,  2-C ) :   1.5485
B(  1-C , 32-H ) :   0.9612 B(  2-C ,  3-C ) :   1.2923 B(  2-C ,  6-C ) :   1.0279
B(  3-C ,  4-C ) :   1.5061 B(  3-C ,  5-H ) :   0.9934 B(  4-C , 20-C ) :   1.0524
B(  6-C ,  7-H ) :   0.9386 B(  6-C ,  8-H ) :   0.9390 B(  6-C ,  9-C ) :   1.0563
B(  9-C , 10-H ) :   0.9612 B(  9-C , 11-H ) :   0.9556 B(  9-C , 12-C ) :   1.0741
B( 12-C , 13-H ) :   0.9763 B( 12-C , 14-H ) :   0.9763 B( 12-C , 15-H ) :   0.9761
B( 16-S , 17-C ) :   1.1014 B( 16-S , 20-C ) :   1.1268 B( 17-C , 18-C ) :   1.6578
B( 17-C , 33-H ) :   0.9666 B( 18-C , 19-C ) :   1.2086 B( 18-C , 21-H ) :   0.9793
B( 19-C , 20-C ) :   1.6018 B( 19-C , 22-C ) :   1.0438 B( 22-C , 23-H ) :   0.9436
B( 22-C , 24-H ) :   0.9349 B( 22-C , 25-C ) :   1.0282 B( 25-C , 26-H ) :   0.9554
B( 25-C , 27-H ) :   0.9621 B( 25-C , 28-C ) :   1.0755 B( 28-C , 29-H ) :   0.9740
B( 28-C , 30-H ) :   0.9707 B( 28-C , 31-H ) :   0.9766

Dispersion correction           -0.013647196
FINAL SINGLE POINT ENERGY     -1339.858906942552

DIPOLE MOMENT
-------------
                                X             Y             Z
Electronic contribution:    -12.98767      26.89476      -4.75879
Nuclear contribution   :     13.08309     -27.56435       5.01891
                        -----------------------------------------
Total Dipole Moment    :      0.09543      -0.66959       0.26011
                        -----------------------------------------
Magnitude (a.u.)       :      0.72465
Magnitude (Debye)      :      1.84190

Rotational constants in cm-1:     0.017549     0.008294     0.006195
Rotational constants in MHz :   526.105282   248.640368   185.713752

                             ****ORCA TERMINATED NORMALLY****
TOTAL RUN TIME: 0 days 0 hours 0 minutes 20 seconds 877 msec
