                         Program Version 4.2.1 -  RELEASE  -
|  1> ! wB97X-D3 SP def2-SVP
|  2> %pal
|  3> nprocs 24
|  4> end
|  5>
|  6> * xyz 0 1
|  7> S 	 -111.897 	 15.5716 	 -113.839
|  8> C 	 -111.044 	 16.5569 	 -114.999
|  9> C 	 -111.694 	 16.4906 	 -116.193
| 10> C 	 -112.901 	 15.8563 	 -116.158
| 11> C 	 -113.197 	 15.2226 	 -114.972
| 12> H 	 -113.61 	 15.8367 	 -116.982
| 13> C 	 -111.224 	 17.1207 	 -117.45
| 14> H 	 -111.089 	 16.299 	 -118.189
| 15> H 	 -110.224 	 17.4776 	 -117.207
| 16> C 	 -112.213 	 18.1669 	 -117.972
| 17> H 	 -113.144 	 17.6183 	 -118.241
| 18> H 	 -112.316 	 18.8503 	 -117.048
| 19> C 	 -111.659 	 18.9316 	 -119.185
| 20> H 	 -111.788 	 18.2949 	 -120.057
| 21> H 	 -112.147 	 19.8807 	 -119.379
| 22> H 	 -110.588 	 19.251 	 -119.104
| 23> S 	 -113.959 	 12.681 	 -114.236
| 24> C 	 -115.651 	 12.3291 	 -114.188
| 25> C 	 -116.469 	 13.3811 	 -114.526
| 26> C 	 -115.704 	 14.5479 	 -114.792
| 27> C 	 -114.328 	 14.3352 	 -114.783
| 28> H 	 -117.523 	 13.3523 	 -114.532
| 29> C 	 -116.353 	 15.8963 	 -114.97
| 30> H 	 -115.687 	 16.7601 	 -114.82
| 31> H 	 -116.93 	 15.9919 	 -114.082
| 32> C 	 -117.335 	 16.0689 	 -116.098
| 33> H 	 -117.689 	 17.0719 	 -116.007
| 34> H 	 -118.148 	 15.3823 	 -115.999
| 35> C 	 -116.744 	 15.9324 	 -117.516
| 36> H 	 -115.898 	 16.582 	 -117.687
| 37> H 	 -117.572 	 16.2163 	 -118.28
| 38> H 	 -116.511 	 14.9203 	 -117.77
| 39> H 	 -110.064 	 17.0343 	 -114.799
| 40> H 	 -116.049 	 11.3823 	 -113.896
| 41> *
| 42>
| 43>                          ****END OF INPUT****

CARTESIAN COORDINATES (ANGSTROEM)
---------------------------------
  S    -111.897000   15.571600  -113.839000
  C    -111.044000   16.556900  -114.999000
  C    -111.694000   16.490600  -116.193000
  C    -112.901000   15.856300  -116.158000
  C    -113.197000   15.222600  -114.972000
  H    -113.610000   15.836700  -116.982000
  C    -111.224000   17.120700  -117.450000
  H    -111.089000   16.299000  -118.189000
  H    -110.224000   17.477600  -117.207000
  C    -112.213000   18.166900  -117.972000
  H    -113.144000   17.618300  -118.241000
  H    -112.316000   18.850300  -117.048000
  C    -111.659000   18.931600  -119.185000
  H    -111.788000   18.294900  -120.057000
  H    -112.147000   19.880700  -119.379000
  H    -110.588000   19.251000  -119.104000
  S    -113.959000   12.681000  -114.236000
  C    -115.651000   12.329100  -114.188000
  C    -116.469000   13.381100  -114.526000
  C    -115.704000   14.547900  -114.792000
  C    -114.328000   14.335200  -114.783000
  H    -117.523000   13.352300  -114.532000
  C    -116.353000   15.896300  -114.970000
  H    -115.687000   16.760100  -114.820000
  H    -116.930000   15.991900  -114.082000
  C    -117.335000   16.068900  -116.098000
  H    -117.689000   17.071900  -116.007000
  H    -118.148000   15.382300  -115.999000
  C    -116.744000   15.932400  -117.516000
  H    -115.898000   16.582000  -117.687000
  H    -117.572000   16.216300  -118.280000
  H    -116.511000   14.920300  -117.770000
  H    -110.064000   17.034300  -114.799000
  H    -116.049000   11.382300  -113.896000

 Total Charge           Charge          ....    0
 Multiplicity           Mult            ....    1
 Number of Electrons    NEL             ....  134
 Basis Dimension        Dim             ....  322

ORBITAL ENERGIES
----------------

  NO   OCC          E(Eh)            E(eV)
   0   2.0000     -88.964888     -2420.8577
   1   2.0000     -88.964007     -2420.8337
   2   2.0000     -10.325636      -280.9748
   3   2.0000     -10.324944      -280.9560
   4   2.0000     -10.315336      -280.6946
   5   2.0000     -10.312457      -280.6162
   6   2.0000     -10.302387      -280.3422
   7   2.0000     -10.297793      -280.2172
   8   2.0000     -10.290501      -280.0188
   9   2.0000     -10.286911      -279.9211
  10   2.0000     -10.285448      -279.8813
  11   2.0000     -10.284422      -279.8534
  12   2.0000     -10.282847      -279.8105
  13   2.0000     -10.282328      -279.7964
  14   2.0000     -10.281484      -279.7734
  15   2.0000     -10.280399      -279.7439
  16   2.0000      -8.079693      -219.8596
  17   2.0000      -8.078624      -219.8305
  18   2.0000      -6.038133      -164.3059
  19   2.0000      -6.037106      -164.2780
  20   2.0000      -6.034262      -164.2006
  21   2.0000      -6.033068      -164.1681
  22   2.0000      -6.030454      -164.0970
  23   2.0000      -6.029492      -164.0708
  24   2.0000      -1.009546       -27.4711
  25   2.0000      -0.989037       -26.9131
  26   2.0000      -0.915159       -24.9027
  27   2.0000      -0.913372       -24.8541
  28   2.0000      -0.870216       -23.6798
  29   2.0000      -0.850989       -23.1566
  30   2.0000      -0.847529       -23.0624
  31   2.0000      -0.815462       -22.1899
  32   2.0000      -0.785475       -21.3739
  33   2.0000      -0.771159       -20.9843
  34   2.0000      -0.712568       -19.3899
  35   2.0000      -0.696712       -18.9585
  36   2.0000      -0.691285       -18.8108
  37   2.0000      -0.661943       -18.0124
  38   2.0000      -0.638413       -17.3721
  39   2.0000      -0.624463       -16.9925
  40   2.0000      -0.603214       -16.4143
  41   2.0000      -0.573870       -15.6158
  42   2.0000      -0.561891       -15.2898
  43   2.0000      -0.552087       -15.0231
  44   2.0000      -0.544348       -14.8125
  45   2.0000      -0.521325       -14.1860
  46   2.0000      -0.518116       -14.0987
  47   2.0000      -0.511949       -13.9308
  48   2.0000      -0.502091       -13.6626
  49   2.0000      -0.499010       -13.5787
  50   2.0000      -0.489188       -13.3115
  51   2.0000      -0.481836       -13.1114
  52   2.0000      -0.474465       -12.9109
  53   2.0000      -0.469761       -12.7828
  54   2.0000      -0.463377       -12.6091
  55   2.0000      -0.450973       -12.2716
  56   2.0000      -0.439337       -11.9550
  57   2.0000      -0.436482       -11.8773
  58   2.0000      -0.430897       -11.7253
  59   2.0000      -0.424401       -11.5485
  60   2.0000      -0.421670       -11.4742
  61   2.0000      -0.415386       -11.3032
  62   2.0000      -0.412372       -11.2212
  63   2.0000      -0.342669        -9.3245
  64   2.0000      -0.331954        -9.0329
  65   2.0000      -0.329577        -8.9682
  66   2.0000      -0.292572        -7.9613
  67   0.0000       0.035020         0.9529
  68   0.0000       0.067026         1.8239
  69   0.0000       0.118188         3.2161
  70   0.0000       0.121399         3.3034
  71   0.0000       0.132246         3.5986

MULLIKEN ATOMIC CHARGES
-----------------------
   0 S :    0.107827
   1 C :   -0.149051
   2 C :   -0.066467
   3 C :    0.022971
   4 C :   -0.143153
   5 H :   -0.004838
   6 C :    0.080720
   7 H :    0.035065
   8 H :    0.004508
   9 C :   -0.127117
  10 H :    0.051036
  11 H :    0.049632
  12 C :   -0.031997
  13 H :    0.031927
  14 H :    0.033137
  15 H :    0.033519
  16 S :    0.108712
  17 C :   -0.070739
  18 C :   -0.016270
  19 C :   -0.021800
  20 C :   -0.184841
  21 H :    0.001908
  22 C :    0.065893
  23 H :    0.029502
  24 H :    0.016384
  25 C :   -0.041461
  26 H :    0.023820
  27 H :    0.020918
  28 C :   -0.073696
  29 H :    0.033947
  30 H :    0.037981
  31 H :    0.036322
  32 H :    0.060725
  33 H :    0.044978
Sum of atomic charges:    0.0000000

LOEWDIN ATOMIC CHARGES
----------------------
   0 S :    0.402741
   1 C :   -0.204222
   2 C :   -0.077889
   3 C :   -0.060880
   4 C :   -0.194400
   5 H :    0.029034
   6 C :   -0.033163
   7 H :    0.033041
   8 H :    0.024193
   9 C :   -0.045156
  10 H :    0.028718
  11 H :    0.035932
  12 C :   -0.071566
  13 H :    0.026273
  14 H :    0.025219
  15 H :    0.030440
  16 S :    0.401968
  17 C :   -0.176029
  18 C :   -0.068105
  19 C :   -0.047950
  20 C :   -0.192350
  21 H :    0.025517
  22 C :   -0.037864
  23 H :    0.034913
  24 H :    0.033623
  25 C :   -0.034112
  26 H :    0.025499
  27 H :    0.019249
  28 C :   -0.068375
  29 H :    0.018968
  30 H :    0.036192
  31 H :    0.020586
  32 H :    0.037195
  33 H :    0.022761

  Mayer bond orders larger than 0.100000
B(  0-S ,  1-C ) :   1.1362 B(  0-S ,  4-C ) :   1.1558 B(  1-C ,  2-C ) :   1.5830
B(  1-C , 32-H ) :   0.9638 B(  2-C ,  3-C ) :   1.2702 B(  2-C ,  6-C ) :   1.0276
B(  3-C ,  4-C ) :   1.5447 B(  3-C ,  5-H ) :   0.9967 B(  4-C , 20-C ) :   1.0552
B(  6-C ,  7-H ) :   0.9296 B(  6-C ,  8-H ) :   0.9376 B(  6-C ,  9-C ) :   1.0530
B(  9-C , 10-H ) :   0.9502 B(  9-C , 11-H ) :   0.9581 B(  9-C , 12-C ) :   1.0808
B( 12-C , 13-H ) :   0.9732 B( 12-C , 14-H ) :   0.9755 B( 12-C , 15-H ) :   0.9746
B( 16-S , 17-C ) :   1.1673 B( 16-S , 20-C ) :   1.1214 B( 17-C , 18-C ) :   1.6032
B( 17-C , 33-H ) :   0.9674 B( 18-C , 19-C ) :   1.2377 B( 18-C , 21-H ) :   0.9973
B( 19-C , 20-C ) :   1.6038 B( 19-C , 22-C ) :   1.0352 B( 22-C , 23-H ) :   0.9349
B( 22-C , 24-H ) :   0.9220 B( 22-C , 25-C ) :   1.0885 B( 25-C , 26-H ) :   0.9494
B( 25-C , 27-H ) :   0.9535 B( 25-C , 28-C ) :   1.0827 B( 28-C , 29-H ) :   0.9711
B( 28-C , 30-H ) :   0.9720 B( 28-C , 31-H ) :   0.9739

Dispersion correction           -0.014809616
FINAL SINGLE POINT ENERGY     -1339.885031118747

DIPOLE MOMENT
-------------
                                X             Y             Z
Electronic contribution:      8.23114     -19.25075      22.34418
Nuclear contribution   :     -8.59713      19.61648     -22.72590
                        -----------------------------------------
Total Dipole Moment    :     -0.36599       0.36573      -0.38172
                        -----------------------------------------
Magnitude (a.u.)       :      0.64297
Magnitude (Debye)      :      1.63430

Rotational constants in cm-1:     0.018314     0.009468     0.006908
Rotational constants in MHz :   549.024951   283.853967   207.090075

                             ****ORCA TERMINATED NORMALLY****
TOTAL RUN TIME: 0 days 0 hours 0 minutes 22 seconds 536 msec
