                         Program Version 4.2.1 -  RELEASE  -
|  1> ! wB97X-D3 SP def2-SVP
|  2> %pal
|  3> nprocs 24
|  4> end
|  5>
|  6> * xyz 0 1
|  7> S 	 -119.219 	 59.8764 	 -37.6194
|  8> C 	 -119.762 	 61.5504 	 -37.4976
|  9> C 	 -120.217 	 61.8329 	 -36.2497
| 10> C 	 -120.166 	 60.7334 	 -35.3416
| 11> C 	 -119.491 	 59.6835 	 -35.8548
| 12> H 	 -120.414 	 60.7711 	 -34.3021
| 13> C 	 -120.775 	 63.2096 	 -35.8258
| 14> H 	 -120.259 	 63.9475 	 -36.3333
| 15> H 	 -120.639 	 63.2233 	 -34.7279
| 16> C 	 -122.266 	 63.5543 	 -36.0498
| 17> H 	 -122.412 	 64.5833 	 -35.851
| 18> H 	 -122.534 	 63.5479 	 -37.0949
| 19> C 	 -123.318 	 62.704 	 -35.3197
| 20> H 	 -123.259 	 62.9412 	 -34.2705
| 21> H 	 -124.386 	 63.0545 	 -35.478
| 22> H 	 -123.383 	 61.6226 	 -35.5797
| 23> S 	 -118.501 	 58.7382 	 -33.5164
| 24> C 	 -118.317 	 57.0156 	 -33.2705
| 25> C 	 -118.748 	 56.2887 	 -34.3639
| 26> C 	 -119.185 	 57.1536 	 -35.432
| 27> C 	 -119.218 	 58.4842 	 -35.0868
| 28> H 	 -118.833 	 55.1933 	 -34.433
| 29> C 	 -119.665 	 56.5253 	 -36.766
| 30> H 	 -120.427 	 57.2075 	 -37.2749
| 31> H 	 -120.318 	 55.7182 	 -36.5125
| 32> C 	 -118.526 	 55.8875 	 -37.6116
| 33> H 	 -119.031 	 55.0655 	 -38.1451
| 34> H 	 -117.734 	 55.5614 	 -36.8969
| 35> C 	 -117.911 	 56.8629 	 -38.6835
| 36> H 	 -118.652 	 57.2754 	 -39.3527
| 37> H 	 -117.186 	 56.2977 	 -39.3006
| 38> H 	 -117.265 	 57.5591 	 -38.2181
| 39> H 	 -119.952 	 62.2887 	 -38.29
| 40> H 	 -117.759 	 56.5468 	 -32.4876
| 41> *
| 42>
| 43>                          ****END OF INPUT****

CARTESIAN COORDINATES (ANGSTROEM)
---------------------------------
  S    -119.219000   59.876400  -37.619400
  C    -119.762000   61.550400  -37.497600
  C    -120.217000   61.832900  -36.249700
  C    -120.166000   60.733400  -35.341600
  C    -119.491000   59.683500  -35.854800
  H    -120.414000   60.771100  -34.302100
  C    -120.775000   63.209600  -35.825800
  H    -120.259000   63.947500  -36.333300
  H    -120.639000   63.223300  -34.727900
  C    -122.266000   63.554300  -36.049800
  H    -122.412000   64.583300  -35.851000
  H    -122.534000   63.547900  -37.094900
  C    -123.318000   62.704000  -35.319700
  H    -123.259000   62.941200  -34.270500
  H    -124.386000   63.054500  -35.478000
  H    -123.383000   61.622600  -35.579700
  S    -118.501000   58.738200  -33.516400
  C    -118.317000   57.015600  -33.270500
  C    -118.748000   56.288700  -34.363900
  C    -119.185000   57.153600  -35.432000
  C    -119.218000   58.484200  -35.086800
  H    -118.833000   55.193300  -34.433000
  C    -119.665000   56.525300  -36.766000
  H    -120.427000   57.207500  -37.274900
  H    -120.318000   55.718200  -36.512500
  C    -118.526000   55.887500  -37.611600
  H    -119.031000   55.065500  -38.145100
  H    -117.734000   55.561400  -36.896900
  C    -117.911000   56.862900  -38.683500
  H    -118.652000   57.275400  -39.352700
  H    -117.186000   56.297700  -39.300600
  H    -117.265000   57.559100  -38.218100
  H    -119.952000   62.288700  -38.290000
  H    -117.759000   56.546800  -32.487600

 Total Charge           Charge          ....    0
 Multiplicity           Mult            ....    1
 Number of Electrons    NEL             ....  134
 Basis Dimension        Dim             ....  322

ORBITAL ENERGIES
----------------

  NO   OCC          E(Eh)            E(eV)
   0   2.0000     -88.967880     -2420.9391
   1   2.0000     -88.966887     -2420.9121
   2   2.0000     -10.328569      -281.0547
   3   2.0000     -10.323346      -280.9125
   4   2.0000     -10.317738      -280.7599
   5   2.0000     -10.310617      -280.5662
   6   2.0000     -10.301766      -280.3253
   7   2.0000     -10.297765      -280.2164
   8   2.0000     -10.295969      -280.1676
   9   2.0000     -10.293766      -280.1076
  10   2.0000     -10.293150      -280.0909
  11   2.0000     -10.289959      -280.0040
  12   2.0000     -10.286702      -279.9154
  13   2.0000     -10.282953      -279.8134
  14   2.0000     -10.280929      -279.7583
  15   2.0000     -10.272026      -279.5160
  16   2.0000      -8.081682      -219.9138
  17   2.0000      -8.080879      -219.8919
  18   2.0000      -6.040252      -164.3636
  19   2.0000      -6.039663      -164.3476
  20   2.0000      -6.036220      -164.2539
  21   2.0000      -6.035795      -164.2423
  22   2.0000      -6.032333      -164.1481
  23   2.0000      -6.031246      -164.1186
  24   2.0000      -1.007454       -27.4142
  25   2.0000      -0.983290       -26.7567
  26   2.0000      -0.906181       -24.6584
  27   2.0000      -0.899525       -24.4773
  28   2.0000      -0.872482       -23.7414
  29   2.0000      -0.847109       -23.0510
  30   2.0000      -0.841103       -22.8876
  31   2.0000      -0.815048       -22.1786
  32   2.0000      -0.784076       -21.3358
  33   2.0000      -0.772228       -21.0134
  34   2.0000      -0.706288       -19.2191
  35   2.0000      -0.702479       -19.1154
  36   2.0000      -0.689452       -18.7609
  37   2.0000      -0.665474       -18.1085
  38   2.0000      -0.633159       -17.2291
  39   2.0000      -0.611265       -16.6334
  40   2.0000      -0.598312       -16.2809
  41   2.0000      -0.568842       -15.4790
  42   2.0000      -0.551100       -14.9962
  43   2.0000      -0.547250       -14.8914
  44   2.0000      -0.541562       -14.7366
  45   2.0000      -0.531143       -14.4531
  46   2.0000      -0.520924       -14.1751
  47   2.0000      -0.505409       -13.7529
  48   2.0000      -0.496589       -13.5129
  49   2.0000      -0.493523       -13.4294
  50   2.0000      -0.488725       -13.2989
  51   2.0000      -0.479492       -13.0476
  52   2.0000      -0.467813       -12.7298
  53   2.0000      -0.465449       -12.6655
  54   2.0000      -0.461338       -12.5536
  55   2.0000      -0.448376       -12.2009
  56   2.0000      -0.443343       -12.0640
  57   2.0000      -0.437806       -11.9133
  58   2.0000      -0.433231       -11.7888
  59   2.0000      -0.422759       -11.5039
  60   2.0000      -0.415260       -11.2998
  61   2.0000      -0.411676       -11.2023
  62   2.0000      -0.402967       -10.9653
  63   2.0000      -0.356312        -9.6958
  64   2.0000      -0.331283        -9.0147
  65   2.0000      -0.328916        -8.9503
  66   2.0000      -0.289616        -7.8809
  67   0.0000       0.028603         0.7783
  68   0.0000       0.074210         2.0194
  69   0.0000       0.102936         2.8010
  70   0.0000       0.112839         3.0705
  71   0.0000       0.129896         3.5346

MULLIKEN ATOMIC CHARGES
-----------------------
   0 S :    0.102344
   1 C :   -0.111119
   2 C :   -0.096014
   3 C :   -0.003199
   4 C :   -0.094588
   5 H :    0.013815
   6 C :    0.110911
   7 H :    0.008842
   8 H :    0.022720
   9 C :   -0.040899
  10 H :    0.015023
  11 H :    0.010195
  12 C :   -0.084435
  13 H :    0.023459
  14 H :    0.026173
  15 H :    0.059048
  16 S :    0.102143
  17 C :   -0.077733
  18 C :   -0.035244
  19 C :   -0.077559
  20 C :   -0.147965
  21 H :    0.032254
  22 C :    0.025564
  23 H :    0.040500
  24 H :    0.016014
  25 C :   -0.084525
  26 H :    0.035386
  27 H :    0.044411
  28 C :   -0.032351
  29 H :    0.038854
  30 H :    0.024452
  31 H :    0.029400
  32 H :    0.048977
  33 H :    0.055145
Sum of atomic charges:    0.0000000

LOEWDIN ATOMIC CHARGES
----------------------
   0 S :    0.395107
   1 C :   -0.200524
   2 C :   -0.063201
   3 C :   -0.066491
   4 C :   -0.167976
   5 H :    0.027074
   6 C :   -0.019496
   7 H :    0.022223
   8 H :    0.033230
   9 C :   -0.040700
  10 H :    0.021846
  11 H :    0.019071
  12 C :   -0.079942
  13 H :    0.021017
  14 H :    0.032986
  15 H :    0.033632
  16 S :    0.413365
  17 C :   -0.184061
  18 C :   -0.069956
  19 C :   -0.062414
  20 C :   -0.197362
  21 H :    0.036612
  22 C :   -0.046055
  23 H :    0.032946
  24 H :    0.026648
  25 C :   -0.036403
  26 H :    0.025975
  27 H :    0.031640
  28 C :   -0.068979
  29 H :    0.021852
  30 H :    0.027344
  31 H :    0.016725
  32 H :    0.036246
  33 H :    0.028020

  Mayer bond orders larger than 0.100000
B(  0-S ,  1-C ) :   1.1048 B(  0-S ,  4-C ) :   1.1158 B(  1-C ,  2-C ) :   1.6687
B(  1-C , 32-H ) :   0.9583 B(  2-C ,  3-C ) :   1.2115 B(  2-C ,  6-C ) :   1.0175
B(  3-C ,  4-C ) :   1.5856 B(  3-C ,  5-H ) :   0.9945 B(  4-C , 20-C ) :   1.0602
B(  6-C ,  7-H ) :   0.9337 B(  6-C ,  8-H ) :   0.9414 B(  6-C ,  9-C ) :   1.0777
B(  9-C , 10-H ) :   0.9513 B(  9-C , 11-H ) :   0.9525 B(  9-C , 12-C ) :   1.0797
B( 12-C , 13-H ) :   0.9746 B( 12-C , 14-H ) :   0.9702 B( 12-C , 15-H ) :   0.9753
B( 16-S , 17-C ) :   1.1513 B( 16-S , 20-C ) :   1.1298 B( 17-C , 18-C ) :   1.6083
B( 17-C , 33-H ) :   0.9680 B( 18-C , 19-C ) :   1.2409 B( 18-C , 21-H ) :   0.9815
B( 19-C , 20-C ) :   1.6146 B( 19-C , 22-C ) :   1.0324 B( 22-C , 23-H ) :   0.9423
B( 22-C , 24-H ) :   0.9385 B( 22-C , 25-C ) :   1.0428 B( 25-C , 26-H ) :   0.9590
B( 25-C , 27-H ) :   0.9579 B( 25-C , 28-C ) :   1.0835 B( 28-C , 29-H ) :   0.9761
B( 28-C , 30-H ) :   0.9717 B( 28-C , 31-H ) :   0.9736

Dispersion correction           -0.014764989
FINAL SINGLE POINT ENERGY     -1339.869718363315

DIPOLE MOMENT
-------------
                                X             Y             Z
Electronic contribution:     10.55455      -3.31693       8.06172
Nuclear contribution   :    -10.81132       3.28667      -8.10932
                        -----------------------------------------
Total Dipole Moment    :     -0.25677      -0.03026      -0.04761
                        -----------------------------------------
Magnitude (a.u.)       :      0.26289
Magnitude (Debye)      :      0.66822

Rotational constants in cm-1:     0.021102     0.008542     0.006863
Rotational constants in MHz :   632.621627   256.080242   205.743686

                             ****ORCA TERMINATED NORMALLY****
TOTAL RUN TIME: 0 days 0 hours 0 minutes 22 seconds 618 msec
