                         Program Version 4.2.1 -  RELEASE  -
|  1> ! wB97X-D3 SP def2-SVP
|  2> %pal
|  3> nprocs 24
|  4> end
|  5>
|  6> * xyz 0 1
|  7> S 	 -75.0012 	 1.58736 	 -60.9497
|  8> C 	 -76.0945 	 2.00224 	 -59.6253
|  9> C 	 -76.8663 	 0.882237 	 -59.2137
| 10> C 	 -76.4961 	 -0.298366 	 -60.0108
| 11> C 	 -75.4656 	 -0.0992284 	 -60.8859
| 12> H 	 -76.9896 	 -1.27523 	 -59.7259
| 13> C 	 -77.8925 	 0.920261 	 -58.0704
| 14> H 	 -77.6616 	 1.61738 	 -57.3014
| 15> H 	 -77.9994 	 -0.0865733 	 -57.6427
| 16> C 	 -79.2351 	 1.35884 	 -58.6515
| 17> H 	 -79.0094 	 2.40838 	 -58.9635
| 18> H 	 -79.6231 	 0.80103 	 -59.426
| 19> C 	 -80.3184 	 1.34187 	 -57.5219
| 20> H 	 -79.9814 	 1.80765 	 -56.5433
| 21> H 	 -81.2211 	 1.77316 	 -57.9316
| 22> H 	 -80.5872 	 0.348864 	 -57.2895
| 23> S 	 -75.2698 	 -0.603163 	 -63.5355
| 24> C 	 -74.1378 	 -1.79383 	 -64.0021
| 25> C 	 -73.7668 	 -2.68619 	 -63.009
| 26> C 	 -74.2452 	 -2.25835 	 -61.7696
| 27> C 	 -74.897 	 -1.03265 	 -61.8658
| 28> H 	 -72.9707 	 -3.48104 	 -63.1023
| 29> C 	 -73.8887 	 -3.07131 	 -60.5468
| 30> H 	 -73.4751 	 -3.96989 	 -60.8723
| 31> H 	 -74.6961 	 -3.22197 	 -59.7946
| 32> C 	 -72.6939 	 -2.38385 	 -59.7946
| 33> H 	 -73.1559 	 -1.53129 	 -59.3848
| 34> H 	 -71.9719 	 -1.98965 	 -60.4101
| 35> C 	 -71.9255 	 -3.21233 	 -58.7266
| 36> H 	 -72.6239 	 -3.45476 	 -57.9491
| 37> H 	 -71.2016 	 -2.60969 	 -58.2217
| 38> H 	 -71.4159 	 -4.06879 	 -59.2067
| 39> H 	 -76.1397 	 2.91958 	 -59.0344
| 40> H 	 -73.7183 	 -1.77475 	 -65.0603
| 41> *
| 42>
| 43>                          ****END OF INPUT****

CARTESIAN COORDINATES (ANGSTROEM)
---------------------------------
  S    -75.001200    1.587360  -60.949700
  C    -76.094500    2.002240  -59.625300
  C    -76.866300    0.882237  -59.213700
  C    -76.496100   -0.298366  -60.010800
  C    -75.465600   -0.099228  -60.885900
  H    -76.989600   -1.275230  -59.725900
  C    -77.892500    0.920261  -58.070400
  H    -77.661600    1.617380  -57.301400
  H    -77.999400   -0.086573  -57.642700
  C    -79.235100    1.358840  -58.651500
  H    -79.009400    2.408380  -58.963500
  H    -79.623100    0.801030  -59.426000
  C    -80.318400    1.341870  -57.521900
  H    -79.981400    1.807650  -56.543300
  H    -81.221100    1.773160  -57.931600
  H    -80.587200    0.348864  -57.289500
  S    -75.269800   -0.603163  -63.535500
  C    -74.137800   -1.793830  -64.002100
  C    -73.766800   -2.686190  -63.009000
  C    -74.245200   -2.258350  -61.769600
  C    -74.897000   -1.032650  -61.865800
  H    -72.970700   -3.481040  -63.102300
  C    -73.888700   -3.071310  -60.546800
  H    -73.475100   -3.969890  -60.872300
  H    -74.696100   -3.221970  -59.794600
  C    -72.693900   -2.383850  -59.794600
  H    -73.155900   -1.531290  -59.384800
  H    -71.971900   -1.989650  -60.410100
  C    -71.925500   -3.212330  -58.726600
  H    -72.623900   -3.454760  -57.949100
  H    -71.201600   -2.609690  -58.221700
  H    -71.415900   -4.068790  -59.206700
  H    -76.139700    2.919580  -59.034400
  H    -73.718300   -1.774750  -65.060300

 Total Charge           Charge          ....    0
 Multiplicity           Mult            ....    1
 Number of Electrons    NEL             ....  134
 Basis Dimension        Dim             ....  322

ORBITAL ENERGIES
----------------

  NO   OCC          E(Eh)            E(eV)
   0   2.0000     -88.967155     -2420.9194
   1   2.0000     -88.965675     -2420.8791
   2   2.0000     -10.328716      -281.0587
   3   2.0000     -10.323283      -280.9108
   4   2.0000     -10.317785      -280.7612
   5   2.0000     -10.317378      -280.7501
   6   2.0000     -10.307472      -280.4806
   7   2.0000     -10.301511      -280.3184
   8   2.0000     -10.301390      -280.3151
   9   2.0000     -10.294416      -280.1253
  10   2.0000     -10.294014      -280.1144
  11   2.0000     -10.290320      -280.0138
  12   2.0000     -10.284144      -279.8458
  13   2.0000     -10.278700      -279.6976
  14   2.0000     -10.274947      -279.5955
  15   2.0000     -10.271016      -279.4885
  16   2.0000      -8.081331      -219.9042
  17   2.0000      -8.081295      -219.9032
  18   2.0000      -6.039980      -164.3562
  19   2.0000      -6.039566      -164.3449
  20   2.0000      -6.035946      -164.2464
  21   2.0000      -6.035865      -164.2442
  22   2.0000      -6.032005      -164.1392
  23   2.0000      -6.031988      -164.1387
  24   2.0000      -1.007848       -27.4249
  25   2.0000      -0.980968       -26.6935
  26   2.0000      -0.914327       -24.8801
  27   2.0000      -0.908400       -24.7188
  28   2.0000      -0.863132       -23.4870
  29   2.0000      -0.853024       -23.2120
  30   2.0000      -0.840854       -22.8808
  31   2.0000      -0.807823       -21.9820
  32   2.0000      -0.784604       -21.3502
  33   2.0000      -0.768363       -20.9082
  34   2.0000      -0.705825       -19.2065
  35   2.0000      -0.700031       -19.0488
  36   2.0000      -0.686653       -18.6848
  37   2.0000      -0.660824       -17.9819
  38   2.0000      -0.637532       -17.3481
  39   2.0000      -0.617646       -16.8070
  40   2.0000      -0.599684       -16.3182
  41   2.0000      -0.570042       -15.5116
  42   2.0000      -0.567030       -15.4297
  43   2.0000      -0.557431       -15.1685
  44   2.0000      -0.524149       -14.2628
  45   2.0000      -0.520911       -14.1747
  46   2.0000      -0.514518       -14.0008
  47   2.0000      -0.508604       -13.8398
  48   2.0000      -0.495588       -13.4856
  49   2.0000      -0.494296       -13.4505
  50   2.0000      -0.490657       -13.3515
  51   2.0000      -0.487303       -13.2602
  52   2.0000      -0.473066       -12.8728
  53   2.0000      -0.457725       -12.4553
  54   2.0000      -0.456873       -12.4322
  55   2.0000      -0.449820       -12.2402
  56   2.0000      -0.446604       -12.1527
  57   2.0000      -0.444134       -12.0855
  58   2.0000      -0.437818       -11.9136
  59   2.0000      -0.423448       -11.5226
  60   2.0000      -0.422886       -11.5073
  61   2.0000      -0.418458       -11.3868
  62   2.0000      -0.412167       -11.2156
  63   2.0000      -0.339439        -9.2366
  64   2.0000      -0.331365        -9.0169
  65   2.0000      -0.321522        -8.7491
  66   2.0000      -0.293639        -7.9903
  67   0.0000       0.031996         0.8707
  68   0.0000       0.061046         1.6611
  69   0.0000       0.106376         2.8946
  70   0.0000       0.115635         3.1466
  71   0.0000       0.133105         3.6220

MULLIKEN ATOMIC CHARGES
-----------------------
   0 S :    0.115549
   1 C :   -0.116299
   2 C :   -0.136511
   3 C :    0.044081
   4 C :   -0.158096
   5 H :    0.031169
   6 C :    0.074768
   7 H :    0.021170
   8 H :    0.021586
   9 C :   -0.076934
  10 H :    0.031090
  11 H :    0.022355
  12 C :   -0.033487
  13 H :    0.035390
  14 H :    0.033318
  15 H :    0.015791
  16 S :    0.125342
  17 C :   -0.118365
  18 C :   -0.050352
  19 C :   -0.016379
  20 C :   -0.194221
  21 H :    0.042957
  22 C :    0.115194
  23 H :   -0.009925
  24 H :    0.039589
  25 C :   -0.080120
  26 H :    0.018328
  27 H :    0.007128
  28 C :   -0.023912
  29 H :    0.022800
  30 H :    0.026596
  31 H :    0.040395
  32 H :    0.052286
  33 H :    0.077720
Sum of atomic charges:    0.0000000

LOEWDIN ATOMIC CHARGES
----------------------
   0 S :    0.402511
   1 C :   -0.205618
   2 C :   -0.055531
   3 C :   -0.068934
   4 C :   -0.206585
   5 H :    0.039673
   6 C :   -0.027387
   7 H :    0.026847
   8 H :    0.027813
   9 C :   -0.027715
  10 H :    0.027678
  11 H :    0.014268
  12 C :   -0.065578
  13 H :    0.029737
  14 H :    0.025560
  15 H :    0.015983
  16 S :    0.421458
  17 C :   -0.200804
  18 C :   -0.081802
  19 C :   -0.049033
  20 C :   -0.200975
  21 H :    0.043737
  22 C :   -0.018380
  23 H :    0.016489
  24 H :    0.035775
  25 C :   -0.031221
  26 H :    0.018711
  27 H :    0.011461
  28 C :   -0.061205
  29 H :    0.021898
  30 H :    0.025143
  31 H :    0.027951
  32 H :    0.030787
  33 H :    0.037287

  Mayer bond orders larger than 0.100000
B(  0-S ,  1-C ) :   1.1322 B(  0-S ,  4-C ) :   1.1435 B(  1-C ,  2-C ) :   1.6177
B(  1-C , 32-H ) :   0.9625 B(  2-C ,  3-C ) :   1.2385 B(  2-C ,  6-C ) :   1.0289
B(  3-C ,  4-C ) :   1.5926 B(  3-C ,  5-H ) :   0.9817 B(  4-C , 20-C ) :   1.0106
B(  6-C ,  7-H ) :   0.9450 B(  6-C ,  8-H ) :   0.9428 B(  6-C ,  9-C ) :   1.0562
B(  9-C , 10-H ) :   0.9591 B(  9-C , 11-H ) :   0.9606 B(  9-C , 12-C ) :   1.0786
B( 12-C , 13-H ) :   0.9737 B( 12-C , 14-H ) :   0.9738 B( 12-C , 15-H ) :   0.9742
B( 16-S , 17-C ) :   1.1738 B( 16-S , 20-C ) :   1.1558 B( 17-C , 18-C ) :   1.5965
B( 17-C , 20-C ) :   0.1048 B( 17-C , 33-H ) :   0.9567 B( 18-C , 19-C ) :   1.2617
B( 18-C , 21-H ) :   0.9759 B( 19-C , 20-C ) :   1.5908 B( 19-C , 22-C ) :   1.0598
B( 22-C , 23-H ) :   0.9258 B( 22-C , 24-H ) :   0.9358 B( 22-C , 25-C ) :   1.0523
B( 25-C , 26-H ) :   0.9565 B( 25-C , 27-H ) :   0.9576 B( 25-C , 28-C ) :   1.0875
B( 28-C , 29-H ) :   0.9738 B( 28-C , 30-H ) :   0.9723 B( 28-C , 31-H ) :   0.9761

Dispersion correction           -0.013744684
FINAL SINGLE POINT ENERGY     -1339.853264552698

DIPOLE MOMENT
-------------
                                X             Y             Z
Electronic contribution:      5.50884       7.29810     -22.85717
Nuclear contribution   :     -5.58325      -7.55222      23.34226
                        -----------------------------------------
Total Dipole Moment    :     -0.07441      -0.25412       0.48509
                        -----------------------------------------
Magnitude (a.u.)       :      0.55265
Magnitude (Debye)      :      1.40474

Rotational constants in cm-1:     0.019114     0.007646     0.006457
Rotational constants in MHz :   573.026499   229.211012   193.581832

                             ****ORCA TERMINATED NORMALLY****
TOTAL RUN TIME: 0 days 0 hours 0 minutes 21 seconds 30 msec
