                         Program Version 4.2.1 -  RELEASE  -
|  1> ! wB97X-D3 SP def2-SVP
|  2> %pal
|  3> nprocs 24
|  4> end
|  5>
|  6> * xyz 0 1
|  7> S 	 -56.6958 	 20.5031 	 -98.2923
|  8> C 	 -57.7685 	 21.8868 	 -98.5379
|  9> C 	 -58.839 	 21.489 	 -99.3494
| 10> C 	 -58.8938 	 20.1176 	 -99.6123
| 11> C 	 -57.8295 	 19.3915 	 -99.1193
| 12> H 	 -59.6707 	 19.6433 	 -100.223
| 13> C 	 -59.9096 	 22.3493 	 -99.8668
| 14> H 	 -60.554 	 21.7692 	 -100.533
| 15> H 	 -59.4567 	 23.1309 	 -100.572
| 16> C 	 -60.8061 	 23.0869 	 -98.8496
| 17> H 	 -61.2227 	 22.2277 	 -98.2713
| 18> H 	 -60.3334 	 23.6585 	 -98.1294
| 19> C 	 -61.8272 	 23.9333 	 -99.643
| 20> H 	 -61.2822 	 24.8421 	 -99.838
| 21> H 	 -62.255 	 23.4393 	 -100.541
| 22> H 	 -62.6313 	 24.3283 	 -98.9988
| 23> S 	 -56.1045 	 17.5793 	 -100.417
| 24> C 	 -56.6143 	 15.8726 	 -100.335
| 25> C 	 -57.6706 	 15.622 	 -99.4931
| 26> C 	 -58.2594 	 16.8842 	 -99.0571
| 27> C 	 -57.5047 	 18.0125 	 -99.4072
| 28> H 	 -58.0086 	 14.6772 	 -99.1874
| 29> C 	 -59.559 	 16.8098 	 -98.2504
| 30> H 	 -59.9907 	 15.8021 	 -98.3181
| 31> H 	 -60.212 	 17.5381 	 -98.869
| 32> C 	 -59.4106 	 17.1539 	 -96.735
| 33> H 	 -58.6247 	 17.9684 	 -96.6341
| 34> H 	 -58.9258 	 16.3545 	 -96.198
| 35> C 	 -60.5812 	 17.6117 	 -95.9357
| 36> H 	 -60.3157 	 18.1729 	 -95.0293
| 37> H 	 -61.3545 	 16.8267 	 -95.6653
| 38> H 	 -61.1202 	 18.3162 	 -96.5488
| 39> H 	 -57.4461 	 22.9163 	 -98.3538
| 40> H 	 -56.0026 	 15.0918 	 -100.719
| 41> *
| 42>
| 43>                          ****END OF INPUT****

CARTESIAN COORDINATES (ANGSTROEM)
---------------------------------
  S    -56.695800   20.503100  -98.292300
  C    -57.768500   21.886800  -98.537900
  C    -58.839000   21.489000  -99.349400
  C    -58.893800   20.117600  -99.612300
  C    -57.829500   19.391500  -99.119300
  H    -59.670700   19.643300  -100.223000
  C    -59.909600   22.349300  -99.866800
  H    -60.554000   21.769200  -100.533000
  H    -59.456700   23.130900  -100.572000
  C    -60.806100   23.086900  -98.849600
  H    -61.222700   22.227700  -98.271300
  H    -60.333400   23.658500  -98.129400
  C    -61.827200   23.933300  -99.643000
  H    -61.282200   24.842100  -99.838000
  H    -62.255000   23.439300  -100.541000
  H    -62.631300   24.328300  -98.998800
  S    -56.104500   17.579300  -100.417000
  C    -56.614300   15.872600  -100.335000
  C    -57.670600   15.622000  -99.493100
  C    -58.259400   16.884200  -99.057100
  C    -57.504700   18.012500  -99.407200
  H    -58.008600   14.677200  -99.187400
  C    -59.559000   16.809800  -98.250400
  H    -59.990700   15.802100  -98.318100
  H    -60.212000   17.538100  -98.869000
  C    -59.410600   17.153900  -96.735000
  H    -58.624700   17.968400  -96.634100
  H    -58.925800   16.354500  -96.198000
  C    -60.581200   17.611700  -95.935700
  H    -60.315700   18.172900  -95.029300
  H    -61.354500   16.826700  -95.665300
  H    -61.120200   18.316200  -96.548800
  H    -57.446100   22.916300  -98.353800
  H    -56.002600   15.091800  -100.719000

 Total Charge           Charge          ....    0
 Multiplicity           Mult            ....    1
 Number of Electrons    NEL             ....  134
 Basis Dimension        Dim             ....  322

ORBITAL ENERGIES
----------------

  NO   OCC          E(Eh)            E(eV)
   0   2.0000     -88.969353     -2420.9792
   1   2.0000     -88.967068     -2420.9170
   2   2.0000     -10.331116      -281.1240
   3   2.0000     -10.328634      -281.0564
   4   2.0000     -10.318849      -280.7902
   5   2.0000     -10.318608      -280.7836
   6   2.0000     -10.308342      -280.5043
   7   2.0000     -10.302867      -280.3553
   8   2.0000     -10.297621      -280.2125
   9   2.0000     -10.294615      -280.1307
  10   2.0000     -10.293098      -280.0894
  11   2.0000     -10.292330      -280.0685
  12   2.0000     -10.285170      -279.8737
  13   2.0000     -10.284758      -279.8625
  14   2.0000     -10.282480      -279.8005
  15   2.0000     -10.275486      -279.6102
  16   2.0000      -8.082989      -219.9493
  17   2.0000      -8.080737      -219.8880
  18   2.0000      -6.041671      -164.4022
  19   2.0000      -6.039300      -164.3377
  20   2.0000      -6.037805      -164.2970
  21   2.0000      -6.035252      -164.2276
  22   2.0000      -6.033484      -164.1795
  23   2.0000      -6.031644      -164.1294
  24   2.0000      -1.001017       -27.2391
  25   2.0000      -0.978601       -26.6291
  26   2.0000      -0.912959       -24.8429
  27   2.0000      -0.901686       -24.5361
  28   2.0000      -0.869022       -23.6473
  29   2.0000      -0.852786       -23.2055
  30   2.0000      -0.849416       -23.1138
  31   2.0000      -0.813706       -22.1421
  32   2.0000      -0.778877       -21.1943
  33   2.0000      -0.764186       -20.7945
  34   2.0000      -0.709252       -19.2997
  35   2.0000      -0.703563       -19.1449
  36   2.0000      -0.686952       -18.6929
  37   2.0000      -0.666273       -18.1302
  38   2.0000      -0.642188       -17.4748
  39   2.0000      -0.617430       -16.8011
  40   2.0000      -0.590903       -16.0793
  41   2.0000      -0.575454       -15.6589
  42   2.0000      -0.560392       -15.2491
  43   2.0000      -0.554448       -15.0873
  44   2.0000      -0.525686       -14.3047
  45   2.0000      -0.523238       -14.2380
  46   2.0000      -0.515683       -14.0324
  47   2.0000      -0.505384       -13.7522
  48   2.0000      -0.499831       -13.6011
  49   2.0000      -0.498252       -13.5581
  50   2.0000      -0.494607       -13.4589
  51   2.0000      -0.485968       -13.2238
  52   2.0000      -0.477418       -12.9912
  53   2.0000      -0.464348       -12.6356
  54   2.0000      -0.455019       -12.3817
  55   2.0000      -0.453386       -12.3373
  56   2.0000      -0.445015       -12.1095
  57   2.0000      -0.432750       -11.7757
  58   2.0000      -0.427371       -11.6293
  59   2.0000      -0.422517       -11.4973
  60   2.0000      -0.418735       -11.3944
  61   2.0000      -0.412660       -11.2290
  62   2.0000      -0.404010       -10.9937
  63   2.0000      -0.344575        -9.3764
  64   2.0000      -0.331713        -9.0264
  65   2.0000      -0.325550        -8.8587
  66   2.0000      -0.294241        -8.0067
  67   0.0000       0.026827         0.7300
  68   0.0000       0.056384         1.5343
  69   0.0000       0.111085         3.0228
  70   0.0000       0.118023         3.2116
  71   0.0000       0.124038         3.3752

MULLIKEN ATOMIC CHARGES
-----------------------
   0 S :    0.097646
   1 C :   -0.122042
   2 C :   -0.064877
   3 C :    0.029228
   4 C :   -0.173175
   5 H :    0.025140
   6 C :    0.012804
   7 H :    0.013067
   8 H :    0.036429
   9 C :   -0.050022
  10 H :    0.028479
  11 H :    0.014072
  12 C :   -0.049027
  13 H :    0.028068
  14 H :    0.047070
  15 H :    0.032944
  16 S :    0.112457
  17 C :   -0.078388
  18 C :    0.006743
  19 C :   -0.077440
  20 C :   -0.148434
  21 H :    0.004805
  22 C :    0.071511
  23 H :    0.024721
  24 H :    0.040312
  25 C :   -0.080865
  26 H :    0.039155
  27 H :    0.020824
  28 C :   -0.041738
  29 H :    0.040240
  30 H :    0.034511
  31 H :    0.015375
  32 H :    0.061421
  33 H :    0.048988
Sum of atomic charges:    0.0000000

LOEWDIN ATOMIC CHARGES
----------------------
   0 S :    0.387744
   1 C :   -0.196094
   2 C :   -0.068947
   3 C :   -0.061479
   4 C :   -0.182382
   5 H :    0.036111
   6 C :   -0.039463
   7 H :    0.026841
   8 H :    0.035596
   9 C :   -0.033866
  10 H :    0.026069
  11 H :    0.012128
  12 C :   -0.066833
  13 H :    0.026888
  14 H :    0.030400
  15 H :    0.028480
  16 S :    0.383316
  17 C :   -0.163790
  18 C :   -0.058261
  19 C :   -0.044595
  20 C :   -0.204320
  21 H :    0.024928
  22 C :   -0.034913
  23 H :    0.029230
  24 H :    0.041667
  25 C :   -0.052365
  26 H :    0.034427
  27 H :    0.021835
  28 C :   -0.072500
  29 H :    0.032307
  30 H :    0.027262
  31 H :    0.021094
  32 H :    0.032492
  33 H :    0.020994

  Mayer bond orders larger than 0.100000
B(  0-S ,  1-C ) :   1.1372 B(  0-S ,  4-C ) :   1.1470 B(  1-C ,  2-C ) :   1.5688
B(  1-C ,  4-C ) :   0.1082 B(  1-C , 32-H ) :   0.9695 B(  2-C ,  3-C ) :   1.2812
B(  2-C ,  6-C ) :   1.0330 B(  3-C ,  4-C ) :   1.5573 B(  3-C ,  5-H ) :   0.9837
B(  4-C , 20-C ) :   1.0533 B(  6-C ,  7-H ) :   0.9457 B(  6-C ,  8-H ) :   0.9308
B(  6-C ,  9-C ) :   1.0522 B(  9-C , 10-H ) :   0.9561 B(  9-C , 11-H ) :   0.9600
B(  9-C , 12-C ) :   1.0714 B( 12-C , 13-H ) :   0.9742 B( 12-C , 14-H ) :   0.9757
B( 12-C , 15-H ) :   0.9728 B( 16-S , 17-C ) :   1.1439 B( 16-S , 20-C ) :   1.1147
B( 17-C , 18-C ) :   1.6328 B( 17-C , 33-H ) :   0.9645 B( 18-C , 19-C ) :   1.2224
B( 18-C , 21-H ) :   0.9944 B( 19-C , 20-C ) :   1.6202 B( 19-C , 22-C ) :   1.0371
B( 22-C , 23-H ) :   0.9363 B( 22-C , 24-H ) :   0.9320 B( 22-C , 25-C ) :   1.0486
B( 25-C , 26-H ) :   0.9586 B( 25-C , 27-H ) :   0.9508 B( 25-C , 28-C ) :   1.0868
B( 28-C , 29-H ) :   0.9712 B( 28-C , 30-H ) :   0.9729 B( 28-C , 31-H ) :   0.9725

Dispersion correction           -0.014231068
FINAL SINGLE POINT ENERGY     -1339.869517339074

DIPOLE MOMENT
-------------
                                X             Y             Z
Electronic contribution:     26.41101      -9.19055      -8.25244
Nuclear contribution   :    -26.93026       9.21125       8.24578
                        -----------------------------------------
Total Dipole Moment    :     -0.51925       0.02070      -0.00666
                        -----------------------------------------
Magnitude (a.u.)       :      0.51971
Magnitude (Debye)      :      1.32099

Rotational constants in cm-1:     0.018953     0.008183     0.006792
Rotational constants in MHz :   568.198935   245.330323   203.609772

                             ****ORCA TERMINATED NORMALLY****
TOTAL RUN TIME: 0 days 0 hours 0 minutes 21 seconds 519 msec
