                         Program Version 4.2.1 -  RELEASE  -
|  1> ! wB97X-D3 SP def2-SVP
|  2> %pal
|  3> nprocs 24
|  4> end
|  5>
|  6> * xyz 0 1
|  7> S 	 -75.1026 	 0.762437 	 -65.2956
|  8> C 	 -74.7756 	 1.26148 	 -66.9969
|  9> C 	 -75.6847 	 2.10313 	 -67.4432
| 10> C 	 -76.8115 	 2.14857 	 -66.5933
| 11> C 	 -76.7339 	 1.36681 	 -65.4391
| 12> H 	 -77.6814 	 2.78047 	 -66.8158
| 13> C 	 -75.5266 	 3.03221 	 -68.616
| 14> H 	 -75.9102 	 2.53186 	 -69.4524
| 15> H 	 -74.5246 	 3.079 	 -68.865
| 16> C 	 -75.993 	 4.4936 	 -68.4718
| 17> H 	 -76.9654 	 4.6363 	 -68.0792
| 18> H 	 -75.2836 	 5.10193 	 -67.8704
| 19> C 	 -76.1048 	 5.12643 	 -69.8566
| 20> H 	 -76.6177 	 6.14928 	 -69.7591
| 21> H 	 -75.1394 	 5.23523 	 -70.3468
| 22> H 	 -76.869 	 4.65184 	 -70.4228
| 23> S 	 -77.2076 	 1.85697 	 -62.7162
| 24> C 	 -78.8821 	 2.09672 	 -62.2191
| 25> C 	 -79.7585 	 1.69015 	 -63.2369
| 26> C 	 -79.1393 	 1.29675 	 -64.4603
| 27> C 	 -77.7146 	 1.37114 	 -64.3293
| 28> H 	 -80.8112 	 1.81055 	 -63.1148
| 29> C 	 -79.8595 	 1.09768 	 -65.7406
| 30> H 	 -80.6063 	 0.37622 	 -65.5186
| 31> H 	 -79.3699 	 0.644838 	 -66.5711
| 32> C 	 -80.4902 	 2.39894 	 -66.2382
| 33> H 	 -80.6638 	 2.28624 	 -67.3413
| 34> H 	 -79.813 	 3.27517 	 -66.11
| 35> C 	 -81.9055 	 2.74002 	 -65.6532
| 36> H 	 -81.7778 	 2.82432 	 -64.6053
| 37> H 	 -82.6351 	 1.97995 	 -65.9273
| 38> H 	 -82.3287 	 3.68881 	 -65.9736
| 39> H 	 -73.7796 	 1.24723 	 -67.3104
| 40> H 	 -79.2519 	 2.47371 	 -61.2945
| 41> *
| 42>
| 43>                          ****END OF INPUT****

CARTESIAN COORDINATES (ANGSTROEM)
---------------------------------
  S    -75.102600    0.762437  -65.295600
  C    -74.775600    1.261480  -66.996900
  C    -75.684700    2.103130  -67.443200
  C    -76.811500    2.148570  -66.593300
  C    -76.733900    1.366810  -65.439100
  H    -77.681400    2.780470  -66.815800
  C    -75.526600    3.032210  -68.616000
  H    -75.910200    2.531860  -69.452400
  H    -74.524600    3.079000  -68.865000
  C    -75.993000    4.493600  -68.471800
  H    -76.965400    4.636300  -68.079200
  H    -75.283600    5.101930  -67.870400
  C    -76.104800    5.126430  -69.856600
  H    -76.617700    6.149280  -69.759100
  H    -75.139400    5.235230  -70.346800
  H    -76.869000    4.651840  -70.422800
  S    -77.207600    1.856970  -62.716200
  C    -78.882100    2.096720  -62.219100
  C    -79.758500    1.690150  -63.236900
  C    -79.139300    1.296750  -64.460300
  C    -77.714600    1.371140  -64.329300
  H    -80.811200    1.810550  -63.114800
  C    -79.859500    1.097680  -65.740600
  H    -80.606300    0.376220  -65.518600
  H    -79.369900    0.644838  -66.571100
  C    -80.490200    2.398940  -66.238200
  H    -80.663800    2.286240  -67.341300
  H    -79.813000    3.275170  -66.110000
  C    -81.905500    2.740020  -65.653200
  H    -81.777800    2.824320  -64.605300
  H    -82.635100    1.979950  -65.927300
  H    -82.328700    3.688810  -65.973600
  H    -73.779600    1.247230  -67.310400
  H    -79.251900    2.473710  -61.294500

 Total Charge           Charge          ....    0
 Multiplicity           Mult            ....    1
 Number of Electrons    NEL             ....  134
 Basis Dimension        Dim             ....  322

ORBITAL ENERGIES
----------------

  NO   OCC          E(Eh)            E(eV)
   0   2.0000     -88.970856     -2421.0201
   1   2.0000     -88.960461     -2420.7372
   2   2.0000     -10.331645      -281.1384
   3   2.0000     -10.331257      -281.1278
   4   2.0000     -10.320856      -280.8448
   5   2.0000     -10.306845      -280.4635
   6   2.0000     -10.302570      -280.3472
   7   2.0000     -10.296070      -280.1703
   8   2.0000     -10.295459      -280.1537
   9   2.0000     -10.292033      -280.0605
  10   2.0000     -10.290954      -280.0311
  11   2.0000     -10.289357      -279.9876
  12   2.0000     -10.285970      -279.8955
  13   2.0000     -10.283696      -279.8336
  14   2.0000     -10.281867      -279.7838
  15   2.0000     -10.277992      -279.6784
  16   2.0000      -8.084773      -219.9979
  17   2.0000      -8.074957      -219.7307
  18   2.0000      -6.043307      -164.4467
  19   2.0000      -6.039344      -164.3389
  20   2.0000      -6.035608      -164.2373
  21   2.0000      -6.033544      -164.1811
  22   2.0000      -6.029830      -164.0800
  23   2.0000      -6.025330      -163.9576
  24   2.0000      -1.003604       -27.3094
  25   2.0000      -0.982793       -26.7432
  26   2.0000      -0.917216       -24.9587
  27   2.0000      -0.913560       -24.8592
  28   2.0000      -0.872014       -23.7287
  29   2.0000      -0.847419       -23.0594
  30   2.0000      -0.842426       -22.9236
  31   2.0000      -0.814459       -22.1626
  32   2.0000      -0.790088       -21.4994
  33   2.0000      -0.777122       -21.1466
  34   2.0000      -0.712435       -19.3863
  35   2.0000      -0.702056       -19.1039
  36   2.0000      -0.693872       -18.8812
  37   2.0000      -0.660030       -17.9603
  38   2.0000      -0.640969       -17.4417
  39   2.0000      -0.624340       -16.9891
  40   2.0000      -0.606397       -16.5009
  41   2.0000      -0.574864       -15.6429
  42   2.0000      -0.567052       -15.4303
  43   2.0000      -0.547615       -14.9014
  44   2.0000      -0.542434       -14.7604
  45   2.0000      -0.523301       -14.2397
  46   2.0000      -0.521269       -14.1845
  47   2.0000      -0.513517       -13.9735
  48   2.0000      -0.507154       -13.8004
  49   2.0000      -0.500372       -13.6158
  50   2.0000      -0.494734       -13.4624
  51   2.0000      -0.486599       -13.2410
  52   2.0000      -0.474641       -12.9156
  53   2.0000      -0.464633       -12.6433
  54   2.0000      -0.457715       -12.4551
  55   2.0000      -0.448336       -12.1999
  56   2.0000      -0.442104       -12.0303
  57   2.0000      -0.438876       -11.9424
  58   2.0000      -0.435264       -11.8441
  59   2.0000      -0.426967       -11.6184
  60   2.0000      -0.421720       -11.4756
  61   2.0000      -0.416811       -11.3420
  62   2.0000      -0.414891       -11.2898
  63   2.0000      -0.348656        -9.4874
  64   2.0000      -0.331485        -9.0202
  65   2.0000      -0.327712        -8.9175
  66   2.0000      -0.287371        -7.8198
  67   0.0000       0.025082         0.6825
  68   0.0000       0.067143         1.8270
  69   0.0000       0.099864         2.7174
  70   0.0000       0.128237         3.4895
  71   0.0000       0.131428         3.5763

MULLIKEN ATOMIC CHARGES
-----------------------
   0 S :    0.071654
   1 C :   -0.112637
   2 C :   -0.058302
   3 C :    0.004605
   4 C :   -0.129234
   5 H :   -0.002890
   6 C :    0.142324
   7 H :    0.018516
   8 H :   -0.012364
   9 C :   -0.066786
  10 H :    0.022447
  11 H :    0.044163
  12 C :   -0.079616
  13 H :    0.032406
  14 H :    0.043771
  15 H :    0.025131
  16 S :    0.118013
  17 C :   -0.086315
  18 C :   -0.042006
  19 C :   -0.037778
  20 C :   -0.140941
  21 H :    0.016209
  22 C :    0.110080
  23 H :    0.015787
  24 H :    0.025662
  25 C :   -0.138943
  26 H :    0.033467
  27 H :    0.055097
  28 C :   -0.023030
  29 H :    0.014081
  30 H :    0.034560
  31 H :    0.028817
  32 H :    0.026668
  33 H :    0.047384
Sum of atomic charges:   -0.0000000

LOEWDIN ATOMIC CHARGES
----------------------
   0 S :    0.372528
   1 C :   -0.169427
   2 C :   -0.062811
   3 C :   -0.064946
   4 C :   -0.186627
   5 H :    0.028010
   6 C :   -0.021220
   7 H :    0.029695
   8 H :    0.023526
   9 C :   -0.033219
  10 H :    0.017401
  11 H :    0.031732
  12 C :   -0.065869
  13 H :    0.034454
  14 H :    0.023732
  15 H :    0.019253
  16 S :    0.405582
  17 C :   -0.180833
  18 C :   -0.066533
  19 C :   -0.046876
  20 C :   -0.198098
  21 H :    0.024494
  22 C :   -0.034788
  23 H :    0.032303
  24 H :    0.033322
  25 C :   -0.040265
  26 H :    0.026792
  27 H :    0.026227
  28 C :   -0.063638
  29 H :    0.014585
  30 H :    0.025684
  31 H :    0.026544
  32 H :    0.013035
  33 H :    0.026251

  Mayer bond orders larger than 0.100000
B(  0-S ,  1-C ) :   1.1111 B(  0-S ,  4-C ) :   1.1510 B(  1-C ,  2-C ) :   1.6613
B(  1-C , 32-H ) :   0.9656 B(  2-C ,  3-C ) :   1.2474 B(  2-C ,  6-C ) :   1.0055
B(  3-C ,  4-C ) :   1.5527 B(  3-C ,  5-H ) :   0.9900 B(  4-C , 20-C ) :   1.0462
B(  6-C ,  7-H ) :   0.9307 B(  6-C ,  8-H ) :   0.9277 B(  6-C ,  9-C ) :   1.0608
B(  9-C , 10-H ) :   0.9558 B(  9-C , 11-H ) :   0.9569 B(  9-C , 12-C ) :   1.0873
B( 12-C , 13-H ) :   0.9721 B( 12-C , 14-H ) :   0.9769 B( 12-C , 15-H ) :   0.9755
B( 16-S , 17-C ) :   1.1543 B( 16-S , 20-C ) :   1.1517 B( 17-C , 18-C ) :   1.5932
B( 17-C , 20-C ) :   0.1021 B( 17-C , 33-H ) :   0.9720 B( 18-C , 19-C ) :   1.2576
B( 18-C , 21-H ) :   0.9842 B( 19-C , 20-C ) :   1.5552 B( 19-C , 22-C ) :   1.0638
B( 22-C , 23-H ) :   0.9216 B( 22-C , 24-H ) :   0.9310 B( 22-C , 25-C ) :   1.0489
B( 25-C , 26-H ) :   0.9598 B( 25-C , 27-H ) :   0.9528 B( 25-C , 28-C ) :   1.0744
B( 28-C , 29-H ) :   0.9740 B( 28-C , 30-H ) :   0.9752 B( 28-C , 31-H ) :   0.9698

Dispersion correction           -0.014522573
FINAL SINGLE POINT ENERGY     -1339.856797177385

DIPOLE MOMENT
-------------
                                X             Y             Z
Electronic contribution:     14.94039     -15.34124      22.26147
Nuclear contribution   :    -15.41932      15.94589     -22.79020
                        -----------------------------------------
Total Dipole Moment    :     -0.47893       0.60464      -0.52873
                        -----------------------------------------
Magnitude (a.u.)       :      0.93516
Magnitude (Debye)      :      2.37699

Rotational constants in cm-1:     0.016802     0.009491     0.006917
Rotational constants in MHz :   503.702808   284.546332   207.375705

                             ****ORCA TERMINATED NORMALLY****
TOTAL RUN TIME: 0 days 0 hours 0 minutes 22 seconds 240 msec
