                         Program Version 4.2.1 -  RELEASE  -
|  1> ! wB97X-D3 SP def2-SVP
|  2> %pal
|  3> nprocs 24
|  4> end
|  5>
|  6> * xyz 0 1
|  7> S 	 -18.8499 	 -34.5618 	 -92.8254
|  8> C 	 -17.2829 	 -35.0471 	 -93.4777
|  9> C 	 -16.9723 	 -34.2875 	 -94.6402
| 10> C 	 -18.0849 	 -33.4554 	 -95.003
| 11> C 	 -19.023 	 -33.2467 	 -94.0312
| 12> H 	 -18.2434 	 -32.888 	 -95.9027
| 13> C 	 -15.6756 	 -34.4542 	 -95.4366
| 14> H 	 -15.3378 	 -33.5197 	 -95.7726
| 15> H 	 -16.1339 	 -34.9843 	 -96.2316
| 16> C 	 -14.5651 	 -35.4252 	 -94.9608
| 17> H 	 -13.5821 	 -35.1737 	 -95.341
| 18> H 	 -14.3251 	 -35.2984 	 -93.9008
| 19> C 	 -14.9004 	 -36.9309 	 -95.1991
| 20> H 	 -14.0706 	 -37.5565 	 -94.7251
| 21> H 	 -15.8484 	 -37.235 	 -94.7991
| 22> H 	 -14.8033 	 -37.1499 	 -96.242
| 23> S 	 -21.745 	 -33.5625 	 -94.2172
| 24> C 	 -22.5708 	 -32.1988 	 -94.9039
| 25> C 	 -21.8296 	 -31.029 	 -95.0246
| 26> C 	 -20.5047 	 -31.2175 	 -94.5036
| 27> C 	 -20.2861 	 -32.5349 	 -94.1434
| 28> H 	 -22.29 	 -30.1471 	 -95.5671
| 29> C 	 -19.4379 	 -30.072 	 -94.3769
| 30> H 	 -19.3747 	 -29.6985 	 -95.4198
| 31> H 	 -18.4389 	 -30.3327 	 -94.185
| 32> C 	 -19.8829 	 -28.9837 	 -93.2864
| 33> H 	 -19.9539 	 -29.4096 	 -92.2269
| 34> H 	 -20.8189 	 -28.5684 	 -93.5635
| 35> C 	 -18.7556 	 -27.9452 	 -93.2723
| 36> H 	 -18.491 	 -27.454 	 -94.2332
| 37> H 	 -17.7744 	 -28.373 	 -92.8986
| 38> H 	 -18.9396 	 -27.2095 	 -92.5187
| 39> H 	 -16.7055 	 -35.8115 	 -92.9749
| 40> H 	 -23.4996 	 -32.2915 	 -95.4298
| 41> *
| 42>
| 43>                          ****END OF INPUT****

CARTESIAN COORDINATES (ANGSTROEM)
---------------------------------
  S    -18.849900  -34.561800  -92.825400
  C    -17.282900  -35.047100  -93.477700
  C    -16.972300  -34.287500  -94.640200
  C    -18.084900  -33.455400  -95.003000
  C    -19.023000  -33.246700  -94.031200
  H    -18.243400  -32.888000  -95.902700
  C    -15.675600  -34.454200  -95.436600
  H    -15.337800  -33.519700  -95.772600
  H    -16.133900  -34.984300  -96.231600
  C    -14.565100  -35.425200  -94.960800
  H    -13.582100  -35.173700  -95.341000
  H    -14.325100  -35.298400  -93.900800
  C    -14.900400  -36.930900  -95.199100
  H    -14.070600  -37.556500  -94.725100
  H    -15.848400  -37.235000  -94.799100
  H    -14.803300  -37.149900  -96.242000
  S    -21.745000  -33.562500  -94.217200
  C    -22.570800  -32.198800  -94.903900
  C    -21.829600  -31.029000  -95.024600
  C    -20.504700  -31.217500  -94.503600
  C    -20.286100  -32.534900  -94.143400
  H    -22.290000  -30.147100  -95.567100
  C    -19.437900  -30.072000  -94.376900
  H    -19.374700  -29.698500  -95.419800
  H    -18.438900  -30.332700  -94.185000
  C    -19.882900  -28.983700  -93.286400
  H    -19.953900  -29.409600  -92.226900
  H    -20.818900  -28.568400  -93.563500
  C    -18.755600  -27.945200  -93.272300
  H    -18.491000  -27.454000  -94.233200
  H    -17.774400  -28.373000  -92.898600
  H    -18.939600  -27.209500  -92.518700
  H    -16.705500  -35.811500  -92.974900
  H    -23.499600  -32.291500  -95.429800

 Total Charge           Charge          ....    0
 Multiplicity           Mult            ....    1
 Number of Electrons    NEL             ....  134
 Basis Dimension        Dim             ....  322

ORBITAL ENERGIES
----------------

  NO   OCC          E(Eh)            E(eV)
   0   2.0000     -88.966288     -2420.8958
   1   2.0000     -88.956342     -2420.6251
   2   2.0000     -10.326328      -280.9937
   3   2.0000     -10.324247      -280.9371
   4   2.0000     -10.315858      -280.7088
   5   2.0000     -10.315433      -280.6972
   6   2.0000     -10.310374      -280.5595
   7   2.0000     -10.309824      -280.5446
   8   2.0000     -10.301799      -280.3262
   9   2.0000     -10.297795      -280.2172
  10   2.0000     -10.295896      -280.1656
  11   2.0000     -10.293406      -280.0978
  12   2.0000     -10.292229      -280.0658
  13   2.0000     -10.289802      -279.9997
  14   2.0000     -10.283344      -279.8240
  15   2.0000     -10.280746      -279.7533
  16   2.0000      -8.080952      -219.8939
  17   2.0000      -8.070587      -219.6118
  18   2.0000      -6.039363      -164.3394
  19   2.0000      -6.035706      -164.2399
  20   2.0000      -6.031553      -164.1269
  21   2.0000      -6.029094      -164.0600
  22   2.0000      -6.025261      -163.9557
  23   2.0000      -6.021304      -163.8480
  24   2.0000      -1.001139       -27.2424
  25   2.0000      -0.976066       -26.5601
  26   2.0000      -0.908818       -24.7302
  27   2.0000      -0.899918       -24.4880
  28   2.0000      -0.862945       -23.4819
  29   2.0000      -0.851177       -23.1617
  30   2.0000      -0.842805       -22.9339
  31   2.0000      -0.810314       -22.0498
  32   2.0000      -0.781365       -21.2620
  33   2.0000      -0.767509       -20.8850
  34   2.0000      -0.711687       -19.3660
  35   2.0000      -0.701763       -19.0959
  36   2.0000      -0.693924       -18.8826
  37   2.0000      -0.654890       -17.8205
  38   2.0000      -0.642684       -17.4883
  39   2.0000      -0.608914       -16.5694
  40   2.0000      -0.594001       -16.1636
  41   2.0000      -0.567989       -15.4558
  42   2.0000      -0.559264       -15.2184
  43   2.0000      -0.556254       -15.1364
  44   2.0000      -0.532502       -14.4901
  45   2.0000      -0.521733       -14.1971
  46   2.0000      -0.513537       -13.9741
  47   2.0000      -0.509631       -13.8678
  48   2.0000      -0.507378       -13.8065
  49   2.0000      -0.494751       -13.4629
  50   2.0000      -0.488240       -13.2857
  51   2.0000      -0.473570       -12.8865
  52   2.0000      -0.468168       -12.7395
  53   2.0000      -0.457858       -12.4589
  54   2.0000      -0.455787       -12.4026
  55   2.0000      -0.451551       -12.2873
  56   2.0000      -0.444519       -12.0960
  57   2.0000      -0.439422       -11.9573
  58   2.0000      -0.437072       -11.8933
  59   2.0000      -0.433713       -11.8019
  60   2.0000      -0.428262       -11.6536
  61   2.0000      -0.407129       -11.0785
  62   2.0000      -0.404032       -10.9943
  63   2.0000      -0.343544        -9.3483
  64   2.0000      -0.332786        -9.0556
  65   2.0000      -0.318308        -8.6616
  66   2.0000      -0.286584        -7.7983
  67   0.0000       0.031370         0.8536
  68   0.0000       0.061037         1.6609
  69   0.0000       0.105724         2.8769
  70   0.0000       0.121466         3.3053
  71   0.0000       0.131065         3.5665

MULLIKEN ATOMIC CHARGES
-----------------------
   0 S :    0.062482
   1 C :   -0.132104
   2 C :   -0.105896
   3 C :    0.030311
   4 C :   -0.149004
   5 H :    0.012402
   6 C :    0.121036
   7 H :    0.024228
   8 H :    0.028960
   9 C :   -0.071490
  10 H :    0.021984
  11 H :    0.021426
  12 C :   -0.074872
  13 H :    0.039515
  14 H :    0.042793
  15 H :    0.033366
  16 S :    0.115595
  17 C :   -0.086593
  18 C :   -0.071764
  19 C :   -0.039679
  20 C :   -0.142900
  21 H :    0.049194
  22 C :    0.067941
  23 H :    0.030910
  24 H :    0.011202
  25 C :   -0.064873
  26 H :    0.057126
  27 H :    0.029098
  28 C :   -0.066079
  29 H :    0.036867
  30 H :    0.031017
  31 H :    0.026120
  32 H :    0.059701
  33 H :    0.051978
Sum of atomic charges:    0.0000000

LOEWDIN ATOMIC CHARGES
----------------------
   0 S :    0.361015
   1 C :   -0.197862
   2 C :   -0.052474
   3 C :   -0.061114
   4 C :   -0.178082
   5 H :    0.030574
   6 C :   -0.027020
   7 H :    0.024351
   8 H :    0.039121
   9 C :   -0.043625
  10 H :    0.027831
  11 H :    0.021563
  12 C :   -0.064507
  13 H :    0.036162
  14 H :    0.020928
  15 H :    0.021547
  16 S :    0.396016
  17 C :   -0.183617
  18 C :   -0.082318
  19 C :   -0.049429
  20 C :   -0.195089
  21 H :    0.046014
  22 C :   -0.022307
  23 H :    0.034412
  24 H :    0.019658
  25 C :   -0.029496
  26 H :    0.041299
  27 H :    0.016423
  28 C :   -0.076140
  29 H :    0.026562
  30 H :    0.030785
  31 H :    0.020141
  32 H :    0.024652
  33 H :    0.024028

  Mayer bond orders larger than 0.100000
B(  0-S ,  1-C ) :   1.1365 B(  0-S ,  4-C ) :   1.1228 B(  1-C ,  2-C ) :   1.5988
B(  1-C , 32-H ) :   0.9642 B(  2-C ,  3-C ) :   1.2250 B(  2-C ,  6-C ) :   0.9882
B(  3-C ,  4-C ) :   1.6099 B(  3-C ,  5-H ) :   0.9879 B(  4-C , 20-C ) :   1.0338
B(  6-C ,  7-H ) :   0.9467 B(  6-C ,  8-H ) :   0.9347 B(  6-C ,  9-C ) :   1.0636
B(  9-C , 10-H ) :   0.9535 B(  9-C , 11-H ) :   0.9563 B(  9-C , 12-C ) :   1.0728
B( 12-C , 13-H ) :   0.9737 B( 12-C , 14-H ) :   0.9794 B( 12-C , 15-H ) :   0.9753
B( 16-S , 17-C ) :   1.1546 B( 16-S , 20-C ) :   1.1189 B( 17-C , 18-C ) :   1.6464
B( 17-C , 33-H ) :   0.9627 B( 18-C , 19-C ) :   1.2080 B( 18-C , 21-H ) :   0.9796
B( 19-C , 20-C ) :   1.6399 B( 19-C , 22-C ) :   1.0171 B( 22-C , 23-H ) :   0.9417
B( 22-C , 24-H ) :   0.9494 B( 22-C , 25-C ) :   1.0438 B( 25-C , 26-H ) :   0.9560
B( 25-C , 27-H ) :   0.9601 B( 25-C , 28-C ) :   1.0827 B( 28-C , 29-H ) :   0.9751
B( 28-C , 30-H ) :   0.9720 B( 28-C , 31-H ) :   0.9730

Dispersion correction           -0.013685904
FINAL SINGLE POINT ENERGY     -1339.848361879592

DIPOLE MOMENT
-------------
                                X             Y             Z
Electronic contribution:    -20.54706      -9.58532       5.08328
Nuclear contribution   :     20.97976       9.95034      -5.68321
                        -----------------------------------------
Total Dipole Moment    :      0.43270       0.36502      -0.59993
                        -----------------------------------------
Magnitude (a.u.)       :      0.82485
Magnitude (Debye)      :      2.09661

Rotational constants in cm-1:     0.020087     0.007444     0.006100
Rotational constants in MHz :   602.185302   223.171649   182.874764

                             ****ORCA TERMINATED NORMALLY****
TOTAL RUN TIME: 0 days 0 hours 0 minutes 20 seconds 751 msec
