                         Program Version 4.2.1 -  RELEASE  -
|  1> ! wB97X-D3 SP def2-SVP
|  2> %pal
|  3> nprocs 24
|  4> end
|  5>
|  6> * xyz 0 1
|  7> S 	 -110.853 	 55.0879 	 -89.7579
|  8> C 	 -111.039 	 55.609 	 -88.1391
|  9> C 	 -110.716 	 54.5637 	 -87.2578
| 10> C 	 -110.621 	 53.3277 	 -87.9055
| 11> C 	 -110.655 	 53.4205 	 -89.2469
| 12> H 	 -110.539 	 52.3487 	 -87.3558
| 13> C 	 -110.619 	 54.6887 	 -85.6996
| 14> H 	 -111.462 	 54.043 	 -85.3134
| 15> H 	 -110.789 	 55.7614 	 -85.3352
| 16> C 	 -109.254 	 54.2513 	 -85.2245
| 17> H 	 -109.299 	 54.2097 	 -84.1608
| 18> H 	 -108.969 	 53.2493 	 -85.5885
| 19> C 	 -108.152 	 55.1987 	 -85.5441
| 20> H 	 -108.296 	 56.2118 	 -85.1677
| 21> H 	 -107.316 	 54.8737 	 -84.908
| 22> H 	 -107.931 	 55.128 	 -86.6508
| 23> S 	 -111.658 	 52.2089 	 -91.5084
| 24> C 	 -110.912 	 50.7894 	 -92.0367
| 25> C 	 -109.764 	 50.4839 	 -91.3489
| 26> C 	 -109.475 	 51.4559 	 -90.3172
| 27> C 	 -110.415 	 52.3944 	 -90.2833
| 28> H 	 -109.263 	 49.5466 	 -91.605
| 29> C 	 -108.289 	 51.2176 	 -89.484
| 30> H 	 -108.169 	 50.1082 	 -89.3614
| 31> H 	 -108.507 	 51.646 	 -88.5257
| 32> C 	 -106.988 	 51.7602 	 -90.0416
| 33> H 	 -106.218 	 51.5577 	 -89.3017
| 34> H 	 -107.056 	 52.7798 	 -90.1198
| 35> C 	 -106.513 	 51.0476 	 -91.2879
| 36> H 	 -105.616 	 51.5428 	 -91.6518
| 37> H 	 -107.249 	 51.1815 	 -92.0749
| 38> H 	 -106.231 	 50.0205 	 -91.2729
| 39> H 	 -111.169 	 56.6602 	 -87.8856
| 40> H 	 -111.314 	 50.2144 	 -92.808
| 41> *
| 42>
| 43>                          ****END OF INPUT****

CARTESIAN COORDINATES (ANGSTROEM)
---------------------------------
  S    -110.853000   55.087900  -89.757900
  C    -111.039000   55.609000  -88.139100
  C    -110.716000   54.563700  -87.257800
  C    -110.621000   53.327700  -87.905500
  C    -110.655000   53.420500  -89.246900
  H    -110.539000   52.348700  -87.355800
  C    -110.619000   54.688700  -85.699600
  H    -111.462000   54.043000  -85.313400
  H    -110.789000   55.761400  -85.335200
  C    -109.254000   54.251300  -85.224500
  H    -109.299000   54.209700  -84.160800
  H    -108.969000   53.249300  -85.588500
  C    -108.152000   55.198700  -85.544100
  H    -108.296000   56.211800  -85.167700
  H    -107.316000   54.873700  -84.908000
  H    -107.931000   55.128000  -86.650800
  S    -111.658000   52.208900  -91.508400
  C    -110.912000   50.789400  -92.036700
  C    -109.764000   50.483900  -91.348900
  C    -109.475000   51.455900  -90.317200
  C    -110.415000   52.394400  -90.283300
  H    -109.263000   49.546600  -91.605000
  C    -108.289000   51.217600  -89.484000
  H    -108.169000   50.108200  -89.361400
  H    -108.507000   51.646000  -88.525700
  C    -106.988000   51.760200  -90.041600
  H    -106.218000   51.557700  -89.301700
  H    -107.056000   52.779800  -90.119800
  C    -106.513000   51.047600  -91.287900
  H    -105.616000   51.542800  -91.651800
  H    -107.249000   51.181500  -92.074900
  H    -106.231000   50.020500  -91.272900
  H    -111.169000   56.660200  -87.885600
  H    -111.314000   50.214400  -92.808000

 Total Charge           Charge          ....    0
 Multiplicity           Mult            ....    1
 Number of Electrons    NEL             ....  134
 Basis Dimension        Dim             ....  322

ORBITAL ENERGIES
----------------

  NO   OCC          E(Eh)            E(eV)
   0   2.0000     -88.961724     -2420.7716
   1   2.0000     -88.961195     -2420.7572
   2   2.0000     -10.324313      -280.9388
   3   2.0000     -10.318552      -280.7821
   4   2.0000     -10.311042      -280.5777
   5   2.0000     -10.306433      -280.4523
   6   2.0000     -10.301360      -280.3143
   7   2.0000     -10.300056      -280.2788
   8   2.0000     -10.294649      -280.1316
   9   2.0000     -10.292166      -280.0641
  10   2.0000     -10.289678      -279.9964
  11   2.0000     -10.285750      -279.8895
  12   2.0000     -10.280419      -279.7444
  13   2.0000     -10.277022      -279.6520
  14   2.0000     -10.276587      -279.6401
  15   2.0000     -10.269355      -279.4434
  16   2.0000      -8.077589      -219.8024
  17   2.0000      -8.077360      -219.7961
  18   2.0000      -6.035879      -164.2446
  19   2.0000      -6.035683      -164.2393
  20   2.0000      -6.032001      -164.1391
  21   2.0000      -6.031770      -164.1328
  22   2.0000      -6.028344      -164.0396
  23   2.0000      -6.028246      -164.0369
  24   2.0000      -1.014845       -27.6153
  25   2.0000      -0.992728       -27.0135
  26   2.0000      -0.920400       -25.0454
  27   2.0000      -0.914943       -24.8969
  28   2.0000      -0.870036       -23.6749
  29   2.0000      -0.855085       -23.2681
  30   2.0000      -0.848696       -23.0942
  31   2.0000      -0.813223       -22.1289
  32   2.0000      -0.788616       -21.4593
  33   2.0000      -0.771770       -21.0009
  34   2.0000      -0.711047       -19.3486
  35   2.0000      -0.693995       -18.8846
  36   2.0000      -0.685813       -18.6619
  37   2.0000      -0.664375       -18.0786
  38   2.0000      -0.639604       -17.4045
  39   2.0000      -0.625757       -17.0277
  40   2.0000      -0.598023       -16.2730
  41   2.0000      -0.571085       -15.5400
  42   2.0000      -0.562051       -15.2942
  43   2.0000      -0.552632       -15.0379
  44   2.0000      -0.547187       -14.8897
  45   2.0000      -0.538263       -14.6469
  46   2.0000      -0.520178       -14.1548
  47   2.0000      -0.510595       -13.8940
  48   2.0000      -0.501689       -13.6517
  49   2.0000      -0.492736       -13.4080
  50   2.0000      -0.486769       -13.2457
  51   2.0000      -0.481706       -13.1079
  52   2.0000      -0.474067       -12.9000
  53   2.0000      -0.468950       -12.7608
  54   2.0000      -0.464237       -12.6325
  55   2.0000      -0.445141       -12.1129
  56   2.0000      -0.444070       -12.0838
  57   2.0000      -0.433485       -11.7957
  58   2.0000      -0.432650       -11.7730
  59   2.0000      -0.430629       -11.7180
  60   2.0000      -0.425877       -11.5887
  61   2.0000      -0.410000       -11.1567
  62   2.0000      -0.405886       -11.0447
  63   2.0000      -0.347438        -9.4543
  64   2.0000      -0.332812        -9.0563
  65   2.0000      -0.327545        -8.9129
  66   2.0000      -0.294691        -8.0189
  67   0.0000       0.040322         1.0972
  68   0.0000       0.074461         2.0262
  69   0.0000       0.115874         3.1531
  70   0.0000       0.117006         3.1839
  71   0.0000       0.130360         3.5473

MULLIKEN ATOMIC CHARGES
-----------------------
   0 S :    0.104011
   1 C :   -0.116817
   2 C :   -0.119700
   3 C :    0.003112
   4 C :   -0.147432
   5 H :    0.041368
   6 C :    0.040198
   7 H :    0.049125
   8 H :    0.029471
   9 C :   -0.068562
  10 H :    0.016635
  11 H :    0.026774
  12 C :   -0.054968
  13 H :    0.024003
  14 H :    0.028067
  15 H :    0.058400
  16 S :    0.116180
  17 C :   -0.065528
  18 C :   -0.057430
  19 C :   -0.035125
  20 C :   -0.157527
  21 H :    0.024004
  22 C :    0.094494
  23 H :    0.025981
  24 H :   -0.004501
  25 C :   -0.005133
  26 H :    0.022848
  27 H :    0.013879
  28 C :   -0.050113
  29 H :    0.023212
  30 H :    0.033669
  31 H :    0.023075
  32 H :    0.053294
  33 H :    0.031040
Sum of atomic charges:   -0.0000000

LOEWDIN ATOMIC CHARGES
----------------------
   0 S :    0.414050
   1 C :   -0.213566
   2 C :   -0.068091
   3 C :   -0.077945
   4 C :   -0.186381
   5 H :    0.043981
   6 C :   -0.033687
   7 H :    0.037014
   8 H :    0.034252
   9 C :   -0.050479
  10 H :    0.019712
  11 H :    0.024073
  12 C :   -0.067466
  13 H :    0.022502
  14 H :    0.029681
  15 H :    0.035356
  16 S :    0.420929
  17 C :   -0.187188
  18 C :   -0.073341
  19 C :   -0.055467
  20 C :   -0.203073
  21 H :    0.033532
  22 C :   -0.029346
  23 H :    0.036772
  24 H :    0.023227
  25 C :   -0.025052
  26 H :    0.026932
  27 H :    0.016726
  28 C :   -0.065904
  29 H :    0.028452
  30 H :    0.024674
  31 H :    0.021051
  32 H :    0.028365
  33 H :    0.015707

  Mayer bond orders larger than 0.100000
B(  0-S ,  1-C ) :   1.1514 B(  0-S ,  4-C ) :   1.1706 B(  1-C ,  2-C ) :   1.5902
B(  1-C ,  4-C ) :   0.1037 B(  1-C , 32-H ) :   0.9712 B(  2-C ,  3-C ) :   1.2504
B(  2-C ,  6-C ) :   1.0084 B(  3-C ,  4-C ) :   1.6024 B(  3-C ,  5-H ) :   0.9807
B(  4-C , 20-C ) :   0.9767 B(  6-C ,  7-H ) :   0.9447 B(  6-C ,  8-H ) :   0.9468
B(  6-C ,  9-C ) :   1.0729 B(  9-C , 10-H ) :   0.9518 B(  9-C , 11-H ) :   0.9527
B(  9-C , 12-C ) :   1.0871 B( 12-C , 13-H ) :   0.9701 B( 12-C , 14-H ) :   0.9707
B( 12-C , 15-H ) :   0.9731 B( 16-S , 17-C ) :   1.1654 B( 16-S , 20-C ) :   1.1320
B( 17-C , 18-C ) :   1.6293 B( 17-C , 33-H ) :   0.9732 B( 18-C , 19-C ) :   1.1861
B( 18-C , 21-H ) :   0.9903 B( 19-C , 20-C ) :   1.6673 B( 19-C , 22-C ) :   1.0453
B( 22-C , 23-H ) :   0.9308 B( 22-C , 24-H ) :   0.9134 B( 22-C , 25-C ) :   1.0933
B( 25-C , 26-H ) :   0.9502 B( 25-C , 27-H ) :   0.9496 B( 25-C , 28-C ) :   1.0880
B( 28-C , 29-H ) :   0.9678 B( 28-C , 30-H ) :   0.9692 B( 28-C , 31-H ) :   0.9737

Dispersion correction           -0.014937471
FINAL SINGLE POINT ENERGY     -1339.880785280099

DIPOLE MOMENT
-------------
                                X             Y             Z
Electronic contribution:    -21.15365       3.60505     -16.15091
Nuclear contribution   :     21.58381      -3.92439      16.60996
                        -----------------------------------------
Total Dipole Moment    :      0.43017      -0.31934       0.45905
                        -----------------------------------------
Magnitude (a.u.)       :      0.70551
Magnitude (Debye)      :      1.79327

Rotational constants in cm-1:     0.019645     0.009393     0.007258
Rotational constants in MHz :   588.939537   281.600293   217.593224

                             ****ORCA TERMINATED NORMALLY****
TOTAL RUN TIME: 0 days 0 hours 0 minutes 22 seconds 541 msec
