                         Program Version 4.2.1 -  RELEASE  -
|  1> ! wB97X-D3 SP def2-SVP
|  2> %pal
|  3> nprocs 24
|  4> end
|  5>
|  6> * xyz 0 1
|  7> S 	 -106.315 	 56.8922 	 -15.8111
|  8> C 	 -106.37 	 58.0056 	 -14.4367
|  9> C 	 -105.774 	 59.1901 	 -14.7454
| 10> C 	 -105.194 	 59.2091 	 -16.0671
| 11> C 	 -105.323 	 58.0214 	 -16.771
| 12> H 	 -104.594 	 59.9504 	 -16.5435
| 13> C 	 -105.736 	 60.4745 	 -13.8621
| 14> H 	 -105.626 	 61.2614 	 -14.5524
| 15> H 	 -104.905 	 60.24 	 -13.2173
| 16> C 	 -106.929 	 60.7693 	 -12.9072
| 17> H 	 -107.31 	 59.9135 	 -12.3397
| 18> H 	 -106.639 	 61.5113 	 -12.2112
| 19> C 	 -108.108 	 61.2963 	 -13.6344
| 20> H 	 -108.962 	 61.5447 	 -12.9087
| 21> H 	 -107.827 	 62.2078 	 -14.0782
| 22> H 	 -108.376 	 60.6664 	 -14.4124
| 23> S 	 -106.394 	 57.2858 	 -19.0987
| 24> C 	 -105.382 	 57.3991 	 -20.5315
| 25> C 	 -104.073 	 57.7862 	 -20.2948
| 26> C 	 -103.808 	 58.0239 	 -18.8852
| 27> C 	 -104.998 	 57.8145 	 -18.1591
| 28> H 	 -103.26 	 57.812 	 -21.0221
| 29> C 	 -102.451 	 58.3363 	 -18.327
| 30> H 	 -101.718 	 57.9468 	 -19.0786
| 31> H 	 -102.308 	 57.7507 	 -17.4309
| 32> C 	 -101.992 	 59.759 	 -18.0718
| 33> H 	 -102.681 	 60.2776 	 -17.4085
| 34> H 	 -102.07 	 60.2227 	 -19.0703
| 35> C 	 -100.601 	 59.7465 	 -17.3824
| 36> H 	 -99.8533 	 59.4406 	 -18.0691
| 37> H 	 -100.691 	 59.1415 	 -16.411
| 38> H 	 -100.525 	 60.7956 	 -17.0033
| 39> H 	 -106.807 	 57.7971 	 -13.4725
| 40> H 	 -105.599 	 57.0883 	 -21.53
| 41> *
| 42>
| 43>                          ****END OF INPUT****

CARTESIAN COORDINATES (ANGSTROEM)
---------------------------------
  S    -106.315000   56.892200  -15.811100
  C    -106.370000   58.005600  -14.436700
  C    -105.774000   59.190100  -14.745400
  C    -105.194000   59.209100  -16.067100
  C    -105.323000   58.021400  -16.771000
  H    -104.594000   59.950400  -16.543500
  C    -105.736000   60.474500  -13.862100
  H    -105.626000   61.261400  -14.552400
  H    -104.905000   60.240000  -13.217300
  C    -106.929000   60.769300  -12.907200
  H    -107.310000   59.913500  -12.339700
  H    -106.639000   61.511300  -12.211200
  C    -108.108000   61.296300  -13.634400
  H    -108.962000   61.544700  -12.908700
  H    -107.827000   62.207800  -14.078200
  H    -108.376000   60.666400  -14.412400
  S    -106.394000   57.285800  -19.098700
  C    -105.382000   57.399100  -20.531500
  C    -104.073000   57.786200  -20.294800
  C    -103.808000   58.023900  -18.885200
  C    -104.998000   57.814500  -18.159100
  H    -103.260000   57.812000  -21.022100
  C    -102.451000   58.336300  -18.327000
  H    -101.718000   57.946800  -19.078600
  H    -102.308000   57.750700  -17.430900
  C    -101.992000   59.759000  -18.071800
  H    -102.681000   60.277600  -17.408500
  H    -102.070000   60.222700  -19.070300
  C    -100.601000   59.746500  -17.382400
  H    -99.853300   59.440600  -18.069100
  H    -100.691000   59.141500  -16.411000
  H    -100.525000   60.795600  -17.003300
  H    -106.807000   57.797100  -13.472500
  H    -105.599000   57.088300  -21.530000

 Total Charge           Charge          ....    0
 Multiplicity           Mult            ....    1
 Number of Electrons    NEL             ....  134
 Basis Dimension        Dim             ....  322

ORBITAL ENERGIES
----------------

  NO   OCC          E(Eh)            E(eV)
   0   2.0000     -88.971062     -2421.0257
   1   2.0000     -88.964117     -2420.8367
   2   2.0000     -10.329142      -281.0702
   3   2.0000     -10.327740      -281.0321
   4   2.0000     -10.315692      -280.7043
   5   2.0000     -10.313402      -280.6419
   6   2.0000     -10.306787      -280.4619
   7   2.0000     -10.303321      -280.3676
   8   2.0000     -10.297372      -280.2057
   9   2.0000     -10.293161      -280.0911
  10   2.0000     -10.292821      -280.0819
  11   2.0000     -10.290792      -280.0267
  12   2.0000     -10.289435      -279.9898
  13   2.0000     -10.289318      -279.9866
  14   2.0000     -10.281601      -279.7766
  15   2.0000     -10.266115      -279.3552
  16   2.0000      -8.085220      -220.0100
  17   2.0000      -8.078063      -219.8153
  18   2.0000      -6.043813      -164.4605
  19   2.0000      -6.039970      -164.3559
  20   2.0000      -6.036741      -164.2681
  21   2.0000      -6.035750      -164.2411
  22   2.0000      -6.032690      -164.1579
  23   2.0000      -6.028680      -164.0487
  24   2.0000      -1.002896       -27.2902
  25   2.0000      -0.977715       -26.6050
  26   2.0000      -0.915262       -24.9055
  27   2.0000      -0.913246       -24.8507
  28   2.0000      -0.871805       -23.7230
  29   2.0000      -0.853906       -23.2360
  30   2.0000      -0.846271       -23.0282
  31   2.0000      -0.812875       -22.1195
  32   2.0000      -0.782461       -21.2918
  33   2.0000      -0.771261       -20.9871
  34   2.0000      -0.709299       -19.3010
  35   2.0000      -0.702093       -19.1049
  36   2.0000      -0.690802       -18.7977
  37   2.0000      -0.665476       -18.1085
  38   2.0000      -0.640991       -17.4422
  39   2.0000      -0.606846       -16.5131
  40   2.0000      -0.594673       -16.1819
  41   2.0000      -0.577469       -15.7137
  42   2.0000      -0.576682       -15.6923
  43   2.0000      -0.559645       -15.2287
  44   2.0000      -0.540059       -14.6957
  45   2.0000      -0.520718       -14.1695
  46   2.0000      -0.518666       -14.1136
  47   2.0000      -0.513254       -13.9664
  48   2.0000      -0.504686       -13.7332
  49   2.0000      -0.499989       -13.6054
  50   2.0000      -0.488967       -13.3055
  51   2.0000      -0.481980       -13.1153
  52   2.0000      -0.475146       -12.9294
  53   2.0000      -0.461825       -12.5669
  54   2.0000      -0.459076       -12.4921
  55   2.0000      -0.455544       -12.3960
  56   2.0000      -0.435653       -11.8547
  57   2.0000      -0.433855       -11.8058
  58   2.0000      -0.430671       -11.7192
  59   2.0000      -0.427179       -11.6241
  60   2.0000      -0.426172       -11.5967
  61   2.0000      -0.419176       -11.4063
  62   2.0000      -0.412866       -11.2347
  63   2.0000      -0.348269        -9.4769
  64   2.0000      -0.332237        -9.0406
  65   2.0000      -0.327489        -8.9114
  66   2.0000      -0.289130        -7.8676
  67   0.0000       0.026955         0.7335
  68   0.0000       0.067802         1.8450
  69   0.0000       0.103411         2.8139
  70   0.0000       0.123474         3.3599
  71   0.0000       0.129754         3.5308

MULLIKEN ATOMIC CHARGES
-----------------------
   0 S :    0.091599
   1 C :   -0.125237
   2 C :   -0.098544
   3 C :    0.037740
   4 C :   -0.150630
   5 H :   -0.011788
   6 C :    0.102007
   7 H :    0.017744
   8 H :    0.044791
   9 C :   -0.061373
  10 H :    0.023629
  11 H :    0.019973
  12 C :   -0.029069
  13 H :    0.042642
  14 H :    0.003797
  15 H :    0.025143
  16 S :    0.122973
  17 C :   -0.062594
  18 C :   -0.041052
  19 C :   -0.023154
  20 C :   -0.168860
  21 H :    0.019330
  22 C :    0.031209
  23 H :    0.017479
  24 H :    0.026080
  25 C :   -0.077752
  26 H :    0.022732
  27 H :    0.031639
  28 C :   -0.049852
  29 H :    0.044457
  30 H :    0.047826
  31 H :    0.041513
  32 H :    0.043715
  33 H :    0.041884
Sum of atomic charges:   -0.0000000

LOEWDIN ATOMIC CHARGES
----------------------
   0 S :    0.373132
   1 C :   -0.193244
   2 C :   -0.062463
   3 C :   -0.062075
   4 C :   -0.185940
   5 H :    0.023298
   6 C :   -0.017886
   7 H :    0.023971
   8 H :    0.038531
   9 C :   -0.040323
  10 H :    0.022750
  11 H :    0.021174
  12 C :   -0.058434
  13 H :    0.035753
  14 H :    0.014484
  15 H :    0.016410
  16 S :    0.406780
  17 C :   -0.185822
  18 C :   -0.065547
  19 C :   -0.054556
  20 C :   -0.188950
  21 H :    0.031572
  22 C :   -0.042123
  23 H :    0.035000
  24 H :    0.029339
  25 C :   -0.041648
  26 H :    0.015874
  27 H :    0.026569
  28 C :   -0.062659
  29 H :    0.021135
  30 H :    0.038828
  31 H :    0.034268
  32 H :    0.028353
  33 H :    0.024449

  Mayer bond orders larger than 0.100000
B(  0-S ,  1-C ) :   1.1159 B(  0-S ,  4-C ) :   1.1295 B(  1-C ,  2-C ) :   1.6414
B(  1-C , 32-H ) :   0.9694 B(  2-C ,  3-C ) :   1.2184 B(  2-C ,  6-C ) :   0.9892
B(  3-C ,  4-C ) :   1.5946 B(  3-C ,  5-H ) :   0.9934 B(  4-C , 20-C ) :   1.0574
B(  6-C ,  7-H ) :   0.9494 B(  6-C ,  8-H ) :   0.9313 B(  6-C ,  9-C ) :   1.0834
B(  9-C , 10-H ) :   0.9535 B(  9-C , 11-H ) :   0.9517 B(  9-C , 12-C ) :   1.0848
B( 12-C , 13-H ) :   0.9715 B( 12-C , 14-H ) :   0.9701 B( 12-C , 15-H ) :   0.9780
B( 16-S , 17-C ) :   1.1325 B( 16-S , 20-C ) :   1.1378 B( 17-C , 18-C ) :   1.6378
B( 17-C , 33-H ) :   0.9646 B( 18-C , 19-C ) :   1.2332 B( 18-C , 21-H ) :   0.9791
B( 19-C , 20-C ) :   1.5964 B( 19-C , 22-C ) :   1.0446 B( 22-C , 23-H ) :   0.9328
B( 22-C , 24-H ) :   0.9305 B( 22-C , 25-C ) :   1.0668 B( 25-C , 26-H ) :   0.9526
B( 25-C , 27-H ) :   0.9499 B( 25-C , 28-C ) :   1.0741 B( 28-C , 29-H ) :   0.9776
B( 28-C , 30-H ) :   0.9706 B( 28-C , 31-H ) :   0.9749

Dispersion correction           -0.013996191
FINAL SINGLE POINT ENERGY     -1339.864007598439

DIPOLE MOMENT
-------------
                                X             Y             Z
Electronic contribution:    -11.74196     -19.78938     -11.93662
Nuclear contribution   :     12.20374      20.29163      12.08457
                        -----------------------------------------
Total Dipole Moment    :      0.46178       0.50226       0.14795
                        -----------------------------------------
Magnitude (a.u.)       :      0.69813
Magnitude (Debye)      :      1.77452

Rotational constants in cm-1:     0.017781     0.008656     0.006651
Rotational constants in MHz :   533.048336   259.504498   199.395921

                             ****ORCA TERMINATED NORMALLY****
TOTAL RUN TIME: 0 days 0 hours 0 minutes 21 seconds 507 msec
