                         Program Version 4.2.1 -  RELEASE  -
|  1> ! wB97X-D3 SP def2-SVP
|  2> %pal
|  3> nprocs 24
|  4> end
|  5>
|  6> * xyz 0 1
|  7> S 	 -36.2403 	 6.44686 	 -5.12954
|  8> C 	 -35.7261 	 4.78569 	 -5.49646
|  9> C 	 -35.3423 	 4.07401 	 -4.40336
| 10> C 	 -35.279 	 4.9872 	 -3.27808
| 11> C 	 -35.8253 	 6.23308 	 -3.48047
| 12> H 	 -35.0035 	 4.6182 	 -2.28933
| 13> C 	 -34.9418 	 2.65611 	 -4.42212
| 14> H 	 -34.4257 	 2.39564 	 -3.50192
| 15> H 	 -34.2275 	 2.43044 	 -5.22825
| 16> C 	 -36.0836 	 1.69119 	 -4.79748
| 17> H 	 -36.9931 	 2.04034 	 -4.34602
| 18> H 	 -36.2553 	 1.75935 	 -5.86058
| 19> C 	 -35.9494 	 0.258256 	 -4.34184
| 20> H 	 -35.059 	 -0.164257 	 -4.82912
| 21> H 	 -35.9981 	 0.0423268 	 -3.33285
| 22> H 	 -36.8019 	 -0.29702 	 -4.75875
| 23> S 	 -37.8596 	 7.71744 	 -2.29426
| 24> C 	 -37.3989 	 8.66473 	 -0.919082
| 25> C 	 -36.1095 	 8.54642 	 -0.605458
| 26> C 	 -35.3936 	 7.68718 	 -1.41265
| 27> C 	 -36.1936 	 7.2043 	 -2.41618
| 28> H 	 -35.6791 	 8.92673 	 0.309527
| 29> C 	 -33.9573 	 7.3968 	 -1.16219
| 30> H 	 -33.6098 	 6.65641 	 -1.78575
| 31> H 	 -33.7561 	 7.008 	 -0.187561
| 32> C 	 -33.0474 	 8.56564 	 -1.46236
| 33> H 	 -32.0933 	 8.39413 	 -0.984411
| 34> H 	 -33.4443 	 9.4185 	 -0.870464
| 35> C 	 -32.9641 	 8.90304 	 -2.97832
| 36> H 	 -32.5925 	 8.00207 	 -3.58973
| 37> H 	 -32.1561 	 9.6102 	 -3.16586
| 38> H 	 -33.886 	 9.26111 	 -3.37457
| 39> H 	 -35.7818 	 4.32945 	 -6.49928
| 40> H 	 -38.0993 	 9.29578 	 -0.422349
| 41> *
| 42>
| 43>                          ****END OF INPUT****

CARTESIAN COORDINATES (ANGSTROEM)
---------------------------------
  S    -36.240300    6.446860   -5.129540
  C    -35.726100    4.785690   -5.496460
  C    -35.342300    4.074010   -4.403360
  C    -35.279000    4.987200   -3.278080
  C    -35.825300    6.233080   -3.480470
  H    -35.003500    4.618200   -2.289330
  C    -34.941800    2.656110   -4.422120
  H    -34.425700    2.395640   -3.501920
  H    -34.227500    2.430440   -5.228250
  C    -36.083600    1.691190   -4.797480
  H    -36.993100    2.040340   -4.346020
  H    -36.255300    1.759350   -5.860580
  C    -35.949400    0.258256   -4.341840
  H    -35.059000   -0.164257   -4.829120
  H    -35.998100    0.042327   -3.332850
  H    -36.801900   -0.297020   -4.758750
  S    -37.859600    7.717440   -2.294260
  C    -37.398900    8.664730   -0.919082
  C    -36.109500    8.546420   -0.605458
  C    -35.393600    7.687180   -1.412650
  C    -36.193600    7.204300   -2.416180
  H    -35.679100    8.926730    0.309527
  C    -33.957300    7.396800   -1.162190
  H    -33.609800    6.656410   -1.785750
  H    -33.756100    7.008000   -0.187561
  C    -33.047400    8.565640   -1.462360
  H    -32.093300    8.394130   -0.984411
  H    -33.444300    9.418500   -0.870464
  C    -32.964100    8.903040   -2.978320
  H    -32.592500    8.002070   -3.589730
  H    -32.156100    9.610200   -3.165860
  H    -33.886000    9.261110   -3.374570
  H    -35.781800    4.329450   -6.499280
  H    -38.099300    9.295780   -0.422349

 Total Charge           Charge          ....    0
 Multiplicity           Mult            ....    1
 Number of Electrons    NEL             ....  134
 Basis Dimension        Dim             ....  322

ORBITAL ENERGIES
----------------

  NO   OCC          E(Eh)            E(eV)
   0   2.0000     -88.966112     -2420.8910
   1   2.0000     -88.964888     -2420.8577
   2   2.0000     -10.325036      -280.9585
   3   2.0000     -10.323338      -280.9123
   4   2.0000     -10.310905      -280.5740
   5   2.0000     -10.307310      -280.4762
   6   2.0000     -10.296889      -280.1926
   7   2.0000     -10.291956      -280.0584
   8   2.0000     -10.290580      -280.0209
   9   2.0000     -10.290213      -280.0109
  10   2.0000     -10.283440      -279.8266
  11   2.0000     -10.281892      -279.7845
  12   2.0000     -10.280736      -279.7531
  13   2.0000     -10.276801      -279.6460
  14   2.0000     -10.275076      -279.5990
  15   2.0000     -10.273752      -279.5630
  16   2.0000      -8.081441      -219.9072
  17   2.0000      -8.079848      -219.8638
  18   2.0000      -6.039762      -164.3503
  19   2.0000      -6.038374      -164.3125
  20   2.0000      -6.036076      -164.2500
  21   2.0000      -6.034365      -164.2034
  22   2.0000      -6.032165      -164.1436
  23   2.0000      -6.030549      -164.0996
  24   2.0000      -1.013150       -27.5692
  25   2.0000      -0.990428       -26.9509
  26   2.0000      -0.917966       -24.9791
  27   2.0000      -0.915194       -24.9037
  28   2.0000      -0.870141       -23.6777
  29   2.0000      -0.848816       -23.0975
  30   2.0000      -0.847725       -23.0678
  31   2.0000      -0.812169       -22.1003
  32   2.0000      -0.788054       -21.4440
  33   2.0000      -0.777013       -21.1436
  34   2.0000      -0.705772       -19.2050
  35   2.0000      -0.701143       -19.0791
  36   2.0000      -0.695198       -18.9173
  37   2.0000      -0.660448       -17.9717
  38   2.0000      -0.636582       -17.3223
  39   2.0000      -0.621167       -16.9028
  40   2.0000      -0.609380       -16.5821
  41   2.0000      -0.569993       -15.5103
  42   2.0000      -0.567326       -15.4377
  43   2.0000      -0.557002       -15.1568
  44   2.0000      -0.539852       -14.6901
  45   2.0000      -0.522236       -14.2108
  46   2.0000      -0.518910       -14.1203
  47   2.0000      -0.505876       -13.7656
  48   2.0000      -0.504570       -13.7300
  49   2.0000      -0.495334       -13.4787
  50   2.0000      -0.488157       -13.2834
  51   2.0000      -0.481801       -13.1105
  52   2.0000      -0.471227       -12.8227
  53   2.0000      -0.466583       -12.6964
  54   2.0000      -0.459230       -12.4963
  55   2.0000      -0.450915       -12.2700
  56   2.0000      -0.446876       -12.1601
  57   2.0000      -0.434396       -11.8205
  58   2.0000      -0.431268       -11.7354
  59   2.0000      -0.427982       -11.6460
  60   2.0000      -0.424501       -11.5512
  61   2.0000      -0.415605       -11.3092
  62   2.0000      -0.412356       -11.2208
  63   2.0000      -0.345534        -9.4025
  64   2.0000      -0.335803        -9.1377
  65   2.0000      -0.328141        -8.9292
  66   2.0000      -0.292541        -7.9605
  67   0.0000       0.038540         1.0487
  68   0.0000       0.073567         2.0018
  69   0.0000       0.114528         3.1165
  70   0.0000       0.120211         3.2711
  71   0.0000       0.132405         3.6029

MULLIKEN ATOMIC CHARGES
-----------------------
   0 S :    0.109995
   1 C :   -0.140455
   2 C :   -0.081921
   3 C :    0.033199
   4 C :   -0.155385
   5 H :    0.008454
   6 C :    0.080335
   7 H :    0.015815
   8 H :    0.033737
   9 C :   -0.089225
  10 H :    0.023601
  11 H :    0.024606
  12 C :   -0.022763
  13 H :    0.025064
  14 H :    0.026010
  15 H :    0.027752
  16 S :    0.117909
  17 C :   -0.076822
  18 C :   -0.014206
  19 C :   -0.045165
  20 C :   -0.169054
  21 H :    0.010442
  22 C :    0.148783
  23 H :   -0.020803
  24 H :    0.017667
  25 C :   -0.081524
  26 H :    0.019771
  27 H :    0.019766
  28 C :   -0.054294
  29 H :    0.038403
  30 H :    0.031450
  31 H :    0.046301
  32 H :    0.050748
  33 H :    0.041811
Sum of atomic charges:   -0.0000000

LOEWDIN ATOMIC CHARGES
----------------------
   0 S :    0.405245
   1 C :   -0.190262
   2 C :   -0.063205
   3 C :   -0.065188
   4 C :   -0.205476
   5 H :    0.026831
   6 C :   -0.035639
   7 H :    0.028499
   8 H :    0.037865
   9 C :   -0.036876
  10 H :    0.020609
  11 H :    0.021963
  12 C :   -0.059389
  13 H :    0.025063
  14 H :    0.015534
  15 H :    0.032846
  16 S :    0.412103
  17 C :   -0.179257
  18 C :   -0.069371
  19 C :   -0.057584
  20 C :   -0.193717
  21 H :    0.032091
  22 C :   -0.026761
  23 H :    0.017059
  24 H :    0.030109
  25 C :   -0.036701
  26 H :    0.020987
  27 H :    0.021361
  28 C :   -0.065211
  29 H :    0.035128
  30 H :    0.026003
  31 H :    0.023368
  32 H :    0.029511
  33 H :    0.022463

  Mayer bond orders larger than 0.100000
B(  0-S ,  1-C ) :   1.1257 B(  0-S ,  4-C ) :   1.1549 B(  1-C ,  2-C ) :   1.6265
B(  1-C , 32-H ) :   0.9640 B(  2-C ,  3-C ) :   1.2422 B(  2-C ,  6-C ) :   1.0432
B(  3-C ,  4-C ) :   1.5838 B(  3-C ,  5-H ) :   0.9854 B(  4-C , 20-C ) :   1.0050
B(  6-C ,  7-H ) :   0.9427 B(  6-C ,  8-H ) :   0.9352 B(  6-C ,  9-C ) :   1.0384
B(  9-C , 10-H ) :   0.9615 B(  9-C , 11-H ) :   0.9547 B(  9-C , 12-C ) :   1.0989
B( 12-C , 13-H ) :   0.9717 B( 12-C , 14-H ) :   0.9771 B( 12-C , 15-H ) :   0.9695
B( 16-S , 17-C ) :   1.1451 B( 16-S , 20-C ) :   1.1562 B( 17-C , 18-C ) :   1.6141
B( 17-C , 33-H ) :   0.9696 B( 18-C , 19-C ) :   1.2552 B( 18-C , 21-H ) :   0.9866
B( 19-C , 20-C ) :   1.6038 B( 19-C , 22-C ) :   1.0542 B( 22-C , 23-H ) :   0.9119
B( 22-C , 24-H ) :   0.9242 B( 22-C , 25-C ) :   1.0812 B( 25-C , 26-H ) :   0.9536
B( 25-C , 27-H ) :   0.9560 B( 25-C , 28-C ) :   1.0667 B( 28-C , 29-H ) :   0.9726
B( 28-C , 30-H ) :   0.9748 B( 28-C , 31-H ) :   0.9769

Dispersion correction           -0.014554415
FINAL SINGLE POINT ENERGY     -1339.880897111151

DIPOLE MOMENT
-------------
                                X             Y             Z
Electronic contribution:    -15.64528      14.81645      -1.50979
Nuclear contribution   :     15.95361     -15.25521       1.81949
                        -----------------------------------------
Total Dipole Moment    :      0.30833      -0.43876       0.30971
                        -----------------------------------------
Magnitude (a.u.)       :      0.61927
Magnitude (Debye)      :      1.57406

Rotational constants in cm-1:     0.021678     0.007558     0.006941
Rotational constants in MHz :   649.893690   226.591392   208.077381

                             ****ORCA TERMINATED NORMALLY****
TOTAL RUN TIME: 0 days 0 hours 0 minutes 21 seconds 731 msec
