                         Program Version 4.2.1 -  RELEASE  -
|  1> ! wB97X-D3 SP def2-SVP
|  2> %pal
|  3> nprocs 24
|  4> end
|  5>
|  6> * xyz 0 1
|  7> S 	 -132.161 	 74.597 	 -66.4362
|  8> C 	 -130.773 	 74.3321 	 -65.3465
|  9> C 	 -131.08 	 74.3024 	 -64.0124
| 10> C 	 -132.529 	 74.4705 	 -63.8581
| 11> C 	 -133.293 	 74.5152 	 -65.0489
| 12> H 	 -133.078 	 74.517 	 -62.9476
| 13> C 	 -130.137 	 74.2742 	 -62.8193
| 14> H 	 -129.132 	 74.049 	 -63.152
| 15> H 	 -130.459 	 73.4972 	 -62.1382
| 16> C 	 -130.128 	 75.5928 	 -62.0524
| 17> H 	 -130.975 	 75.6179 	 -61.2648
| 18> H 	 -129.27 	 75.6941 	 -61.2936
| 19> C 	 -130.048 	 76.8375 	 -62.8748
| 20> H 	 -130.987 	 77.0483 	 -63.2554
| 21> H 	 -129.874 	 77.7071 	 -62.1955
| 22> H 	 -129.336 	 76.8009 	 -63.5916
| 23> S 	 -135.434 	 73.4769 	 -66.3554
| 24> C 	 -137.03 	 73.8032 	 -65.7109
| 25> C 	 -137.042 	 74.7908 	 -64.7734
| 26> C 	 -135.724 	 75.3147 	 -64.6311
| 27> C 	 -134.76 	 74.5342 	 -65.2265
| 28> H 	 -137.924 	 75.1536 	 -64.2836
| 29> C 	 -135.506 	 76.4513 	 -63.6763
| 30> H 	 -136.03 	 77.3042 	 -64.1071
| 31> H 	 -134.536 	 76.8884 	 -63.6486
| 32> C 	 -136.054 	 76.1684 	 -62.2198
| 33> H 	 -135.516 	 75.2825 	 -61.7756
| 34> H 	 -137.049 	 75.7805 	 -62.2534
| 35> C 	 -135.941 	 77.2607 	 -61.1245
| 36> H 	 -136.495 	 76.7482 	 -60.2371
| 37> H 	 -136.264 	 78.3019 	 -61.3006
| 38> H 	 -134.862 	 77.4133 	 -60.7427
| 39> H 	 -129.765 	 74.2563 	 -65.7076
| 40> H 	 -137.871 	 73.3197 	 -66.1146
| 41> *
| 42>
| 43>                          ****END OF INPUT****

CARTESIAN COORDINATES (ANGSTROEM)
---------------------------------
  S    -132.161000   74.597000  -66.436200
  C    -130.773000   74.332100  -65.346500
  C    -131.080000   74.302400  -64.012400
  C    -132.529000   74.470500  -63.858100
  C    -133.293000   74.515200  -65.048900
  H    -133.078000   74.517000  -62.947600
  C    -130.137000   74.274200  -62.819300
  H    -129.132000   74.049000  -63.152000
  H    -130.459000   73.497200  -62.138200
  C    -130.128000   75.592800  -62.052400
  H    -130.975000   75.617900  -61.264800
  H    -129.270000   75.694100  -61.293600
  C    -130.048000   76.837500  -62.874800
  H    -130.987000   77.048300  -63.255400
  H    -129.874000   77.707100  -62.195500
  H    -129.336000   76.800900  -63.591600
  S    -135.434000   73.476900  -66.355400
  C    -137.030000   73.803200  -65.710900
  C    -137.042000   74.790800  -64.773400
  C    -135.724000   75.314700  -64.631100
  C    -134.760000   74.534200  -65.226500
  H    -137.924000   75.153600  -64.283600
  C    -135.506000   76.451300  -63.676300
  H    -136.030000   77.304200  -64.107100
  H    -134.536000   76.888400  -63.648600
  C    -136.054000   76.168400  -62.219800
  H    -135.516000   75.282500  -61.775600
  H    -137.049000   75.780500  -62.253400
  C    -135.941000   77.260700  -61.124500
  H    -136.495000   76.748200  -60.237100
  H    -136.264000   78.301900  -61.300600
  H    -134.862000   77.413300  -60.742700
  H    -129.765000   74.256300  -65.707600
  H    -137.871000   73.319700  -66.114600

 Total Charge           Charge          ....    0
 Multiplicity           Mult            ....    1
 Number of Electrons    NEL             ....  134
 Basis Dimension        Dim             ....  322

ORBITAL ENERGIES
----------------

  NO   OCC          E(Eh)            E(eV)
   0   2.0000     -88.964672     -2420.8518
   1   2.0000     -88.964258     -2420.8405
   2   2.0000     -10.336720      -281.2765
   3   2.0000     -10.322593      -280.8920
   4   2.0000     -10.315430      -280.6971
   5   2.0000     -10.313600      -280.6473
   6   2.0000     -10.305942      -280.4389
   7   2.0000     -10.300732      -280.2972
   8   2.0000     -10.298043      -280.2240
   9   2.0000     -10.297490      -280.2089
  10   2.0000     -10.296051      -280.1698
  11   2.0000     -10.295662      -280.1592
  12   2.0000     -10.294844      -280.1369
  13   2.0000     -10.293379      -280.0971
  14   2.0000     -10.289268      -279.9852
  15   2.0000     -10.261406      -279.2271
  16   2.0000      -8.080564      -219.8833
  17   2.0000      -8.078303      -219.8218
  18   2.0000      -6.038902      -164.3269
  19   2.0000      -6.037035      -164.2761
  20   2.0000      -6.034989      -164.2204
  21   2.0000      -6.033061      -164.1679
  22   2.0000      -6.031259      -164.1189
  23   2.0000      -6.028810      -164.0523
  24   2.0000      -1.012181       -27.5428
  25   2.0000      -0.978471       -26.6256
  26   2.0000      -0.914598       -24.8875
  27   2.0000      -0.904164       -24.6035
  28   2.0000      -0.870698       -23.6929
  29   2.0000      -0.849760       -23.1231
  30   2.0000      -0.842169       -22.9166
  31   2.0000      -0.815383       -22.1877
  32   2.0000      -0.789023       -21.4704
  33   2.0000      -0.773908       -21.0591
  34   2.0000      -0.704991       -19.1838
  35   2.0000      -0.700147       -19.0520
  36   2.0000      -0.691311       -18.8115
  37   2.0000      -0.666867       -18.1464
  38   2.0000      -0.639444       -17.4002
  39   2.0000      -0.618299       -16.8248
  40   2.0000      -0.604977       -16.4623
  41   2.0000      -0.564370       -15.3573
  42   2.0000      -0.561399       -15.2765
  43   2.0000      -0.547207       -14.8902
  44   2.0000      -0.543913       -14.8006
  45   2.0000      -0.532356       -14.4862
  46   2.0000      -0.523408       -14.2426
  47   2.0000      -0.509197       -13.8560
  48   2.0000      -0.506706       -13.7882
  49   2.0000      -0.495716       -13.4891
  50   2.0000      -0.491071       -13.3627
  51   2.0000      -0.479526       -13.0486
  52   2.0000      -0.467143       -12.7116
  53   2.0000      -0.465957       -12.6793
  54   2.0000      -0.457797       -12.4573
  55   2.0000      -0.452661       -12.3175
  56   2.0000      -0.441877       -12.0241
  57   2.0000      -0.436453       -11.8765
  58   2.0000      -0.436183       -11.8691
  59   2.0000      -0.430633       -11.7181
  60   2.0000      -0.424155       -11.5418
  61   2.0000      -0.408153       -11.1064
  62   2.0000      -0.401241       -10.9183
  63   2.0000      -0.348146        -9.4735
  64   2.0000      -0.329141        -8.9564
  65   2.0000      -0.328072        -8.9273
  66   2.0000      -0.293125        -7.9763
  67   0.0000       0.031629         0.8607
  68   0.0000       0.070916         1.9297
  69   0.0000       0.106724         2.9041
  70   0.0000       0.117423         3.1952
  71   0.0000       0.120568         3.2808

MULLIKEN ATOMIC CHARGES
-----------------------
   0 S :    0.090825
   1 C :   -0.117677
   2 C :   -0.100894
   3 C :    0.035546
   4 C :   -0.149343
   5 H :   -0.004615
   6 C :    0.146874
   7 H :    0.017387
   8 H :    0.034728
   9 C :   -0.178206
  10 H :    0.030063
  11 H :    0.033275
  12 C :    0.055331
  13 H :    0.014824
  14 H :    0.024278
  15 H :    0.007300
  16 S :    0.115836
  17 C :   -0.068481
  18 C :   -0.026298
  19 C :   -0.038938
  20 C :   -0.156582
  21 H :    0.023172
  22 C :    0.106757
  23 H :    0.021249
  24 H :    0.009483
  25 C :   -0.092667
  26 H :    0.032149
  27 H :    0.020062
  28 C :   -0.098999
  29 H :    0.049189
  30 H :    0.046515
  31 H :    0.040342
  32 H :    0.039103
  33 H :    0.038412
Sum of atomic charges:   -0.0000000

LOEWDIN ATOMIC CHARGES
----------------------
   0 S :    0.363064
   1 C :   -0.179420
   2 C :   -0.060925
   3 C :   -0.055138
   4 C :   -0.175532
   5 H :    0.022639
   6 C :   -0.026050
   7 H :    0.028886
   8 H :    0.036182
   9 C :   -0.055755
  10 H :    0.027017
  11 H :    0.029301
  12 C :   -0.050867
  13 H :    0.017959
  14 H :    0.034413
  15 H :    0.010530
  16 S :    0.430156
  17 C :   -0.166268
  18 C :   -0.062131
  19 C :   -0.055418
  20 C :   -0.223113
  21 H :    0.032915
  22 C :   -0.036272
  23 H :    0.034692
  24 H :    0.024977
  25 C :   -0.045786
  26 H :    0.031728
  27 H :    0.016611
  28 C :   -0.084058
  29 H :    0.041737
  30 H :    0.024098
  31 H :    0.030515
  32 H :    0.022792
  33 H :    0.016523

  Mayer bond orders larger than 0.100000
B(  0-S ,  1-C ) :   1.1237 B(  0-S ,  4-C ) :   1.1272 B(  1-C ,  2-C ) :   1.6521
B(  1-C , 32-H ) :   0.9629 B(  2-C ,  3-C ) :   1.1882 B(  2-C ,  6-C ) :   1.0321
B(  3-C ,  4-C ) :   1.6181 B(  3-C ,  5-H ) :   0.9974 B(  4-C , 20-C ) :   1.0305
B(  6-C ,  7-H ) :   0.9376 B(  6-C ,  8-H ) :   0.9351 B(  6-C ,  9-C ) :   1.0636
B(  9-C , 10-H ) :   0.9513 B(  9-C , 11-H ) :   0.9604 B(  9-C , 12-C ) :   1.0829
B( 12-C , 13-H ) :   0.9631 B( 12-C , 14-H ) :   0.9673 B( 12-C , 15-H ) :   0.9740
B( 16-S , 17-C ) :   1.1603 B( 16-S , 20-C ) :   1.1491 B( 17-C , 18-C ) :   1.6021
B( 17-C , 33-H ) :   0.9762 B( 18-C , 19-C ) :   1.2250 B( 18-C , 21-H ) :   0.9966
B( 19-C , 20-C ) :   1.5895 B( 19-C , 22-C ) :   1.0639 B( 22-C , 23-H ) :   0.9202
B( 22-C , 24-H ) :   0.9364 B( 22-C , 25-C ) :   1.0420 B( 25-C , 26-H ) :   0.9531
B( 25-C , 27-H ) :   0.9589 B( 25-C , 28-C ) :   1.0705 B( 28-C , 29-H ) :   0.9722
B( 28-C , 30-H ) :   0.9773 B( 28-C , 31-H ) :   0.9755

Dispersion correction           -0.014784228
FINAL SINGLE POINT ENERGY     -1339.859853778473

DIPOLE MOMENT
-------------
                                X             Y             Z
Electronic contribution:     -5.34281     -15.16276     -26.83452
Nuclear contribution   :      5.25626      15.45561      27.48484
                        -----------------------------------------
Total Dipole Moment    :     -0.08655       0.29285       0.65032
                        -----------------------------------------
Magnitude (a.u.)       :      0.71845
Magnitude (Debye)      :      1.82615

Rotational constants in cm-1:     0.016780     0.010120     0.006849
Rotational constants in MHz :   503.049127   303.393277   205.328972

                             ****ORCA TERMINATED NORMALLY****
TOTAL RUN TIME: 0 days 0 hours 0 minutes 22 seconds 149 msec
