                         Program Version 4.2.1 -  RELEASE  -
|  1> ! wB97X-D3 SP def2-SVP
|  2> %pal
|  3> nprocs 24
|  4> end
|  5>
|  6> * xyz 0 1
|  7> S 	 -5.12687 	 -22.0406 	 -107.707
|  8> C 	 -5.3398 	 -23.0217 	 -106.244
|  9> C 	 -4.91676 	 -22.3132 	 -105.123
| 10> C 	 -4.7575 	 -20.9098 	 -105.407
| 11> C 	 -4.89173 	 -20.597 	 -106.759
| 12> H 	 -4.57266 	 -20.1483 	 -104.715
| 13> C 	 -4.7697 	 -22.8536 	 -103.719
| 14> H 	 -3.82297 	 -22.47 	 -103.29
| 15> H 	 -4.49371 	 -23.8744 	 -103.758
| 16> C 	 -6.03608 	 -22.4565 	 -102.772
| 17> H 	 -6.20258 	 -21.3771 	 -102.539
| 18> H 	 -6.9803 	 -22.7781 	 -103.244
| 19> C 	 -6.03508 	 -23.1782 	 -101.405
| 20> H 	 -5.2891 	 -22.7052 	 -100.651
| 21> H 	 -6.96291 	 -23.1087 	 -100.921
| 22> H 	 -5.91007 	 -24.2503 	 -101.366
| 23> S 	 -4.00226 	 -18.7828 	 -108.614
| 24> C 	 -4.66635 	 -17.1805 	 -108.463
| 25> C 	 -5.67661 	 -17.0339 	 -107.606
| 26> C 	 -5.86609 	 -18.2052 	 -106.839
| 27> C 	 -5.03662 	 -19.2561 	 -107.271
| 28> H 	 -6.19139 	 -16.1548 	 -107.341
| 29> C 	 -6.88068 	 -18.2789 	 -105.663
| 30> H 	 -7.27054 	 -19.2637 	 -105.537
| 31> H 	 -7.76225 	 -17.6082 	 -105.895
| 32> C 	 -6.46243 	 -17.7331 	 -104.329
| 33> H 	 -5.82806 	 -18.4022 	 -103.727
| 34> H 	 -7.35062 	 -17.6994 	 -103.654
| 35> C 	 -5.79398 	 -16.3155 	 -104.379
| 36> H 	 -4.8247 	 -16.3227 	 -104.931
| 37> H 	 -5.69445 	 -15.888 	 -103.336
| 38> H 	 -6.47613 	 -15.6689 	 -104.945
| 39> H 	 -5.41078 	 -24.0822 	 -106.213
| 40> H 	 -4.40147 	 -16.3456 	 -109.098
| 41> *
| 42>
| 43>                          ****END OF INPUT****

CARTESIAN COORDINATES (ANGSTROEM)
---------------------------------
  S     -5.126870  -22.040600  -107.707000
  C     -5.339800  -23.021700  -106.244000
  C     -4.916760  -22.313200  -105.123000
  C     -4.757500  -20.909800  -105.407000
  C     -4.891730  -20.597000  -106.759000
  H     -4.572660  -20.148300  -104.715000
  C     -4.769700  -22.853600  -103.719000
  H     -3.822970  -22.470000  -103.290000
  H     -4.493710  -23.874400  -103.758000
  C     -6.036080  -22.456500  -102.772000
  H     -6.202580  -21.377100  -102.539000
  H     -6.980300  -22.778100  -103.244000
  C     -6.035080  -23.178200  -101.405000
  H     -5.289100  -22.705200  -100.651000
  H     -6.962910  -23.108700  -100.921000
  H     -5.910070  -24.250300  -101.366000
  S     -4.002260  -18.782800  -108.614000
  C     -4.666350  -17.180500  -108.463000
  C     -5.676610  -17.033900  -107.606000
  C     -5.866090  -18.205200  -106.839000
  C     -5.036620  -19.256100  -107.271000
  H     -6.191390  -16.154800  -107.341000
  C     -6.880680  -18.278900  -105.663000
  H     -7.270540  -19.263700  -105.537000
  H     -7.762250  -17.608200  -105.895000
  C     -6.462430  -17.733100  -104.329000
  H     -5.828060  -18.402200  -103.727000
  H     -7.350620  -17.699400  -103.654000
  C     -5.793980  -16.315500  -104.379000
  H     -4.824700  -16.322700  -104.931000
  H     -5.694450  -15.888000  -103.336000
  H     -6.476130  -15.668900  -104.945000
  H     -5.410780  -24.082200  -106.213000
  H     -4.401470  -16.345600  -109.098000

 Total Charge           Charge          ....    0
 Multiplicity           Mult            ....    1
 Number of Electrons    NEL             ....  134
 Basis Dimension        Dim             ....  322

ORBITAL ENERGIES
----------------

  NO   OCC          E(Eh)            E(eV)
   0   2.0000     -88.968406     -2420.9534
   1   2.0000     -88.965129     -2420.8642
   2   2.0000     -10.326048      -280.9861
   3   2.0000     -10.325666      -280.9757
   4   2.0000     -10.313250      -280.6378
   5   2.0000     -10.312407      -280.6149
   6   2.0000     -10.305081      -280.4155
   7   2.0000     -10.303212      -280.3646
   8   2.0000     -10.303107      -280.3618
   9   2.0000     -10.299958      -280.2761
  10   2.0000     -10.295274      -280.1486
  11   2.0000     -10.291076      -280.0344
  12   2.0000     -10.288881      -279.9747
  13   2.0000     -10.287689      -279.9422
  14   2.0000     -10.285419      -279.8805
  15   2.0000     -10.280527      -279.7474
  16   2.0000      -8.083370      -219.9597
  17   2.0000      -8.079596      -219.8570
  18   2.0000      -6.041800      -164.4057
  19   2.0000      -6.038261      -164.3094
  20   2.0000      -6.038044      -164.3035
  21   2.0000      -6.034225      -164.1996
  22   2.0000      -6.034016      -164.1939
  23   2.0000      -6.030126      -164.0881
  24   2.0000      -1.007320       -27.4106
  25   2.0000      -0.983282       -26.7565
  26   2.0000      -0.908950       -24.7338
  27   2.0000      -0.901443       -24.5295
  28   2.0000      -0.870263       -23.6811
  29   2.0000      -0.847749       -23.0684
  30   2.0000      -0.846438       -23.0327
  31   2.0000      -0.813167       -22.1274
  32   2.0000      -0.784876       -21.3576
  33   2.0000      -0.772019       -21.0077
  34   2.0000      -0.710159       -19.3244
  35   2.0000      -0.704643       -19.1743
  36   2.0000      -0.687472       -18.7071
  37   2.0000      -0.666141       -18.1266
  38   2.0000      -0.643225       -17.5030
  39   2.0000      -0.617007       -16.7896
  40   2.0000      -0.594971       -16.1900
  41   2.0000      -0.565380       -15.3848
  42   2.0000      -0.555750       -15.1227
  43   2.0000      -0.547747       -14.9050
  44   2.0000      -0.546759       -14.8781
  45   2.0000      -0.523978       -14.2582
  46   2.0000      -0.513756       -13.9800
  47   2.0000      -0.507592       -13.8123
  48   2.0000      -0.500169       -13.6103
  49   2.0000      -0.496074       -13.4988
  50   2.0000      -0.486240       -13.2313
  51   2.0000      -0.482518       -13.1300
  52   2.0000      -0.470115       -12.7925
  53   2.0000      -0.463992       -12.6259
  54   2.0000      -0.459563       -12.5053
  55   2.0000      -0.453186       -12.3318
  56   2.0000      -0.444984       -12.1086
  57   2.0000      -0.442392       -12.0381
  58   2.0000      -0.432100       -11.7580
  59   2.0000      -0.426792       -11.6136
  60   2.0000      -0.424643       -11.5551
  61   2.0000      -0.415709       -11.3120
  62   2.0000      -0.407360       -11.0848
  63   2.0000      -0.347836        -9.4651
  64   2.0000      -0.333943        -9.0870
  65   2.0000      -0.327743        -8.9183
  66   2.0000      -0.291027        -7.9192
  67   0.0000       0.031144         0.8475
  68   0.0000       0.065941         1.7943
  69   0.0000       0.102298         2.7837
  70   0.0000       0.120137         3.2691
  71   0.0000       0.125960         3.4275

MULLIKEN ATOMIC CHARGES
-----------------------
   0 S :    0.105944
   1 C :   -0.102640
   2 C :   -0.102583
   3 C :    0.040224
   4 C :   -0.127448
   5 H :   -0.019066
   6 C :    0.092237
   7 H :    0.030168
   8 H :    0.008683
   9 C :   -0.077550
  10 H :    0.046299
  11 H :    0.036926
  12 C :   -0.067018
  13 H :    0.037694
  14 H :    0.016793
  15 H :    0.027430
  16 S :    0.115624
  17 C :   -0.064965
  18 C :   -0.003147
  19 C :   -0.045896
  20 C :   -0.174640
  21 H :   -0.002821
  22 C :    0.076414
  23 H :    0.033879
  24 H :    0.029624
  25 C :   -0.089748
  26 H :    0.020832
  27 H :    0.028951
  28 C :   -0.089697
  29 H :    0.063020
  30 H :    0.048920
  31 H :    0.021935
  32 H :    0.037638
  33 H :    0.047984
Sum of atomic charges:   -0.0000000

LOEWDIN ATOMIC CHARGES
----------------------
   0 S :    0.394583
   1 C :   -0.190641
   2 C :   -0.058414
   3 C :   -0.052158
   4 C :   -0.197899
   5 H :    0.019377
   6 C :   -0.030823
   7 H :    0.037243
   8 H :    0.025097
   9 C :   -0.037148
  10 H :    0.032845
  11 H :    0.027995
  12 C :   -0.078638
  13 H :    0.031874
  14 H :    0.018912
  15 H :    0.022203
  16 S :    0.404513
  17 C :   -0.177802
  18 C :   -0.066658
  19 C :   -0.047090
  20 C :   -0.195891
  21 H :    0.026437
  22 C :   -0.032400
  23 H :    0.030745
  24 H :    0.038309
  25 C :   -0.048675
  26 H :    0.014606
  27 H :    0.028438
  28 C :   -0.073077
  29 H :    0.032759
  30 H :    0.034274
  31 H :    0.017861
  32 H :    0.021361
  33 H :    0.027881

  Mayer bond orders larger than 0.100000
B(  0-S ,  1-C ) :   1.1261 B(  0-S ,  4-C ) :   1.1456 B(  1-C ,  2-C ) :   1.6191
B(  1-C , 32-H ) :   0.9674 B(  2-C ,  3-C ) :   1.2122 B(  2-C ,  6-C ) :   1.0448
B(  3-C ,  4-C ) :   1.5687 B(  3-C ,  5-H ) :   1.0128 B(  4-C , 20-C ) :   1.0388
B(  6-C ,  7-H ) :   0.9386 B(  6-C ,  8-H ) :   0.9416 B(  6-C ,  9-C ) :   1.0265
B(  9-C , 10-H ) :   0.9589 B(  9-C , 11-H ) :   0.9625 B(  9-C , 12-C ) :   1.0807
B( 12-C , 13-H ) :   0.9756 B( 12-C , 14-H ) :   0.9725 B( 12-C , 15-H ) :   0.9759
B( 16-S , 17-C ) :   1.1467 B( 16-S , 20-C ) :   1.1348 B( 17-C , 18-C ) :   1.6282
B( 17-C , 33-H ) :   0.9596 B( 18-C , 19-C ) :   1.2453 B( 18-C , 21-H ) :   0.9923
B( 19-C , 20-C ) :   1.6054 B( 19-C , 22-C ) :   1.0336 B( 22-C , 23-H ) :   0.9306
B( 22-C , 24-H ) :   0.9369 B( 22-C , 25-C ) :   1.0806 B( 25-C , 26-H ) :   0.9493
B( 25-C , 27-H ) :   0.9517 B( 25-C , 28-C ) :   1.0738 B( 28-C , 29-H ) :   0.9686
B( 28-C , 30-H ) :   0.9724 B( 28-C , 31-H ) :   0.9742

Dispersion correction           -0.015115849
FINAL SINGLE POINT ENERGY     -1339.867731504866

DIPOLE MOMENT
-------------
                                X             Y             Z
Electronic contribution:      9.33830      -2.70502     -30.81425
Nuclear contribution   :     -9.59033       2.87190      31.54471
                        -----------------------------------------
Total Dipole Moment    :     -0.25203       0.16688       0.73046
                        -----------------------------------------
Magnitude (a.u.)       :      0.79053
Magnitude (Debye)      :      2.00936

Rotational constants in cm-1:     0.018599     0.009338     0.006647
Rotational constants in MHz :   557.579125   279.944180   199.263260

                             ****ORCA TERMINATED NORMALLY****
TOTAL RUN TIME: 0 days 0 hours 0 minutes 22 seconds 244 msec
