                         Program Version 4.2.1 -  RELEASE  -
|  1> ! wB97X-D3 SP def2-SVP
|  2> %pal
|  3> nprocs 24
|  4> end
|  5>
|  6> * xyz 0 1
|  7> S 	 -90.165 	 -32.2972 	 -62.2275
|  8> C 	 -89.442 	 -33.7609 	 -62.9475
|  9> C 	 -88.3305 	 -34.2443 	 -62.3117
| 10> C 	 -88.1428 	 -33.4779 	 -61.1661
| 11> C 	 -89.0502 	 -32.3909 	 -60.9189
| 12> H 	 -87.3026 	 -33.5386 	 -60.5253
| 13> C 	 -87.3462 	 -35.3419 	 -62.7821
| 14> H 	 -86.3744 	 -34.9374 	 -62.6245
| 15> H 	 -87.4414 	 -35.3062 	 -63.875
| 16> C 	 -87.6462 	 -36.717 	 -62.0839
| 17> H 	 -87.3205 	 -36.6991 	 -61.0635
| 18> H 	 -88.7415 	 -36.8524 	 -62.1027
| 19> C 	 -86.8082 	 -37.8537 	 -62.7175
| 20> H 	 -86.817 	 -38.8331 	 -62.2386
| 21> H 	 -87.2668 	 -38.0093 	 -63.6739
| 22> H 	 -85.7332 	 -37.6193 	 -62.9555
| 23> S 	 -88.9388 	 -29.7388 	 -60.2072
| 24> C 	 -88.4158 	 -29.2742 	 -58.6378
| 25> C 	 -88.4619 	 -30.3485 	 -57.7896
| 26> C 	 -88.5623 	 -31.6009 	 -58.4526
| 27> C 	 -88.9463 	 -31.4557 	 -59.8114
| 28> H 	 -88.2398 	 -30.2426 	 -56.7323
| 29> C 	 -88.4437 	 -32.8984 	 -57.6385
| 30> H 	 -87.5478 	 -33.0285 	 -57.1219
| 31> H 	 -88.5975 	 -33.7869 	 -58.2713
| 32> C 	 -89.47 	 -32.9661 	 -56.5127
| 33> H 	 -90.3754 	 -32.747 	 -56.9833
| 34> H 	 -89.3581 	 -32.1472 	 -55.7794
| 35> C 	 -89.75 	 -34.3523 	 -55.9344
| 36> H 	 -89.9628 	 -35.0927 	 -56.6567
| 37> H 	 -90.5942 	 -34.2522 	 -55.2171
| 38> H 	 -88.9109 	 -34.8652 	 -55.4511
| 39> H 	 -89.933 	 -34.3326 	 -63.707
| 40> H 	 -88.3346 	 -28.19 	 -58.3541
| 41> *
| 42>
| 43>                          ****END OF INPUT****

CARTESIAN COORDINATES (ANGSTROEM)
---------------------------------
  S    -90.165000  -32.297200  -62.227500
  C    -89.442000  -33.760900  -62.947500
  C    -88.330500  -34.244300  -62.311700
  C    -88.142800  -33.477900  -61.166100
  C    -89.050200  -32.390900  -60.918900
  H    -87.302600  -33.538600  -60.525300
  C    -87.346200  -35.341900  -62.782100
  H    -86.374400  -34.937400  -62.624500
  H    -87.441400  -35.306200  -63.875000
  C    -87.646200  -36.717000  -62.083900
  H    -87.320500  -36.699100  -61.063500
  H    -88.741500  -36.852400  -62.102700
  C    -86.808200  -37.853700  -62.717500
  H    -86.817000  -38.833100  -62.238600
  H    -87.266800  -38.009300  -63.673900
  H    -85.733200  -37.619300  -62.955500
  S    -88.938800  -29.738800  -60.207200
  C    -88.415800  -29.274200  -58.637800
  C    -88.461900  -30.348500  -57.789600
  C    -88.562300  -31.600900  -58.452600
  C    -88.946300  -31.455700  -59.811400
  H    -88.239800  -30.242600  -56.732300
  C    -88.443700  -32.898400  -57.638500
  H    -87.547800  -33.028500  -57.121900
  H    -88.597500  -33.786900  -58.271300
  C    -89.470000  -32.966100  -56.512700
  H    -90.375400  -32.747000  -56.983300
  H    -89.358100  -32.147200  -55.779400
  C    -89.750000  -34.352300  -55.934400
  H    -89.962800  -35.092700  -56.656700
  H    -90.594200  -34.252200  -55.217100
  H    -88.910900  -34.865200  -55.451100
  H    -89.933000  -34.332600  -63.707000
  H    -88.334600  -28.190000  -58.354100

 Total Charge           Charge          ....    0
 Multiplicity           Mult            ....    1
 Number of Electrons    NEL             ....  134
 Basis Dimension        Dim             ....  322

ORBITAL ENERGIES
----------------

  NO   OCC          E(Eh)            E(eV)
   0   2.0000     -88.971243     -2421.0306
   1   2.0000     -88.962946     -2420.8048
   2   2.0000     -10.331599      -281.1371
   3   2.0000     -10.331428      -281.1324
   4   2.0000     -10.319387      -280.8048
   5   2.0000     -10.311634      -280.5938
   6   2.0000     -10.308523      -280.5092
   7   2.0000     -10.300271      -280.2846
   8   2.0000     -10.298175      -280.2276
   9   2.0000     -10.296075      -280.1704
  10   2.0000     -10.292704      -280.0787
  11   2.0000     -10.288023      -279.9513
  12   2.0000     -10.286517      -279.9104
  13   2.0000     -10.282033      -279.7883
  14   2.0000     -10.277978      -279.6780
  15   2.0000     -10.276625      -279.6412
  16   2.0000      -8.085559      -220.0192
  17   2.0000      -8.078417      -219.8249
  18   2.0000      -6.043983      -164.4651
  19   2.0000      -6.040111      -164.3598
  20   2.0000      -6.036874      -164.2717
  21   2.0000      -6.036461      -164.2605
  22   2.0000      -6.032748      -164.1594
  23   2.0000      -6.029257      -164.0644
  24   2.0000      -1.006740       -27.3948
  25   2.0000      -0.986165       -26.8349
  26   2.0000      -0.912712       -24.8362
  27   2.0000      -0.909652       -24.7529
  28   2.0000      -0.870177       -23.6787
  29   2.0000      -0.850930       -23.1550
  30   2.0000      -0.846297       -23.0289
  31   2.0000      -0.806714       -21.9518
  32   2.0000      -0.786418       -21.3995
  33   2.0000      -0.775794       -21.1104
  34   2.0000      -0.709785       -19.3142
  35   2.0000      -0.704238       -19.1633
  36   2.0000      -0.697351       -18.9759
  37   2.0000      -0.658954       -17.9310
  38   2.0000      -0.636592       -17.3226
  39   2.0000      -0.619223       -16.8499
  40   2.0000      -0.600806       -16.3488
  41   2.0000      -0.572113       -15.5680
  42   2.0000      -0.566328       -15.4106
  43   2.0000      -0.557116       -15.1599
  44   2.0000      -0.528101       -14.3704
  45   2.0000      -0.524426       -14.2704
  46   2.0000      -0.516285       -14.0488
  47   2.0000      -0.505887       -13.7659
  48   2.0000      -0.504397       -13.7253
  49   2.0000      -0.499597       -13.5947
  50   2.0000      -0.493796       -13.4369
  51   2.0000      -0.480453       -13.0738
  52   2.0000      -0.472037       -12.8448
  53   2.0000      -0.465468       -12.6660
  54   2.0000      -0.456835       -12.4311
  55   2.0000      -0.448810       -12.2127
  56   2.0000      -0.447298       -12.1716
  57   2.0000      -0.439995       -11.9729
  58   2.0000      -0.433628       -11.7996
  59   2.0000      -0.432196       -11.7607
  60   2.0000      -0.420408       -11.4399
  61   2.0000      -0.416764       -11.3407
  62   2.0000      -0.409836       -11.1522
  63   2.0000      -0.352131        -9.5820
  64   2.0000      -0.336565        -9.1584
  65   2.0000      -0.328775        -8.9464
  66   2.0000      -0.281437        -7.6583
  67   0.0000       0.024830         0.6757
  68   0.0000       0.069991         1.9045
  69   0.0000       0.109222         2.9721
  70   0.0000       0.121609         3.3091
  71   0.0000       0.132975         3.6184

MULLIKEN ATOMIC CHARGES
-----------------------
   0 S :    0.121254
   1 C :   -0.134493
   2 C :   -0.085062
   3 C :    0.020730
   4 C :   -0.147695
   5 H :   -0.007440
   6 C :    0.080666
   7 H :    0.024804
   8 H :    0.026382
   9 C :   -0.054123
  10 H :    0.031172
  11 H :    0.045607
  12 C :   -0.059194
  13 H :    0.040147
  14 H :    0.019999
  15 H :    0.039673
  16 S :    0.093523
  17 C :   -0.107222
  18 C :   -0.030947
  19 C :   -0.059968
  20 C :   -0.138511
  21 H :    0.024825
  22 C :    0.107247
  23 H :    0.012983
  24 H :    0.018671
  25 C :   -0.093183
  26 H :    0.016404
  27 H :    0.031293
  28 C :   -0.036018
  29 H :    0.019048
  30 H :    0.043376
  31 H :    0.018036
  32 H :    0.036721
  33 H :    0.081293
Sum of atomic charges:    0.0000000

LOEWDIN ATOMIC CHARGES
----------------------
   0 S :    0.412278
   1 C :   -0.187854
   2 C :   -0.064512
   3 C :   -0.060395
   4 C :   -0.208818
   5 H :    0.019129
   6 C :   -0.018648
   7 H :    0.028943
   8 H :    0.032836
   9 C :   -0.032641
  10 H :    0.022567
  11 H :    0.031297
  12 C :   -0.075258
  13 H :    0.026160
  14 H :    0.021105
  15 H :    0.032773
  16 S :    0.411796
  17 C :   -0.198094
  18 C :   -0.076145
  19 C :   -0.049582
  20 C :   -0.198711
  21 H :    0.031786
  22 C :   -0.026579
  23 H :    0.020999
  24 H :    0.031282
  25 C :   -0.042509
  26 H :    0.019779
  27 H :    0.023414
  28 C :   -0.064519
  29 H :    0.020686
  30 H :    0.034682
  31 H :    0.021115
  32 H :    0.020104
  33 H :    0.041535

  Mayer bond orders larger than 0.100000
B(  0-S ,  1-C ) :   1.1469 B(  0-S ,  4-C ) :   1.1619 B(  1-C ,  2-C ) :   1.5938
B(  1-C ,  4-C ) :   0.1063 B(  1-C , 32-H ) :   0.9631 B(  2-C ,  3-C ) :   1.2906
B(  2-C ,  6-C ) :   0.9965 B(  3-C ,  4-C ) :   1.5228 B(  3-C ,  5-H ) :   0.9940
B(  4-C , 20-C ) :   1.0567 B(  6-C ,  7-H ) :   0.9407 B(  6-C ,  8-H ) :   0.9494
B(  6-C ,  9-C ) :   1.0418 B(  9-C , 10-H ) :   0.9587 B(  9-C , 11-H ) :   0.9632
B(  9-C , 12-C ) :   1.0675 B( 12-C , 13-H ) :   0.9768 B( 12-C , 14-H ) :   0.9770
B( 12-C , 15-H ) :   0.9738 B( 16-S , 17-C ) :   1.1745 B( 16-S , 20-C ) :   1.1438
B( 17-C , 18-C ) :   1.5851 B( 17-C , 20-C ) :   0.1029 B( 17-C , 33-H ) :   0.9596
B( 18-C , 19-C ) :   1.2575 B( 18-C , 21-H ) :   0.9859 B( 19-C , 20-C ) :   1.5670
B( 19-C , 22-C ) :   1.0510 B( 22-C , 23-H ) :   0.9296 B( 22-C , 24-H ) :   0.9390
B( 22-C , 25-C ) :   1.0611 B( 25-C , 26-H ) :   0.9520 B( 25-C , 27-H ) :   0.9522
B( 25-C , 28-C ) :   1.0868 B( 28-C , 29-H ) :   0.9700 B( 28-C , 30-H ) :   0.9742
B( 28-C , 31-H ) :   0.9734

Dispersion correction           -0.013385096
FINAL SINGLE POINT ENERGY     -1339.861496146471

DIPOLE MOMENT
-------------
                                X             Y             Z
Electronic contribution:     -7.72361      27.41243     -10.60465
Nuclear contribution   :      8.05627     -27.92502      10.88089
                        -----------------------------------------
Total Dipole Moment    :      0.33266      -0.51260       0.27624
                        -----------------------------------------
Magnitude (a.u.)       :      0.67062
Magnitude (Debye)      :      1.70458

Rotational constants in cm-1:     0.016940     0.008223     0.006223
Rotational constants in MHz :   507.849198   246.515593   186.570118

                             ****ORCA TERMINATED NORMALLY****
TOTAL RUN TIME: 0 days 0 hours 0 minutes 20 seconds 925 msec
