                         Program Version 4.2.1 -  RELEASE  -
|  1> ! wB97X-D3 SP def2-SVP
|  2> %pal
|  3> nprocs 24
|  4> end
|  5>
|  6> * xyz 0 1
|  7> S 	 -58.3589 	 7.99241 	 -19.1123
|  8> C 	 -58.5409 	 6.52716 	 -20.092
|  9> C 	 -59.5432 	 5.7457 	 -19.558
| 10> C 	 -60.2294 	 6.35248 	 -18.4508
| 11> C 	 -59.7803 	 7.65749 	 -18.1994
| 12> H 	 -61.0944 	 6.00677 	 -17.848
| 13> C 	 -59.6868 	 4.22344 	 -19.7932
| 14> H 	 -58.7401 	 3.76806 	 -19.4078
| 15> H 	 -59.6406 	 4.00944 	 -20.9049
| 16> C 	 -60.9468 	 3.58542 	 -19.2317
| 17> H 	 -61.2445 	 3.80841 	 -18.1792
| 18> H 	 -61.7449 	 4.03328 	 -19.8537
| 19> C 	 -61.1015 	 2.0568 	 -19.5093
| 20> H 	 -60.3236 	 1.47337 	 -19.0786
| 21> H 	 -61.9945 	 1.71198 	 -19.013
| 22> H 	 -61.1843 	 1.76967 	 -20.5059
| 23> S 	 -59.2742 	 9.13664 	 -15.9022
| 24> C 	 -60.503 	 10.2185 	 -15.2858
| 25> C 	 -61.5869 	 10.2594 	 -16.1219
| 26> C 	 -61.4778 	 9.43963 	 -17.2653
| 27> C 	 -60.2914 	 8.79234 	 -17.3547
| 28> H 	 -62.395 	 10.9046 	 -15.8853
| 29> C 	 -62.5605 	 9.31778 	 -18.3171
| 30> H 	 -62.5111 	 8.35716 	 -18.8053
| 31> H 	 -62.2579 	 10.0036 	 -19.2008
| 32> C 	 -64.0339 	 9.5076 	 -17.9223
| 33> H 	 -64.5174 	 9.39185 	 -18.9237
| 34> H 	 -64.2569 	 10.5083 	 -17.5275
| 35> C 	 -64.6147 	 8.48043 	 -16.9845
| 36> H 	 -64.8222 	 7.59879 	 -17.5895
| 37> H 	 -65.5945 	 8.81227 	 -16.627
| 38> H 	 -64.0444 	 8.11561 	 -16.1627
| 39> H 	 -58.0241 	 6.45959 	 -21.037
| 40> H 	 -60.2893 	 10.8484 	 -14.466
| 41> *
| 42>
| 43>                          ****END OF INPUT****

CARTESIAN COORDINATES (ANGSTROEM)
---------------------------------
  S    -58.358900    7.992410  -19.112300
  C    -58.540900    6.527160  -20.092000
  C    -59.543200    5.745700  -19.558000
  C    -60.229400    6.352480  -18.450800
  C    -59.780300    7.657490  -18.199400
  H    -61.094400    6.006770  -17.848000
  C    -59.686800    4.223440  -19.793200
  H    -58.740100    3.768060  -19.407800
  H    -59.640600    4.009440  -20.904900
  C    -60.946800    3.585420  -19.231700
  H    -61.244500    3.808410  -18.179200
  H    -61.744900    4.033280  -19.853700
  C    -61.101500    2.056800  -19.509300
  H    -60.323600    1.473370  -19.078600
  H    -61.994500    1.711980  -19.013000
  H    -61.184300    1.769670  -20.505900
  S    -59.274200    9.136640  -15.902200
  C    -60.503000   10.218500  -15.285800
  C    -61.586900   10.259400  -16.121900
  C    -61.477800    9.439630  -17.265300
  C    -60.291400    8.792340  -17.354700
  H    -62.395000   10.904600  -15.885300
  C    -62.560500    9.317780  -18.317100
  H    -62.511100    8.357160  -18.805300
  H    -62.257900   10.003600  -19.200800
  C    -64.033900    9.507600  -17.922300
  H    -64.517400    9.391850  -18.923700
  H    -64.256900   10.508300  -17.527500
  C    -64.614700    8.480430  -16.984500
  H    -64.822200    7.598790  -17.589500
  H    -65.594500    8.812270  -16.627000
  H    -64.044400    8.115610  -16.162700
  H    -58.024100    6.459590  -21.037000
  H    -60.289300   10.848400  -14.466000

 Total Charge           Charge          ....    0
 Multiplicity           Mult            ....    1
 Number of Electrons    NEL             ....  134
 Basis Dimension        Dim             ....  322

ORBITAL ENERGIES
----------------

  NO   OCC          E(Eh)            E(eV)
   0   2.0000     -88.961735     -2420.7719
   1   2.0000     -88.959509     -2420.7113
   2   2.0000     -10.331596      -281.1370
   3   2.0000     -10.327481      -281.0250
   4   2.0000     -10.314811      -280.6803
   5   2.0000     -10.314431      -280.6699
   6   2.0000     -10.306987      -280.4674
   7   2.0000     -10.301540      -280.3192
   8   2.0000     -10.300955      -280.3032
   9   2.0000     -10.299745      -280.2703
  10   2.0000     -10.295186      -280.1462
  11   2.0000     -10.293319      -280.0955
  12   2.0000     -10.290784      -280.0265
  13   2.0000     -10.289801      -279.9997
  14   2.0000     -10.273543      -279.5573
  15   2.0000     -10.271507      -279.5019
  16   2.0000      -8.076964      -219.7854
  17   2.0000      -8.074002      -219.7048
  18   2.0000      -6.035288      -164.2285
  19   2.0000      -6.032526      -164.1534
  20   2.0000      -6.031304      -164.1201
  21   2.0000      -6.028553      -164.0453
  22   2.0000      -6.027984      -164.0298
  23   2.0000      -6.024758      -163.9420
  24   2.0000      -1.003611       -27.3096
  25   2.0000      -0.983622       -26.7657
  26   2.0000      -0.909099       -24.7378
  27   2.0000      -0.907269       -24.6880
  28   2.0000      -0.866589       -23.5811
  29   2.0000      -0.851837       -23.1797
  30   2.0000      -0.840499       -22.8711
  31   2.0000      -0.814241       -22.1566
  32   2.0000      -0.785797       -21.3826
  33   2.0000      -0.777105       -21.1461
  34   2.0000      -0.709199       -19.2983
  35   2.0000      -0.697449       -18.9786
  36   2.0000      -0.688180       -18.7263
  37   2.0000      -0.656416       -17.8620
  38   2.0000      -0.644255       -17.5311
  39   2.0000      -0.615586       -16.7509
  40   2.0000      -0.604538       -16.4503
  41   2.0000      -0.565069       -15.3763
  42   2.0000      -0.562583       -15.3087
  43   2.0000      -0.548917       -14.9368
  44   2.0000      -0.540113       -14.6972
  45   2.0000      -0.529406       -14.4059
  46   2.0000      -0.520492       -14.1633
  47   2.0000      -0.507724       -13.8159
  48   2.0000      -0.504212       -13.7203
  49   2.0000      -0.492928       -13.4132
  50   2.0000      -0.489435       -13.3182
  51   2.0000      -0.485062       -13.1992
  52   2.0000      -0.476425       -12.9642
  53   2.0000      -0.469620       -12.7790
  54   2.0000      -0.456091       -12.4109
  55   2.0000      -0.444116       -12.0850
  56   2.0000      -0.440756       -11.9936
  57   2.0000      -0.436520       -11.8783
  58   2.0000      -0.434778       -11.8309
  59   2.0000      -0.420712       -11.4482
  60   2.0000      -0.418952       -11.4003
  61   2.0000      -0.413474       -11.2512
  62   2.0000      -0.409623       -11.1464
  63   2.0000      -0.335948        -9.1416
  64   2.0000      -0.331205        -9.0125
  65   2.0000      -0.327346        -8.9075
  66   2.0000      -0.297994        -8.1088
  67   0.0000       0.035608         0.9690
  68   0.0000       0.055852         1.5198
  69   0.0000       0.110495         3.0067
  70   0.0000       0.119328         3.2471
  71   0.0000       0.130415         3.5488

MULLIKEN ATOMIC CHARGES
-----------------------
   0 S :    0.100204
   1 C :   -0.137738
   2 C :   -0.060433
   3 C :    0.024445
   4 C :   -0.178816
   5 H :    0.031625
   6 C :    0.026554
   7 H :    0.052212
   8 H :    0.033394
   9 C :   -0.127388
  10 H :    0.048830
  11 H :    0.031030
  12 C :    0.005251
  13 H :    0.020421
  14 H :    0.020949
  15 H :    0.018364
  16 S :    0.080948
  17 C :   -0.071732
  18 C :   -0.027382
  19 C :   -0.011309
  20 C :   -0.148301
  21 H :    0.005317
  22 C :    0.042474
  23 H :    0.014272
  24 H :    0.056136
  25 C :   -0.087594
  26 H :    0.040066
  27 H :    0.032890
  28 C :   -0.031319
  29 H :    0.016532
  30 H :    0.031181
  31 H :    0.038283
  32 H :    0.062429
  33 H :    0.048203
Sum of atomic charges:    0.0000000

LOEWDIN ATOMIC CHARGES
----------------------
   0 S :    0.413817
   1 C :   -0.193669
   2 C :   -0.064920
   3 C :   -0.075572
   4 C :   -0.199575
   5 H :    0.039915
   6 C :   -0.037398
   7 H :    0.036363
   8 H :    0.036663
   9 C :   -0.050895
  10 H :    0.028079
  11 H :    0.030100
  12 C :   -0.055820
  13 H :    0.019880
  14 H :    0.027849
  15 H :    0.016228
  16 S :    0.375412
  17 C :   -0.165660
  18 C :   -0.070736
  19 C :   -0.060994
  20 C :   -0.186246
  21 H :    0.027233
  22 C :   -0.037946
  23 H :    0.027838
  24 H :    0.048699
  25 C :   -0.046689
  26 H :    0.036899
  27 H :    0.019472
  28 C :   -0.067126
  29 H :    0.025843
  30 H :    0.029593
  31 H :    0.022560
  32 H :    0.029429
  33 H :    0.021373

  Mayer bond orders larger than 0.100000
B(  0-S ,  1-C ) :   1.1432 B(  0-S ,  4-C ) :   1.1899 B(  1-C ,  2-C ) :   1.5936
B(  1-C ,  4-C ) :   0.1080 B(  1-C , 32-H ) :   0.9789 B(  2-C ,  3-C ) :   1.2352
B(  2-C ,  6-C ) :   1.0076 B(  3-C ,  4-C ) :   1.5725 B(  3-C ,  5-H ) :   0.9885
B(  4-C , 20-C ) :   0.9565 B(  6-C ,  7-H ) :   0.9456 B(  6-C ,  8-H ) :   0.9432
B(  6-C ,  9-C ) :   1.0642 B(  9-C , 10-H ) :   0.9500 B(  9-C , 11-H ) :   0.9570
B(  9-C , 12-C ) :   1.0832 B( 12-C , 13-H ) :   0.9752 B( 12-C , 14-H ) :   0.9717
B( 12-C , 15-H ) :   0.9755 B( 16-S , 17-C ) :   1.1594 B( 16-S , 20-C ) :   1.1282
B( 17-C , 18-C ) :   1.6058 B( 17-C , 20-C ) :   0.1002 B( 17-C , 33-H ) :   0.9714
B( 18-C , 19-C ) :   1.2200 B( 18-C , 21-H ) :   1.0011 B( 19-C , 20-C ) :   1.6519
B( 19-C , 22-C ) :   1.0336 B( 22-C , 23-H ) :   0.9326 B( 22-C , 24-H ) :   0.9304
B( 22-C , 25-C ) :   1.0751 B( 25-C , 26-H ) :   0.9544 B( 25-C , 27-H ) :   0.9561
B( 25-C , 28-C ) :   1.0727 B( 28-C , 29-H ) :   0.9722 B( 28-C , 30-H ) :   0.9731
B( 28-C , 31-H ) :   0.9788

Dispersion correction           -0.013876487
FINAL SINGLE POINT ENERGY     -1339.868679574935

DIPOLE MOMENT
-------------
                                X             Y             Z
Electronic contribution:     22.69529      17.24122       6.37608
Nuclear contribution   :    -23.32971     -17.52174      -6.57494
                        -----------------------------------------
Total Dipole Moment    :     -0.63442      -0.28052      -0.19886
                        -----------------------------------------
Magnitude (a.u.)       :      0.72162
Magnitude (Debye)      :      1.83421

Rotational constants in cm-1:     0.017363     0.008458     0.006615
Rotational constants in MHz :   520.519745   253.560735   198.303008

                             ****ORCA TERMINATED NORMALLY****
TOTAL RUN TIME: 0 days 0 hours 0 minutes 21 seconds 236 msec
