                         Program Version 4.2.1 -  RELEASE  -
|  1> ! wB97X-D3 SP def2-SVP
|  2> %pal
|  3> nprocs 24
|  4> end
|  5>
|  6> * xyz 0 1
|  7> S 	 -135.618 	 29.2065 	 -19.9627
|  8> C 	 -134.559 	 28.1819 	 -19.0453
|  9> C 	 -133.308 	 28.2704 	 -19.5904
| 10> C 	 -133.242 	 29.0224 	 -20.8044
| 11> C 	 -134.467 	 29.3628 	 -21.2872
| 12> H 	 -132.436 	 29.095 	 -21.5015
| 13> C 	 -132.024 	 27.7603 	 -19.042
| 14> H 	 -131.56 	 27.2732 	 -19.7862
| 15> H 	 -132.298 	 27.0635 	 -18.2546
| 16> C 	 -131.025 	 28.7974 	 -18.4454
| 17> H 	 -130.266 	 28.2485 	 -17.9785
| 18> H 	 -130.51 	 29.2806 	 -19.2512
| 19> C 	 -131.615 	 29.7203 	 -17.4163
| 20> H 	 -131.046 	 30.317 	 -16.8107
| 21> H 	 -132.286 	 30.486 	 -17.8681
| 22> H 	 -132.238 	 29.0296 	 -16.7731
| 23> S 	 -136.115 	 29.3141 	 -23.428
| 24> C 	 -135.868 	 30.4535 	 -24.6701
| 25> C 	 -134.833 	 31.3558 	 -24.4344
| 26> C 	 -134.153 	 31.0883 	 -23.2291
| 27> C 	 -134.803 	 30.1001 	 -22.5304
| 28> H 	 -134.5 	 32.091 	 -25.1114
| 29> C 	 -132.887 	 31.7981 	 -22.7898
| 30> H 	 -132.566 	 31.549 	 -21.831
| 31> H 	 -133.083 	 32.8352 	 -22.7383
| 32> C 	 -131.765 	 31.6097 	 -23.7905
| 33> H 	 -132.049 	 32.1044 	 -24.6851
| 34> H 	 -131.5 	 30.5575 	 -23.9854
| 35> C 	 -130.504 	 32.2794 	 -23.246
| 36> H 	 -129.863 	 32.337 	 -24.158
| 37> H 	 -130.06 	 31.7132 	 -22.4649
| 38> H 	 -130.73 	 33.2578 	 -22.84
| 39> H 	 -134.773 	 27.7588 	 -18.0079
| 40> H 	 -136.604 	 30.5989 	 -25.5327
| 41> *
| 42>
| 43>                          ****END OF INPUT****

CARTESIAN COORDINATES (ANGSTROEM)
---------------------------------
  S    -135.618000   29.206500  -19.962700
  C    -134.559000   28.181900  -19.045300
  C    -133.308000   28.270400  -19.590400
  C    -133.242000   29.022400  -20.804400
  C    -134.467000   29.362800  -21.287200
  H    -132.436000   29.095000  -21.501500
  C    -132.024000   27.760300  -19.042000
  H    -131.560000   27.273200  -19.786200
  H    -132.298000   27.063500  -18.254600
  C    -131.025000   28.797400  -18.445400
  H    -130.266000   28.248500  -17.978500
  H    -130.510000   29.280600  -19.251200
  C    -131.615000   29.720300  -17.416300
  H    -131.046000   30.317000  -16.810700
  H    -132.286000   30.486000  -17.868100
  H    -132.238000   29.029600  -16.773100
  S    -136.115000   29.314100  -23.428000
  C    -135.868000   30.453500  -24.670100
  C    -134.833000   31.355800  -24.434400
  C    -134.153000   31.088300  -23.229100
  C    -134.803000   30.100100  -22.530400
  H    -134.500000   32.091000  -25.111400
  C    -132.887000   31.798100  -22.789800
  H    -132.566000   31.549000  -21.831000
  H    -133.083000   32.835200  -22.738300
  C    -131.765000   31.609700  -23.790500
  H    -132.049000   32.104400  -24.685100
  H    -131.500000   30.557500  -23.985400
  C    -130.504000   32.279400  -23.246000
  H    -129.863000   32.337000  -24.158000
  H    -130.060000   31.713200  -22.464900
  H    -130.730000   33.257800  -22.840000
  H    -134.773000   27.758800  -18.007900
  H    -136.604000   30.598900  -25.532700

 Total Charge           Charge          ....    0
 Multiplicity           Mult            ....    1
 Number of Electrons    NEL             ....  134
 Basis Dimension        Dim             ....  322

ORBITAL ENERGIES
----------------

  NO   OCC          E(Eh)            E(eV)
   0   2.0000     -88.967265     -2420.9224
   1   2.0000     -88.957667     -2420.6612
   2   2.0000     -10.325462      -280.9701
   3   2.0000     -10.324235      -280.9367
   4   2.0000     -10.321266      -280.8559
   5   2.0000     -10.314257      -280.6652
   6   2.0000     -10.302025      -280.3323
   7   2.0000     -10.293783      -280.1081
   8   2.0000     -10.290810      -280.0272
   9   2.0000     -10.284520      -279.8560
  10   2.0000     -10.284501      -279.8555
  11   2.0000     -10.283857      -279.8380
  12   2.0000     -10.280402      -279.7439
  13   2.0000     -10.278738      -279.6987
  14   2.0000     -10.278348      -279.6881
  15   2.0000     -10.273143      -279.5464
  16   2.0000      -8.082586      -219.9383
  17   2.0000      -8.072826      -219.6728
  18   2.0000      -6.040875      -164.3806
  19   2.0000      -6.037063      -164.2768
  20   2.0000      -6.033470      -164.1791
  21   2.0000      -6.031374      -164.1220
  22   2.0000      -6.027407      -164.0141
  23   2.0000      -6.023369      -163.9042
  24   2.0000      -1.009642       -27.4737
  25   2.0000      -0.989500       -26.9257
  26   2.0000      -0.922551       -25.1039
  27   2.0000      -0.914475       -24.8841
  28   2.0000      -0.866362       -23.5749
  29   2.0000      -0.860222       -23.4078
  30   2.0000      -0.846055       -23.0223
  31   2.0000      -0.813331       -22.1319
  32   2.0000      -0.787887       -21.4395
  33   2.0000      -0.774666       -21.0797
  34   2.0000      -0.709309       -19.3013
  35   2.0000      -0.703016       -19.1300
  36   2.0000      -0.689850       -18.7718
  37   2.0000      -0.664763       -18.0891
  38   2.0000      -0.638225       -17.3670
  39   2.0000      -0.620776       -16.8922
  40   2.0000      -0.601387       -16.3646
  41   2.0000      -0.579826       -15.7779
  42   2.0000      -0.570710       -15.5298
  43   2.0000      -0.556799       -15.1513
  44   2.0000      -0.541166       -14.7259
  45   2.0000      -0.533052       -14.5051
  46   2.0000      -0.519831       -14.1453
  47   2.0000      -0.514112       -13.9897
  48   2.0000      -0.502214       -13.6659
  49   2.0000      -0.492551       -13.4030
  50   2.0000      -0.486821       -13.2471
  51   2.0000      -0.485167       -13.2021
  52   2.0000      -0.473735       -12.8910
  53   2.0000      -0.464790       -12.6476
  54   2.0000      -0.457116       -12.4388
  55   2.0000      -0.449288       -12.2258
  56   2.0000      -0.448623       -12.2076
  57   2.0000      -0.444282       -12.0895
  58   2.0000      -0.436867       -11.8878
  59   2.0000      -0.432766       -11.7762
  60   2.0000      -0.420515       -11.4428
  61   2.0000      -0.415275       -11.3002
  62   2.0000      -0.409487       -11.1427
  63   2.0000      -0.344859        -9.3841
  64   2.0000      -0.336615        -9.1598
  65   2.0000      -0.321610        -8.7514
  66   2.0000      -0.294415        -8.0114
  67   0.0000       0.032035         0.8717
  68   0.0000       0.072467         1.9719
  69   0.0000       0.114009         3.1024
  70   0.0000       0.115203         3.1348
  71   0.0000       0.122342         3.3291

MULLIKEN ATOMIC CHARGES
-----------------------
   0 S :    0.087368
   1 C :   -0.128264
   2 C :   -0.113494
   3 C :    0.016741
   4 C :   -0.126881
   5 H :    0.005682
   6 C :    0.120724
   7 H :   -0.003692
   8 H :    0.007940
   9 C :   -0.033652
  10 H :    0.015003
  11 H :    0.012605
  12 C :   -0.032029
  13 H :    0.014617
  14 H :    0.036415
  15 H :    0.020869
  16 S :    0.125690
  17 C :   -0.101822
  18 C :   -0.028929
  19 C :   -0.020748
  20 C :   -0.186318
  21 H :   -0.000970
  22 C :    0.131511
  23 H :   -0.004670
  24 H :    0.012768
  25 C :   -0.106108
  26 H :    0.020950
  27 H :    0.037790
  28 C :   -0.026628
  29 H :    0.042110
  30 H :    0.028977
  31 H :    0.022560
  32 H :    0.073310
  33 H :    0.080574
Sum of atomic charges:   -0.0000000

LOEWDIN ATOMIC CHARGES
----------------------
   0 S :    0.392549
   1 C :   -0.214792
   2 C :   -0.066925
   3 C :   -0.072013
   4 C :   -0.182707
   5 H :    0.026123
   6 C :   -0.017970
   7 H :    0.015599
   8 H :    0.027153
   9 C :   -0.031222
  10 H :    0.019923
  11 H :    0.016290
  12 C :   -0.063127
  13 H :    0.011709
  14 H :    0.031901
  15 H :    0.030695
  16 S :    0.425200
  17 C :   -0.203817
  18 C :   -0.069960
  19 C :   -0.045101
  20 C :   -0.196189
  21 H :    0.023181
  22 C :   -0.020741
  23 H :    0.018598
  24 H :    0.029547
  25 C :   -0.032624
  26 H :    0.016666
  27 H :    0.027196
  28 C :   -0.058414
  29 H :    0.034172
  30 H :    0.019172
  31 H :    0.021296
  32 H :    0.046648
  33 H :    0.041985

  Mayer bond orders larger than 0.100000
B(  0-S ,  1-C ) :   1.1194 B(  0-S ,  4-C ) :   1.1563 B(  1-C ,  2-C ) :   1.6234
B(  1-C , 32-H ) :   0.9577 B(  2-C ,  3-C ) :   1.2107 B(  2-C ,  6-C ) :   1.0401
B(  3-C ,  4-C ) :   1.6071 B(  3-C ,  5-H ) :   0.9972 B(  4-C , 20-C ) :   0.9959
B(  6-C ,  7-H ) :   0.9291 B(  6-C ,  8-H ) :   0.9340 B(  6-C ,  9-C ) :   1.0826
B(  9-C , 10-H ) :   0.9529 B(  9-C , 11-H ) :   0.9507 B(  9-C , 12-C ) :   1.0724
B( 12-C , 13-H ) :   0.9763 B( 12-C , 14-H ) :   0.9699 B( 12-C , 15-H ) :   0.9744
B( 16-S , 17-C ) :   1.1757 B( 16-S , 20-C ) :   1.1480 B( 17-C , 18-C ) :   1.5898
B( 17-C , 33-H ) :   0.9542 B( 18-C , 19-C ) :   1.2447 B( 18-C , 21-H ) :   0.9957
B( 19-C , 20-C ) :   1.6165 B( 19-C , 22-C ) :   1.0381 B( 22-C , 23-H ) :   0.9360
B( 22-C , 24-H ) :   0.9171 B( 22-C , 25-C ) :   1.0700 B( 25-C , 26-H ) :   0.9542
B( 25-C , 27-H ) :   0.9556 B( 25-C , 28-C ) :   1.0888 B( 28-C , 29-H ) :   0.9749
B( 28-C , 30-H ) :   0.9763 B( 28-C , 31-H ) :   0.9698

Dispersion correction           -0.014660617
FINAL SINGLE POINT ENERGY     -1339.858190594116

DIPOLE MOMENT
-------------
                                X             Y             Z
Electronic contribution:    -27.83932      -7.97331      -6.86921
Nuclear contribution   :     28.58919       8.26256       6.76510
                        -----------------------------------------
Total Dipole Moment    :      0.74987       0.28925      -0.10411
                        -----------------------------------------
Magnitude (a.u.)       :      0.81044
Magnitude (Debye)      :      2.05997

Rotational constants in cm-1:     0.017451     0.010031     0.006895
Rotational constants in MHz :   523.177505   300.722894   206.701225

                             ****ORCA TERMINATED NORMALLY****
TOTAL RUN TIME: 0 days 0 hours 0 minutes 22 seconds 596 msec
