                         Program Version 4.2.1 -  RELEASE  -
|  1> ! wB97X-D3 SP def2-SVP
|  2> %pal
|  3> nprocs 24
|  4> end
|  5>
|  6> * xyz 0 1
|  7> S 	 38.9045 	 -21.497 	 -115.012
|  8> C 	 40.1634 	 -22.6088 	 -115.638
|  9> C 	 41.0138 	 -22.9648 	 -114.575
| 10> C 	 40.6511 	 -22.4501 	 -113.288
| 11> C 	 39.5404 	 -21.6942 	 -113.36
| 12> H 	 41.2943 	 -22.4022 	 -112.425
| 13> C 	 42.3106 	 -23.6589 	 -114.854
| 14> H 	 43.1696 	 -23.0673 	 -114.479
| 15> H 	 42.4923 	 -23.5612 	 -115.933
| 16> C 	 42.3408 	 -25.1187 	 -114.401
| 17> H 	 41.5676 	 -25.6536 	 -114.908
| 18> H 	 43.2484 	 -25.5281 	 -114.823
| 19> C 	 42.3328 	 -25.49 	 -112.927
| 20> H 	 42.3164 	 -26.5901 	 -112.828
| 21> H 	 43.1702 	 -25.1405 	 -112.354
| 22> H 	 41.4168 	 -25.0884 	 -112.435
| 23> S 	 38.3263 	 -19.285 	 -112.798
| 24> C 	 37.7002 	 -19.013 	 -111.227
| 25> C 	 37.982 	 -20.0282 	 -110.364
| 26> C 	 38.751 	 -21.0457 	 -110.957
| 27> C 	 38.9651 	 -20.8488 	 -112.352
| 28> H 	 37.6847 	 -20.0669 	 -109.312
| 29> C 	 39.1862 	 -22.242 	 -110.192
| 30> H 	 39.5342 	 -21.986 	 -109.188
| 31> H 	 40.0699 	 -22.5698 	 -110.703
| 32> C 	 38.2855 	 -23.4007 	 -110.022
| 33> H 	 37.5157 	 -23.1564 	 -109.343
| 34> H 	 38.8262 	 -24.2876 	 -109.666
| 35> C 	 37.6257 	 -23.9289 	 -111.371
| 36> H 	 38.3102 	 -24.5441 	 -112.014
| 37> H 	 37.282 	 -23.1799 	 -112.039
| 38> H 	 36.7313 	 -24.549 	 -111.089
| 39> H 	 40.3895 	 -22.9702 	 -116.565
| 40> H 	 37.4435 	 -17.9855 	 -110.942
| 41> *
| 42>
| 43>                          ****END OF INPUT****

CARTESIAN COORDINATES (ANGSTROEM)
---------------------------------
  S     38.904500  -21.497000  -115.012000
  C     40.163400  -22.608800  -115.638000
  C     41.013800  -22.964800  -114.575000
  C     40.651100  -22.450100  -113.288000
  C     39.540400  -21.694200  -113.360000
  H     41.294300  -22.402200  -112.425000
  C     42.310600  -23.658900  -114.854000
  H     43.169600  -23.067300  -114.479000
  H     42.492300  -23.561200  -115.933000
  C     42.340800  -25.118700  -114.401000
  H     41.567600  -25.653600  -114.908000
  H     43.248400  -25.528100  -114.823000
  C     42.332800  -25.490000  -112.927000
  H     42.316400  -26.590100  -112.828000
  H     43.170200  -25.140500  -112.354000
  H     41.416800  -25.088400  -112.435000
  S     38.326300  -19.285000  -112.798000
  C     37.700200  -19.013000  -111.227000
  C     37.982000  -20.028200  -110.364000
  C     38.751000  -21.045700  -110.957000
  C     38.965100  -20.848800  -112.352000
  H     37.684700  -20.066900  -109.312000
  C     39.186200  -22.242000  -110.192000
  H     39.534200  -21.986000  -109.188000
  H     40.069900  -22.569800  -110.703000
  C     38.285500  -23.400700  -110.022000
  H     37.515700  -23.156400  -109.343000
  H     38.826200  -24.287600  -109.666000
  C     37.625700  -23.928900  -111.371000
  H     38.310200  -24.544100  -112.014000
  H     37.282000  -23.179900  -112.039000
  H     36.731300  -24.549000  -111.089000
  H     40.389500  -22.970200  -116.565000
  H     37.443500  -17.985500  -110.942000

 Total Charge           Charge          ....    0
 Multiplicity           Mult            ....    1
 Number of Electrons    NEL             ....  134
 Basis Dimension        Dim             ....  322

ORBITAL ENERGIES
----------------

  NO   OCC          E(Eh)            E(eV)
   0   2.0000     -88.969262     -2420.9767
   1   2.0000     -88.967700     -2420.9342
   2   2.0000     -10.331647      -281.1384
   3   2.0000     -10.328421      -281.0506
   4   2.0000     -10.314379      -280.6685
   5   2.0000     -10.311463      -280.5892
   6   2.0000     -10.302261      -280.3388
   7   2.0000     -10.300871      -280.3009
   8   2.0000     -10.292495      -280.0730
   9   2.0000     -10.291803      -280.0542
  10   2.0000     -10.291672      -280.0506
  11   2.0000     -10.281854      -279.7835
  12   2.0000     -10.281805      -279.7821
  13   2.0000     -10.281576      -279.7759
  14   2.0000     -10.280123      -279.7364
  15   2.0000     -10.272942      -279.5410
  16   2.0000      -8.083087      -219.9520
  17   2.0000      -8.082540      -219.9371
  18   2.0000      -6.041429      -164.3956
  19   2.0000      -6.041341      -164.3932
  20   2.0000      -6.037354      -164.2847
  21   2.0000      -6.037329      -164.2841
  22   2.0000      -6.034139      -164.1973
  23   2.0000      -6.032979      -164.1657
  24   2.0000      -1.011724       -27.5304
  25   2.0000      -0.984488       -26.7893
  26   2.0000      -0.915455       -24.9108
  27   2.0000      -0.913352       -24.8536
  28   2.0000      -0.872296       -23.7364
  29   2.0000      -0.850721       -23.1493
  30   2.0000      -0.842770       -22.9330
  31   2.0000      -0.820525       -22.3276
  32   2.0000      -0.785401       -21.3719
  33   2.0000      -0.772063       -21.0089
  34   2.0000      -0.711633       -19.3645
  35   2.0000      -0.703144       -19.1335
  36   2.0000      -0.695743       -18.9321
  37   2.0000      -0.660048       -17.9608
  38   2.0000      -0.642082       -17.4719
  39   2.0000      -0.622353       -16.9351
  40   2.0000      -0.599627       -16.3167
  41   2.0000      -0.571448       -15.5499
  42   2.0000      -0.555310       -15.1108
  43   2.0000      -0.548208       -14.9175
  44   2.0000      -0.544713       -14.8224
  45   2.0000      -0.536988       -14.6122
  46   2.0000      -0.515518       -14.0280
  47   2.0000      -0.511778       -13.9262
  48   2.0000      -0.509419       -13.8620
  49   2.0000      -0.503374       -13.6975
  50   2.0000      -0.493610       -13.4318
  51   2.0000      -0.482440       -13.1279
  52   2.0000      -0.467514       -12.7217
  53   2.0000      -0.463700       -12.6179
  54   2.0000      -0.458620       -12.4797
  55   2.0000      -0.448221       -12.1967
  56   2.0000      -0.443239       -12.0611
  57   2.0000      -0.437995       -11.9185
  58   2.0000      -0.432118       -11.7585
  59   2.0000      -0.422734       -11.5032
  60   2.0000      -0.415170       -11.2973
  61   2.0000      -0.410714       -11.1761
  62   2.0000      -0.409696       -11.1484
  63   2.0000      -0.359675        -9.7872
  64   2.0000      -0.336540        -9.1577
  65   2.0000      -0.330125        -8.9832
  66   2.0000      -0.281941        -7.6720
  67   0.0000       0.018928         0.5151
  68   0.0000       0.070244         1.9114
  69   0.0000       0.104830         2.8526
  70   0.0000       0.116699         3.1755
  71   0.0000       0.127342         3.4652

MULLIKEN ATOMIC CHARGES
-----------------------
   0 S :    0.096782
   1 C :   -0.055787
   2 C :   -0.115894
   3 C :    0.005440
   4 C :   -0.109714
   5 H :    0.037782
   6 C :    0.042476
   7 H :    0.033576
   8 H :    0.011892
   9 C :   -0.039540
  10 H :    0.018119
  11 H :    0.017785
  12 C :   -0.055271
  13 H :    0.038618
  14 H :    0.026126
  15 H :    0.037431
  16 S :    0.111023
  17 C :   -0.093471
  18 C :   -0.028635
  19 C :   -0.067320
  20 C :   -0.154254
  21 H :    0.023652
  22 C :    0.113289
  23 H :    0.018026
  24 H :   -0.017083
  25 C :   -0.035923
  26 H :    0.016967
  27 H :    0.035314
  28 C :   -0.097291
  29 H :    0.039845
  30 H :    0.037494
  31 H :    0.036920
  32 H :    0.001435
  33 H :    0.070190
Sum of atomic charges:    0.0000000

LOEWDIN ATOMIC CHARGES
----------------------
   0 S :    0.374775
   1 C :   -0.180569
   2 C :   -0.050921
   3 C :   -0.073347
   4 C :   -0.164734
   5 H :    0.035468
   6 C :   -0.037884
   7 H :    0.034402
   8 H :    0.031976
   9 C :   -0.041355
  10 H :    0.022946
  11 H :    0.022831
  12 C :   -0.067392
  13 H :    0.032808
  14 H :    0.019852
  15 H :    0.026424
  16 S :    0.427695
  17 C :   -0.200042
  18 C :   -0.072132
  19 C :   -0.053372
  20 C :   -0.203712
  21 H :    0.036636
  22 C :   -0.040384
  23 H :    0.033982
  24 H :    0.024632
  25 C :   -0.031771
  26 H :    0.015564
  27 H :    0.032025
  28 C :   -0.073306
  29 H :    0.028267
  30 H :    0.017385
  31 H :    0.030315
  32 H :    0.009831
  33 H :    0.033109

  Mayer bond orders larger than 0.100000
B(  0-S ,  1-C ) :   1.0956 B(  0-S ,  4-C ) :   1.1255 B(  1-C ,  2-C ) :   1.6439
B(  1-C , 32-H ) :   0.9742 B(  2-C ,  3-C ) :   1.2084 B(  2-C ,  6-C ) :   1.0320
B(  3-C ,  4-C ) :   1.6035 B(  3-C ,  5-H ) :   0.9802 B(  4-C , 20-C ) :   1.0797
B(  6-C ,  7-H ) :   0.9410 B(  6-C ,  8-H ) :   0.9375 B(  6-C ,  9-C ) :   1.0691
B(  9-C , 10-H ) :   0.9509 B(  9-C , 11-H ) :   0.9507 B(  9-C , 12-C ) :   1.0890
B( 12-C , 13-H ) :   0.9704 B( 12-C , 14-H ) :   0.9742 B( 12-C , 15-H ) :   0.9702
B( 16-S , 17-C ) :   1.1767 B( 16-S , 20-C ) :   1.1558 B( 17-C , 18-C ) :   1.5499
B( 17-C , 20-C ) :   0.1024 B( 17-C , 33-H ) :   0.9622 B( 18-C , 19-C ) :   1.3029
B( 18-C , 21-H ) :   0.9911 B( 19-C , 20-C ) :   1.5173 B( 19-C , 22-C ) :   1.0549
B( 22-C , 23-H ) :   0.9213 B( 22-C , 24-H ) :   0.9160 B( 22-C , 25-C ) :   1.0897
B( 25-C , 26-H ) :   0.9561 B( 25-C , 27-H ) :   0.9522 B( 25-C , 28-C ) :   1.0675
B( 28-C , 29-H ) :   0.9767 B( 28-C , 30-H ) :   0.9760 B( 28-C , 31-H ) :   0.9762

Dispersion correction           -0.015887429
FINAL SINGLE POINT ENERGY     -1339.875727249011

DIPOLE MOMENT
-------------
                                X             Y             Z
Electronic contribution:    -10.23405      24.45266      -9.62182
Nuclear contribution   :     10.73414     -24.70139      10.00362
                        -----------------------------------------
Total Dipole Moment    :      0.50010      -0.24873       0.38181
                        -----------------------------------------
Magnitude (a.u.)       :      0.67657
Magnitude (Debye)      :      1.71969

Rotational constants in cm-1:     0.020213     0.009986     0.007623
Rotational constants in MHz :   605.960688   299.375304   228.532980

                             ****ORCA TERMINATED NORMALLY****
TOTAL RUN TIME: 0 days 0 hours 0 minutes 21 seconds 968 msec
