                         Program Version 4.2.1 -  RELEASE  -
|  1> ! wB97X-D3 SP def2-SVP
|  2> %pal
|  3> nprocs 24
|  4> end
|  5>
|  6> * xyz 0 1
|  7> S 	 -115.456 	 20.9045 	 -114.105
|  8> C 	 -117.196 	 20.7833 	 -114.251
|  9> C 	 -117.699 	 19.8003 	 -113.509
| 10> C 	 -116.649 	 19.1177 	 -112.791
| 11> C 	 -115.385 	 19.5214 	 -113.07
| 12> H 	 -116.842 	 18.4491 	 -112.002
| 13> C 	 -119.133 	 19.434 	 -113.425
| 14> H 	 -119.782 	 20.007 	 -114.074
| 15> H 	 -119.479 	 19.582 	 -112.443
| 16> C 	 -119.468 	 17.9575 	 -113.775
| 17> H 	 -119.009 	 17.6334 	 -114.713
| 18> H 	 -118.99 	 17.4037 	 -112.92
| 19> C 	 -120.95 	 17.7185 	 -113.827
| 20> H 	 -121.44 	 17.8419 	 -112.827
| 21> H 	 -121.423 	 18.3535 	 -114.517
| 22> H 	 -120.982 	 16.7404 	 -114.204
| 23> S 	 -113.054 	 20.6087 	 -112.049
| 24> C 	 -112.182 	 19.7105 	 -110.904
| 25> C 	 -112.508 	 18.4006 	 -110.79
| 26> C 	 -113.67 	 18.1502 	 -111.634
| 27> C 	 -114.158 	 19.2789 	 -112.274
| 28> H 	 -111.909 	 17.7093 	 -110.19
| 29> C 	 -114.255 	 16.7109 	 -111.615
| 30> H 	 -115.277 	 16.7659 	 -112.02
| 31> H 	 -114.438 	 16.3441 	 -110.542
| 32> C 	 -113.492 	 15.672 	 -112.47
| 33> H 	 -113.961 	 14.6815 	 -112.339
| 34> H 	 -112.462 	 15.5613 	 -112.087
| 35> C 	 -113.685 	 15.8937 	 -114.009
| 36> H 	 -112.971 	 15.2361 	 -114.562
| 37> H 	 -113.543 	 16.949 	 -114.175
| 38> H 	 -114.727 	 15.4947 	 -114.132
| 39> H 	 -117.83 	 21.2877 	 -114.995
| 40> H 	 -111.216 	 20.0026 	 -110.422
| 41> *
| 42>
| 43>                          ****END OF INPUT****

CARTESIAN COORDINATES (ANGSTROEM)
---------------------------------
  S    -115.456000   20.904500  -114.105000
  C    -117.196000   20.783300  -114.251000
  C    -117.699000   19.800300  -113.509000
  C    -116.649000   19.117700  -112.791000
  C    -115.385000   19.521400  -113.070000
  H    -116.842000   18.449100  -112.002000
  C    -119.133000   19.434000  -113.425000
  H    -119.782000   20.007000  -114.074000
  H    -119.479000   19.582000  -112.443000
  C    -119.468000   17.957500  -113.775000
  H    -119.009000   17.633400  -114.713000
  H    -118.990000   17.403700  -112.920000
  C    -120.950000   17.718500  -113.827000
  H    -121.440000   17.841900  -112.827000
  H    -121.423000   18.353500  -114.517000
  H    -120.982000   16.740400  -114.204000
  S    -113.054000   20.608700  -112.049000
  C    -112.182000   19.710500  -110.904000
  C    -112.508000   18.400600  -110.790000
  C    -113.670000   18.150200  -111.634000
  C    -114.158000   19.278900  -112.274000
  H    -111.909000   17.709300  -110.190000
  C    -114.255000   16.710900  -111.615000
  H    -115.277000   16.765900  -112.020000
  H    -114.438000   16.344100  -110.542000
  C    -113.492000   15.672000  -112.470000
  H    -113.961000   14.681500  -112.339000
  H    -112.462000   15.561300  -112.087000
  C    -113.685000   15.893700  -114.009000
  H    -112.971000   15.236100  -114.562000
  H    -113.543000   16.949000  -114.175000
  H    -114.727000   15.494700  -114.132000
  H    -117.830000   21.287700  -114.995000
  H    -111.216000   20.002600  -110.422000

 Total Charge           Charge          ....    0
 Multiplicity           Mult            ....    1
 Number of Electrons    NEL             ....  134
 Basis Dimension        Dim             ....  322

ORBITAL ENERGIES
----------------

  NO   OCC          E(Eh)            E(eV)
   0   2.0000     -88.966746     -2420.9082
   1   2.0000     -88.962343     -2420.7884
   2   2.0000     -10.330602      -281.1100
   3   2.0000     -10.329738      -281.0865
   4   2.0000     -10.312369      -280.6138
   5   2.0000     -10.309169      -280.5267
   6   2.0000     -10.307495      -280.4812
   7   2.0000     -10.298614      -280.2395
   8   2.0000     -10.294256      -280.1210
   9   2.0000     -10.292940      -280.0851
  10   2.0000     -10.288751      -279.9711
  11   2.0000     -10.288530      -279.9651
  12   2.0000     -10.287310      -279.9319
  13   2.0000     -10.285197      -279.8744
  14   2.0000     -10.279980      -279.7325
  15   2.0000     -10.273871      -279.5663
  16   2.0000      -8.082679      -219.9409
  17   2.0000      -8.077909      -219.8111
  18   2.0000      -6.041185      -164.3890
  19   2.0000      -6.037149      -164.2792
  20   2.0000      -6.036588      -164.2639
  21   2.0000      -6.033228      -164.1725
  22   2.0000      -6.032390      -164.1497
  23   2.0000      -6.028360      -164.0400
  24   2.0000      -1.015304       -27.6278
  25   2.0000      -0.993335       -27.0300
  26   2.0000      -0.919930       -25.0326
  27   2.0000      -0.901169       -24.5221
  28   2.0000      -0.877032       -23.8652
  29   2.0000      -0.850840       -23.1525
  30   2.0000      -0.845007       -22.9938
  31   2.0000      -0.819512       -22.3001
  32   2.0000      -0.785380       -21.3713
  33   2.0000      -0.771300       -20.9881
  34   2.0000      -0.707213       -19.2442
  35   2.0000      -0.690999       -18.8031
  36   2.0000      -0.684870       -18.6362
  37   2.0000      -0.658389       -17.9157
  38   2.0000      -0.638657       -17.3787
  39   2.0000      -0.628325       -17.0976
  40   2.0000      -0.592947       -16.1349
  41   2.0000      -0.580115       -15.7857
  42   2.0000      -0.566791       -15.4232
  43   2.0000      -0.550167       -14.9708
  44   2.0000      -0.540530       -14.7086
  45   2.0000      -0.533923       -14.5288
  46   2.0000      -0.519719       -14.1423
  47   2.0000      -0.509904       -13.8752
  48   2.0000      -0.504674       -13.7329
  49   2.0000      -0.493936       -13.4407
  50   2.0000      -0.489352       -13.3159
  51   2.0000      -0.479812       -13.0563
  52   2.0000      -0.476491       -12.9660
  53   2.0000      -0.463829       -12.6214
  54   2.0000      -0.458476       -12.4758
  55   2.0000      -0.452471       -12.3123
  56   2.0000      -0.443903       -12.0792
  57   2.0000      -0.437047       -11.8927
  58   2.0000      -0.432506       -11.7691
  59   2.0000      -0.424368       -11.5476
  60   2.0000      -0.413951       -11.2642
  61   2.0000      -0.412660       -11.2290
  62   2.0000      -0.407502       -11.0887
  63   2.0000      -0.363266        -9.8850
  64   2.0000      -0.334388        -9.0992
  65   2.0000      -0.325452        -8.8560
  66   2.0000      -0.292290        -7.9536
  67   0.0000       0.030338         0.8255
  68   0.0000       0.082301         2.2395
  69   0.0000       0.106704         2.9036
  70   0.0000       0.118391         3.2216
  71   0.0000       0.131978         3.5913

MULLIKEN ATOMIC CHARGES
-----------------------
   0 S :    0.072845
   1 C :   -0.121862
   2 C :   -0.059185
   3 C :    0.007741
   4 C :   -0.081279
   5 H :    0.002747
   6 C :    0.092978
   7 H :    0.000738
   8 H :    0.017952
   9 C :   -0.140672
  10 H :    0.036436
  11 H :    0.032421
  12 C :    0.006459
  13 H :    0.038919
  14 H :    0.018260
  15 H :    0.025897
  16 S :    0.114716
  17 C :   -0.083704
  18 C :   -0.041331
  19 C :   -0.073096
  20 C :   -0.132918
  21 H :    0.029715
  22 C :    0.026251
  23 H :    0.002971
  24 H :    0.047618
  25 C :   -0.089410
  26 H :    0.025578
  27 H :    0.029729
  28 C :   -0.059272
  29 H :    0.045508
  30 H :    0.052927
  31 H :    0.041135
  32 H :    0.049898
  33 H :    0.063292
Sum of atomic charges:   -0.0000000

LOEWDIN ATOMIC CHARGES
----------------------
   0 S :    0.394196
   1 C :   -0.191532
   2 C :   -0.064320
   3 C :   -0.058262
   4 C :   -0.187652
   5 H :    0.020121
   6 C :   -0.029052
   7 H :    0.023514
   8 H :    0.027145
   9 C :   -0.038349
  10 H :    0.024067
  11 H :    0.025227
  12 C :   -0.057705
  13 H :    0.032750
  14 H :    0.017375
  15 H :    0.025312
  16 S :    0.423064
  17 C :   -0.205233
  18 C :   -0.073921
  19 C :   -0.058249
  20 C :   -0.200160
  21 H :    0.037489
  22 C :   -0.042059
  23 H :    0.022951
  24 H :    0.039026
  25 C :   -0.047364
  26 H :    0.023775
  27 H :    0.017520
  28 C :   -0.062468
  29 H :    0.031020
  30 H :    0.024436
  31 H :    0.033100
  32 H :    0.035407
  33 H :    0.038831

  Mayer bond orders larger than 0.100000
B(  0-S ,  1-C ) :   1.1149 B(  0-S ,  4-C ) :   1.1354 B(  1-C ,  2-C ) :   1.6683
B(  1-C , 32-H ) :   0.9569 B(  2-C ,  3-C ) :   1.2092 B(  2-C ,  6-C ) :   1.0387
B(  3-C ,  4-C ) :   1.6020 B(  3-C ,  5-H ) :   0.9940 B(  4-C , 20-C ) :   1.0320
B(  6-C ,  7-H ) :   0.9440 B(  6-C ,  8-H ) :   0.9277 B(  6-C ,  9-C ) :   1.0552
B(  9-C , 10-H ) :   0.9615 B(  9-C , 11-H ) :   0.9512 B(  9-C , 12-C ) :   1.0921
B( 12-C , 13-H ) :   0.9708 B( 12-C , 14-H ) :   0.9711 B( 12-C , 15-H ) :   0.9713
B( 16-S , 17-C ) :   1.1613 B( 16-S , 20-C ) :   1.1248 B( 17-C , 18-C ) :   1.6453
B( 17-C , 33-H ) :   0.9524 B( 18-C , 19-C ) :   1.2159 B( 18-C , 21-H ) :   0.9906
B( 19-C , 20-C ) :   1.6278 B( 19-C , 22-C ) :   1.0324 B( 22-C , 23-H ) :   0.9325
B( 22-C , 24-H ) :   0.9457 B( 22-C , 25-C ) :   1.0686 B( 25-C , 26-H ) :   0.9607
B( 25-C , 27-H ) :   0.9606 B( 25-C , 28-C ) :   1.0489 B( 28-C , 29-H ) :   0.9748
B( 28-C , 30-H ) :   0.9827 B( 28-C , 31-H ) :   0.9785

Dispersion correction           -0.014039352
FINAL SINGLE POINT ENERGY     -1339.869383998210

DIPOLE MOMENT
-------------
                                X             Y             Z
Electronic contribution:     17.30161      23.37350       2.08761
Nuclear contribution   :    -17.71029     -23.92798      -1.88716
                        -----------------------------------------
Total Dipole Moment    :     -0.40867      -0.55448       0.20045
                        -----------------------------------------
Magnitude (a.u.)       :      0.71739
Magnitude (Debye)      :      1.82345

Rotational constants in cm-1:     0.019267     0.008635     0.006728
Rotational constants in MHz :   577.621208   258.871761   201.700106

                             ****ORCA TERMINATED NORMALLY****
TOTAL RUN TIME: 0 days 0 hours 0 minutes 21 seconds 848 msec
