                         Program Version 4.2.1 -  RELEASE  -
|  1> ! wB97X-D3 SP def2-SVP
|  2> %pal
|  3> nprocs 24
|  4> end
|  5>
|  6> * xyz 0 1
|  7> S 	 -98.9794 	 51.0036 	 -93.6621
|  8> C 	 -99.1639 	 49.3945 	 -93.2643
|  9> C 	 -98.5281 	 48.5247 	 -94.1139
| 10> C 	 -98.0286 	 49.1705 	 -95.2927
| 11> C 	 -98.1547 	 50.5485 	 -95.2092
| 12> H 	 -97.5229 	 48.6865 	 -96.1091
| 13> C 	 -98.3869 	 46.9825 	 -93.8919
| 14> H 	 -97.8692 	 46.5358 	 -94.7431
| 15> H 	 -99.3815 	 46.6372 	 -93.918
| 16> C 	 -97.6965 	 46.5839 	 -92.6186
| 17> H 	 -96.6543 	 47.0042 	 -92.6071
| 18> H 	 -98.2449 	 46.9711 	 -91.7707
| 19> C 	 -97.5343 	 45.0639 	 -92.5424
| 20> H 	 -96.889 	 44.6775 	 -93.383
| 21> H 	 -97.0772 	 44.908 	 -91.5192
| 22> H 	 -98.4635 	 44.4694 	 -92.6241
| 23> S 	 -97.4262 	 53.2099 	 -95.4221
| 24> C 	 -97.188 	 53.8847 	 -96.8849
| 25> C 	 -97.095 	 52.9632 	 -97.9092
| 26> C 	 -97.4851 	 51.6456 	 -97.5033
| 27> C 	 -97.776 	 51.5961 	 -96.1094
| 28> H 	 -96.8722 	 53.2283 	 -98.9328
| 29> C 	 -97.6481 	 50.5533 	 -98.5937
| 30> H 	 -96.7464 	 49.8701 	 -98.6671
| 31> H 	 -97.674 	 50.9859 	 -99.5706
| 32> C 	 -99.0159 	 49.8493 	 -98.5085
| 33> H 	 -99.8086 	 50.6395 	 -98.5129
| 34> H 	 -99.1599 	 49.4007 	 -97.5521
| 35> C 	 -99.3064 	 48.8038 	 -99.5493
| 36> H 	 -99.4614 	 49.183 	 -100.577
| 37> H 	 -100.2 	 48.2426 	 -99.2822
| 38> H 	 -98.4955 	 48.1075 	 -99.5618
| 39> H 	 -99.6478 	 49.0226 	 -92.3669
| 40> H 	 -96.8607 	 54.8499 	 -97.0087
| 41> *
| 42>
| 43>                          ****END OF INPUT****

CARTESIAN COORDINATES (ANGSTROEM)
---------------------------------
  S    -98.979400   51.003600  -93.662100
  C    -99.163900   49.394500  -93.264300
  C    -98.528100   48.524700  -94.113900
  C    -98.028600   49.170500  -95.292700
  C    -98.154700   50.548500  -95.209200
  H    -97.522900   48.686500  -96.109100
  C    -98.386900   46.982500  -93.891900
  H    -97.869200   46.535800  -94.743100
  H    -99.381500   46.637200  -93.918000
  C    -97.696500   46.583900  -92.618600
  H    -96.654300   47.004200  -92.607100
  H    -98.244900   46.971100  -91.770700
  C    -97.534300   45.063900  -92.542400
  H    -96.889000   44.677500  -93.383000
  H    -97.077200   44.908000  -91.519200
  H    -98.463500   44.469400  -92.624100
  S    -97.426200   53.209900  -95.422100
  C    -97.188000   53.884700  -96.884900
  C    -97.095000   52.963200  -97.909200
  C    -97.485100   51.645600  -97.503300
  C    -97.776000   51.596100  -96.109400
  H    -96.872200   53.228300  -98.932800
  C    -97.648100   50.553300  -98.593700
  H    -96.746400   49.870100  -98.667100
  H    -97.674000   50.985900  -99.570600
  C    -99.015900   49.849300  -98.508500
  H    -99.808600   50.639500  -98.512900
  H    -99.159900   49.400700  -97.552100
  C    -99.306400   48.803800  -99.549300
  H    -99.461400   49.183000  -100.577000
  H    -100.200000   48.242600  -99.282200
  H    -98.495500   48.107500  -99.561800
  H    -99.647800   49.022600  -92.366900
  H    -96.860700   54.849900  -97.008700

 Total Charge           Charge          ....    0
 Multiplicity           Mult            ....    1
 Number of Electrons    NEL             ....  134
 Basis Dimension        Dim             ....  322

ORBITAL ENERGIES
----------------

  NO   OCC          E(Eh)            E(eV)
   0   2.0000     -88.965666     -2420.8789
   1   2.0000     -88.965097     -2420.8634
   2   2.0000     -10.332033      -281.1489
   3   2.0000     -10.330475      -281.1065
   4   2.0000     -10.309389      -280.5327
   5   2.0000     -10.305644      -280.4308
   6   2.0000     -10.302829      -280.3542
   7   2.0000     -10.298119      -280.2261
   8   2.0000     -10.297618      -280.2124
   9   2.0000     -10.295039      -280.1422
  10   2.0000     -10.289733      -279.9979
  11   2.0000     -10.287649      -279.9412
  12   2.0000     -10.287420      -279.9349
  13   2.0000     -10.287311      -279.9320
  14   2.0000     -10.278792      -279.7002
  15   2.0000     -10.273634      -279.5598
  16   2.0000      -8.082373      -219.9326
  17   2.0000      -8.080580      -219.8838
  18   2.0000      -6.040651      -164.3745
  19   2.0000      -6.039028      -164.3303
  20   2.0000      -6.036551      -164.2629
  21   2.0000      -6.035076      -164.2228
  22   2.0000      -6.033307      -164.1746
  23   2.0000      -6.031261      -164.1190
  24   2.0000      -1.010880       -27.5074
  25   2.0000      -0.990703       -26.9584
  26   2.0000      -0.912877       -24.8406
  27   2.0000      -0.909446       -24.7473
  28   2.0000      -0.872839       -23.7511
  29   2.0000      -0.856007       -23.2931
  30   2.0000      -0.850039       -23.1307
  31   2.0000      -0.810406       -22.0523
  32   2.0000      -0.784940       -21.3593
  33   2.0000      -0.767549       -20.8861
  34   2.0000      -0.707940       -19.2640
  35   2.0000      -0.696541       -18.9538
  36   2.0000      -0.690983       -18.8026
  37   2.0000      -0.665964       -18.1218
  38   2.0000      -0.638067       -17.3627
  39   2.0000      -0.618684       -16.8353
  40   2.0000      -0.600359       -16.3366
  41   2.0000      -0.575253       -15.6534
  42   2.0000      -0.561989       -15.2925
  43   2.0000      -0.556905       -15.1542
  44   2.0000      -0.526481       -14.3263
  45   2.0000      -0.521016       -14.1776
  46   2.0000      -0.518837       -14.1183
  47   2.0000      -0.511058       -13.9066
  48   2.0000      -0.506739       -13.7891
  49   2.0000      -0.501473       -13.6458
  50   2.0000      -0.494921       -13.4675
  51   2.0000      -0.487911       -13.2767
  52   2.0000      -0.475125       -12.9288
  53   2.0000      -0.467055       -12.7092
  54   2.0000      -0.462002       -12.5717
  55   2.0000      -0.452021       -12.3001
  56   2.0000      -0.444130       -12.0854
  57   2.0000      -0.436145       -11.8681
  58   2.0000      -0.428159       -11.6508
  59   2.0000      -0.427347       -11.6287
  60   2.0000      -0.417848       -11.3702
  61   2.0000      -0.411828       -11.2064
  62   2.0000      -0.409018       -11.1300
  63   2.0000      -0.365073        -9.9341
  64   2.0000      -0.331721        -9.0266
  65   2.0000      -0.331065        -9.0087
  66   2.0000      -0.274593        -7.4721
  67   0.0000       0.020215         0.5501
  68   0.0000       0.078770         2.1434
  69   0.0000       0.105334         2.8663
  70   0.0000       0.123323         3.3558
  71   0.0000       0.136954         3.7267

MULLIKEN ATOMIC CHARGES
-----------------------
   0 S :    0.110688
   1 C :   -0.107548
   2 C :   -0.107217
   3 C :    0.016287
   4 C :   -0.140678
   5 H :    0.014627
   6 C :    0.092089
   7 H :    0.009428
   8 H :    0.022866
   9 C :   -0.086187
  10 H :    0.042517
  11 H :    0.026947
  12 C :   -0.075743
  13 H :    0.040069
  14 H :    0.047742
  15 H :    0.032812
  16 S :    0.115754
  17 C :   -0.034853
  18 C :   -0.049200
  19 C :   -0.045391
  20 C :   -0.141468
  21 H :    0.012648
  22 C :    0.066420
  23 H :    0.043609
  24 H :    0.006861
  25 C :   -0.101152
  26 H :    0.033244
  27 H :    0.022121
  28 C :   -0.018571
  29 H :    0.032076
  30 H :    0.031901
  31 H :    0.014164
  32 H :    0.043371
  33 H :    0.029766
Sum of atomic charges:    0.0000000

LOEWDIN ATOMIC CHARGES
----------------------
   0 S :    0.412183
   1 C :   -0.224401
   2 C :   -0.063145
   3 C :   -0.061853
   4 C :   -0.170728
   5 H :    0.031673
   6 C :   -0.028444
   7 H :    0.026618
   8 H :    0.025443
   9 C :   -0.044624
  10 H :    0.034173
  11 H :    0.019928
  12 C :   -0.074071
  13 H :    0.029728
  14 H :    0.034932
  15 H :    0.023376
  16 S :    0.447430
  17 C :   -0.211239
  18 C :   -0.073792
  19 C :   -0.049443
  20 C :   -0.194510
  21 H :    0.028439
  22 C :   -0.033418
  23 H :    0.034753
  24 H :    0.025747
  25 C :   -0.047516
  26 H :    0.031132
  27 H :    0.017847
  28 C :   -0.063203
  29 H :    0.024910
  30 H :    0.030062
  31 H :    0.018740
  32 H :    0.028338
  33 H :    0.014936

  Mayer bond orders larger than 0.100000
B(  0-S ,  1-C ) :   1.1499 B(  0-S ,  4-C ) :   1.1370 B(  1-C ,  2-C ) :   1.6157
B(  1-C , 32-H ) :   0.9635 B(  2-C ,  3-C ) :   1.2570 B(  2-C ,  6-C ) :   1.0012
B(  3-C ,  4-C ) :   1.5580 B(  3-C ,  5-H ) :   0.9895 B(  4-C , 20-C ) :   1.1092
B(  6-C ,  7-H ) :   0.9458 B(  6-C ,  8-H ) :   0.9345 B(  6-C ,  9-C ) :   1.0760
B(  9-C , 10-H ) :   0.9539 B(  9-C , 11-H ) :   0.9532 B(  9-C , 12-C ) :   1.0826
B( 12-C , 13-H ) :   0.9730 B( 12-C , 14-H ) :   0.9743 B( 12-C , 15-H ) :   0.9742
B( 16-S , 17-C ) :   1.2004 B( 16-S , 20-C ) :   1.1486 B( 17-C , 18-C ) :   1.5551
B( 17-C , 33-H ) :   0.9717 B( 18-C , 19-C ) :   1.2950 B( 18-C , 21-H ) :   0.9912
B( 19-C , 20-C ) :   1.5314 B( 19-C , 22-C ) :   1.0353 B( 22-C , 23-H ) :   0.9319
B( 22-C , 24-H ) :   0.9389 B( 22-C , 25-C ) :   1.0547 B( 25-C , 26-H ) :   0.9498
B( 25-C , 27-H ) :   0.9539 B( 25-C , 28-C ) :   1.0950 B( 28-C , 29-H ) :   0.9748
B( 28-C , 30-H ) :   0.9707 B( 28-C , 31-H ) :   0.9702

Dispersion correction           -0.013881731
FINAL SINGLE POINT ENERGY     -1339.878369890931

DIPOLE MOMENT
-------------
                                X             Y             Z
Electronic contribution:      1.03238      28.28386       8.32361
Nuclear contribution   :     -0.93765     -28.75631      -8.60304
                        -----------------------------------------
Total Dipole Moment    :      0.09473      -0.47245      -0.27942
                        -----------------------------------------
Magnitude (a.u.)       :      0.55701
Magnitude (Debye)      :      1.41581

Rotational constants in cm-1:     0.019271     0.008226     0.006323
Rotational constants in MHz :   577.719895   246.600850   189.558210

                             ****ORCA TERMINATED NORMALLY****
TOTAL RUN TIME: 0 days 0 hours 0 minutes 21 seconds 537 msec
