                         Program Version 4.2.1 -  RELEASE  -
|  1> ! wB97X-D3 SP def2-SVP
|  2> %pal
|  3> nprocs 24
|  4> end
|  5>
|  6> * xyz 0 1
|  7> S 	 -0.931921 	 -24.4883 	 -113.894
|  8> C 	 -0.930508 	 -26.0894 	 -114.702
|  9> C 	 -0.649201 	 -27.0536 	 -113.715
| 10> C 	 -0.572633 	 -26.4746 	 -112.421
| 11> C 	 -0.591314 	 -25.088 	 -112.329
| 12> H 	 -0.395665 	 -27.0932 	 -111.506
| 13> C 	 -0.601642 	 -28.5855 	 -113.876
| 14> H 	 0.328003 	 -28.9526 	 -113.37
| 15> H 	 -0.662646 	 -28.8845 	 -114.911
| 16> C 	 -1.70439 	 -29.3435 	 -113.14
| 17> H 	 -1.53329 	 -29.1061 	 -112.081
| 18> H 	 -2.63789 	 -28.8163 	 -113.474
| 19> C 	 -1.74247 	 -30.8461 	 -113.433
| 20> H 	 -2.61523 	 -31.3375 	 -113.155
| 21> H 	 -1.60527 	 -30.9732 	 -114.505
| 22> H 	 -0.913629 	 -31.4085 	 -113.064
| 23> S 	 -1.73035 	 -22.9391 	 -110.903
| 24> C 	 -1.03289 	 -22.564 	 -109.362
| 25> C 	 -0.13203 	 -23.4802 	 -108.835
| 26> C 	 0.0214173 	 -24.5451 	 -109.838
| 27> C 	 -0.70047 	 -24.3604 	 -111.021
| 28> H 	 0.298668 	 -23.4365 	 -107.8
| 29> C 	 0.948109 	 -25.646 	 -109.658
| 30> H 	 1.85962 	 -25.2115 	 -109.18
| 31> H 	 1.22837 	 -26.0454 	 -110.637
| 32> C 	 0.28061 	 -26.6505 	 -108.758
| 33> H 	 -0.616978 	 -27.0223 	 -109.118
| 34> H 	 0.026606 	 -26.2087 	 -107.825
| 35> C 	 1.24063 	 -27.8272 	 -108.379
| 36> H 	 1.13175 	 -28.6691 	 -109.131
| 37> H 	 1.04665 	 -28.2198 	 -107.355
| 38> H 	 2.30195 	 -27.6116 	 -108.384
| 39> H 	 -1.26362 	 -26.4606 	 -115.682
| 40> H 	 -1.43494 	 -21.7332 	 -108.805
| 41> *
| 42>
| 43>                          ****END OF INPUT****

CARTESIAN COORDINATES (ANGSTROEM)
---------------------------------
  S     -0.931921  -24.488300  -113.894000
  C     -0.930508  -26.089400  -114.702000
  C     -0.649201  -27.053600  -113.715000
  C     -0.572633  -26.474600  -112.421000
  C     -0.591314  -25.088000  -112.329000
  H     -0.395665  -27.093200  -111.506000
  C     -0.601642  -28.585500  -113.876000
  H      0.328003  -28.952600  -113.370000
  H     -0.662646  -28.884500  -114.911000
  C     -1.704390  -29.343500  -113.140000
  H     -1.533290  -29.106100  -112.081000
  H     -2.637890  -28.816300  -113.474000
  C     -1.742470  -30.846100  -113.433000
  H     -2.615230  -31.337500  -113.155000
  H     -1.605270  -30.973200  -114.505000
  H     -0.913629  -31.408500  -113.064000
  S     -1.730350  -22.939100  -110.903000
  C     -1.032890  -22.564000  -109.362000
  C     -0.132030  -23.480200  -108.835000
  C      0.021417  -24.545100  -109.838000
  C     -0.700470  -24.360400  -111.021000
  H      0.298668  -23.436500  -107.800000
  C      0.948109  -25.646000  -109.658000
  H      1.859620  -25.211500  -109.180000
  H      1.228370  -26.045400  -110.637000
  C      0.280610  -26.650500  -108.758000
  H     -0.616978  -27.022300  -109.118000
  H      0.026606  -26.208700  -107.825000
  C      1.240630  -27.827200  -108.379000
  H      1.131750  -28.669100  -109.131000
  H      1.046650  -28.219800  -107.355000
  H      2.301950  -27.611600  -108.384000
  H     -1.263620  -26.460600  -115.682000
  H     -1.434940  -21.733200  -108.805000

 Total Charge           Charge          ....    0
 Multiplicity           Mult            ....    1
 Number of Electrons    NEL             ....  134
 Basis Dimension        Dim             ....  322

ORBITAL ENERGIES
----------------

  NO   OCC          E(Eh)            E(eV)
   0   2.0000     -88.972022     -2421.0518
   1   2.0000     -88.967725     -2420.9349
   2   2.0000     -10.334369      -281.2125
   3   2.0000     -10.331530      -281.1352
   4   2.0000     -10.323346      -280.9125
   5   2.0000     -10.320767      -280.8424
   6   2.0000     -10.306779      -280.4617
   7   2.0000     -10.305036      -280.4143
   8   2.0000     -10.304713      -280.4055
   9   2.0000     -10.296046      -280.1697
  10   2.0000     -10.293538      -280.1014
  11   2.0000     -10.290309      -280.0135
  12   2.0000     -10.286100      -279.8990
  13   2.0000     -10.284061      -279.8435
  14   2.0000     -10.281389      -279.7708
  15   2.0000     -10.274505      -279.5835
  16   2.0000      -8.085979      -220.0307
  17   2.0000      -8.082710      -219.9417
  18   2.0000      -6.044674      -164.4840
  19   2.0000      -6.041159      -164.3883
  20   2.0000      -6.040447      -164.3689
  21   2.0000      -6.037287      -164.2829
  22   2.0000      -6.036676      -164.2663
  23   2.0000      -6.033435      -164.1781
  24   2.0000      -1.006712       -27.3940
  25   2.0000      -0.985191       -26.8084
  26   2.0000      -0.921239       -25.0682
  27   2.0000      -0.914455       -24.8836
  28   2.0000      -0.867030       -23.5931
  29   2.0000      -0.851053       -23.1583
  30   2.0000      -0.843806       -22.9611
  31   2.0000      -0.812920       -22.1207
  32   2.0000      -0.786020       -21.3887
  33   2.0000      -0.771731       -20.9999
  34   2.0000      -0.710637       -19.3374
  35   2.0000      -0.699278       -19.0283
  36   2.0000      -0.694507       -18.8985
  37   2.0000      -0.663276       -18.0487
  38   2.0000      -0.632823       -17.2200
  39   2.0000      -0.622243       -16.9321
  40   2.0000      -0.596938       -16.2435
  41   2.0000      -0.572591       -15.5810
  42   2.0000      -0.571636       -15.5550
  43   2.0000      -0.562557       -15.3080
  44   2.0000      -0.531472       -14.4621
  45   2.0000      -0.528647       -14.3852
  46   2.0000      -0.510839       -13.9006
  47   2.0000      -0.509493       -13.8640
  48   2.0000      -0.506751       -13.7894
  49   2.0000      -0.503696       -13.7063
  50   2.0000      -0.495445       -13.4818
  51   2.0000      -0.476164       -12.9571
  52   2.0000      -0.470308       -12.7977
  53   2.0000      -0.465348       -12.6628
  54   2.0000      -0.460866       -12.5408
  55   2.0000      -0.455165       -12.3857
  56   2.0000      -0.450971       -12.2716
  57   2.0000      -0.444638       -12.0992
  58   2.0000      -0.427410       -11.6304
  59   2.0000      -0.424382       -11.5480
  60   2.0000      -0.419676       -11.4200
  61   2.0000      -0.417255       -11.3541
  62   2.0000      -0.413761       -11.2590
  63   2.0000      -0.352121        -9.5817
  64   2.0000      -0.330940        -9.0053
  65   2.0000      -0.330276        -8.9873
  66   2.0000      -0.288965        -7.8632
  67   0.0000       0.024185         0.6581
  68   0.0000       0.076823         2.0905
  69   0.0000       0.106148         2.8884
  70   0.0000       0.112483         3.0608
  71   0.0000       0.123588         3.3630

MULLIKEN ATOMIC CHARGES
-----------------------
   0 S :    0.106183
   1 C :   -0.119728
   2 C :   -0.078035
   3 C :   -0.043440
   4 C :   -0.099291
   5 H :    0.025154
   6 C :    0.052384
   7 H :    0.036450
   8 H :    0.011967
   9 C :   -0.113231
  10 H :    0.031671
  11 H :    0.037476
  12 C :    0.014731
  13 H :    0.029830
  14 H :    0.012131
  15 H :    0.018391
  16 S :    0.107312
  17 C :   -0.090895
  18 C :   -0.021841
  19 C :   -0.097543
  20 C :   -0.127115
  21 H :    0.050683
  22 C :    0.052024
  23 H :    0.030124
  24 H :    0.033839
  25 C :   -0.035594
  26 H :    0.016286
  27 H :    0.012313
  28 C :   -0.061216
  29 H :    0.032187
  30 H :    0.037195
  31 H :    0.028046
  32 H :    0.055858
  33 H :    0.055695
Sum of atomic charges:    0.0000000

LOEWDIN ATOMIC CHARGES
----------------------
   0 S :    0.416404
   1 C :   -0.202852
   2 C :   -0.061723
   3 C :   -0.080034
   4 C :   -0.206289
   5 H :    0.032403
   6 C :   -0.031582
   7 H :    0.035555
   8 H :    0.021619
   9 C :   -0.043694
  10 H :    0.020577
  11 H :    0.028927
  12 C :   -0.059018
  13 H :    0.021124
  14 H :    0.026684
  15 H :    0.024269
  16 S :    0.403223
  17 C :   -0.176411
  18 C :   -0.075959
  19 C :   -0.046436
  20 C :   -0.199610
  21 H :    0.047056
  22 C :   -0.037775
  23 H :    0.036935
  24 H :    0.029800
  25 C :   -0.029203
  26 H :    0.015668
  27 H :    0.022068
  28 C :   -0.072678
  29 H :    0.027491
  30 H :    0.027912
  31 H :    0.021750
  32 H :    0.040667
  33 H :    0.023132

  Mayer bond orders larger than 0.100000
B(  0-S ,  1-C ) :   1.1321 B(  0-S ,  4-C ) :   1.1577 B(  1-C ,  2-C ) :   1.5809
B(  1-C , 32-H ) :   0.9627 B(  2-C ,  3-C ) :   1.2793 B(  2-C ,  6-C ) :   1.0368
B(  3-C ,  4-C ) :   1.5262 B(  3-C ,  5-H ) :   0.9761 B(  4-C , 20-C ) :   1.0453
B(  6-C ,  7-H ) :   0.9387 B(  6-C ,  8-H ) :   0.9437 B(  6-C ,  9-C ) :   1.0570
B(  9-C , 10-H ) :   0.9543 B(  9-C , 11-H ) :   0.9570 B(  9-C , 12-C ) :   1.0807
B( 12-C , 13-H ) :   0.9750 B( 12-C , 14-H ) :   0.9699 B( 12-C , 15-H ) :   0.9706
B( 16-S , 17-C ) :   1.1738 B( 16-S , 20-C ) :   1.1094 B( 17-C , 18-C ) :   1.6089
B( 17-C , 33-H ) :   0.9638 B( 18-C , 19-C ) :   1.2229 B( 18-C , 21-H ) :   0.9816
B( 19-C , 20-C ) :   1.6097 B( 19-C , 22-C ) :   1.0724 B( 22-C , 23-H ) :   0.9246
B( 22-C , 24-H ) :   0.9300 B( 22-C , 25-C ) :   1.0582 B( 25-C , 26-H ) :   0.9535
B( 25-C , 27-H ) :   0.9564 B( 25-C , 28-C ) :   1.0654 B( 28-C , 29-H ) :   0.9771
B( 28-C , 30-H ) :   0.9792 B( 28-C , 31-H ) :   0.9756

Dispersion correction           -0.014173178
FINAL SINGLE POINT ENERGY     -1339.864139118916

DIPOLE MOMENT
-------------
                                X             Y             Z
Electronic contribution:     -5.97352      31.10821      -8.34356
Nuclear contribution   :      6.04053     -31.71686       8.79421
                        -----------------------------------------
Total Dipole Moment    :      0.06702      -0.60866       0.45066
                        -----------------------------------------
Magnitude (a.u.)       :      0.76029
Magnitude (Debye)      :      1.93251

Rotational constants in cm-1:     0.017121     0.009432     0.006632
Rotational constants in MHz :   513.262491   282.778740   198.826499

                             ****ORCA TERMINATED NORMALLY****
TOTAL RUN TIME: 0 days 0 hours 0 minutes 22 seconds 210 msec
