                         Program Version 4.2.1 -  RELEASE  -
|  1> ! wB97X-D3 SP def2-SVP
|  2> %pal
|  3> nprocs 24
|  4> end
|  5>
|  6> * xyz 0 1
|  7> S 	 -110.604 	 47.7861 	 -111.486
|  8> C 	 -110.123 	 47.6718 	 -113.196
|  9> C 	 -110.74 	 48.7129 	 -113.886
| 10> C 	 -111.474 	 49.5837 	 -113.048
| 11> C 	 -111.614 	 49.1557 	 -111.727
| 12> H 	 -111.896 	 50.5044 	 -113.263
| 13> C 	 -110.464 	 49.2054 	 -115.288
| 14> H 	 -111.064 	 50.1685 	 -115.431
| 15> H 	 -110.869 	 48.5568 	 -116.011
| 16> C 	 -108.962 	 49.4293 	 -115.605
| 17> H 	 -108.462 	 48.5079 	 -115.317
| 18> H 	 -108.827 	 49.586 	 -116.703
| 19> C 	 -108.358 	 50.7433 	 -115.044
| 20> H 	 -107.32 	 50.8823 	 -115.11
| 21> H 	 -108.827 	 51.5385 	 -115.629
| 22> H 	 -108.545 	 50.9817 	 -114.029
| 23> S 	 -111.358 	 49.9744 	 -109.126
| 24> C 	 -112.622 	 50.8596 	 -108.347
| 25> C 	 -113.569 	 51.2401 	 -109.271
| 26> C 	 -113.414 	 50.6078 	 -110.576
| 27> C 	 -112.267 	 49.8444 	 -110.668
| 28> H 	 -114.297 	 52.0087 	 -108.997
| 29> C 	 -114.311 	 51.0429 	 -111.683
| 30> H 	 -115.312 	 51.0342 	 -111.265
| 31> H 	 -114.249 	 50.2351 	 -112.398
| 32> C 	 -113.9 	 52.3711 	 -112.381
| 33> H 	 -114.191 	 52.4615 	 -113.453
| 34> H 	 -112.815 	 52.4582 	 -112.474
| 35> C 	 -114.449 	 53.5114 	 -111.687
| 36> H 	 -115.589 	 53.4513 	 -111.741
| 37> H 	 -114.16 	 54.3519 	 -112.155
| 38> H 	 -114.099 	 53.5488 	 -110.585
| 39> H 	 -109.418 	 46.9697 	 -113.69
| 40> H 	 -112.62 	 51.1551 	 -107.287
| 41> *
| 42>
| 43>                          ****END OF INPUT****

CARTESIAN COORDINATES (ANGSTROEM)
---------------------------------
  S    -110.604000   47.786100  -111.486000
  C    -110.123000   47.671800  -113.196000
  C    -110.740000   48.712900  -113.886000
  C    -111.474000   49.583700  -113.048000
  C    -111.614000   49.155700  -111.727000
  H    -111.896000   50.504400  -113.263000
  C    -110.464000   49.205400  -115.288000
  H    -111.064000   50.168500  -115.431000
  H    -110.869000   48.556800  -116.011000
  C    -108.962000   49.429300  -115.605000
  H    -108.462000   48.507900  -115.317000
  H    -108.827000   49.586000  -116.703000
  C    -108.358000   50.743300  -115.044000
  H    -107.320000   50.882300  -115.110000
  H    -108.827000   51.538500  -115.629000
  H    -108.545000   50.981700  -114.029000
  S    -111.358000   49.974400  -109.126000
  C    -112.622000   50.859600  -108.347000
  C    -113.569000   51.240100  -109.271000
  C    -113.414000   50.607800  -110.576000
  C    -112.267000   49.844400  -110.668000
  H    -114.297000   52.008700  -108.997000
  C    -114.311000   51.042900  -111.683000
  H    -115.312000   51.034200  -111.265000
  H    -114.249000   50.235100  -112.398000
  C    -113.900000   52.371100  -112.381000
  H    -114.191000   52.461500  -113.453000
  H    -112.815000   52.458200  -112.474000
  C    -114.449000   53.511400  -111.687000
  H    -115.589000   53.451300  -111.741000
  H    -114.160000   54.351900  -112.155000
  H    -114.099000   53.548800  -110.585000
  H    -109.418000   46.969700  -113.690000
  H    -112.620000   51.155100  -107.287000

 Total Charge           Charge          ....    0
 Multiplicity           Mult            ....    1
 Number of Electrons    NEL             ....  134
 Basis Dimension        Dim             ....  322

ORBITAL ENERGIES
----------------

  NO   OCC          E(Eh)            E(eV)
   0   2.0000     -88.969505     -2420.9833
   1   2.0000     -88.962107     -2420.7820
   2   2.0000     -10.328763      -281.0599
   3   2.0000     -10.326814      -281.0069
   4   2.0000     -10.322826      -280.8984
   5   2.0000     -10.319102      -280.7970
   6   2.0000     -10.304649      -280.4037
   7   2.0000     -10.301646      -280.3220
   8   2.0000     -10.295113      -280.1443
   9   2.0000     -10.294182      -280.1189
  10   2.0000     -10.293786      -280.1082
  11   2.0000     -10.288805      -279.9726
  12   2.0000     -10.287731      -279.9434
  13   2.0000     -10.287591      -279.9396
  14   2.0000     -10.275712      -279.6164
  15   2.0000     -10.270296      -279.4690
  16   2.0000      -8.083838      -219.9724
  17   2.0000      -8.076944      -219.7848
  18   2.0000      -6.042366      -164.4211
  19   2.0000      -6.038253      -164.3092
  20   2.0000      -6.035570      -164.2362
  21   2.0000      -6.034711      -164.2128
  22   2.0000      -6.031479      -164.1249
  23   2.0000      -6.027510      -164.0169
  24   2.0000      -1.009660       -27.4742
  25   2.0000      -0.984076       -26.7781
  26   2.0000      -0.920720       -25.0541
  27   2.0000      -0.911330       -24.7985
  28   2.0000      -0.872492       -23.7417
  29   2.0000      -0.858440       -23.3593
  30   2.0000      -0.845851       -23.0168
  31   2.0000      -0.813430       -22.1346
  32   2.0000      -0.786364       -21.3981
  33   2.0000      -0.775765       -21.1096
  34   2.0000      -0.712159       -19.3788
  35   2.0000      -0.703864       -19.1531
  36   2.0000      -0.693371       -18.8676
  37   2.0000      -0.665011       -18.0959
  38   2.0000      -0.641096       -17.4451
  39   2.0000      -0.613518       -16.6947
  40   2.0000      -0.593719       -16.1559
  41   2.0000      -0.575970       -15.6729
  42   2.0000      -0.565379       -15.3847
  43   2.0000      -0.553458       -15.0603
  44   2.0000      -0.547812       -14.9067
  45   2.0000      -0.543581       -14.7916
  46   2.0000      -0.519537       -14.1373
  47   2.0000      -0.513341       -13.9687
  48   2.0000      -0.510036       -13.8788
  49   2.0000      -0.502577       -13.6758
  50   2.0000      -0.488145       -13.2831
  51   2.0000      -0.478899       -13.0315
  52   2.0000      -0.472735       -12.8638
  53   2.0000      -0.467995       -12.7348
  54   2.0000      -0.460784       -12.5386
  55   2.0000      -0.446037       -12.1373
  56   2.0000      -0.443493       -12.0681
  57   2.0000      -0.437568       -11.9068
  58   2.0000      -0.434984       -11.8365
  59   2.0000      -0.425721       -11.5845
  60   2.0000      -0.418226       -11.3805
  61   2.0000      -0.413578       -11.2540
  62   2.0000      -0.407739       -11.0952
  63   2.0000      -0.352716        -9.5979
  64   2.0000      -0.332535        -9.0488
  65   2.0000      -0.326314        -8.8795
  66   2.0000      -0.289207        -7.8697
  67   0.0000       0.018972         0.5163
  68   0.0000       0.076026         2.0688
  69   0.0000       0.102163         2.7800
  70   0.0000       0.120966         3.2917
  71   0.0000       0.129844         3.5332

MULLIKEN ATOMIC CHARGES
-----------------------
   0 S :    0.116647
   1 C :   -0.142357
   2 C :   -0.049179
   3 C :    0.029254
   4 C :   -0.137821
   5 H :   -0.040596
   6 C :    0.059970
   7 H :    0.026063
   8 H :    0.024384
   9 C :   -0.078170
  10 H :    0.025082
  11 H :    0.036028
  12 C :   -0.024276
  13 H :    0.023557
  14 H :    0.018852
  15 H :    0.024035
  16 S :    0.088937
  17 C :   -0.093948
  18 C :   -0.058798
  19 C :   -0.062219
  20 C :   -0.125112
  21 H :    0.031267
  22 C :    0.077159
  23 H :    0.025998
  24 H :    0.020256
  25 C :   -0.079948
  26 H :    0.029761
  27 H :    0.036347
  28 C :   -0.015498
  29 H :    0.034011
  30 H :    0.001390
  31 H :    0.040595
  32 H :    0.067984
  33 H :    0.070346
Sum of atomic charges:   -0.0000000

LOEWDIN ATOMIC CHARGES
----------------------
   0 S :    0.420482
   1 C :   -0.200342
   2 C :   -0.063965
   3 C :   -0.057914
   4 C :   -0.204807
   5 H :    0.015172
   6 C :   -0.030341
   7 H :    0.035098
   8 H :    0.025641
   9 C :   -0.036028
  10 H :    0.017892
  11 H :    0.030149
  12 C :   -0.063167
  13 H :    0.020942
  14 H :    0.027000
  15 H :    0.019934
  16 S :    0.388592
  17 C :   -0.189969
  18 C :   -0.080782
  19 C :   -0.053590
  20 C :   -0.181903
  21 H :    0.031847
  22 C :   -0.030476
  23 H :    0.031967
  24 H :    0.029348
  25 C :   -0.045531
  26 H :    0.029172
  27 H :    0.024062
  28 C :   -0.060642
  29 H :    0.032347
  30 H :    0.007277
  31 H :    0.034437
  32 H :    0.040379
  33 H :    0.037719

  Mayer bond orders larger than 0.100000
B(  0-S ,  1-C ) :   1.1396 B(  0-S ,  4-C ) :   1.1620 B(  1-C ,  2-C ) :   1.5737
B(  1-C ,  4-C ) :   0.1022 B(  1-C , 32-H ) :   0.9660 B(  2-C ,  3-C ) :   1.2652
B(  2-C ,  6-C ) :   1.0198 B(  3-C ,  4-C ) :   1.5238 B(  3-C ,  5-H ) :   1.0054
B(  4-C , 20-C ) :   1.0863 B(  6-C ,  7-H ) :   0.9499 B(  6-C ,  8-H ) :   0.9278
B(  6-C ,  9-C ) :   1.0722 B(  9-C , 10-H ) :   0.9583 B(  9-C , 11-H ) :   0.9592
B(  9-C , 12-C ) :   1.0609 B( 12-C , 13-H ) :   0.9760 B( 12-C , 14-H ) :   0.9748
B( 12-C , 15-H ) :   0.9801 B( 16-S , 17-C ) :   1.1528 B( 16-S , 20-C ) :   1.1195
B( 17-C , 18-C ) :   1.6154 B( 17-C , 33-H ) :   0.9642 B( 18-C , 19-C ) :   1.2169
B( 18-C , 21-H ) :   0.9819 B( 19-C , 20-C ) :   1.5985 B( 19-C , 22-C ) :   1.0713
B( 22-C , 23-H ) :   0.9330 B( 22-C , 24-H ) :   0.9229 B( 22-C , 25-C ) :   1.0446
B( 25-C , 26-H ) :   0.9518 B( 25-C , 27-H ) :   0.9447 B( 25-C , 28-C ) :   1.1067
B( 28-C , 29-H ) :   0.9705 B( 28-C , 30-H ) :   0.9614 B( 28-C , 31-H ) :   0.9631

Dispersion correction           -0.014821737
FINAL SINGLE POINT ENERGY     -1339.859983177971

DIPOLE MOMENT
-------------
                                X             Y             Z
Electronic contribution:      2.75773     -17.10243      20.32934
Nuclear contribution   :     -2.85462      17.69437     -20.84704
                        -----------------------------------------
Total Dipole Moment    :     -0.09689       0.59195      -0.51769
                        -----------------------------------------
Magnitude (a.u.)       :      0.79234
Magnitude (Debye)      :      2.01396

Rotational constants in cm-1:     0.019306     0.009091     0.007084
Rotational constants in MHz :   578.770697   272.534647   212.370224

                             ****ORCA TERMINATED NORMALLY****
TOTAL RUN TIME: 0 days 0 hours 0 minutes 22 seconds 179 msec
