                         Program Version 4.2.1 -  RELEASE  -
|  1> ! wB97X-D3 SP def2-SVP
|  2> %pal
|  3> nprocs 24
|  4> end
|  5>
|  6> * xyz 0 1
|  7> S 	 45.1112 	 -19.4761 	 -109.585
|  8> C 	 46.0846 	 -18.9956 	 -108.238
|  9> C 	 46.4316 	 -20.0954 	 -107.473
| 10> C 	 45.7865 	 -21.309 	 -107.868
| 11> C 	 45.004 	 -21.0967 	 -108.995
| 12> H 	 45.9055 	 -22.2797 	 -107.503
| 13> C 	 47.2971 	 -20.0482 	 -106.247
| 14> H 	 47.3954 	 -21.0748 	 -105.913
| 15> H 	 46.6645 	 -19.4992 	 -105.515
| 16> C 	 48.678 	 -19.3548 	 -106.403
| 17> H 	 48.3744 	 -18.3131 	 -106.615
| 18> H 	 49.1938 	 -19.4487 	 -105.495
| 19> C 	 49.5908 	 -20.0161 	 -107.494
| 20> H 	 49.276 	 -19.8877 	 -108.512
| 21> H 	 50.6682 	 -19.7141 	 -107.396
| 22> H 	 49.6125 	 -21.0937 	 -107.268
| 23> S 	 42.7846 	 -21.5486 	 -110.588
| 24> C 	 42.2955 	 -23.2216 	 -110.907
| 25> C 	 43.277 	 -24.1438 	 -110.537
| 26> C 	 44.3856 	 -23.4754 	 -109.838
| 27> C 	 44.2401 	 -22.0925 	 -109.777
| 28> H 	 43.0657 	 -25.1974 	 -110.726
| 29> C 	 45.5382 	 -24.1767 	 -109.393
| 30> H 	 45.3748 	 -24.2628 	 -108.314
| 31> H 	 46.4097 	 -23.5638 	 -109.538
| 32> C 	 45.8255 	 -25.5575 	 -109.945
| 33> H 	 44.9319 	 -26.2508 	 -109.984
| 34> H 	 46.5528 	 -26.0676 	 -109.367
| 35> C 	 46.5465 	 -25.4346 	 -111.31
| 36> H 	 46.9039 	 -26.388 	 -111.676
| 37> H 	 47.3653 	 -24.7239 	 -111.224
| 38> H 	 45.9119 	 -25.147 	 -112.068
| 39> H 	 46.5914 	 -18.0179 	 -108.093
| 40> H 	 41.2747 	 -23.3886 	 -111.277
| 41> *
| 42>
| 43>                          ****END OF INPUT****

CARTESIAN COORDINATES (ANGSTROEM)
---------------------------------
  S     45.111200  -19.476100  -109.585000
  C     46.084600  -18.995600  -108.238000
  C     46.431600  -20.095400  -107.473000
  C     45.786500  -21.309000  -107.868000
  C     45.004000  -21.096700  -108.995000
  H     45.905500  -22.279700  -107.503000
  C     47.297100  -20.048200  -106.247000
  H     47.395400  -21.074800  -105.913000
  H     46.664500  -19.499200  -105.515000
  C     48.678000  -19.354800  -106.403000
  H     48.374400  -18.313100  -106.615000
  H     49.193800  -19.448700  -105.495000
  C     49.590800  -20.016100  -107.494000
  H     49.276000  -19.887700  -108.512000
  H     50.668200  -19.714100  -107.396000
  H     49.612500  -21.093700  -107.268000
  S     42.784600  -21.548600  -110.588000
  C     42.295500  -23.221600  -110.907000
  C     43.277000  -24.143800  -110.537000
  C     44.385600  -23.475400  -109.838000
  C     44.240100  -22.092500  -109.777000
  H     43.065700  -25.197400  -110.726000
  C     45.538200  -24.176700  -109.393000
  H     45.374800  -24.262800  -108.314000
  H     46.409700  -23.563800  -109.538000
  C     45.825500  -25.557500  -109.945000
  H     44.931900  -26.250800  -109.984000
  H     46.552800  -26.067600  -109.367000
  C     46.546500  -25.434600  -111.310000
  H     46.903900  -26.388000  -111.676000
  H     47.365300  -24.723900  -111.224000
  H     45.911900  -25.147000  -112.068000
  H     46.591400  -18.017900  -108.093000
  H     41.274700  -23.388600  -111.277000

 Total Charge           Charge          ....    0
 Multiplicity           Mult            ....    1
 Number of Electrons    NEL             ....  134
 Basis Dimension        Dim             ....  322

ORBITAL ENERGIES
----------------

  NO   OCC          E(Eh)            E(eV)
   0   2.0000     -88.966606     -2420.9044
   1   2.0000     -88.962123     -2420.7824
   2   2.0000     -10.329678      -281.0848
   3   2.0000     -10.324837      -280.9531
   4   2.0000     -10.323311      -280.9116
   5   2.0000     -10.310430      -280.5611
   6   2.0000     -10.304094      -280.3887
   7   2.0000     -10.302649      -280.3493
   8   2.0000     -10.298239      -280.2293
   9   2.0000     -10.290166      -280.0096
  10   2.0000     -10.290107      -280.0080
  11   2.0000     -10.289368      -279.9879
  12   2.0000     -10.289297      -279.9860
  13   2.0000     -10.284638      -279.8592
  14   2.0000     -10.281993      -279.7872
  15   2.0000     -10.269180      -279.4386
  16   2.0000      -8.081881      -219.9192
  17   2.0000      -8.076854      -219.7824
  18   2.0000      -6.040368      -164.3668
  19   2.0000      -6.036324      -164.2567
  20   2.0000      -6.035389      -164.2313
  21   2.0000      -6.032639      -164.1565
  22   2.0000      -6.031395      -164.1226
  23   2.0000      -6.027567      -164.0184
  24   2.0000      -1.007781       -27.4231
  25   2.0000      -0.982969       -26.7480
  26   2.0000      -0.921517       -25.0758
  27   2.0000      -0.909615       -24.7519
  28   2.0000      -0.865061       -23.5395
  29   2.0000      -0.854588       -23.2545
  30   2.0000      -0.845015       -22.9940
  31   2.0000      -0.814355       -22.1597
  32   2.0000      -0.783312       -21.3150
  33   2.0000      -0.771321       -20.9887
  34   2.0000      -0.713221       -19.4077
  35   2.0000      -0.707636       -19.2558
  36   2.0000      -0.691557       -18.8182
  37   2.0000      -0.658585       -17.9210
  38   2.0000      -0.638561       -17.3761
  39   2.0000      -0.614231       -16.7141
  40   2.0000      -0.596530       -16.2324
  41   2.0000      -0.577655       -15.7188
  42   2.0000      -0.565295       -15.3825
  43   2.0000      -0.550520       -14.9804
  44   2.0000      -0.545071       -14.8321
  45   2.0000      -0.536728       -14.6051
  46   2.0000      -0.524719       -14.2783
  47   2.0000      -0.509810       -13.8726
  48   2.0000      -0.496562       -13.5121
  49   2.0000      -0.494483       -13.4556
  50   2.0000      -0.490790       -13.3551
  51   2.0000      -0.476652       -12.9704
  52   2.0000      -0.469976       -12.7887
  53   2.0000      -0.466014       -12.6809
  54   2.0000      -0.464232       -12.6324
  55   2.0000      -0.452056       -12.3011
  56   2.0000      -0.445601       -12.1254
  57   2.0000      -0.439695       -11.9647
  58   2.0000      -0.436578       -11.8799
  59   2.0000      -0.427128       -11.6227
  60   2.0000      -0.420484       -11.4419
  61   2.0000      -0.418410       -11.3855
  62   2.0000      -0.414054       -11.2670
  63   2.0000      -0.354835        -9.6556
  64   2.0000      -0.331766        -9.0278
  65   2.0000      -0.323603        -8.8057
  66   2.0000      -0.281550        -7.6614
  67   0.0000       0.024736         0.6731
  68   0.0000       0.075536         2.0554
  69   0.0000       0.101687         2.7671
  70   0.0000       0.123509         3.3608
  71   0.0000       0.135411         3.6847

MULLIKEN ATOMIC CHARGES
-----------------------
   0 S :    0.110277
   1 C :   -0.128346
   2 C :   -0.104635
   3 C :    0.027841
   4 C :   -0.121660
   5 H :   -0.024046
   6 C :    0.037734
   7 H :    0.011633
   8 H :    0.052854
   9 C :   -0.044273
  10 H :    0.030123
  11 H :    0.025452
  12 C :   -0.070093
  13 H :    0.046671
  14 H :    0.041411
  15 H :    0.024446
  16 S :    0.087179
  17 C :   -0.115151
  18 C :   -0.020901
  19 C :   -0.064450
  20 C :   -0.110405
  21 H :    0.029945
  22 C :    0.017167
  23 H :    0.051139
  24 H :    0.035692
  25 C :   -0.055632
  26 H :    0.034715
  27 H :    0.017262
  28 C :   -0.021285
  29 H :    0.022632
  30 H :    0.029518
  31 H :    0.015761
  32 H :    0.060513
  33 H :    0.070912
Sum of atomic charges:    0.0000000

LOEWDIN ATOMIC CHARGES
----------------------
   0 S :    0.423032
   1 C :   -0.224054
   2 C :   -0.060312
   3 C :   -0.067512
   4 C :   -0.184263
   5 H :    0.019797
   6 C :   -0.035268
   7 H :    0.022462
   8 H :    0.041935
   9 C :   -0.032811
  10 H :    0.023007
  11 H :    0.019833
  12 C :   -0.068949
  13 H :    0.023464
  14 H :    0.031689
  15 H :    0.026357
  16 S :    0.385467
  17 C :   -0.173396
  18 C :   -0.073024
  19 C :   -0.052927
  20 C :   -0.202585
  21 H :    0.036233
  22 C :   -0.043632
  23 H :    0.039455
  24 H :    0.034841
  25 C :   -0.035348
  26 H :    0.028255
  27 H :    0.021801
  28 C :   -0.054849
  29 H :    0.024095
  30 H :    0.026314
  31 H :    0.013400
  32 H :    0.036119
  33 H :    0.031374

  Mayer bond orders larger than 0.100000
B(  0-S ,  1-C ) :   1.1287 B(  0-S ,  4-C ) :   1.1752 B(  1-C ,  2-C ) :   1.6021
B(  1-C , 32-H ) :   0.9639 B(  2-C ,  3-C ) :   1.2419 B(  2-C ,  6-C ) :   1.0141
B(  3-C ,  4-C ) :   1.5522 B(  3-C ,  5-H ) :   1.0016 B(  4-C , 20-C ) :   1.0386
B(  6-C ,  7-H ) :   0.9409 B(  6-C ,  8-H ) :   0.9419 B(  6-C ,  9-C ) :   1.0740
B(  9-C , 10-H ) :   0.9565 B(  9-C , 11-H ) :   0.9563 B(  9-C , 12-C ) :   1.0664
B( 12-C , 13-H ) :   0.9768 B( 12-C , 14-H ) :   0.9775 B( 12-C , 15-H ) :   0.9746
B( 16-S , 17-C ) :   1.1609 B( 16-S , 20-C ) :   1.1184 B( 17-C , 18-C ) :   1.6064
B( 17-C , 33-H ) :   0.9647 B( 18-C , 19-C ) :   1.2064 B( 18-C , 21-H ) :   0.9905
B( 19-C , 20-C ) :   1.6065 B( 19-C , 22-C ) :   1.0618 B( 22-C , 23-H ) :   0.8958
B( 22-C , 24-H ) :   0.9385 B( 22-C , 25-C ) :   1.0937 B( 25-C , 26-H ) :   0.9457
B( 25-C , 27-H ) :   0.9495 B( 25-C , 28-C ) :   1.0768 B( 28-C , 29-H ) :   0.9737
B( 28-C , 30-H ) :   0.9727 B( 28-C , 31-H ) :   0.9772

Dispersion correction           -0.014305933
FINAL SINGLE POINT ENERGY     -1339.875352494531

DIPOLE MOMENT
-------------
                                X             Y             Z
Electronic contribution:    -22.70910      12.35225      -7.95581
Nuclear contribution   :     23.12542     -12.91599       8.27480
                        -----------------------------------------
Total Dipole Moment    :      0.41632      -0.56374       0.31899
                        -----------------------------------------
Magnitude (a.u.)       :      0.76998
Magnitude (Debye)      :      1.95714

Rotational constants in cm-1:     0.020142     0.008617     0.006597
Rotational constants in MHz :   603.828020   258.326430   197.759461

                             ****ORCA TERMINATED NORMALLY****
TOTAL RUN TIME: 0 days 0 hours 0 minutes 21 seconds 885 msec
