                         Program Version 4.2.1 -  RELEASE  -
|  1> ! wB97X-D3 SP def2-SVP
|  2> %pal
|  3> nprocs 24
|  4> end
|  5>
|  6> * xyz 0 1
|  7> S 	 -131.017 	 64.0981 	 -57.7994
|  8> C 	 -130.593 	 64.251 	 -59.5056
|  9> C 	 -130.711 	 63.0489 	 -60.224
| 10> C 	 -131.129 	 61.9728 	 -59.3703
| 11> C 	 -131.248 	 62.3182 	 -58.0091
| 12> H 	 -131.223 	 60.8843 	 -59.6142
| 13> C 	 -130.239 	 62.8851 	 -61.6533
| 14> H 	 -130.321 	 61.7963 	 -61.9625
| 15> H 	 -129.135 	 63.1095 	 -61.7272
| 16> C 	 -130.902 	 63.8293 	 -62.7134
| 17> H 	 -131.948 	 63.7733 	 -62.6129
| 18> H 	 -130.709 	 64.9047 	 -62.4244
| 19> C 	 -130.372 	 63.6919 	 -64.159
| 20> H 	 -130.597 	 62.7424 	 -64.5769
| 21> H 	 -130.858 	 64.4694 	 -64.7964
| 22> H 	 -129.253 	 63.7196 	 -64.1917
| 23> S 	 -130.126 	 60.2589 	 -56.5625
| 24> C 	 -131.017 	 59.5582 	 -55.2355
| 25> C 	 -132.272 	 60.0954 	 -55.1175
| 26> C 	 -132.465 	 61.2314 	 -56.0012
| 27> C 	 -131.426 	 61.458 	 -56.8365
| 28> H 	 -133.014 	 59.6381 	 -54.4382
| 29> C 	 -133.793 	 61.9625 	 -56.1125
| 30> H 	 -133.54 	 63.0211 	 -56.3355
| 31> H 	 -134.34 	 61.9611 	 -55.2065
| 32> C 	 -134.606 	 61.3186 	 -57.3071
| 33> H 	 -134.496 	 60.2986 	 -56.9721
| 34> H 	 -133.999 	 61.2974 	 -58.1766
| 35> C 	 -136.04 	 61.851 	 -57.4627
| 36> H 	 -135.972 	 62.9218 	 -57.7526
| 37> H 	 -136.632 	 61.7624 	 -56.5737
| 38> H 	 -136.551 	 61.3369 	 -58.2853
| 39> H 	 -130.056 	 65.1458 	 -59.8994
| 40> H 	 -130.766 	 58.63 	 -54.7441
| 41> *
| 42>
| 43>                          ****END OF INPUT****

CARTESIAN COORDINATES (ANGSTROEM)
---------------------------------
  S    -131.017000   64.098100  -57.799400
  C    -130.593000   64.251000  -59.505600
  C    -130.711000   63.048900  -60.224000
  C    -131.129000   61.972800  -59.370300
  C    -131.248000   62.318200  -58.009100
  H    -131.223000   60.884300  -59.614200
  C    -130.239000   62.885100  -61.653300
  H    -130.321000   61.796300  -61.962500
  H    -129.135000   63.109500  -61.727200
  C    -130.902000   63.829300  -62.713400
  H    -131.948000   63.773300  -62.612900
  H    -130.709000   64.904700  -62.424400
  C    -130.372000   63.691900  -64.159000
  H    -130.597000   62.742400  -64.576900
  H    -130.858000   64.469400  -64.796400
  H    -129.253000   63.719600  -64.191700
  S    -130.126000   60.258900  -56.562500
  C    -131.017000   59.558200  -55.235500
  C    -132.272000   60.095400  -55.117500
  C    -132.465000   61.231400  -56.001200
  C    -131.426000   61.458000  -56.836500
  H    -133.014000   59.638100  -54.438200
  C    -133.793000   61.962500  -56.112500
  H    -133.540000   63.021100  -56.335500
  H    -134.340000   61.961100  -55.206500
  C    -134.606000   61.318600  -57.307100
  H    -134.496000   60.298600  -56.972100
  H    -133.999000   61.297400  -58.176600
  C    -136.040000   61.851000  -57.462700
  H    -135.972000   62.921800  -57.752600
  H    -136.632000   61.762400  -56.573700
  H    -136.551000   61.336900  -58.285300
  H    -130.056000   65.145800  -59.899400
  H    -130.766000   58.630000  -54.744100

 Total Charge           Charge          ....    0
 Multiplicity           Mult            ....    1
 Number of Electrons    NEL             ....  134
 Basis Dimension        Dim             ....  322

ORBITAL ENERGIES
----------------

  NO   OCC          E(Eh)            E(eV)
   0   2.0000     -88.969349     -2420.9791
   1   2.0000     -88.963598     -2420.8226
   2   2.0000     -10.337986      -281.3109
   3   2.0000     -10.325671      -280.9758
   4   2.0000     -10.321875      -280.8725
   5   2.0000     -10.316653      -280.7304
   6   2.0000     -10.309576      -280.5378
   7   2.0000     -10.307093      -280.4703
   8   2.0000     -10.304555      -280.4012
   9   2.0000     -10.302871      -280.3554
  10   2.0000     -10.297486      -280.2088
  11   2.0000     -10.290491      -280.0185
  12   2.0000     -10.287861      -279.9469
  13   2.0000     -10.284995      -279.8690
  14   2.0000     -10.280066      -279.7348
  15   2.0000     -10.278959      -279.7047
  16   2.0000      -8.082658      -219.9403
  17   2.0000      -8.078017      -219.8140
  18   2.0000      -6.041140      -164.3878
  19   2.0000      -6.037379      -164.2854
  20   2.0000      -6.036600      -164.2642
  21   2.0000      -6.033515      -164.1803
  22   2.0000      -6.032658      -164.1570
  23   2.0000      -6.028607      -164.0467
  24   2.0000      -1.001338       -27.2478
  25   2.0000      -0.977432       -26.5973
  26   2.0000      -0.905276       -24.6338
  27   2.0000      -0.902645       -24.5622
  28   2.0000      -0.866068       -23.5669
  29   2.0000      -0.848077       -23.0773
  30   2.0000      -0.844178       -22.9712
  31   2.0000      -0.811918       -22.0934
  32   2.0000      -0.780073       -21.2269
  33   2.0000      -0.766984       -20.8707
  34   2.0000      -0.706380       -19.2216
  35   2.0000      -0.703011       -19.1299
  36   2.0000      -0.693758       -18.8781
  37   2.0000      -0.663356       -18.0508
  38   2.0000      -0.637856       -17.3569
  39   2.0000      -0.610833       -16.6216
  40   2.0000      -0.590985       -16.0815
  41   2.0000      -0.565766       -15.3953
  42   2.0000      -0.558758       -15.2046
  43   2.0000      -0.554270       -15.0824
  44   2.0000      -0.523179       -14.2364
  45   2.0000      -0.520810       -14.1719
  46   2.0000      -0.512930       -13.9575
  47   2.0000      -0.512282       -13.9399
  48   2.0000      -0.505852       -13.7649
  49   2.0000      -0.494455       -13.4548
  50   2.0000      -0.491300       -13.3690
  51   2.0000      -0.476410       -12.9638
  52   2.0000      -0.467207       -12.7134
  53   2.0000      -0.463972       -12.6253
  54   2.0000      -0.457885       -12.4597
  55   2.0000      -0.452662       -12.3176
  56   2.0000      -0.446790       -12.1578
  57   2.0000      -0.438488       -11.9319
  58   2.0000      -0.433709       -11.8018
  59   2.0000      -0.429990       -11.7006
  60   2.0000      -0.418072       -11.3763
  61   2.0000      -0.412623       -11.2280
  62   2.0000      -0.409479       -11.1425
  63   2.0000      -0.337868        -9.1938
  64   2.0000      -0.333145        -9.0653
  65   2.0000      -0.328617        -8.9421
  66   2.0000      -0.298672        -8.1273
  67   0.0000       0.031549         0.8585
  68   0.0000       0.054078         1.4715
  69   0.0000       0.104819         2.8523
  70   0.0000       0.107417         2.9230
  71   0.0000       0.130020         3.5380

MULLIKEN ATOMIC CHARGES
-----------------------
   0 S :    0.111555
   1 C :   -0.140064
   2 C :   -0.064912
   3 C :    0.040795
   4 C :   -0.192984
   5 H :    0.035418
   6 C :    0.016393
   7 H :    0.033837
   8 H :    0.046361
   9 C :   -0.087863
  10 H :    0.024328
  11 H :    0.027335
  12 C :   -0.043342
  13 H :    0.021178
  14 H :    0.049296
  15 H :    0.034510
  16 S :    0.098908
  17 C :   -0.077930
  18 C :   -0.052194
  19 C :   -0.051929
  20 C :   -0.167360
  21 H :    0.034225
  22 C :    0.083210
  23 H :    0.019682
  24 H :    0.011683
  25 C :   -0.063246
  26 H :    0.008580
  27 H :    0.018937
  28 C :   -0.010865
  29 H :    0.038411
  30 H :    0.029995
  31 H :    0.037360
  32 H :    0.073589
  33 H :    0.057105
Sum of atomic charges:    0.0000000

LOEWDIN ATOMIC CHARGES
----------------------
   0 S :    0.385951
   1 C :   -0.196171
   2 C :   -0.068397
   3 C :   -0.063530
   4 C :   -0.180369
   5 H :    0.041293
   6 C :   -0.040822
   7 H :    0.033876
   8 H :    0.038878
   9 C :   -0.042756
  10 H :    0.016598
  11 H :    0.026620
  12 C :   -0.067055
  13 H :    0.016696
  14 H :    0.035609
  15 H :    0.030313
  16 S :    0.389520
  17 C :   -0.182042
  18 C :   -0.076915
  19 C :   -0.052257
  20 C :   -0.195472
  21 H :    0.037994
  22 C :   -0.024917
  23 H :    0.024410
  24 H :    0.020016
  25 C :   -0.036183
  26 H :    0.020585
  27 H :    0.020762
  28 C :   -0.063805
  29 H :    0.032695
  30 H :    0.022548
  31 H :    0.029585
  32 H :    0.036627
  33 H :    0.030113

  Mayer bond orders larger than 0.100000
B(  0-S ,  1-C ) :   1.1475 B(  0-S ,  4-C ) :   1.1411 B(  1-C ,  2-C ) :   1.6013
B(  1-C ,  4-C ) :   0.1048 B(  1-C , 32-H ) :   0.9604 B(  2-C ,  3-C ) :   1.2322
B(  2-C ,  6-C ) :   1.0233 B(  3-C ,  4-C ) :   1.5850 B(  3-C ,  5-H ) :   0.9821
B(  4-C , 20-C ) :   1.0275 B(  6-C ,  7-H ) :   0.9494 B(  6-C ,  8-H ) :   0.9393
B(  6-C ,  9-C ) :   1.0477 B(  9-C , 10-H ) :   0.9604 B(  9-C , 11-H ) :   0.9558
B(  9-C , 12-C ) :   1.0770 B( 12-C , 13-H ) :   0.9760 B( 12-C , 14-H ) :   0.9740
B( 12-C , 15-H ) :   0.9730 B( 16-S , 17-C ) :   1.1494 B( 16-S , 20-C ) :   1.1147
B( 17-C , 18-C ) :   1.6429 B( 17-C , 33-H ) :   0.9621 B( 18-C , 19-C ) :   1.2122
B( 18-C , 21-H ) :   0.9845 B( 19-C , 20-C ) :   1.6387 B( 19-C , 22-C ) :   1.0564
B( 22-C , 23-H ) :   0.9257 B( 22-C , 24-H ) :   0.9383 B( 22-C , 25-C ) :   1.0425
B( 25-C , 26-H ) :   0.9543 B( 25-C , 27-H ) :   0.9580 B( 25-C , 28-C ) :   1.0739
B( 28-C , 29-H ) :   0.9729 B( 28-C , 30-H ) :   0.9746 B( 28-C , 31-H ) :   0.9733

Dispersion correction           -0.014329243
FINAL SINGLE POINT ENERGY     -1339.880787933225

DIPOLE MOMENT
-------------
                                X             Y             Z
Electronic contribution:     13.39457      -2.97573      19.87543
Nuclear contribution   :    -13.64641       2.74344     -20.23911
                        -----------------------------------------
Total Dipole Moment    :     -0.25184      -0.23229      -0.36367
                        -----------------------------------------
Magnitude (a.u.)       :      0.49964
Magnitude (Debye)      :      1.26998

Rotational constants in cm-1:     0.019969     0.007425     0.006445
Rotational constants in MHz :   598.663428   222.582531   193.221204

                             ****ORCA TERMINATED NORMALLY****
TOTAL RUN TIME: 0 days 0 hours 0 minutes 21 seconds 217 msec
