                         Program Version 4.2.1 -  RELEASE  -
|  1> ! wB97X-D3 SP def2-SVP
|  2> %pal
|  3> nprocs 24
|  4> end
|  5>
|  6> * xyz 0 1
|  7> S 	 -36.089 	 -49.7859 	 -75.7598
|  8> C 	 -34.5133 	 -50.5226 	 -76.0624
|  9> C 	 -33.4818 	 -49.5345 	 -75.9717
| 10> C 	 -34.0133 	 -48.2813 	 -75.7096
| 11> C 	 -35.3605 	 -48.2184 	 -75.6025
| 12> H 	 -33.2107 	 -47.4779 	 -75.6455
| 13> C 	 -31.9451 	 -49.8789 	 -76.1123
| 14> H 	 -31.8481 	 -50.4775 	 -77.0433
| 15> H 	 -31.7752 	 -50.5314 	 -75.3409
| 16> C 	 -30.9036 	 -48.7314 	 -76.1801
| 17> H 	 -29.9176 	 -48.9222 	 -76.563
| 18> H 	 -31.3724 	 -47.9131 	 -76.767
| 19> C 	 -30.6236 	 -48.1213 	 -74.7627
| 20> H 	 -31.4824 	 -47.5105 	 -74.3718
| 21> H 	 -30.2444 	 -48.796 	 -74.0168
| 22> H 	 -29.794 	 -47.4296 	 -74.9593
| 23> S 	 -37.5941 	 -47.2229 	 -74.2823
| 24> C 	 -37.8207 	 -45.4612 	 -74.1379
| 25> C 	 -36.8333 	 -44.8007 	 -74.8201
| 26> C 	 -35.7959 	 -45.6744 	 -75.2695
| 27> C 	 -36.1105 	 -47.0061 	 -75.1788
| 28> H 	 -36.7959 	 -43.7303 	 -74.809
| 29> C 	 -34.6619 	 -45.1048 	 -76.1485
| 30> H 	 -33.6928 	 -45.2569 	 -75.7207
| 31> H 	 -34.7092 	 -43.9646 	 -76.1766
| 32> C 	 -34.5967 	 -45.5304 	 -77.6531
| 33> H 	 -35.4128 	 -45.1453 	 -78.2853
| 34> H 	 -34.4827 	 -46.6532 	 -77.755
| 35> C 	 -33.2516 	 -44.9232 	 -78.3388
| 36> H 	 -33.3184 	 -45.0875 	 -79.3731
| 37> H 	 -32.4129 	 -45.5147 	 -77.9933
| 38> H 	 -33.1968 	 -43.8562 	 -77.9959
| 39> H 	 -34.3103 	 -51.5628 	 -76.1735
| 40> H 	 -38.5839 	 -45.043 	 -73.4673
| 41> *
| 42>
| 43>                          ****END OF INPUT****

CARTESIAN COORDINATES (ANGSTROEM)
---------------------------------
  S    -36.089000  -49.785900  -75.759800
  C    -34.513300  -50.522600  -76.062400
  C    -33.481800  -49.534500  -75.971700
  C    -34.013300  -48.281300  -75.709600
  C    -35.360500  -48.218400  -75.602500
  H    -33.210700  -47.477900  -75.645500
  C    -31.945100  -49.878900  -76.112300
  H    -31.848100  -50.477500  -77.043300
  H    -31.775200  -50.531400  -75.340900
  C    -30.903600  -48.731400  -76.180100
  H    -29.917600  -48.922200  -76.563000
  H    -31.372400  -47.913100  -76.767000
  C    -30.623600  -48.121300  -74.762700
  H    -31.482400  -47.510500  -74.371800
  H    -30.244400  -48.796000  -74.016800
  H    -29.794000  -47.429600  -74.959300
  S    -37.594100  -47.222900  -74.282300
  C    -37.820700  -45.461200  -74.137900
  C    -36.833300  -44.800700  -74.820100
  C    -35.795900  -45.674400  -75.269500
  C    -36.110500  -47.006100  -75.178800
  H    -36.795900  -43.730300  -74.809000
  C    -34.661900  -45.104800  -76.148500
  H    -33.692800  -45.256900  -75.720700
  H    -34.709200  -43.964600  -76.176600
  C    -34.596700  -45.530400  -77.653100
  H    -35.412800  -45.145300  -78.285300
  H    -34.482700  -46.653200  -77.755000
  C    -33.251600  -44.923200  -78.338800
  H    -33.318400  -45.087500  -79.373100
  H    -32.412900  -45.514700  -77.993300
  H    -33.196800  -43.856200  -77.995900
  H    -34.310300  -51.562800  -76.173500
  H    -38.583900  -45.043000  -73.467300

 Total Charge           Charge          ....    0
 Multiplicity           Mult            ....    1
 Number of Electrons    NEL             ....  134
 Basis Dimension        Dim             ....  322

ORBITAL ENERGIES
----------------

  NO   OCC          E(Eh)            E(eV)
   0   2.0000     -88.974737     -2421.1257
   1   2.0000     -88.963521     -2420.8205
   2   2.0000     -10.331977      -281.1474
   3   2.0000     -10.329927      -281.0916
   4   2.0000     -10.320377      -280.8317
   5   2.0000     -10.317241      -280.7464
   6   2.0000     -10.306348      -280.4500
   7   2.0000     -10.302005      -280.3318
   8   2.0000     -10.298644      -280.2404
   9   2.0000     -10.298254      -280.2298
  10   2.0000     -10.296441      -280.1804
  11   2.0000     -10.294388      -280.1245
  12   2.0000     -10.292716      -280.0790
  13   2.0000     -10.292657      -280.0774
  14   2.0000     -10.283427      -279.8263
  15   2.0000     -10.279769      -279.7267
  16   2.0000      -8.088793      -220.1073
  17   2.0000      -8.078200      -219.8190
  18   2.0000      -6.047356      -164.5569
  19   2.0000      -6.043360      -164.4482
  20   2.0000      -6.039588      -164.3455
  21   2.0000      -6.036728      -164.2677
  22   2.0000      -6.032765      -164.1599
  23   2.0000      -6.028903      -164.0548
  24   2.0000      -1.009248       -27.4630
  25   2.0000      -0.985285       -26.8110
  26   2.0000      -0.908325       -24.7168
  27   2.0000      -0.894621       -24.3439
  28   2.0000      -0.867243       -23.5989
  29   2.0000      -0.850572       -23.1452
  30   2.0000      -0.841528       -22.8992
  31   2.0000      -0.816941       -22.2301
  32   2.0000      -0.782504       -21.2930
  33   2.0000      -0.768972       -20.9248
  34   2.0000      -0.708638       -19.2830
  35   2.0000      -0.698757       -19.0142
  36   2.0000      -0.685760       -18.6605
  37   2.0000      -0.664046       -18.0696
  38   2.0000      -0.637193       -17.3389
  39   2.0000      -0.628717       -17.1082
  40   2.0000      -0.596092       -16.2205
  41   2.0000      -0.567404       -15.4399
  42   2.0000      -0.558703       -15.2031
  43   2.0000      -0.546731       -14.8773
  44   2.0000      -0.542478       -14.7616
  45   2.0000      -0.524028       -14.2595
  46   2.0000      -0.520384       -14.1604
  47   2.0000      -0.513472       -13.9723
  48   2.0000      -0.500406       -13.6167
  49   2.0000      -0.497375       -13.5343
  50   2.0000      -0.487581       -13.2678
  51   2.0000      -0.485112       -13.2006
  52   2.0000      -0.470852       -12.8125
  53   2.0000      -0.463832       -12.6215
  54   2.0000      -0.457057       -12.4371
  55   2.0000      -0.448497       -12.2042
  56   2.0000      -0.443178       -12.0595
  57   2.0000      -0.439780       -11.9670
  58   2.0000      -0.432367       -11.7653
  59   2.0000      -0.425357       -11.5746
  60   2.0000      -0.416917       -11.3449
  61   2.0000      -0.415728       -11.3125
  62   2.0000      -0.406573       -11.0634
  63   2.0000      -0.356882        -9.7112
  64   2.0000      -0.339922        -9.2497
  65   2.0000      -0.330613        -8.9964
  66   2.0000      -0.283235        -7.7072
  67   0.0000       0.020308         0.5526
  68   0.0000       0.075892         2.0651
  69   0.0000       0.100194         2.7264
  70   0.0000       0.114872         3.1258
  71   0.0000       0.128610         3.4996

MULLIKEN ATOMIC CHARGES
-----------------------
   0 S :    0.125190
   1 C :   -0.127022
   2 C :   -0.123852
   3 C :   -0.024036
   4 C :   -0.081265
   5 H :    0.010014
   6 C :    0.110830
   7 H :    0.041637
   8 H :    0.019322
   9 C :   -0.094014
  10 H :    0.037303
  11 H :    0.043749
  12 C :   -0.091659
  13 H :    0.048869
  14 H :    0.037901
  15 H :    0.029566
  16 S :    0.081192
  17 C :   -0.107741
  18 C :   -0.008375
  19 C :   -0.021882
  20 C :   -0.114614
  21 H :    0.017670
  22 C :    0.010394
  23 H :    0.023292
  24 H :    0.022496
  25 C :   -0.117600
  26 H :    0.044421
  27 H :    0.059033
  28 C :   -0.060818
  29 H :    0.032770
  30 H :    0.026639
  31 H :    0.042404
  32 H :    0.036940
  33 H :    0.071246
Sum of atomic charges:   -0.0000000

LOEWDIN ATOMIC CHARGES
----------------------
   0 S :    0.420534
   1 C :   -0.199339
   2 C :   -0.051857
   3 C :   -0.082004
   4 C :   -0.194574
   5 H :    0.040851
   6 C :   -0.025974
   7 H :    0.038721
   8 H :    0.019256
   9 C :   -0.041740
  10 H :    0.028039
  11 H :    0.028225
  12 C :   -0.071669
  13 H :    0.027430
  14 H :    0.021815
  15 H :    0.026847
  16 S :    0.383741
  17 C :   -0.174591
  18 C :   -0.064305
  19 C :   -0.067540
  20 C :   -0.181202
  21 H :    0.030967
  22 C :   -0.039683
  23 H :    0.020802
  24 H :    0.034022
  25 C :   -0.041200
  26 H :    0.024683
  27 H :    0.029595
  28 C :   -0.062675
  29 H :    0.018859
  30 H :    0.018588
  31 H :    0.028671
  32 H :    0.021817
  33 H :    0.034890

  Mayer bond orders larger than 0.100000
B(  0-S ,  1-C ) :   1.1505 B(  0-S ,  4-C ) :   1.1626 B(  1-C ,  2-C ) :   1.5688
B(  1-C ,  4-C ) :   0.1097 B(  1-C , 32-H ) :   0.9758 B(  2-C ,  3-C ) :   1.3482
B(  2-C ,  6-C ) :   0.9739 B(  3-C ,  4-C ) :   1.5048 B(  3-C ,  5-H ) :   0.9650
B(  4-C , 20-C ) :   1.0514 B(  6-C ,  7-H ) :   0.9440 B(  6-C ,  8-H ) :   0.9423
B(  6-C ,  9-C ) :   1.0655 B(  9-C , 10-H ) :   0.9599 B(  9-C , 11-H ) :   0.9554
B(  9-C , 12-C ) :   1.0694 B( 12-C , 13-H ) :   0.9756 B( 12-C , 14-H ) :   0.9757
B( 12-C , 15-H ) :   0.9758 B( 16-S , 17-C ) :   1.1404 B( 16-S , 20-C ) :   1.1341
B( 17-C , 18-C ) :   1.6111 B( 17-C , 33-H ) :   0.9671 B( 18-C , 19-C ) :   1.2462
B( 18-C , 21-H ) :   0.9884 B( 19-C , 20-C ) :   1.6063 B( 19-C , 22-C ) :   1.0342
B( 22-C , 23-H ) :   0.9330 B( 22-C , 24-H ) :   0.9406 B( 22-C , 25-C ) :   1.0541
B( 25-C , 26-H ) :   0.9626 B( 25-C , 27-H ) :   0.9529 B( 25-C , 28-C ) :   1.0647
B( 28-C , 29-H ) :   0.9762 B( 28-C , 30-H ) :   0.9787 B( 28-C , 31-H ) :   0.9766

Dispersion correction           -0.015180621
FINAL SINGLE POINT ENERGY     -1339.861273451686

DIPOLE MOMENT
-------------
                                X             Y             Z
Electronic contribution:    -28.29539     -10.41774       9.73763
Nuclear contribution   :     29.00589      10.60968      -9.81129
                        -----------------------------------------
Total Dipole Moment    :      0.71050       0.19194      -0.07366
                        -----------------------------------------
Magnitude (a.u.)       :      0.73965
Magnitude (Debye)      :      1.88004

Rotational constants in cm-1:     0.017036     0.010341     0.007625
Rotational constants in MHz :   510.730496   310.020883   228.600520

                             ****ORCA TERMINATED NORMALLY****
TOTAL RUN TIME: 0 days 0 hours 0 minutes 21 seconds 820 msec
