                         Program Version 4.2.1 -  RELEASE  -
|  1> ! wB97X-D3 SP def2-SVP
|  2> %pal
|  3> nprocs 24
|  4> end
|  5>
|  6> * xyz 0 1
|  7> S 	 -42.5864 	 -50.7782 	 -72.4071
|  8> C 	 -42.7946 	 -52.1888 	 -73.4686
|  9> C 	 -42.9628 	 -53.3461 	 -72.7111
| 10> C 	 -43.1162 	 -53.0293 	 -71.3235
| 11> C 	 -42.9515 	 -51.7402 	 -70.943
| 12> H 	 -43.4733 	 -53.7597 	 -70.602
| 13> C 	 -43.2766 	 -54.7344 	 -73.1982
| 14> H 	 -43.8348 	 -55.1507 	 -72.3435
| 15> H 	 -42.4072 	 -55.3382 	 -73.2771
| 16> C 	 -44.1963 	 -55.0308 	 -74.4242
| 17> H 	 -43.7762 	 -54.4872 	 -75.2338
| 18> H 	 -44.0082 	 -56.0061 	 -74.7849
| 19> C 	 -45.7202 	 -54.8456 	 -74.1072
| 20> H 	 -46.2893 	 -55.2444 	 -74.9245
| 21> H 	 -46.0358 	 -55.3313 	 -73.219
| 22> H 	 -45.9643 	 -53.7875 	 -73.9469
| 23> S 	 -44.8643 	 -50.4565 	 -69.3176
| 24> C 	 -44.6166 	 -50.5024 	 -67.5998
| 25> C 	 -43.3509 	 -50.7866 	 -67.2941
| 26> C 	 -42.6003 	 -51.2717 	 -68.386
| 27> C 	 -43.2529 	 -51.1842 	 -69.6112
| 28> H 	 -43.0615 	 -50.8412 	 -66.2661
| 29> C 	 -41.1517 	 -51.7947 	 -68.2171
| 30> H 	 -40.8383 	 -52.5021 	 -69.0113
| 31> H 	 -41.1619 	 -52.3977 	 -67.3048
| 32> C 	 -40.0911 	 -50.7542 	 -68.1177
| 33> H 	 -40.1072 	 -50.2079 	 -67.2153
| 34> H 	 -40.2536 	 -50.0106 	 -68.9259
| 35> C 	 -38.6327 	 -51.2614 	 -68.2906
| 36> H 	 -38.538 	 -51.7402 	 -69.2876
| 37> H 	 -38.4432 	 -52.0365 	 -67.5586
| 38> H 	 -37.8428 	 -50.471 	 -68.3049
| 39> H 	 -42.7392 	 -52.0884 	 -74.5374
| 40> H 	 -45.4576 	 -50.2904 	 -66.8855
| 41> *
| 42>
| 43>                          ****END OF INPUT****

CARTESIAN COORDINATES (ANGSTROEM)
---------------------------------
  S    -42.586400  -50.778200  -72.407100
  C    -42.794600  -52.188800  -73.468600
  C    -42.962800  -53.346100  -72.711100
  C    -43.116200  -53.029300  -71.323500
  C    -42.951500  -51.740200  -70.943000
  H    -43.473300  -53.759700  -70.602000
  C    -43.276600  -54.734400  -73.198200
  H    -43.834800  -55.150700  -72.343500
  H    -42.407200  -55.338200  -73.277100
  C    -44.196300  -55.030800  -74.424200
  H    -43.776200  -54.487200  -75.233800
  H    -44.008200  -56.006100  -74.784900
  C    -45.720200  -54.845600  -74.107200
  H    -46.289300  -55.244400  -74.924500
  H    -46.035800  -55.331300  -73.219000
  H    -45.964300  -53.787500  -73.946900
  S    -44.864300  -50.456500  -69.317600
  C    -44.616600  -50.502400  -67.599800
  C    -43.350900  -50.786600  -67.294100
  C    -42.600300  -51.271700  -68.386000
  C    -43.252900  -51.184200  -69.611200
  H    -43.061500  -50.841200  -66.266100
  C    -41.151700  -51.794700  -68.217100
  H    -40.838300  -52.502100  -69.011300
  H    -41.161900  -52.397700  -67.304800
  C    -40.091100  -50.754200  -68.117700
  H    -40.107200  -50.207900  -67.215300
  H    -40.253600  -50.010600  -68.925900
  C    -38.632700  -51.261400  -68.290600
  H    -38.538000  -51.740200  -69.287600
  H    -38.443200  -52.036500  -67.558600
  H    -37.842800  -50.471000  -68.304900
  H    -42.739200  -52.088400  -74.537400
  H    -45.457600  -50.290400  -66.885500

 Total Charge           Charge          ....    0
 Multiplicity           Mult            ....    1
 Number of Electrons    NEL             ....  134
 Basis Dimension        Dim             ....  322

ORBITAL ENERGIES
----------------

  NO   OCC          E(Eh)            E(eV)
   0   2.0000     -88.962591     -2420.7952
   1   2.0000     -88.960907     -2420.7494
   2   2.0000     -10.330220      -281.0996
   3   2.0000     -10.329911      -281.0912
   4   2.0000     -10.319403      -280.8052
   5   2.0000     -10.319101      -280.7970
   6   2.0000     -10.306976      -280.4671
   7   2.0000     -10.303141      -280.3627
   8   2.0000     -10.291691      -280.0512
   9   2.0000     -10.291193      -280.0376
  10   2.0000     -10.288973      -279.9772
  11   2.0000     -10.287790      -279.9450
  12   2.0000     -10.285729      -279.8889
  13   2.0000     -10.279957      -279.7318
  14   2.0000     -10.278719      -279.6982
  15   2.0000     -10.276306      -279.6325
  16   2.0000      -8.076476      -219.7721
  17   2.0000      -8.075854      -219.7552
  18   2.0000      -6.035136      -164.2244
  19   2.0000      -6.034327      -164.2024
  20   2.0000      -6.031085      -164.1142
  21   2.0000      -6.030392      -164.0953
  22   2.0000      -6.027144      -164.0069
  23   2.0000      -6.026551      -163.9908
  24   2.0000      -1.003998       -27.3202
  25   2.0000      -0.983809       -26.7708
  26   2.0000      -0.908434       -24.7198
  27   2.0000      -0.906876       -24.6774
  28   2.0000      -0.868426       -23.6311
  29   2.0000      -0.846688       -23.0396
  30   2.0000      -0.844935       -22.9918
  31   2.0000      -0.815202       -22.1828
  32   2.0000      -0.781930       -21.2774
  33   2.0000      -0.771741       -21.0001
  34   2.0000      -0.717108       -19.5135
  35   2.0000      -0.701303       -19.0834
  36   2.0000      -0.691071       -18.8050
  37   2.0000      -0.656987       -17.8775
  38   2.0000      -0.643399       -17.5078
  39   2.0000      -0.614206       -16.7134
  40   2.0000      -0.599265       -16.3068
  41   2.0000      -0.571499       -15.5513
  42   2.0000      -0.563673       -15.3383
  43   2.0000      -0.555131       -15.1059
  44   2.0000      -0.537931       -14.6379
  45   2.0000      -0.522425       -14.2159
  46   2.0000      -0.512239       -13.9387
  47   2.0000      -0.509418       -13.8620
  48   2.0000      -0.507720       -13.8158
  49   2.0000      -0.496661       -13.5148
  50   2.0000      -0.490286       -13.3414
  51   2.0000      -0.476597       -12.9689
  52   2.0000      -0.474910       -12.9230
  53   2.0000      -0.465129       -12.6568
  54   2.0000      -0.457610       -12.4522
  55   2.0000      -0.449319       -12.2266
  56   2.0000      -0.441501       -12.0139
  57   2.0000      -0.435570       -11.8525
  58   2.0000      -0.430756       -11.7215
  59   2.0000      -0.427598       -11.6355
  60   2.0000      -0.420496       -11.4423
  61   2.0000      -0.408643       -11.1197
  62   2.0000      -0.407758       -11.0957
  63   2.0000      -0.340515        -9.2659
  64   2.0000      -0.328865        -8.9489
  65   2.0000      -0.324667        -8.8346
  66   2.0000      -0.307887        -8.3780
  67   0.0000       0.040575         1.1041
  68   0.0000       0.052731         1.4349
  69   0.0000       0.118249         3.2177
  70   0.0000       0.122361         3.3296
  71   0.0000       0.130176         3.5423

MULLIKEN ATOMIC CHARGES
-----------------------
   0 S :    0.087143
   1 C :   -0.137580
   2 C :   -0.050008
   3 C :    0.029542
   4 C :   -0.155605
   5 H :    0.018858
   6 C :    0.036902
   7 H :    0.013352
   8 H :    0.032389
   9 C :   -0.028253
  10 H :    0.010767
  11 H :    0.007493
  12 C :   -0.035499
  13 H :    0.034038
  14 H :    0.022991
  15 H :    0.043629
  16 S :    0.095506
  17 C :   -0.118100
  18 C :    0.002131
  19 C :   -0.037282
  20 C :   -0.159872
  21 H :    0.011913
  22 C :    0.073987
  23 H :    0.027658
  24 H :    0.015738
  25 C :   -0.056622
  26 H :    0.016874
  27 H :    0.030905
  28 C :   -0.070964
  29 H :    0.030876
  30 H :    0.028549
  31 H :    0.045421
  32 H :    0.052899
  33 H :    0.080226
Sum of atomic charges:    0.0000000

LOEWDIN ATOMIC CHARGES
----------------------
   0 S :    0.371110
   1 C :   -0.176220
   2 C :   -0.067779
   3 C :   -0.055994
   4 C :   -0.190588
   5 H :    0.033593
   6 C :   -0.033747
   7 H :    0.031129
   8 H :    0.029309
   9 C :   -0.033325
  10 H :    0.017754
  11 H :    0.020605
  12 C :   -0.057527
  13 H :    0.025199
  14 H :    0.020603
  15 H :    0.031419
  16 S :    0.388156
  17 C :   -0.178762
  18 C :   -0.080913
  19 C :   -0.044004
  20 C :   -0.190126
  21 H :    0.031352
  22 C :   -0.031751
  23 H :    0.034259
  24 H :    0.027538
  25 C :   -0.043327
  26 H :    0.015313
  27 H :    0.028698
  28 C :   -0.068083
  29 H :    0.026132
  30 H :    0.020201
  31 H :    0.031987
  32 H :    0.025103
  33 H :    0.042689

  Mayer bond orders larger than 0.100000
B(  0-S ,  1-C ) :   1.1423 B(  0-S ,  4-C ) :   1.1199 B(  1-C ,  2-C ) :   1.5975
B(  1-C , 32-H ) :   0.9748 B(  2-C ,  3-C ) :   1.2367 B(  2-C ,  6-C ) :   1.0113
B(  3-C ,  4-C ) :   1.6279 B(  3-C ,  5-H ) :   0.9848 B(  4-C , 20-C ) :   1.0170
B(  6-C ,  7-H ) :   0.9505 B(  6-C ,  8-H ) :   0.9283 B(  6-C ,  9-C ) :   1.0824
B(  9-C , 10-H ) :   0.9529 B(  9-C , 11-H ) :   0.9492 B(  9-C , 12-C ) :   1.0671
B( 12-C , 13-H ) :   0.9772 B( 12-C , 14-H ) :   0.9753 B( 12-C , 15-H ) :   0.9802
B( 16-S , 17-C ) :   1.1680 B( 16-S , 20-C ) :   1.1207 B( 17-C , 18-C ) :   1.6147
B( 17-C , 33-H ) :   0.9582 B( 18-C , 19-C ) :   1.2334 B( 18-C , 21-H ) :   0.9941
B( 19-C , 20-C ) :   1.6241 B( 19-C , 22-C ) :   1.0395 B( 22-C , 23-H ) :   0.9386
B( 22-C , 24-H ) :   0.9258 B( 22-C , 25-C ) :   1.0705 B( 25-C , 26-H ) :   0.9525
B( 25-C , 27-H ) :   0.9543 B( 25-C , 28-C ) :   1.0827 B( 28-C , 29-H ) :   0.9747
B( 28-C , 30-H ) :   0.9758 B( 28-C , 31-H ) :   0.9750

Dispersion correction           -0.013862291
FINAL SINGLE POINT ENERGY     -1339.875280637639

DIPOLE MOMENT
-------------
                                X             Y             Z
Electronic contribution:     -9.00658      15.47076       2.07118
Nuclear contribution   :      9.01758     -16.08770      -1.88810
                        -----------------------------------------
Total Dipole Moment    :      0.01100      -0.61694       0.18308
                        -----------------------------------------
Magnitude (a.u.)       :      0.64363
Magnitude (Debye)      :      1.63597

Rotational constants in cm-1:     0.019360     0.007761     0.006563
Rotational constants in MHz :   580.401397   232.665951   196.741756

                             ****ORCA TERMINATED NORMALLY****
TOTAL RUN TIME: 0 days 0 hours 0 minutes 20 seconds 949 msec
