                         Program Version 4.2.1 -  RELEASE  -
|  1> ! wB97X-D3 SP def2-SVP
|  2> %pal
|  3> nprocs 24
|  4> end
|  5>
|  6> * xyz 0 1
|  7> S 	 -61.9727 	 7.56168 	 -76.1667
|  8> C 	 -62.5851 	 8.8797 	 -75.2052
|  9> C 	 -63.5505 	 9.67616 	 -75.9036
| 10> C 	 -63.8866 	 9.03837 	 -77.1677
| 11> C 	 -63.2023 	 7.82777 	 -77.3796
| 12> H 	 -64.5167 	 9.43567 	 -77.9929
| 13> C 	 -64.2013 	 10.9097 	 -75.4162
| 14> H 	 -63.8136 	 10.9704 	 -74.3521
| 15> H 	 -65.3042 	 10.7168 	 -75.346
| 16> C 	 -63.7863 	 12.2502 	 -76.0396
| 17> H 	 -64.4134 	 13.0313 	 -75.588
| 18> H 	 -62.7191 	 12.3823 	 -75.8128
| 19> C 	 -63.9792 	 12.3073 	 -77.5228
| 20> H 	 -63.6805 	 13.3278 	 -77.898
| 21> H 	 -63.4505 	 11.6124 	 -78.1972
| 22> H 	 -65.0047 	 12.2683 	 -77.8334
| 23> S 	 -61.9681 	 6.08872 	 -79.0273
| 24> C 	 -62.8537 	 5.04699 	 -80.152
| 25> C 	 -64.1628 	 5.41335 	 -80.1423
| 26> C 	 -64.4997 	 6.36137 	 -79.1635
| 27> C 	 -63.4221 	 6.89439 	 -78.5072
| 28> H 	 -64.8258 	 5.00094 	 -80.8485
| 29> C 	 -66.0041 	 6.72336 	 -78.9794
| 30> H 	 -66.4843 	 6.42777 	 -79.9994
| 31> H 	 -66.0833 	 7.83834 	 -78.952
| 32> C 	 -66.54 	 6.06235 	 -77.7183
| 33> H 	 -67.616 	 6.29421 	 -77.5621
| 34> H 	 -65.9362 	 6.38817 	 -76.8892
| 35> C 	 -66.5114 	 4.50012 	 -77.8673
| 36> H 	 -65.4357 	 4.20541 	 -77.9658
| 37> H 	 -67.1259 	 4.23437 	 -78.7082
| 38> H 	 -66.84 	 4.01742 	 -76.9532
| 39> H 	 -62.1724 	 9.10581 	 -74.2549
| 40> H 	 -62.4436 	 4.44405 	 -80.9403
| 41> *
| 42>
| 43>                          ****END OF INPUT****

CARTESIAN COORDINATES (ANGSTROEM)
---------------------------------
  S    -61.972700    7.561680  -76.166700
  C    -62.585100    8.879700  -75.205200
  C    -63.550500    9.676160  -75.903600
  C    -63.886600    9.038370  -77.167700
  C    -63.202300    7.827770  -77.379600
  H    -64.516700    9.435670  -77.992900
  C    -64.201300   10.909700  -75.416200
  H    -63.813600   10.970400  -74.352100
  H    -65.304200   10.716800  -75.346000
  C    -63.786300   12.250200  -76.039600
  H    -64.413400   13.031300  -75.588000
  H    -62.719100   12.382300  -75.812800
  C    -63.979200   12.307300  -77.522800
  H    -63.680500   13.327800  -77.898000
  H    -63.450500   11.612400  -78.197200
  H    -65.004700   12.268300  -77.833400
  S    -61.968100    6.088720  -79.027300
  C    -62.853700    5.046990  -80.152000
  C    -64.162800    5.413350  -80.142300
  C    -64.499700    6.361370  -79.163500
  C    -63.422100    6.894390  -78.507200
  H    -64.825800    5.000940  -80.848500
  C    -66.004100    6.723360  -78.979400
  H    -66.484300    6.427770  -79.999400
  H    -66.083300    7.838340  -78.952000
  C    -66.540000    6.062350  -77.718300
  H    -67.616000    6.294210  -77.562100
  H    -65.936200    6.388170  -76.889200
  C    -66.511400    4.500120  -77.867300
  H    -65.435700    4.205410  -77.965800
  H    -67.125900    4.234370  -78.708200
  H    -66.840000    4.017420  -76.953200
  H    -62.172400    9.105810  -74.254900
  H    -62.443600    4.444050  -80.940300

 Total Charge           Charge          ....    0
 Multiplicity           Mult            ....    1
 Number of Electrons    NEL             ....  134
 Basis Dimension        Dim             ....  322

ORBITAL ENERGIES
----------------

  NO   OCC          E(Eh)            E(eV)
   0   2.0000     -88.970987     -2421.0236
   1   2.0000     -88.961847     -2420.7749
   2   2.0000     -10.334700      -281.2215
   3   2.0000     -10.328134      -281.0428
   4   2.0000     -10.318310      -280.7755
   5   2.0000     -10.314179      -280.6631
   6   2.0000     -10.309772      -280.5432
   7   2.0000     -10.301957      -280.3305
   8   2.0000     -10.300760      -280.2979
   9   2.0000     -10.299515      -280.2641
  10   2.0000     -10.296847      -280.1914
  11   2.0000     -10.292392      -280.0702
  12   2.0000     -10.286257      -279.9033
  13   2.0000     -10.285073      -279.8711
  14   2.0000     -10.277184      -279.6564
  15   2.0000     -10.273198      -279.5479
  16   2.0000      -8.085576      -220.0197
  17   2.0000      -8.076823      -219.7815
  18   2.0000      -6.044081      -164.4678
  19   2.0000      -6.040113      -164.3598
  20   2.0000      -6.036332      -164.2569
  21   2.0000      -6.035452      -164.2330
  22   2.0000      -6.031197      -164.1172
  23   2.0000      -6.027546      -164.0179
  24   2.0000      -1.008037       -27.4301
  25   2.0000      -0.983338       -26.7580
  26   2.0000      -0.917033       -24.9537
  27   2.0000      -0.903840       -24.5947
  28   2.0000      -0.870476       -23.6869
  29   2.0000      -0.849204       -23.1080
  30   2.0000      -0.839813       -22.8525
  31   2.0000      -0.816268       -22.2118
  32   2.0000      -0.779729       -21.2175
  33   2.0000      -0.769523       -20.9398
  34   2.0000      -0.704636       -19.1741
  35   2.0000      -0.703532       -19.1441
  36   2.0000      -0.684161       -18.6170
  37   2.0000      -0.666068       -18.1246
  38   2.0000      -0.640036       -17.4163
  39   2.0000      -0.612866       -16.6769
  40   2.0000      -0.587700       -15.9921
  41   2.0000      -0.578372       -15.7383
  42   2.0000      -0.554679       -15.0936
  43   2.0000      -0.552597       -15.0369
  44   2.0000      -0.540489       -14.7074
  45   2.0000      -0.535909       -14.5828
  46   2.0000      -0.520371       -14.1600
  47   2.0000      -0.509800       -13.8724
  48   2.0000      -0.502281       -13.6678
  49   2.0000      -0.498795       -13.5729
  50   2.0000      -0.482720       -13.1355
  51   2.0000      -0.479311       -13.0427
  52   2.0000      -0.468753       -12.7554
  53   2.0000      -0.465875       -12.6771
  54   2.0000      -0.460038       -12.5183
  55   2.0000      -0.446672       -12.1546
  56   2.0000      -0.441043       -12.0014
  57   2.0000      -0.436633       -11.8814
  58   2.0000      -0.429780       -11.6949
  59   2.0000      -0.427326       -11.6281
  60   2.0000      -0.417400       -11.3580
  61   2.0000      -0.412544       -11.2259
  62   2.0000      -0.403110       -10.9692
  63   2.0000      -0.354000        -9.6328
  64   2.0000      -0.333649        -9.0790
  65   2.0000      -0.327708        -8.9174
  66   2.0000      -0.286639        -7.7998
  67   0.0000       0.023591         0.6420
  68   0.0000       0.070017         1.9053
  69   0.0000       0.097614         2.6562
  70   0.0000       0.116338         3.1657
  71   0.0000       0.135784         3.6949

MULLIKEN ATOMIC CHARGES
-----------------------
   0 S :    0.125370
   1 C :   -0.107524
   2 C :   -0.096375
   3 C :   -0.005528
   4 C :   -0.130695
   5 H :    0.036655
   6 C :    0.015615
   7 H :    0.022746
   8 H :    0.052102
   9 C :   -0.017445
  10 H :    0.039182
  11 H :    0.034492
  12 C :   -0.083258
  13 H :    0.027918
  14 H :    0.048941
  15 H :    0.017876
  16 S :    0.071653
  17 C :   -0.073769
  18 C :   -0.029388
  19 C :   -0.076099
  20 C :   -0.137312
  21 H :    0.003555
  22 C :    0.027208
  23 H :    0.035089
  24 H :    0.033483
  25 C :   -0.052292
  26 H :    0.034488
  27 H :    0.043174
  28 C :   -0.068978
  29 H :    0.054317
  30 H :    0.030322
  31 H :    0.032748
  32 H :    0.037708
  33 H :    0.054021
Sum of atomic charges:   -0.0000000

LOEWDIN ATOMIC CHARGES
----------------------
   0 S :    0.414699
   1 C :   -0.198304
   2 C :   -0.058657
   3 C :   -0.069786
   4 C :   -0.199371
   5 H :    0.037721
   6 C :   -0.048028
   7 H :    0.038199
   8 H :    0.038127
   9 C :   -0.035563
  10 H :    0.033071
  11 H :    0.030998
  12 C :   -0.078953
  13 H :    0.031698
  14 H :    0.028456
  15 H :    0.018982
  16 S :    0.391790
  17 C :   -0.177459
  18 C :   -0.066753
  19 C :   -0.067950
  20 C :   -0.191380
  21 H :    0.024916
  22 C :   -0.034804
  23 H :    0.035564
  24 H :    0.028022
  25 C :   -0.037746
  26 H :    0.025218
  27 H :    0.026551
  28 C :   -0.064649
  29 H :    0.032835
  30 H :    0.020350
  31 H :    0.023345
  32 H :    0.018477
  33 H :    0.030386

  Mayer bond orders larger than 0.100000
B(  0-S ,  1-C ) :   1.1466 B(  0-S ,  4-C ) :   1.1559 B(  1-C ,  2-C ) :   1.5832
B(  1-C ,  4-C ) :   0.1005 B(  1-C , 32-H ) :   0.9711 B(  2-C ,  3-C ) :   1.2332
B(  2-C ,  6-C ) :   1.0332 B(  3-C ,  4-C ) :   1.5599 B(  3-C ,  5-H ) :   0.9833
B(  4-C , 20-C ) :   1.0395 B(  6-C ,  7-H ) :   0.9343 B(  6-C ,  8-H ) :   0.9408
B(  6-C ,  9-C ) :   1.0732 B(  9-C , 10-H ) :   0.9496 B(  9-C , 11-H ) :   0.9495
B(  9-C , 12-C ) :   1.0966 B( 12-C , 13-H ) :   0.9679 B( 12-C , 14-H ) :   0.9679
B( 12-C , 15-H ) :   0.9718 B( 16-S , 17-C ) :   1.1417 B( 16-S , 20-C ) :   1.1371
B( 17-C , 18-C ) :   1.6197 B( 17-C , 33-H ) :   0.9650 B( 18-C , 19-C ) :   1.2509
B( 18-C , 21-H ) :   0.9923 B( 19-C , 20-C ) :   1.6153 B( 19-C , 22-C ) :   1.0027
B( 22-C , 23-H ) :   0.9453 B( 22-C , 24-H ) :   0.9444 B( 22-C , 25-C ) :   1.0575
B( 25-C , 26-H ) :   0.9585 B( 25-C , 27-H ) :   0.9567 B( 25-C , 28-C ) :   1.0718
B( 28-C , 29-H ) :   0.9734 B( 28-C , 30-H ) :   0.9775 B( 28-C , 31-H ) :   0.9746

Dispersion correction           -0.015038665
FINAL SINGLE POINT ENERGY     -1339.877536128405

DIPOLE MOMENT
-------------
                                X             Y             Z
Electronic contribution:     19.60424     -11.53911      -1.27784
Nuclear contribution   :    -20.10262      11.92192       1.21869
                        -----------------------------------------
Total Dipole Moment    :     -0.49837       0.38281      -0.05915
                        -----------------------------------------
Magnitude (a.u.)       :      0.63121
Magnitude (Debye)      :      1.60440

Rotational constants in cm-1:     0.020498     0.008570     0.007521
Rotational constants in MHz :   614.516908   256.930027   225.488017

                             ****ORCA TERMINATED NORMALLY****
TOTAL RUN TIME: 0 days 0 hours 0 minutes 22 seconds 253 msec
