                         Program Version 4.2.1 -  RELEASE  -
|  1> ! wB97X-D3 SP def2-SVP
|  2> %pal
|  3> nprocs 24
|  4> end
|  5>
|  6> * xyz 0 1
|  7> S 	 -126.389 	 25.222 	 -111.737
|  8> C 	 -125.095 	 25.2149 	 -112.925
|  9> C 	 -124.347 	 26.3752 	 -113.015
| 10> C 	 -124.852 	 27.3347 	 -112.04
| 11> C 	 -125.91 	 26.9191 	 -111.267
| 12> H 	 -124.398 	 28.3451 	 -111.963
| 13> C 	 -123.227 	 26.6652 	 -114.04
| 14> H 	 -122.923 	 27.7028 	 -114.073
| 15> H 	 -123.589 	 26.4692 	 -115.049
| 16> C 	 -121.846 	 25.9578 	 -113.872
| 17> H 	 -121.797 	 25.7985 	 -112.825
| 18> H 	 -121.945 	 25.0749 	 -114.365
| 19> C 	 -120.584 	 26.837 	 -114.397
| 20> H 	 -119.619 	 26.4645 	 -114.097
| 21> H 	 -120.464 	 26.8576 	 -115.451
| 22> H 	 -120.706 	 27.863 	 -114.018
| 23> S 	 -128.205 	 28.2351 	 -110.784
| 24> C 	 -128.444 	 29.2016 	 -109.35
| 25> C 	 -127.274 	 29.1667 	 -108.569
| 26> C 	 -126.26 	 28.2379 	 -109.098
| 27> C 	 -126.649 	 27.7006 	 -110.328
| 28> H 	 -127.184 	 29.767 	 -107.684
| 29> C 	 -124.929 	 28.0985 	 -108.36
| 30> H 	 -124.753 	 28.9884 	 -107.822
| 31> H 	 -124.17 	 28.1818 	 -109.147
| 32> C 	 -124.85 	 26.7951 	 -107.601
| 33> H 	 -125.349 	 26.0621 	 -108.232
| 34> H 	 -125.385 	 27.0876 	 -106.673
| 35> C 	 -123.444 	 26.3429 	 -107.273
| 36> H 	 -122.965 	 26.0153 	 -108.174
| 37> H 	 -123.509 	 25.5526 	 -106.525
| 38> H 	 -122.83 	 27.149 	 -106.865
| 39> H 	 -125.023 	 24.4851 	 -113.645
| 40> H 	 -129.215 	 29.9226 	 -109.222
| 41> *
| 42>
| 43>                          ****END OF INPUT****

CARTESIAN COORDINATES (ANGSTROEM)
---------------------------------
  S    -126.389000   25.222000  -111.737000
  C    -125.095000   25.214900  -112.925000
  C    -124.347000   26.375200  -113.015000
  C    -124.852000   27.334700  -112.040000
  C    -125.910000   26.919100  -111.267000
  H    -124.398000   28.345100  -111.963000
  C    -123.227000   26.665200  -114.040000
  H    -122.923000   27.702800  -114.073000
  H    -123.589000   26.469200  -115.049000
  C    -121.846000   25.957800  -113.872000
  H    -121.797000   25.798500  -112.825000
  H    -121.945000   25.074900  -114.365000
  C    -120.584000   26.837000  -114.397000
  H    -119.619000   26.464500  -114.097000
  H    -120.464000   26.857600  -115.451000
  H    -120.706000   27.863000  -114.018000
  S    -128.205000   28.235100  -110.784000
  C    -128.444000   29.201600  -109.350000
  C    -127.274000   29.166700  -108.569000
  C    -126.260000   28.237900  -109.098000
  C    -126.649000   27.700600  -110.328000
  H    -127.184000   29.767000  -107.684000
  C    -124.929000   28.098500  -108.360000
  H    -124.753000   28.988400  -107.822000
  H    -124.170000   28.181800  -109.147000
  C    -124.850000   26.795100  -107.601000
  H    -125.349000   26.062100  -108.232000
  H    -125.385000   27.087600  -106.673000
  C    -123.444000   26.342900  -107.273000
  H    -122.965000   26.015300  -108.174000
  H    -123.509000   25.552600  -106.525000
  H    -122.830000   27.149000  -106.865000
  H    -125.023000   24.485100  -113.645000
  H    -129.215000   29.922600  -109.222000

 Total Charge           Charge          ....    0
 Multiplicity           Mult            ....    1
 Number of Electrons    NEL             ....  134
 Basis Dimension        Dim             ....  322

ORBITAL ENERGIES
----------------

  NO   OCC          E(Eh)            E(eV)
   0   2.0000     -88.968362     -2420.9522
   1   2.0000     -88.964038     -2420.8346
   2   2.0000     -10.332483      -281.1612
   3   2.0000     -10.321851      -280.8719
   4   2.0000     -10.317032      -280.7407
   5   2.0000     -10.312514      -280.6178
   6   2.0000     -10.308103      -280.4977
   7   2.0000     -10.306056      -280.4420
   8   2.0000     -10.302573      -280.3473
   9   2.0000     -10.297407      -280.2067
  10   2.0000     -10.295394      -280.1519
  11   2.0000     -10.285124      -279.8724
  12   2.0000     -10.284230      -279.8481
  13   2.0000     -10.282904      -279.8120
  14   2.0000     -10.280470      -279.7458
  15   2.0000     -10.271542      -279.5029
  16   2.0000      -8.081924      -219.9203
  17   2.0000      -8.079563      -219.8561
  18   2.0000      -6.040482      -164.3699
  19   2.0000      -6.038040      -164.3034
  20   2.0000      -6.036704      -164.2671
  21   2.0000      -6.033724      -164.1860
  22   2.0000      -6.032592      -164.1552
  23   2.0000      -6.030527      -164.0990
  24   2.0000      -1.004077       -27.3223
  25   2.0000      -0.977279       -26.5931
  26   2.0000      -0.912511       -24.8307
  27   2.0000      -0.903931       -24.5972
  28   2.0000      -0.870543       -23.6887
  29   2.0000      -0.847938       -23.0736
  30   2.0000      -0.842336       -22.9211
  31   2.0000      -0.812893       -22.1199
  32   2.0000      -0.783680       -21.3250
  33   2.0000      -0.772904       -21.0318
  34   2.0000      -0.711506       -19.3610
  35   2.0000      -0.705914       -19.2089
  36   2.0000      -0.690850       -18.7990
  37   2.0000      -0.665482       -18.1087
  38   2.0000      -0.644008       -17.5243
  39   2.0000      -0.616830       -16.7848
  40   2.0000      -0.590335       -16.0638
  41   2.0000      -0.572776       -15.5860
  42   2.0000      -0.571704       -15.5569
  43   2.0000      -0.564316       -15.3558
  44   2.0000      -0.526748       -14.3336
  45   2.0000      -0.523723       -14.2512
  46   2.0000      -0.516135       -14.0448
  47   2.0000      -0.504441       -13.7265
  48   2.0000      -0.500073       -13.6077
  49   2.0000      -0.498291       -13.5592
  50   2.0000      -0.495652       -13.4874
  51   2.0000      -0.484990       -13.1972
  52   2.0000      -0.471934       -12.8420
  53   2.0000      -0.465928       -12.6786
  54   2.0000      -0.459339       -12.4992
  55   2.0000      -0.447141       -12.1673
  56   2.0000      -0.439952       -11.9717
  57   2.0000      -0.433515       -11.7965
  58   2.0000      -0.432174       -11.7600
  59   2.0000      -0.429157       -11.6780
  60   2.0000      -0.421621       -11.4729
  61   2.0000      -0.417656       -11.3650
  62   2.0000      -0.412341       -11.2204
  63   2.0000      -0.341842        -9.3020
  64   2.0000      -0.328080        -8.9275
  65   2.0000      -0.324716        -8.8360
  66   2.0000      -0.302767        -8.2387
  67   0.0000       0.035016         0.9528
  68   0.0000       0.056722         1.5435
  69   0.0000       0.108133         2.9424
  70   0.0000       0.122304         3.3281
  71   0.0000       0.124090         3.3766

MULLIKEN ATOMIC CHARGES
-----------------------
   0 S :    0.105596
   1 C :   -0.077209
   2 C :   -0.093678
   3 C :    0.045214
   4 C :   -0.178335
   5 H :    0.029945
   6 C :    0.048499
   7 H :    0.005860
   8 H :    0.034127
   9 C :   -0.025949
  10 H :    0.029946
  11 H :    0.013407
  12 C :   -0.067599
  13 H :    0.032177
  14 H :    0.029790
  15 H :    0.037773
  16 S :    0.120896
  17 C :   -0.086171
  18 C :   -0.043299
  19 C :   -0.066111
  20 C :   -0.170212
  21 H :    0.017732
  22 C :    0.105186
  23 H :    0.003043
  24 H :    0.004428
  25 C :   -0.068541
  26 H :    0.041733
  27 H :    0.030445
  28 C :   -0.019212
  29 H :    0.032082
  30 H :    0.035578
  31 H :    0.023241
  32 H :    0.015401
  33 H :    0.054218
Sum of atomic charges:    0.0000000

LOEWDIN ATOMIC CHARGES
----------------------
   0 S :    0.370953
   1 C :   -0.171638
   2 C :   -0.062833
   3 C :   -0.050104
   4 C :   -0.183845
   5 H :    0.038173
   6 C :   -0.032104
   7 H :    0.025612
   8 H :    0.031102
   9 C :   -0.020897
  10 H :    0.022021
  11 H :    0.008426
  12 C :   -0.063608
  13 H :    0.026374
  14 H :    0.020996
  15 H :    0.027182
  16 S :    0.435336
  17 C :   -0.190427
  18 C :   -0.067646
  19 C :   -0.044364
  20 C :   -0.227850
  21 H :    0.026707
  22 C :   -0.031872
  23 H :    0.020567
  24 H :    0.025470
  25 C :   -0.039004
  26 H :    0.028888
  27 H :    0.030093
  28 C :   -0.061086
  29 H :    0.024055
  30 H :    0.027747
  31 H :    0.023895
  32 H :    0.008599
  33 H :    0.025082

  Mayer bond orders larger than 0.100000
B(  0-S ,  1-C ) :   1.1393 B(  0-S ,  4-C ) :   1.1034 B(  1-C ,  2-C ) :   1.6387
B(  1-C , 32-H ) :   0.9709 B(  2-C ,  3-C ) :   1.2270 B(  2-C ,  6-C ) :   1.0237
B(  3-C ,  4-C ) :   1.6247 B(  3-C ,  5-H ) :   0.9807 B(  4-C , 20-C ) :   1.0446
B(  6-C ,  7-H ) :   0.9475 B(  6-C ,  8-H ) :   0.9440 B(  6-C ,  9-C ) :   1.0427
B(  9-C , 10-H ) :   0.9639 B(  9-C , 11-H ) :   0.9607 B(  9-C , 12-C ) :   1.0723
B( 12-C , 13-H ) :   0.9781 B( 12-C , 14-H ) :   0.9799 B( 12-C , 15-H ) :   0.9764
B( 16-S , 17-C ) :   1.1654 B( 16-S , 20-C ) :   1.1651 B( 17-C , 18-C ) :   1.5900
B( 17-C , 33-H ) :   0.9714 B( 18-C , 19-C ) :   1.2543 B( 18-C , 21-H ) :   0.9883
B( 19-C , 20-C ) :   1.5728 B( 19-C , 22-C ) :   1.0355 B( 22-C , 23-H ) :   0.9295
B( 22-C , 24-H ) :   0.9296 B( 22-C , 25-C ) :   1.0486 B( 25-C , 26-H ) :   0.9615
B( 25-C , 27-H ) :   0.9518 B( 25-C , 28-C ) :   1.0904 B( 28-C , 29-H ) :   0.9745
B( 28-C , 30-H ) :   0.9734 B( 28-C , 31-H ) :   0.9711

Dispersion correction           -0.013883503
FINAL SINGLE POINT ENERGY     -1339.862558452339

DIPOLE MOMENT
-------------
                                X             Y             Z
Electronic contribution:    -28.59851      -0.08049      -1.60836
Nuclear contribution   :     29.22709       0.44274       1.52104
                        -----------------------------------------
Total Dipole Moment    :      0.62858       0.36226      -0.08732
                        -----------------------------------------
Magnitude (a.u.)       :      0.73073
Magnitude (Debye)      :      1.85736

Rotational constants in cm-1:     0.018081     0.007941     0.006681
Rotational constants in MHz :   542.061303   238.063096   200.281088

                             ****ORCA TERMINATED NORMALLY****
TOTAL RUN TIME: 0 days 0 hours 0 minutes 21 seconds 139 msec
