                         Program Version 4.2.1 -  RELEASE  -
|  1> ! wB97X-D3 SP def2-SVP
|  2> %pal
|  3> nprocs 24
|  4> end
|  5>
|  6> * xyz 0 1
|  7> S 	 -107.572 	 34.6861 	 -16.8645
|  8> C 	 -107.949 	 33.4792 	 -15.6646
|  9> C 	 -107.874 	 32.2282 	 -16.2448
| 10> C 	 -107.512 	 32.1907 	 -17.638
| 11> C 	 -107.253 	 33.4485 	 -18.1473
| 12> H 	 -107.551 	 31.337 	 -18.3101
| 13> C 	 -108.135 	 30.8505 	 -15.5459
| 14> H 	 -107.76 	 30.8775 	 -14.4788
| 15> H 	 -107.558 	 30.1872 	 -16.0853
| 16> C 	 -109.574 	 30.4918 	 -15.5187
| 17> H 	 -110.135 	 31.1556 	 -14.8431
| 18> H 	 -109.935 	 30.5692 	 -16.598
| 19> C 	 -109.815 	 29.0978 	 -14.9217
| 20> H 	 -110.901 	 28.8375 	 -14.6091
| 21> H 	 -109.512 	 28.3438 	 -15.695
| 22> H 	 -109.244 	 28.9681 	 -14.031
| 23> S 	 -105.461 	 34.7489 	 -19.8424
| 24> C 	 -105.66 	 34.5233 	 -21.5395
| 25> C 	 -106.811 	 33.8797 	 -21.8611
| 26> C 	 -107.493 	 33.3814 	 -20.7463
| 27> C 	 -106.884 	 33.7448 	 -19.553
| 28> H 	 -107.143 	 33.8629 	 -22.8833
| 29> C 	 -108.747 	 32.6135 	 -21.0149
| 30> H 	 -109.261 	 33.0412 	 -21.8281
| 31> H 	 -109.4 	 32.7894 	 -20.0876
| 32> C 	 -108.493 	 31.1784 	 -21.3143
| 33> H 	 -108.16 	 30.6782 	 -20.4265
| 34> H 	 -107.72 	 31.1708 	 -22.099
| 35> C 	 -109.706 	 30.4545 	 -21.786
| 36> H 	 -109.438 	 29.4196 	 -21.7931
| 37> H 	 -110.084 	 30.5536 	 -22.8454
| 38> H 	 -110.486 	 30.6438 	 -21.0769
| 39> H 	 -108.087 	 33.6994 	 -14.6522
| 40> H 	 -104.963 	 35.0053 	 -22.2569
| 41> *
| 42>
| 43>                          ****END OF INPUT****

CARTESIAN COORDINATES (ANGSTROEM)
---------------------------------
  S    -107.572000   34.686100  -16.864500
  C    -107.949000   33.479200  -15.664600
  C    -107.874000   32.228200  -16.244800
  C    -107.512000   32.190700  -17.638000
  C    -107.253000   33.448500  -18.147300
  H    -107.551000   31.337000  -18.310100
  C    -108.135000   30.850500  -15.545900
  H    -107.760000   30.877500  -14.478800
  H    -107.558000   30.187200  -16.085300
  C    -109.574000   30.491800  -15.518700
  H    -110.135000   31.155600  -14.843100
  H    -109.935000   30.569200  -16.598000
  C    -109.815000   29.097800  -14.921700
  H    -110.901000   28.837500  -14.609100
  H    -109.512000   28.343800  -15.695000
  H    -109.244000   28.968100  -14.031000
  S    -105.461000   34.748900  -19.842400
  C    -105.660000   34.523300  -21.539500
  C    -106.811000   33.879700  -21.861100
  C    -107.493000   33.381400  -20.746300
  C    -106.884000   33.744800  -19.553000
  H    -107.143000   33.862900  -22.883300
  C    -108.747000   32.613500  -21.014900
  H    -109.261000   33.041200  -21.828100
  H    -109.400000   32.789400  -20.087600
  C    -108.493000   31.178400  -21.314300
  H    -108.160000   30.678200  -20.426500
  H    -107.720000   31.170800  -22.099000
  C    -109.706000   30.454500  -21.786000
  H    -109.438000   29.419600  -21.793100
  H    -110.084000   30.553600  -22.845400
  H    -110.486000   30.643800  -21.076900
  H    -108.087000   33.699400  -14.652200
  H    -104.963000   35.005300  -22.256900

 Total Charge           Charge          ....    0
 Multiplicity           Mult            ....    1
 Number of Electrons    NEL             ....  134
 Basis Dimension        Dim             ....  322

ORBITAL ENERGIES
----------------

  NO   OCC          E(Eh)            E(eV)
   0   2.0000     -88.965630     -2420.8779
   1   2.0000     -88.964760     -2420.8542
   2   2.0000     -10.335627      -281.2467
   3   2.0000     -10.328980      -281.0658
   4   2.0000     -10.316092      -280.7151
   5   2.0000     -10.312990      -280.6307
   6   2.0000     -10.303353      -280.3685
   7   2.0000     -10.299705      -280.2692
   8   2.0000     -10.296293      -280.1764
   9   2.0000     -10.288881      -279.9747
  10   2.0000     -10.288396      -279.9615
  11   2.0000     -10.287093      -279.9260
  12   2.0000     -10.286906      -279.9209
  13   2.0000     -10.284741      -279.8620
  14   2.0000     -10.283124      -279.8180
  15   2.0000     -10.275558      -279.6121
  16   2.0000      -8.080890      -219.8922
  17   2.0000      -8.078729      -219.8334
  18   2.0000      -6.039269      -164.3369
  19   2.0000      -6.037466      -164.2878
  20   2.0000      -6.035402      -164.2316
  21   2.0000      -6.033278      -164.1738
  22   2.0000      -6.031677      -164.1303
  23   2.0000      -6.029338      -164.0666
  24   2.0000      -1.006903       -27.3992
  25   2.0000      -0.983993       -26.7758
  26   2.0000      -0.925332       -25.1796
  27   2.0000      -0.913117       -24.8472
  28   2.0000      -0.869098       -23.6494
  29   2.0000      -0.860740       -23.4219
  30   2.0000      -0.843619       -22.9560
  31   2.0000      -0.814212       -22.1558
  32   2.0000      -0.783776       -21.3276
  33   2.0000      -0.769486       -20.9388
  34   2.0000      -0.705002       -19.1841
  35   2.0000      -0.694477       -18.8977
  36   2.0000      -0.689990       -18.7756
  37   2.0000      -0.665602       -18.1119
  38   2.0000      -0.646358       -17.5883
  39   2.0000      -0.618719       -16.8362
  40   2.0000      -0.601056       -16.3556
  41   2.0000      -0.577674       -15.7193
  42   2.0000      -0.571075       -15.5398
  43   2.0000      -0.560873       -15.2621
  44   2.0000      -0.533533       -14.5182
  45   2.0000      -0.527163       -14.3448
  46   2.0000      -0.522687       -14.2230
  47   2.0000      -0.514195       -13.9920
  48   2.0000      -0.511404       -13.9160
  49   2.0000      -0.499600       -13.5948
  50   2.0000      -0.495245       -13.4763
  51   2.0000      -0.476230       -12.9589
  52   2.0000      -0.471290       -12.8244
  53   2.0000      -0.463701       -12.6179
  54   2.0000      -0.458050       -12.4642
  55   2.0000      -0.455310       -12.3896
  56   2.0000      -0.440448       -11.9852
  57   2.0000      -0.435744       -11.8572
  58   2.0000      -0.429382       -11.6841
  59   2.0000      -0.427880       -11.6432
  60   2.0000      -0.421433       -11.4678
  61   2.0000      -0.414120       -11.2688
  62   2.0000      -0.406708       -11.0671
  63   2.0000      -0.347397        -9.4532
  64   2.0000      -0.333977        -9.0880
  65   2.0000      -0.329150        -8.9566
  66   2.0000      -0.295562        -8.0427
  67   0.0000       0.031760         0.8642
  68   0.0000       0.068026         1.8511
  69   0.0000       0.114819         3.1244
  70   0.0000       0.117613         3.2004
  71   0.0000       0.129747         3.5306

MULLIKEN ATOMIC CHARGES
-----------------------
   0 S :    0.095119
   1 C :   -0.099190
   2 C :   -0.093346
   3 C :    0.028502
   4 C :   -0.132065
   5 H :    0.008114
   6 C :    0.083830
   7 H :    0.027754
   8 H :    0.000930
   9 C :   -0.078364
  10 H :    0.031242
  11 H :    0.036555
  12 C :   -0.066838
  13 H :    0.046864
  14 H :    0.035735
  15 H :    0.024274
  16 S :    0.114970
  17 C :   -0.100739
  18 C :   -0.035225
  19 C :   -0.015337
  20 C :   -0.189954
  21 H :    0.015060
  22 C :    0.067204
  23 H :    0.007915
  24 H :    0.038702
  25 C :   -0.056517
  26 H :    0.019478
  27 H :    0.025303
  28 C :   -0.029368
  29 H :    0.022468
  30 H :    0.039340
  31 H :    0.027501
  32 H :    0.032679
  33 H :    0.067405
Sum of atomic charges:   -0.0000000

LOEWDIN ATOMIC CHARGES
----------------------
   0 S :    0.380185
   1 C :   -0.189051
   2 C :   -0.057581
   3 C :   -0.066939
   4 C :   -0.172691
   5 H :    0.031163
   6 C :   -0.026164
   7 H :    0.033314
   8 H :    0.015090
   9 C :   -0.048335
  10 H :    0.025948
  11 H :    0.030168
  12 C :   -0.074384
  13 H :    0.034733
  14 H :    0.027538
  15 H :    0.017660
  16 S :    0.412846
  17 C :   -0.188111
  18 C :   -0.075996
  19 C :   -0.050651
  20 C :   -0.199677
  21 H :    0.032305
  22 C :   -0.032503
  23 H :    0.024346
  24 H :    0.038044
  25 C :   -0.037344
  26 H :    0.021090
  27 H :    0.027335
  28 C :   -0.067876
  29 H :    0.025392
  30 H :    0.031931
  31 H :    0.023315
  32 H :    0.020495
  33 H :    0.034406

  Mayer bond orders larger than 0.100000
B(  0-S ,  1-C ) :   1.1253 B(  0-S ,  4-C ) :   1.1411 B(  1-C ,  2-C ) :   1.6191
B(  1-C , 32-H ) :   0.9813 B(  2-C ,  3-C ) :   1.2278 B(  2-C ,  6-C ) :   1.0139
B(  3-C ,  4-C ) :   1.5878 B(  3-C ,  5-H ) :   0.9915 B(  4-C , 20-C ) :   1.0343
B(  6-C ,  7-H ) :   0.9382 B(  6-C ,  8-H ) :   0.9411 B(  6-C ,  9-C ) :   1.0751
B(  9-C , 10-H ) :   0.9540 B(  9-C , 11-H ) :   0.9549 B(  9-C , 12-C ) :   1.0729
B( 12-C , 13-H ) :   0.9763 B( 12-C , 14-H ) :   0.9756 B( 12-C , 15-H ) :   0.9715
B( 16-S , 17-C ) :   1.1688 B( 16-S , 20-C ) :   1.1417 B( 17-C , 18-C ) :   1.6015
B( 17-C , 33-H ) :   0.9603 B( 18-C , 19-C ) :   1.2446 B( 18-C , 21-H ) :   0.9942
B( 19-C , 20-C ) :   1.5922 B( 19-C , 22-C ) :   1.0473 B( 22-C , 23-H ) :   0.9322
B( 22-C , 24-H ) :   0.9199 B( 22-C , 25-C ) :   1.0826 B( 25-C , 26-H ) :   0.9442
B( 25-C , 27-H ) :   0.9486 B( 25-C , 28-C ) :   1.0961 B( 28-C , 29-H ) :   0.9700
B( 28-C , 30-H ) :   0.9716 B( 28-C , 31-H ) :   0.9688

Dispersion correction           -0.013974874
FINAL SINGLE POINT ENERGY     -1339.874929199003

DIPOLE MOMENT
-------------
                                X             Y             Z
Electronic contribution:     17.86840      27.16029      -0.24395
Nuclear contribution   :    -18.16427     -27.67754      -0.01732
                        -----------------------------------------
Total Dipole Moment    :     -0.29587      -0.51725      -0.26127
                        -----------------------------------------
Magnitude (a.u.)       :      0.65065
Magnitude (Debye)      :      1.65382

Rotational constants in cm-1:     0.017384     0.008990     0.006348
Rotational constants in MHz :   521.155075   269.502632   190.301407

                             ****ORCA TERMINATED NORMALLY****
TOTAL RUN TIME: 0 days 0 hours 0 minutes 21 seconds 676 msec
