                         Program Version 4.2.1 -  RELEASE  -
|  1> ! wB97X-D3 SP def2-SVP
|  2> %pal
|  3> nprocs 24
|  4> end
|  5>
|  6> * xyz 0 1
|  7> S 	 -16.8843 	 -26.2182 	 -97.4719
|  8> C 	 -15.5617 	 -27.2201 	 -96.9476
|  9> C 	 -15.9845 	 -28.5052 	 -96.6296
| 10> C 	 -17.3837 	 -28.7157 	 -96.7516
| 11> C 	 -18.0691 	 -27.5203 	 -97.0458
| 12> H 	 -17.8228 	 -29.6787 	 -96.5375
| 13> C 	 -15.0792 	 -29.6034 	 -96.2685
| 14> H 	 -15.349 	 -29.9995 	 -95.2785
| 15> H 	 -14.0073 	 -29.3219 	 -96.2328
| 16> C 	 -14.9954 	 -30.7594 	 -97.2115
| 17> H 	 -14.3957 	 -31.5919 	 -96.7686
| 18> H 	 -16.0217 	 -31.0889 	 -97.4938
| 19> C 	 -14.2391 	 -30.3669 	 -98.4926
| 20> H 	 -14.824 	 -29.6198 	 -98.9444
| 21> H 	 -13.2189 	 -30.0163 	 -98.3194
| 22> H 	 -14.1765 	 -31.3241 	 -99.1652
| 23> S 	 -20.4318 	 -28.0227 	 -95.8576
| 24> C 	 -21.8229 	 -27.0486 	 -96.0945
| 25> C 	 -21.6433 	 -26.2773 	 -97.2366
| 26> C 	 -20.302 	 -26.3976 	 -97.7694
| 27> C 	 -19.5205 	 -27.3655 	 -97.1289
| 28> H 	 -22.476 	 -25.6182 	 -97.5273
| 29> C 	 -19.8558 	 -25.5975 	 -98.9747
| 30> H 	 -20.6991 	 -25.6214 	 -99.7187
| 31> H 	 -18.9524 	 -26.0331 	 -99.4234
| 32> C 	 -19.7914 	 -24.0515 	 -98.9066
| 33> H 	 -20.8895 	 -23.7513 	 -98.7189
| 34> H 	 -19.475 	 -23.5969 	 -99.9186
| 35> C 	 -18.8988 	 -23.4053 	 -97.8261
| 36> H 	 -19.0628 	 -24.0267 	 -96.9066
| 37> H 	 -19.0986 	 -22.3667 	 -97.6147
| 38> H 	 -17.7987 	 -23.5281 	 -97.976
| 39> H 	 -14.5674 	 -26.9269 	 -96.8467
| 40> H 	 -22.6304 	 -26.9745 	 -95.4283
| 41> *
| 42>
| 43>                          ****END OF INPUT****

CARTESIAN COORDINATES (ANGSTROEM)
---------------------------------
  S    -16.884300  -26.218200  -97.471900
  C    -15.561700  -27.220100  -96.947600
  C    -15.984500  -28.505200  -96.629600
  C    -17.383700  -28.715700  -96.751600
  C    -18.069100  -27.520300  -97.045800
  H    -17.822800  -29.678700  -96.537500
  C    -15.079200  -29.603400  -96.268500
  H    -15.349000  -29.999500  -95.278500
  H    -14.007300  -29.321900  -96.232800
  C    -14.995400  -30.759400  -97.211500
  H    -14.395700  -31.591900  -96.768600
  H    -16.021700  -31.088900  -97.493800
  C    -14.239100  -30.366900  -98.492600
  H    -14.824000  -29.619800  -98.944400
  H    -13.218900  -30.016300  -98.319400
  H    -14.176500  -31.324100  -99.165200
  S    -20.431800  -28.022700  -95.857600
  C    -21.822900  -27.048600  -96.094500
  C    -21.643300  -26.277300  -97.236600
  C    -20.302000  -26.397600  -97.769400
  C    -19.520500  -27.365500  -97.128900
  H    -22.476000  -25.618200  -97.527300
  C    -19.855800  -25.597500  -98.974700
  H    -20.699100  -25.621400  -99.718700
  H    -18.952400  -26.033100  -99.423400
  C    -19.791400  -24.051500  -98.906600
  H    -20.889500  -23.751300  -98.718900
  H    -19.475000  -23.596900  -99.918600
  C    -18.898800  -23.405300  -97.826100
  H    -19.062800  -24.026700  -96.906600
  H    -19.098600  -22.366700  -97.614700
  H    -17.798700  -23.528100  -97.976000
  H    -14.567400  -26.926900  -96.846700
  H    -22.630400  -26.974500  -95.428300

 Total Charge           Charge          ....    0
 Multiplicity           Mult            ....    1
 Number of Electrons    NEL             ....  134
 Basis Dimension        Dim             ....  322

ORBITAL ENERGIES
----------------

  NO   OCC          E(Eh)            E(eV)
   0   2.0000     -88.973438     -2421.0903
   1   2.0000     -88.965356     -2420.8704
   2   2.0000     -10.343819      -281.4696
   3   2.0000     -10.326638      -281.0021
   4   2.0000     -10.317465      -280.7525
   5   2.0000     -10.310913      -280.5742
   6   2.0000     -10.310406      -280.5604
   7   2.0000     -10.301550      -280.3194
   8   2.0000     -10.299890      -280.2743
   9   2.0000     -10.298597      -280.2391
  10   2.0000     -10.298195      -280.2281
  11   2.0000     -10.295314      -280.1497
  12   2.0000     -10.287471      -279.9363
  13   2.0000     -10.286427      -279.9079
  14   2.0000     -10.277504      -279.6651
  15   2.0000     -10.273958      -279.5686
  16   2.0000      -8.086354      -220.0409
  17   2.0000      -8.081797      -219.9169
  18   2.0000      -6.045070      -164.4947
  19   2.0000      -6.041134      -164.3876
  20   2.0000      -6.040258      -164.3638
  21   2.0000      -6.036965      -164.2742
  22   2.0000      -6.035782      -164.2420
  23   2.0000      -6.032754      -164.1596
  24   2.0000      -1.013207       -27.5708
  25   2.0000      -0.987270       -26.8650
  26   2.0000      -0.920212       -25.0402
  27   2.0000      -0.903952       -24.5978
  28   2.0000      -0.874556       -23.7979
  29   2.0000      -0.849874       -23.1262
  30   2.0000      -0.842011       -22.9123
  31   2.0000      -0.816480       -22.2176
  32   2.0000      -0.781829       -21.2746
  33   2.0000      -0.771535       -20.9945
  34   2.0000      -0.712604       -19.3909
  35   2.0000      -0.694202       -18.8902
  36   2.0000      -0.683326       -18.5943
  37   2.0000      -0.661524       -18.0010
  38   2.0000      -0.637624       -17.3506
  39   2.0000      -0.625739       -17.0272
  40   2.0000      -0.595314       -16.1993
  41   2.0000      -0.578048       -15.7295
  42   2.0000      -0.556885       -15.1536
  43   2.0000      -0.550150       -14.9703
  44   2.0000      -0.541633       -14.7386
  45   2.0000      -0.538527       -14.6541
  46   2.0000      -0.521063       -14.1788
  47   2.0000      -0.512283       -13.9399
  48   2.0000      -0.506467       -13.7817
  49   2.0000      -0.498397       -13.5621
  50   2.0000      -0.493933       -13.4406
  51   2.0000      -0.478435       -13.0189
  52   2.0000      -0.473991       -12.8979
  53   2.0000      -0.463579       -12.6146
  54   2.0000      -0.459899       -12.5145
  55   2.0000      -0.449947       -12.2437
  56   2.0000      -0.435858       -11.8603
  57   2.0000      -0.432599       -11.7716
  58   2.0000      -0.430096       -11.7035
  59   2.0000      -0.420521       -11.4430
  60   2.0000      -0.415812       -11.3148
  61   2.0000      -0.406354       -11.0575
  62   2.0000      -0.404637       -11.0107
  63   2.0000      -0.362635        -9.8678
  64   2.0000      -0.332129        -9.0377
  65   2.0000      -0.327050        -8.8995
  66   2.0000      -0.285122        -7.7586
  67   0.0000       0.019777         0.5381
  68   0.0000       0.068306         1.8587
  69   0.0000       0.094610         2.5745
  70   0.0000       0.120309         3.2738
  71   0.0000       0.137370         3.7380

MULLIKEN ATOMIC CHARGES
-----------------------
   0 S :    0.097996
   1 C :   -0.075961
   2 C :   -0.081377
   3 C :    0.003042
   4 C :   -0.105681
   5 H :    0.022483
   6 C :    0.063058
   7 H :    0.035657
   8 H :    0.009799
   9 C :   -0.096188
  10 H :    0.037112
  11 H :    0.030629
  12 C :   -0.076356
  13 H :    0.036210
  14 H :    0.029847
  15 H :    0.047258
  16 S :    0.103440
  17 C :   -0.083597
  18 C :   -0.036360
  19 C :   -0.088576
  20 C :   -0.088331
  21 H :    0.034895
  22 C :    0.029014
  23 H :    0.041420
  24 H :    0.036961
  25 C :   -0.119477
  26 H :    0.033479
  27 H :    0.046415
  28 C :   -0.065755
  29 H :    0.033832
  30 H :    0.039445
  31 H :    0.036839
  32 H :    0.021826
  33 H :    0.047001
Sum of atomic charges:   -0.0000000

LOEWDIN ATOMIC CHARGES
----------------------
   0 S :    0.413043
   1 C :   -0.193048
   2 C :   -0.063275
   3 C :   -0.064025
   4 C :   -0.160578
   5 H :    0.031722
   6 C :   -0.042493
   7 H :    0.033426
   8 H :    0.031206
   9 C :   -0.043545
  10 H :    0.028416
  11 H :    0.022031
  12 C :   -0.067167
  13 H :    0.017771
  14 H :    0.020881
  15 H :    0.037065
  16 S :    0.451185
  17 C :   -0.185412
  18 C :   -0.072943
  19 C :   -0.062230
  20 C :   -0.223089
  21 H :    0.037376
  22 C :   -0.048971
  23 H :    0.046269
  24 H :    0.022930
  25 C :   -0.049473
  26 H :    0.026846
  27 H :    0.032349
  28 C :   -0.086975
  29 H :    0.026626
  30 H :    0.023489
  31 H :    0.019990
  32 H :    0.017421
  33 H :    0.023185

  Mayer bond orders larger than 0.100000
B(  0-S ,  1-C ) :   1.1250 B(  0-S ,  4-C ) :   1.1386 B(  1-C ,  2-C ) :   1.5998
B(  1-C , 32-H ) :   0.9734 B(  2-C ,  3-C ) :   1.2488 B(  2-C ,  6-C ) :   1.0474
B(  3-C ,  4-C ) :   1.5273 B(  3-C ,  5-H ) :   0.9909 B(  4-C , 20-C ) :   1.0707
B(  6-C ,  7-H ) :   0.9296 B(  6-C ,  8-H ) :   0.9403 B(  6-C ,  9-C ) :   1.0728
B(  9-C , 10-H ) :   0.9547 B(  9-C , 11-H ) :   0.9538 B(  9-C , 12-C ) :   1.0699
B( 12-C , 13-H ) :   0.9797 B( 12-C , 14-H ) :   0.9725 B( 12-C , 15-H ) :   0.9745
B( 16-S , 17-C ) :   1.1890 B( 16-S , 20-C ) :   1.1509 B( 17-C , 18-C ) :   1.5706
B( 17-C , 33-H ) :   0.9757 B( 18-C , 19-C ) :   1.2521 B( 18-C , 21-H ) :   0.9910
B( 19-C , 20-C ) :   1.5384 B( 19-C , 22-C ) :   1.0444 B( 22-C , 23-H ) :   0.9363
B( 22-C , 24-H ) :   0.9436 B( 22-C , 25-C ) :   1.0516 B( 25-C , 26-H ) :   0.9586
B( 25-C , 27-H ) :   0.9553 B( 25-C , 28-C ) :   1.0711 B( 28-C , 29-H ) :   0.9720
B( 28-C , 30-H ) :   0.9743 B( 28-C , 31-H ) :   0.9703

Dispersion correction           -0.015045651
FINAL SINGLE POINT ENERGY     -1339.869338844542

DIPOLE MOMENT
-------------
                                X             Y             Z
Electronic contribution:    -11.23890       0.00034       8.39618
Nuclear contribution   :     11.22838       0.00217      -8.35728
                        -----------------------------------------
Total Dipole Moment    :     -0.01052       0.00251       0.03890
                        -----------------------------------------
Magnitude (a.u.)       :      0.04038
Magnitude (Debye)      :      0.10263

Rotational constants in cm-1:     0.022822     0.008522     0.006870
Rotational constants in MHz :   684.182352   255.485131   205.968651

                             ****ORCA TERMINATED NORMALLY****
TOTAL RUN TIME: 0 days 0 hours 0 minutes 22 seconds 978 msec
