                         Program Version 4.2.1 -  RELEASE  -
|  1> ! wB97X-D3 SP def2-SVP
|  2> %pal
|  3> nprocs 24
|  4> end
|  5>
|  6> * xyz 0 1
|  7> S 	 -107.424 	 54.578 	 -111.536
|  8> C 	 -106.852 	 56.1777 	 -111.192
|  9> C 	 -107.743 	 56.8292 	 -110.301
| 10> C 	 -108.73 	 55.9449 	 -109.763
| 11> C 	 -108.711 	 54.7104 	 -110.414
| 12> H 	 -109.52 	 56.2781 	 -109.073
| 13> C 	 -107.654 	 58.2191 	 -109.754
| 14> H 	 -107.789 	 58.0912 	 -108.667
| 15> H 	 -108.559 	 58.7517 	 -110.069
| 16> C 	 -106.427 	 59.0813 	 -109.891
| 17> H 	 -106.249 	 59.3823 	 -110.945
| 18> H 	 -106.699 	 59.9574 	 -109.315
| 19> C 	 -105.14 	 58.4364 	 -109.346
| 20> H 	 -104.313 	 59.0313 	 -109.695
| 21> H 	 -105.072 	 58.2503 	 -108.282
| 22> H 	 -104.94 	 57.4221 	 -109.778
| 23> S 	 -108.816 	 52.0625 	 -109.818
| 24> C 	 -110.311 	 51.2082 	 -109.743
| 25> C 	 -111.374 	 52.0097 	 -109.992
| 26> C 	 -110.974 	 53.3506 	 -110.227
| 27> C 	 -109.557 	 53.5578 	 -110.208
| 28> H 	 -112.314 	 51.5151 	 -109.923
| 29> C 	 -112.001 	 54.3681 	 -110.524
| 30> H 	 -111.622 	 55.362 	 -110.645
| 31> H 	 -112.577 	 54.1909 	 -109.587
| 32> C 	 -112.949 	 54.1637 	 -111.739
| 33> H 	 -113.478 	 53.2416 	 -111.818
| 34> H 	 -112.38 	 54.3511 	 -112.641
| 35> C 	 -114.125 	 55.2352 	 -111.671
| 36> H 	 -113.816 	 56.2889 	 -111.538
| 37> H 	 -114.733 	 54.9066 	 -110.869
| 38> H 	 -114.62 	 55.2156 	 -112.66
| 39> H 	 -106.044 	 56.6684 	 -111.755
| 40> H 	 -110.349 	 50.2625 	 -109.317
| 41> *
| 42>
| 43>                          ****END OF INPUT****

CARTESIAN COORDINATES (ANGSTROEM)
---------------------------------
  S    -107.424000   54.578000  -111.536000
  C    -106.852000   56.177700  -111.192000
  C    -107.743000   56.829200  -110.301000
  C    -108.730000   55.944900  -109.763000
  C    -108.711000   54.710400  -110.414000
  H    -109.520000   56.278100  -109.073000
  C    -107.654000   58.219100  -109.754000
  H    -107.789000   58.091200  -108.667000
  H    -108.559000   58.751700  -110.069000
  C    -106.427000   59.081300  -109.891000
  H    -106.249000   59.382300  -110.945000
  H    -106.699000   59.957400  -109.315000
  C    -105.140000   58.436400  -109.346000
  H    -104.313000   59.031300  -109.695000
  H    -105.072000   58.250300  -108.282000
  H    -104.940000   57.422100  -109.778000
  S    -108.816000   52.062500  -109.818000
  C    -110.311000   51.208200  -109.743000
  C    -111.374000   52.009700  -109.992000
  C    -110.974000   53.350600  -110.227000
  C    -109.557000   53.557800  -110.208000
  H    -112.314000   51.515100  -109.923000
  C    -112.001000   54.368100  -110.524000
  H    -111.622000   55.362000  -110.645000
  H    -112.577000   54.190900  -109.587000
  C    -112.949000   54.163700  -111.739000
  H    -113.478000   53.241600  -111.818000
  H    -112.380000   54.351100  -112.641000
  C    -114.125000   55.235200  -111.671000
  H    -113.816000   56.288900  -111.538000
  H    -114.733000   54.906600  -110.869000
  H    -114.620000   55.215600  -112.660000
  H    -106.044000   56.668400  -111.755000
  H    -110.349000   50.262500  -109.317000

 Total Charge           Charge          ....    0
 Multiplicity           Mult            ....    1
 Number of Electrons    NEL             ....  134
 Basis Dimension        Dim             ....  322

ORBITAL ENERGIES
----------------

  NO   OCC          E(Eh)            E(eV)
   0   2.0000     -88.965819     -2420.8830
   1   2.0000     -88.959576     -2420.7131
   2   2.0000     -10.327986      -281.0388
   3   2.0000     -10.322844      -280.8989
   4   2.0000     -10.314265      -280.6654
   5   2.0000     -10.306005      -280.4407
   6   2.0000     -10.304261      -280.3932
   7   2.0000     -10.302325      -280.3405
   8   2.0000     -10.294861      -280.1374
   9   2.0000     -10.289077      -279.9800
  10   2.0000     -10.288948      -279.9765
  11   2.0000     -10.287988      -279.9504
  12   2.0000     -10.287710      -279.9428
  13   2.0000     -10.286319      -279.9050
  14   2.0000     -10.279171      -279.7105
  15   2.0000     -10.275703      -279.6161
  16   2.0000      -8.081346      -219.9046
  17   2.0000      -8.075716      -219.7514
  18   2.0000      -6.039747      -164.3499
  19   2.0000      -6.035575      -164.2363
  20   2.0000      -6.034014      -164.1939
  21   2.0000      -6.032344      -164.1484
  22   2.0000      -6.029873      -164.0812
  23   2.0000      -6.026762      -163.9965
  24   2.0000      -1.011624       -27.5277
  25   2.0000      -0.988004       -26.8850
  26   2.0000      -0.916410       -24.9368
  27   2.0000      -0.907819       -24.7030
  28   2.0000      -0.871184       -23.7061
  29   2.0000      -0.852238       -23.1906
  30   2.0000      -0.847892       -23.0723
  31   2.0000      -0.812470       -22.1084
  32   2.0000      -0.784996       -21.3608
  33   2.0000      -0.767263       -20.8783
  34   2.0000      -0.706773       -19.2323
  35   2.0000      -0.704589       -19.1728
  36   2.0000      -0.695152       -18.9160
  37   2.0000      -0.660279       -17.9671
  38   2.0000      -0.636838       -17.3292
  39   2.0000      -0.614915       -16.7327
  40   2.0000      -0.599800       -16.3214
  41   2.0000      -0.578757       -15.7488
  42   2.0000      -0.567383       -15.4393
  43   2.0000      -0.556256       -15.1365
  44   2.0000      -0.540469       -14.7069
  45   2.0000      -0.524792       -14.2803
  46   2.0000      -0.518479       -14.1085
  47   2.0000      -0.511831       -13.9276
  48   2.0000      -0.503700       -13.7064
  49   2.0000      -0.495501       -13.4833
  50   2.0000      -0.485361       -13.2073
  51   2.0000      -0.480008       -13.0617
  52   2.0000      -0.474991       -12.9252
  53   2.0000      -0.466689       -12.6993
  54   2.0000      -0.461486       -12.5577
  55   2.0000      -0.446767       -12.1572
  56   2.0000      -0.441863       -12.0237
  57   2.0000      -0.438435       -11.9304
  58   2.0000      -0.432758       -11.7759
  59   2.0000      -0.430620       -11.7178
  60   2.0000      -0.423086       -11.5128
  61   2.0000      -0.415348       -11.3022
  62   2.0000      -0.405636       -11.0379
  63   2.0000      -0.347880        -9.4663
  64   2.0000      -0.327178        -8.9030
  65   2.0000      -0.323848        -8.8123
  66   2.0000      -0.286800        -7.8042
  67   0.0000       0.035934         0.9778
  68   0.0000       0.071833         1.9547
  69   0.0000       0.115896         3.1537
  70   0.0000       0.122720         3.3394
  71   0.0000       0.129026         3.5110

MULLIKEN ATOMIC CHARGES
-----------------------
   0 S :    0.127169
   1 C :   -0.140881
   2 C :   -0.100126
   3 C :    0.021124
   4 C :   -0.159940
   5 H :    0.027205
   6 C :    0.023968
   7 H :    0.029079
   8 H :    0.037758
   9 C :   -0.042680
  10 H :    0.031269
  11 H :    0.030930
  12 C :   -0.062540
  13 H :    0.029556
  14 H :    0.034170
  15 H :    0.030576
  16 S :    0.104807
  17 C :   -0.077651
  18 C :   -0.033934
  19 C :    0.002114
  20 C :   -0.152199
  21 H :    0.011820
  22 C :    0.046344
  23 H :    0.016486
  24 H :    0.035062
  25 C :   -0.066260
  26 H :    0.025909
  27 H :    0.035367
  28 C :   -0.072515
  29 H :    0.033807
  30 H :    0.030836
  31 H :    0.040519
  32 H :    0.065232
  33 H :    0.037617
Sum of atomic charges:   -0.0000000

LOEWDIN ATOMIC CHARGES
----------------------
   0 S :    0.437527
   1 C :   -0.225681
   2 C :   -0.058400
   3 C :   -0.068137
   4 C :   -0.204623
   5 H :    0.037149
   6 C :   -0.045583
   7 H :    0.036731
   8 H :    0.035996
   9 C :   -0.042286
  10 H :    0.025942
  11 H :    0.030271
  12 C :   -0.070613
  13 H :    0.024911
  14 H :    0.024626
  15 H :    0.030257
  16 S :    0.430855
  17 C :   -0.178695
  18 C :   -0.072381
  19 C :   -0.053180
  20 C :   -0.226347
  21 H :    0.032815
  22 C :   -0.037527
  23 H :    0.026599
  24 H :    0.041387
  25 C :   -0.028394
  26 H :    0.018269
  27 H :    0.023401
  28 C :   -0.063965
  29 H :    0.024014
  30 H :    0.018068
  31 H :    0.029480
  32 H :    0.031715
  33 H :    0.015800

  Mayer bond orders larger than 0.100000
B(  0-S ,  1-C ) :   1.1408 B(  0-S ,  4-C ) :   1.1904 B(  1-C ,  2-C ) :   1.5774
B(  1-C ,  4-C ) :   0.1003 B(  1-C , 32-H ) :   0.9596 B(  2-C ,  3-C ) :   1.2667
B(  2-C ,  6-C ) :   1.0181 B(  3-C ,  4-C ) :   1.5403 B(  3-C ,  5-H ) :   0.9909
B(  4-C , 20-C ) :   1.0291 B(  6-C ,  7-H ) :   0.9420 B(  6-C ,  8-H ) :   0.9279
B(  6-C ,  9-C ) :   1.0902 B(  9-C , 10-H ) :   0.9501 B(  9-C , 11-H ) :   0.9479
B(  9-C , 12-C ) :   1.0788 B( 12-C , 13-H ) :   0.9743 B( 12-C , 14-H ) :   0.9749
B( 12-C , 15-H ) :   0.9720 B( 16-S , 17-C ) :   1.1789 B( 16-S , 20-C ) :   1.1618
B( 17-C , 18-C ) :   1.5901 B( 17-C , 33-H ) :   0.9721 B( 18-C , 19-C ) :   1.2428
B( 18-C , 21-H ) :   1.0026 B( 19-C , 20-C ) :   1.5385 B( 19-C , 22-C ) :   1.0405
B( 22-C , 23-H ) :   0.9391 B( 22-C , 24-H ) :   0.9318 B( 22-C , 25-C ) :   1.0697
B( 25-C , 26-H ) :   0.9571 B( 25-C , 27-H ) :   0.9593 B( 25-C , 28-C ) :   1.0692
B( 28-C , 29-H ) :   0.9777 B( 28-C , 30-H ) :   0.9813 B( 28-C , 31-H ) :   0.9766

Dispersion correction           -0.013637945
FINAL SINGLE POINT ENERGY     -1339.873902189921

DIPOLE MOMENT
-------------
                                X             Y             Z
Electronic contribution:      9.48027     -20.97188      -0.92545
Nuclear contribution   :     -9.93755      21.36174       1.07795
                        -----------------------------------------
Total Dipole Moment    :     -0.45729       0.38986       0.15250
                        -----------------------------------------
Magnitude (a.u.)       :      0.61997
Magnitude (Debye)      :      1.57583

Rotational constants in cm-1:     0.020566     0.007656     0.006141
Rotational constants in MHz :   616.548785   229.528403   184.110809

                             ****ORCA TERMINATED NORMALLY****
TOTAL RUN TIME: 0 days 0 hours 0 minutes 21 seconds 163 msec
