                         Program Version 4.2.1 -  RELEASE  -
|  1> ! wB97X-D3 SP def2-SVP
|  2> %pal
|  3> nprocs 24
|  4> end
|  5>
|  6> * xyz 0 1
|  7> S 	 -68.9219 	 -45.586 	 -89.1357
|  8> C 	 -68.5137 	 -45.1641 	 -90.7552
|  9> C 	 -67.7529 	 -46.1429 	 -91.3772
| 10> C 	 -67.6565 	 -47.3638 	 -90.545
| 11> C 	 -68.1564 	 -47.1363 	 -89.2473
| 12> H 	 -67.1832 	 -48.232 	 -90.8275
| 13> C 	 -67.1475 	 -46.0691 	 -92.717
| 14> H 	 -67.914 	 -46.4298 	 -93.4466
| 15> H 	 -66.3311 	 -46.7636 	 -92.9253
| 16> C 	 -66.6858 	 -44.6761 	 -93.1725
| 17> H 	 -66.4379 	 -44.6942 	 -94.2161
| 18> H 	 -67.457 	 -43.9039 	 -93.1726
| 19> C 	 -65.5579 	 -44.0858 	 -92.2607
| 20> H 	 -65.8891 	 -43.7137 	 -91.2897
| 21> H 	 -64.7867 	 -44.7873 	 -92.0433
| 22> H 	 -65.1923 	 -43.1928 	 -92.7112
| 23> S 	 -68.252 	 -47.3449 	 -86.498
| 24> C 	 -68.0767 	 -48.8977 	 -85.6879
| 25> C 	 -67.9774 	 -49.9178 	 -86.5906
| 26> C 	 -68.0245 	 -49.5 	 -87.9924
| 27> C 	 -68.2869 	 -48.086 	 -88.113
| 28> H 	 -67.6843 	 -50.8768 	 -86.2199
| 29> C 	 -67.9161 	 -50.4552 	 -89.1592
| 30> H 	 -67.403 	 -51.3405 	 -88.7164
| 31> H 	 -67.2141 	 -50.0366 	 -89.8848
| 32> C 	 -69.2798 	 -50.7659 	 -89.8664
| 33> H 	 -69.0197 	 -51.3775 	 -90.681
| 34> H 	 -69.7484 	 -49.8944 	 -90.2439
| 35> C 	 -70.3318 	 -51.4493 	 -88.9545
| 36> H 	 -69.8987 	 -52.2629 	 -88.346
| 37> H 	 -71.1869 	 -51.9615 	 -89.4628
| 38> H 	 -70.6711 	 -50.7624 	 -88.1158
| 39> H 	 -68.67 	 -44.1574 	 -91.1175
| 40> H 	 -67.7247 	 -49.0605 	 -84.6129
| 41> *
| 42>
| 43>                          ****END OF INPUT****

CARTESIAN COORDINATES (ANGSTROEM)
---------------------------------
  S    -68.921900  -45.586000  -89.135700
  C    -68.513700  -45.164100  -90.755200
  C    -67.752900  -46.142900  -91.377200
  C    -67.656500  -47.363800  -90.545000
  C    -68.156400  -47.136300  -89.247300
  H    -67.183200  -48.232000  -90.827500
  C    -67.147500  -46.069100  -92.717000
  H    -67.914000  -46.429800  -93.446600
  H    -66.331100  -46.763600  -92.925300
  C    -66.685800  -44.676100  -93.172500
  H    -66.437900  -44.694200  -94.216100
  H    -67.457000  -43.903900  -93.172600
  C    -65.557900  -44.085800  -92.260700
  H    -65.889100  -43.713700  -91.289700
  H    -64.786700  -44.787300  -92.043300
  H    -65.192300  -43.192800  -92.711200
  S    -68.252000  -47.344900  -86.498000
  C    -68.076700  -48.897700  -85.687900
  C    -67.977400  -49.917800  -86.590600
  C    -68.024500  -49.500000  -87.992400
  C    -68.286900  -48.086000  -88.113000
  H    -67.684300  -50.876800  -86.219900
  C    -67.916100  -50.455200  -89.159200
  H    -67.403000  -51.340500  -88.716400
  H    -67.214100  -50.036600  -89.884800
  C    -69.279800  -50.765900  -89.866400
  H    -69.019700  -51.377500  -90.681000
  H    -69.748400  -49.894400  -90.243900
  C    -70.331800  -51.449300  -88.954500
  H    -69.898700  -52.262900  -88.346000
  H    -71.186900  -51.961500  -89.462800
  H    -70.671100  -50.762400  -88.115800
  H    -68.670000  -44.157400  -91.117500
  H    -67.724700  -49.060500  -84.612900

 Total Charge           Charge          ....    0
 Multiplicity           Mult            ....    1
 Number of Electrons    NEL             ....  134
 Basis Dimension        Dim             ....  322

ORBITAL ENERGIES
----------------

  NO   OCC          E(Eh)            E(eV)
   0   2.0000     -88.965974     -2420.8872
   1   2.0000     -88.964997     -2420.8606
   2   2.0000     -10.336636      -281.2742
   3   2.0000     -10.336242      -281.2634
   4   2.0000     -10.322684      -280.8945
   5   2.0000     -10.313571      -280.6465
   6   2.0000     -10.311362      -280.5864
   7   2.0000     -10.305989      -280.4402
   8   2.0000     -10.299834      -280.2727
   9   2.0000     -10.296497      -280.1819
  10   2.0000     -10.295826      -280.1637
  11   2.0000     -10.294358      -280.1237
  12   2.0000     -10.289045      -279.9791
  13   2.0000     -10.284663      -279.8599
  14   2.0000     -10.281901      -279.7847
  15   2.0000     -10.271404      -279.4991
  16   2.0000      -8.080588      -219.8840
  17   2.0000      -8.080108      -219.8709
  18   2.0000      -6.039161      -164.3339
  19   2.0000      -6.038790      -164.3238
  20   2.0000      -6.034915      -164.2184
  21   2.0000      -6.034641      -164.2109
  22   2.0000      -6.031306      -164.1202
  23   2.0000      -6.030765      -164.1055
  24   2.0000      -1.002486       -27.2790
  25   2.0000      -0.978803       -26.6346
  26   2.0000      -0.913631       -24.8612
  27   2.0000      -0.904380       -24.6094
  28   2.0000      -0.865107       -23.5408
  29   2.0000      -0.848963       -23.1014
  30   2.0000      -0.839523       -22.8446
  31   2.0000      -0.813270       -22.1302
  32   2.0000      -0.784111       -21.3367
  33   2.0000      -0.769691       -20.9444
  34   2.0000      -0.711285       -19.3550
  35   2.0000      -0.710573       -19.3357
  36   2.0000      -0.686658       -18.6849
  37   2.0000      -0.662091       -18.0164
  38   2.0000      -0.640280       -17.4229
  39   2.0000      -0.613202       -16.6861
  40   2.0000      -0.587786       -15.9945
  41   2.0000      -0.576515       -15.6878
  42   2.0000      -0.554894       -15.0994
  43   2.0000      -0.547226       -14.8908
  44   2.0000      -0.544466       -14.8157
  45   2.0000      -0.529516       -14.4089
  46   2.0000      -0.518611       -14.1121
  47   2.0000      -0.507364       -13.8061
  48   2.0000      -0.498853       -13.5745
  49   2.0000      -0.492578       -13.4037
  50   2.0000      -0.490959       -13.3597
  51   2.0000      -0.480252       -13.0683
  52   2.0000      -0.476547       -12.9675
  53   2.0000      -0.462140       -12.5755
  54   2.0000      -0.460746       -12.5375
  55   2.0000      -0.446956       -12.1623
  56   2.0000      -0.440062       -11.9747
  57   2.0000      -0.434585       -11.8257
  58   2.0000      -0.430744       -11.7212
  59   2.0000      -0.427700       -11.6383
  60   2.0000      -0.424679       -11.5561
  61   2.0000      -0.416112       -11.3230
  62   2.0000      -0.411915       -11.2088
  63   2.0000      -0.359715        -9.7883
  64   2.0000      -0.330569        -8.9952
  65   2.0000      -0.323011        -8.7896
  66   2.0000      -0.282519        -7.6877
  67   0.0000       0.018268         0.4971
  68   0.0000       0.078766         2.1433
  69   0.0000       0.100100         2.7239
  70   0.0000       0.111390         3.0311
  71   0.0000       0.135332         3.6826

MULLIKEN ATOMIC CHARGES
-----------------------
   0 S :    0.100378
   1 C :   -0.118704
   2 C :   -0.079830
   3 C :    0.026114
   4 C :   -0.100055
   5 H :   -0.032641
   6 C :    0.046726
   7 H :    0.046278
   8 H :    0.027039
   9 C :   -0.076528
  10 H :    0.021911
  11 H :    0.018480
  12 C :   -0.029895
  13 H :    0.029108
  14 H :    0.026925
  15 H :    0.022248
  16 S :    0.080806
  17 C :   -0.109708
  18 C :   -0.022615
  19 C :   -0.102322
  20 C :   -0.095407
  21 H :    0.012944
  22 C :    0.033051
  23 H :    0.027062
  24 H :    0.033721
  25 C :    0.002062
  26 H :    0.020551
  27 H :    0.036649
  28 C :   -0.105071
  29 H :    0.015330
  30 H :    0.047981
  31 H :    0.056218
  32 H :    0.052165
  33 H :    0.089030
Sum of atomic charges:   -0.0000000

LOEWDIN ATOMIC CHARGES
----------------------
   0 S :    0.420721
   1 C :   -0.209068
   2 C :   -0.053656
   3 C :   -0.057993
   4 C :   -0.189737
   5 H :    0.010931
   6 C :   -0.042600
   7 H :    0.044002
   8 H :    0.031984
   9 C :   -0.039278
  10 H :    0.023035
  11 H :    0.020917
  12 C :   -0.061316
  13 H :    0.026823
  14 H :    0.019831
  15 H :    0.022534
  16 S :    0.389191
  17 C :   -0.198944
  18 C :   -0.075606
  19 C :   -0.052483
  20 C :   -0.191362
  21 H :    0.028114
  22 C :   -0.033507
  23 H :    0.035140
  24 H :    0.029457
  25 C :   -0.026369
  26 H :    0.018856
  27 H :    0.025110
  28 C :   -0.081686
  29 H :    0.020297
  30 H :    0.032006
  31 H :    0.036821
  32 H :    0.025806
  33 H :    0.052027

  Mayer bond orders larger than 0.100000
B(  0-S ,  1-C ) :   1.1363 B(  0-S ,  4-C ) :   1.1621 B(  1-C ,  2-C ) :   1.6087
B(  1-C , 32-H ) :   0.9643 B(  2-C ,  3-C ) :   1.2327 B(  2-C ,  6-C ) :   1.0329
B(  3-C ,  4-C ) :   1.5584 B(  3-C ,  5-H ) :   1.0039 B(  4-C , 20-C ) :   1.0442
B(  6-C ,  7-H ) :   0.9236 B(  6-C ,  8-H ) :   0.9448 B(  6-C ,  9-C ) :   1.0886
B(  9-C , 10-H ) :   0.9545 B(  9-C , 11-H ) :   0.9510 B(  9-C , 12-C ) :   1.0687
B( 12-C , 13-H ) :   0.9732 B( 12-C , 14-H ) :   0.9797 B( 12-C , 15-H ) :   0.9739
B( 16-S , 17-C ) :   1.1500 B( 16-S , 20-C ) :   1.1364 B( 17-C , 18-C ) :   1.6300
B( 17-C , 33-H ) :   0.9511 B( 18-C , 19-C ) :   1.2485 B( 18-C , 21-H ) :   0.9866
B( 19-C , 20-C ) :   1.5569 B( 19-C , 22-C ) :   1.0457 B( 22-C , 23-H ) :   0.9325
B( 22-C , 24-H ) :   0.9362 B( 22-C , 25-C ) :   1.0662 B( 25-C , 26-H ) :   0.9559
B( 25-C , 27-H ) :   0.9565 B( 25-C , 28-C ) :   1.0652 B( 28-C , 29-H ) :   0.9759
B( 28-C , 30-H ) :   0.9756 B( 28-C , 31-H ) :   0.9730

Dispersion correction           -0.014787008
FINAL SINGLE POINT ENERGY     -1339.873513746117

DIPOLE MOMENT
-------------
                                X             Y             Z
Electronic contribution:     -4.74191       7.69542      18.90242
Nuclear contribution   :      5.17274      -8.06931     -19.40093
                        -----------------------------------------
Total Dipole Moment    :      0.43083      -0.37389      -0.49851
                        -----------------------------------------
Magnitude (a.u.)       :      0.75757
Magnitude (Debye)      :      1.92560

Rotational constants in cm-1:     0.022418     0.007984     0.006682
Rotational constants in MHz :   672.071902   239.347860   200.335764

                             ****ORCA TERMINATED NORMALLY****
TOTAL RUN TIME: 0 days 0 hours 0 minutes 21 seconds 687 msec
