                         Program Version 4.2.1 -  RELEASE  -
|  1> ! wB97X-D3 SP def2-SVP
|  2> %pal
|  3> nprocs 24
|  4> end
|  5>
|  6> * xyz 0 1
|  7> S 	 -121.528 	 44.2067 	 -34.9632
|  8> C 	 -120.883 	 42.8715 	 -34.0778
|  9> C 	 -120.42 	 43.2482 	 -32.8223
| 10> C 	 -120.739 	 44.6324 	 -32.5032
| 11> C 	 -121.238 	 45.3117 	 -33.5796
| 12> H 	 -120.569 	 45.159 	 -31.6092
| 13> C 	 -119.704 	 42.4246 	 -31.8033
| 14> H 	 -120.267 	 41.4362 	 -31.645
| 15> H 	 -119.838 	 42.873 	 -30.8713
| 16> C 	 -118.231 	 42.1848 	 -32.1497
| 17> H 	 -118.111 	 41.5103 	 -33.0343
| 18> H 	 -117.822 	 43.1303 	 -32.5409
| 19> C 	 -117.359 	 41.5633 	 -31.0202
| 20> H 	 -117.333 	 42.2753 	 -30.1399
| 21> H 	 -117.72 	 40.5972 	 -30.7597
| 22> H 	 -116.376 	 41.2514 	 -31.3736
| 23> S 	 -122.706 	 47.4723 	 -32.5084
| 24> C 	 -122.421 	 49.0764 	 -33.1255
| 25> C 	 -121.498 	 49.0683 	 -34.0962
| 26> C 	 -121.004 	 47.7854 	 -34.4362
| 27> C 	 -121.554 	 46.7502 	 -33.6345
| 28> H 	 -121.235 	 50.0428 	 -34.5021
| 29> C 	 -119.95 	 47.52 	 -35.5227
| 30> H 	 -120.005 	 48.2886 	 -36.2341
| 31> H 	 -120.311 	 46.6429 	 -36.0375
| 32> C 	 -118.523 	 47.4094 	 -35.0588
| 33> H 	 -117.943 	 47.0653 	 -35.9142
| 34> H 	 -118.516 	 46.6387 	 -34.2835
| 35> C 	 -117.948 	 48.7103 	 -34.5293
| 36> H 	 -118.105 	 49.5328 	 -35.2214
| 37> H 	 -116.894 	 48.5119 	 -34.3523
| 38> H 	 -118.387 	 48.8599 	 -33.5799
| 39> H 	 -120.664 	 41.8726 	 -34.5436
| 40> H 	 -122.887 	 50.0365 	 -32.742
| 41> *
| 42>
| 43>                          ****END OF INPUT****

CARTESIAN COORDINATES (ANGSTROEM)
---------------------------------
  S    -121.528000   44.206700  -34.963200
  C    -120.883000   42.871500  -34.077800
  C    -120.420000   43.248200  -32.822300
  C    -120.739000   44.632400  -32.503200
  C    -121.238000   45.311700  -33.579600
  H    -120.569000   45.159000  -31.609200
  C    -119.704000   42.424600  -31.803300
  H    -120.267000   41.436200  -31.645000
  H    -119.838000   42.873000  -30.871300
  C    -118.231000   42.184800  -32.149700
  H    -118.111000   41.510300  -33.034300
  H    -117.822000   43.130300  -32.540900
  C    -117.359000   41.563300  -31.020200
  H    -117.333000   42.275300  -30.139900
  H    -117.720000   40.597200  -30.759700
  H    -116.376000   41.251400  -31.373600
  S    -122.706000   47.472300  -32.508400
  C    -122.421000   49.076400  -33.125500
  C    -121.498000   49.068300  -34.096200
  C    -121.004000   47.785400  -34.436200
  C    -121.554000   46.750200  -33.634500
  H    -121.235000   50.042800  -34.502100
  C    -119.950000   47.520000  -35.522700
  H    -120.005000   48.288600  -36.234100
  H    -120.311000   46.642900  -36.037500
  C    -118.523000   47.409400  -35.058800
  H    -117.943000   47.065300  -35.914200
  H    -118.516000   46.638700  -34.283500
  C    -117.948000   48.710300  -34.529300
  H    -118.105000   49.532800  -35.221400
  H    -116.894000   48.511900  -34.352300
  H    -118.387000   48.859900  -33.579900
  H    -120.664000   41.872600  -34.543600
  H    -122.887000   50.036500  -32.742000

 Total Charge           Charge          ....    0
 Multiplicity           Mult            ....    1
 Number of Electrons    NEL             ....  134
 Basis Dimension        Dim             ....  322

ORBITAL ENERGIES
----------------

  NO   OCC          E(Eh)            E(eV)
   0   2.0000     -88.968233     -2420.9487
   1   2.0000     -88.965311     -2420.8692
   2   2.0000     -10.333188      -281.1803
   3   2.0000     -10.329753      -281.0869
   4   2.0000     -10.319064      -280.7960
   5   2.0000     -10.316846      -280.7356
   6   2.0000     -10.304721      -280.4057
   7   2.0000     -10.304018      -280.3866
   8   2.0000     -10.294193      -280.1192
   9   2.0000     -10.292432      -280.0713
  10   2.0000     -10.291510      -280.0462
  11   2.0000     -10.288453      -279.9630
  12   2.0000     -10.283179      -279.8195
  13   2.0000     -10.278560      -279.6938
  14   2.0000     -10.276967      -279.6505
  15   2.0000     -10.268743      -279.4267
  16   2.0000      -8.082344      -219.9317
  17   2.0000      -8.079769      -219.8617
  18   2.0000      -6.040950      -164.3826
  19   2.0000      -6.038280      -164.3100
  20   2.0000      -6.036952      -164.2738
  21   2.0000      -6.034216      -164.1994
  22   2.0000      -6.033020      -164.1668
  23   2.0000      -6.030651      -164.1024
  24   2.0000      -1.003567       -27.3084
  25   2.0000      -0.984639       -26.7934
  26   2.0000      -0.912013       -24.8171
  27   2.0000      -0.909276       -24.7427
  28   2.0000      -0.870556       -23.6890
  29   2.0000      -0.850265       -23.1369
  30   2.0000      -0.844596       -22.9826
  31   2.0000      -0.818350       -22.2684
  32   2.0000      -0.783816       -21.3287
  33   2.0000      -0.770406       -20.9638
  34   2.0000      -0.705958       -19.2101
  35   2.0000      -0.702823       -19.1248
  36   2.0000      -0.684128       -18.6161
  37   2.0000      -0.656626       -17.8677
  38   2.0000      -0.643013       -17.4973
  39   2.0000      -0.615437       -16.7469
  40   2.0000      -0.592592       -16.1252
  41   2.0000      -0.572517       -15.5790
  42   2.0000      -0.557964       -15.1830
  43   2.0000      -0.552135       -15.0243
  44   2.0000      -0.548752       -14.9323
  45   2.0000      -0.521794       -14.1987
  46   2.0000      -0.518685       -14.1141
  47   2.0000      -0.512748       -13.9526
  48   2.0000      -0.507307       -13.8045
  49   2.0000      -0.498274       -13.5587
  50   2.0000      -0.480546       -13.0763
  51   2.0000      -0.480212       -13.0672
  52   2.0000      -0.478611       -13.0237
  53   2.0000      -0.468497       -12.7485
  54   2.0000      -0.459196       -12.4954
  55   2.0000      -0.446019       -12.1368
  56   2.0000      -0.438474       -11.9315
  57   2.0000      -0.435831       -11.8596
  58   2.0000      -0.433615       -11.7993
  59   2.0000      -0.426526       -11.6064
  60   2.0000      -0.420203       -11.4343
  61   2.0000      -0.412748       -11.2314
  62   2.0000      -0.410456       -11.1691
  63   2.0000      -0.345283        -9.3956
  64   2.0000      -0.335310        -9.1242
  65   2.0000      -0.326094        -8.8735
  66   2.0000      -0.296623        -8.0715
  67   0.0000       0.032479         0.8838
  68   0.0000       0.065791         1.7903
  69   0.0000       0.111389         3.0311
  70   0.0000       0.117871         3.2074
  71   0.0000       0.133707         3.6384

MULLIKEN ATOMIC CHARGES
-----------------------
   0 S :    0.112396
   1 C :   -0.128796
   2 C :   -0.110955
   3 C :    0.046859
   4 C :   -0.151509
   5 H :    0.000796
   6 C :    0.095619
   7 H :    0.035807
   8 H :   -0.001809
   9 C :   -0.098657
  10 H :    0.026690
  11 H :    0.032812
  12 C :   -0.030275
  13 H :    0.048461
  14 H :    0.016855
  15 H :    0.029113
  16 S :    0.108373
  17 C :   -0.116653
  18 C :   -0.035343
  19 C :   -0.060022
  20 C :   -0.171204
  21 H :    0.016511
  22 C :    0.124272
  23 H :   -0.006913
  24 H :    0.011885
  25 C :   -0.064477
  26 H :    0.027503
  27 H :    0.027139
  28 C :   -0.021827
  29 H :    0.029392
  30 H :    0.031593
  31 H :    0.029300
  32 H :    0.070500
  33 H :    0.076563
Sum of atomic charges:    0.0000000

LOEWDIN ATOMIC CHARGES
----------------------
   0 S :    0.401343
   1 C :   -0.210391
   2 C :   -0.061754
   3 C :   -0.051679
   4 C :   -0.178613
   5 H :    0.026371
   6 C :   -0.036490
   7 H :    0.039779
   8 H :    0.019629
   9 C :   -0.044494
  10 H :    0.026063
  11 H :    0.024709
  12 C :   -0.068422
  13 H :    0.032391
  14 H :    0.020252
  15 H :    0.028466
  16 S :    0.403292
  17 C :   -0.196715
  18 C :   -0.083362
  19 C :   -0.050118
  20 C :   -0.202626
  21 H :    0.034795
  22 C :   -0.029811
  23 H :    0.018046
  24 H :    0.023281
  25 C :   -0.035699
  26 H :    0.023241
  27 H :    0.024748
  28 C :   -0.058000
  29 H :    0.022982
  30 H :    0.029119
  31 H :    0.022125
  32 H :    0.040816
  33 H :    0.046724

  Mayer bond orders larger than 0.100000
B(  0-S ,  1-C ) :   1.1374 B(  0-S ,  4-C ) :   1.1367 B(  1-C ,  2-C ) :   1.6286
B(  1-C , 32-H ) :   0.9593 B(  2-C ,  3-C ) :   1.2101 B(  2-C ,  6-C ) :   1.0365
B(  3-C ,  4-C ) :   1.6083 B(  3-C ,  5-H ) :   0.9994 B(  4-C , 20-C ) :   1.0292
B(  6-C ,  7-H ) :   0.9330 B(  6-C ,  8-H ) :   0.9380 B(  6-C ,  9-C ) :   1.0466
B(  9-C , 10-H ) :   0.9549 B(  9-C , 11-H ) :   0.9588 B(  9-C , 12-C ) :   1.0832
B( 12-C , 13-H ) :   0.9763 B( 12-C , 14-H ) :   0.9704 B( 12-C , 15-H ) :   0.9724
B( 16-S , 17-C ) :   1.1559 B( 16-S , 20-C ) :   1.1449 B( 17-C , 18-C ) :   1.6227
B( 17-C , 33-H ) :   0.9538 B( 18-C , 19-C ) :   1.2510 B( 18-C , 21-H ) :   0.9915
B( 19-C , 20-C ) :   1.5630 B( 19-C , 22-C ) :   1.0329 B( 22-C , 23-H ) :   0.9278
B( 22-C , 24-H ) :   0.9230 B( 22-C , 25-C ) :   1.0792 B( 25-C , 26-H ) :   0.9527
B( 25-C , 27-H ) :   0.9542 B( 25-C , 28-C ) :   1.0803 B( 28-C , 29-H ) :   0.9753
B( 28-C , 30-H ) :   0.9713 B( 28-C , 31-H ) :   0.9734

Dispersion correction           -0.014816656
FINAL SINGLE POINT ENERGY     -1339.886640096964

DIPOLE MOMENT
-------------
                                X             Y             Z
Electronic contribution:    -24.68721       5.58094      -3.56366
Nuclear contribution   :     25.24545      -5.58995       3.65964
                        -----------------------------------------
Total Dipole Moment    :      0.55823      -0.00901       0.09598
                        -----------------------------------------
Magnitude (a.u.)       :      0.56650
Magnitude (Debye)      :      1.43992

Rotational constants in cm-1:     0.019478     0.007962     0.007164
Rotational constants in MHz :   583.939450   238.691365   214.776185

                             ****ORCA TERMINATED NORMALLY****
TOTAL RUN TIME: 0 days 0 hours 0 minutes 21 seconds 576 msec
