                         Program Version 4.2.1 -  RELEASE  -
|  1> ! wB97X-D3 SP def2-SVP
|  2> %pal
|  3> nprocs 24
|  4> end
|  5>
|  6> * xyz 0 1
|  7> S 	 -117.29 	 53.5156 	 -38.0065
|  8> C 	 -117.591 	 52.5489 	 -39.4487
|  9> C 	 -118.735 	 52.8703 	 -40.1832
| 10> C 	 -119.394 	 53.9468 	 -39.557
| 11> C 	 -118.682 	 54.501 	 -38.4801
| 12> H 	 -120.349 	 54.3639 	 -39.8341
| 13> C 	 -119.156 	 52.1622 	 -41.5021
| 14> H 	 -119.896 	 51.4379 	 -40.9947
| 15> H 	 -118.438 	 51.5212 	 -41.9382
| 16> C 	 -119.927 	 53.0283 	 -42.5328
| 17> H 	 -120.568 	 52.4031 	 -43.2068
| 18> H 	 -120.624 	 53.7192 	 -42.0821
| 19> C 	 -118.941 	 53.8221 	 -43.3937
| 20> H 	 -119.065 	 54.8675 	 -43.0352
| 21> H 	 -117.878 	 53.4877 	 -43.3593
| 22> H 	 -119.323 	 53.7504 	 -44.3951
| 23> S 	 -120.515 	 55.5313 	 -36.6526
| 24> C 	 -120.309 	 57.1581 	 -36.1766
| 25> C 	 -119.128 	 57.7773 	 -36.6364
| 26> C 	 -118.443 	 56.8808 	 -37.5408
| 27> C 	 -119.085 	 55.6779 	 -37.7147
| 28> H 	 -118.819 	 58.7232 	 -36.2102
| 29> C 	 -117.083 	 57.1628 	 -38.1038
| 30> H 	 -117.019 	 58.2632 	 -38.1726
| 31> H 	 -117.094 	 56.7307 	 -39.0961
| 32> C 	 -115.824 	 56.7182 	 -37.3731
| 33> H 	 -115.225 	 56.0346 	 -38.0225
| 34> H 	 -116.151 	 56.0329 	 -36.5353
| 35> C 	 -114.973 	 57.8176 	 -36.9396
| 36> H 	 -115.525 	 58.6126 	 -36.5692
| 37> H 	 -114.378 	 58.2196 	 -37.7571
| 38> H 	 -114.315 	 57.3655 	 -36.2059
| 39> H 	 -116.96 	 51.738 	 -39.7808
| 40> H 	 -120.913 	 57.6752 	 -35.4917
| 41> *
| 42>
| 43>                          ****END OF INPUT****

CARTESIAN COORDINATES (ANGSTROEM)
---------------------------------
  S    -117.290000   53.515600  -38.006500
  C    -117.591000   52.548900  -39.448700
  C    -118.735000   52.870300  -40.183200
  C    -119.394000   53.946800  -39.557000
  C    -118.682000   54.501000  -38.480100
  H    -120.349000   54.363900  -39.834100
  C    -119.156000   52.162200  -41.502100
  H    -119.896000   51.437900  -40.994700
  H    -118.438000   51.521200  -41.938200
  C    -119.927000   53.028300  -42.532800
  H    -120.568000   52.403100  -43.206800
  H    -120.624000   53.719200  -42.082100
  C    -118.941000   53.822100  -43.393700
  H    -119.065000   54.867500  -43.035200
  H    -117.878000   53.487700  -43.359300
  H    -119.323000   53.750400  -44.395100
  S    -120.515000   55.531300  -36.652600
  C    -120.309000   57.158100  -36.176600
  C    -119.128000   57.777300  -36.636400
  C    -118.443000   56.880800  -37.540800
  C    -119.085000   55.677900  -37.714700
  H    -118.819000   58.723200  -36.210200
  C    -117.083000   57.162800  -38.103800
  H    -117.019000   58.263200  -38.172600
  H    -117.094000   56.730700  -39.096100
  C    -115.824000   56.718200  -37.373100
  H    -115.225000   56.034600  -38.022500
  H    -116.151000   56.032900  -36.535300
  C    -114.973000   57.817600  -36.939600
  H    -115.525000   58.612600  -36.569200
  H    -114.378000   58.219600  -37.757100
  H    -114.315000   57.365500  -36.205900
  H    -116.960000   51.738000  -39.780800
  H    -120.913000   57.675200  -35.491700

 Total Charge           Charge          ....    0
 Multiplicity           Mult            ....    1
 Number of Electrons    NEL             ....  134
 Basis Dimension        Dim             ....  322

ORBITAL ENERGIES
----------------

  NO   OCC          E(Eh)            E(eV)
   0   2.0000     -88.971370     -2421.0341
   1   2.0000     -88.965795     -2420.8824
   2   2.0000     -10.328882      -281.0632
   3   2.0000     -10.319764      -280.8150
   4   2.0000     -10.312387      -280.6143
   5   2.0000     -10.311270      -280.5839
   6   2.0000     -10.305582      -280.4291
   7   2.0000     -10.303023      -280.3595
   8   2.0000     -10.300015      -280.2777
   9   2.0000     -10.295810      -280.1632
  10   2.0000     -10.294856      -280.1373
  11   2.0000     -10.291665      -280.0504
  12   2.0000     -10.280557      -279.7482
  13   2.0000     -10.279158      -279.7101
  14   2.0000     -10.277446      -279.6635
  15   2.0000     -10.264288      -279.3055
  16   2.0000      -8.084766      -219.9977
  17   2.0000      -8.080617      -219.8848
  18   2.0000      -6.043117      -164.4416
  19   2.0000      -6.039643      -164.3471
  20   2.0000      -6.038970      -164.3287
  21   2.0000      -6.035610      -164.2373
  22   2.0000      -6.035206      -164.2263
  23   2.0000      -6.031455      -164.1242
  24   2.0000      -1.001148       -27.2426
  25   2.0000      -0.979272       -26.6474
  26   2.0000      -0.915314       -24.9070
  27   2.0000      -0.908110       -24.7109
  28   2.0000      -0.865612       -23.5545
  29   2.0000      -0.855412       -23.2770
  30   2.0000      -0.848338       -23.0844
  31   2.0000      -0.809708       -22.0333
  32   2.0000      -0.783740       -21.3266
  33   2.0000      -0.768732       -20.9183
  34   2.0000      -0.706444       -19.2233
  35   2.0000      -0.691117       -18.8062
  36   2.0000      -0.685439       -18.6517
  37   2.0000      -0.664144       -18.0723
  38   2.0000      -0.635294       -17.2872
  39   2.0000      -0.620115       -16.8742
  40   2.0000      -0.592257       -16.1161
  41   2.0000      -0.568021       -15.4566
  42   2.0000      -0.561512       -15.2795
  43   2.0000      -0.551509       -15.0073
  44   2.0000      -0.534490       -14.5442
  45   2.0000      -0.529736       -14.4149
  46   2.0000      -0.524292       -14.2667
  47   2.0000      -0.514192       -13.9919
  48   2.0000      -0.503762       -13.7080
  49   2.0000      -0.489766       -13.3272
  50   2.0000      -0.482938       -13.1414
  51   2.0000      -0.482352       -13.1255
  52   2.0000      -0.467813       -12.7298
  53   2.0000      -0.465751       -12.6737
  54   2.0000      -0.457209       -12.4413
  55   2.0000      -0.456520       -12.4225
  56   2.0000      -0.446596       -12.1525
  57   2.0000      -0.438758       -11.9392
  58   2.0000      -0.432517       -11.7694
  59   2.0000      -0.426071       -11.5940
  60   2.0000      -0.421077       -11.4581
  61   2.0000      -0.409145       -11.1334
  62   2.0000      -0.398255       -10.8371
  63   2.0000      -0.335162        -9.1202
  64   2.0000      -0.327922        -8.9232
  65   2.0000      -0.322379        -8.7724
  66   2.0000      -0.295637        -8.0447
  67   0.0000       0.034882         0.9492
  68   0.0000       0.059759         1.6261
  69   0.0000       0.104252         2.8368
  70   0.0000       0.114619         3.1189
  71   0.0000       0.124747         3.3945

MULLIKEN ATOMIC CHARGES
-----------------------
   0 S :    0.128834
   1 C :   -0.130625
   2 C :   -0.063818
   3 C :    0.022019
   4 C :   -0.180616
   5 H :    0.009990
   6 C :    0.046565
   7 H :    0.052583
   8 H :    0.020706
   9 C :   -0.078296
  10 H :    0.033261
  11 H :    0.027182
  12 C :   -0.058911
  13 H :    0.044661
  14 H :    0.050099
  15 H :    0.030127
  16 S :    0.125787
  17 C :   -0.070536
  18 C :   -0.048691
  19 C :   -0.041046
  20 C :   -0.175616
  21 H :    0.020409
  22 C :    0.069871
  23 H :    0.015633
  24 H :    0.034158
  25 C :   -0.087386
  26 H :    0.029801
  27 H :    0.030911
  28 C :   -0.003396
  29 H :    0.012918
  30 H :    0.031710
  31 H :    0.032233
  32 H :    0.035085
  33 H :    0.034393
Sum of atomic charges:    0.0000000

LOEWDIN ATOMIC CHARGES
----------------------
   0 S :    0.407974
   1 C :   -0.200779
   2 C :   -0.059917
   3 C :   -0.056020
   4 C :   -0.192825
   5 H :    0.028956
   6 C :   -0.029973
   7 H :    0.048344
   8 H :    0.022817
   9 C :   -0.043753
  10 H :    0.027533
  11 H :    0.021733
  12 C :   -0.070022
  13 H :    0.034281
  14 H :    0.030708
  15 H :    0.024038
  16 S :    0.411980
  17 C :   -0.185955
  18 C :   -0.073735
  19 C :   -0.050691
  20 C :   -0.202969
  21 H :    0.031928
  22 C :   -0.037671
  23 H :    0.029758
  24 H :    0.035489
  25 C :   -0.052747
  26 H :    0.027091
  27 H :    0.022983
  28 C :   -0.058251
  29 H :    0.011905
  30 H :    0.028110
  31 H :    0.032412
  32 H :    0.020900
  33 H :    0.016368

  Mayer bond orders larger than 0.100000
B(  0-S ,  1-C ) :   1.1420 B(  0-S ,  4-C ) :   1.1474 B(  1-C ,  2-C ) :   1.6116
B(  1-C ,  4-C ) :   0.1017 B(  1-C , 32-H ) :   0.9635 B(  2-C ,  3-C ) :   1.2527
B(  2-C ,  6-C ) :   0.9921 B(  3-C ,  4-C ) :   1.5719 B(  3-C ,  5-H ) :   0.9914
B(  4-C , 20-C ) :   1.0373 B(  6-C ,  7-H ) :   0.9328 B(  6-C ,  8-H ) :   0.9555
B(  6-C ,  9-C ) :   1.0733 B(  9-C , 10-H ) :   0.9637 B(  9-C , 11-H ) :   0.9612
B(  9-C , 12-C ) :   1.0464 B( 12-C , 13-H ) :   0.9815 B( 12-C , 14-H ) :   0.9819
B( 12-C , 15-H ) :   0.9788 B( 16-S , 17-C ) :   1.1768 B( 16-S , 20-C ) :   1.1230
B( 17-C , 18-C ) :   1.6062 B( 17-C , 33-H ) :   0.9682 B( 18-C , 19-C ) :   1.2239
B( 18-C , 21-H ) :   0.9926 B( 19-C , 20-C ) :   1.6071 B( 19-C , 22-C ) :   1.0725
B( 22-C , 23-H ) :   0.9426 B( 22-C , 24-H ) :   0.9148 B( 22-C , 25-C ) :   1.0397
B( 25-C , 26-H ) :   0.9494 B( 25-C , 27-H ) :   0.9600 B( 25-C , 28-C ) :   1.0931
B( 28-C , 29-H ) :   0.9736 B( 28-C , 30-H ) :   0.9718 B( 28-C , 31-H ) :   0.9673

Dispersion correction           -0.014709068
FINAL SINGLE POINT ENERGY     -1339.859955408328

DIPOLE MOMENT
-------------
                                X             Y             Z
Electronic contribution:     -9.40632      -4.69440      16.58735
Nuclear contribution   :      9.46684       4.71389     -16.93413
                        -----------------------------------------
Total Dipole Moment    :      0.06052       0.01948      -0.34678
                        -----------------------------------------
Magnitude (a.u.)       :      0.35256
Magnitude (Debye)      :      0.89614

Rotational constants in cm-1:     0.018946     0.008409     0.007264
Rotational constants in MHz :   567.973376   252.087101   217.772078

                             ****ORCA TERMINATED NORMALLY****
TOTAL RUN TIME: 0 days 0 hours 0 minutes 21 seconds 619 msec
