                         Program Version 4.2.1 -  RELEASE  -
|  1> ! wB97X-D3 SP def2-SVP
|  2> %pal
|  3> nprocs 24
|  4> end
|  5>
|  6> * xyz 0 1
|  7> S 	 -104.435 	 22.4941 	 -117.039
|  8> C 	 -104.255 	 22.6826 	 -115.322
|  9> C 	 -105.258 	 22.1136 	 -114.567
| 10> C 	 -106.126 	 21.4677 	 -115.484
| 11> C 	 -105.787 	 21.4619 	 -116.821
| 12> H 	 -107.026 	 20.8692 	 -115.203
| 13> C 	 -105.342 	 22.0261 	 -113.071
| 14> H 	 -106.281 	 21.6193 	 -112.704
| 15> H 	 -105.154 	 23.0268 	 -112.718
| 16> C 	 -104.256 	 21.1221 	 -112.518
| 17> H 	 -103.291 	 21.2906 	 -113.001
| 18> H 	 -104.047 	 21.1167 	 -111.431
| 19> C 	 -104.607 	 19.653 	 -112.879
| 20> H 	 -104.538 	 19.4439 	 -113.983
| 21> H 	 -103.826 	 18.9672 	 -112.351
| 22> H 	 -105.626 	 19.5838 	 -112.49
| 23> S 	 -107.19 	 21.5874 	 -119.266
| 24> C 	 -108.001 	 20.1876 	 -119.935
| 25> C 	 -107.596 	 19.1254 	 -119.255
| 26> C 	 -106.655 	 19.4075 	 -118.138
| 27> C 	 -106.457 	 20.7448 	 -117.911
| 28> H 	 -107.963 	 18.1353 	 -119.493
| 29> C 	 -106.288 	 18.2817 	 -117.189
| 30> H 	 -105.387 	 18.441 	 -116.738
| 31> H 	 -106.178 	 17.3934 	 -117.772
| 32> C 	 -107.401 	 17.9404 	 -116.197
| 33> H 	 -108.334 	 17.7894 	 -116.683
| 34> H 	 -107.545 	 18.8073 	 -115.554
| 35> C 	 -107.06 	 16.6879 	 -115.342
| 36> H 	 -106.081 	 16.7069 	 -114.867
| 37> H 	 -107.067 	 15.7769 	 -115.908
| 38> H 	 -107.808 	 16.5606 	 -114.548
| 39> H 	 -103.474 	 23.1832 	 -114.811
| 40> H 	 -108.857 	 20.2091 	 -120.615
| 41> *
| 42>
| 43>                          ****END OF INPUT****

CARTESIAN COORDINATES (ANGSTROEM)
---------------------------------
  S    -104.435000   22.494100  -117.039000
  C    -104.255000   22.682600  -115.322000
  C    -105.258000   22.113600  -114.567000
  C    -106.126000   21.467700  -115.484000
  C    -105.787000   21.461900  -116.821000
  H    -107.026000   20.869200  -115.203000
  C    -105.342000   22.026100  -113.071000
  H    -106.281000   21.619300  -112.704000
  H    -105.154000   23.026800  -112.718000
  C    -104.256000   21.122100  -112.518000
  H    -103.291000   21.290600  -113.001000
  H    -104.047000   21.116700  -111.431000
  C    -104.607000   19.653000  -112.879000
  H    -104.538000   19.443900  -113.983000
  H    -103.826000   18.967200  -112.351000
  H    -105.626000   19.583800  -112.490000
  S    -107.190000   21.587400  -119.266000
  C    -108.001000   20.187600  -119.935000
  C    -107.596000   19.125400  -119.255000
  C    -106.655000   19.407500  -118.138000
  C    -106.457000   20.744800  -117.911000
  H    -107.963000   18.135300  -119.493000
  C    -106.288000   18.281700  -117.189000
  H    -105.387000   18.441000  -116.738000
  H    -106.178000   17.393400  -117.772000
  C    -107.401000   17.940400  -116.197000
  H    -108.334000   17.789400  -116.683000
  H    -107.545000   18.807300  -115.554000
  C    -107.060000   16.687900  -115.342000
  H    -106.081000   16.706900  -114.867000
  H    -107.067000   15.776900  -115.908000
  H    -107.808000   16.560600  -114.548000
  H    -103.474000   23.183200  -114.811000
  H    -108.857000   20.209100  -120.615000

 Total Charge           Charge          ....    0
 Multiplicity           Mult            ....    1
 Number of Electrons    NEL             ....  134
 Basis Dimension        Dim             ....  322

ORBITAL ENERGIES
----------------

  NO   OCC          E(Eh)            E(eV)
   0   2.0000     -88.970613     -2421.0135
   1   2.0000     -88.955018     -2420.5891
   2   2.0000     -10.328700      -281.0582
   3   2.0000     -10.328468      -281.0519
   4   2.0000     -10.315508      -280.6992
   5   2.0000     -10.312136      -280.6075
   6   2.0000     -10.304583      -280.4020
   7   2.0000     -10.302107      -280.3346
   8   2.0000     -10.296903      -280.1930
   9   2.0000     -10.296051      -280.1698
  10   2.0000     -10.292655      -280.0774
  11   2.0000     -10.288565      -279.9661
  12   2.0000     -10.287791      -279.9450
  13   2.0000     -10.283790      -279.8361
  14   2.0000     -10.278741      -279.6988
  15   2.0000     -10.277065      -279.6532
  16   2.0000      -8.085942      -220.0297
  17   2.0000      -8.070499      -219.6094
  18   2.0000      -6.044320      -164.4743
  19   2.0000      -6.040367      -164.3667
  20   2.0000      -6.036788      -164.2693
  21   2.0000      -6.029257      -164.0644
  22   2.0000      -6.024851      -163.9445
  23   2.0000      -6.020952      -163.8384
  24   2.0000      -1.012780       -27.5592
  25   2.0000      -0.991107       -26.9694
  26   2.0000      -0.923802       -25.1379
  27   2.0000      -0.910203       -24.7679
  28   2.0000      -0.873973       -23.7820
  29   2.0000      -0.848986       -23.1021
  30   2.0000      -0.839471       -22.8432
  31   2.0000      -0.819847       -22.3092
  32   2.0000      -0.783723       -21.3262
  33   2.0000      -0.773527       -21.0487
  34   2.0000      -0.709701       -19.3120
  35   2.0000      -0.702195       -19.1077
  36   2.0000      -0.694671       -18.9030
  37   2.0000      -0.660530       -17.9739
  38   2.0000      -0.643271       -17.5043
  39   2.0000      -0.616274       -16.7697
  40   2.0000      -0.599216       -16.3055
  41   2.0000      -0.587661       -15.9911
  42   2.0000      -0.565122       -15.3778
  43   2.0000      -0.559764       -15.2320
  44   2.0000      -0.549047       -14.9403
  45   2.0000      -0.525159       -14.2903
  46   2.0000      -0.517198       -14.0737
  47   2.0000      -0.511077       -13.9071
  48   2.0000      -0.508598       -13.8396
  49   2.0000      -0.500489       -13.6190
  50   2.0000      -0.493250       -13.4220
  51   2.0000      -0.477158       -12.9841
  52   2.0000      -0.471630       -12.8337
  53   2.0000      -0.464791       -12.6476
  54   2.0000      -0.459786       -12.5114
  55   2.0000      -0.447857       -12.1868
  56   2.0000      -0.443526       -12.0690
  57   2.0000      -0.439241       -11.9523
  58   2.0000      -0.435456       -11.8494
  59   2.0000      -0.426830       -11.6146
  60   2.0000      -0.420476       -11.4417
  61   2.0000      -0.419328       -11.4105
  62   2.0000      -0.405427       -11.0322
  63   2.0000      -0.348018        -9.4701
  64   2.0000      -0.335465        -9.1285
  65   2.0000      -0.320505        -8.7214
  66   2.0000      -0.303324        -8.2539
  67   0.0000       0.039584         1.0771
  68   0.0000       0.061179         1.6648
  69   0.0000       0.116698         3.1755
  70   0.0000       0.123027         3.3477
  71   0.0000       0.126022         3.4292

MULLIKEN ATOMIC CHARGES
-----------------------
   0 S :    0.143437
   1 C :   -0.107381
   2 C :   -0.100641
   3 C :    0.007406
   4 C :   -0.165508
   5 H :    0.018962
   6 C :    0.127283
   7 H :    0.025636
   8 H :    0.031069
   9 C :   -0.092883
  10 H :    0.024046
  11 H :    0.040858
  12 C :   -0.115561
  13 H :    0.064588
  14 H :    0.049170
  15 H :    0.028732
  16 S :    0.071579
  17 C :   -0.076022
  18 C :   -0.034624
  19 C :   -0.055199
  20 C :   -0.146733
  21 H :    0.018054
  22 C :    0.123196
  23 H :    0.000055
  24 H :    0.002166
  25 C :   -0.048504
  26 H :    0.016678
  27 H :    0.010364
  28 C :   -0.043778
  29 H :    0.030057
  30 H :    0.023954
  31 H :    0.033048
  32 H :    0.026181
  33 H :    0.070314
Sum of atomic charges:    0.0000000

LOEWDIN ATOMIC CHARGES
----------------------
   0 S :    0.436713
   1 C :   -0.190668
   2 C :   -0.062587
   3 C :   -0.062561
   4 C :   -0.213908
   5 H :    0.031669
   6 C :   -0.024606
   7 H :    0.030834
   8 H :    0.034078
   9 C :   -0.046086
  10 H :    0.020648
  11 H :    0.026765
  12 C :   -0.074182
  13 H :    0.030074
  14 H :    0.035021
  15 H :    0.019630
  16 S :    0.379414
  17 C :   -0.179320
  18 C :   -0.072479
  19 C :   -0.050007
  20 C :   -0.195697
  21 H :    0.028908
  22 C :   -0.022866
  23 H :    0.016135
  24 H :    0.027004
  25 C :   -0.029072
  26 H :    0.019815
  27 H :    0.017670
  28 C :   -0.064846
  29 H :    0.025072
  30 H :    0.020443
  31 H :    0.028305
  32 H :    0.019389
  33 H :    0.041297

  Mayer bond orders larger than 0.100000
B(  0-S ,  1-C ) :   1.1626 B(  0-S ,  4-C ) :   1.1552 B(  1-C ,  2-C ) :   1.5989
B(  1-C , 32-H ) :   0.9628 B(  2-C ,  3-C ) :   1.2579 B(  2-C ,  6-C ) :   1.0196
B(  3-C ,  4-C ) :   1.5826 B(  3-C ,  5-H ) :   0.9845 B(  4-C , 20-C ) :   1.0218
B(  6-C ,  7-H ) :   0.9481 B(  6-C ,  8-H ) :   0.9246 B(  6-C ,  9-C ) :   1.0690
B(  9-C , 10-H ) :   0.9559 B(  9-C , 11-H ) :   0.9602 B(  9-C , 12-C ) :   1.0577
B( 12-C , 13-H ) :   0.9746 B( 12-C , 14-H ) :   0.9738 B( 12-C , 15-H ) :   0.9772
B( 16-S , 17-C ) :   1.1304 B( 16-S , 20-C ) :   1.1156 B( 17-C , 18-C ) :   1.6593
B( 17-C , 33-H ) :   0.9648 B( 18-C , 19-C ) :   1.1873 B( 18-C , 21-H ) :   0.9896
B( 19-C , 20-C ) :   1.6419 B( 19-C , 22-C ) :   1.0718 B( 22-C , 23-H ) :   0.9268
B( 22-C , 24-H ) :   0.9246 B( 22-C , 25-C ) :   1.0667 B( 25-C , 26-H ) :   0.9518
B( 25-C , 27-H ) :   0.9505 B( 25-C , 28-C ) :   1.0811 B( 28-C , 29-H ) :   0.9750
B( 28-C , 30-H ) :   0.9755 B( 28-C , 31-H ) :   0.9741

Dispersion correction           -0.015696867
FINAL SINGLE POINT ENERGY     -1339.872800287327

DIPOLE MOMENT
-------------
                                X             Y             Z
Electronic contribution:      0.23400      20.36537     -24.20111
Nuclear contribution   :     -0.36021     -20.89870      24.81837
                        -----------------------------------------
Total Dipole Moment    :     -0.12621      -0.53334       0.61726
                        -----------------------------------------
Magnitude (a.u.)       :      0.82546
Magnitude (Debye)      :      2.09816

Rotational constants in cm-1:     0.018152     0.010412     0.007135
Rotational constants in MHz :   544.187813   312.131614   213.890758

                             ****ORCA TERMINATED NORMALLY****
TOTAL RUN TIME: 0 days 0 hours 0 minutes 23 seconds 72 msec
