                         Program Version 4.2.1 -  RELEASE  -
|  1> ! wB97X-D3 SP def2-SVP
|  2> %pal
|  3> nprocs 24
|  4> end
|  5>
|  6> * xyz 0 1
|  7> S 	 -52.2021 	 12.4204 	 -98.5546
|  8> C 	 -51.9814 	 10.8245 	 -99.3079
|  9> C 	 -50.7534 	 10.7796 	 -99.9515
| 10> C 	 -49.9405 	 11.8898 	 -99.6906
| 11> C 	 -50.4677 	 12.7322 	 -98.6908
| 12> H 	 -48.9554 	 12.0062 	 -100.122
| 13> C 	 -50.2787 	 9.60824 	 -100.776
| 14> H 	 -50.6821 	 8.61016 	 -100.383
| 15> H 	 -49.2188 	 9.5151 	 -100.67
| 16> C 	 -50.5545 	 9.69343 	 -102.301
| 17> H 	 -50.1685 	 10.617 	 -102.777
| 18> H 	 -50.0099 	 8.81935 	 -102.793
| 19> C 	 -52.0565 	 9.79978 	 -102.742
| 20> H 	 -52.2529 	 9.77341 	 -103.741
| 21> H 	 -52.5539 	 8.95094 	 -102.353
| 22> H 	 -52.4923 	 10.724 	 -102.381
| 23> S 	 -51.2567 	 15.3694 	 -98.0572
| 24> C 	 -49.9948 	 16.52 	 -97.7786
| 25> C 	 -48.6894 	 15.9787 	 -97.898
| 26> C 	 -48.7079 	 14.6244 	 -98.2042
| 27> C 	 -50.0154 	 14.132 	 -98.3458
| 28> H 	 -47.847 	 16.626 	 -97.7796
| 29> C 	 -47.453 	 13.7584 	 -98.3104
| 30> H 	 -47.2354 	 13.5045 	 -99.3399
| 31> H 	 -47.6691 	 12.8287 	 -97.8415
| 32> C 	 -46.2491 	 14.2873 	 -97.6248
| 33> H 	 -46.6116 	 14.4552 	 -96.5499
| 34> H 	 -45.9956 	 15.3367 	 -98.0333
| 35> C 	 -45.1298 	 13.3378 	 -97.6921
| 36> H 	 -44.3379 	 13.6324 	 -97.0092
| 37> H 	 -44.7918 	 13.1967 	 -98.7043
| 38> H 	 -45.3783 	 12.3399 	 -97.3711
| 39> H 	 -52.8447 	 10.2149 	 -99.4223
| 40> H 	 -50.1911 	 17.399 	 -97.1506
| 41> *
| 42>
| 43>                          ****END OF INPUT****

CARTESIAN COORDINATES (ANGSTROEM)
---------------------------------
  S    -52.202100   12.420400  -98.554600
  C    -51.981400   10.824500  -99.307900
  C    -50.753400   10.779600  -99.951500
  C    -49.940500   11.889800  -99.690600
  C    -50.467700   12.732200  -98.690800
  H    -48.955400   12.006200  -100.122000
  C    -50.278700    9.608240  -100.776000
  H    -50.682100    8.610160  -100.383000
  H    -49.218800    9.515100  -100.670000
  C    -50.554500    9.693430  -102.301000
  H    -50.168500   10.617000  -102.777000
  H    -50.009900    8.819350  -102.793000
  C    -52.056500    9.799780  -102.742000
  H    -52.252900    9.773410  -103.741000
  H    -52.553900    8.950940  -102.353000
  H    -52.492300   10.724000  -102.381000
  S    -51.256700   15.369400  -98.057200
  C    -49.994800   16.520000  -97.778600
  C    -48.689400   15.978700  -97.898000
  C    -48.707900   14.624400  -98.204200
  C    -50.015400   14.132000  -98.345800
  H    -47.847000   16.626000  -97.779600
  C    -47.453000   13.758400  -98.310400
  H    -47.235400   13.504500  -99.339900
  H    -47.669100   12.828700  -97.841500
  C    -46.249100   14.287300  -97.624800
  H    -46.611600   14.455200  -96.549900
  H    -45.995600   15.336700  -98.033300
  C    -45.129800   13.337800  -97.692100
  H    -44.337900   13.632400  -97.009200
  H    -44.791800   13.196700  -98.704300
  H    -45.378300   12.339900  -97.371100
  H    -52.844700   10.214900  -99.422300
  H    -50.191100   17.399000  -97.150600

 Total Charge           Charge          ....    0
 Multiplicity           Mult            ....    1
 Number of Electrons    NEL             ....  134
 Basis Dimension        Dim             ....  322

ORBITAL ENERGIES
----------------

  NO   OCC          E(Eh)            E(eV)
   0   2.0000     -88.969513     -2420.9835
   1   2.0000     -88.964806     -2420.8554
   2   2.0000     -10.337000      -281.2841
   3   2.0000     -10.331157      -281.1251
   4   2.0000     -10.317022      -280.7404
   5   2.0000     -10.315190      -280.6906
   6   2.0000     -10.302877      -280.3555
   7   2.0000     -10.301029      -280.3053
   8   2.0000     -10.299065      -280.2518
   9   2.0000     -10.298540      -280.2375
  10   2.0000     -10.296908      -280.1931
  11   2.0000     -10.293097      -280.0894
  12   2.0000     -10.291694      -280.0512
  13   2.0000     -10.285460      -279.8816
  14   2.0000     -10.274383      -279.5802
  15   2.0000     -10.266369      -279.3621
  16   2.0000      -8.083963      -219.9758
  17   2.0000      -8.079243      -219.8474
  18   2.0000      -6.042317      -164.4198
  19   2.0000      -6.038562      -164.3176
  20   2.0000      -6.037702      -164.2942
  21   2.0000      -6.034867      -164.2171
  22   2.0000      -6.034100      -164.1962
  23   2.0000      -6.029784      -164.0788
  24   2.0000      -1.003664       -27.3111
  25   2.0000      -0.983224       -26.7549
  26   2.0000      -0.924543       -25.1581
  27   2.0000      -0.906106       -24.6564
  28   2.0000      -0.860680       -23.4203
  29   2.0000      -0.859227       -23.3807
  30   2.0000      -0.845146       -22.9976
  31   2.0000      -0.810688       -22.0599
  32   2.0000      -0.789340       -21.4790
  33   2.0000      -0.775886       -21.1129
  34   2.0000      -0.703158       -19.1339
  35   2.0000      -0.696362       -18.9490
  36   2.0000      -0.693134       -18.8611
  37   2.0000      -0.652227       -17.7480
  38   2.0000      -0.640739       -17.4354
  39   2.0000      -0.624584       -16.9958
  40   2.0000      -0.601362       -16.3639
  41   2.0000      -0.578009       -15.7284
  42   2.0000      -0.566531       -15.4161
  43   2.0000      -0.549164       -14.9435
  44   2.0000      -0.538605       -14.6562
  45   2.0000      -0.529811       -14.4169
  46   2.0000      -0.518569       -14.1110
  47   2.0000      -0.507856       -13.8195
  48   2.0000      -0.502290       -13.6680
  49   2.0000      -0.495699       -13.4887
  50   2.0000      -0.490852       -13.3568
  51   2.0000      -0.486288       -13.2326
  52   2.0000      -0.470373       -12.7995
  53   2.0000      -0.466735       -12.7005
  54   2.0000      -0.460556       -12.5324
  55   2.0000      -0.456025       -12.4091
  56   2.0000      -0.445783       -12.1304
  57   2.0000      -0.442070       -12.0293
  58   2.0000      -0.432610       -11.7719
  59   2.0000      -0.424827       -11.5601
  60   2.0000      -0.416052       -11.3214
  61   2.0000      -0.414374       -11.2757
  62   2.0000      -0.409159       -11.1338
  63   2.0000      -0.349165        -9.5013
  64   2.0000      -0.340360        -9.2617
  65   2.0000      -0.329208        -8.9582
  66   2.0000      -0.279351        -7.6015
  67   0.0000       0.009984         0.2717
  68   0.0000       0.070145         1.9088
  69   0.0000       0.087047         2.3687
  70   0.0000       0.119858         3.2615
  71   0.0000       0.138135         3.7588

MULLIKEN ATOMIC CHARGES
-----------------------
   0 S :    0.059399
   1 C :   -0.101362
   2 C :   -0.065017
   3 C :    0.010002
   4 C :   -0.094368
   5 H :    0.014406
   6 C :    0.058411
   7 H :    0.041662
   8 H :    0.019121
   9 C :   -0.117398
  10 H :    0.032100
  11 H :    0.042904
  12 C :   -0.011595
  13 H :    0.012860
  14 H :    0.010412
  15 H :    0.038225
  16 S :    0.105834
  17 C :   -0.103611
  18 C :   -0.060456
  19 C :   -0.026312
  20 C :   -0.156245
  21 H :    0.015106
  22 C :    0.075378
  23 H :    0.030885
  24 H :    0.018031
  25 C :   -0.141986
  26 H :    0.040450
  27 H :    0.041873
  28 C :    0.022712
  29 H :    0.034249
  30 H :    0.022423
  31 H :    0.012464
  32 H :    0.047026
  33 H :    0.072419
Sum of atomic charges:   -0.0000000

LOEWDIN ATOMIC CHARGES
----------------------
   0 S :    0.379897
   1 C :   -0.171244
   2 C :   -0.066440
   3 C :   -0.056421
   4 C :   -0.177518
   5 H :    0.030606
   6 C :   -0.033752
   7 H :    0.040387
   8 H :    0.026891
   9 C :   -0.043763
  10 H :    0.024606
  11 H :    0.029813
  12 C :   -0.058946
  13 H :    0.014209
  14 H :    0.016249
  15 H :    0.028050
  16 S :    0.406546
  17 C :   -0.205841
  18 C :   -0.066061
  19 C :   -0.059569
  20 C :   -0.188835
  21 H :    0.029257
  22 C :   -0.033229
  23 H :    0.025508
  24 H :    0.028897
  25 C :   -0.053026
  26 H :    0.033488
  27 H :    0.028058
  28 C :   -0.060670
  29 H :    0.030683
  30 H :    0.025254
  31 H :    0.024222
  32 H :    0.020737
  33 H :    0.031959

  Mayer bond orders larger than 0.100000
B(  0-S ,  1-C ) :   1.1435 B(  0-S ,  4-C ) :   1.1562 B(  1-C ,  2-C ) :   1.5641
B(  1-C ,  4-C ) :   0.1022 B(  1-C , 32-H ) :   0.9793 B(  2-C ,  3-C ) :   1.2908
B(  2-C ,  6-C ) :   1.0179 B(  3-C ,  4-C ) :   1.5133 B(  3-C ,  5-H ) :   0.9869
B(  4-C , 20-C ) :   1.0582 B(  6-C ,  7-H ) :   0.9476 B(  6-C ,  8-H ) :   0.9403
B(  6-C ,  9-C ) :   1.0659 B(  9-C , 10-H ) :   0.9607 B(  9-C , 11-H ) :   0.9584
B(  9-C , 12-C ) :   1.0664 B( 12-C , 13-H ) :   0.9740 B( 12-C , 14-H ) :   0.9761
B( 12-C , 15-H ) :   0.9737 B( 16-S , 17-C ) :   1.1736 B( 16-S , 20-C ) :   1.1527
B( 17-C , 18-C ) :   1.5612 B( 17-C , 20-C ) :   0.1059 B( 17-C , 33-H ) :   0.9558
B( 18-C , 19-C ) :   1.2999 B( 18-C , 21-H ) :   0.9926 B( 19-C , 20-C ) :   1.5699
B( 19-C , 22-C ) :   1.0184 B( 22-C , 23-H ) :   0.9206 B( 22-C , 24-H ) :   0.9290
B( 22-C , 25-C ) :   1.0882 B( 25-C , 26-H ) :   0.9518 B( 25-C , 27-H ) :   0.9386
B( 25-C , 28-C ) :   1.0981 B( 28-C , 29-H ) :   0.9673 B( 28-C , 30-H ) :   0.9667
B( 28-C , 31-H ) :   0.9654

Dispersion correction           -0.013811445
FINAL SINGLE POINT ENERGY     -1339.858125708217

DIPOLE MOMENT
-------------
                                X             Y             Z
Electronic contribution:    -18.85568      13.75324      10.90011
Nuclear contribution   :     19.38790     -14.10005     -11.16865
                        -----------------------------------------
Total Dipole Moment    :      0.53222      -0.34681      -0.26854
                        -----------------------------------------
Magnitude (a.u.)       :      0.68967
Magnitude (Debye)      :      1.75301

Rotational constants in cm-1:     0.018528     0.008321     0.006260
Rotational constants in MHz :   555.460442   249.446620   187.684633

                             ****ORCA TERMINATED NORMALLY****
TOTAL RUN TIME: 0 days 0 hours 0 minutes 21 seconds 331 msec
