                         Program Version 4.2.1 -  RELEASE  -
|  1> ! wB97X-D3 SP def2-SVP
|  2> %pal
|  3> nprocs 24
|  4> end
|  5>
|  6> * xyz 0 1
|  7> S 	 -57.2512 	 0.33127 	 -31.7613
|  8> C 	 -57.1406 	 -0.521867 	 -33.3359
|  9> C 	 -56.2863 	 0.217424 	 -34.1881
| 10> C 	 -55.8131 	 1.41649 	 -33.6378
| 11> C 	 -56.2261 	 1.63726 	 -32.3252
| 12> H 	 -55.2689 	 2.13446 	 -34.2271
| 13> C 	 -55.7786 	 -0.157384 	 -35.6125
| 14> H 	 -55.2818 	 -1.15458 	 -35.3766
| 15> H 	 -54.9706 	 0.492012 	 -35.8986
| 16> C 	 -56.7675 	 -0.304228 	 -36.8123
| 17> H 	 -56.2058 	 -0.786625 	 -37.5866
| 18> H 	 -57.7168 	 -0.880998 	 -36.6896
| 19> C 	 -57.1808 	 1.07947 	 -37.2391
| 20> H 	 -58.0026 	 1.10461 	 -37.9458
| 21> H 	 -57.533 	 1.73548 	 -36.3662
| 22> H 	 -56.3374 	 1.59804 	 -37.7059
| 23> S 	 -56.8789 	 3.18589 	 -30.0584
| 24> C 	 -55.5825 	 4.16132 	 -29.4945
| 25> C 	 -54.3324 	 3.86404 	 -29.9882
| 26> C 	 -54.4238 	 2.97243 	 -31.0931
| 27> C 	 -55.7693 	 2.62504 	 -31.3499
| 28> H 	 -53.473 	 4.4092 	 -29.6328
| 29> C 	 -53.1626 	 2.49168 	 -31.8871
| 30> H 	 -53.323 	 1.48859 	 -32.33
| 31> H 	 -52.2466 	 2.34737 	 -31.3009
| 32> C 	 -52.7243 	 3.47484 	 -33.0275
| 33> H 	 -52.4843 	 4.44929 	 -32.6115
| 34> H 	 -53.6685 	 3.63014 	 -33.6733
| 35> C 	 -51.6535 	 2.91374 	 -33.92
| 36> H 	 -51.0433 	 2.22661 	 -33.2388
| 37> H 	 -50.9625 	 3.6226 	 -34.2993
| 38> H 	 -51.9557 	 2.20765 	 -34.6813
| 39> H 	 -57.6276 	 -1.39653 	 -33.6565
| 40> H 	 -55.5544 	 4.76306 	 -28.6136
| 41> *
| 42>
| 43>                          ****END OF INPUT****

CARTESIAN COORDINATES (ANGSTROEM)
---------------------------------
  S    -57.251200    0.331270  -31.761300
  C    -57.140600   -0.521867  -33.335900
  C    -56.286300    0.217424  -34.188100
  C    -55.813100    1.416490  -33.637800
  C    -56.226100    1.637260  -32.325200
  H    -55.268900    2.134460  -34.227100
  C    -55.778600   -0.157384  -35.612500
  H    -55.281800   -1.154580  -35.376600
  H    -54.970600    0.492012  -35.898600
  C    -56.767500   -0.304228  -36.812300
  H    -56.205800   -0.786625  -37.586600
  H    -57.716800   -0.880998  -36.689600
  C    -57.180800    1.079470  -37.239100
  H    -58.002600    1.104610  -37.945800
  H    -57.533000    1.735480  -36.366200
  H    -56.337400    1.598040  -37.705900
  S    -56.878900    3.185890  -30.058400
  C    -55.582500    4.161320  -29.494500
  C    -54.332400    3.864040  -29.988200
  C    -54.423800    2.972430  -31.093100
  C    -55.769300    2.625040  -31.349900
  H    -53.473000    4.409200  -29.632800
  C    -53.162600    2.491680  -31.887100
  H    -53.323000    1.488590  -32.330000
  H    -52.246600    2.347370  -31.300900
  C    -52.724300    3.474840  -33.027500
  H    -52.484300    4.449290  -32.611500
  H    -53.668500    3.630140  -33.673300
  C    -51.653500    2.913740  -33.920000
  H    -51.043300    2.226610  -33.238800
  H    -50.962500    3.622600  -34.299300
  H    -51.955700    2.207650  -34.681300
  H    -57.627600   -1.396530  -33.656500
  H    -55.554400    4.763060  -28.613600

 Total Charge           Charge          ....    0
 Multiplicity           Mult            ....    1
 Number of Electrons    NEL             ....  134
 Basis Dimension        Dim             ....  322

ORBITAL ENERGIES
----------------

  NO   OCC          E(Eh)            E(eV)
   0   2.0000     -88.974251     -2421.1125
   1   2.0000     -88.968302     -2420.9506
   2   2.0000     -10.332570      -281.1635
   3   2.0000     -10.330660      -281.1116
   4   2.0000     -10.315222      -280.6915
   5   2.0000     -10.313265      -280.6382
   6   2.0000     -10.312903      -280.6283
   7   2.0000     -10.303294      -280.3669
   8   2.0000     -10.300567      -280.2927
   9   2.0000     -10.300372      -280.2874
  10   2.0000     -10.293274      -280.0942
  11   2.0000     -10.293132      -280.0904
  12   2.0000     -10.290145      -280.0091
  13   2.0000     -10.289704      -279.9971
  14   2.0000     -10.280316      -279.7416
  15   2.0000     -10.277636      -279.6687
  16   2.0000      -8.088651      -220.1034
  17   2.0000      -8.081971      -219.9216
  18   2.0000      -6.047054      -164.5487
  19   2.0000      -6.043530      -164.4528
  20   2.0000      -6.040562      -164.3721
  21   2.0000      -6.039217      -164.3354
  22   2.0000      -6.036581      -164.2637
  23   2.0000      -6.032756      -164.1596
  24   2.0000      -1.003984       -27.3198
  25   2.0000      -0.979882       -26.6640
  26   2.0000      -0.907993       -24.7078
  27   2.0000      -0.906326       -24.6624
  28   2.0000      -0.866593       -23.5812
  29   2.0000      -0.856089       -23.2954
  30   2.0000      -0.845243       -23.0002
  31   2.0000      -0.809710       -22.0333
  32   2.0000      -0.782377       -21.2896
  33   2.0000      -0.768809       -20.9204
  34   2.0000      -0.706551       -19.2262
  35   2.0000      -0.700060       -19.0496
  36   2.0000      -0.692200       -18.8357
  37   2.0000      -0.658284       -17.9128
  38   2.0000      -0.636326       -17.3153
  39   2.0000      -0.617487       -16.8027
  40   2.0000      -0.597614       -16.2619
  41   2.0000      -0.572325       -15.5738
  42   2.0000      -0.563140       -15.3238
  43   2.0000      -0.548501       -14.9255
  44   2.0000      -0.539590       -14.6830
  45   2.0000      -0.520990       -14.1769
  46   2.0000      -0.516909       -14.0658
  47   2.0000      -0.510827       -13.9003
  48   2.0000      -0.501092       -13.6354
  49   2.0000      -0.495627       -13.4867
  50   2.0000      -0.484603       -13.1867
  51   2.0000      -0.477814       -13.0020
  52   2.0000      -0.472393       -12.8545
  53   2.0000      -0.467307       -12.7161
  54   2.0000      -0.464000       -12.6261
  55   2.0000      -0.449029       -12.2187
  56   2.0000      -0.438186       -11.9236
  57   2.0000      -0.436305       -11.8725
  58   2.0000      -0.433926       -11.8077
  59   2.0000      -0.429747       -11.6940
  60   2.0000      -0.423396       -11.5212
  61   2.0000      -0.414339       -11.2747
  62   2.0000      -0.405533       -11.0351
  63   2.0000      -0.345327        -9.3968
  64   2.0000      -0.337950        -9.1961
  65   2.0000      -0.333066        -9.0632
  66   2.0000      -0.283154        -7.7050
  67   0.0000       0.020079         0.5464
  68   0.0000       0.065680         1.7873
  69   0.0000       0.093064         2.5324
  70   0.0000       0.119147         3.2422
  71   0.0000       0.130763         3.5582

MULLIKEN ATOMIC CHARGES
-----------------------
   0 S :    0.098537
   1 C :   -0.097920
   2 C :   -0.100379
   3 C :    0.004259
   4 C :   -0.113793
   5 H :    0.004670
   6 C :    0.025815
   7 H :    0.047095
   8 H :    0.016550
   9 C :   -0.030023
  10 H :    0.026730
  11 H :    0.039256
  12 C :   -0.087698
  13 H :    0.030046
  14 H :    0.049831
  15 H :    0.024379
  16 S :    0.121357
  17 C :   -0.057062
  18 C :   -0.046899
  19 C :   -0.009856
  20 C :   -0.157968
  21 H :    0.020784
  22 C :    0.026550
  23 H :    0.039473
  24 H :    0.029038
  25 C :   -0.095937
  26 H :    0.029418
  27 H :    0.035621
  28 C :   -0.024634
  29 H :    0.014521
  30 H :    0.035172
  31 H :    0.034276
  32 H :    0.026215
  33 H :    0.042577
Sum of atomic charges:    0.0000000

LOEWDIN ATOMIC CHARGES
----------------------
   0 S :    0.393667
   1 C :   -0.191586
   2 C :   -0.058253
   3 C :   -0.075816
   4 C :   -0.181687
   5 H :    0.027914
   6 C :   -0.030753
   7 H :    0.040958
   8 H :    0.025825
   9 C :   -0.043180
  10 H :    0.023355
  11 H :    0.030485
  12 C :   -0.074602
  13 H :    0.020922
  14 H :    0.036102
  15 H :    0.021519
  16 S :    0.406343
  17 C :   -0.188558
  18 C :   -0.068885
  19 C :   -0.038381
  20 C :   -0.192397
  21 H :    0.032712
  22 C :   -0.033878
  23 H :    0.032443
  24 H :    0.028794
  25 C :   -0.046236
  26 H :    0.022381
  27 H :    0.026320
  28 C :   -0.069353
  29 H :    0.029893
  30 H :    0.023780
  31 H :    0.025817
  32 H :    0.019369
  33 H :    0.024967

  Mayer bond orders larger than 0.100000
B(  0-S ,  1-C ) :   1.1256 B(  0-S ,  4-C ) :   1.1654 B(  1-C ,  2-C ) :   1.5884
B(  1-C ,  4-C ) :   0.1107 B(  1-C , 32-H ) :   0.9783 B(  2-C ,  3-C ) :   1.2739
B(  2-C ,  6-C ) :   1.0038 B(  3-C ,  4-C ) :   1.5299 B(  3-C ,  5-H ) :   0.9986
B(  4-C , 20-C ) :   1.0639 B(  6-C ,  7-H ) :   0.9403 B(  6-C ,  8-H ) :   0.9487
B(  6-C ,  9-C ) :   1.0596 B(  9-C , 10-H ) :   0.9522 B(  9-C , 11-H ) :   0.9621
B(  9-C , 12-C ) :   1.0711 B( 12-C , 13-H ) :   0.9751 B( 12-C , 14-H ) :   0.9762
B( 12-C , 15-H ) :   0.9749 B( 16-S , 17-C ) :   1.1556 B( 16-S , 20-C ) :   1.1272
B( 17-C , 18-C ) :   1.6341 B( 17-C , 33-H ) :   0.9603 B( 18-C , 19-C ) :   1.2448
B( 18-C , 21-H ) :   0.9897 B( 19-C , 20-C ) :   1.5707 B( 19-C , 22-C ) :   1.0366
B( 22-C , 23-H ) :   0.9362 B( 22-C , 24-H ) :   0.9386 B( 22-C , 25-C ) :   1.0550
B( 25-C , 26-H ) :   0.9567 B( 25-C , 27-H ) :   0.9543 B( 25-C , 28-C ) :   1.0750
B( 28-C , 29-H ) :   0.9688 B( 28-C , 30-H ) :   0.9737 B( 28-C , 31-H ) :   0.9726

Dispersion correction           -0.014599686
FINAL SINGLE POINT ENERGY     -1339.864368588215

DIPOLE MOMENT
-------------
                                X             Y             Z
Electronic contribution:    -16.21822       0.73065      26.23378
Nuclear contribution   :     16.83399      -0.71669     -26.59052
                        -----------------------------------------
Total Dipole Moment    :      0.61576       0.01396      -0.35673
                        -----------------------------------------
Magnitude (a.u.)       :      0.71177
Magnitude (Debye)      :      1.80917

Rotational constants in cm-1:     0.017696     0.009277     0.006776
Rotational constants in MHz :   530.505426   278.126297   203.139552

                             ****ORCA TERMINATED NORMALLY****
TOTAL RUN TIME: 0 days 0 hours 0 minutes 21 seconds 860 msec
