                         Program Version 4.2.1 -  RELEASE  -
|  1> ! wB97X-D3 SP def2-SVP
|  2> %pal
|  3> nprocs 24
|  4> end
|  5>
|  6> * xyz 0 1
|  7> S 	 42.0108 	 -18.0814 	 -127.252
|  8> C 	 42.5882 	 -16.4292 	 -127.365
|  9> C 	 42.2433 	 -15.663 	 -126.237
| 10> C 	 41.6903 	 -16.5314 	 -125.212
| 11> C 	 41.5059 	 -17.8779 	 -125.584
| 12> H 	 41.5175 	 -16.2463 	 -124.142
| 13> C 	 42.6769 	 -14.2127 	 -126.04
| 14> H 	 43.0566 	 -13.7804 	 -127.018
| 15> H 	 43.5265 	 -14.2396 	 -125.349
| 16> C 	 41.5233 	 -13.2538 	 -125.6
| 17> H 	 41.3073 	 -13.4359 	 -124.599
| 18> H 	 42.0472 	 -12.329 	 -125.632
| 19> C 	 40.1998 	 -13.1649 	 -126.423
| 20> H 	 39.5781 	 -12.3304 	 -126.085
| 21> H 	 40.4121 	 -12.9624 	 -127.505
| 22> H 	 39.6155 	 -14.0951 	 -126.287
| 23> S 	 42.1317 	 -20.285 	 -124.435
| 24> C 	 41.2556 	 -20.8221 	 -123.035
| 25> C 	 40.3123 	 -19.9131 	 -122.615
| 26> C 	 40.2673 	 -18.8285 	 -123.553
| 27> C 	 41.1174 	 -18.8879 	 -124.606
| 28> H 	 39.5751 	 -20.0465 	 -121.843
| 29> C 	 39.1883 	 -17.7506 	 -123.421
| 30> H 	 39.45 	 -16.8392 	 -124.02
| 31> H 	 39.1589 	 -17.3996 	 -122.43
| 32> C 	 37.8838 	 -18.2577 	 -124.035
| 33> H 	 37.7174 	 -19.3365 	 -123.84
| 34> H 	 37.9079 	 -18.1142 	 -125.115
| 35> C 	 36.684 	 -17.4875 	 -123.494
| 36> H 	 36.8187 	 -16.4141 	 -123.468
| 37> H 	 36.6168 	 -17.6851 	 -122.447
| 38> H 	 35.7829 	 -17.6495 	 -124.055
| 39> H 	 43.0682 	 -16.0497 	 -128.279
| 40> H 	 41.3912 	 -21.817 	 -122.561
| 41> *
| 42>
| 43>                          ****END OF INPUT****

CARTESIAN COORDINATES (ANGSTROEM)
---------------------------------
  S     42.010800  -18.081400  -127.252000
  C     42.588200  -16.429200  -127.365000
  C     42.243300  -15.663000  -126.237000
  C     41.690300  -16.531400  -125.212000
  C     41.505900  -17.877900  -125.584000
  H     41.517500  -16.246300  -124.142000
  C     42.676900  -14.212700  -126.040000
  H     43.056600  -13.780400  -127.018000
  H     43.526500  -14.239600  -125.349000
  C     41.523300  -13.253800  -125.600000
  H     41.307300  -13.435900  -124.599000
  H     42.047200  -12.329000  -125.632000
  C     40.199800  -13.164900  -126.423000
  H     39.578100  -12.330400  -126.085000
  H     40.412100  -12.962400  -127.505000
  H     39.615500  -14.095100  -126.287000
  S     42.131700  -20.285000  -124.435000
  C     41.255600  -20.822100  -123.035000
  C     40.312300  -19.913100  -122.615000
  C     40.267300  -18.828500  -123.553000
  C     41.117400  -18.887900  -124.606000
  H     39.575100  -20.046500  -121.843000
  C     39.188300  -17.750600  -123.421000
  H     39.450000  -16.839200  -124.020000
  H     39.158900  -17.399600  -122.430000
  C     37.883800  -18.257700  -124.035000
  H     37.717400  -19.336500  -123.840000
  H     37.907900  -18.114200  -125.115000
  C     36.684000  -17.487500  -123.494000
  H     36.818700  -16.414100  -123.468000
  H     36.616800  -17.685100  -122.447000
  H     35.782900  -17.649500  -124.055000
  H     43.068200  -16.049700  -128.279000
  H     41.391200  -21.817000  -122.561000

 Total Charge           Charge          ....    0
 Multiplicity           Mult            ....    1
 Number of Electrons    NEL             ....  134
 Basis Dimension        Dim             ....  322

ORBITAL ENERGIES
----------------

  NO   OCC          E(Eh)            E(eV)
   0   2.0000     -88.969481     -2420.9827
   1   2.0000     -88.962239     -2420.7856
   2   2.0000     -10.332719      -281.1676
   3   2.0000     -10.320799      -280.8432
   4   2.0000     -10.320325      -280.8303
   5   2.0000     -10.319162      -280.7987
   6   2.0000     -10.307583      -280.4836
   7   2.0000     -10.302949      -280.3575
   8   2.0000     -10.301297      -280.3125
   9   2.0000     -10.297185      -280.2006
  10   2.0000     -10.294405      -280.1250
  11   2.0000     -10.286493      -279.9097
  12   2.0000     -10.285344      -279.8784
  13   2.0000     -10.283639      -279.8321
  14   2.0000     -10.282619      -279.8043
  15   2.0000     -10.268505      -279.4202
  16   2.0000      -8.083648      -219.9672
  17   2.0000      -8.077830      -219.8089
  18   2.0000      -6.042200      -164.4166
  19   2.0000      -6.038161      -164.3067
  20   2.0000      -6.036328      -164.2568
  21   2.0000      -6.034483      -164.2066
  22   2.0000      -6.032205      -164.1446
  23   2.0000      -6.028553      -164.0453
  24   2.0000      -1.008691       -27.4479
  25   2.0000      -0.981993       -26.7214
  26   2.0000      -0.909282       -24.7428
  27   2.0000      -0.906096       -24.6561
  28   2.0000      -0.869767       -23.6676
  29   2.0000      -0.850445       -23.1418
  30   2.0000      -0.841496       -22.8983
  31   2.0000      -0.810955       -22.0672
  32   2.0000      -0.781961       -21.2782
  33   2.0000      -0.771067       -20.9818
  34   2.0000      -0.706511       -19.2251
  35   2.0000      -0.697222       -18.9724
  36   2.0000      -0.691348       -18.8125
  37   2.0000      -0.666328       -18.1317
  38   2.0000      -0.634715       -17.2715
  39   2.0000      -0.616608       -16.7787
  40   2.0000      -0.596533       -16.2325
  41   2.0000      -0.567664       -15.4469
  42   2.0000      -0.560694       -15.2573
  43   2.0000      -0.553184       -15.0529
  44   2.0000      -0.537536       -14.6271
  45   2.0000      -0.530265       -14.4293
  46   2.0000      -0.514022       -13.9872
  47   2.0000      -0.507561       -13.8114
  48   2.0000      -0.503222       -13.6934
  49   2.0000      -0.497952       -13.5500
  50   2.0000      -0.488040       -13.2802
  51   2.0000      -0.478393       -13.0177
  52   2.0000      -0.471826       -12.8390
  53   2.0000      -0.463708       -12.6181
  54   2.0000      -0.455533       -12.3957
  55   2.0000      -0.449777       -12.2390
  56   2.0000      -0.447796       -12.1851
  57   2.0000      -0.442262       -12.0346
  58   2.0000      -0.438258       -11.9256
  59   2.0000      -0.426489       -11.6053
  60   2.0000      -0.414788       -11.2869
  61   2.0000      -0.409176       -11.1342
  62   2.0000      -0.407339       -11.0843
  63   2.0000      -0.350961        -9.5501
  64   2.0000      -0.329792        -8.9741
  65   2.0000      -0.328488        -8.9386
  66   2.0000      -0.290980        -7.9180
  67   0.0000       0.027910         0.7595
  68   0.0000       0.078107         2.1254
  69   0.0000       0.114683         3.1207
  70   0.0000       0.118133         3.2146
  71   0.0000       0.128266         3.4903

MULLIKEN ATOMIC CHARGES
-----------------------
   0 S :    0.116884
   1 C :   -0.147211
   2 C :   -0.067931
   3 C :   -0.008160
   4 C :   -0.152102
   5 H :    0.043522
   6 C :    0.027925
   7 H :    0.024660
   8 H :    0.052973
   9 C :   -0.056919
  10 H :    0.015911
  11 H :    0.021244
  12 C :   -0.064977
  13 H :    0.039529
  14 H :    0.038094
  15 H :    0.051506
  16 S :    0.102698
  17 C :   -0.101717
  18 C :   -0.001340
  19 C :   -0.104350
  20 C :   -0.116105
  21 H :    0.018433
  22 C :    0.049786
  23 H :    0.026962
  24 H :    0.012669
  25 C :   -0.064660
  26 H :    0.035843
  27 H :    0.035124
  28 C :   -0.023644
  29 H :    0.011382
  30 H :    0.016266
  31 H :    0.034620
  32 H :    0.061913
  33 H :    0.071170
Sum of atomic charges:   -0.0000000

LOEWDIN ATOMIC CHARGES
----------------------
   0 S :    0.403323
   1 C :   -0.199980
   2 C :   -0.067216
   3 C :   -0.065706
   4 C :   -0.201371
   5 H :    0.037947
   6 C :   -0.029825
   7 H :    0.033253
   8 H :    0.038168
   9 C :   -0.038683
  10 H :    0.012299
  11 H :    0.022380
  12 C :   -0.067042
  13 H :    0.029505
  14 H :    0.029912
  15 H :    0.030730
  16 S :    0.413800
  17 C :   -0.184229
  18 C :   -0.070795
  19 C :   -0.057431
  20 C :   -0.206884
  21 H :    0.032481
  22 C :   -0.033167
  23 H :    0.035069
  24 H :    0.018294
  25 C :   -0.035701
  26 H :    0.024790
  27 H :    0.027209
  28 C :   -0.064881
  29 H :    0.021219
  30 H :    0.020053
  31 H :    0.024047
  32 H :    0.031711
  33 H :    0.036722

  Mayer bond orders larger than 0.100000
B(  0-S ,  1-C ) :   1.1461 B(  0-S ,  4-C ) :   1.1464 B(  1-C ,  2-C ) :   1.5882
B(  1-C , 32-H ) :   0.9648 B(  2-C ,  3-C ) :   1.2420 B(  2-C ,  6-C ) :   1.0245
B(  3-C ,  4-C ) :   1.5678 B(  3-C ,  5-H ) :   0.9747 B(  4-C , 20-C ) :   1.0406
B(  6-C ,  7-H ) :   0.9455 B(  6-C ,  8-H ) :   0.9453 B(  6-C ,  9-C ) :   1.0612
B(  9-C , 10-H ) :   0.9572 B(  9-C , 11-H ) :   0.9579 B(  9-C , 12-C ) :   1.0751
B( 12-C , 13-H ) :   0.9739 B( 12-C , 14-H ) :   0.9758 B( 12-C , 15-H ) :   0.9731
B( 16-S , 17-C ) :   1.1716 B( 16-S , 20-C ) :   1.1201 B( 17-C , 18-C ) :   1.5896
B( 17-C , 33-H ) :   0.9616 B( 18-C , 19-C ) :   1.2462 B( 18-C , 21-H ) :   0.9941
B( 19-C , 20-C ) :   1.6304 B( 19-C , 22-C ) :   1.0451 B( 22-C , 23-H ) :   0.9301
B( 22-C , 24-H ) :   0.9440 B( 22-C , 25-C ) :   1.0479 B( 25-C , 26-H ) :   0.9649
B( 25-C , 27-H ) :   0.9547 B( 25-C , 28-C ) :   1.0786 B( 28-C , 29-H ) :   0.9700
B( 28-C , 30-H ) :   0.9764 B( 28-C , 31-H ) :   0.9736

Dispersion correction           -0.014454564
FINAL SINGLE POINT ENERGY     -1339.881989268843

DIPOLE MOMENT
-------------
                                X             Y             Z
Electronic contribution:     17.48500     -23.08261      -5.73661
Nuclear contribution   :    -17.68411      23.66247       6.07468
                        -----------------------------------------
Total Dipole Moment    :     -0.19911       0.57986       0.33807
                        -----------------------------------------
Magnitude (a.u.)       :      0.70012
Magnitude (Debye)      :      1.77958

Rotational constants in cm-1:     0.017024     0.009592     0.007037
Rotational constants in MHz :   510.365104   287.567317   210.959849

                             ****ORCA TERMINATED NORMALLY****
TOTAL RUN TIME: 0 days 0 hours 0 minutes 21 seconds 987 msec
