                         Program Version 4.2.1 -  RELEASE  -
|  1> ! wB97X-D3 SP def2-SVP
|  2> %pal
|  3> nprocs 24
|  4> end
|  5>
|  6> * xyz 0 1
|  7> S 	 -0.478678 	 -22.6881 	 -104.731
|  8> C 	 0.159739 	 -23.1523 	 -106.265
|  9> C 	 -0.788011 	 -23.3015 	 -107.252
| 10> C 	 -2.08398 	 -23.0305 	 -106.782
| 11> C 	 -2.17495 	 -22.6869 	 -105.449
| 12> H 	 -2.99391 	 -23.0078 	 -107.389
| 13> C 	 -0.469099 	 -23.8515 	 -108.667
| 14> H 	 -1.23054 	 -23.876 	 -109.438
| 15> H 	 -0.271307 	 -24.9803 	 -108.486
| 16> C 	 0.803754 	 -23.1823 	 -109.33
| 17> H 	 0.74661 	 -22.0802 	 -109.124
| 18> H 	 1.69716 	 -23.5865 	 -108.828
| 19> C 	 0.803059 	 -23.5234 	 -110.795
| 20> H 	 0.118047 	 -22.8868 	 -111.288
| 21> H 	 1.73602 	 -23.1959 	 -111.159
| 22> H 	 0.652747 	 -24.5551 	 -110.963
| 23> S 	 -3.18933 	 -20.5223 	 -104.237
| 24> C 	 -4.62149 	 -20.6587 	 -103.309
| 25> C 	 -5.23411 	 -21.8667 	 -103.475
| 26> C 	 -4.44645 	 -22.79 	 -104.242
| 27> C 	 -3.31496 	 -22.1725 	 -104.738
| 28> H 	 -6.2275 	 -22.1709 	 -103.13
| 29> C 	 -4.86587 	 -24.2619 	 -104.466
| 30> H 	 -4.20286 	 -24.7148 	 -105.197
| 31> H 	 -5.81708 	 -24.2068 	 -105.026
| 32> C 	 -4.69656 	 -25.144 	 -103.344
| 33> H 	 -3.77339 	 -24.9149 	 -102.773
| 34> H 	 -4.37722 	 -26.1921 	 -103.602
| 35> C 	 -5.79639 	 -25.2297 	 -102.403
| 36> H 	 -5.56967 	 -25.9124 	 -101.63
| 37> H 	 -6.61371 	 -25.7972 	 -102.712
| 38> H 	 -6.04175 	 -24.2085 	 -102.099
| 39> H 	 1.14053 	 -23.5449 	 -106.366
| 40> H 	 -5.25689 	 -19.9418 	 -102.819
| 41> *
| 42>
| 43>                          ****END OF INPUT****

CARTESIAN COORDINATES (ANGSTROEM)
---------------------------------
  S     -0.478678  -22.688100  -104.731000
  C      0.159739  -23.152300  -106.265000
  C     -0.788011  -23.301500  -107.252000
  C     -2.083980  -23.030500  -106.782000
  C     -2.174950  -22.686900  -105.449000
  H     -2.993910  -23.007800  -107.389000
  C     -0.469099  -23.851500  -108.667000
  H     -1.230540  -23.876000  -109.438000
  H     -0.271307  -24.980300  -108.486000
  C      0.803754  -23.182300  -109.330000
  H      0.746610  -22.080200  -109.124000
  H      1.697160  -23.586500  -108.828000
  C      0.803059  -23.523400  -110.795000
  H      0.118047  -22.886800  -111.288000
  H      1.736020  -23.195900  -111.159000
  H      0.652747  -24.555100  -110.963000
  S     -3.189330  -20.522300  -104.237000
  C     -4.621490  -20.658700  -103.309000
  C     -5.234110  -21.866700  -103.475000
  C     -4.446450  -22.790000  -104.242000
  C     -3.314960  -22.172500  -104.738000
  H     -6.227500  -22.170900  -103.130000
  C     -4.865870  -24.261900  -104.466000
  H     -4.202860  -24.714800  -105.197000
  H     -5.817080  -24.206800  -105.026000
  C     -4.696560  -25.144000  -103.344000
  H     -3.773390  -24.914900  -102.773000
  H     -4.377220  -26.192100  -103.602000
  C     -5.796390  -25.229700  -102.403000
  H     -5.569670  -25.912400  -101.630000
  H     -6.613710  -25.797200  -102.712000
  H     -6.041750  -24.208500  -102.099000
  H      1.140530  -23.544900  -106.366000
  H     -5.256890  -19.941800  -102.819000

 Total Charge           Charge          ....    0
 Multiplicity           Mult            ....    1
 Number of Electrons    NEL             ....  134
 Basis Dimension        Dim             ....  322

ORBITAL ENERGIES
----------------

  NO   OCC          E(Eh)            E(eV)
   0   2.0000     -88.966652     -2420.9057
   1   2.0000     -88.964751     -2420.8539
   2   2.0000     -10.329922      -281.0915
   3   2.0000     -10.319595      -280.8105
   4   2.0000     -10.310646      -280.5670
   5   2.0000     -10.308825      -280.5174
   6   2.0000     -10.300952      -280.3032
   7   2.0000     -10.300560      -280.2925
   8   2.0000     -10.300059      -280.2788
   9   2.0000     -10.293924      -280.1119
  10   2.0000     -10.290107      -280.0081
  11   2.0000     -10.289826      -280.0004
  12   2.0000     -10.285549      -279.8840
  13   2.0000     -10.275448      -279.6092
  14   2.0000     -10.267495      -279.3927
  15   2.0000     -10.259024      -279.1622
  16   2.0000      -8.082245      -219.9291
  17   2.0000      -8.078641      -219.8310
  18   2.0000      -6.040764      -164.3775
  19   2.0000      -6.037179      -164.2800
  20   2.0000      -6.036608      -164.2644
  21   2.0000      -6.033303      -164.1745
  22   2.0000      -6.032941      -164.1647
  23   2.0000      -6.029389      -164.0680
  24   2.0000      -1.009102       -27.4591
  25   2.0000      -0.983836       -26.7715
  26   2.0000      -0.925556       -25.1857
  27   2.0000      -0.907104       -24.6836
  28   2.0000      -0.873406       -23.7666
  29   2.0000      -0.855123       -23.2691
  30   2.0000      -0.849607       -23.1190
  31   2.0000      -0.817095       -22.2343
  32   2.0000      -0.790772       -21.5180
  33   2.0000      -0.768262       -20.9055
  34   2.0000      -0.708423       -19.2772
  35   2.0000      -0.697283       -18.9740
  36   2.0000      -0.688148       -18.7255
  37   2.0000      -0.661568       -18.0022
  38   2.0000      -0.642906       -17.4944
  39   2.0000      -0.614814       -16.7300
  40   2.0000      -0.598532       -16.2869
  41   2.0000      -0.571153       -15.5419
  42   2.0000      -0.569962       -15.5094
  43   2.0000      -0.565235       -15.3808
  44   2.0000      -0.538711       -14.6591
  45   2.0000      -0.527995       -14.3675
  46   2.0000      -0.522123       -14.2077
  47   2.0000      -0.517346       -14.0777
  48   2.0000      -0.505662       -13.7598
  49   2.0000      -0.499637       -13.5958
  50   2.0000      -0.491154       -13.3650
  51   2.0000      -0.477367       -12.9898
  52   2.0000      -0.473651       -12.8887
  53   2.0000      -0.466988       -12.7074
  54   2.0000      -0.455726       -12.4009
  55   2.0000      -0.448952       -12.2166
  56   2.0000      -0.446332       -12.1453
  57   2.0000      -0.434427       -11.8214
  58   2.0000      -0.430940       -11.7265
  59   2.0000      -0.425816       -11.5870
  60   2.0000      -0.414727       -11.2853
  61   2.0000      -0.410854       -11.1799
  62   2.0000      -0.389868       -10.6088
  63   2.0000      -0.345508        -9.4017
  64   2.0000      -0.333866        -9.0849
  65   2.0000      -0.325299        -8.8518
  66   2.0000      -0.295890        -8.0516
  67   0.0000       0.037561         1.0221
  68   0.0000       0.056832         1.5465
  69   0.0000       0.114213         3.1079
  70   0.0000       0.123555         3.3621
  71   0.0000       0.135992         3.7005

MULLIKEN ATOMIC CHARGES
-----------------------
   0 S :    0.106980
   1 C :   -0.111625
   2 C :   -0.057262
   3 C :    0.045224
   4 C :   -0.172053
   5 H :    0.018661
   6 C :    0.006345
   7 H :    0.020319
   8 H :    0.051872
   9 C :   -0.128571
  10 H :    0.048614
  11 H :    0.031637
  12 C :    0.025816
  13 H :    0.023276
  14 H :    0.013408
  15 H :    0.029620
  16 S :    0.134127
  17 C :   -0.054833
  18 C :   -0.063828
  19 C :   -0.054701
  20 C :   -0.199592
  21 H :    0.025478
  22 C :    0.105855
  23 H :    0.010543
  24 H :    0.036922
  25 C :   -0.085092
  26 H :    0.028406
  27 H :    0.015738
  28 C :    0.030691
  29 H :    0.003274
  30 H :   -0.000369
  31 H :    0.023914
  32 H :    0.042601
  33 H :    0.048607
Sum of atomic charges:   -0.0000000

LOEWDIN ATOMIC CHARGES
----------------------
   0 S :    0.378287
   1 C :   -0.195130
   2 C :   -0.070736
   3 C :   -0.055411
   4 C :   -0.174724
   5 H :    0.036589
   6 C :   -0.038508
   7 H :    0.022815
   8 H :    0.042580
   9 C :   -0.041224
  10 H :    0.030821
  11 H :    0.020012
  12 C :   -0.054700
  13 H :    0.023909
  14 H :    0.023066
  15 H :    0.022440
  16 S :    0.438797
  17 C :   -0.201865
  18 C :   -0.076972
  19 C :   -0.048025
  20 C :   -0.215106
  21 H :    0.030304
  22 C :   -0.037237
  23 H :    0.037113
  24 H :    0.036860
  25 C :   -0.056771
  26 H :    0.035456
  27 H :    0.027751
  28 C :   -0.063383
  29 H :    0.025656
  30 H :    0.017561
  31 H :    0.024890
  32 H :    0.021332
  33 H :    0.033551

  Mayer bond orders larger than 0.100000
B(  0-S ,  1-C ) :   1.1501 B(  0-S ,  4-C ) :   1.1221 B(  1-C ,  2-C ) :   1.6074
B(  1-C ,  4-C ) :   0.1018 B(  1-C , 32-H ) :   0.9650 B(  2-C ,  3-C ) :   1.2566
B(  2-C ,  6-C ) :   1.0026 B(  3-C ,  4-C ) :   1.5889 B(  3-C ,  5-H ) :   0.9901
B(  4-C , 20-C ) :   1.0336 B(  6-C ,  7-H ) :   0.9611 B(  6-C ,  8-H ) :   0.9358
B(  6-C ,  9-C ) :   1.0461 B(  9-C , 10-H ) :   0.9641 B(  9-C , 11-H ) :   0.9521
B(  9-C , 12-C ) :   1.0934 B( 12-C , 13-H ) :   0.9704 B( 12-C , 14-H ) :   0.9668
B( 12-C , 15-H ) :   0.9712 B( 16-S , 17-C ) :   1.1525 B( 16-S , 20-C ) :   1.1523
B( 17-C , 18-C ) :   1.6125 B( 17-C , 33-H ) :   0.9594 B( 18-C , 19-C ) :   1.2540
B( 18-C , 21-H ) :   0.9747 B( 19-C , 20-C ) :   1.6131 B( 19-C , 22-C ) :   1.0407
B( 22-C , 23-H ) :   0.9144 B( 22-C , 24-H ) :   0.9401 B( 22-C , 25-C ) :   1.0665
B( 25-C , 26-H ) :   0.9377 B( 25-C , 27-H ) :   0.9476 B( 25-C , 28-C ) :   1.1123
B( 28-C , 29-H ) :   0.9551 B( 28-C , 30-H ) :   0.9629 B( 28-C , 31-H ) :   0.9670

Dispersion correction           -0.013782393
FINAL SINGLE POINT ENERGY     -1339.848181582052

DIPOLE MOMENT
-------------
                                X             Y             Z
Electronic contribution:      2.42514      17.04451      12.49005
Nuclear contribution   :     -2.63404     -17.51841     -12.93892
                        -----------------------------------------
Total Dipole Moment    :     -0.20890      -0.47390      -0.44886
                        -----------------------------------------
Magnitude (a.u.)       :      0.68534
Magnitude (Debye)      :      1.74201

Rotational constants in cm-1:     0.023587     0.006824     0.006091
Rotational constants in MHz :   707.117675   204.586352   182.589095

                             ****ORCA TERMINATED NORMALLY****
TOTAL RUN TIME: 0 days 0 hours 0 minutes 21 seconds 264 msec
