                         Program Version 4.2.1 -  RELEASE  -
|  1> ! wB97X-D3 SP def2-SVP
|  2> %pal
|  3> nprocs 24
|  4> end
|  5>
|  6> * xyz 0 1
|  7> S 	 -52.671 	 23.0915 	 30.3264
|  8> C 	 -52.1884 	 24.5183 	 31.2174
|  9> C 	 -50.8539 	 24.8514 	 31.0625
| 10> C 	 -50.1642 	 23.7964 	 30.3274
| 11> C 	 -50.9811 	 22.7988 	 29.8366
| 12> H 	 -49.1268 	 23.7338 	 30.1038
| 13> C 	 -50.1414 	 26.0842 	 31.5499
| 14> H 	 -50.872 	 26.8821 	 31.3802
| 15> H 	 -49.2819 	 26.3003 	 30.8504
| 16> C 	 -49.8021 	 26.0911 	 33.0337
| 17> H 	 -49.4796 	 27.151 	 33.2523
| 18> H 	 -50.7389 	 25.9556 	 33.6223
| 19> C 	 -48.7808 	 24.9339 	 33.4956
| 20> H 	 -47.7777 	 25.1366 	 33.1589
| 21> H 	 -48.8326 	 24.896 	 34.5836
| 22> H 	 -49.1069 	 23.9818 	 33.0125
| 23> S 	 -51.2603 	 20.0826 	 30.1199
| 24> C 	 -50.3736 	 19.0396 	 29.0596
| 25> C 	 -49.6817 	 19.6918 	 28.0867
| 26> C 	 -49.873 	 21.1039 	 28.1639
| 27> C 	 -50.6389 	 21.5103 	 29.2966
| 28> H 	 -49.1801 	 19.1151 	 27.2865
| 29> C 	 -49.209 	 22.0815 	 27.2477
| 30> H 	 -49.8058 	 23.0303 	 27.3726
| 31> H 	 -49.4844 	 21.6825 	 26.2568
| 32> C 	 -47.7045 	 21.9762 	 27.3018
| 33> H 	 -47.3371 	 20.9442 	 27.3891
| 34> H 	 -47.4133 	 22.4461 	 28.2419
| 35> C 	 -47.0385 	 22.4889 	 26.0963
| 36> H 	 -47.4891 	 23.4666 	 25.7071
| 37> H 	 -47.1008 	 21.8016 	 25.266
| 38> H 	 -45.9778 	 22.6409 	 26.239
| 39> H 	 -52.8141 	 25.0743 	 31.8471
| 40> H 	 -50.4176 	 17.9155 	 29.1335
| 41> *
| 42>
| 43>                          ****END OF INPUT****

CARTESIAN COORDINATES (ANGSTROEM)
---------------------------------
  S    -52.671000   23.091500   30.326400
  C    -52.188400   24.518300   31.217400
  C    -50.853900   24.851400   31.062500
  C    -50.164200   23.796400   30.327400
  C    -50.981100   22.798800   29.836600
  H    -49.126800   23.733800   30.103800
  C    -50.141400   26.084200   31.549900
  H    -50.872000   26.882100   31.380200
  H    -49.281900   26.300300   30.850400
  C    -49.802100   26.091100   33.033700
  H    -49.479600   27.151000   33.252300
  H    -50.738900   25.955600   33.622300
  C    -48.780800   24.933900   33.495600
  H    -47.777700   25.136600   33.158900
  H    -48.832600   24.896000   34.583600
  H    -49.106900   23.981800   33.012500
  S    -51.260300   20.082600   30.119900
  C    -50.373600   19.039600   29.059600
  C    -49.681700   19.691800   28.086700
  C    -49.873000   21.103900   28.163900
  C    -50.638900   21.510300   29.296600
  H    -49.180100   19.115100   27.286500
  C    -49.209000   22.081500   27.247700
  H    -49.805800   23.030300   27.372600
  H    -49.484400   21.682500   26.256800
  C    -47.704500   21.976200   27.301800
  H    -47.337100   20.944200   27.389100
  H    -47.413300   22.446100   28.241900
  C    -47.038500   22.488900   26.096300
  H    -47.489100   23.466600   25.707100
  H    -47.100800   21.801600   25.266000
  H    -45.977800   22.640900   26.239000
  H    -52.814100   25.074300   31.847100
  H    -50.417600   17.915500   29.133500

 Total Charge           Charge          ....    0
 Multiplicity           Mult            ....    1
 Number of Electrons    NEL             ....  134
 Basis Dimension        Dim             ....  322

ORBITAL ENERGIES
----------------

  NO   OCC          E(Eh)            E(eV)
   0   2.0000     -88.964921     -2420.8586
   1   2.0000     -88.963231     -2420.8126
   2   2.0000     -10.328708      -281.0584
   3   2.0000     -10.324955      -280.9563
   4   2.0000     -10.318287      -280.7749
   5   2.0000     -10.311386      -280.5871
   6   2.0000     -10.303715      -280.3783
   7   2.0000     -10.302769      -280.3526
   8   2.0000     -10.297885      -280.2197
   9   2.0000     -10.296262      -280.1755
  10   2.0000     -10.294611      -280.1306
  11   2.0000     -10.293708      -280.1060
  12   2.0000     -10.290304      -280.0134
  13   2.0000     -10.284278      -279.8494
  14   2.0000     -10.283039      -279.8157
  15   2.0000     -10.277375      -279.6616
  16   2.0000      -8.079264      -219.8480
  17   2.0000      -8.078213      -219.8194
  18   2.0000      -6.037819      -164.2974
  19   2.0000      -6.036688      -164.2666
  20   2.0000      -6.033877      -164.1901
  21   2.0000      -6.032644      -164.1566
  22   2.0000      -6.029946      -164.0832
  23   2.0000      -6.029022      -164.0580
  24   2.0000      -1.003915       -27.3179
  25   2.0000      -0.980814       -26.6893
  26   2.0000      -0.920120       -25.0377
  27   2.0000      -0.908408       -24.7190
  28   2.0000      -0.867791       -23.6138
  29   2.0000      -0.855169       -23.2703
  30   2.0000      -0.839067       -22.8322
  31   2.0000      -0.815246       -22.1840
  32   2.0000      -0.783272       -21.3139
  33   2.0000      -0.767772       -20.8921
  34   2.0000      -0.705262       -19.1911
  35   2.0000      -0.701631       -19.0924
  36   2.0000      -0.694410       -18.8958
  37   2.0000      -0.657025       -17.8786
  38   2.0000      -0.640624       -17.4323
  39   2.0000      -0.612367       -16.6634
  40   2.0000      -0.592790       -16.1306
  41   2.0000      -0.570684       -15.5291
  42   2.0000      -0.564824       -15.3696
  43   2.0000      -0.545989       -14.8571
  44   2.0000      -0.534463       -14.5435
  45   2.0000      -0.532924       -14.5016
  46   2.0000      -0.518448       -14.1077
  47   2.0000      -0.515103       -14.0167
  48   2.0000      -0.506192       -13.7742
  49   2.0000      -0.499601       -13.5948
  50   2.0000      -0.485208       -13.2032
  51   2.0000      -0.472446       -12.8559
  52   2.0000      -0.472315       -12.8524
  53   2.0000      -0.464633       -12.6433
  54   2.0000      -0.454807       -12.3759
  55   2.0000      -0.454007       -12.3541
  56   2.0000      -0.441493       -12.0136
  57   2.0000      -0.439853       -11.9690
  58   2.0000      -0.437651       -11.9091
  59   2.0000      -0.421253       -11.4629
  60   2.0000      -0.417797       -11.3688
  61   2.0000      -0.414284       -11.2732
  62   2.0000      -0.411571       -11.1994
  63   2.0000      -0.346965        -9.4414
  64   2.0000      -0.327948        -8.9239
  65   2.0000      -0.325996        -8.8708
  66   2.0000      -0.289857        -7.8874
  67   0.0000       0.029623         0.8061
  68   0.0000       0.068811         1.8724
  69   0.0000       0.105675         2.8756
  70   0.0000       0.125109         3.4044
  71   0.0000       0.128689         3.5018

MULLIKEN ATOMIC CHARGES
-----------------------
   0 S :    0.102193
   1 C :   -0.093513
   2 C :   -0.103637
   3 C :    0.046753
   4 C :   -0.174545
   5 H :   -0.002295
   6 C :    0.053980
   7 H :    0.030254
   8 H :    0.040867
   9 C :   -0.094469
  10 H :    0.038433
  11 H :    0.030879
  12 C :   -0.057944
  13 H :    0.032137
  14 H :    0.044126
  15 H :    0.052966
  16 S :    0.111858
  17 C :   -0.108370
  18 C :   -0.043972
  19 C :   -0.058064
  20 C :   -0.157305
  21 H :    0.032981
  22 C :    0.066763
  23 H :    0.052152
  24 H :    0.012152
  25 C :   -0.050965
  26 H :    0.032396
  27 H :    0.022526
  28 C :   -0.045634
  29 H :    0.035765
  30 H :    0.025840
  31 H :    0.030224
  32 H :    0.022728
  33 H :    0.072741
Sum of atomic charges:   -0.0000000

LOEWDIN ATOMIC CHARGES
----------------------
   0 S :    0.387083
   1 C :   -0.184690
   2 C :   -0.062549
   3 C :   -0.055060
   4 C :   -0.188504
   5 H :    0.024927
   6 C :   -0.042601
   7 H :    0.035815
   8 H :    0.037523
   9 C :   -0.043213
  10 H :    0.027628
  11 H :    0.025558
  12 C :   -0.065005
  13 H :    0.020609
  14 H :    0.027835
  15 H :    0.034126
  16 S :    0.407541
  17 C :   -0.191736
  18 C :   -0.084639
  19 C :   -0.048305
  20 C :   -0.212005
  21 H :    0.039521
  22 C :   -0.040644
  23 H :    0.043128
  24 H :    0.031601
  25 C :   -0.045687
  26 H :    0.032227
  27 H :    0.022637
  28 C :   -0.068077
  29 H :    0.031089
  30 H :    0.022469
  31 H :    0.026009
  32 H :    0.015511
  33 H :    0.039878

  Mayer bond orders larger than 0.100000
B(  0-S ,  1-C ) :   1.1361 B(  0-S ,  4-C ) :   1.1246 B(  1-C ,  2-C ) :   1.6336
B(  1-C , 32-H ) :   0.9689 B(  2-C ,  3-C ) :   1.2067 B(  2-C ,  6-C ) :   1.0114
B(  3-C ,  4-C ) :   1.6011 B(  3-C ,  5-H ) :   0.9940 B(  4-C , 20-C ) :   1.0571
B(  6-C ,  7-H ) :   0.9344 B(  6-C ,  8-H ) :   0.9458 B(  6-C ,  9-C ) :   1.0771
B(  9-C , 10-H ) :   0.9568 B(  9-C , 11-H ) :   0.9578 B(  9-C , 12-C ) :   1.0544
B( 12-C , 13-H ) :   0.9789 B( 12-C , 14-H ) :   0.9782 B( 12-C , 15-H ) :   0.9747
B( 16-S , 17-C ) :   1.1651 B( 16-S , 20-C ) :   1.1315 B( 17-C , 18-C ) :   1.6169
B( 17-C , 33-H ) :   0.9562 B( 18-C , 19-C ) :   1.2398 B( 18-C , 21-H ) :   0.9833
B( 19-C , 20-C ) :   1.5678 B( 19-C , 22-C ) :   1.0539 B( 22-C , 23-H ) :   0.9294
B( 22-C , 24-H ) :   0.9251 B( 22-C , 25-C ) :   1.0480 B( 25-C , 26-H ) :   0.9527
B( 25-C , 27-H ) :   0.9507 B( 25-C , 28-C ) :   1.0870 B( 28-C , 29-H ) :   0.9718
B( 28-C , 30-H ) :   0.9722 B( 28-C , 31-H ) :   0.9697

Dispersion correction           -0.014288880
FINAL SINGLE POINT ENERGY     -1339.880465569786

DIPOLE MOMENT
-------------
                                X             Y             Z
Electronic contribution:    -21.42427     -13.90469       2.05005
Nuclear contribution   :     21.97247      14.10263      -2.17484
                        -----------------------------------------
Total Dipole Moment    :      0.54820       0.19793      -0.12479
                        -----------------------------------------
Magnitude (a.u.)       :      0.59605
Magnitude (Debye)      :      1.51503

Rotational constants in cm-1:     0.017535     0.008721     0.006928
Rotational constants in MHz :   525.690265   261.437729   207.681371

                             ****ORCA TERMINATED NORMALLY****
TOTAL RUN TIME: 0 days 0 hours 0 minutes 21 seconds 509 msec
