                         Program Version 4.2.1 -  RELEASE  -
|  1> ! wB97X-D3 SP def2-SVP
|  2> %pal
|  3> nprocs 24
|  4> end
|  5>
|  6> * xyz 0 1
|  7> S 	 -117.096 	 16.6407 	 -109.658
|  8> C 	 -117.189 	 18.3132 	 -109.272
|  9> C 	 -118.504 	 18.7015 	 -108.826
| 10> C 	 -119.394 	 17.5714 	 -108.953
| 11> C 	 -118.755 	 16.3656 	 -109.334
| 12> H 	 -120.414 	 17.59 	 -108.699
| 13> C 	 -119.008 	 20.1024 	 -108.583
| 14> H 	 -120.034 	 20.0041 	 -108.171
| 15> H 	 -119.245 	 20.4855 	 -109.514
| 16> C 	 -118.118 	 20.991 	 -107.704
| 17> H 	 -117.98 	 20.6427 	 -106.679
| 18> H 	 -117.215 	 20.9831 	 -108.168
| 19> C 	 -118.591 	 22.3902 	 -107.679
| 20> H 	 -117.987 	 23.0258 	 -107.139
| 21> H 	 -118.614 	 22.7515 	 -108.685
| 22> H 	 -119.59 	 22.4886 	 -107.347
| 23> S 	 -120.75 	 14.5626 	 -108.536
| 24> C 	 -121.268 	 13.2444 	 -109.487
| 25> C 	 -120.33 	 13.0634 	 -110.523
| 26> C 	 -119.297 	 14.0643 	 -110.53
| 27> C 	 -119.479 	 15.0862 	 -109.645
| 28> H 	 -120.558 	 12.3432 	 -111.249
| 29> C 	 -118.266 	 14.0086 	 -111.624
| 30> H 	 -117.602 	 14.8637 	 -111.647
| 31> H 	 -118.659 	 14.1088 	 -112.673
| 32> C 	 -117.385 	 12.7324 	 -111.633
| 33> H 	 -118.016 	 11.8116 	 -111.535
| 34> H 	 -116.971 	 12.66 	 -110.575
| 35> C 	 -116.186 	 12.7072 	 -112.587
| 36> H 	 -116.464 	 13.179 	 -113.577
| 37> H 	 -115.961 	 11.6391 	 -112.891
| 38> H 	 -115.223 	 13.2049 	 -112.231
| 39> H 	 -116.364 	 19.086 	 -109.5
| 40> H 	 -122.088 	 12.5848 	 -109.257
| 41> *
| 42>
| 43>                          ****END OF INPUT****

CARTESIAN COORDINATES (ANGSTROEM)
---------------------------------
  S    -117.096000   16.640700  -109.658000
  C    -117.189000   18.313200  -109.272000
  C    -118.504000   18.701500  -108.826000
  C    -119.394000   17.571400  -108.953000
  C    -118.755000   16.365600  -109.334000
  H    -120.414000   17.590000  -108.699000
  C    -119.008000   20.102400  -108.583000
  H    -120.034000   20.004100  -108.171000
  H    -119.245000   20.485500  -109.514000
  C    -118.118000   20.991000  -107.704000
  H    -117.980000   20.642700  -106.679000
  H    -117.215000   20.983100  -108.168000
  C    -118.591000   22.390200  -107.679000
  H    -117.987000   23.025800  -107.139000
  H    -118.614000   22.751500  -108.685000
  H    -119.590000   22.488600  -107.347000
  S    -120.750000   14.562600  -108.536000
  C    -121.268000   13.244400  -109.487000
  C    -120.330000   13.063400  -110.523000
  C    -119.297000   14.064300  -110.530000
  C    -119.479000   15.086200  -109.645000
  H    -120.558000   12.343200  -111.249000
  C    -118.266000   14.008600  -111.624000
  H    -117.602000   14.863700  -111.647000
  H    -118.659000   14.108800  -112.673000
  C    -117.385000   12.732400  -111.633000
  H    -118.016000   11.811600  -111.535000
  H    -116.971000   12.660000  -110.575000
  C    -116.186000   12.707200  -112.587000
  H    -116.464000   13.179000  -113.577000
  H    -115.961000   11.639100  -112.891000
  H    -115.223000   13.204900  -112.231000
  H    -116.364000   19.086000  -109.500000
  H    -122.088000   12.584800  -109.257000

 Total Charge           Charge          ....    0
 Multiplicity           Mult            ....    1
 Number of Electrons    NEL             ....  134
 Basis Dimension        Dim             ....  322

ORBITAL ENERGIES
----------------

  NO   OCC          E(Eh)            E(eV)
   0   2.0000     -88.974505     -2421.1194
   1   2.0000     -88.961988     -2420.7788
   2   2.0000     -10.335655      -281.2475
   3   2.0000     -10.332824      -281.1704
   4   2.0000     -10.323843      -280.9261
   5   2.0000     -10.317788      -280.7613
   6   2.0000     -10.308799      -280.5167
   7   2.0000     -10.303996      -280.3860
   8   2.0000     -10.295575      -280.1568
   9   2.0000     -10.292750      -280.0800
  10   2.0000     -10.292441      -280.0716
  11   2.0000     -10.291364      -280.0422
  12   2.0000     -10.289980      -280.0046
  13   2.0000     -10.289446      -279.9901
  14   2.0000     -10.276554      -279.6393
  15   2.0000     -10.262080      -279.2454
  16   2.0000      -8.089257      -220.1199
  17   2.0000      -8.077329      -219.7953
  18   2.0000      -6.047656      -164.5651
  19   2.0000      -6.043538      -164.4530
  20   2.0000      -6.040363      -164.3666
  21   2.0000      -6.035820      -164.2430
  22   2.0000      -6.031627      -164.1289
  23   2.0000      -6.028171      -164.0349
  24   2.0000      -1.007714       -27.4213
  25   2.0000      -0.987564       -26.8730
  26   2.0000      -0.922386       -25.0994
  27   2.0000      -0.903179       -24.5768
  28   2.0000      -0.868078       -23.6216
  29   2.0000      -0.857883       -23.3442
  30   2.0000      -0.845097       -22.9963
  31   2.0000      -0.811405       -22.0794
  32   2.0000      -0.781941       -21.2777
  33   2.0000      -0.771480       -20.9930
  34   2.0000      -0.716258       -19.4904
  35   2.0000      -0.695099       -18.9146
  36   2.0000      -0.691030       -18.8039
  37   2.0000      -0.663106       -18.0440
  38   2.0000      -0.640632       -17.4325
  39   2.0000      -0.617198       -16.7948
  40   2.0000      -0.601090       -16.3565
  41   2.0000      -0.578244       -15.7348
  42   2.0000      -0.569093       -15.4858
  43   2.0000      -0.546830       -14.8800
  44   2.0000      -0.537202       -14.6180
  45   2.0000      -0.525845       -14.3090
  46   2.0000      -0.517381       -14.0787
  47   2.0000      -0.510835       -13.9005
  48   2.0000      -0.505088       -13.7441
  49   2.0000      -0.498989       -13.5782
  50   2.0000      -0.490617       -13.3504
  51   2.0000      -0.484083       -13.1726
  52   2.0000      -0.475103       -12.9282
  53   2.0000      -0.466310       -12.6889
  54   2.0000      -0.461612       -12.5611
  55   2.0000      -0.452776       -12.3207
  56   2.0000      -0.445157       -12.1134
  57   2.0000      -0.439856       -11.9691
  58   2.0000      -0.433844       -11.8055
  59   2.0000      -0.428144       -11.6504
  60   2.0000      -0.417940       -11.3727
  61   2.0000      -0.411856       -11.2072
  62   2.0000      -0.394263       -10.7284
  63   2.0000      -0.352205        -9.5840
  64   2.0000      -0.331085        -9.0093
  65   2.0000      -0.325732        -8.8636
  66   2.0000      -0.288885        -7.8610
  67   0.0000       0.023771         0.6468
  68   0.0000       0.078816         2.1447
  69   0.0000       0.112372         3.0578
  70   0.0000       0.115636         3.1466
  71   0.0000       0.129207         3.5159

MULLIKEN ATOMIC CHARGES
-----------------------
   0 S :    0.139090
   1 C :   -0.172205
   2 C :   -0.082829
   3 C :    0.014072
   4 C :   -0.125456
   5 H :    0.000146
   6 C :    0.057846
   7 H :    0.014806
   8 H :    0.020211
   9 C :   -0.025358
  10 H :    0.035276
  11 H :   -0.003130
  12 C :    0.021511
  13 H :    0.013880
  14 H :    0.005570
  15 H :    0.012284
  16 S :    0.092959
  17 C :   -0.090756
  18 C :   -0.031460
  19 C :   -0.032971
  20 C :   -0.114269
  21 H :    0.011486
  22 C :    0.048569
  23 H :    0.003531
  24 H :    0.033689
  25 C :   -0.120641
  26 H :    0.033444
  27 H :    0.027545
  28 C :   -0.072522
  29 H :    0.031578
  30 H :    0.043460
  31 H :    0.060210
  32 H :    0.087422
  33 H :    0.063012
Sum of atomic charges:   -0.0000000

LOEWDIN ATOMIC CHARGES
----------------------
   0 S :    0.460783
   1 C :   -0.236480
   2 C :   -0.055464
   3 C :   -0.057519
   4 C :   -0.209950
   5 H :    0.019682
   6 C :   -0.027507
   7 H :    0.033397
   8 H :    0.026331
   9 C :   -0.027617
  10 H :    0.030251
  11 H :    0.010266
  12 C :   -0.050178
  13 H :    0.016576
  14 H :    0.022845
  15 H :    0.020053
  16 S :    0.417317
  17 C :   -0.194120
  18 C :   -0.066819
  19 C :   -0.066196
  20 C :   -0.182920
  21 H :    0.023169
  22 C :   -0.043818
  23 H :    0.012746
  24 H :    0.033541
  25 C :   -0.061400
  26 H :    0.026378
  27 H :    0.030590
  28 C :   -0.081585
  29 H :    0.026964
  30 H :    0.036009
  31 H :    0.037246
  32 H :    0.045521
  33 H :    0.031910

  Mayer bond orders larger than 0.100000
B(  0-S ,  1-C ) :   1.1771 B(  0-S ,  4-C ) :   1.1785 B(  1-C ,  2-C ) :   1.5357
B(  1-C , 32-H ) :   0.9547 B(  2-C ,  3-C ) :   1.3043 B(  2-C ,  6-C ) :   1.0231
B(  3-C ,  4-C ) :   1.5040 B(  3-C ,  5-H ) :   0.9946 B(  4-C , 20-C ) :   1.0298
B(  6-C ,  7-H ) :   0.9362 B(  6-C ,  8-H ) :   0.9367 B(  6-C ,  9-C ) :   1.0590
B(  9-C , 10-H ) :   0.9560 B(  9-C , 11-H ) :   0.9494 B(  9-C , 12-C ) :   1.1060
B( 12-C , 13-H ) :   0.9682 B( 12-C , 14-H ) :   0.9676 B( 12-C , 15-H ) :   0.9701
B( 16-S , 17-C ) :   1.1748 B( 16-S , 20-C ) :   1.1357 B( 17-C , 18-C ) :   1.5790
B( 17-C , 33-H ) :   0.9717 B( 18-C , 19-C ) :   1.2284 B( 18-C , 21-H ) :   1.0017
B( 19-C , 20-C ) :   1.5975 B( 19-C , 22-C ) :   1.0517 B( 22-C , 23-H ) :   0.9380
B( 22-C , 24-H ) :   0.9334 B( 22-C , 25-C ) :   1.0386 B( 25-C , 26-H ) :   0.9621
B( 25-C , 27-H ) :   0.9511 B( 25-C , 28-C ) :   1.0637 B( 28-C , 29-H ) :   0.9741
B( 28-C , 30-H ) :   0.9737 B( 28-C , 31-H ) :   0.9744

Dispersion correction           -0.013326688
FINAL SINGLE POINT ENERGY     -1339.856580268217

DIPOLE MOMENT
-------------
                                X             Y             Z
Electronic contribution:     -7.61541     -10.57412       6.16939
Nuclear contribution   :      7.57800      10.87804      -6.46250
                        -----------------------------------------
Total Dipole Moment    :     -0.03741       0.30392      -0.29311
                        -----------------------------------------
Magnitude (a.u.)       :      0.42389
Magnitude (Debye)      :      1.07743

Rotational constants in cm-1:     0.023576     0.006857     0.005492
Rotational constants in MHz :   706.792731   205.566289   164.655521

                             ****ORCA TERMINATED NORMALLY****
TOTAL RUN TIME: 0 days 0 hours 0 minutes 20 seconds 310 msec
