                         Program Version 4.2.1 -  RELEASE  -
|  1> ! wB97X-D3 SP def2-SVP
|  2> %pal
|  3> nprocs 24
|  4> end
|  5>
|  6> * xyz 0 1
|  7> S 	 -84.7481 	 -11.482 	 -57.3346
|  8> C 	 -84.1906 	 -9.90912 	 -57.7871
|  9> C 	 -83.6096 	 -9.90157 	 -59.0208
| 10> C 	 -83.6001 	 -11.2189 	 -59.6194
| 11> C 	 -84.1885 	 -12.1838 	 -58.8008
| 12> H 	 -83.1802 	 -11.5123 	 -60.5311
| 13> C 	 -83.0468 	 -8.68161 	 -59.7361
| 14> H 	 -82.7538 	 -8.0207 	 -58.9103
| 15> H 	 -83.8137 	 -8.27871 	 -60.3341
| 16> C 	 -81.7092 	 -8.81182 	 -60.5555
| 17> H 	 -80.8889 	 -9.05706 	 -59.8996
| 18> H 	 -81.5873 	 -9.61941 	 -61.3534
| 19> C 	 -81.3402 	 -7.50631 	 -61.2703
| 20> H 	 -81.9574 	 -7.44772 	 -62.1912
| 21> H 	 -81.5521 	 -6.65917 	 -60.7282
| 22> H 	 -80.2997 	 -7.67128 	 -61.5105
| 23> S 	 -83.9334 	 -14.676 	 -57.7523
| 24> C 	 -84.2703 	 -16.0361 	 -58.7518
| 25> C 	 -84.7295 	 -15.6707 	 -59.9595
| 26> C 	 -84.6319 	 -14.3057 	 -60.2187
| 27> C 	 -84.2639 	 -13.6131 	 -59.0748
| 28> H 	 -85.1276 	 -16.4663 	 -60.6248
| 29> C 	 -85.0311 	 -13.7758 	 -61.5501
| 30> H 	 -85.0392 	 -12.7318 	 -61.5279
| 31> H 	 -86.1102 	 -14.0197 	 -61.6039
| 32> C 	 -84.3841 	 -14.1633 	 -62.8816
| 33> H 	 -84.9332 	 -13.6436 	 -63.7232
| 34> H 	 -84.5182 	 -15.2414 	 -63.0182
| 35> C 	 -82.9006 	 -13.637 	 -62.8146
| 36> H 	 -82.3842 	 -14.0854 	 -61.9722
| 37> H 	 -82.9431 	 -12.493 	 -62.7099
| 38> H 	 -82.4861 	 -13.9834 	 -63.7671
| 39> H 	 -84.0831 	 -9.01721 	 -57.212
| 40> H 	 -84.4149 	 -16.9962 	 -58.285
| 41> *
| 42>
| 43>                          ****END OF INPUT****

CARTESIAN COORDINATES (ANGSTROEM)
---------------------------------
  S    -84.748100  -11.482000  -57.334600
  C    -84.190600   -9.909120  -57.787100
  C    -83.609600   -9.901570  -59.020800
  C    -83.600100  -11.218900  -59.619400
  C    -84.188500  -12.183800  -58.800800
  H    -83.180200  -11.512300  -60.531100
  C    -83.046800   -8.681610  -59.736100
  H    -82.753800   -8.020700  -58.910300
  H    -83.813700   -8.278710  -60.334100
  C    -81.709200   -8.811820  -60.555500
  H    -80.888900   -9.057060  -59.899600
  H    -81.587300   -9.619410  -61.353400
  C    -81.340200   -7.506310  -61.270300
  H    -81.957400   -7.447720  -62.191200
  H    -81.552100   -6.659170  -60.728200
  H    -80.299700   -7.671280  -61.510500
  S    -83.933400  -14.676000  -57.752300
  C    -84.270300  -16.036100  -58.751800
  C    -84.729500  -15.670700  -59.959500
  C    -84.631900  -14.305700  -60.218700
  C    -84.263900  -13.613100  -59.074800
  H    -85.127600  -16.466300  -60.624800
  C    -85.031100  -13.775800  -61.550100
  H    -85.039200  -12.731800  -61.527900
  H    -86.110200  -14.019700  -61.603900
  C    -84.384100  -14.163300  -62.881600
  H    -84.933200  -13.643600  -63.723200
  H    -84.518200  -15.241400  -63.018200
  C    -82.900600  -13.637000  -62.814600
  H    -82.384200  -14.085400  -61.972200
  H    -82.943100  -12.493000  -62.709900
  H    -82.486100  -13.983400  -63.767100
  H    -84.083100   -9.017210  -57.212000
  H    -84.414900  -16.996200  -58.285000

 Total Charge           Charge          ....    0
 Multiplicity           Mult            ....    1
 Number of Electrons    NEL             ....  134
 Basis Dimension        Dim             ....  322

ORBITAL ENERGIES
----------------

  NO   OCC          E(Eh)            E(eV)
   0   2.0000     -88.966682     -2420.9065
   1   2.0000     -88.963054     -2420.8078
   2   2.0000     -10.325739      -280.9776
   3   2.0000     -10.324161      -280.9347
   4   2.0000     -10.307688      -280.4864
   5   2.0000     -10.305639      -280.4307
   6   2.0000     -10.299355      -280.2597
   7   2.0000     -10.297899      -280.2201
   8   2.0000     -10.295250      -280.1480
   9   2.0000     -10.294498      -280.1275
  10   2.0000     -10.292335      -280.0687
  11   2.0000     -10.288259      -279.9578
  12   2.0000     -10.287476      -279.9365
  13   2.0000     -10.287093      -279.9260
  14   2.0000     -10.281575      -279.7759
  15   2.0000     -10.273584      -279.5584
  16   2.0000      -8.082041      -219.9235
  17   2.0000      -8.079135      -219.8445
  18   2.0000      -6.040643      -164.3742
  19   2.0000      -6.037472      -164.2880
  20   2.0000      -6.036362      -164.2578
  21   2.0000      -6.033539      -164.1809
  22   2.0000      -6.032776      -164.1602
  23   2.0000      -6.029910      -164.0822
  24   2.0000      -1.015796       -27.6412
  25   2.0000      -0.991730       -26.9864
  26   2.0000      -0.913020       -24.8445
  27   2.0000      -0.909254       -24.7421
  28   2.0000      -0.874562       -23.7980
  29   2.0000      -0.852777       -23.2052
  30   2.0000      -0.848485       -23.0884
  31   2.0000      -0.816359       -22.2142
  32   2.0000      -0.782790       -21.3008
  33   2.0000      -0.774110       -21.0646
  34   2.0000      -0.711008       -19.3475
  35   2.0000      -0.697707       -18.9856
  36   2.0000      -0.693543       -18.8723
  37   2.0000      -0.659555       -17.9474
  38   2.0000      -0.638854       -17.3841
  39   2.0000      -0.621138       -16.9020
  40   2.0000      -0.601608       -16.3706
  41   2.0000      -0.572462       -15.5775
  42   2.0000      -0.565237       -15.3809
  43   2.0000      -0.553128       -15.0514
  44   2.0000      -0.544009       -14.8032
  45   2.0000      -0.533106       -14.5066
  46   2.0000      -0.512832       -13.9549
  47   2.0000      -0.510670       -13.8960
  48   2.0000      -0.504809       -13.7366
  49   2.0000      -0.500346       -13.6151
  50   2.0000      -0.495413       -13.4809
  51   2.0000      -0.482242       -13.1225
  52   2.0000      -0.469455       -12.7745
  53   2.0000      -0.466755       -12.7011
  54   2.0000      -0.464599       -12.6424
  55   2.0000      -0.451232       -12.2786
  56   2.0000      -0.449115       -12.2210
  57   2.0000      -0.434234       -11.8161
  58   2.0000      -0.428879       -11.6704
  59   2.0000      -0.425499       -11.5784
  60   2.0000      -0.420034       -11.4297
  61   2.0000      -0.415538       -11.3074
  62   2.0000      -0.414414       -11.2768
  63   2.0000      -0.352114        -9.5815
  64   2.0000      -0.331078        -9.0091
  65   2.0000      -0.329138        -8.9563
  66   2.0000      -0.289537        -7.8787
  67   0.0000       0.030692         0.8352
  68   0.0000       0.081524         2.2184
  69   0.0000       0.119062         3.2398
  70   0.0000       0.123164         3.3515
  71   0.0000       0.127761         3.4766

MULLIKEN ATOMIC CHARGES
-----------------------
   0 S :    0.121513
   1 C :   -0.104992
   2 C :   -0.091294
   3 C :    0.061284
   4 C :   -0.140223
   5 H :   -0.047001
   6 C :    0.088505
   7 H :    0.025497
   8 H :    0.040219
   9 C :   -0.134847
  10 H :    0.027261
  11 H :    0.036380
  12 C :   -0.017660
  13 H :    0.032472
  14 H :    0.015732
  15 H :    0.037642
  16 S :    0.104127
  17 C :   -0.084404
  18 C :   -0.054554
  19 C :   -0.024840
  20 C :   -0.161920
  21 H :    0.031031
  22 C :    0.061888
  23 H :   -0.011835
  24 H :    0.032319
  25 C :   -0.071163
  26 H :    0.042047
  27 H :    0.031324
  28 C :   -0.079770
  29 H :    0.056160
  30 H :    0.053198
  31 H :    0.041644
  32 H :    0.029010
  33 H :    0.055252
Sum of atomic charges:    0.0000000

LOEWDIN ATOMIC CHARGES
----------------------
   0 S :    0.425564
   1 C :   -0.212243
   2 C :   -0.059661
   3 C :   -0.060173
   4 C :   -0.198704
   5 H :    0.014196
   6 C :   -0.026531
   7 H :    0.035909
   8 H :    0.027896
   9 C :   -0.046367
  10 H :    0.019863
  11 H :    0.026992
  12 C :   -0.055033
  13 H :    0.028604
  14 H :    0.010240
  15 H :    0.030742
  16 S :    0.421748
  17 C :   -0.192140
  18 C :   -0.073431
  19 C :   -0.059898
  20 C :   -0.201720
  21 H :    0.039908
  22 C :   -0.041282
  23 H :    0.017200
  24 H :    0.038845
  25 C :   -0.036646
  26 H :    0.033554
  27 H :    0.019460
  28 C :   -0.067274
  29 H :    0.027766
  30 H :    0.033480
  31 H :    0.026618
  32 H :    0.026554
  33 H :    0.025963

  Mayer bond orders larger than 0.100000
B(  0-S ,  1-C ) :   1.1234 B(  0-S ,  4-C ) :   1.1619 B(  1-C ,  2-C ) :   1.6391
B(  1-C , 32-H ) :   0.9636 B(  2-C ,  3-C ) :   1.2323 B(  2-C ,  6-C ) :   1.0094
B(  3-C ,  4-C ) :   1.5590 B(  3-C ,  5-H ) :   1.0043 B(  4-C , 20-C ) :   1.0461
B(  6-C ,  7-H ) :   0.9390 B(  6-C ,  8-H ) :   0.9440 B(  6-C ,  9-C ) :   1.0551
B(  9-C , 10-H ) :   0.9635 B(  9-C , 11-H ) :   0.9562 B(  9-C , 12-C ) :   1.0779
B( 12-C , 13-H ) :   0.9773 B( 12-C , 14-H ) :   0.9763 B( 12-C , 15-H ) :   0.9753
B( 16-S , 17-C ) :   1.1551 B( 16-S , 20-C ) :   1.1597 B( 17-C , 18-C ) :   1.6166
B( 17-C , 33-H ) :   0.9642 B( 18-C , 19-C ) :   1.2434 B( 18-C , 21-H ) :   0.9879
B( 19-C , 20-C ) :   1.5640 B( 19-C , 22-C ) :   1.0495 B( 22-C , 23-H ) :   0.9238
B( 22-C , 24-H ) :   0.9210 B( 22-C , 25-C ) :   1.0772 B( 25-C , 26-H ) :   0.9517
B( 25-C , 27-H ) :   0.9550 B( 25-C , 28-C ) :   1.0606 B( 28-C , 29-H ) :   0.9778
B( 28-C , 30-H ) :   0.9670 B( 28-C , 31-H ) :   0.9742

Dispersion correction           -0.014365469
FINAL SINGLE POINT ENERGY     -1339.870486760914

DIPOLE MOMENT
-------------
                                X             Y             Z
Electronic contribution:    -10.24527     -13.61762      25.81301
Nuclear contribution   :     10.29829      13.73645     -26.40425
                        -----------------------------------------
Total Dipole Moment    :      0.05302       0.11883      -0.59124
                        -----------------------------------------
Magnitude (a.u.)       :      0.60539
Magnitude (Debye)      :      1.53878

Rotational constants in cm-1:     0.018129     0.009166     0.006651
Rotational constants in MHz :   543.501209   274.802444   199.406493

                             ****ORCA TERMINATED NORMALLY****
TOTAL RUN TIME: 0 days 0 hours 0 minutes 22 seconds 112 msec
