                         Program Version 4.2.1 -  RELEASE  -
|  1> ! wB97X-D3 SP def2-SVP
|  2> %pal
|  3> nprocs 24
|  4> end
|  5>
|  6> * xyz 0 1
|  7> S 	 -39.3636 	 13.4455 	 21.1815
|  8> C 	 -40.3405 	 13.8683 	 19.8374
|  9> C 	 -41.7264 	 13.7213 	 20.1488
| 10> C 	 -41.8575 	 13.4422 	 21.5466
| 11> C 	 -40.7343 	 13.3882 	 22.3076
| 12> H 	 -42.8619 	 13.3801 	 22.0599
| 13> C 	 -42.8769 	 14.0028 	 19.1341
| 14> H 	 -42.3207 	 13.9266 	 18.2163
| 15> H 	 -43.2189 	 15.0676 	 19.2911
| 16> C 	 -44.1166 	 13.0455 	 19.2482
| 17> H 	 -44.5498 	 12.971 	 20.303
| 18> H 	 -44.8059 	 13.3956 	 18.4696
| 19> C 	 -43.8679 	 11.612 	 18.9065
| 20> H 	 -43.033 	 11.2498 	 19.5085
| 21> H 	 -44.7109 	 10.9872 	 19.0856
| 22> H 	 -43.571 	 11.5578 	 17.8346
| 23> S 	 -39.41 	 13.833 	 24.8187
| 24> C 	 -40.0528 	 13.1553 	 26.2237
| 25> C 	 -40.9318 	 12.0923 	 25.9485
| 26> C 	 -41.2984 	 12.0344 	 24.5277
| 27> C 	 -40.6067 	 13.0058 	 23.7597
| 28> H 	 -41.4233 	 11.539 	 26.7488
| 29> C 	 -42.311 	 11.0576 	 24.002
| 30> H 	 -41.9184 	 10.0217 	 23.8152
| 31> H 	 -42.6615 	 11.378 	 22.9958
| 32> C 	 -43.6356 	 10.9653 	 24.7964
| 33> H 	 -43.3211 	 10.6454 	 25.8042
| 34> H 	 -44.2812 	 10.221 	 24.3021
| 35> C 	 -44.3749 	 12.2892 	 24.9158
| 36> H 	 -45.2126 	 12.2125 	 25.5826
| 37> H 	 -44.7029 	 12.6283 	 23.9723
| 38> H 	 -43.7328 	 13.0833 	 25.3435
| 39> H 	 -39.921 	 14.0788 	 18.8267
| 40> H 	 -39.8721 	 13.291 	 27.2892
| 41> *
| 42>
| 43>                          ****END OF INPUT****

CARTESIAN COORDINATES (ANGSTROEM)
---------------------------------
  S    -39.363600   13.445500   21.181500
  C    -40.340500   13.868300   19.837400
  C    -41.726400   13.721300   20.148800
  C    -41.857500   13.442200   21.546600
  C    -40.734300   13.388200   22.307600
  H    -42.861900   13.380100   22.059900
  C    -42.876900   14.002800   19.134100
  H    -42.320700   13.926600   18.216300
  H    -43.218900   15.067600   19.291100
  C    -44.116600   13.045500   19.248200
  H    -44.549800   12.971000   20.303000
  H    -44.805900   13.395600   18.469600
  C    -43.867900   11.612000   18.906500
  H    -43.033000   11.249800   19.508500
  H    -44.710900   10.987200   19.085600
  H    -43.571000   11.557800   17.834600
  S    -39.410000   13.833000   24.818700
  C    -40.052800   13.155300   26.223700
  C    -40.931800   12.092300   25.948500
  C    -41.298400   12.034400   24.527700
  C    -40.606700   13.005800   23.759700
  H    -41.423300   11.539000   26.748800
  C    -42.311000   11.057600   24.002000
  H    -41.918400   10.021700   23.815200
  H    -42.661500   11.378000   22.995800
  C    -43.635600   10.965300   24.796400
  H    -43.321100   10.645400   25.804200
  H    -44.281200   10.221000   24.302100
  C    -44.374900   12.289200   24.915800
  H    -45.212600   12.212500   25.582600
  H    -44.702900   12.628300   23.972300
  H    -43.732800   13.083300   25.343500
  H    -39.921000   14.078800   18.826700
  H    -39.872100   13.291000   27.289200

 Total Charge           Charge          ....    0
 Multiplicity           Mult            ....    1
 Number of Electrons    NEL             ....  134
 Basis Dimension        Dim             ....  322

ORBITAL ENERGIES
----------------

  NO   OCC          E(Eh)            E(eV)
   0   2.0000     -88.970900     -2421.0213
   1   2.0000     -88.965167     -2420.8653
   2   2.0000     -10.339319      -281.3472
   3   2.0000     -10.334043      -281.2036
   4   2.0000     -10.321142      -280.8526
   5   2.0000     -10.320557      -280.8366
   6   2.0000     -10.314507      -280.6720
   7   2.0000     -10.308034      -280.4959
   8   2.0000     -10.304096      -280.3887
   9   2.0000     -10.299832      -280.2727
  10   2.0000     -10.297054      -280.1971
  11   2.0000     -10.295418      -280.1526
  12   2.0000     -10.294637      -280.1313
  13   2.0000     -10.289656      -279.9958
  14   2.0000     -10.272944      -279.5410
  15   2.0000     -10.272015      -279.5157
  16   2.0000      -8.085646      -220.0216
  17   2.0000      -8.080110      -219.8710
  18   2.0000      -6.044213      -164.4714
  19   2.0000      -6.040086      -164.3591
  20   2.0000      -6.038642      -164.3198
  21   2.0000      -6.036391      -164.2585
  22   2.0000      -6.034530      -164.2079
  23   2.0000      -6.030883      -164.1087
  24   2.0000      -1.002180       -27.2707
  25   2.0000      -0.984292       -26.7840
  26   2.0000      -0.911897       -24.8140
  27   2.0000      -0.908314       -24.7165
  28   2.0000      -0.866507       -23.5789
  29   2.0000      -0.848831       -23.0979
  30   2.0000      -0.843341       -22.9485
  31   2.0000      -0.816249       -22.2113
  32   2.0000      -0.784977       -21.3603
  33   2.0000      -0.770481       -20.9659
  34   2.0000      -0.705139       -19.1878
  35   2.0000      -0.692567       -18.8457
  36   2.0000      -0.684839       -18.6354
  37   2.0000      -0.648125       -17.6364
  38   2.0000      -0.638812       -17.3830
  39   2.0000      -0.621696       -16.9172
  40   2.0000      -0.598032       -16.2733
  41   2.0000      -0.568811       -15.4781
  42   2.0000      -0.551729       -15.0133
  43   2.0000      -0.550556       -14.9814
  44   2.0000      -0.544939       -14.8285
  45   2.0000      -0.541130       -14.7249
  46   2.0000      -0.522645       -14.2219
  47   2.0000      -0.512132       -13.9358
  48   2.0000      -0.504251       -13.7214
  49   2.0000      -0.494723       -13.4621
  50   2.0000      -0.487964       -13.2782
  51   2.0000      -0.475749       -12.9458
  52   2.0000      -0.473954       -12.8969
  53   2.0000      -0.462624       -12.5886
  54   2.0000      -0.459282       -12.4977
  55   2.0000      -0.446091       -12.1387
  56   2.0000      -0.444584       -12.0977
  57   2.0000      -0.440295       -11.9810
  58   2.0000      -0.435650       -11.8546
  59   2.0000      -0.423186       -11.5155
  60   2.0000      -0.420178       -11.4336
  61   2.0000      -0.411590       -11.1999
  62   2.0000      -0.404729       -11.0132
  63   2.0000      -0.351212        -9.5570
  64   2.0000      -0.329850        -8.9757
  65   2.0000      -0.328154        -8.9295
  66   2.0000      -0.290781        -7.9125
  67   0.0000       0.026782         0.7288
  68   0.0000       0.064262         1.7487
  69   0.0000       0.107206         2.9172
  70   0.0000       0.115233         3.1357
  71   0.0000       0.126549         3.4436

MULLIKEN ATOMIC CHARGES
-----------------------
   0 S :    0.106234
   1 C :   -0.141680
   2 C :   -0.128682
   3 C :   -0.019903
   4 C :   -0.107584
   5 H :    0.031142
   6 C :    0.081926
   7 H :    0.016061
   8 H :    0.062864
   9 C :   -0.107244
  10 H :    0.046809
  11 H :    0.038983
  12 C :   -0.050456
  13 H :    0.037449
  14 H :    0.033831
  15 H :    0.026791
  16 S :    0.127189
  17 C :   -0.073284
  18 C :   -0.068488
  19 C :   -0.036678
  20 C :   -0.166458
  21 H :    0.029522
  22 C :    0.047817
  23 H :    0.054207
  24 H :    0.004530
  25 C :   -0.094178
  26 H :    0.025107
  27 H :    0.037829
  28 C :   -0.031368
  29 H :    0.029663
  30 H :    0.014957
  31 H :    0.041982
  32 H :    0.069533
  33 H :    0.061578
Sum of atomic charges:    0.0000000

LOEWDIN ATOMIC CHARGES
----------------------
   0 S :    0.409973
   1 C :   -0.215531
   2 C :   -0.071369
   3 C :   -0.078680
   4 C :   -0.189297
   5 H :    0.036076
   6 C :   -0.028344
   7 H :    0.027775
   8 H :    0.043525
   9 C :   -0.049878
  10 H :    0.032925
  11 H :    0.028957
  12 C :   -0.067390
  13 H :    0.024994
  14 H :    0.022109
  15 H :    0.026052
  16 S :    0.420108
  17 C :   -0.203846
  18 C :   -0.079797
  19 C :   -0.046241
  20 C :   -0.191754
  21 H :    0.030359
  22 C :   -0.042102
  23 H :    0.041773
  24 H :    0.027697
  25 C :   -0.039281
  26 H :    0.017989
  27 H :    0.027975
  28 C :   -0.063059
  29 H :    0.025147
  30 H :    0.014377
  31 H :    0.032138
  32 H :    0.036631
  33 H :    0.039991

  Mayer bond orders larger than 0.100000
B(  0-S ,  1-C ) :   1.1712 B(  0-S ,  4-C ) :   1.1428 B(  1-C ,  2-C ) :   1.5680
B(  1-C ,  4-C ) :   0.1039 B(  1-C , 32-H ) :   0.9617 B(  2-C ,  3-C ) :   1.2682
B(  2-C ,  6-C ) :   1.0012 B(  3-C ,  4-C ) :   1.5969 B(  3-C ,  5-H ) :   0.9753
B(  4-C , 20-C ) :   1.0279 B(  6-C ,  7-H ) :   0.9408 B(  6-C ,  8-H ) :   0.9439
B(  6-C ,  9-C ) :   1.0645 B(  9-C , 10-H ) :   0.9554 B(  9-C , 11-H ) :   0.9570
B(  9-C , 12-C ) :   1.0810 B( 12-C , 13-H ) :   0.9736 B( 12-C , 14-H ) :   0.9734
B( 12-C , 15-H ) :   0.9731 B( 16-S , 17-C ) :   1.1767 B( 16-S , 20-C ) :   1.1282
B( 17-C , 18-C ) :   1.6074 B( 17-C , 33-H ) :   0.9617 B( 18-C , 19-C ) :   1.2341
B( 18-C , 21-H ) :   0.9816 B( 19-C , 20-C ) :   1.5795 B( 19-C , 22-C ) :   1.0441
B( 22-C , 23-H ) :   0.9333 B( 22-C , 24-H ) :   0.9351 B( 22-C , 25-C ) :   1.0662
B( 25-C , 26-H ) :   0.9544 B( 25-C , 27-H ) :   0.9558 B( 25-C , 28-C ) :   1.0832
B( 28-C , 29-H ) :   0.9718 B( 28-C , 30-H ) :   0.9718 B( 28-C , 31-H ) :   0.9697

Dispersion correction           -0.015062082
FINAL SINGLE POINT ENERGY     -1339.872001894658

DIPOLE MOMENT
-------------
                                X             Y             Z
Electronic contribution:     27.65718       9.81784       7.21742
Nuclear contribution   :    -28.33398     -10.06790      -7.26033
                        -----------------------------------------
Total Dipole Moment    :     -0.67679      -0.25005      -0.04291
                        -----------------------------------------
Magnitude (a.u.)       :      0.72279
Magnitude (Debye)      :      1.83717

Rotational constants in cm-1:     0.018142     0.009764     0.006896
Rotational constants in MHz :   543.882268   292.730791   206.731538

                             ****ORCA TERMINATED NORMALLY****
TOTAL RUN TIME: 0 days 0 hours 0 minutes 22 seconds 414 msec
