                         Program Version 4.2.1 -  RELEASE  -
|  1> ! wB97X-D3 SP def2-SVP
|  2> %pal
|  3> nprocs 24
|  4> end
|  5>
|  6> * xyz 0 1
|  7> S 	 -108.507 	 55.5418 	 -72.5052
|  8> C 	 -108.79 	 54.0494 	 -73.2741
|  9> C 	 -109.16 	 54.2127 	 -74.6035
| 10> C 	 -109.293 	 55.6053 	 -74.9481
| 11> C 	 -108.805 	 56.4443 	 -73.9772
| 12> H 	 -109.648 	 55.9449 	 -75.9229
| 13> C 	 -109.529 	 53.1427 	 -75.5711
| 14> H 	 -108.984 	 52.2429 	 -75.2765
| 15> H 	 -109.18 	 53.4088 	 -76.5516
| 16> C 	 -111.043 	 52.8804 	 -75.5545
| 17> H 	 -111.407 	 52.545 	 -74.589
| 18> H 	 -111.492 	 53.7919 	 -75.8372
| 19> C 	 -111.531 	 51.7827 	 -76.5646
| 20> H 	 -111.398 	 51.9906 	 -77.645
| 21> H 	 -110.974 	 50.8867 	 -76.3904
| 22> H 	 -112.612 	 51.5697 	 -76.3151
| 23> S 	 -107.064 	 58.6076 	 -74.088
| 24> C 	 -107.642 	 60.1773 	 -73.7918
| 25> C 	 -108.971 	 60.1403 	 -73.6322
| 26> C 	 -109.628 	 58.8997 	 -73.9935
| 27> C 	 -108.718 	 57.8867 	 -74.0692
| 28> H 	 -109.466 	 61.0266 	 -73.2892
| 29> C 	 -111.147 	 58.8328 	 -73.727
| 30> H 	 -111.681 	 59.612 	 -73.19
| 31> H 	 -111.282 	 58.0676 	 -72.887
| 32> C 	 -112.08 	 58.2993 	 -74.8122
| 33> H 	 -111.564 	 57.3804 	 -75.0824
| 34> H 	 -112.104 	 58.8606 	 -75.7055
| 35> C 	 -113.473 	 57.875 	 -74.291
| 36> H 	 -114.036 	 58.6859 	 -73.76
| 37> H 	 -113.551 	 57.1257 	 -73.4899
| 38> H 	 -114.053 	 57.4056 	 -75.1564
| 39> H 	 -108.727 	 53.0003 	 -72.9354
| 40> H 	 -107.066 	 61.0591 	 -73.7816
| 41> *
| 42>
| 43>                          ****END OF INPUT****

CARTESIAN COORDINATES (ANGSTROEM)
---------------------------------
  S    -108.507000   55.541800  -72.505200
  C    -108.790000   54.049400  -73.274100
  C    -109.160000   54.212700  -74.603500
  C    -109.293000   55.605300  -74.948100
  C    -108.805000   56.444300  -73.977200
  H    -109.648000   55.944900  -75.922900
  C    -109.529000   53.142700  -75.571100
  H    -108.984000   52.242900  -75.276500
  H    -109.180000   53.408800  -76.551600
  C    -111.043000   52.880400  -75.554500
  H    -111.407000   52.545000  -74.589000
  H    -111.492000   53.791900  -75.837200
  C    -111.531000   51.782700  -76.564600
  H    -111.398000   51.990600  -77.645000
  H    -110.974000   50.886700  -76.390400
  H    -112.612000   51.569700  -76.315100
  S    -107.064000   58.607600  -74.088000
  C    -107.642000   60.177300  -73.791800
  C    -108.971000   60.140300  -73.632200
  C    -109.628000   58.899700  -73.993500
  C    -108.718000   57.886700  -74.069200
  H    -109.466000   61.026600  -73.289200
  C    -111.147000   58.832800  -73.727000
  H    -111.681000   59.612000  -73.190000
  H    -111.282000   58.067600  -72.887000
  C    -112.080000   58.299300  -74.812200
  H    -111.564000   57.380400  -75.082400
  H    -112.104000   58.860600  -75.705500
  C    -113.473000   57.875000  -74.291000
  H    -114.036000   58.685900  -73.760000
  H    -113.551000   57.125700  -73.489900
  H    -114.053000   57.405600  -75.156400
  H    -108.727000   53.000300  -72.935400
  H    -107.066000   61.059100  -73.781600

 Total Charge           Charge          ....    0
 Multiplicity           Mult            ....    1
 Number of Electrons    NEL             ....  134
 Basis Dimension        Dim             ....  322

ORBITAL ENERGIES
----------------

  NO   OCC          E(Eh)            E(eV)
   0   2.0000     -88.970954     -2421.0228
   1   2.0000     -88.958208     -2420.6759
   2   2.0000     -10.329825      -281.0888
   3   2.0000     -10.328283      -281.0469
   4   2.0000     -10.313594      -280.6472
   5   2.0000     -10.309801      -280.5439
   6   2.0000     -10.306604      -280.4569
   7   2.0000     -10.296764      -280.1892
   8   2.0000     -10.295587      -280.1572
   9   2.0000     -10.295028      -280.1420
  10   2.0000     -10.289541      -279.9927
  11   2.0000     -10.288308      -279.9591
  12   2.0000     -10.286542      -279.9110
  13   2.0000     -10.285258      -279.8761
  14   2.0000     -10.283241      -279.8212
  15   2.0000     -10.282289      -279.7953
  16   2.0000      -8.085892      -220.0283
  17   2.0000      -8.073715      -219.6970
  18   2.0000      -6.044484      -164.4788
  19   2.0000      -6.040332      -164.3658
  20   2.0000      -6.036576      -164.2636
  21   2.0000      -6.032254      -164.1460
  22   2.0000      -6.028121      -164.0335
  23   2.0000      -6.024361      -163.9312
  24   2.0000      -1.011027       -27.5114
  25   2.0000      -0.991004       -26.9666
  26   2.0000      -0.914662       -24.8892
  27   2.0000      -0.906396       -24.6643
  28   2.0000      -0.873367       -23.7655
  29   2.0000      -0.849555       -23.1176
  30   2.0000      -0.846143       -23.0247
  31   2.0000      -0.816123       -22.2078
  32   2.0000      -0.779996       -21.2248
  33   2.0000      -0.772012       -21.0075
  34   2.0000      -0.711449       -19.3595
  35   2.0000      -0.702845       -19.1254
  36   2.0000      -0.696159       -18.9434
  37   2.0000      -0.660666       -17.9776
  38   2.0000      -0.639619       -17.4049
  39   2.0000      -0.622988       -16.9524
  40   2.0000      -0.602324       -16.3901
  41   2.0000      -0.575289       -15.6544
  42   2.0000      -0.563652       -15.3378
  43   2.0000      -0.556498       -15.1431
  44   2.0000      -0.527948       -14.3662
  45   2.0000      -0.521621       -14.1940
  46   2.0000      -0.519660       -14.1407
  47   2.0000      -0.511604       -13.9215
  48   2.0000      -0.507643       -13.8137
  49   2.0000      -0.499286       -13.5863
  50   2.0000      -0.497582       -13.5399
  51   2.0000      -0.477182       -12.9848
  52   2.0000      -0.474370       -12.9083
  53   2.0000      -0.464327       -12.6350
  54   2.0000      -0.459527       -12.5044
  55   2.0000      -0.447134       -12.1671
  56   2.0000      -0.442284       -12.0352
  57   2.0000      -0.438112       -11.9216
  58   2.0000      -0.428714       -11.6659
  59   2.0000      -0.427520       -11.6334
  60   2.0000      -0.422789       -11.5047
  61   2.0000      -0.413435       -11.2501
  62   2.0000      -0.403140       -10.9700
  63   2.0000      -0.340341        -9.2612
  64   2.0000      -0.332021        -9.0347
  65   2.0000      -0.322169        -8.7667
  66   2.0000      -0.304484        -8.2854
  67   0.0000       0.040260         1.0955
  68   0.0000       0.058296         1.5863
  69   0.0000       0.112896         3.0721
  70   0.0000       0.123534         3.3615
  71   0.0000       0.126314         3.4372

MULLIKEN ATOMIC CHARGES
-----------------------
   0 S :    0.143910
   1 C :   -0.104263
   2 C :   -0.132681
   3 C :    0.040845
   4 C :   -0.148905
   5 H :    0.022458
   6 C :    0.086399
   7 H :    0.012759
   8 H :    0.020200
   9 C :   -0.053334
  10 H :    0.027901
  11 H :    0.017276
  12 C :   -0.062353
  13 H :    0.038636
  14 H :    0.019920
  15 H :    0.045535
  16 S :    0.094166
  17 C :   -0.054143
  18 C :   -0.060952
  19 C :    0.067140
  20 C :   -0.190365
  21 H :    0.012153
  22 C :   -0.013102
  23 H :    0.018243
  24 H :    0.031362
  25 C :   -0.026055
  26 H :    0.014713
  27 H :    0.026697
  28 C :   -0.100216
  29 H :    0.033165
  30 H :    0.030242
  31 H :    0.049761
  32 H :    0.048676
  33 H :    0.044211
Sum of atomic charges:   -0.0000000

LOEWDIN ATOMIC CHARGES
----------------------
   0 S :    0.435138
   1 C :   -0.221508
   2 C :   -0.066162
   3 C :   -0.053430
   4 C :   -0.204731
   5 H :    0.031799
   6 C :   -0.031633
   7 H :    0.027597
   8 H :    0.028253
   9 C :   -0.028510
  10 H :    0.025664
  11 H :    0.016693
  12 C :   -0.071144
  13 H :    0.025831
  14 H :    0.017487
  15 H :    0.034125
  16 S :    0.396101
  17 C :   -0.188272
  18 C :   -0.073266
  19 C :   -0.047343
  20 C :   -0.180493
  21 H :    0.026482
  22 C :   -0.042874
  23 H :    0.025486
  24 H :    0.041710
  25 C :   -0.041773
  26 H :    0.025177
  27 H :    0.017971
  28 C :   -0.079628
  29 H :    0.026175
  30 H :    0.025767
  31 H :    0.037635
  32 H :    0.039176
  33 H :    0.026498

  Mayer bond orders larger than 0.100000
B(  0-S ,  1-C ) :   1.1447 B(  0-S ,  4-C ) :   1.1486 B(  1-C ,  2-C ) :   1.6130
B(  1-C , 32-H ) :   0.9579 B(  2-C ,  3-C ) :   1.2470 B(  2-C ,  6-C ) :   1.0438
B(  3-C ,  4-C ) :   1.5777 B(  3-C ,  5-H ) :   0.9859 B(  4-C , 20-C ) :   1.0309
B(  6-C ,  7-H ) :   0.9312 B(  6-C ,  8-H ) :   0.9367 B(  6-C ,  9-C ) :   1.0660
B(  9-C , 10-H ) :   0.9577 B(  9-C , 11-H ) :   0.9579 B(  9-C , 12-C ) :   1.0759
B( 12-C , 13-H ) :   0.9768 B( 12-C , 14-H ) :   0.9752 B( 12-C , 15-H ) :   0.9764
B( 16-S , 17-C ) :   1.1429 B( 16-S , 20-C ) :   1.1309 B( 17-C , 18-C ) :   1.6351
B( 17-C , 33-H ) :   0.9732 B( 18-C , 19-C ) :   1.2059 B( 18-C , 21-H ) :   0.9954
B( 19-C , 20-C ) :   1.6190 B( 19-C , 22-C ) :   1.0202 B( 22-C , 23-H ) :   0.9570
B( 22-C , 24-H ) :   0.9384 B( 22-C , 25-C ) :   1.0456 B( 25-C , 26-H ) :   0.9507
B( 25-C , 27-H ) :   0.9580 B( 25-C , 28-C ) :   1.0754 B( 28-C , 29-H ) :   0.9749
B( 28-C , 30-H ) :   0.9734 B( 28-C , 31-H ) :   0.9736

Dispersion correction           -0.014217219
FINAL SINGLE POINT ENERGY     -1339.858558533054

DIPOLE MOMENT
-------------
                                X             Y             Z
Electronic contribution:     26.05333      12.49963      11.19757
Nuclear contribution   :    -26.55833     -12.67672     -11.33209
                        -----------------------------------------
Total Dipole Moment    :     -0.50500      -0.17709      -0.13452
                        -----------------------------------------
Magnitude (a.u.)       :      0.55179
Magnitude (Debye)      :      1.40255

Rotational constants in cm-1:     0.018559     0.008649     0.006733
Rotational constants in MHz :   556.383745   259.279946   201.853446

                             ****ORCA TERMINATED NORMALLY****
TOTAL RUN TIME: 0 days 0 hours 0 minutes 21 seconds 616 msec
