                         Program Version 4.2.1 -  RELEASE  -
|  1> ! wB97X-D3 SP def2-SVP
|  2> %pal
|  3> nprocs 24
|  4> end
|  5>
|  6> * xyz 0 1
|  7> S 	 -125.172 	 26.7001 	 -111.976
|  8> C 	 -124.24 	 25.4873 	 -112.84
|  9> C 	 -123.126 	 24.9348 	 -112.216
| 10> C 	 -122.994 	 25.645 	 -110.954
| 11> C 	 -123.969 	 26.6191 	 -110.704
| 12> H 	 -122.211 	 25.5602 	 -110.24
| 13> C 	 -122.202 	 23.911 	 -112.806
| 14> H 	 -121.191 	 24.3557 	 -112.709
| 15> H 	 -122.502 	 23.9263 	 -113.848
| 16> C 	 -122.176 	 22.5216 	 -112.201
| 17> H 	 -121.758 	 22.5577 	 -111.187
| 18> H 	 -123.216 	 22.1838 	 -112.19
| 19> C 	 -121.281 	 21.5859 	 -112.983
| 20> H 	 -121.338 	 20.5584 	 -112.634
| 21> H 	 -121.576 	 21.5443 	 -114.066
| 22> H 	 -120.287 	 22.052 	 -112.876
| 23> S 	 -124.023 	 29.2729 	 -110.134
| 24> C 	 -123.555 	 29.684 	 -108.476
| 25> C 	 -123.412 	 28.6034 	 -107.595
| 26> C 	 -123.581 	 27.3796 	 -108.327
| 27> C 	 -123.974 	 27.575 	 -109.624
| 28> H 	 -123.133 	 28.6082 	 -106.554
| 29> C 	 -123.284 	 26.0028 	 -107.699
| 30> H 	 -123.678 	 25.1799 	 -108.333
| 31> H 	 -123.678 	 26.0434 	 -106.696
| 32> C 	 -121.756 	 25.6088 	 -107.516
| 33> H 	 -121.313 	 26.3992 	 -106.867
| 34> H 	 -121.213 	 25.8408 	 -108.455
| 35> C 	 -121.48 	 24.2155 	 -106.924
| 36> H 	 -121.04 	 24.1939 	 -105.862
| 37> H 	 -120.75 	 23.6556 	 -107.488
| 38> H 	 -122.401 	 23.6349 	 -106.844
| 39> H 	 -124.586 	 25.2534 	 -113.842
| 40> H 	 -123.582 	 30.7473 	 -108.07
| 41> *
| 42>
| 43>                          ****END OF INPUT****

CARTESIAN COORDINATES (ANGSTROEM)
---------------------------------
  S    -125.172000   26.700100  -111.976000
  C    -124.240000   25.487300  -112.840000
  C    -123.126000   24.934800  -112.216000
  C    -122.994000   25.645000  -110.954000
  C    -123.969000   26.619100  -110.704000
  H    -122.211000   25.560200  -110.240000
  C    -122.202000   23.911000  -112.806000
  H    -121.191000   24.355700  -112.709000
  H    -122.502000   23.926300  -113.848000
  C    -122.176000   22.521600  -112.201000
  H    -121.758000   22.557700  -111.187000
  H    -123.216000   22.183800  -112.190000
  C    -121.281000   21.585900  -112.983000
  H    -121.338000   20.558400  -112.634000
  H    -121.576000   21.544300  -114.066000
  H    -120.287000   22.052000  -112.876000
  S    -124.023000   29.272900  -110.134000
  C    -123.555000   29.684000  -108.476000
  C    -123.412000   28.603400  -107.595000
  C    -123.581000   27.379600  -108.327000
  C    -123.974000   27.575000  -109.624000
  H    -123.133000   28.608200  -106.554000
  C    -123.284000   26.002800  -107.699000
  H    -123.678000   25.179900  -108.333000
  H    -123.678000   26.043400  -106.696000
  C    -121.756000   25.608800  -107.516000
  H    -121.313000   26.399200  -106.867000
  H    -121.213000   25.840800  -108.455000
  C    -121.480000   24.215500  -106.924000
  H    -121.040000   24.193900  -105.862000
  H    -120.750000   23.655600  -107.488000
  H    -122.401000   23.634900  -106.844000
  H    -124.586000   25.253400  -113.842000
  H    -123.582000   30.747300  -108.070000

 Total Charge           Charge          ....    0
 Multiplicity           Mult            ....    1
 Number of Electrons    NEL             ....  134
 Basis Dimension        Dim             ....  322

ORBITAL ENERGIES
----------------

  NO   OCC          E(Eh)            E(eV)
   0   2.0000     -88.969786     -2420.9910
   1   2.0000     -88.965869     -2420.8844
   2   2.0000     -10.327432      -281.0237
   3   2.0000     -10.324722      -280.9500
   4   2.0000     -10.321168      -280.8533
   5   2.0000     -10.313870      -280.6547
   6   2.0000     -10.305546      -280.4282
   7   2.0000     -10.302568      -280.3471
   8   2.0000     -10.299341      -280.2593
   9   2.0000     -10.297552      -280.2106
  10   2.0000     -10.295852      -280.1644
  11   2.0000     -10.295235      -280.1476
  12   2.0000     -10.293421      -280.0982
  13   2.0000     -10.288120      -279.9540
  14   2.0000     -10.287439      -279.9354
  15   2.0000     -10.283452      -279.8270
  16   2.0000      -8.083824      -219.9720
  17   2.0000      -8.080713      -219.8874
  18   2.0000      -6.042362      -164.4210
  19   2.0000      -6.039011      -164.3298
  20   2.0000      -6.038688      -164.3210
  21   2.0000      -6.035404      -164.2317
  22   2.0000      -6.034313      -164.2020
  23   2.0000      -6.031521      -164.1260
  24   2.0000      -1.003796       -27.3147
  25   2.0000      -0.977744       -26.6058
  26   2.0000      -0.919087       -25.0096
  27   2.0000      -0.900520       -24.5044
  28   2.0000      -0.869367       -23.6567
  29   2.0000      -0.852549       -23.1990
  30   2.0000      -0.848147       -23.0793
  31   2.0000      -0.809009       -22.0143
  32   2.0000      -0.783754       -21.3270
  33   2.0000      -0.768236       -20.9048
  34   2.0000      -0.703887       -19.1537
  35   2.0000      -0.696811       -18.9612
  36   2.0000      -0.686734       -18.6870
  37   2.0000      -0.667797       -18.1717
  38   2.0000      -0.642845       -17.4927
  39   2.0000      -0.614910       -16.7326
  40   2.0000      -0.591770       -16.1029
  41   2.0000      -0.583202       -15.8697
  42   2.0000      -0.560234       -15.2447
  43   2.0000      -0.552540       -15.0354
  44   2.0000      -0.529731       -14.4147
  45   2.0000      -0.521179       -14.1820
  46   2.0000      -0.514299       -13.9948
  47   2.0000      -0.512460       -13.9448
  48   2.0000      -0.506445       -13.7811
  49   2.0000      -0.491450       -13.3730
  50   2.0000      -0.483042       -13.1442
  51   2.0000      -0.478214       -13.0129
  52   2.0000      -0.468538       -12.7496
  53   2.0000      -0.463480       -12.6119
  54   2.0000      -0.459109       -12.4930
  55   2.0000      -0.455178       -12.3860
  56   2.0000      -0.443943       -12.0803
  57   2.0000      -0.436056       -11.8657
  58   2.0000      -0.433031       -11.7834
  59   2.0000      -0.430698       -11.7199
  60   2.0000      -0.425943       -11.5905
  61   2.0000      -0.425043       -11.5660
  62   2.0000      -0.409450       -11.1417
  63   2.0000      -0.345433        -9.3997
  64   2.0000      -0.332593        -9.0503
  65   2.0000      -0.330908        -9.0045
  66   2.0000      -0.286761        -7.8032
  67   0.0000       0.029107         0.7920
  68   0.0000       0.068437         1.8623
  69   0.0000       0.102615         2.7923
  70   0.0000       0.116667         3.1747
  71   0.0000       0.120725         3.2851

MULLIKEN ATOMIC CHARGES
-----------------------
   0 S :    0.105942
   1 C :   -0.142266
   2 C :   -0.058206
   3 C :    0.048077
   4 C :   -0.168293
   5 H :   -0.040766
   6 C :    0.063187
   7 H :    0.032844
   8 H :    0.016555
   9 C :   -0.066006
  10 H :    0.032799
  11 H :    0.031587
  12 C :   -0.046004
  13 H :    0.042547
  14 H :    0.033017
  15 H :    0.032341
  16 S :    0.111829
  17 C :   -0.110196
  18 C :   -0.016932
  19 C :   -0.063881
  20 C :   -0.118634
  21 H :    0.020634
  22 C :    0.048886
  23 H :    0.046485
  24 H :    0.026255
  25 C :   -0.107395
  26 H :    0.021668
  27 H :    0.038553
  28 C :   -0.051123
  29 H :    0.044865
  30 H :    0.035844
  31 H :    0.035797
  32 H :    0.041746
  33 H :    0.078243
Sum of atomic charges:    0.0000000

LOEWDIN ATOMIC CHARGES
----------------------
   0 S :    0.392786
   1 C :   -0.190084
   2 C :   -0.057712
   3 C :   -0.055300
   4 C :   -0.193737
   5 H :    0.018651
   6 C :   -0.032772
   7 H :    0.035983
   8 H :    0.032208
   9 C :   -0.042139
  10 H :    0.027058
  11 H :    0.024404
  12 C :   -0.065972
  13 H :    0.027003
  14 H :    0.027976
  15 H :    0.028562
  16 S :    0.391184
  17 C :   -0.183738
  18 C :   -0.065984
  19 C :   -0.054519
  20 C :   -0.196660
  21 H :    0.032940
  22 C :   -0.029631
  23 H :    0.033354
  24 H :    0.028228
  25 C :   -0.052430
  26 H :    0.024490
  27 H :    0.022226
  28 C :   -0.075466
  29 H :    0.038219
  30 H :    0.026557
  31 H :    0.027556
  32 H :    0.017684
  33 H :    0.039071

  Mayer bond orders larger than 0.100000
B(  0-S ,  1-C ) :   1.1426 B(  0-S ,  4-C ) :   1.1354 B(  1-C ,  2-C ) :   1.6204
B(  1-C , 32-H ) :   0.9620 B(  2-C ,  3-C ) :   1.2113 B(  2-C ,  6-C ) :   1.0251
B(  3-C ,  4-C ) :   1.5915 B(  3-C ,  5-H ) :   0.9915 B(  4-C , 20-C ) :   1.0350
B(  6-C ,  7-H ) :   0.9302 B(  6-C ,  8-H ) :   0.9349 B(  6-C ,  9-C ) :   1.0695
B(  9-C , 10-H ) :   0.9518 B(  9-C , 11-H ) :   0.9535 B(  9-C , 12-C ) :   1.0845
B( 12-C , 13-H ) :   0.9741 B( 12-C , 14-H ) :   0.9741 B( 12-C , 15-H ) :   0.9731
B( 16-S , 17-C ) :   1.1498 B( 16-S , 20-C ) :   1.1173 B( 17-C , 18-C ) :   1.6166
B( 17-C , 33-H ) :   0.9538 B( 18-C , 19-C ) :   1.2225 B( 18-C , 21-H ) :   0.9887
B( 19-C , 20-C ) :   1.6404 B( 19-C , 22-C ) :   1.0513 B( 22-C , 23-H ) :   0.9350
B( 22-C , 24-H ) :   0.9315 B( 22-C , 25-C ) :   1.0583 B( 25-C , 26-H ) :   0.9526
B( 25-C , 27-H ) :   0.9576 B( 25-C , 28-C ) :   1.0517 B( 28-C , 29-H ) :   0.9767
B( 28-C , 30-H ) :   0.9775 B( 28-C , 31-H ) :   0.9782

Dispersion correction           -0.014072083
FINAL SINGLE POINT ENERGY     -1339.877206456645

DIPOLE MOMENT
-------------
                                X             Y             Z
Electronic contribution:    -18.33254      27.17220      -6.13016
Nuclear contribution   :     18.85561     -27.63831       6.38395
                        -----------------------------------------
Total Dipole Moment    :      0.52307      -0.46611       0.25378
                        -----------------------------------------
Magnitude (a.u.)       :      0.74517
Magnitude (Debye)      :      1.89407

Rotational constants in cm-1:     0.017459     0.009236     0.006442
Rotational constants in MHz :   523.409246   276.880033   193.115587

                             ****ORCA TERMINATED NORMALLY****
TOTAL RUN TIME: 0 days 0 hours 0 minutes 21 seconds 816 msec
