                         Program Version 4.2.1 -  RELEASE  -
|  1> ! wB97X-D3 SP def2-SVP
|  2> %pal
|  3> nprocs 24
|  4> end
|  5>
|  6> * xyz 0 1
|  7> S 	 -105.266 	 46.7553 	 -9.67326
|  8> C 	 -106.513 	 47.6348 	 -10.4528
|  9> C 	 -107.517 	 46.8744 	 -10.9875
| 10> C 	 -107.208 	 45.4539 	 -10.8036
| 11> C 	 -106.085 	 45.1743 	 -9.99743
| 12> H 	 -107.78 	 44.6478 	 -11.2177
| 13> C 	 -108.658 	 47.3944 	 -11.8401
| 14> H 	 -108.602 	 46.8582 	 -12.8025
| 15> H 	 -108.445 	 48.5002 	 -11.9961
| 16> C 	 -109.977 	 47.0933 	 -11.289
| 17> H 	 -110.719 	 47.1807 	 -12.0803
| 18> H 	 -109.847 	 46.0809 	 -10.9963
| 19> C 	 -110.412 	 48.0019 	 -10.0879
| 20> H 	 -111.368 	 47.7383 	 -9.56063
| 21> H 	 -109.577 	 48.1032 	 -9.40913
| 22> H 	 -110.533 	 49.0301 	 -10.5036
| 23> S 	 -103.81 	 43.8439 	 -10.1051
| 24> C 	 -103.718 	 42.0977 	 -9.6737
| 25> C 	 -105.013 	 41.6173 	 -9.38818
| 26> C 	 -106.032 	 42.6345 	 -9.40843
| 27> C 	 -105.514 	 43.8912 	 -9.80294
| 28> H 	 -105.213 	 40.6188 	 -9.19468
| 29> C 	 -107.479 	 42.2991 	 -9.30484
| 30> H 	 -107.967 	 42.1638 	 -10.311
| 31> H 	 -108.04 	 43.2135 	 -9.0069
| 32> C 	 -107.902 	 41.0063 	 -8.63155
| 33> H 	 -107.487 	 40.9258 	 -7.65801
| 34> H 	 -107.583 	 40.0897 	 -9.18154
| 35> C 	 -109.427 	 40.9359 	 -8.35045
| 36> H 	 -109.651 	 41.7459 	 -7.70985
| 37> H 	 -109.69 	 40.0964 	 -7.67551
| 38> H 	 -110.056 	 40.8645 	 -9.27697
| 39> H 	 -106.344 	 48.6576 	 -10.6916
| 40> H 	 -102.833 	 41.4807 	 -9.95865
| 41> *
| 42>
| 43>                          ****END OF INPUT****

CARTESIAN COORDINATES (ANGSTROEM)
---------------------------------
  S    -105.266000   46.755300   -9.673260
  C    -106.513000   47.634800  -10.452800
  C    -107.517000   46.874400  -10.987500
  C    -107.208000   45.453900  -10.803600
  C    -106.085000   45.174300   -9.997430
  H    -107.780000   44.647800  -11.217700
  C    -108.658000   47.394400  -11.840100
  H    -108.602000   46.858200  -12.802500
  H    -108.445000   48.500200  -11.996100
  C    -109.977000   47.093300  -11.289000
  H    -110.719000   47.180700  -12.080300
  H    -109.847000   46.080900  -10.996300
  C    -110.412000   48.001900  -10.087900
  H    -111.368000   47.738300   -9.560630
  H    -109.577000   48.103200   -9.409130
  H    -110.533000   49.030100  -10.503600
  S    -103.810000   43.843900  -10.105100
  C    -103.718000   42.097700   -9.673700
  C    -105.013000   41.617300   -9.388180
  C    -106.032000   42.634500   -9.408430
  C    -105.514000   43.891200   -9.802940
  H    -105.213000   40.618800   -9.194680
  C    -107.479000   42.299100   -9.304840
  H    -107.967000   42.163800  -10.311000
  H    -108.040000   43.213500   -9.006900
  C    -107.902000   41.006300   -8.631550
  H    -107.487000   40.925800   -7.658010
  H    -107.583000   40.089700   -9.181540
  C    -109.427000   40.935900   -8.350450
  H    -109.651000   41.745900   -7.709850
  H    -109.690000   40.096400   -7.675510
  H    -110.056000   40.864500   -9.276970
  H    -106.344000   48.657600  -10.691600
  H    -102.833000   41.480700   -9.958650

 Total Charge           Charge          ....    0
 Multiplicity           Mult            ....    1
 Number of Electrons    NEL             ....  134
 Basis Dimension        Dim             ....  322

ORBITAL ENERGIES
----------------

  NO   OCC          E(Eh)            E(eV)
   0   2.0000     -88.966560     -2420.9032
   1   2.0000     -88.966325     -2420.8968
   2   2.0000     -10.334819      -281.2247
   3   2.0000     -10.327917      -281.0369
   4   2.0000     -10.327136      -281.0157
   5   2.0000     -10.311305      -280.5849
   6   2.0000     -10.308715      -280.5144
   7   2.0000     -10.303407      -280.3700
   8   2.0000     -10.301414      -280.3157
   9   2.0000     -10.297945      -280.2213
  10   2.0000     -10.296882      -280.1924
  11   2.0000     -10.295718      -280.1607
  12   2.0000     -10.289813      -280.0001
  13   2.0000     -10.282896      -279.8118
  14   2.0000     -10.281869      -279.7839
  15   2.0000     -10.281800      -279.7820
  16   2.0000      -8.081131      -219.8987
  17   2.0000      -8.080685      -219.8866
  18   2.0000      -6.039774      -164.3506
  19   2.0000      -6.039200      -164.3350
  20   2.0000      -6.035650      -164.2384
  21   2.0000      -6.035193      -164.2260
  22   2.0000      -6.031751      -164.1323
  23   2.0000      -6.031489      -164.1252
  24   2.0000      -1.004711       -27.3396
  25   2.0000      -0.979714       -26.6594
  26   2.0000      -0.922060       -25.0905
  27   2.0000      -0.912089       -24.8192
  28   2.0000      -0.875003       -23.8101
  29   2.0000      -0.852905       -23.2087
  30   2.0000      -0.840656       -22.8754
  31   2.0000      -0.812374       -22.1058
  32   2.0000      -0.781339       -21.2613
  33   2.0000      -0.772200       -21.0126
  34   2.0000      -0.714249       -19.4357
  35   2.0000      -0.701462       -19.0878
  36   2.0000      -0.691412       -18.8143
  37   2.0000      -0.660546       -17.9744
  38   2.0000      -0.643478       -17.5099
  39   2.0000      -0.622405       -16.9365
  40   2.0000      -0.601665       -16.3721
  41   2.0000      -0.572176       -15.5697
  42   2.0000      -0.570214       -15.5163
  43   2.0000      -0.552889       -15.0449
  44   2.0000      -0.544245       -14.8097
  45   2.0000      -0.526609       -14.3297
  46   2.0000      -0.515612       -14.0305
  47   2.0000      -0.514663       -14.0047
  48   2.0000      -0.502392       -13.6708
  49   2.0000      -0.492639       -13.4054
  50   2.0000      -0.488279       -13.2867
  51   2.0000      -0.482006       -13.1161
  52   2.0000      -0.469072       -12.7641
  53   2.0000      -0.468809       -12.7569
  54   2.0000      -0.456887       -12.4325
  55   2.0000      -0.450968       -12.2715
  56   2.0000      -0.443295       -12.0627
  57   2.0000      -0.440366       -11.9830
  58   2.0000      -0.430066       -11.7027
  59   2.0000      -0.424986       -11.5645
  60   2.0000      -0.421450       -11.4682
  61   2.0000      -0.420583       -11.4446
  62   2.0000      -0.414364       -11.2754
  63   2.0000      -0.355005        -9.6602
  64   2.0000      -0.329312        -8.9610
  65   2.0000      -0.327385        -8.9086
  66   2.0000      -0.285303        -7.7635
  67   0.0000       0.017565         0.4780
  68   0.0000       0.070755         1.9253
  69   0.0000       0.100049         2.7225
  70   0.0000       0.118252         3.2178
  71   0.0000       0.122149         3.3238

MULLIKEN ATOMIC CHARGES
-----------------------
   0 S :    0.103898
   1 C :   -0.118811
   2 C :   -0.090257
   3 C :    0.004633
   4 C :   -0.135567
   5 H :    0.013670
   6 C :    0.051685
   7 H :    0.039475
   8 H :    0.024817
   9 C :   -0.036179
  10 H :    0.029471
  11 H :    0.014158
  12 C :   -0.065349
  13 H :    0.052471
  14 H :    0.032355
  15 H :    0.022921
  16 S :    0.095526
  17 C :   -0.108602
  18 C :   -0.013520
  19 C :    0.008922
  20 C :   -0.155287
  21 H :    0.001529
  22 C :   -0.003562
  23 H :    0.042549
  24 H :    0.030880
  25 C :   -0.085794
  26 H :    0.022821
  27 H :    0.041812
  28 C :   -0.051214
  29 H :    0.024376
  30 H :    0.031779
  31 H :    0.045092
  32 H :    0.046297
  33 H :    0.083004
Sum of atomic charges:   -0.0000000

LOEWDIN ATOMIC CHARGES
----------------------
   0 S :    0.392179
   1 C :   -0.198921
   2 C :   -0.067495
   3 C :   -0.053371
   4 C :   -0.185802
   5 H :    0.024504
   6 C :   -0.032615
   7 H :    0.039775
   8 H :    0.031646
   9 C :   -0.041651
  10 H :    0.023910
  11 H :    0.019464
  12 C :   -0.069614
  13 H :    0.032506
  14 H :    0.022913
  15 H :    0.026598
  16 S :    0.402760
  17 C :   -0.184336
  18 C :   -0.053980
  19 C :   -0.055381
  20 C :   -0.199159
  21 H :    0.019595
  22 C :   -0.050142
  23 H :    0.039843
  24 H :    0.036191
  25 C :   -0.044342
  26 H :    0.018928
  27 H :    0.027257
  28 C :   -0.064367
  29 H :    0.021123
  30 H :    0.030920
  31 H :    0.028447
  32 H :    0.023132
  33 H :    0.039488

  Mayer bond orders larger than 0.100000
B(  0-S ,  1-C ) :   1.1470 B(  0-S ,  4-C ) :   1.1199 B(  1-C ,  2-C ) :   1.6192
B(  1-C , 32-H ) :   0.9630 B(  2-C ,  3-C ) :   1.2254 B(  2-C ,  6-C ) :   1.0275
B(  3-C ,  4-C ) :   1.5606 B(  3-C ,  5-H ) :   0.9862 B(  4-C , 20-C ) :   1.1056
B(  6-C ,  7-H ) :   0.9336 B(  6-C ,  8-H ) :   0.9426 B(  6-C ,  9-C ) :   1.0696
B(  9-C , 10-H ) :   0.9550 B(  9-C , 11-H ) :   0.9527 B(  9-C , 12-C ) :   1.0657
B( 12-C , 13-H ) :   0.9765 B( 12-C , 14-H ) :   0.9775 B( 12-C , 15-H ) :   0.9736
B( 16-S , 17-C ) :   1.1455 B( 16-S , 20-C ) :   1.1552 B( 17-C , 18-C ) :   1.5786
B( 17-C , 20-C ) :   0.1052 B( 17-C , 33-H ) :   0.9612 B( 18-C , 19-C ) :   1.2617
B( 18-C , 21-H ) :   0.9922 B( 19-C , 20-C ) :   1.5354 B( 19-C , 22-C ) :   1.0683
B( 22-C , 23-H ) :   0.9257 B( 22-C , 24-H ) :   0.9271 B( 22-C , 25-C ) :   1.0616
B( 25-C , 26-H ) :   0.9574 B( 25-C , 27-H ) :   0.9453 B( 25-C , 28-C ) :   1.0884
B( 28-C , 29-H ) :   0.9740 B( 28-C , 30-H ) :   0.9729 B( 28-C , 31-H ) :   0.9753

Dispersion correction           -0.013643020
FINAL SINGLE POINT ENERGY     -1339.868287574805

DIPOLE MOMENT
-------------
                                X             Y             Z
Electronic contribution:     29.79094       5.06509      -0.57242
Nuclear contribution   :    -30.36348      -5.38739       0.20030
                        -----------------------------------------
Total Dipole Moment    :     -0.57254      -0.32230      -0.37212
                        -----------------------------------------
Magnitude (a.u.)       :      0.75509
Magnitude (Debye)      :      1.91928

Rotational constants in cm-1:     0.016575     0.009175     0.006292
Rotational constants in MHz :   496.907162   275.061163   188.629533

                             ****ORCA TERMINATED NORMALLY****
TOTAL RUN TIME: 0 days 0 hours 0 minutes 21 seconds 585 msec
