                         Program Version 4.2.1 -  RELEASE  -
|  1> ! wB97X-D3 SP def2-SVP
|  2> %pal
|  3> nprocs 24
|  4> end
|  5>
|  6> * xyz 0 1
|  7> S 	 2.32657 	 -16.8352 	 -105.376
|  8> C 	 1.95185 	 -18.2753 	 -106.384
|  9> C 	 0.780231 	 -18.8633 	 -105.99
| 10> C 	 0.206966 	 -18.1388 	 -104.867
| 11> C 	 0.900215 	 -17.0167 	 -104.48
| 12> H 	 -0.670791 	 -18.408 	 -104.371
| 13> C 	 0.203958 	 -20.1875 	 -106.445
| 14> H 	 -0.47542 	 -20.4996 	 -105.627
| 15> H 	 1.02049 	 -20.8632 	 -106.419
| 16> C 	 -0.371925 	 -20.1878 	 -107.838
| 17> H 	 -1.29333 	 -19.7758 	 -107.915
| 18> H 	 0.306671 	 -19.5553 	 -108.495
| 19> C 	 -0.484822 	 -21.6166 	 -108.418
| 20> H 	 -1.21534 	 -22.0799 	 -107.755
| 21> H 	 -0.838814 	 -21.5975 	 -109.501
| 22> H 	 0.512517 	 -22.0694 	 -108.535
| 23> S 	 2.03041 	 -16.4805 	 -101.93
| 24> C 	 1.00402 	 -15.627 	 -100.793
| 25> C 	 -0.252993 	 -15.3528 	 -101.253
| 26> C 	 -0.326917 	 -15.6495 	 -102.649
| 27> C 	 0.775282 	 -16.275 	 -103.19
| 28> H 	 -0.965215 	 -14.7915 	 -100.611
| 29> C 	 -1.50501 	 -15.3362 	 -103.509
| 30> H 	 -1.62429 	 -16.1148 	 -104.182
| 31> H 	 -1.23321 	 -14.4964 	 -104.134
| 32> C 	 -2.94072 	 -15.0934 	 -102.876
| 33> H 	 -3.59234 	 -14.9772 	 -103.768
| 34> H 	 -2.97853 	 -14.2131 	 -102.252
| 35> C 	 -3.37691 	 -16.2454 	 -101.951
| 36> H 	 -2.4922 	 -16.545 	 -101.344
| 37> H 	 -3.77422 	 -17.103 	 -102.42
| 38> H 	 -3.96954 	 -15.8186 	 -101.149
| 39> H 	 2.62375 	 -18.6417 	 -107.115
| 40> H 	 1.35109 	 -15.4241 	 -99.782
| 41> *
| 42>
| 43>                          ****END OF INPUT****

CARTESIAN COORDINATES (ANGSTROEM)
---------------------------------
  S      2.326570  -16.835200  -105.376000
  C      1.951850  -18.275300  -106.384000
  C      0.780231  -18.863300  -105.990000
  C      0.206966  -18.138800  -104.867000
  C      0.900215  -17.016700  -104.480000
  H     -0.670791  -18.408000  -104.371000
  C      0.203958  -20.187500  -106.445000
  H     -0.475420  -20.499600  -105.627000
  H      1.020490  -20.863200  -106.419000
  C     -0.371925  -20.187800  -107.838000
  H     -1.293330  -19.775800  -107.915000
  H      0.306671  -19.555300  -108.495000
  C     -0.484822  -21.616600  -108.418000
  H     -1.215340  -22.079900  -107.755000
  H     -0.838814  -21.597500  -109.501000
  H      0.512517  -22.069400  -108.535000
  S      2.030410  -16.480500  -101.930000
  C      1.004020  -15.627000  -100.793000
  C     -0.252993  -15.352800  -101.253000
  C     -0.326917  -15.649500  -102.649000
  C      0.775282  -16.275000  -103.190000
  H     -0.965215  -14.791500  -100.611000
  C     -1.505010  -15.336200  -103.509000
  H     -1.624290  -16.114800  -104.182000
  H     -1.233210  -14.496400  -104.134000
  C     -2.940720  -15.093400  -102.876000
  H     -3.592340  -14.977200  -103.768000
  H     -2.978530  -14.213100  -102.252000
  C     -3.376910  -16.245400  -101.951000
  H     -2.492200  -16.545000  -101.344000
  H     -3.774220  -17.103000  -102.420000
  H     -3.969540  -15.818600  -101.149000
  H      2.623750  -18.641700  -107.115000
  H      1.351090  -15.424100  -99.782000

 Total Charge           Charge          ....    0
 Multiplicity           Mult            ....    1
 Number of Electrons    NEL             ....  134
 Basis Dimension        Dim             ....  322

ORBITAL ENERGIES
----------------

  NO   OCC          E(Eh)            E(eV)
   0   2.0000     -88.964126     -2420.8369
   1   2.0000     -88.963338     -2420.8155
   2   2.0000     -10.325873      -280.9813
   3   2.0000     -10.325091      -280.9600
   4   2.0000     -10.318592      -280.7832
   5   2.0000     -10.313260      -280.6381
   6   2.0000     -10.302457      -280.3441
   7   2.0000     -10.300754      -280.2978
   8   2.0000     -10.297304      -280.2039
   9   2.0000     -10.291627      -280.0494
  10   2.0000     -10.291085      -280.0347
  11   2.0000     -10.289447      -279.9901
  12   2.0000     -10.286164      -279.9008
  13   2.0000     -10.282871      -279.8111
  14   2.0000     -10.279653      -279.7236
  15   2.0000     -10.273248      -279.5493
  16   2.0000      -8.078582      -219.8294
  17   2.0000      -8.078353      -219.8231
  18   2.0000      -6.037017      -164.2756
  19   2.0000      -6.036907      -164.2726
  20   2.0000      -6.032987      -164.1659
  21   2.0000      -6.032974      -164.1656
  22   2.0000      -6.029420      -164.0689
  23   2.0000      -6.029048      -164.0587
  24   2.0000      -1.005819       -27.3697
  25   2.0000      -0.983561       -26.7641
  26   2.0000      -0.918602       -24.9964
  27   2.0000      -0.904542       -24.6139
  28   2.0000      -0.869018       -23.6472
  29   2.0000      -0.850160       -23.1340
  30   2.0000      -0.842251       -22.9188
  31   2.0000      -0.816473       -22.2174
  32   2.0000      -0.784894       -21.3581
  33   2.0000      -0.773494       -21.0478
  34   2.0000      -0.704524       -19.1711
  35   2.0000      -0.701861       -19.0986
  36   2.0000      -0.694099       -18.8874
  37   2.0000      -0.654139       -17.8000
  38   2.0000      -0.646706       -17.5978
  39   2.0000      -0.619976       -16.8704
  40   2.0000      -0.599917       -16.3246
  41   2.0000      -0.578007       -15.7284
  42   2.0000      -0.563964       -15.3462
  43   2.0000      -0.554785       -15.0965
  44   2.0000      -0.534513       -14.5448
  45   2.0000      -0.527318       -14.3490
  46   2.0000      -0.523844       -14.2545
  47   2.0000      -0.514851       -14.0098
  48   2.0000      -0.499745       -13.5987
  49   2.0000      -0.496652       -13.5146
  50   2.0000      -0.489301       -13.3146
  51   2.0000      -0.482796       -13.1375
  52   2.0000      -0.477079       -12.9820
  53   2.0000      -0.463068       -12.6007
  54   2.0000      -0.458822       -12.4852
  55   2.0000      -0.444185       -12.0869
  56   2.0000      -0.440020       -11.9735
  57   2.0000      -0.434390       -11.8203
  58   2.0000      -0.433351       -11.7921
  59   2.0000      -0.429751       -11.6941
  60   2.0000      -0.425095       -11.5674
  61   2.0000      -0.416317       -11.3286
  62   2.0000      -0.408779       -11.1234
  63   2.0000      -0.341972        -9.3055
  64   2.0000      -0.331488        -9.0203
  65   2.0000      -0.328229        -8.9316
  66   2.0000      -0.296791        -8.0761
  67   0.0000       0.034318         0.9338
  68   0.0000       0.066201         1.8014
  69   0.0000       0.113424         3.0864
  70   0.0000       0.118695         3.2298
  71   0.0000       0.127280         3.4635

MULLIKEN ATOMIC CHARGES
-----------------------
   0 S :    0.096842
   1 C :   -0.123851
   2 C :   -0.088972
   3 C :    0.057371
   4 C :   -0.177713
   5 H :   -0.011965
   6 C :    0.101101
   7 H :    0.025378
   8 H :    0.016320
   9 C :   -0.054275
  10 H :    0.008137
  11 H :    0.031148
  12 C :   -0.076763
  13 H :    0.044042
  14 H :    0.041882
  15 H :    0.039090
  16 S :    0.103194
  17 C :   -0.097652
  18 C :   -0.033088
  19 C :   -0.082923
  20 C :   -0.116060
  21 H :    0.039362
  22 C :    0.100482
  23 H :   -0.002340
  24 H :    0.038726
  25 C :   -0.079066
  26 H :    0.041731
  27 H :    0.026535
  28 C :   -0.049031
  29 H :    0.028734
  30 H :    0.035815
  31 H :    0.025902
  32 H :    0.035215
  33 H :    0.056691
Sum of atomic charges:    0.0000000

LOEWDIN ATOMIC CHARGES
----------------------
   0 S :    0.410818
   1 C :   -0.177574
   2 C :   -0.055475
   3 C :   -0.056678
   4 C :   -0.211238
   5 H :    0.018225
   6 C :   -0.028374
   7 H :    0.034339
   8 H :    0.029033
   9 C :   -0.035386
  10 H :    0.009279
  11 H :    0.029131
  12 C :   -0.068807
  13 H :    0.027600
  14 H :    0.033334
  15 H :    0.025545
  16 S :    0.384731
  17 C :   -0.170374
  18 C :   -0.084209
  19 C :   -0.052880
  20 C :   -0.197037
  21 H :    0.041936
  22 C :   -0.032480
  23 H :    0.019507
  24 H :    0.038314
  25 C :   -0.036078
  26 H :    0.031900
  27 H :    0.018999
  28 C :   -0.070968
  29 H :    0.032312
  30 H :    0.018599
  31 H :    0.027613
  32 H :    0.018792
  33 H :    0.027551

  Mayer bond orders larger than 0.100000
B(  0-S ,  1-C ) :   1.1319 B(  0-S ,  4-C ) :   1.1664 B(  1-C ,  2-C ) :   1.6164
B(  1-C , 32-H ) :   0.9773 B(  2-C ,  3-C ) :   1.2415 B(  2-C ,  6-C ) :   1.0110
B(  3-C ,  4-C ) :   1.5778 B(  3-C ,  5-H ) :   0.9961 B(  4-C , 20-C ) :   0.9933
B(  6-C ,  7-H ) :   0.9371 B(  6-C ,  8-H ) :   0.9392 B(  6-C ,  9-C ) :   1.0538
B(  9-C , 10-H ) :   0.9549 B(  9-C , 11-H ) :   0.9594 B(  9-C , 12-C ) :   1.0776
B( 12-C , 13-H ) :   0.9752 B( 12-C , 14-H ) :   0.9741 B( 12-C , 15-H ) :   0.9771
B( 16-S , 17-C ) :   1.1687 B( 16-S , 20-C ) :   1.1115 B( 17-C , 18-C ) :   1.6193
B( 17-C , 33-H ) :   0.9610 B( 18-C , 19-C ) :   1.2229 B( 18-C , 21-H ) :   0.9818
B( 19-C , 20-C ) :   1.6380 B( 19-C , 22-C ) :   1.0371 B( 22-C , 23-H ) :   0.9227
B( 22-C , 24-H ) :   0.9260 B( 22-C , 25-C ) :   1.0747 B( 25-C , 26-H ) :   0.9575
B( 25-C , 27-H ) :   0.9574 B( 25-C , 28-C ) :   1.0732 B( 28-C , 29-H ) :   0.9694
B( 28-C , 30-H ) :   0.9775 B( 28-C , 31-H ) :   0.9752

Dispersion correction           -0.013920090
FINAL SINGLE POINT ENERGY     -1339.865856432045

DIPOLE MOMENT
-------------
                                X             Y             Z
Electronic contribution:     23.01265      11.24100       9.37362
Nuclear contribution   :    -23.54643     -11.53458      -9.40962
                        -----------------------------------------
Total Dipole Moment    :     -0.53378      -0.29358      -0.03600
                        -----------------------------------------
Magnitude (a.u.)       :      0.61025
Magnitude (Debye)      :      1.55113

Rotational constants in cm-1:     0.019990     0.007719     0.006151
Rotational constants in MHz :   599.276216   231.413066   184.408605

                             ****ORCA TERMINATED NORMALLY****
TOTAL RUN TIME: 0 days 0 hours 0 minutes 21 seconds 256 msec
