                         Program Version 4.2.1 -  RELEASE  -
|  1> ! wB97X-D3 SP def2-SVP
|  2> %pal
|  3> nprocs 24
|  4> end
|  5>
|  6> * xyz 0 1
|  7> S 	 -131.973 	 58.2715 	 -63.6808
|  8> C 	 -130.223 	 58.1537 	 -63.9377
|  9> C 	 -129.508 	 58.7922 	 -62.9106
| 10> C 	 -130.39 	 59.1107 	 -61.7897
| 11> C 	 -131.729 	 58.8488 	 -61.9978
| 12> H 	 -130.003 	 59.5309 	 -60.8839
| 13> C 	 -128.031 	 58.9266 	 -62.9396
| 14> H 	 -127.794 	 59.8251 	 -62.4284
| 15> H 	 -127.844 	 59.3304 	 -63.8867
| 16> C 	 -127.113 	 57.7868 	 -62.4979
| 17> H 	 -127.267 	 56.943 	 -63.171
| 18> H 	 -126.121 	 58.0772 	 -62.6799
| 19> C 	 -127.339 	 57.4713 	 -61.0321
| 20> H 	 -128.383 	 57.1753 	 -60.8927
| 21> H 	 -126.712 	 56.5627 	 -60.8257
| 22> H 	 -126.98 	 58.2659 	 -60.3861
| 23> S 	 -134.314 	 59.7065 	 -61.8663
| 24> C 	 -135.057 	 59.9306 	 -60.3383
| 25> C 	 -134.362 	 59.2614 	 -59.3564
| 26> C 	 -133.044 	 58.8347 	 -59.7595
| 27> C 	 -132.891 	 58.9742 	 -61.1219
| 28> H 	 -134.774 	 59.2128 	 -58.3876
| 29> C 	 -132.083 	 58.169 	 -58.7606
| 30> H 	 -131.071 	 58.5065 	 -58.9608
| 31> H 	 -132.069 	 57.0795 	 -58.8629
| 32> C 	 -132.314 	 58.3662 	 -57.2349
| 33> H 	 -131.597 	 57.6741 	 -56.7068
| 34> H 	 -133.247 	 57.8629 	 -57.0522
| 35> C 	 -132.267 	 59.7514 	 -56.5893
| 36> H 	 -132.662 	 59.8071 	 -55.539
| 37> H 	 -132.696 	 60.5224 	 -57.2356
| 38> H 	 -131.208 	 60.0675 	 -56.4096
| 39> H 	 -129.825 	 57.9036 	 -64.9032
| 40> H 	 -136.086 	 60.2615 	 -60.2788
| 41> *
| 42>
| 43>                          ****END OF INPUT****

CARTESIAN COORDINATES (ANGSTROEM)
---------------------------------
  S    -131.973000   58.271500  -63.680800
  C    -130.223000   58.153700  -63.937700
  C    -129.508000   58.792200  -62.910600
  C    -130.390000   59.110700  -61.789700
  C    -131.729000   58.848800  -61.997800
  H    -130.003000   59.530900  -60.883900
  C    -128.031000   58.926600  -62.939600
  H    -127.794000   59.825100  -62.428400
  H    -127.844000   59.330400  -63.886700
  C    -127.113000   57.786800  -62.497900
  H    -127.267000   56.943000  -63.171000
  H    -126.121000   58.077200  -62.679900
  C    -127.339000   57.471300  -61.032100
  H    -128.383000   57.175300  -60.892700
  H    -126.712000   56.562700  -60.825700
  H    -126.980000   58.265900  -60.386100
  S    -134.314000   59.706500  -61.866300
  C    -135.057000   59.930600  -60.338300
  C    -134.362000   59.261400  -59.356400
  C    -133.044000   58.834700  -59.759500
  C    -132.891000   58.974200  -61.121900
  H    -134.774000   59.212800  -58.387600
  C    -132.083000   58.169000  -58.760600
  H    -131.071000   58.506500  -58.960800
  H    -132.069000   57.079500  -58.862900
  C    -132.314000   58.366200  -57.234900
  H    -131.597000   57.674100  -56.706800
  H    -133.247000   57.862900  -57.052200
  C    -132.267000   59.751400  -56.589300
  H    -132.662000   59.807100  -55.539000
  H    -132.696000   60.522400  -57.235600
  H    -131.208000   60.067500  -56.409600
  H    -129.825000   57.903600  -64.903200
  H    -136.086000   60.261500  -60.278800

 Total Charge           Charge          ....    0
 Multiplicity           Mult            ....    1
 Number of Electrons    NEL             ....  134
 Basis Dimension        Dim             ....  322

ORBITAL ENERGIES
----------------

  NO   OCC          E(Eh)            E(eV)
   0   2.0000     -88.963411     -2420.8175
   1   2.0000     -88.962036     -2420.7801
   2   2.0000     -10.333666      -281.1933
   3   2.0000     -10.328391      -281.0498
   4   2.0000     -10.315090      -280.6879
   5   2.0000     -10.314844      -280.6812
   6   2.0000     -10.308973      -280.5214
   7   2.0000     -10.303546      -280.3737
   8   2.0000     -10.297943      -280.2213
   9   2.0000     -10.296055      -280.1699
  10   2.0000     -10.292571      -280.0751
  11   2.0000     -10.292459      -280.0720
  12   2.0000     -10.285436      -279.8810
  13   2.0000     -10.282621      -279.8043
  14   2.0000     -10.279403      -279.7168
  15   2.0000     -10.278512      -279.6925
  16   2.0000      -8.079043      -219.8419
  17   2.0000      -8.076002      -219.7592
  18   2.0000      -6.037503      -164.2888
  19   2.0000      -6.034658      -164.2114
  20   2.0000      -6.033469      -164.1790
  21   2.0000      -6.030734      -164.1046
  22   2.0000      -6.029743      -164.0776
  23   2.0000      -6.026555      -163.9909
  24   2.0000      -1.005411       -27.3586
  25   2.0000      -0.978096       -26.6153
  26   2.0000      -0.916562       -24.9409
  27   2.0000      -0.906337       -24.6627
  28   2.0000      -0.869065       -23.6484
  29   2.0000      -0.850232       -23.1360
  30   2.0000      -0.840457       -22.8700
  31   2.0000      -0.817329       -22.2406
  32   2.0000      -0.788959       -21.4687
  33   2.0000      -0.773909       -21.0591
  34   2.0000      -0.709496       -19.3064
  35   2.0000      -0.703438       -19.1415
  36   2.0000      -0.693935       -18.8829
  37   2.0000      -0.659846       -17.9553
  38   2.0000      -0.638496       -17.3744
  39   2.0000      -0.618551       -16.8316
  40   2.0000      -0.600457       -16.3393
  41   2.0000      -0.575601       -15.6629
  42   2.0000      -0.554299       -15.0833
  43   2.0000      -0.552380       -15.0310
  44   2.0000      -0.543917       -14.8007
  45   2.0000      -0.533014       -14.5041
  46   2.0000      -0.515214       -14.0197
  47   2.0000      -0.509042       -13.8517
  48   2.0000      -0.502414       -13.6714
  49   2.0000      -0.498860       -13.5747
  50   2.0000      -0.496819       -13.5191
  51   2.0000      -0.475174       -12.9302
  52   2.0000      -0.472149       -12.8478
  53   2.0000      -0.466405       -12.6915
  54   2.0000      -0.456302       -12.4166
  55   2.0000      -0.446733       -12.1562
  56   2.0000      -0.443312       -12.0631
  57   2.0000      -0.440986       -11.9998
  58   2.0000      -0.431805       -11.7500
  59   2.0000      -0.425957       -11.5909
  60   2.0000      -0.423149       -11.5145
  61   2.0000      -0.413118       -11.2415
  62   2.0000      -0.406937       -11.0733
  63   2.0000      -0.353622        -9.6225
  64   2.0000      -0.332358        -9.0439
  65   2.0000      -0.326396        -8.8817
  66   2.0000      -0.286438        -7.7944
  67   0.0000       0.024846         0.6761
  68   0.0000       0.066068         1.7978
  69   0.0000       0.105839         2.8800
  70   0.0000       0.117465         3.1964
  71   0.0000       0.133275         3.6266

MULLIKEN ATOMIC CHARGES
-----------------------
   0 S :    0.079558
   1 C :   -0.108582
   2 C :   -0.141673
   3 C :    0.021894
   4 C :   -0.116501
   5 H :    0.004689
   6 C :    0.099683
   7 H :   -0.006877
   8 H :   -0.000785
   9 C :   -0.001311
  10 H :    0.023395
  11 H :    0.012864
  12 C :   -0.067152
  13 H :    0.051710
  14 H :    0.034857
  15 H :    0.035809
  16 S :    0.098137
  17 C :   -0.090171
  18 C :   -0.025453
  19 C :   -0.053161
  20 C :   -0.117686
  21 H :    0.009095
  22 C :    0.080161
  23 H :    0.016962
  24 H :    0.049014
  25 C :   -0.110632
  26 H :    0.033799
  27 H :    0.022278
  28 C :   -0.061746
  29 H :    0.044107
  30 H :    0.045236
  31 H :    0.028051
  32 H :    0.046724
  33 H :    0.063706
Sum of atomic charges:   -0.0000000

LOEWDIN ATOMIC CHARGES
----------------------
   0 S :    0.366420
   1 C :   -0.183553
   2 C :   -0.056980
   3 C :   -0.063307
   4 C :   -0.171923
   5 H :    0.025596
   6 C :   -0.042491
   7 H :    0.026979
   8 H :    0.027308
   9 C :   -0.029179
  10 H :    0.024540
  11 H :    0.018501
  12 C :   -0.064705
  13 H :    0.029939
  14 H :    0.031914
  15 H :    0.025051
  16 S :    0.412187
  17 C :   -0.191383
  18 C :   -0.066713
  19 C :   -0.054712
  20 C :   -0.191600
  21 H :    0.023955
  22 C :   -0.027773
  23 H :    0.025777
  24 H :    0.042442
  25 C :   -0.051589
  26 H :    0.033747
  27 H :    0.017366
  28 C :   -0.079184
  29 H :    0.035469
  30 H :    0.027019
  31 H :    0.028744
  32 H :    0.022455
  33 H :    0.029683

  Mayer bond orders larger than 0.100000
B(  0-S ,  1-C ) :   1.1315 B(  0-S ,  4-C ) :   1.1275 B(  1-C ,  2-C ) :   1.6175
B(  1-C , 32-H ) :   0.9694 B(  2-C ,  3-C ) :   1.2155 B(  2-C ,  6-C ) :   1.0305
B(  3-C ,  4-C ) :   1.5945 B(  3-C ,  5-H ) :   0.9950 B(  4-C , 20-C ) :   1.0320
B(  6-C ,  7-H ) :   0.9232 B(  6-C ,  8-H ) :   0.9196 B(  6-C ,  9-C ) :   1.0650
B(  9-C , 10-H ) :   0.9551 B(  9-C , 11-H ) :   0.9475 B(  9-C , 12-C ) :   1.0822
B( 12-C , 13-H ) :   0.9742 B( 12-C , 14-H ) :   0.9718 B( 12-C , 15-H ) :   0.9743
B( 16-S , 17-C ) :   1.1691 B( 16-S , 20-C ) :   1.1385 B( 17-C , 18-C ) :   1.6050
B( 17-C , 33-H ) :   0.9634 B( 18-C , 19-C ) :   1.2297 B( 18-C , 21-H ) :   0.9913
B( 19-C , 20-C ) :   1.6216 B( 19-C , 22-C ) :   1.0210 B( 22-C , 23-H ) :   0.9361
B( 22-C , 24-H ) :   0.9337 B( 22-C , 25-C ) :   1.0870 B( 25-C , 26-H ) :   0.9527
B( 25-C , 27-H ) :   0.9501 B( 25-C , 28-C ) :   1.0692 B( 28-C , 29-H ) :   0.9726
B( 28-C , 30-H ) :   0.9764 B( 28-C , 31-H ) :   0.9735

Dispersion correction           -0.014242028
FINAL SINGLE POINT ENERGY     -1339.875811915975

DIPOLE MOMENT
-------------
                                X             Y             Z
Electronic contribution:    -20.91205       3.44684     -20.31348
Nuclear contribution   :     21.40866      -3.46188      20.84233
                        -----------------------------------------
Total Dipole Moment    :      0.49661      -0.01504       0.52885
                        -----------------------------------------
Magnitude (a.u.)       :      0.72563
Magnitude (Debye)      :      1.84439

Rotational constants in cm-1:     0.017971     0.009130     0.006395
Rotational constants in MHz :   538.751475   273.712085   191.713915

                             ****ORCA TERMINATED NORMALLY****
TOTAL RUN TIME: 0 days 0 hours 0 minutes 21 seconds 676 msec
