                         Program Version 4.2.1 -  RELEASE  -
|  1> ! wB97X-D3 SP def2-SVP
|  2> %pal
|  3> nprocs 24
|  4> end
|  5>
|  6> * xyz 0 1
|  7> S 	 -107.547 	 50.9044 	 -73.2146
|  8> C 	 -108.806 	 50.9591 	 -74.4235
|  9> C 	 -109.991 	 51.3303 	 -73.8605
| 10> C 	 -109.904 	 51.4968 	 -72.3951
| 11> C 	 -108.667 	 51.3262 	 -71.8927
| 12> H 	 -110.667 	 51.8624 	 -71.7573
| 13> C 	 -111.271 	 51.457 	 -74.6612
| 14> H 	 -112.067 	 51.1174 	 -73.9276
| 15> H 	 -111.367 	 50.7016 	 -75.4421
| 16> C 	 -111.48 	 52.876 	 -75.2143
| 17> H 	 -112.507 	 53.0018 	 -75.4566
| 18> H 	 -111.425 	 53.515 	 -74.2982
| 19> C 	 -110.545 	 53.3682 	 -76.2739
| 20> H 	 -110.75 	 52.9556 	 -77.255
| 21> H 	 -110.537 	 54.4616 	 -76.3134
| 22> H 	 -109.518 	 53.1651 	 -75.9727
| 23> S 	 -108.058 	 50.219 	 -69.4552
| 24> C 	 -108.608 	 51.1134 	 -68.1023
| 25> C 	 -108.601 	 52.4481 	 -68.3728
| 26> C 	 -108.415 	 52.7376 	 -69.7857
| 27> C 	 -108.263 	 51.5623 	 -70.5366
| 28> H 	 -108.917 	 53.2021 	 -67.5853
| 29> C 	 -108.639 	 54.134 	 -70.3535
| 30> H 	 -108.359 	 54.0166 	 -71.3985
| 31> H 	 -107.805 	 54.7062 	 -69.9993
| 32> C 	 -109.989 	 54.8866 	 -70.2564
| 33> H 	 -110.185 	 54.9532 	 -69.2001
| 34> H 	 -110.827 	 54.3275 	 -70.5643
| 35> C 	 -110.148 	 56.2946 	 -70.9495
| 36> H 	 -109.957 	 56.2653 	 -71.9372
| 37> H 	 -109.589 	 57.0641 	 -70.5071
| 38> H 	 -111.213 	 56.678 	 -70.7552
| 39> H 	 -108.692 	 50.7431 	 -75.4409
| 40> H 	 -108.704 	 50.63 	 -67.1532
| 41> *
| 42>
| 43>                          ****END OF INPUT****

CARTESIAN COORDINATES (ANGSTROEM)
---------------------------------
  S    -107.547000   50.904400  -73.214600
  C    -108.806000   50.959100  -74.423500
  C    -109.991000   51.330300  -73.860500
  C    -109.904000   51.496800  -72.395100
  C    -108.667000   51.326200  -71.892700
  H    -110.667000   51.862400  -71.757300
  C    -111.271000   51.457000  -74.661200
  H    -112.067000   51.117400  -73.927600
  H    -111.367000   50.701600  -75.442100
  C    -111.480000   52.876000  -75.214300
  H    -112.507000   53.001800  -75.456600
  H    -111.425000   53.515000  -74.298200
  C    -110.545000   53.368200  -76.273900
  H    -110.750000   52.955600  -77.255000
  H    -110.537000   54.461600  -76.313400
  H    -109.518000   53.165100  -75.972700
  S    -108.058000   50.219000  -69.455200
  C    -108.608000   51.113400  -68.102300
  C    -108.601000   52.448100  -68.372800
  C    -108.415000   52.737600  -69.785700
  C    -108.263000   51.562300  -70.536600
  H    -108.917000   53.202100  -67.585300
  C    -108.639000   54.134000  -70.353500
  H    -108.359000   54.016600  -71.398500
  H    -107.805000   54.706200  -69.999300
  C    -109.989000   54.886600  -70.256400
  H    -110.185000   54.953200  -69.200100
  H    -110.827000   54.327500  -70.564300
  C    -110.148000   56.294600  -70.949500
  H    -109.957000   56.265300  -71.937200
  H    -109.589000   57.064100  -70.507100
  H    -111.213000   56.678000  -70.755200
  H    -108.692000   50.743100  -75.440900
  H    -108.704000   50.630000  -67.153200

 Total Charge           Charge          ....    0
 Multiplicity           Mult            ....    1
 Number of Electrons    NEL             ....  134
 Basis Dimension        Dim             ....  322

ORBITAL ENERGIES
----------------

  NO   OCC          E(Eh)            E(eV)
   0   2.0000     -88.960800     -2420.7464
   1   2.0000     -88.958162     -2420.6747
   2   2.0000     -10.326307      -280.9931
   3   2.0000     -10.323442      -280.9151
   4   2.0000     -10.316054      -280.7141
   5   2.0000     -10.311843      -280.5995
   6   2.0000     -10.308403      -280.5059
   7   2.0000     -10.300371      -280.2873
   8   2.0000     -10.300067      -280.2791
   9   2.0000     -10.294455      -280.1264
  10   2.0000     -10.292378      -280.0698
  11   2.0000     -10.289939      -280.0035
  12   2.0000     -10.288399      -279.9616
  13   2.0000     -10.283893      -279.8390
  14   2.0000     -10.277842      -279.6743
  15   2.0000     -10.275998      -279.6241
  16   2.0000      -8.077160      -219.7907
  17   2.0000      -8.072908      -219.6750
  18   2.0000      -6.035538      -164.2353
  19   2.0000      -6.031625      -164.1289
  20   2.0000      -6.031455      -164.1242
  21   2.0000      -6.027911      -164.0278
  22   2.0000      -6.027362      -164.0129
  23   2.0000      -6.023502      -163.9078
  24   2.0000      -1.009943       -27.4819
  25   2.0000      -0.984881       -26.8000
  26   2.0000      -0.912189       -24.8219
  27   2.0000      -0.904154       -24.6033
  28   2.0000      -0.875439       -23.8219
  29   2.0000      -0.850721       -23.1493
  30   2.0000      -0.842574       -22.9276
  31   2.0000      -0.819527       -22.3005
  32   2.0000      -0.786075       -21.3902
  33   2.0000      -0.776044       -21.1172
  34   2.0000      -0.718066       -19.5396
  35   2.0000      -0.704794       -19.1784
  36   2.0000      -0.695188       -18.9170
  37   2.0000      -0.655958       -17.8495
  38   2.0000      -0.646718       -17.5981
  39   2.0000      -0.616919       -16.7872
  40   2.0000      -0.598088       -16.2748
  41   2.0000      -0.572050       -15.5663
  42   2.0000      -0.560570       -15.2539
  43   2.0000      -0.546442       -14.8694
  44   2.0000      -0.541396       -14.7321
  45   2.0000      -0.529873       -14.4186
  46   2.0000      -0.522487       -14.2176
  47   2.0000      -0.513509       -13.9733
  48   2.0000      -0.510265       -13.8850
  49   2.0000      -0.502615       -13.6769
  50   2.0000      -0.490859       -13.3570
  51   2.0000      -0.482909       -13.1406
  52   2.0000      -0.477771       -13.0008
  53   2.0000      -0.464767       -12.6470
  54   2.0000      -0.461774       -12.5655
  55   2.0000      -0.449406       -12.2290
  56   2.0000      -0.440098       -11.9757
  57   2.0000      -0.439382       -11.9562
  58   2.0000      -0.435049       -11.8383
  59   2.0000      -0.419995       -11.4287
  60   2.0000      -0.416605       -11.3364
  61   2.0000      -0.413669       -11.2565
  62   2.0000      -0.406737       -11.0679
  63   2.0000      -0.341521        -9.2933
  64   2.0000      -0.325590        -8.8597
  65   2.0000      -0.324883        -8.8405
  66   2.0000      -0.307275        -8.3614
  67   0.0000       0.038585         1.0499
  68   0.0000       0.057958         1.5771
  69   0.0000       0.116545         3.1713
  70   0.0000       0.123822         3.3694
  71   0.0000       0.124522         3.3884

MULLIKEN ATOMIC CHARGES
-----------------------
   0 S :    0.087348
   1 C :   -0.080164
   2 C :   -0.116967
   3 C :    0.062924
   4 C :   -0.143534
   5 H :   -0.000562
   6 C :    0.029835
   7 H :    0.032711
   8 H :    0.025247
   9 C :   -0.049017
  10 H :    0.017404
  11 H :    0.015329
  12 C :   -0.020605
  13 H :    0.034491
  14 H :    0.031627
  15 H :    0.025802
  16 S :    0.108830
  17 C :   -0.094783
  18 C :   -0.045527
  19 C :   -0.064587
  20 C :   -0.162345
  21 H :    0.048366
  22 C :    0.090445
  23 H :    0.016622
  24 H :    0.025882
  25 C :   -0.037085
  26 H :    0.010848
  27 H :    0.013727
  28 C :   -0.025687
  29 H :    0.021476
  30 H :    0.019987
  31 H :    0.035751
  32 H :    0.029302
  33 H :    0.056908
Sum of atomic charges:    0.0000000

LOEWDIN ATOMIC CHARGES
----------------------
   0 S :    0.375507
   1 C :   -0.182279
   2 C :   -0.064746
   3 C :   -0.050274
   4 C :   -0.184612
   5 H :    0.026618
   6 C :   -0.037922
   7 H :    0.039141
   8 H :    0.025469
   9 C :   -0.044948
  10 H :    0.018388
  11 H :    0.027843
  12 C :   -0.065344
  13 H :    0.024438
  14 H :    0.032051
  15 H :    0.026865
  16 S :    0.423101
  17 C :   -0.182383
  18 C :   -0.085834
  19 C :   -0.040543
  20 C :   -0.215836
  21 H :    0.042733
  22 C :   -0.038620
  23 H :    0.030420
  24 H :    0.034317
  25 C :   -0.034837
  26 H :    0.020042
  27 H :    0.018146
  28 C :   -0.049484
  29 H :    0.008972
  30 H :    0.018069
  31 H :    0.040194
  32 H :    0.019587
  33 H :    0.025761

  Mayer bond orders larger than 0.100000
B(  0-S ,  1-C ) :   1.1225 B(  0-S ,  4-C ) :   1.1135 B(  1-C ,  2-C ) :   1.6503
B(  1-C , 32-H ) :   0.9737 B(  2-C ,  3-C ) :   1.1929 B(  2-C ,  6-C ) :   1.0175
B(  3-C ,  4-C ) :   1.6427 B(  3-C ,  5-H ) :   0.9994 B(  4-C , 20-C ) :   1.0125
B(  6-C ,  7-H ) :   0.9420 B(  6-C ,  8-H ) :   0.9496 B(  6-C ,  9-C ) :   1.0628
B(  9-C , 10-H ) :   0.9536 B(  9-C , 11-H ) :   0.9516 B(  9-C , 12-C ) :   1.0828
B( 12-C , 13-H ) :   0.9744 B( 12-C , 14-H ) :   0.9685 B( 12-C , 15-H ) :   0.9668
B( 16-S , 17-C ) :   1.1774 B( 16-S , 20-C ) :   1.1439 B( 17-C , 18-C ) :   1.5983
B( 17-C , 33-H ) :   0.9723 B( 18-C , 19-C ) :   1.2258 B( 18-C , 21-H ) :   0.9837
B( 19-C , 20-C ) :   1.5857 B( 19-C , 22-C ) :   1.0518 B( 22-C , 23-H ) :   0.9280
B( 22-C , 24-H ) :   0.9264 B( 22-C , 25-C ) :   1.0467 B( 25-C , 26-H ) :   0.9517
B( 25-C , 27-H ) :   0.9574 B( 25-C , 28-C ) :   1.0806 B( 28-C , 29-H ) :   0.9805
B( 28-C , 30-H ) :   0.9767 B( 28-C , 31-H ) :   0.9741

Dispersion correction           -0.015015136
FINAL SINGLE POINT ENERGY     -1339.861388673502

DIPOLE MOMENT
-------------
                                X             Y             Z
Electronic contribution:     17.01776     -23.07959      11.50868
Nuclear contribution   :    -17.66921      23.65231     -11.45134
                        -----------------------------------------
Total Dipole Moment    :     -0.65145       0.57272       0.05734
                        -----------------------------------------
Magnitude (a.u.)       :      0.86930
Magnitude (Debye)      :      2.20959

Rotational constants in cm-1:     0.017486     0.009651     0.007050
Rotational constants in MHz :   524.211179   289.322239   211.346968

                             ****ORCA TERMINATED NORMALLY****
TOTAL RUN TIME: 0 days 0 hours 0 minutes 22 seconds 120 msec
