                         Program Version 4.2.1 -  RELEASE  -
|  1> ! wB97X-D3 SP def2-SVP
|  2> %pal
|  3> nprocs 24
|  4> end
|  5>
|  6> * xyz 0 1
|  7> S 	 -81.1301 	 -2.93867 	 7.53292
|  8> C 	 -81.4379 	 -2.7167 	 5.85671
|  9> C 	 -81.926 	 -3.88911 	 5.3092
| 10> C 	 -81.9128 	 -5.00987 	 6.2178
| 11> C 	 -81.5207 	 -4.64827 	 7.4986
| 12> H 	 -82.0826 	 -6.05448 	 6.10023
| 13> C 	 -82.256 	 -4.13963 	 3.86159
| 14> H 	 -83.2726 	 -3.78783 	 3.71597
| 15> H 	 -82.2015 	 -5.20045 	 3.63871
| 16> C 	 -81.3049 	 -3.50825 	 2.87826
| 17> H 	 -81.6489 	 -3.38049 	 1.89351
| 18> H 	 -81.1628 	 -2.46732 	 3.08067
| 19> C 	 -79.8155 	 -4.06636 	 2.90771
| 20> H 	 -79.0906 	 -3.58292 	 2.28283
| 21> H 	 -79.4903 	 -4.01088 	 3.96993
| 22> H 	 -79.9828 	 -5.1642 	 2.60044
| 23> S 	 -82.397 	 -5.90563 	 9.72873
| 24> C 	 -81.1631 	 -6.52242 	 10.828
| 25> C 	 -79.9684 	 -6.8003 	 10.1373
| 26> C 	 -79.9945 	 -6.26881 	 8.79074
| 27> C 	 -81.1282 	 -5.51549 	 8.57547
| 28> H 	 -79.2042 	 -7.35052 	 10.6173
| 29> C 	 -78.7316 	 -6.37508 	 7.91628
| 30> H 	 -77.8886 	 -6.76745 	 8.61887
| 31> H 	 -78.4733 	 -5.36953 	 7.55333
| 32> C 	 -78.8296 	 -7.36023 	 6.82382
| 33> H 	 -79.4802 	 -6.97738 	 6.01125
| 34> H 	 -79.1135 	 -8.29539 	 7.23479
| 35> C 	 -77.4935 	 -7.68516 	 6.14916
| 36> H 	 -76.84 	 -8.08102 	 6.98406
| 37> H 	 -77.0578 	 -6.82476 	 5.74623
| 38> H 	 -77.3017 	 -8.58314 	 5.48774
| 39> H 	 -81.1776 	 -1.7345 	 5.3308
| 40> H 	 -81.4683 	 -6.87857 	 11.7765
| 41> *
| 42>
| 43>                          ****END OF INPUT****

CARTESIAN COORDINATES (ANGSTROEM)
---------------------------------
  S    -81.130100   -2.938670    7.532920
  C    -81.437900   -2.716700    5.856710
  C    -81.926000   -3.889110    5.309200
  C    -81.912800   -5.009870    6.217800
  C    -81.520700   -4.648270    7.498600
  H    -82.082600   -6.054480    6.100230
  C    -82.256000   -4.139630    3.861590
  H    -83.272600   -3.787830    3.715970
  H    -82.201500   -5.200450    3.638710
  C    -81.304900   -3.508250    2.878260
  H    -81.648900   -3.380490    1.893510
  H    -81.162800   -2.467320    3.080670
  C    -79.815500   -4.066360    2.907710
  H    -79.090600   -3.582920    2.282830
  H    -79.490300   -4.010880    3.969930
  H    -79.982800   -5.164200    2.600440
  S    -82.397000   -5.905630    9.728730
  C    -81.163100   -6.522420   10.828000
  C    -79.968400   -6.800300   10.137300
  C    -79.994500   -6.268810    8.790740
  C    -81.128200   -5.515490    8.575470
  H    -79.204200   -7.350520   10.617300
  C    -78.731600   -6.375080    7.916280
  H    -77.888600   -6.767450    8.618870
  H    -78.473300   -5.369530    7.553330
  C    -78.829600   -7.360230    6.823820
  H    -79.480200   -6.977380    6.011250
  H    -79.113500   -8.295390    7.234790
  C    -77.493500   -7.685160    6.149160
  H    -76.840000   -8.081020    6.984060
  H    -77.057800   -6.824760    5.746230
  H    -77.301700   -8.583140    5.487740
  H    -81.177600   -1.734500    5.330800
  H    -81.468300   -6.878570   11.776500

 Total Charge           Charge          ....    0
 Multiplicity           Mult            ....    1
 Number of Electrons    NEL             ....  134
 Basis Dimension        Dim             ....  322

ORBITAL ENERGIES
----------------

  NO   OCC          E(Eh)            E(eV)
   0   2.0000     -88.964075     -2420.8356
   1   2.0000     -88.961622     -2420.7688
   2   2.0000     -10.324103      -280.9331
   3   2.0000     -10.323346      -280.9125
   4   2.0000     -10.321062      -280.8504
   5   2.0000     -10.318201      -280.7725
   6   2.0000     -10.308569      -280.5104
   7   2.0000     -10.304523      -280.4003
   8   2.0000     -10.298934      -280.2483
   9   2.0000     -10.298212      -280.2286
  10   2.0000     -10.295179      -280.1461
  11   2.0000     -10.290629      -280.0223
  12   2.0000     -10.286030      -279.8971
  13   2.0000     -10.282063      -279.7892
  14   2.0000     -10.280218      -279.7389
  15   2.0000     -10.278688      -279.6973
  16   2.0000      -8.079357      -219.8505
  17   2.0000      -8.076632      -219.7763
  18   2.0000      -6.037750      -164.2955
  19   2.0000      -6.035001      -164.2207
  20   2.0000      -6.033640      -164.1837
  21   2.0000      -6.031441      -164.1239
  22   2.0000      -6.030332      -164.0937
  23   2.0000      -6.027174      -164.0077
  24   2.0000      -1.007795       -27.4235
  25   2.0000      -0.984013       -26.7764
  26   2.0000      -0.916097       -24.9283
  27   2.0000      -0.913766       -24.8648
  28   2.0000      -0.869008       -23.6469
  29   2.0000      -0.849484       -23.1156
  30   2.0000      -0.845861       -23.0171
  31   2.0000      -0.809726       -22.0338
  32   2.0000      -0.781810       -21.2741
  33   2.0000      -0.771075       -20.9820
  34   2.0000      -0.708191       -19.2709
  35   2.0000      -0.700806       -19.0699
  36   2.0000      -0.687819       -18.7165
  37   2.0000      -0.667454       -18.1624
  38   2.0000      -0.649559       -17.6754
  39   2.0000      -0.606340       -16.4994
  40   2.0000      -0.595508       -16.2046
  41   2.0000      -0.577192       -15.7062
  42   2.0000      -0.575002       -15.6466
  43   2.0000      -0.564754       -15.3677
  44   2.0000      -0.537452       -14.6248
  45   2.0000      -0.525029       -14.2868
  46   2.0000      -0.519160       -14.1271
  47   2.0000      -0.513550       -13.9744
  48   2.0000      -0.509081       -13.8528
  49   2.0000      -0.497069       -13.5259
  50   2.0000      -0.482381       -13.1263
  51   2.0000      -0.479152       -13.0384
  52   2.0000      -0.467633       -12.7249
  53   2.0000      -0.463730       -12.6187
  54   2.0000      -0.458165       -12.4673
  55   2.0000      -0.455439       -12.3931
  56   2.0000      -0.446024       -12.1369
  57   2.0000      -0.433740       -11.8027
  58   2.0000      -0.429041       -11.6748
  59   2.0000      -0.421971       -11.4824
  60   2.0000      -0.419072       -11.4035
  61   2.0000      -0.406333       -11.0569
  62   2.0000      -0.406045       -11.0491
  63   2.0000      -0.335213        -9.1216
  64   2.0000      -0.328416        -8.9366
  65   2.0000      -0.315964        -8.5978
  66   2.0000      -0.312374        -8.5001
  67   0.0000       0.038004         1.0341
  68   0.0000       0.047591         1.2950
  69   0.0000       0.101111         2.7514
  70   0.0000       0.118955         3.2369
  71   0.0000       0.130015         3.5379

MULLIKEN ATOMIC CHARGES
-----------------------
   0 S :    0.117396
   1 C :   -0.162919
   2 C :   -0.098474
   3 C :    0.060365
   4 C :   -0.177524
   5 H :    0.008702
   6 C :    0.119504
   7 H :    0.043951
   8 H :    0.018930
   9 C :   -0.068792
  10 H :    0.010214
  11 H :   -0.000829
  12 C :   -0.092053
  13 H :    0.043280
  14 H :    0.050970
  15 H :    0.038283
  16 S :    0.099786
  17 C :   -0.075349
  18 C :   -0.034292
  19 C :    0.028496
  20 C :   -0.213874
  21 H :    0.012914
  22 C :    0.042702
  23 H :    0.024677
  24 H :    0.039285
  25 C :   -0.041115
  26 H :    0.041905
  27 H :    0.016995
  28 C :   -0.070259
  29 H :    0.012647
  30 H :    0.024921
  31 H :    0.046355
  32 H :    0.088515
  33 H :    0.044689
Sum of atomic charges:    0.0000000

LOEWDIN ATOMIC CHARGES
----------------------
   0 S :    0.422543
   1 C :   -0.218860
   2 C :   -0.068431
   3 C :   -0.053555
   4 C :   -0.206224
   5 H :    0.030649
   6 C :   -0.027005
   7 H :    0.039310
   8 H :    0.028994
   9 C :   -0.046054
  10 H :    0.017054
  11 H :    0.014217
  12 C :   -0.067722
  13 H :    0.022110
  14 H :    0.029168
  15 H :    0.030063
  16 S :    0.394333
  17 C :   -0.167213
  18 C :   -0.062756
  19 C :   -0.044840
  20 C :   -0.202267
  21 H :    0.025600
  22 C :   -0.030241
  23 H :    0.037519
  24 H :    0.033304
  25 C :   -0.044077
  26 H :    0.028230
  27 H :    0.021980
  28 C :   -0.075518
  29 H :    0.026024
  30 H :    0.013514
  31 H :    0.036213
  32 H :    0.048024
  33 H :    0.015916

  Mayer bond orders larger than 0.100000
B(  0-S ,  1-C ) :   1.1570 B(  0-S ,  4-C ) :   1.1593 B(  1-C ,  2-C ) :   1.5875
B(  1-C , 32-H ) :   0.9600 B(  2-C ,  3-C ) :   1.2239 B(  2-C ,  6-C ) :   1.0118
B(  3-C ,  4-C ) :   1.5895 B(  3-C ,  5-H ) :   1.0000 B(  4-C , 20-C ) :   1.0168
B(  6-C ,  7-H ) :   0.9244 B(  6-C ,  8-H ) :   0.9513 B(  6-C ,  9-C ) :   1.0791
B(  9-C , 10-H ) :   0.9536 B(  9-C , 11-H ) :   0.9477 B(  9-C , 12-C ) :   1.0574
B( 12-C , 13-H ) :   0.9771 B( 12-C , 14-H ) :   0.9765 B( 12-C , 15-H ) :   0.9784
B( 16-S , 17-C ) :   1.1531 B( 16-S , 20-C ) :   1.1434 B( 17-C , 18-C ) :   1.6046
B( 17-C , 20-C ) :   0.1059 B( 17-C , 33-H ) :   0.9753 B( 18-C , 19-C ) :   1.2148
B( 18-C , 21-H ) :   0.9973 B( 19-C , 20-C ) :   1.6105 B( 19-C , 22-C ) :   1.0336
B( 22-C , 23-H ) :   0.9374 B( 22-C , 24-H ) :   0.9302 B( 22-C , 25-C ) :   1.0826
B( 25-C , 26-H ) :   0.9463 B( 25-C , 27-H ) :   0.9521 B( 25-C , 28-C ) :   1.0788
B( 28-C , 29-H ) :   0.9689 B( 28-C , 30-H ) :   0.9750 B( 28-C , 31-H ) :   0.9756

Dispersion correction           -0.015189688
FINAL SINGLE POINT ENERGY     -1339.846340502051

DIPOLE MOMENT
-------------
                                X             Y             Z
Electronic contribution:    -16.07044       7.76688      23.59026
Nuclear contribution   :     16.40743      -8.03553     -24.02244
                        -----------------------------------------
Total Dipole Moment    :      0.33699      -0.26865      -0.43219
                        -----------------------------------------
Magnitude (a.u.)       :      0.61034
Magnitude (Debye)      :      1.55137

Rotational constants in cm-1:     0.018563     0.009636     0.007219
Rotational constants in MHz :   556.492646   288.881104   216.408376

                             ****ORCA TERMINATED NORMALLY****
TOTAL RUN TIME: 0 days 0 hours 0 minutes 23 seconds 470 msec
