                         Program Version 4.2.1 -  RELEASE  -
|  1> ! wB97X-D3 SP def2-SVP
|  2> %pal
|  3> nprocs 24
|  4> end
|  5>
|  6> * xyz 0 1
|  7> S 	 -64.6609 	 18.1991 	 -114.677
|  8> C 	 -64.4736 	 16.4854 	 -114.598
|  9> C 	 -63.3656 	 16.0724 	 -115.307
| 10> C 	 -62.636 	 17.134 	 -115.889
| 11> C 	 -63.1946 	 18.3601 	 -115.675
| 12> H 	 -61.7429 	 17.1685 	 -116.482
| 13> C 	 -62.7208 	 14.7613 	 -115.215
| 14> H 	 -62.1352 	 14.6321 	 -116.12
| 15> H 	 -63.4943 	 13.9824 	 -115.316
| 16> C 	 -61.8703 	 14.5765 	 -113.955
| 17> H 	 -61.1381 	 15.4339 	 -113.744
| 18> H 	 -62.551 	 14.6304 	 -113.113
| 19> C 	 -61.0552 	 13.3173 	 -113.957
| 20> H 	 -61.8202 	 12.6448 	 -113.906
| 21> H 	 -60.5233 	 13.2028 	 -114.902
| 22> H 	 -60.3958 	 13.1718 	 -113.111
| 23> S 	 -63.4232 	 20.2781 	 -117.5
| 24> C 	 -62.1218 	 21.5126 	 -117.65
| 25> C 	 -61.1471 	 21.391 	 -116.67
| 26> C 	 -61.4431 	 20.3294 	 -115.76
| 27> C 	 -62.6046 	 19.5911 	 -116.13
| 28> H 	 -60.2797 	 22.0111 	 -116.653
| 29> C 	 -60.5848 	 19.9921 	 -114.594
| 30> H 	 -59.7742 	 20.7423 	 -114.508
| 31> H 	 -60.0315 	 19.0794 	 -114.715
| 32> C 	 -61.3095 	 19.9789 	 -113.252
| 33> H 	 -62.0675 	 19.1833 	 -113.284
| 34> H 	 -61.886 	 20.8973 	 -113.107
| 35> C 	 -60.4014 	 19.7142 	 -112.101
| 36> H 	 -59.7685 	 18.7642 	 -112.244
| 37> H 	 -60.9519 	 19.6653 	 -111.169
| 38> H 	 -59.6186 	 20.4638 	 -111.951
| 39> H 	 -64.9469 	 15.8536 	 -113.863
| 40> H 	 -61.9877 	 22.2411 	 -118.45
| 41> *
| 42>
| 43>                          ****END OF INPUT****

CARTESIAN COORDINATES (ANGSTROEM)
---------------------------------
  S    -64.660900   18.199100  -114.677000
  C    -64.473600   16.485400  -114.598000
  C    -63.365600   16.072400  -115.307000
  C    -62.636000   17.134000  -115.889000
  C    -63.194600   18.360100  -115.675000
  H    -61.742900   17.168500  -116.482000
  C    -62.720800   14.761300  -115.215000
  H    -62.135200   14.632100  -116.120000
  H    -63.494300   13.982400  -115.316000
  C    -61.870300   14.576500  -113.955000
  H    -61.138100   15.433900  -113.744000
  H    -62.551000   14.630400  -113.113000
  C    -61.055200   13.317300  -113.957000
  H    -61.820200   12.644800  -113.906000
  H    -60.523300   13.202800  -114.902000
  H    -60.395800   13.171800  -113.111000
  S    -63.423200   20.278100  -117.500000
  C    -62.121800   21.512600  -117.650000
  C    -61.147100   21.391000  -116.670000
  C    -61.443100   20.329400  -115.760000
  C    -62.604600   19.591100  -116.130000
  H    -60.279700   22.011100  -116.653000
  C    -60.584800   19.992100  -114.594000
  H    -59.774200   20.742300  -114.508000
  H    -60.031500   19.079400  -114.715000
  C    -61.309500   19.978900  -113.252000
  H    -62.067500   19.183300  -113.284000
  H    -61.886000   20.897300  -113.107000
  C    -60.401400   19.714200  -112.101000
  H    -59.768500   18.764200  -112.244000
  H    -60.951900   19.665300  -111.169000
  H    -59.618600   20.463800  -111.951000
  H    -64.946900   15.853600  -113.863000
  H    -61.987700   22.241100  -118.450000

 Total Charge           Charge          ....    0
 Multiplicity           Mult            ....    1
 Number of Electrons    NEL             ....  134
 Basis Dimension        Dim             ....  322

ORBITAL ENERGIES
----------------

  NO   OCC          E(Eh)            E(eV)
   0   2.0000     -88.967889     -2420.9393
   1   2.0000     -88.966496     -2420.9014
   2   2.0000     -10.325233      -280.9639
   3   2.0000     -10.324964      -280.9566
   4   2.0000     -10.320991      -280.8484
   5   2.0000     -10.312075      -280.6058
   6   2.0000     -10.306394      -280.4512
   7   2.0000     -10.295306      -280.1495
   8   2.0000     -10.295288      -280.1490
   9   2.0000     -10.289036      -279.9789
  10   2.0000     -10.288529      -279.9651
  11   2.0000     -10.288217      -279.9566
  12   2.0000     -10.286259      -279.9033
  13   2.0000     -10.278085      -279.6809
  14   2.0000     -10.277451      -279.6637
  15   2.0000     -10.268624      -279.4235
  16   2.0000      -8.081931      -219.9205
  17   2.0000      -8.080857      -219.8913
  18   2.0000      -6.040410      -164.3679
  19   2.0000      -6.039347      -164.3390
  20   2.0000      -6.036489      -164.2612
  21   2.0000      -6.035358      -164.2304
  22   2.0000      -6.032797      -164.1608
  23   2.0000      -6.031694      -164.1307
  24   2.0000      -1.007483       -27.4150
  25   2.0000      -0.982275       -26.7291
  26   2.0000      -0.919505       -25.0210
  27   2.0000      -0.911237       -24.7960
  28   2.0000      -0.876163       -23.8416
  29   2.0000      -0.857722       -23.3398
  30   2.0000      -0.849856       -23.1257
  31   2.0000      -0.818197       -22.2643
  32   2.0000      -0.779871       -21.2214
  33   2.0000      -0.764246       -20.7962
  34   2.0000      -0.707692       -19.2573
  35   2.0000      -0.701844       -19.0982
  36   2.0000      -0.689685       -18.7673
  37   2.0000      -0.663205       -18.0467
  38   2.0000      -0.648965       -17.6592
  39   2.0000      -0.617619       -16.8063
  40   2.0000      -0.596929       -16.2433
  41   2.0000      -0.573173       -15.5968
  42   2.0000      -0.564310       -15.3557
  43   2.0000      -0.560704       -15.2575
  44   2.0000      -0.533093       -14.5062
  45   2.0000      -0.525733       -14.3059
  46   2.0000      -0.519252       -14.1296
  47   2.0000      -0.512723       -13.9519
  48   2.0000      -0.510889       -13.9020
  49   2.0000      -0.497108       -13.5270
  50   2.0000      -0.495648       -13.4873
  51   2.0000      -0.483015       -13.1435
  52   2.0000      -0.465903       -12.6779
  53   2.0000      -0.461642       -12.5619
  54   2.0000      -0.459357       -12.4997
  55   2.0000      -0.451241       -12.2789
  56   2.0000      -0.446885       -12.1604
  57   2.0000      -0.439036       -11.9468
  58   2.0000      -0.430945       -11.7266
  59   2.0000      -0.429566       -11.6891
  60   2.0000      -0.423755       -11.5310
  61   2.0000      -0.407831       -11.0977
  62   2.0000      -0.406138       -11.0516
  63   2.0000      -0.343972        -9.3599
  64   2.0000      -0.331942        -9.0326
  65   2.0000      -0.320005        -8.7078
  66   2.0000      -0.299574        -8.1518
  67   0.0000       0.039340         1.0705
  68   0.0000       0.049146         1.3373
  69   0.0000       0.109649         2.9837
  70   0.0000       0.121725         3.3123
  71   0.0000       0.125284         3.4092

MULLIKEN ATOMIC CHARGES
-----------------------
   0 S :    0.116575
   1 C :   -0.113109
   2 C :   -0.065780
   3 C :    0.054641
   4 C :   -0.186509
   5 H :    0.009344
   6 C :    0.056478
   7 H :    0.014155
   8 H :    0.023349
   9 C :   -0.089940
  10 H :    0.031085
  11 H :    0.014910
  12 C :    0.018877
  13 H :    0.000663
  14 H :    0.030609
  15 H :    0.037305
  16 S :    0.118122
  17 C :   -0.088182
  18 C :   -0.033894
  19 C :   -0.001775
  20 C :   -0.199349
  21 H :    0.014114
  22 C :    0.080275
  23 H :    0.003451
  24 H :    0.021556
  25 C :   -0.074522
  26 H :    0.035743
  27 H :    0.029365
  28 C :   -0.049749
  29 H :    0.028801
  30 H :    0.036496
  31 H :    0.020334
  32 H :    0.051215
  33 H :    0.055348
Sum of atomic charges:    0.0000000

LOEWDIN ATOMIC CHARGES
----------------------
   0 S :    0.403276
   1 C :   -0.201573
   2 C :   -0.067251
   3 C :   -0.050630
   4 C :   -0.197694
   5 H :    0.034799
   6 C :   -0.035866
   7 H :    0.028181
   8 H :    0.031427
   9 C :   -0.039020
  10 H :    0.026852
  11 H :    0.019018
  12 C :   -0.057659
  13 H :    0.013737
  14 H :    0.027465
  15 H :    0.028102
  16 S :    0.406736
  17 C :   -0.174726
  18 C :   -0.064827
  19 C :   -0.049159
  20 C :   -0.206572
  21 H :    0.030793
  22 C :   -0.035374
  23 H :    0.028421
  24 H :    0.028586
  25 C :   -0.043747
  26 H :    0.023263
  27 H :    0.026679
  28 C :   -0.070738
  29 H :    0.030961
  30 H :    0.026874
  31 H :    0.020245
  32 H :    0.029366
  33 H :    0.030057

  Mayer bond orders larger than 0.100000
B(  0-S ,  1-C ) :   1.1417 B(  0-S ,  4-C ) :   1.1314 B(  1-C ,  2-C ) :   1.6058
B(  1-C , 32-H ) :   0.9674 B(  2-C ,  3-C ) :   1.2165 B(  2-C ,  6-C ) :   1.0520
B(  3-C ,  4-C ) :   1.6067 B(  3-C ,  5-H ) :   0.9994 B(  4-C , 20-C ) :   1.0327
B(  6-C ,  7-H ) :   0.9340 B(  6-C ,  8-H ) :   0.9286 B(  6-C ,  9-C ) :   1.0554
B(  9-C , 10-H ) :   0.9574 B(  9-C , 11-H ) :   0.9543 B(  9-C , 12-C ) :   1.0696
B( 12-C , 13-H ) :   0.9726 B( 12-C , 14-H ) :   0.9740 B( 12-C , 15-H ) :   0.9724
B( 16-S , 17-C ) :   1.1471 B( 16-S , 20-C ) :   1.1581 B( 17-C , 18-C ) :   1.6161
B( 17-C , 20-C ) :   0.1056 B( 17-C , 33-H ) :   0.9632 B( 18-C , 19-C ) :   1.2516
B( 18-C , 21-H ) :   0.9904 B( 19-C , 20-C ) :   1.5624 B( 19-C , 22-C ) :   1.0538
B( 22-C , 23-H ) :   0.9307 B( 22-C , 24-H ) :   0.9236 B( 22-C , 25-C ) :   1.0628
B( 25-C , 26-H ) :   0.9472 B( 25-C , 27-H ) :   0.9519 B( 25-C , 28-C ) :   1.0996
B( 28-C , 29-H ) :   0.9683 B( 28-C , 30-H ) :   0.9714 B( 28-C , 31-H ) :   0.9715

Dispersion correction           -0.014929309
FINAL SINGLE POINT ENERGY     -1339.876661144347

DIPOLE MOMENT
-------------
                                X             Y             Z
Electronic contribution:    -18.51130      15.00762     -16.75880
Nuclear contribution   :     19.14332     -15.29704      16.99211
                        -----------------------------------------
Total Dipole Moment    :      0.63203      -0.28941       0.23331
                        -----------------------------------------
Magnitude (a.u.)       :      0.73325
Magnitude (Debye)      :      1.86377

Rotational constants in cm-1:     0.018417     0.009049     0.007521
Rotational constants in MHz :   552.134693   271.290863   225.488323

                             ****ORCA TERMINATED NORMALLY****
TOTAL RUN TIME: 0 days 0 hours 0 minutes 22 seconds 292 msec
