                         Program Version 4.2.1 -  RELEASE  -
|  1> ! wB97X-D3 SP def2-SVP
|  2> %pal
|  3> nprocs 24
|  4> end
|  5>
|  6> * xyz 0 1
|  7> S 	 -5.19742 	 -29.1806 	 -112.547
|  8> C 	 -6.87969 	 -28.5629 	 -112.282
|  9> C 	 -7.76177 	 -29.6298 	 -112.359
| 10> C 	 -7.09424 	 -30.8569 	 -112.614
| 11> C 	 -5.7287 	 -30.7942 	 -112.86
| 12> H 	 -7.5165 	 -31.8233 	 -112.809
| 13> C 	 -9.24835 	 -29.5886 	 -112.211
| 14> H 	 -9.38071 	 -30.325 	 -111.458
| 15> H 	 -9.6464 	 -30.0354 	 -113.131
| 16> C 	 -9.93713 	 -28.2833 	 -112.067
| 17> H 	 -9.57006 	 -27.7488 	 -111.174
| 18> H 	 -9.72308 	 -27.66 	 -112.984
| 19> C 	 -11.4509 	 -28.3369 	 -112.052
| 20> H 	 -11.8118 	 -28.8832 	 -111.225
| 21> H 	 -11.7768 	 -27.3182 	 -111.937
| 22> H 	 -11.8075 	 -28.8725 	 -112.9
| 23> S 	 -5.37087 	 -32.9039 	 -114.685
| 24> C 	 -3.7552 	 -33.612 	 -114.748
| 25> C 	 -2.92537 	 -33.2265 	 -113.697
| 26> C 	 -3.50269 	 -32.2016 	 -112.893
| 27> C 	 -4.8573 	 -31.8899 	 -113.303
| 28> H 	 -1.92231 	 -33.688 	 -113.606
| 29> C 	 -2.78084 	 -31.4977 	 -111.712
| 30> H 	 -2.77239 	 -30.4302 	 -111.987
| 31> H 	 -1.73137 	 -31.9072 	 -111.654
| 32> C 	 -3.41054 	 -31.5618 	 -110.282
| 33> H 	 -4.45391 	 -31.2927 	 -110.331
| 34> H 	 -2.82523 	 -30.8525 	 -109.664
| 35> C 	 -3.23833 	 -33.0216 	 -109.693
| 36> H 	 -2.21845 	 -33.4225 	 -109.76
| 37> H 	 -3.82283 	 -33.7928 	 -110.298
| 38> H 	 -3.4806 	 -32.9592 	 -108.634
| 39> H 	 -7.13672 	 -27.5177 	 -112.104
| 40> H 	 -3.36923 	 -34.3568 	 -115.406
| 41> *
| 42>
| 43>                          ****END OF INPUT****

CARTESIAN COORDINATES (ANGSTROEM)
---------------------------------
  S     -5.197420  -29.180600  -112.547000
  C     -6.879690  -28.562900  -112.282000
  C     -7.761770  -29.629800  -112.359000
  C     -7.094240  -30.856900  -112.614000
  C     -5.728700  -30.794200  -112.860000
  H     -7.516500  -31.823300  -112.809000
  C     -9.248350  -29.588600  -112.211000
  H     -9.380710  -30.325000  -111.458000
  H     -9.646400  -30.035400  -113.131000
  C     -9.937130  -28.283300  -112.067000
  H     -9.570060  -27.748800  -111.174000
  H     -9.723080  -27.660000  -112.984000
  C    -11.450900  -28.336900  -112.052000
  H    -11.811800  -28.883200  -111.225000
  H    -11.776800  -27.318200  -111.937000
  H    -11.807500  -28.872500  -112.900000
  S     -5.370870  -32.903900  -114.685000
  C     -3.755200  -33.612000  -114.748000
  C     -2.925370  -33.226500  -113.697000
  C     -3.502690  -32.201600  -112.893000
  C     -4.857300  -31.889900  -113.303000
  H     -1.922310  -33.688000  -113.606000
  C     -2.780840  -31.497700  -111.712000
  H     -2.772390  -30.430200  -111.987000
  H     -1.731370  -31.907200  -111.654000
  C     -3.410540  -31.561800  -110.282000
  H     -4.453910  -31.292700  -110.331000
  H     -2.825230  -30.852500  -109.664000
  C     -3.238330  -33.021600  -109.693000
  H     -2.218450  -33.422500  -109.760000
  H     -3.822830  -33.792800  -110.298000
  H     -3.480600  -32.959200  -108.634000
  H     -7.136720  -27.517700  -112.104000
  H     -3.369230  -34.356800  -115.406000

 Total Charge           Charge          ....    0
 Multiplicity           Mult            ....    1
 Number of Electrons    NEL             ....  134
 Basis Dimension        Dim             ....  322

ORBITAL ENERGIES
----------------

  NO   OCC          E(Eh)            E(eV)
   0   2.0000     -88.975903     -2421.1574
   1   2.0000     -88.963544     -2420.8211
   2   2.0000     -10.336105      -281.2597
   3   2.0000     -10.330805      -281.1155
   4   2.0000     -10.320028      -280.8222
   5   2.0000     -10.317958      -280.7659
   6   2.0000     -10.314305      -280.6665
   7   2.0000     -10.302643      -280.3492
   8   2.0000     -10.300164      -280.2817
   9   2.0000     -10.298183      -280.2278
  10   2.0000     -10.289168      -279.9825
  11   2.0000     -10.288741      -279.9709
  12   2.0000     -10.288521      -279.9649
  13   2.0000     -10.287119      -279.9267
  14   2.0000     -10.279947      -279.7316
  15   2.0000     -10.271717      -279.5076
  16   2.0000      -8.089009      -220.1131
  17   2.0000      -8.077368      -219.7964
  18   2.0000      -6.047533      -164.5617
  19   2.0000      -6.043814      -164.4605
  20   2.0000      -6.039788      -164.3510
  21   2.0000      -6.036037      -164.2489
  22   2.0000      -6.031975      -164.1384
  23   2.0000      -6.028046      -164.0315
  24   2.0000      -1.000114       -27.2145
  25   2.0000      -0.977334       -26.5946
  26   2.0000      -0.922579       -25.1047
  27   2.0000      -0.896049       -24.3827
  28   2.0000      -0.869834       -23.6694
  29   2.0000      -0.851552       -23.1719
  30   2.0000      -0.839340       -22.8396
  31   2.0000      -0.811078       -22.0706
  32   2.0000      -0.785121       -21.3642
  33   2.0000      -0.768021       -20.8989
  34   2.0000      -0.714207       -19.4346
  35   2.0000      -0.702832       -19.1250
  36   2.0000      -0.682443       -18.5702
  37   2.0000      -0.658227       -17.9113
  38   2.0000      -0.634857       -17.2753
  39   2.0000      -0.607672       -16.5356
  40   2.0000      -0.587178       -15.9779
  41   2.0000      -0.581677       -15.8282
  42   2.0000      -0.569296       -15.4913
  43   2.0000      -0.545051       -14.8316
  44   2.0000      -0.540362       -14.7040
  45   2.0000      -0.532740       -14.4966
  46   2.0000      -0.516295       -14.0491
  47   2.0000      -0.511922       -13.9301
  48   2.0000      -0.508276       -13.8309
  49   2.0000      -0.496745       -13.5171
  50   2.0000      -0.486496       -13.2382
  51   2.0000      -0.476095       -12.9552
  52   2.0000      -0.470776       -12.8105
  53   2.0000      -0.466972       -12.7070
  54   2.0000      -0.457614       -12.4523
  55   2.0000      -0.444620       -12.0987
  56   2.0000      -0.439930       -11.9711
  57   2.0000      -0.437659       -11.9093
  58   2.0000      -0.429795       -11.6953
  59   2.0000      -0.425614       -11.5815
  60   2.0000      -0.424460       -11.5502
  61   2.0000      -0.414137       -11.2693
  62   2.0000      -0.408949       -11.1281
  63   2.0000      -0.347611        -9.4590
  64   2.0000      -0.333882        -9.0854
  65   2.0000      -0.326720        -8.8905
  66   2.0000      -0.285070        -7.7571
  67   0.0000       0.020812         0.5663
  68   0.0000       0.068327         1.8593
  69   0.0000       0.103533         2.8173
  70   0.0000       0.116000         3.1565
  71   0.0000       0.127249         3.4626

MULLIKEN ATOMIC CHARGES
-----------------------
   0 S :    0.084062
   1 C :   -0.146066
   2 C :   -0.065719
   3 C :    0.000163
   4 C :   -0.134898
   5 H :   -0.002125
   6 C :    0.091965
   7 H :    0.027121
   8 H :    0.026370
   9 C :   -0.125068
  10 H :    0.032453
  11 H :    0.038505
  12 C :    0.020280
  13 H :    0.011774
  14 H :    0.033962
  15 H :    0.021115
  16 S :    0.123969
  17 C :   -0.080448
  18 C :   -0.061884
  19 C :   -0.034543
  20 C :   -0.157198
  21 H :    0.035928
  22 C :    0.017638
  23 H :    0.046521
  24 H :    0.029615
  25 C :   -0.052172
  26 H :    0.049135
  27 H :    0.038179
  28 C :   -0.086540
  29 H :    0.021302
  30 H :    0.051712
  31 H :    0.041536
  32 H :    0.056798
  33 H :    0.046560
Sum of atomic charges:   -0.0000000

LOEWDIN ATOMIC CHARGES
----------------------
   0 S :    0.392373
   1 C :   -0.190723
   2 C :   -0.056037
   3 C :   -0.077474
   4 C :   -0.194009
   5 H :    0.023315
   6 C :   -0.036426
   7 H :    0.032548
   8 H :    0.037859
   9 C :   -0.048425
  10 H :    0.023440
  11 H :    0.033492
  12 C :   -0.051026
  13 H :    0.017669
  14 H :    0.029770
  15 H :    0.021902
  16 S :    0.401763
  17 C :   -0.181094
  18 C :   -0.075927
  19 C :   -0.049055
  20 C :   -0.195685
  21 H :    0.040409
  22 C :   -0.041478
  23 H :    0.027442
  24 H :    0.033507
  25 C :   -0.033174
  26 H :    0.023755
  27 H :    0.029086
  28 C :   -0.076360
  29 H :    0.020267
  30 H :    0.035174
  31 H :    0.024907
  32 H :    0.031740
  33 H :    0.026474

  Mayer bond orders larger than 0.100000
B(  0-S ,  1-C ) :   1.1081 B(  0-S ,  4-C ) :   1.1471 B(  1-C ,  2-C ) :   1.6128
B(  1-C , 32-H ) :   0.9671 B(  2-C ,  3-C ) :   1.2334 B(  2-C ,  6-C ) :   1.0031
B(  3-C ,  4-C ) :   1.5690 B(  3-C ,  5-H ) :   0.9985 B(  4-C , 20-C ) :   1.0596
B(  6-C ,  7-H ) :   0.9311 B(  6-C ,  8-H ) :   0.9319 B(  6-C ,  9-C ) :   1.0868
B(  9-C , 10-H ) :   0.9469 B(  9-C , 11-H ) :   0.9493 B(  9-C , 12-C ) :   1.0952
B( 12-C , 13-H ) :   0.9717 B( 12-C , 14-H ) :   0.9715 B( 12-C , 15-H ) :   0.9717
B( 16-S , 17-C ) :   1.1553 B( 16-S , 20-C ) :   1.1376 B( 17-C , 18-C ) :   1.6116
B( 17-C , 20-C ) :   0.1081 B( 17-C , 33-H ) :   0.9638 B( 18-C , 19-C ) :   1.2679
B( 18-C , 21-H ) :   0.9797 B( 19-C , 20-C ) :   1.5302 B( 19-C , 22-C ) :   1.0281
B( 22-C , 23-H ) :   0.9310 B( 22-C , 24-H ) :   0.9416 B( 22-C , 25-C ) :   1.0687
B( 25-C , 26-H ) :   0.9553 B( 25-C , 27-H ) :   0.9552 B( 25-C , 28-C ) :   1.0635
B( 28-C , 29-H ) :   0.9765 B( 28-C , 30-H ) :   0.9765 B( 28-C , 31-H ) :   0.9774

Dispersion correction           -0.014294418
FINAL SINGLE POINT ENERGY     -1339.875280864764

DIPOLE MOMENT
-------------
                                X             Y             Z
Electronic contribution:     10.15709      -3.95290     -15.02274
Nuclear contribution   :    -10.34298       3.88013      15.20813
                        -----------------------------------------
Total Dipole Moment    :     -0.18588      -0.07277       0.18539
                        -----------------------------------------
Magnitude (a.u.)       :      0.27243
Magnitude (Debye)      :      0.69246

Rotational constants in cm-1:     0.022753     0.007293     0.006322
Rotational constants in MHz :   682.104228   218.631702   189.539035

                             ****ORCA TERMINATED NORMALLY****
TOTAL RUN TIME: 0 days 0 hours 0 minutes 21 seconds 307 msec
