                         Program Version 4.2.1 -  RELEASE  -
|  1> ! wB97X-D3 SP def2-SVP
|  2> %pal
|  3> nprocs 24
|  4> end
|  5>
|  6> * xyz 0 1
|  7> S 	 -70.6535 	 10.2256 	 -73.3572
|  8> C 	 -70.2926 	 11.1227 	 -74.7508
|  9> C 	 -68.9427 	 11.004 	 -75.0884
| 10> C 	 -68.177 	 10.3282 	 -74.0747
| 11> C 	 -68.9511 	 9.8481 	 -73.0634
| 12> H 	 -67.1563 	 10.1789 	 -74.0383
| 13> C 	 -68.241 	 11.5658 	 -76.3033
| 14> H 	 -68.9959 	 11.7651 	 -77.1045
| 15> H 	 -67.563 	 10.7398 	 -76.6791
| 16> C 	 -67.4108 	 12.8504 	 -76.1392
| 17> H 	 -66.6163 	 12.6865 	 -75.3733
| 18> H 	 -66.8667 	 13.1211 	 -77.0672
| 19> C 	 -68.3423 	 14.078 	 -75.7984
| 20> H 	 -68.9982 	 14.3481 	 -76.588
| 21> H 	 -68.9541 	 13.8319 	 -74.9262
| 22> H 	 -67.7739 	 14.9871 	 -75.5557
| 23> S 	 -69.506 	 9.40028 	 -70.4076
| 24> C 	 -68.5611 	 8.26505 	 -69.4841
| 25> C 	 -67.4304 	 7.94075 	 -70.1906
| 26> C 	 -67.3933 	 8.43912 	 -71.5158
| 27> C 	 -68.5508 	 9.13101 	 -71.8196
| 28> H 	 -66.6637 	 7.26554 	 -69.7043
| 29> C 	 -66.3567 	 8.03735 	 -72.5337
| 30> H 	 -65.6049 	 7.50565 	 -71.9285
| 31> H 	 -65.8956 	 8.90742 	 -72.8922
| 32> C 	 -66.7505 	 6.97211 	 -73.5593
| 33> H 	 -65.8017 	 6.77147 	 -74.09
| 34> H 	 -67.3715 	 7.36743 	 -74.3913
| 35> C 	 -67.2931 	 5.76158 	 -72.8149
| 36> H 	 -67.2003 	 4.89174 	 -73.469
| 37> H 	 -68.2871 	 5.93446 	 -72.4361
| 38> H 	 -66.6522 	 5.4839 	 -71.9561
| 39> H 	 -71.0745 	 11.4448 	 -75.5083
| 40> H 	 -68.7741 	 7.9863 	 -68.4695
| 41> *
| 42>
| 43>                          ****END OF INPUT****

CARTESIAN COORDINATES (ANGSTROEM)
---------------------------------
  S    -70.653500   10.225600  -73.357200
  C    -70.292600   11.122700  -74.750800
  C    -68.942700   11.004000  -75.088400
  C    -68.177000   10.328200  -74.074700
  C    -68.951100    9.848100  -73.063400
  H    -67.156300   10.178900  -74.038300
  C    -68.241000   11.565800  -76.303300
  H    -68.995900   11.765100  -77.104500
  H    -67.563000   10.739800  -76.679100
  C    -67.410800   12.850400  -76.139200
  H    -66.616300   12.686500  -75.373300
  H    -66.866700   13.121100  -77.067200
  C    -68.342300   14.078000  -75.798400
  H    -68.998200   14.348100  -76.588000
  H    -68.954100   13.831900  -74.926200
  H    -67.773900   14.987100  -75.555700
  S    -69.506000    9.400280  -70.407600
  C    -68.561100    8.265050  -69.484100
  C    -67.430400    7.940750  -70.190600
  C    -67.393300    8.439120  -71.515800
  C    -68.550800    9.131010  -71.819600
  H    -66.663700    7.265540  -69.704300
  C    -66.356700    8.037350  -72.533700
  H    -65.604900    7.505650  -71.928500
  H    -65.895600    8.907420  -72.892200
  C    -66.750500    6.972110  -73.559300
  H    -65.801700    6.771470  -74.090000
  H    -67.371500    7.367430  -74.391300
  C    -67.293100    5.761580  -72.814900
  H    -67.200300    4.891740  -73.469000
  H    -68.287100    5.934460  -72.436100
  H    -66.652200    5.483900  -71.956100
  H    -71.074500   11.444800  -75.508300
  H    -68.774100    7.986300  -68.469500

 Total Charge           Charge          ....    0
 Multiplicity           Mult            ....    1
 Number of Electrons    NEL             ....  134
 Basis Dimension        Dim             ....  322

ORBITAL ENERGIES
----------------

  NO   OCC          E(Eh)            E(eV)
   0   2.0000     -88.966265     -2420.8951
   1   2.0000     -88.964816     -2420.8557
   2   2.0000     -10.332128      -281.1515
   3   2.0000     -10.326559      -280.9999
   4   2.0000     -10.317037      -280.7409
   5   2.0000     -10.314359      -280.6680
   6   2.0000     -10.304036      -280.3871
   7   2.0000     -10.298740      -280.2430
   8   2.0000     -10.298564      -280.2382
   9   2.0000     -10.297468      -280.2084
  10   2.0000     -10.294656      -280.1318
  11   2.0000     -10.288775      -279.9718
  12   2.0000     -10.288607      -279.9672
  13   2.0000     -10.287133      -279.9271
  14   2.0000     -10.275838      -279.6198
  15   2.0000     -10.273821      -279.5649
  16   2.0000      -8.081643      -219.9127
  17   2.0000      -8.080189      -219.8731
  18   2.0000      -6.040095      -164.3594
  19   2.0000      -6.038613      -164.3190
  20   2.0000      -6.036028      -164.2487
  21   2.0000      -6.034580      -164.2093
  22   2.0000      -6.032450      -164.1513
  23   2.0000      -6.031021      -164.1124
  24   2.0000      -1.012551       -27.5529
  25   2.0000      -0.990963       -26.9655
  26   2.0000      -0.915644       -24.9159
  27   2.0000      -0.905353       -24.6359
  28   2.0000      -0.868665       -23.6376
  29   2.0000      -0.851983       -23.1836
  30   2.0000      -0.843321       -22.9479
  31   2.0000      -0.814583       -22.1659
  32   2.0000      -0.782804       -21.3012
  33   2.0000      -0.771564       -20.9953
  34   2.0000      -0.708942       -19.2913
  35   2.0000      -0.698301       -19.0017
  36   2.0000      -0.688445       -18.7335
  37   2.0000      -0.664663       -18.0864
  38   2.0000      -0.641112       -17.4455
  39   2.0000      -0.622634       -16.9427
  40   2.0000      -0.590069       -16.0566
  41   2.0000      -0.563214       -15.3258
  42   2.0000      -0.560842       -15.2613
  43   2.0000      -0.552397       -15.0315
  44   2.0000      -0.545310       -14.8386
  45   2.0000      -0.538912       -14.6646
  46   2.0000      -0.511344       -13.9144
  47   2.0000      -0.504207       -13.7202
  48   2.0000      -0.502499       -13.6737
  49   2.0000      -0.495529       -13.4840
  50   2.0000      -0.489300       -13.3145
  51   2.0000      -0.484756       -13.1909
  52   2.0000      -0.471527       -12.8309
  53   2.0000      -0.466245       -12.6872
  54   2.0000      -0.455265       -12.3884
  55   2.0000      -0.447281       -12.1711
  56   2.0000      -0.438854       -11.9418
  57   2.0000      -0.437151       -11.8955
  58   2.0000      -0.432917       -11.7803
  59   2.0000      -0.431227       -11.7343
  60   2.0000      -0.425006       -11.5650
  61   2.0000      -0.412315       -11.2197
  62   2.0000      -0.408361       -11.1121
  63   2.0000      -0.361600        -9.8396
  64   2.0000      -0.333557        -9.0765
  65   2.0000      -0.328840        -8.9482
  66   2.0000      -0.287697        -7.8286
  67   0.0000       0.023537         0.6405
  68   0.0000       0.082014         2.2317
  69   0.0000       0.106231         2.8907
  70   0.0000       0.112191         3.0529
  71   0.0000       0.141148         3.8408

MULLIKEN ATOMIC CHARGES
-----------------------
   0 S :    0.108113
   1 C :   -0.124673
   2 C :   -0.100131
   3 C :    0.036361
   4 C :   -0.117298
   5 H :   -0.035475
   6 C :    0.028325
   7 H :    0.023025
   8 H :    0.041114
   9 C :   -0.073088
  10 H :    0.034441
  11 H :    0.037328
  12 C :   -0.063400
  13 H :    0.022370
  14 H :    0.042698
  15 H :    0.035116
  16 S :    0.103981
  17 C :   -0.089837
  18 C :   -0.056625
  19 C :   -0.073069
  20 C :   -0.116963
  21 H :    0.037435
  22 C :    0.055128
  23 H :    0.009317
  24 H :    0.023471
  25 C :   -0.052346
  26 H :    0.025690
  27 H :    0.041052
  28 C :   -0.040893
  29 H :    0.032868
  30 H :    0.057323
  31 H :    0.019462
  32 H :    0.077691
  33 H :    0.051488
Sum of atomic charges:    0.0000000

LOEWDIN ATOMIC CHARGES
----------------------
   0 S :    0.416086
   1 C :   -0.229077
   2 C :   -0.064226
   3 C :   -0.057559
   4 C :   -0.174816
   5 H :    0.017265
   6 C :   -0.042124
   7 H :    0.030410
   8 H :    0.038040
   9 C :   -0.041879
  10 H :    0.024481
  11 H :    0.027219
  12 C :   -0.068476
  13 H :    0.018183
  14 H :    0.027310
  15 H :    0.027631
  16 S :    0.417581
  17 C :   -0.189679
  18 C :   -0.076361
  19 C :   -0.068207
  20 C :   -0.198766
  21 H :    0.040627
  22 C :   -0.033106
  23 H :    0.032029
  24 H :    0.018121
  25 C :   -0.040313
  26 H :    0.026772
  27 H :    0.026611
  28 C :   -0.061603
  29 H :    0.027927
  30 H :    0.030685
  31 H :    0.025846
  32 H :    0.045690
  33 H :    0.027677

  Mayer bond orders larger than 0.100000
B(  0-S ,  1-C ) :   1.1487 B(  0-S ,  4-C ) :   1.1528 B(  1-C ,  2-C ) :   1.6009
B(  1-C , 32-H ) :   0.9536 B(  2-C ,  3-C ) :   1.2241 B(  2-C ,  6-C ) :   1.0354
B(  3-C ,  4-C ) :   1.5854 B(  3-C ,  5-H ) :   1.0056 B(  4-C , 20-C ) :   1.0329
B(  6-C ,  7-H ) :   0.9425 B(  6-C ,  8-H ) :   0.9385 B(  6-C ,  9-C ) :   1.0692
B(  9-C , 10-H ) :   0.9577 B(  9-C , 11-H ) :   0.9561 B(  9-C , 12-C ) :   1.0642
B( 12-C , 13-H ) :   0.9766 B( 12-C , 14-H ) :   0.9781 B( 12-C , 15-H ) :   0.9754
B( 16-S , 17-C ) :   1.1512 B( 16-S , 20-C ) :   1.1640 B( 17-C , 18-C ) :   1.5954
B( 17-C , 20-C ) :   0.1024 B( 17-C , 33-H ) :   0.9727 B( 18-C , 19-C ) :   1.2620
B( 18-C , 21-H ) :   0.9782 B( 19-C , 20-C ) :   1.5728 B( 19-C , 22-C ) :   1.0435
B( 22-C , 23-H ) :   0.9314 B( 22-C , 24-H ) :   0.9244 B( 22-C , 25-C ) :   1.0722
B( 25-C , 26-H ) :   0.9547 B( 25-C , 27-H ) :   0.9509 B( 25-C , 28-C ) :   1.0692
B( 28-C , 29-H ) :   0.9715 B( 28-C , 30-H ) :   0.9711 B( 28-C , 31-H ) :   0.9743

Dispersion correction           -0.015265857
FINAL SINGLE POINT ENERGY     -1339.890761509382

DIPOLE MOMENT
-------------
                                X             Y             Z
Electronic contribution:    -15.84363      -0.58594      16.25275
Nuclear contribution   :     16.38798       0.41197     -16.55711
                        -----------------------------------------
Total Dipole Moment    :      0.54435      -0.17397      -0.30436
                        -----------------------------------------
Magnitude (a.u.)       :      0.64747
Magnitude (Debye)      :      1.64574

Rotational constants in cm-1:     0.021630     0.008575     0.007246
Rotational constants in MHz :   648.453973   257.059982   217.241963

                             ****ORCA TERMINATED NORMALLY****
TOTAL RUN TIME: 0 days 0 hours 0 minutes 21 seconds 232 msec
