                         Program Version 4.2.1 -  RELEASE  -
|  1> ! wB97X-D3 SP def2-SVP
|  2> %pal
|  3> nprocs 24
|  4> end
|  5>
|  6> * xyz 0 1
|  7> S 	 -65.0432 	 16.7635 	 -109.913
|  8> C 	 -66.7259 	 16.3699 	 -110.114
|  9> C 	 -67.0468 	 16.253 	 -111.433
| 10> C 	 -65.9788 	 16.5732 	 -112.314
| 11> C 	 -64.801 	 16.8591 	 -111.69
| 12> H 	 -66.0073 	 16.4996 	 -113.425
| 13> C 	 -68.4616 	 15.846 	 -111.92
| 14> H 	 -68.7785 	 16.6828 	 -112.49
| 15> H 	 -69.2005 	 15.7398 	 -111.12
| 16> C 	 -68.5953 	 14.6376 	 -112.798
| 17> H 	 -68.0709 	 14.8432 	 -113.761
| 18> H 	 -68.0134 	 13.8596 	 -112.297
| 19> C 	 -69.9841 	 14.0653 	 -113.134
| 20> H 	 -70.6816 	 13.8982 	 -112.3
| 21> H 	 -70.5329 	 14.7086 	 -113.867
| 22> H 	 -69.9121 	 13.1111 	 -113.663
| 23> S 	 -62.6128 	 16.2549 	 -113.301
| 24> C 	 -61.6969 	 17.6272 	 -114.059
| 25> C 	 -62.0527 	 18.8139 	 -113.392
| 26> C 	 -63.2028 	 18.6829 	 -112.533
| 27> C 	 -63.6297 	 17.3923 	 -112.365
| 28> H 	 -61.5614 	 19.7118 	 -113.736
| 29> C 	 -63.8774 	 19.9626 	 -111.901
| 30> H 	 -64.1331 	 19.7648 	 -110.84
| 31> H 	 -64.8174 	 20.0063 	 -112.378
| 32> C 	 -63.1354 	 21.3759 	 -112.075
| 33> H 	 -62.6903 	 21.4472 	 -113.038
| 34> H 	 -62.2937 	 21.1997 	 -111.478
| 35> C 	 -64.0236 	 22.6028 	 -111.717
| 36> H 	 -63.3137 	 23.435 	 -111.572
| 37> H 	 -64.678 	 22.5037 	 -110.811
| 38> H 	 -64.7006 	 22.8783 	 -112.513
| 39> H 	 -67.4821 	 16.3716 	 -109.366
| 40> H 	 -60.886 	 17.5591 	 -114.68
| 41> *
| 42>
| 43>                          ****END OF INPUT****

CARTESIAN COORDINATES (ANGSTROEM)
---------------------------------
  S    -65.043200   16.763500  -109.913000
  C    -66.725900   16.369900  -110.114000
  C    -67.046800   16.253000  -111.433000
  C    -65.978800   16.573200  -112.314000
  C    -64.801000   16.859100  -111.690000
  H    -66.007300   16.499600  -113.425000
  C    -68.461600   15.846000  -111.920000
  H    -68.778500   16.682800  -112.490000
  H    -69.200500   15.739800  -111.120000
  C    -68.595300   14.637600  -112.798000
  H    -68.070900   14.843200  -113.761000
  H    -68.013400   13.859600  -112.297000
  C    -69.984100   14.065300  -113.134000
  H    -70.681600   13.898200  -112.300000
  H    -70.532900   14.708600  -113.867000
  H    -69.912100   13.111100  -113.663000
  S    -62.612800   16.254900  -113.301000
  C    -61.696900   17.627200  -114.059000
  C    -62.052700   18.813900  -113.392000
  C    -63.202800   18.682900  -112.533000
  C    -63.629700   17.392300  -112.365000
  H    -61.561400   19.711800  -113.736000
  C    -63.877400   19.962600  -111.901000
  H    -64.133100   19.764800  -110.840000
  H    -64.817400   20.006300  -112.378000
  C    -63.135400   21.375900  -112.075000
  H    -62.690300   21.447200  -113.038000
  H    -62.293700   21.199700  -111.478000
  C    -64.023600   22.602800  -111.717000
  H    -63.313700   23.435000  -111.572000
  H    -64.678000   22.503700  -110.811000
  H    -64.700600   22.878300  -112.513000
  H    -67.482100   16.371600  -109.366000
  H    -60.886000   17.559100  -114.680000

 Total Charge           Charge          ....    0
 Multiplicity           Mult            ....    1
 Number of Electrons    NEL             ....  134
 Basis Dimension        Dim             ....  322

ORBITAL ENERGIES
----------------

  NO   OCC          E(Eh)            E(eV)
   0   2.0000     -88.966956     -2420.9139
   1   2.0000     -88.964199     -2420.8389
   2   2.0000     -10.330665      -281.1117
   3   2.0000     -10.327585      -281.0279
   4   2.0000     -10.320796      -280.8431
   5   2.0000     -10.312273      -280.6112
   6   2.0000     -10.309565      -280.5375
   7   2.0000     -10.300926      -280.3024
   8   2.0000     -10.298871      -280.2465
   9   2.0000     -10.297420      -280.2070
  10   2.0000     -10.293146      -280.0907
  11   2.0000     -10.288778      -279.9719
  12   2.0000     -10.287862      -279.9470
  13   2.0000     -10.287578      -279.9392
  14   2.0000     -10.287540      -279.9382
  15   2.0000     -10.285137      -279.8728
  16   2.0000      -8.080981      -219.8947
  17   2.0000      -8.077323      -219.7951
  18   2.0000      -6.039594      -164.3457
  19   2.0000      -6.035974      -164.2472
  20   2.0000      -6.035582      -164.2365
  21   2.0000      -6.032085      -164.1414
  22   2.0000      -6.031660      -164.1298
  23   2.0000      -6.027980      -164.0297
  24   2.0000      -1.002781       -27.2871
  25   2.0000      -0.977217       -26.5914
  26   2.0000      -0.909984       -24.7619
  27   2.0000      -0.894218       -24.3329
  28   2.0000      -0.872347       -23.7378
  29   2.0000      -0.846207       -23.0265
  30   2.0000      -0.841341       -22.8941
  31   2.0000      -0.816863       -22.2280
  32   2.0000      -0.782743       -21.2995
  33   2.0000      -0.772300       -21.0153
  34   2.0000      -0.713476       -19.4147
  35   2.0000      -0.709108       -19.2958
  36   2.0000      -0.692094       -18.8328
  37   2.0000      -0.660310       -17.9680
  38   2.0000      -0.639813       -17.4102
  39   2.0000      -0.618260       -16.8237
  40   2.0000      -0.589835       -16.0502
  41   2.0000      -0.569949       -15.5091
  42   2.0000      -0.564541       -15.3619
  43   2.0000      -0.556871       -15.1532
  44   2.0000      -0.528826       -14.3901
  45   2.0000      -0.516959       -14.0672
  46   2.0000      -0.514474       -13.9995
  47   2.0000      -0.509326       -13.8595
  48   2.0000      -0.505478       -13.7548
  49   2.0000      -0.500048       -13.6070
  50   2.0000      -0.496473       -13.5097
  51   2.0000      -0.482441       -13.1279
  52   2.0000      -0.473655       -12.8888
  53   2.0000      -0.468811       -12.7570
  54   2.0000      -0.458039       -12.4639
  55   2.0000      -0.448710       -12.2100
  56   2.0000      -0.444665       -12.1000
  57   2.0000      -0.431536       -11.7427
  58   2.0000      -0.427311       -11.6277
  59   2.0000      -0.426564       -11.6074
  60   2.0000      -0.422173       -11.4879
  61   2.0000      -0.410934       -11.1821
  62   2.0000      -0.408010       -11.1025
  63   2.0000      -0.339350        -9.2342
  64   2.0000      -0.330575        -8.9954
  65   2.0000      -0.323010        -8.7896
  66   2.0000      -0.309130        -8.4118
  67   0.0000       0.033683         0.9166
  68   0.0000       0.056514         1.5378
  69   0.0000       0.107318         2.9203
  70   0.0000       0.124191         3.3794
  71   0.0000       0.130981         3.5642

MULLIKEN ATOMIC CHARGES
-----------------------
   0 S :    0.105865
   1 C :   -0.107581
   2 C :   -0.083916
   3 C :    0.032979
   4 C :   -0.164249
   5 H :    0.035571
   6 C :    0.106628
   7 H :    0.016996
   8 H :    0.009086
   9 C :   -0.098915
  10 H :    0.032210
  11 H :    0.032338
  12 C :   -0.062185
  13 H :    0.035038
  14 H :    0.030295
  15 H :    0.038092
  16 S :    0.088986
  17 C :   -0.060899
  18 C :   -0.060184
  19 C :   -0.017660
  20 C :   -0.184301
  21 H :    0.025065
  22 C :    0.067744
  23 H :    0.034904
  24 H :    0.019902
  25 C :   -0.058793
  26 H :    0.023333
  27 H :    0.022231
  28 C :   -0.050078
  29 H :    0.040315
  30 H :    0.045564
  31 H :    0.038284
  32 H :    0.037802
  33 H :    0.029533
Sum of atomic charges:    0.0000000

LOEWDIN ATOMIC CHARGES
----------------------
   0 S :    0.389588
   1 C :   -0.189419
   2 C :   -0.064495
   3 C :   -0.054762
   4 C :   -0.186696
   5 H :    0.041660
   6 C :   -0.030757
   7 H :    0.025387
   8 H :    0.026909
   9 C :   -0.049399
  10 H :    0.027327
  11 H :    0.025337
  12 C :   -0.071729
  13 H :    0.025003
  14 H :    0.027393
  15 H :    0.031474
  16 S :    0.364369
  17 C :   -0.149367
  18 C :   -0.071083
  19 C :   -0.047312
  20 C :   -0.192697
  21 H :    0.029896
  22 C :   -0.027715
  23 H :    0.031082
  24 H :    0.024382
  25 C :   -0.035975
  26 H :    0.018525
  27 H :    0.018864
  28 C :   -0.065159
  29 H :    0.032328
  30 H :    0.033157
  31 H :    0.025894
  32 H :    0.026529
  33 H :    0.011462

  Mayer bond orders larger than 0.100000
B(  0-S ,  1-C ) :   1.1345 B(  0-S ,  4-C ) :   1.1226 B(  1-C ,  2-C ) :   1.6396
B(  1-C , 32-H ) :   0.9673 B(  2-C ,  3-C ) :   1.2274 B(  2-C ,  6-C ) :   1.0182
B(  3-C ,  4-C ) :   1.6113 B(  3-C ,  5-H ) :   0.9842 B(  4-C , 20-C ) :   1.0222
B(  6-C ,  7-H ) :   0.9319 B(  6-C ,  8-H ) :   0.9433 B(  6-C ,  9-C ) :   1.0652
B(  9-C , 10-H ) :   0.9498 B(  9-C , 11-H ) :   0.9579 B(  9-C , 12-C ) :   1.0881
B( 12-C , 13-H ) :   0.9745 B( 12-C , 14-H ) :   0.9745 B( 12-C , 15-H ) :   0.9732
B( 16-S , 17-C ) :   1.1429 B( 16-S , 20-C ) :   1.1201 B( 17-C , 18-C ) :   1.6316
B( 17-C , 20-C ) :   0.1019 B( 17-C , 33-H ) :   0.9726 B( 18-C , 19-C ) :   1.2229
B( 18-C , 21-H ) :   0.9821 B( 19-C , 20-C ) :   1.6441 B( 19-C , 22-C ) :   1.0082
B( 22-C , 23-H ) :   0.9384 B( 22-C , 24-H ) :   0.9324 B( 22-C , 25-C ) :   1.0587
B( 25-C , 26-H ) :   0.9510 B( 25-C , 27-H ) :   0.9617 B( 25-C , 28-C ) :   1.0691
B( 28-C , 29-H ) :   0.9738 B( 28-C , 30-H ) :   0.9780 B( 28-C , 31-H ) :   0.9764

Dispersion correction           -0.013571591
FINAL SINGLE POINT ENERGY     -1339.864632985174

DIPOLE MOMENT
-------------
                                X             Y             Z
Electronic contribution:     17.56052     -10.21022       5.03358
Nuclear contribution   :    -17.97874      10.68844      -5.32010
                        -----------------------------------------
Total Dipole Moment    :     -0.41822       0.47823      -0.28652
                        -----------------------------------------
Magnitude (a.u.)       :      0.69692
Magnitude (Debye)      :      1.77144

Rotational constants in cm-1:     0.018427     0.007118     0.006183
Rotational constants in MHz :   552.425062   213.390068   185.367408

                             ****ORCA TERMINATED NORMALLY****
TOTAL RUN TIME: 0 days 0 hours 0 minutes 20 seconds 606 msec
