                         Program Version 4.2.1 -  RELEASE  -
|  1> ! wB97X-D3 SP def2-SVP
|  2> %pal
|  3> nprocs 24
|  4> end
|  5>
|  6> * xyz 0 1
|  7> S 	 -49.248 	 15.3256 	 -86.6904
|  8> C 	 -49.8502 	 16.872 	 -86.0141
|  9> C 	 -50.4936 	 17.6362 	 -87.0021
| 10> C 	 -50.6014 	 16.9498 	 -88.2462
| 11> C 	 -49.9747 	 15.7065 	 -88.2732
| 12> H 	 -51.0621 	 17.3493 	 -89.0895
| 13> C 	 -51.1815 	 18.9464 	 -86.8544
| 14> H 	 -51.3245 	 19.1226 	 -85.745
| 15> H 	 -52.2122 	 18.8025 	 -87.1087
| 16> C 	 -50.4328 	 20.1043 	 -87.5615
| 17> H 	 -49.8758 	 19.6218 	 -88.3359
| 18> H 	 -51.192 	 20.8656 	 -87.9272
| 19> C 	 -49.3848 	 20.85 	 -86.6605
| 20> H 	 -49.8726 	 21.4767 	 -85.9375
| 21> H 	 -48.7005 	 20.1309 	 -86.1764
| 22> H 	 -48.7531 	 21.5505 	 -87.2314
| 23> S 	 -51.6884 	 14.2343 	 -89.697
| 24> C 	 -51.1147 	 13.0585 	 -90.822
| 25> C 	 -49.7557 	 12.9715 	 -90.9128
| 26> C 	 -49.1523 	 13.9479 	 -90.0339
| 27> C 	 -50.0221 	 14.6754 	 -89.3416
| 28> H 	 -49.2401 	 12.321 	 -91.5713
| 29> C 	 -47.6918 	 14.14 	 -89.8317
| 30> H 	 -47.2573 	 13.146 	 -89.7431
| 31> H 	 -47.3247 	 14.6584 	 -88.97
| 32> C 	 -46.8906 	 14.9424 	 -90.8935
| 33> H 	 -47.5628 	 15.8139 	 -91.0909
| 34> H 	 -46.8787 	 14.4201 	 -91.8567
| 35> C 	 -45.5428 	 15.5206 	 -90.419
| 36> H 	 -45.4565 	 15.9009 	 -89.3956
| 37> H 	 -45.2458 	 16.3504 	 -91.0905
| 38> H 	 -44.7834 	 14.7551 	 -90.4965
| 39> H 	 -49.7008 	 17.0948 	 -84.9823
| 40> H 	 -51.7726 	 12.5541 	 -91.4541
| 41> *
| 42>
| 43>                          ****END OF INPUT****

CARTESIAN COORDINATES (ANGSTROEM)
---------------------------------
  S    -49.248000   15.325600  -86.690400
  C    -49.850200   16.872000  -86.014100
  C    -50.493600   17.636200  -87.002100
  C    -50.601400   16.949800  -88.246200
  C    -49.974700   15.706500  -88.273200
  H    -51.062100   17.349300  -89.089500
  C    -51.181500   18.946400  -86.854400
  H    -51.324500   19.122600  -85.745000
  H    -52.212200   18.802500  -87.108700
  C    -50.432800   20.104300  -87.561500
  H    -49.875800   19.621800  -88.335900
  H    -51.192000   20.865600  -87.927200
  C    -49.384800   20.850000  -86.660500
  H    -49.872600   21.476700  -85.937500
  H    -48.700500   20.130900  -86.176400
  H    -48.753100   21.550500  -87.231400
  S    -51.688400   14.234300  -89.697000
  C    -51.114700   13.058500  -90.822000
  C    -49.755700   12.971500  -90.912800
  C    -49.152300   13.947900  -90.033900
  C    -50.022100   14.675400  -89.341600
  H    -49.240100   12.321000  -91.571300
  C    -47.691800   14.140000  -89.831700
  H    -47.257300   13.146000  -89.743100
  H    -47.324700   14.658400  -88.970000
  C    -46.890600   14.942400  -90.893500
  H    -47.562800   15.813900  -91.090900
  H    -46.878700   14.420100  -91.856700
  C    -45.542800   15.520600  -90.419000
  H    -45.456500   15.900900  -89.395600
  H    -45.245800   16.350400  -91.090500
  H    -44.783400   14.755100  -90.496500
  H    -49.700800   17.094800  -84.982300
  H    -51.772600   12.554100  -91.454100

 Total Charge           Charge          ....    0
 Multiplicity           Mult            ....    1
 Number of Electrons    NEL             ....  134
 Basis Dimension        Dim             ....  322

ORBITAL ENERGIES
----------------

  NO   OCC          E(Eh)            E(eV)
   0   2.0000     -88.966025     -2420.8886
   1   2.0000     -88.960895     -2420.7490
   2   2.0000     -10.335774      -281.2507
   3   2.0000     -10.320991      -280.8484
   4   2.0000     -10.319617      -280.8111
   5   2.0000     -10.311339      -280.5858
   6   2.0000     -10.302977      -280.3583
   7   2.0000     -10.298401      -280.2337
   8   2.0000     -10.294408      -280.1251
   9   2.0000     -10.294404      -280.1250
  10   2.0000     -10.291913      -280.0572
  11   2.0000     -10.291303      -280.0406
  12   2.0000     -10.286787      -279.9177
  13   2.0000     -10.282106      -279.7903
  14   2.0000     -10.280603      -279.7494
  15   2.0000     -10.279846      -279.7288
  16   2.0000      -8.079380      -219.8511
  17   2.0000      -8.076525      -219.7734
  18   2.0000      -6.037975      -164.3017
  19   2.0000      -6.034931      -164.2188
  20   2.0000      -6.034029      -164.1943
  21   2.0000      -6.031031      -164.1127
  22   2.0000      -6.030194      -164.0899
  23   2.0000      -6.027197      -164.0084
  24   2.0000      -1.008504       -27.4428
  25   2.0000      -0.980779       -26.6884
  26   2.0000      -0.909151       -24.7393
  27   2.0000      -0.906646       -24.6711
  28   2.0000      -0.865971       -23.5643
  29   2.0000      -0.852300       -23.1923
  30   2.0000      -0.844383       -22.9768
  31   2.0000      -0.814440       -22.1620
  32   2.0000      -0.782442       -21.2913
  33   2.0000      -0.772444       -21.0193
  34   2.0000      -0.705873       -19.2078
  35   2.0000      -0.698612       -19.0102
  36   2.0000      -0.690897       -18.8003
  37   2.0000      -0.673450       -18.3255
  38   2.0000      -0.644644       -17.5416
  39   2.0000      -0.622556       -16.9406
  40   2.0000      -0.607109       -16.5203
  41   2.0000      -0.574497       -15.6329
  42   2.0000      -0.560313       -15.2469
  43   2.0000      -0.544504       -14.8167
  44   2.0000      -0.532797       -14.4982
  45   2.0000      -0.522680       -14.2229
  46   2.0000      -0.517780       -14.0895
  47   2.0000      -0.511951       -13.9309
  48   2.0000      -0.504825       -13.7370
  49   2.0000      -0.492506       -13.4018
  50   2.0000      -0.491494       -13.3742
  51   2.0000      -0.476357       -12.9623
  52   2.0000      -0.473022       -12.8716
  53   2.0000      -0.468825       -12.7574
  54   2.0000      -0.456551       -12.4234
  55   2.0000      -0.447337       -12.1727
  56   2.0000      -0.446570       -12.1518
  57   2.0000      -0.438765       -11.9394
  58   2.0000      -0.432721       -11.7749
  59   2.0000      -0.425832       -11.5875
  60   2.0000      -0.420557       -11.4439
  61   2.0000      -0.410873       -11.1804
  62   2.0000      -0.403625       -10.9832
  63   2.0000      -0.339941        -9.2503
  64   2.0000      -0.333706        -9.0806
  65   2.0000      -0.329400        -8.9634
  66   2.0000      -0.299410        -8.1474
  67   0.0000       0.036347         0.9891
  68   0.0000       0.068140         1.8542
  69   0.0000       0.108505         2.9526
  70   0.0000       0.110550         3.0082
  71   0.0000       0.126210         3.4343

MULLIKEN ATOMIC CHARGES
-----------------------
   0 S :    0.099447
   1 C :   -0.126691
   2 C :   -0.093236
   3 C :    0.043810
   4 C :   -0.122540
   5 H :   -0.007820
   6 C :    0.053456
   7 H :    0.017788
   8 H :    0.031826
   9 C :   -0.064993
  10 H :    0.034502
  11 H :    0.045179
  12 C :   -0.057212
  13 H :    0.028298
  14 H :    0.036733
  15 H :    0.033932
  16 S :    0.103125
  17 C :   -0.058319
  18 C :   -0.004505
  19 C :   -0.025950
  20 C :   -0.153437
  21 H :    0.005428
  22 C :    0.068560
  23 H :    0.019215
  24 H :    0.000728
  25 C :   -0.098260
  26 H :    0.028416
  27 H :    0.027391
  28 C :   -0.053396
  29 H :    0.041766
  30 H :    0.040998
  31 H :    0.027521
  32 H :    0.044249
  33 H :    0.033990
Sum of atomic charges:    0.0000000

LOEWDIN ATOMIC CHARGES
----------------------
   0 S :    0.378915
   1 C :   -0.180823
   2 C :   -0.062465
   3 C :   -0.058929
   4 C :   -0.178158
   5 H :    0.021736
   6 C :   -0.040962
   7 H :    0.033681
   8 H :    0.031834
   9 C :   -0.036174
  10 H :    0.022169
  11 H :    0.033186
  12 C :   -0.065371
  13 H :    0.019734
  14 H :    0.027349
  15 H :    0.027456
  16 S :    0.408531
  17 C :   -0.169517
  18 C :   -0.060381
  19 C :   -0.059503
  20 C :   -0.189259
  21 H :    0.028333
  22 C :   -0.037575
  23 H :    0.027988
  24 H :    0.022391
  25 C :   -0.043196
  26 H :    0.026790
  27 H :    0.020771
  28 C :   -0.069684
  29 H :    0.029341
  30 H :    0.033557
  31 H :    0.022141
  32 H :    0.021362
  33 H :    0.014734

  Mayer bond orders larger than 0.100000
B(  0-S ,  1-C ) :   1.1332 B(  0-S ,  4-C ) :   1.1462 B(  1-C ,  2-C ) :   1.5968
B(  1-C , 32-H ) :   0.9756 B(  2-C ,  3-C ) :   1.2265 B(  2-C ,  6-C ) :   1.0338
B(  3-C ,  4-C ) :   1.5764 B(  3-C ,  5-H ) :   1.0031 B(  4-C , 20-C ) :   0.9954
B(  6-C ,  7-H ) :   0.9428 B(  6-C ,  8-H ) :   0.9428 B(  6-C ,  9-C ) :   1.0286
B(  9-C , 10-H ) :   0.9645 B(  9-C , 11-H ) :   0.9570 B(  9-C , 12-C ) :   1.0784
B( 12-C , 13-H ) :   0.9782 B( 12-C , 14-H ) :   0.9756 B( 12-C , 15-H ) :   0.9762
B( 16-S , 17-C ) :   1.1589 B( 16-S , 20-C ) :   1.1184 B( 17-C , 18-C ) :   1.6247
B( 17-C , 33-H ) :   0.9719 B( 18-C , 19-C ) :   1.1918 B( 18-C , 21-H ) :   1.0040
B( 19-C , 20-C ) :   1.6825 B( 19-C , 22-C ) :   1.0555 B( 22-C , 23-H ) :   0.9243
B( 22-C , 24-H ) :   0.9392 B( 22-C , 25-C ) :   1.0486 B( 25-C , 26-H ) :   0.9588
B( 25-C , 27-H ) :   0.9554 B( 25-C , 28-C ) :   1.0800 B( 28-C , 29-H ) :   0.9716
B( 28-C , 30-H ) :   0.9754 B( 28-C , 31-H ) :   0.9767

Dispersion correction           -0.014111301
FINAL SINGLE POINT ENERGY     -1339.876776290941

DIPOLE MOMENT
-------------
                                X             Y             Z
Electronic contribution:    -14.52755     -18.76728       2.55245
Nuclear contribution   :     14.62090      19.06502      -2.74513
                        -----------------------------------------
Total Dipole Moment    :      0.09335       0.29774      -0.19268
                        -----------------------------------------
Magnitude (a.u.)       :      0.36673
Magnitude (Debye)      :      0.93215

Rotational constants in cm-1:     0.018267     0.008430     0.006979
Rotational constants in MHz :   547.632711   252.720984   209.217545

                             ****ORCA TERMINATED NORMALLY****
TOTAL RUN TIME: 0 days 0 hours 0 minutes 21 seconds 285 msec
