                         Program Version 4.2.1 -  RELEASE  -
|  1> ! wB97X-D3 SP def2-SVP
|  2> %pal
|  3> nprocs 24
|  4> end
|  5>
|  6> * xyz 0 1
|  7> S 	 -51.3373 	 15.9625 	 24.1819
|  8> C 	 -49.703 	 15.2147 	 24.2077
|  9> C 	 -48.9256 	 15.7362 	 25.2468
| 10> C 	 -49.7237 	 16.6179 	 26.0443
| 11> C 	 -51.0213 	 16.8193 	 25.6701
| 12> H 	 -49.3154 	 17.1541 	 26.8558
| 13> C 	 -47.5259 	 15.2853 	 25.5857
| 14> H 	 -47.1406 	 14.709 	 24.7779
| 15> H 	 -47.6332 	 14.5287 	 26.3663
| 16> C 	 -46.5944 	 16.3414 	 26.1984
| 17> H 	 -47.1791 	 16.6828 	 27.0706
| 18> H 	 -45.7127 	 15.9137 	 26.6506
| 19> C 	 -46.2168 	 17.562 	 25.3158
| 20> H 	 -47.0337 	 17.9586 	 24.6625
| 21> H 	 -45.7686 	 18.278 	 25.9151
| 22> H 	 -45.5287 	 17.2031 	 24.603
| 23> S 	 -52.5555 	 19.0783 	 25.3433
| 24> C 	 -53.4894 	 19.6741 	 26.6029
| 25> C 	 -53.6154 	 18.7423 	 27.5704
| 26> C 	 -52.7002 	 17.6647 	 27.434
| 27> C 	 -51.9562 	 17.6977 	 26.2906
| 28> H 	 -54.2238 	 18.957 	 28.4441
| 29> C 	 -52.5968 	 16.6643 	 28.5934
| 30> H 	 -52.0597 	 15.7695 	 28.2171
| 31> H 	 -53.6235 	 16.5199 	 28.8727
| 32> C 	 -51.7712 	 17.3078 	 29.7436
| 33> H 	 -52.2294 	 18.2528 	 29.9441
| 34> H 	 -50.7755 	 17.4097 	 29.3184
| 35> C 	 -51.7296 	 16.4297 	 31.0197
| 36> H 	 -52.7709 	 16.1305 	 31.3245
| 37> H 	 -51.2465 	 17.0466 	 31.7508
| 38> H 	 -51.0319 	 15.581 	 30.9363
| 39> H 	 -49.2706 	 14.6012 	 23.4906
| 40> H 	 -54.2308 	 20.4812 	 26.5693
| 41> *
| 42>
| 43>                          ****END OF INPUT****

CARTESIAN COORDINATES (ANGSTROEM)
---------------------------------
  S    -51.337300   15.962500   24.181900
  C    -49.703000   15.214700   24.207700
  C    -48.925600   15.736200   25.246800
  C    -49.723700   16.617900   26.044300
  C    -51.021300   16.819300   25.670100
  H    -49.315400   17.154100   26.855800
  C    -47.525900   15.285300   25.585700
  H    -47.140600   14.709000   24.777900
  H    -47.633200   14.528700   26.366300
  C    -46.594400   16.341400   26.198400
  H    -47.179100   16.682800   27.070600
  H    -45.712700   15.913700   26.650600
  C    -46.216800   17.562000   25.315800
  H    -47.033700   17.958600   24.662500
  H    -45.768600   18.278000   25.915100
  H    -45.528700   17.203100   24.603000
  S    -52.555500   19.078300   25.343300
  C    -53.489400   19.674100   26.602900
  C    -53.615400   18.742300   27.570400
  C    -52.700200   17.664700   27.434000
  C    -51.956200   17.697700   26.290600
  H    -54.223800   18.957000   28.444100
  C    -52.596800   16.664300   28.593400
  H    -52.059700   15.769500   28.217100
  H    -53.623500   16.519900   28.872700
  C    -51.771200   17.307800   29.743600
  H    -52.229400   18.252800   29.944100
  H    -50.775500   17.409700   29.318400
  C    -51.729600   16.429700   31.019700
  H    -52.770900   16.130500   31.324500
  H    -51.246500   17.046600   31.750800
  H    -51.031900   15.581000   30.936300
  H    -49.270600   14.601200   23.490600
  H    -54.230800   20.481200   26.569300

 Total Charge           Charge          ....    0
 Multiplicity           Mult            ....    1
 Number of Electrons    NEL             ....  134
 Basis Dimension        Dim             ....  322

ORBITAL ENERGIES
----------------

  NO   OCC          E(Eh)            E(eV)
   0   2.0000     -88.966731     -2420.9078
   1   2.0000     -88.958324     -2420.6791
   2   2.0000     -10.326302      -280.9930
   3   2.0000     -10.321481      -280.8618
   4   2.0000     -10.314039      -280.6593
   5   2.0000     -10.310047      -280.5506
   6   2.0000     -10.303054      -280.3604
   7   2.0000     -10.298754      -280.2433
   8   2.0000     -10.293197      -280.0921
   9   2.0000     -10.291168      -280.0369
  10   2.0000     -10.288683      -279.9693
  11   2.0000     -10.288544      -279.9655
  12   2.0000     -10.285134      -279.8727
  13   2.0000     -10.285031      -279.8699
  14   2.0000     -10.281616      -279.7770
  15   2.0000     -10.271441      -279.5001
  16   2.0000      -8.080637      -219.8853
  17   2.0000      -8.074559      -219.7199
  18   2.0000      -6.039256      -164.3365
  19   2.0000      -6.035310      -164.2291
  20   2.0000      -6.032990      -164.1660
  21   2.0000      -6.031264      -164.1190
  22   2.0000      -6.028866      -164.0538
  23   2.0000      -6.025259      -163.9556
  24   2.0000      -1.012925       -27.5631
  25   2.0000      -0.986746       -26.8507
  26   2.0000      -0.914279       -24.8788
  27   2.0000      -0.908078       -24.7100
  28   2.0000      -0.874161       -23.7871
  29   2.0000      -0.848776       -23.0964
  30   2.0000      -0.842540       -22.9267
  31   2.0000      -0.818686       -22.2776
  32   2.0000      -0.788002       -21.4426
  33   2.0000      -0.774989       -21.0885
  34   2.0000      -0.715940       -19.4817
  35   2.0000      -0.699036       -19.0217
  36   2.0000      -0.692286       -18.8380
  37   2.0000      -0.660302       -17.9677
  38   2.0000      -0.643142       -17.5008
  39   2.0000      -0.625548       -17.0220
  40   2.0000      -0.591377       -16.0922
  41   2.0000      -0.571676       -15.5561
  42   2.0000      -0.566376       -15.4119
  43   2.0000      -0.553933       -15.0733
  44   2.0000      -0.539938       -14.6924
  45   2.0000      -0.524453       -14.2711
  46   2.0000      -0.517570       -14.0838
  47   2.0000      -0.516081       -14.0433
  48   2.0000      -0.513587       -13.9754
  49   2.0000      -0.501744       -13.6532
  50   2.0000      -0.489106       -13.3092
  51   2.0000      -0.481173       -13.0934
  52   2.0000      -0.475074       -12.9274
  53   2.0000      -0.469413       -12.7734
  54   2.0000      -0.461253       -12.5513
  55   2.0000      -0.447563       -12.1788
  56   2.0000      -0.438810       -11.9406
  57   2.0000      -0.435121       -11.8402
  58   2.0000      -0.434992       -11.8367
  59   2.0000      -0.426765       -11.6129
  60   2.0000      -0.425947       -11.5906
  61   2.0000      -0.415673       -11.3110
  62   2.0000      -0.407720       -11.0946
  63   2.0000      -0.339830        -9.2472
  64   2.0000      -0.330279        -8.9873
  65   2.0000      -0.324857        -8.8398
  66   2.0000      -0.302227        -8.2240
  67   0.0000       0.038429         1.0457
  68   0.0000       0.059635         1.6227
  69   0.0000       0.117866         3.2073
  70   0.0000       0.123272         3.3544
  71   0.0000       0.128345         3.4924

MULLIKEN ATOMIC CHARGES
-----------------------
   0 S :    0.113910
   1 C :   -0.098571
   2 C :   -0.093361
   3 C :    0.030437
   4 C :   -0.143904
   5 H :   -0.007727
   6 C :    0.097462
   7 H :    0.003230
   8 H :    0.040205
   9 C :   -0.096822
  10 H :    0.021592
  11 H :    0.025985
  12 C :   -0.011282
  13 H :    0.047404
  14 H :    0.027115
  15 H :    0.016220
  16 S :    0.097995
  17 C :   -0.064643
  18 C :   -0.068845
  19 C :   -0.039838
  20 C :   -0.180821
  21 H :    0.020401
  22 C :    0.088193
  23 H :    0.033941
  24 H :    0.019217
  25 C :   -0.088340
  26 H :    0.022120
  27 H :    0.026190
  28 C :   -0.021774
  29 H :    0.041623
  30 H :    0.027018
  31 H :    0.033105
  32 H :    0.019889
  33 H :    0.062677
Sum of atomic charges:    0.0000000

LOEWDIN ATOMIC CHARGES
----------------------
   0 S :    0.392003
   1 C :   -0.174744
   2 C :   -0.056041
   3 C :   -0.057770
   4 C :   -0.198057
   5 H :    0.020154
   6 C :   -0.030705
   7 H :    0.021852
   8 H :    0.041203
   9 C :   -0.039530
  10 H :    0.022428
  11 H :    0.024857
  12 C :   -0.059261
  13 H :    0.036172
  14 H :    0.018351
  15 H :    0.020235
  16 S :    0.416746
  17 C :   -0.201787
  18 C :   -0.086571
  19 C :   -0.049314
  20 C :   -0.199339
  21 H :    0.030019
  22 C :   -0.023936
  23 H :    0.032122
  24 H :    0.025040
  25 C :   -0.033563
  26 H :    0.017966
  27 H :    0.024246
  28 C :   -0.067177
  29 H :    0.030777
  30 H :    0.023761
  31 H :    0.027466
  32 H :    0.013870
  33 H :    0.038527

  Mayer bond orders larger than 0.100000
B(  0-S ,  1-C ) :   1.1295 B(  0-S ,  4-C ) :   1.1301 B(  1-C ,  2-C ) :   1.6162
B(  1-C , 32-H ) :   0.9712 B(  2-C ,  3-C ) :   1.2250 B(  2-C ,  6-C ) :   1.0263
B(  3-C ,  4-C ) :   1.5993 B(  3-C ,  5-H ) :   0.9976 B(  4-C , 20-C ) :   1.0563
B(  6-C ,  7-H ) :   0.9376 B(  6-C ,  8-H ) :   0.9327 B(  6-C ,  9-C ) :   1.0705
B(  9-C , 10-H ) :   0.9527 B(  9-C , 11-H ) :   0.9531 B(  9-C , 12-C ) :   1.0729
B( 12-C , 13-H ) :   0.9756 B( 12-C , 14-H ) :   0.9750 B( 12-C , 15-H ) :   0.9735
B( 16-S , 17-C ) :   1.1787 B( 16-S , 20-C ) :   1.1168 B( 17-C , 18-C ) :   1.6194
B( 17-C , 33-H ) :   0.9562 B( 18-C , 19-C ) :   1.2410 B( 18-C , 21-H ) :   0.9843
B( 19-C , 20-C ) :   1.6187 B( 19-C , 22-C ) :   1.0386 B( 22-C , 23-H ) :   0.9341
B( 22-C , 24-H ) :   0.9305 B( 22-C , 25-C ) :   1.0728 B( 25-C , 26-H ) :   0.9593
B( 25-C , 27-H ) :   0.9512 B( 25-C , 28-C ) :   1.0847 B( 28-C , 29-H ) :   0.9740
B( 28-C , 30-H ) :   0.9729 B( 28-C , 31-H ) :   0.9733

Dispersion correction           -0.014118739
FINAL SINGLE POINT ENERGY     -1339.871585968031

DIPOLE MOMENT
-------------
                                X             Y             Z
Electronic contribution:    -17.03523       4.42972     -19.68123
Nuclear contribution   :     17.41763      -4.53368      20.27386
                        -----------------------------------------
Total Dipole Moment    :      0.38240      -0.10396       0.59263
                        -----------------------------------------
Magnitude (a.u.)       :      0.71292
Magnitude (Debye)      :      1.81209

Rotational constants in cm-1:     0.016616     0.009009     0.007227
Rotational constants in MHz :   498.136573   270.071755   216.671927

                             ****ORCA TERMINATED NORMALLY****
TOTAL RUN TIME: 0 days 0 hours 0 minutes 21 seconds 460 msec
