                         Program Version 4.2.1 -  RELEASE  -
|  1> ! wB97X-D3 SP def2-SVP
|  2> %pal
|  3> nprocs 24
|  4> end
|  5>
|  6> * xyz 0 1
|  7> S 	 -60.6832 	 -53.8072 	 -84.4945
|  8> C 	 -60.5655 	 -53.2008 	 -82.8749
|  9> C 	 -60.8262 	 -54.1658 	 -81.9265
| 10> C 	 -61.0841 	 -55.4626 	 -82.5191
| 11> C 	 -60.8951 	 -55.47 	 -83.8687
| 12> H 	 -61.2159 	 -56.3915 	 -81.8527
| 13> C 	 -60.8041 	 -53.8907 	 -80.4639
| 14> H 	 -59.9464 	 -53.225 	 -80.2512
| 15> H 	 -60.6887 	 -54.8204 	 -79.8413
| 16> C 	 -62.0716 	 -53.1646 	 -79.9894
| 17> H 	 -62.2107 	 -52.2006 	 -80.4226
| 18> H 	 -63.1136 	 -53.5589 	 -80.2297
| 19> C 	 -62.2314 	 -52.9693 	 -78.4946
| 20> H 	 -62.6828 	 -53.8 	 -77.863
| 21> H 	 -61.3245 	 -52.7625 	 -77.9753
| 22> H 	 -62.8722 	 -52.1214 	 -78.3218
| 23> S 	 -59.1357 	 -57.2423 	 -84.9906
| 24> C 	 -59.7418 	 -58.776 	 -85.4591
| 25> C 	 -61.1098 	 -58.8219 	 -85.4115
| 26> C 	 -61.7236 	 -57.5721 	 -84.9938
| 27> C 	 -60.7432 	 -56.6554 	 -84.6731
| 28> H 	 -61.5966 	 -59.7346 	 -85.6667
| 29> C 	 -63.2161 	 -57.4798 	 -84.7038
| 30> H 	 -63.4651 	 -57.7274 	 -83.6918
| 31> H 	 -63.5966 	 -58.2373 	 -85.3673
| 32> C 	 -63.8489 	 -56.2132 	 -85.1128
| 33> H 	 -63.4693 	 -55.9195 	 -86.1459
| 34> H 	 -63.6131 	 -55.3463 	 -84.4526
| 35> C 	 -65.3534 	 -56.3336 	 -85.1072
| 36> H 	 -65.6959 	 -57.2943 	 -85.5561
| 37> H 	 -65.7785 	 -55.5198 	 -85.647
| 38> H 	 -65.688 	 -56.4918 	 -84.1177
| 39> H 	 -60.3516 	 -52.2115 	 -82.6221
| 40> H 	 -59.1608 	 -59.6062 	 -85.7568
| 41> *
| 42>
| 43>                          ****END OF INPUT****

CARTESIAN COORDINATES (ANGSTROEM)
---------------------------------
  S    -60.683200  -53.807200  -84.494500
  C    -60.565500  -53.200800  -82.874900
  C    -60.826200  -54.165800  -81.926500
  C    -61.084100  -55.462600  -82.519100
  C    -60.895100  -55.470000  -83.868700
  H    -61.215900  -56.391500  -81.852700
  C    -60.804100  -53.890700  -80.463900
  H    -59.946400  -53.225000  -80.251200
  H    -60.688700  -54.820400  -79.841300
  C    -62.071600  -53.164600  -79.989400
  H    -62.210700  -52.200600  -80.422600
  H    -63.113600  -53.558900  -80.229700
  C    -62.231400  -52.969300  -78.494600
  H    -62.682800  -53.800000  -77.863000
  H    -61.324500  -52.762500  -77.975300
  H    -62.872200  -52.121400  -78.321800
  S    -59.135700  -57.242300  -84.990600
  C    -59.741800  -58.776000  -85.459100
  C    -61.109800  -58.821900  -85.411500
  C    -61.723600  -57.572100  -84.993800
  C    -60.743200  -56.655400  -84.673100
  H    -61.596600  -59.734600  -85.666700
  C    -63.216100  -57.479800  -84.703800
  H    -63.465100  -57.727400  -83.691800
  H    -63.596600  -58.237300  -85.367300
  C    -63.848900  -56.213200  -85.112800
  H    -63.469300  -55.919500  -86.145900
  H    -63.613100  -55.346300  -84.452600
  C    -65.353400  -56.333600  -85.107200
  H    -65.695900  -57.294300  -85.556100
  H    -65.778500  -55.519800  -85.647000
  H    -65.688000  -56.491800  -84.117700
  H    -60.351600  -52.211500  -82.622100
  H    -59.160800  -59.606200  -85.756800

 Total Charge           Charge          ....    0
 Multiplicity           Mult            ....    1
 Number of Electrons    NEL             ....  134
 Basis Dimension        Dim             ....  322

ORBITAL ENERGIES
----------------

  NO   OCC          E(Eh)            E(eV)
   0   2.0000     -88.964537     -2420.8481
   1   2.0000     -88.963496     -2420.8198
   2   2.0000     -10.326957      -281.0108
   3   2.0000     -10.318642      -280.7845
   4   2.0000     -10.310045      -280.5506
   5   2.0000     -10.306922      -280.4656
   6   2.0000     -10.301673      -280.3228
   7   2.0000     -10.300590      -280.2933
   8   2.0000     -10.299641      -280.2675
   9   2.0000     -10.298372      -280.2329
  10   2.0000     -10.289238      -279.9844
  11   2.0000     -10.287197      -279.9289
  12   2.0000     -10.284236      -279.8483
  13   2.0000     -10.278651      -279.6963
  14   2.0000     -10.274845      -279.5927
  15   2.0000     -10.267567      -279.3947
  16   2.0000      -8.079141      -219.8446
  17   2.0000      -8.078910      -219.8383
  18   2.0000      -6.037562      -164.2904
  19   2.0000      -6.037474      -164.2880
  20   2.0000      -6.033566      -164.1817
  21   2.0000      -6.033494      -164.1797
  22   2.0000      -6.029966      -164.0837
  23   2.0000      -6.029545      -164.0723
  24   2.0000      -1.007835       -27.4246
  25   2.0000      -0.984546       -26.7909
  26   2.0000      -0.918442       -24.9921
  27   2.0000      -0.911901       -24.8141
  28   2.0000      -0.871778       -23.7223
  29   2.0000      -0.851856       -23.1802
  30   2.0000      -0.848841       -23.0981
  31   2.0000      -0.816269       -22.2118
  32   2.0000      -0.783415       -21.3178
  33   2.0000      -0.769447       -20.9377
  34   2.0000      -0.707441       -19.2505
  35   2.0000      -0.701055       -19.0767
  36   2.0000      -0.686851       -18.6902
  37   2.0000      -0.660091       -17.9620
  38   2.0000      -0.641039       -17.4436
  39   2.0000      -0.617968       -16.8158
  40   2.0000      -0.599899       -16.3241
  41   2.0000      -0.571520       -15.5519
  42   2.0000      -0.570269       -15.5178
  43   2.0000      -0.551585       -15.0094
  44   2.0000      -0.533646       -14.5212
  45   2.0000      -0.528449       -14.3798
  46   2.0000      -0.517125       -14.0717
  47   2.0000      -0.514792       -14.0082
  48   2.0000      -0.504533       -13.7290
  49   2.0000      -0.495571       -13.4852
  50   2.0000      -0.495422       -13.4811
  51   2.0000      -0.482482       -13.1290
  52   2.0000      -0.466868       -12.7041
  53   2.0000      -0.463575       -12.6145
  54   2.0000      -0.455462       -12.3938
  55   2.0000      -0.448945       -12.2164
  56   2.0000      -0.444367       -12.0919
  57   2.0000      -0.441557       -12.0154
  58   2.0000      -0.435532       -11.8514
  59   2.0000      -0.425617       -11.5816
  60   2.0000      -0.416611       -11.3366
  61   2.0000      -0.408460       -11.1148
  62   2.0000      -0.401282       -10.9194
  63   2.0000      -0.340628        -9.2690
  64   2.0000      -0.327085        -8.9004
  65   2.0000      -0.320102        -8.7104
  66   2.0000      -0.306023        -8.3273
  67   0.0000       0.042143         1.1468
  68   0.0000       0.059447         1.6176
  69   0.0000       0.116560         3.1717
  70   0.0000       0.125544         3.4162
  71   0.0000       0.129116         3.5134

MULLIKEN ATOMIC CHARGES
-----------------------
   0 S :    0.111040
   1 C :   -0.092793
   2 C :   -0.095499
   3 C :    0.042393
   4 C :   -0.192979
   5 H :    0.046979
   6 C :    0.074417
   7 H :    0.038494
   8 H :    0.034275
   9 C :   -0.084322
  10 H :    0.013456
  11 H :    0.030311
  12 C :   -0.056170
  13 H :    0.037220
  14 H :    0.011217
  15 H :    0.024162
  16 S :    0.128376
  17 C :   -0.077145
  18 C :   -0.040002
  19 C :   -0.034487
  20 C :   -0.164246
  21 H :    0.006663
  22 C :    0.126166
  23 H :    0.031892
  24 H :    0.007521
  25 C :   -0.135310
  26 H :    0.031383
  27 H :    0.049887
  28 C :    0.008378
  29 H :    0.007848
  30 H :    0.037682
  31 H :    0.011080
  32 H :    0.021299
  33 H :    0.040814
Sum of atomic charges:    0.0000000

LOEWDIN ATOMIC CHARGES
----------------------
   0 S :    0.391461
   1 C :   -0.189584
   2 C :   -0.065093
   3 C :   -0.059824
   4 C :   -0.185667
   5 H :    0.048157
   6 C :   -0.033968
   7 H :    0.039358
   8 H :    0.036448
   9 C :   -0.052211
  10 H :    0.019226
  11 H :    0.035765
  12 C :   -0.074410
  13 H :    0.028925
  14 H :    0.014269
  15 H :    0.026139
  16 S :    0.427399
  17 C :   -0.188144
  18 C :   -0.072015
  19 C :   -0.046158
  20 C :   -0.211531
  21 H :    0.025393
  22 C :   -0.028118
  23 H :    0.030831
  24 H :    0.031152
  25 C :   -0.051038
  26 H :    0.028442
  27 H :    0.028944
  28 C :   -0.059634
  29 H :    0.022987
  30 H :    0.025278
  31 H :    0.018896
  32 H :    0.014883
  33 H :    0.023445

  Mayer bond orders larger than 0.100000
B(  0-S ,  1-C ) :   1.1299 B(  0-S ,  4-C ) :   1.1278 B(  1-C ,  2-C ) :   1.6279
B(  1-C , 32-H ) :   0.9742 B(  2-C ,  3-C ) :   1.2312 B(  2-C ,  6-C ) :   1.0362
B(  3-C ,  4-C ) :   1.6114 B(  3-C ,  5-H ) :   0.9768 B(  4-C , 20-C ) :   1.0258
B(  6-C ,  7-H ) :   0.9326 B(  6-C ,  8-H ) :   0.9452 B(  6-C ,  9-C ) :   1.0524
B(  9-C , 10-H ) :   0.9572 B(  9-C , 11-H ) :   0.9549 B(  9-C , 12-C ) :   1.0819
B( 12-C , 13-H ) :   0.9769 B( 12-C , 14-H ) :   0.9717 B( 12-C , 15-H ) :   0.9730
B( 16-S , 17-C ) :   1.1600 B( 16-S , 20-C ) :   1.1471 B( 17-C , 18-C ) :   1.6249
B( 17-C , 33-H ) :   0.9697 B( 18-C , 19-C ) :   1.2323 B( 18-C , 21-H ) :   0.9937
B( 19-C , 20-C ) :   1.6013 B( 19-C , 22-C ) :   1.0306 B( 22-C , 23-H ) :   0.9264
B( 22-C , 24-H ) :   0.9254 B( 22-C , 25-C ) :   1.0768 B( 25-C , 26-H ) :   0.9584
B( 25-C , 27-H ) :   0.9422 B( 25-C , 28-C ) :   1.0911 B( 28-C , 29-H ) :   0.9703
B( 28-C , 30-H ) :   0.9725 B( 28-C , 31-H ) :   0.9673

Dispersion correction           -0.014389205
FINAL SINGLE POINT ENERGY     -1339.872164581736

DIPOLE MOMENT
-------------
                                X             Y             Z
Electronic contribution:     20.98933      -4.63702     -17.16084
Nuclear contribution   :    -21.29868       4.43943      17.66802
                        -----------------------------------------
Total Dipole Moment    :     -0.30935      -0.19759       0.50718
                        -----------------------------------------
Magnitude (a.u.)       :      0.62608
Magnitude (Debye)      :      1.59136

Rotational constants in cm-1:     0.018579     0.008291     0.007004
Rotational constants in MHz :   556.991569   248.560803   209.979748

                             ****ORCA TERMINATED NORMALLY****
TOTAL RUN TIME: 0 days 0 hours 0 minutes 20 seconds 513 msec
