                         Program Version 4.2.1 -  RELEASE  -
|  1> ! wB97X-D3 SP def2-SVP
|  2> %pal
|  3> nprocs 24
|  4> end
|  5>
|  6> * xyz 0 1
|  7> S 	 -43.2538 	 -1.51389 	 -11.693
|  8> C 	 -43.6549 	 -0.625313 	 -10.2178
|  9> C 	 -44.6653 	 -1.26077 	 -9.47782
| 10> C 	 -45.0349 	 -2.49901 	 -10.136
| 11> C 	 -44.3134 	 -2.80812 	 -11.2364
| 12> H 	 -45.7442 	 -3.18127 	 -9.71097
| 13> C 	 -45.2273 	 -0.671739 	 -8.21409
| 14> H 	 -44.6305 	 0.179508 	 -7.93914
| 15> H 	 -45.0347 	 -1.43522 	 -7.4444
| 16> C 	 -46.7532 	 -0.271001 	 -8.20613
| 17> H 	 -46.7801 	 0.508702 	 -9.02467
| 18> H 	 -47.3388 	 -1.10729 	 -8.6637
| 19> C 	 -47.2613 	 0.416994 	 -6.85159
| 20> H 	 -47.0925 	 1.50062 	 -6.75836
| 21> H 	 -48.3601 	 0.321137 	 -6.7456
| 22> H 	 -46.8906 	 -0.0665349 	 -5.9369
| 23> S 	 -44.6615 	 -3.88641 	 -13.7585
| 24> C 	 -44.9506 	 -5.56377 	 -13.936
| 25> C 	 -44.7558 	 -6.26553 	 -12.7289
| 26> C 	 -44.4795 	 -5.37596 	 -11.616
| 27> C 	 -44.4811 	 -4.06102 	 -12.0213
| 28> H 	 -44.9883 	 -7.32694 	 -12.693
| 29> C 	 -44.4072 	 -6.01176 	 -10.206
| 30> H 	 -44.2649 	 -7.06515 	 -10.327
| 31> H 	 -45.4124 	 -6.01098 	 -9.88728
| 32> C 	 -43.3517 	 -5.45593 	 -9.20923
| 33> H 	 -43.6402 	 -4.4586 	 -8.87743
| 34> H 	 -42.4221 	 -5.39922 	 -9.72449
| 35> C 	 -43.3124 	 -6.37011 	 -8.0475
| 36> H 	 -42.4951 	 -6.13579 	 -7.33226
| 37> H 	 -43.0027 	 -7.4233 	 -8.33655
| 38> H 	 -44.1389 	 -6.45364 	 -7.34697
| 39> H 	 -43.1663 	 0.24352 	 -9.7775
| 40> H 	 -45.1316 	 -5.99652 	 -14.8863
| 41> *
| 42>
| 43>                          ****END OF INPUT****

CARTESIAN COORDINATES (ANGSTROEM)
---------------------------------
  S    -43.253800   -1.513890  -11.693000
  C    -43.654900   -0.625313  -10.217800
  C    -44.665300   -1.260770   -9.477820
  C    -45.034900   -2.499010  -10.136000
  C    -44.313400   -2.808120  -11.236400
  H    -45.744200   -3.181270   -9.710970
  C    -45.227300   -0.671739   -8.214090
  H    -44.630500    0.179508   -7.939140
  H    -45.034700   -1.435220   -7.444400
  C    -46.753200   -0.271001   -8.206130
  H    -46.780100    0.508702   -9.024670
  H    -47.338800   -1.107290   -8.663700
  C    -47.261300    0.416994   -6.851590
  H    -47.092500    1.500620   -6.758360
  H    -48.360100    0.321137   -6.745600
  H    -46.890600   -0.066535   -5.936900
  S    -44.661500   -3.886410  -13.758500
  C    -44.950600   -5.563770  -13.936000
  C    -44.755800   -6.265530  -12.728900
  C    -44.479500   -5.375960  -11.616000
  C    -44.481100   -4.061020  -12.021300
  H    -44.988300   -7.326940  -12.693000
  C    -44.407200   -6.011760  -10.206000
  H    -44.264900   -7.065150  -10.327000
  H    -45.412400   -6.010980   -9.887280
  C    -43.351700   -5.455930   -9.209230
  H    -43.640200   -4.458600   -8.877430
  H    -42.422100   -5.399220   -9.724490
  C    -43.312400   -6.370110   -8.047500
  H    -42.495100   -6.135790   -7.332260
  H    -43.002700   -7.423300   -8.336550
  H    -44.138900   -6.453640   -7.346970
  H    -43.166300    0.243520   -9.777500
  H    -45.131600   -5.996520  -14.886300

 Total Charge           Charge          ....    0
 Multiplicity           Mult            ....    1
 Number of Electrons    NEL             ....  134
 Basis Dimension        Dim             ....  322

ORBITAL ENERGIES
----------------

  NO   OCC          E(Eh)            E(eV)
   0   2.0000     -88.967902     -2420.9397
   1   2.0000     -88.964823     -2420.8559
   2   2.0000     -10.327055      -281.0135
   3   2.0000     -10.326681      -281.0033
   4   2.0000     -10.314822      -280.6806
   5   2.0000     -10.314695      -280.6771
   6   2.0000     -10.306320      -280.4492
   7   2.0000     -10.304645      -280.4036
   8   2.0000     -10.303397      -280.3697
   9   2.0000     -10.296507      -280.1822
  10   2.0000     -10.295257      -280.1482
  11   2.0000     -10.291936      -280.0578
  12   2.0000     -10.290013      -280.0055
  13   2.0000     -10.288841      -279.9736
  14   2.0000     -10.282101      -279.7902
  15   2.0000     -10.278916      -279.7035
  16   2.0000      -8.082385      -219.9329
  17   2.0000      -8.080348      -219.8775
  18   2.0000      -6.041002      -164.3840
  19   2.0000      -6.038727      -164.3221
  20   2.0000      -6.036995      -164.2750
  21   2.0000      -6.034782      -164.2148
  22   2.0000      -6.032982      -164.1658
  23   2.0000      -6.031182      -164.1168
  24   2.0000      -1.005691       -27.3662
  25   2.0000      -0.982809       -26.7436
  26   2.0000      -0.911647       -24.8072
  27   2.0000      -0.903196       -24.5772
  28   2.0000      -0.861304       -23.4373
  29   2.0000      -0.854931       -23.2638
  30   2.0000      -0.842006       -22.9121
  31   2.0000      -0.812463       -22.1082
  32   2.0000      -0.782277       -21.2868
  33   2.0000      -0.772363       -21.0171
  34   2.0000      -0.711082       -19.3495
  35   2.0000      -0.704443       -19.1689
  36   2.0000      -0.688700       -18.7405
  37   2.0000      -0.663357       -18.0509
  38   2.0000      -0.637029       -17.3345
  39   2.0000      -0.620478       -16.8841
  40   2.0000      -0.593172       -16.1410
  41   2.0000      -0.569840       -15.5061
  42   2.0000      -0.561852       -15.2888
  43   2.0000      -0.551733       -15.0134
  44   2.0000      -0.521329       -14.1861
  45   2.0000      -0.519457       -14.1351
  46   2.0000      -0.517150       -14.0724
  47   2.0000      -0.507930       -13.8215
  48   2.0000      -0.501990       -13.6599
  49   2.0000      -0.497817       -13.5463
  50   2.0000      -0.494322       -13.4512
  51   2.0000      -0.483916       -13.1680
  52   2.0000      -0.468422       -12.7464
  53   2.0000      -0.464088       -12.6285
  54   2.0000      -0.459149       -12.4941
  55   2.0000      -0.456378       -12.4187
  56   2.0000      -0.448015       -12.1911
  57   2.0000      -0.434615       -11.8265
  58   2.0000      -0.433915       -11.8074
  59   2.0000      -0.427644       -11.6368
  60   2.0000      -0.421887       -11.4801
  61   2.0000      -0.414016       -11.2659
  62   2.0000      -0.410777       -11.1778
  63   2.0000      -0.345847        -9.4110
  64   2.0000      -0.330164        -8.9842
  65   2.0000      -0.328558        -8.9405
  66   2.0000      -0.292252        -7.9526
  67   0.0000       0.036960         1.0057
  68   0.0000       0.068409         1.8615
  69   0.0000       0.110096         2.9959
  70   0.0000       0.119455         3.2505
  71   0.0000       0.136347         3.7102

MULLIKEN ATOMIC CHARGES
-----------------------
   0 S :    0.115263
   1 C :   -0.114913
   2 C :   -0.125369
   3 C :    0.024576
   4 C :   -0.129217
   5 H :    0.005355
   6 C :    0.087461
   7 H :    0.008458
   8 H :    0.030577
   9 C :   -0.105814
  10 H :    0.039047
  11 H :    0.045836
  12 C :   -0.062540
  13 H :    0.046138
  14 H :    0.038318
  15 H :    0.035153
  16 S :    0.110516
  17 C :   -0.086025
  18 C :   -0.051063
  19 C :   -0.027578
  20 C :   -0.171234
  21 H :    0.027376
  22 C :    0.066501
  23 H :   -0.000285
  24 H :    0.024679
  25 C :   -0.004134
  26 H :    0.038802
  27 H :    0.032638
  28 C :   -0.074525
  29 H :    0.023735
  30 H :    0.026202
  31 H :    0.031383
  32 H :    0.046804
  33 H :    0.047879
Sum of atomic charges:   -0.0000000

LOEWDIN ATOMIC CHARGES
----------------------
   0 S :    0.400874
   1 C :   -0.199021
   2 C :   -0.059370
   3 C :   -0.066831
   4 C :   -0.194845
   5 H :    0.026685
   6 C :   -0.035200
   7 H :    0.025876
   8 H :    0.030113
   9 C :   -0.046358
  10 H :    0.032008
  11 H :    0.029283
  12 C :   -0.075643
  13 H :    0.031067
  14 H :    0.032710
  15 H :    0.026132
  16 S :    0.417166
  17 C :   -0.189294
  18 C :   -0.074033
  19 C :   -0.051245
  20 C :   -0.199524
  21 H :    0.031966
  22 C :   -0.025205
  23 H :    0.026321
  24 H :    0.028415
  25 C :   -0.033366
  26 H :    0.028152
  27 H :    0.029111
  28 C :   -0.077037
  29 H :    0.027927
  30 H :    0.027891
  31 H :    0.024227
  32 H :    0.030431
  33 H :    0.020616

  Mayer bond orders larger than 0.100000
B(  0-S ,  1-C ) :   1.1234 B(  0-S ,  4-C ) :   1.1432 B(  1-C ,  2-C ) :   1.6311
B(  1-C , 32-H ) :   0.9614 B(  2-C ,  3-C ) :   1.2166 B(  2-C ,  6-C ) :   1.0403
B(  3-C ,  4-C ) :   1.6006 B(  3-C ,  5-H ) :   0.9972 B(  4-C , 20-C ) :   1.0159
B(  6-C ,  7-H ) :   0.9380 B(  6-C ,  8-H ) :   0.9310 B(  6-C ,  9-C ) :   1.0452
B(  9-C , 10-H ) :   0.9591 B(  9-C , 11-H ) :   0.9651 B(  9-C , 12-C ) :   1.0504
B( 12-C , 13-H ) :   0.9785 B( 12-C , 14-H ) :   0.9772 B( 12-C , 15-H ) :   0.9797
B( 16-S , 17-C ) :   1.1737 B( 16-S , 20-C ) :   1.1388 B( 17-C , 18-C ) :   1.5986
B( 17-C , 33-H ) :   0.9726 B( 18-C , 19-C ) :   1.2351 B( 18-C , 21-H ) :   0.9876
B( 19-C , 20-C ) :   1.6210 B( 19-C , 22-C ) :   1.0216 B( 22-C , 23-H ) :   0.9336
B( 22-C , 24-H ) :   0.9304 B( 22-C , 25-C ) :   1.0552 B( 25-C , 26-H ) :   0.9452
B( 25-C , 27-H ) :   0.9545 B( 25-C , 28-C ) :   1.0976 B( 28-C , 29-H ) :   0.9684
B( 28-C , 30-H ) :   0.9694 B( 28-C , 31-H ) :   0.9742

Dispersion correction           -0.014173385
FINAL SINGLE POINT ENERGY     -1339.876238342523

DIPOLE MOMENT
-------------
                                X             Y             Z
Electronic contribution:      7.44774       1.79936     -29.11949
Nuclear contribution   :     -7.72206      -2.03569      29.78166
                        -----------------------------------------
Total Dipole Moment    :     -0.27433      -0.23633       0.66217
                        -----------------------------------------
Magnitude (a.u.)       :      0.75470
Magnitude (Debye)      :      1.91830

Rotational constants in cm-1:     0.017543     0.008330     0.006769
Rotational constants in MHz :   525.931237   249.741595   202.919053

                             ****ORCA TERMINATED NORMALLY****
TOTAL RUN TIME: 0 days 0 hours 0 minutes 20 seconds 307 msec
