                         Program Version 4.2.1 -  RELEASE  -
|  1> ! wB97X-D3 SP def2-SVP
|  2> %pal
|  3> nprocs 24
|  4> end
|  5>
|  6> * xyz 0 1
|  7> S 	 26.8418 	 -25.4973 	 -121.804
|  8> C 	 27.4766 	 -26.2538 	 -123.27
|  9> C 	 26.9825 	 -27.5457 	 -123.208
| 10> C 	 25.9887 	 -27.8288 	 -122.168
| 11> C 	 25.6343 	 -26.7451 	 -121.386
| 12> H 	 25.3807 	 -28.6627 	 -122.012
| 13> C 	 27.547 	 -28.6664 	 -124.146
| 14> H 	 28.2951 	 -28.1229 	 -124.78
| 15> H 	 26.6913 	 -29.0328 	 -124.752
| 16> C 	 28.3538 	 -29.8095 	 -123.577
| 17> H 	 29.2938 	 -29.3625 	 -123.363
| 18> H 	 27.8596 	 -30.1949 	 -122.696
| 19> C 	 28.7578 	 -31.0305 	 -124.421
| 20> H 	 29.0596 	 -30.8002 	 -125.401
| 21> H 	 29.5924 	 -31.5827 	 -123.947
| 22> H 	 27.949 	 -31.7074 	 -124.626
| 23> S 	 24.7193 	 -27.8828 	 -119.153
| 24> C 	 23.1676 	 -27.3286 	 -118.54
| 25> C 	 22.7479 	 -26.1658 	 -119.078
| 26> C 	 23.5469 	 -25.7654 	 -120.159
| 27> C 	 24.585 	 -26.6312 	 -120.394
| 28> H 	 21.821 	 -25.7438 	 -118.766
| 29> C 	 23.1541 	 -24.5462 	 -121.029
| 30> H 	 22.0896 	 -24.4305 	 -120.968
| 31> H 	 23.5083 	 -24.7196 	 -122.03
| 32> C 	 23.6017 	 -23.1245 	 -120.509
| 33> H 	 23.1373 	 -22.8743 	 -119.553
| 34> H 	 23.1999 	 -22.3216 	 -121.102
| 35> C 	 25.1053 	 -22.9029 	 -120.24
| 36> H 	 25.3163 	 -21.9117 	 -120.046
| 37> H 	 25.6783 	 -22.9443 	 -121.143
| 38> H 	 25.5342 	 -23.7141 	 -119.686
| 39> H 	 28.2293 	 -25.8506 	 -123.942
| 40> H 	 22.5286 	 -27.9402 	 -117.875
| 41> *
| 42>
| 43>                          ****END OF INPUT****

CARTESIAN COORDINATES (ANGSTROEM)
---------------------------------
  S     26.841800  -25.497300  -121.804000
  C     27.476600  -26.253800  -123.270000
  C     26.982500  -27.545700  -123.208000
  C     25.988700  -27.828800  -122.168000
  C     25.634300  -26.745100  -121.386000
  H     25.380700  -28.662700  -122.012000
  C     27.547000  -28.666400  -124.146000
  H     28.295100  -28.122900  -124.780000
  H     26.691300  -29.032800  -124.752000
  C     28.353800  -29.809500  -123.577000
  H     29.293800  -29.362500  -123.363000
  H     27.859600  -30.194900  -122.696000
  C     28.757800  -31.030500  -124.421000
  H     29.059600  -30.800200  -125.401000
  H     29.592400  -31.582700  -123.947000
  H     27.949000  -31.707400  -124.626000
  S     24.719300  -27.882800  -119.153000
  C     23.167600  -27.328600  -118.540000
  C     22.747900  -26.165800  -119.078000
  C     23.546900  -25.765400  -120.159000
  C     24.585000  -26.631200  -120.394000
  H     21.821000  -25.743800  -118.766000
  C     23.154100  -24.546200  -121.029000
  H     22.089600  -24.430500  -120.968000
  H     23.508300  -24.719600  -122.030000
  C     23.601700  -23.124500  -120.509000
  H     23.137300  -22.874300  -119.553000
  H     23.199900  -22.321600  -121.102000
  C     25.105300  -22.902900  -120.240000
  H     25.316300  -21.911700  -120.046000
  H     25.678300  -22.944300  -121.143000
  H     25.534200  -23.714100  -119.686000
  H     28.229300  -25.850600  -123.942000
  H     22.528600  -27.940200  -117.875000

 Total Charge           Charge          ....    0
 Multiplicity           Mult            ....    1
 Number of Electrons    NEL             ....  134
 Basis Dimension        Dim             ....  322

ORBITAL ENERGIES
----------------

  NO   OCC          E(Eh)            E(eV)
   0   2.0000     -88.968697     -2420.9613
   1   2.0000     -88.958478     -2420.6833
   2   2.0000     -10.334668      -281.2206
   3   2.0000     -10.330369      -281.1036
   4   2.0000     -10.321955      -280.8747
   5   2.0000     -10.319353      -280.8039
   6   2.0000     -10.311242      -280.5832
   7   2.0000     -10.308416      -280.5062
   8   2.0000     -10.295713      -280.1606
   9   2.0000     -10.295118      -280.1444
  10   2.0000     -10.294532      -280.1285
  11   2.0000     -10.290794      -280.0267
  12   2.0000     -10.283675      -279.8330
  13   2.0000     -10.279698      -279.7248
  14   2.0000     -10.274115      -279.5729
  15   2.0000     -10.255556      -279.0679
  16   2.0000      -8.083313      -219.9581
  17   2.0000      -8.072318      -219.6589
  18   2.0000      -6.041759      -164.4046
  19   2.0000      -6.037996      -164.3022
  20   2.0000      -6.033963      -164.1925
  21   2.0000      -6.030992      -164.1116
  22   2.0000      -6.026853      -163.9990
  23   2.0000      -6.022943      -163.8926
  24   2.0000      -1.010253       -27.4904
  25   2.0000      -0.983996       -26.7759
  26   2.0000      -0.906993       -24.6805
  27   2.0000      -0.900432       -24.5020
  28   2.0000      -0.878612       -23.9082
  29   2.0000      -0.850224       -23.1358
  30   2.0000      -0.837437       -22.7878
  31   2.0000      -0.821181       -22.3455
  32   2.0000      -0.787975       -21.4419
  33   2.0000      -0.772626       -21.0242
  34   2.0000      -0.712897       -19.3989
  35   2.0000      -0.697411       -18.9775
  36   2.0000      -0.690468       -18.7886
  37   2.0000      -0.670276       -18.2391
  38   2.0000      -0.643823       -17.5193
  39   2.0000      -0.613578       -16.6963
  40   2.0000      -0.593633       -16.1536
  41   2.0000      -0.569336       -15.4924
  42   2.0000      -0.565989       -15.4014
  43   2.0000      -0.554281       -15.0827
  44   2.0000      -0.544870       -14.8267
  45   2.0000      -0.524927       -14.2840
  46   2.0000      -0.518444       -14.1076
  47   2.0000      -0.512837       -13.9550
  48   2.0000      -0.506667       -13.7871
  49   2.0000      -0.501601       -13.6492
  50   2.0000      -0.497059       -13.5257
  51   2.0000      -0.484722       -13.1899
  52   2.0000      -0.468193       -12.7402
  53   2.0000      -0.462476       -12.5846
  54   2.0000      -0.456471       -12.4212
  55   2.0000      -0.454896       -12.3783
  56   2.0000      -0.447550       -12.1785
  57   2.0000      -0.433142       -11.7864
  58   2.0000      -0.427426       -11.6308
  59   2.0000      -0.419562       -11.4169
  60   2.0000      -0.414980       -11.2922
  61   2.0000      -0.404169       -10.9980
  62   2.0000      -0.395323       -10.7573
  63   2.0000      -0.344587        -9.3767
  64   2.0000      -0.339226        -9.2308
  65   2.0000      -0.317439        -8.6379
  66   2.0000      -0.302800        -8.2396
  67   0.0000       0.021035         0.5724
  68   0.0000       0.072402         1.9702
  69   0.0000       0.097325         2.6484
  70   0.0000       0.120821         3.2877
  71   0.0000       0.124063         3.3759

MULLIKEN ATOMIC CHARGES
-----------------------
   0 S :    0.076190
   1 C :   -0.106753
   2 C :   -0.097870
   3 C :    0.059807
   4 C :   -0.133851
   5 H :   -0.008316
   6 C :    0.041838
   7 H :    0.012727
   8 H :    0.037742
   9 C :   -0.049564
  10 H :    0.018637
  11 H :    0.028958
  12 C :   -0.035823
  13 H :    0.007214
  14 H :    0.042891
  15 H :    0.021499
  16 S :    0.109306
  17 C :   -0.095971
  18 C :   -0.020679
  19 C :   -0.010289
  20 C :   -0.198003
  21 H :    0.009945
  22 C :    0.102349
  23 H :    0.017908
  24 H :    0.037955
  25 C :   -0.085370
  26 H :    0.015444
  27 H :    0.020939
  28 C :    0.002418
  29 H :    0.007867
  30 H :    0.003661
  31 H :    0.037643
  32 H :    0.064972
  33 H :    0.064581
Sum of atomic charges:    0.0000000

LOEWDIN ATOMIC CHARGES
----------------------
   0 S :    0.389479
   1 C :   -0.188633
   2 C :   -0.062109
   3 C :   -0.064693
   4 C :   -0.183614
   5 H :    0.018847
   6 C :   -0.036365
   7 H :    0.029238
   8 H :    0.028675
   9 C :   -0.042667
  10 H :    0.023148
  11 H :    0.022443
  12 C :   -0.061591
  13 H :    0.015625
  14 H :    0.035088
  15 H :    0.020914
  16 S :    0.399806
  17 C :   -0.173141
  18 C :   -0.067039
  19 C :   -0.046557
  20 C :   -0.192460
  21 H :    0.031656
  22 C :   -0.017572
  23 H :    0.030652
  24 H :    0.030515
  25 C :   -0.038202
  26 H :    0.020416
  27 H :    0.022212
  28 C :   -0.071505
  29 H :    0.019154
  30 H :    0.014461
  31 H :    0.021672
  32 H :    0.038199
  33 H :    0.033948

  Mayer bond orders larger than 0.100000
B(  0-S ,  1-C ) :   1.1242 B(  0-S ,  4-C ) :   1.1247 B(  1-C ,  2-C ) :   1.6172
B(  1-C , 32-H ) :   0.9731 B(  2-C ,  3-C ) :   1.2014 B(  2-C ,  6-C ) :   1.0217
B(  3-C ,  4-C ) :   1.5853 B(  3-C ,  5-H ) :   1.0015 B(  4-C , 20-C ) :   1.0553
B(  6-C ,  7-H ) :   0.9470 B(  6-C ,  8-H ) :   0.9434 B(  6-C ,  9-C ) :   1.0637
B(  9-C , 10-H ) :   0.9583 B(  9-C , 11-H ) :   0.9572 B(  9-C , 12-C ) :   1.0841
B( 12-C , 13-H ) :   0.9726 B( 12-C , 14-H ) :   0.9758 B( 12-C , 15-H ) :   0.9728
B( 16-S , 17-C ) :   1.1426 B( 16-S , 20-C ) :   1.1340 B( 17-C , 18-C ) :   1.6400
B( 17-C , 33-H ) :   0.9602 B( 18-C , 19-C ) :   1.2172 B( 18-C , 21-H ) :   0.9941
B( 19-C , 20-C ) :   1.6062 B( 19-C , 22-C ) :   1.0434 B( 22-C , 23-H ) :   0.9330
B( 22-C , 24-H ) :   0.9398 B( 22-C , 25-C ) :   1.0639 B( 25-C , 26-H ) :   0.9562
B( 25-C , 27-H ) :   0.9559 B( 25-C , 28-C ) :   1.0846 B( 28-C , 29-H ) :   0.9638
B( 28-C , 30-H ) :   0.9609 B( 28-C , 31-H ) :   0.9741

Dispersion correction           -0.014501435
FINAL SINGLE POINT ENERGY     -1339.841212517818

DIPOLE MOMENT
-------------
                                X             Y             Z
Electronic contribution:     -4.70612       0.63064      11.73091
Nuclear contribution   :      4.42360      -0.75020     -11.98563
                        -----------------------------------------
Total Dipole Moment    :     -0.28252      -0.11956      -0.25472
                        -----------------------------------------
Magnitude (a.u.)       :      0.39874
Magnitude (Debye)      :      1.01352

Rotational constants in cm-1:     0.022952     0.007778     0.006254
Rotational constants in MHz :   688.072553   233.179494   187.494209

                             ****ORCA TERMINATED NORMALLY****
TOTAL RUN TIME: 0 days 0 hours 0 minutes 20 seconds 91 msec
