                         Program Version 4.2.1 -  RELEASE  -
|  1> ! wB97X-D3 SP def2-SVP
|  2> %pal
|  3> nprocs 24
|  4> end
|  5>
|  6> * xyz 0 1
|  7> S 	 42.0651 	 -17.994 	 -111.377
|  8> C 	 40.6844 	 -17.3456 	 -112.143
|  9> C 	 40.5417 	 -15.9834 	 -111.872
| 10> C 	 41.5778 	 -15.4951 	 -110.995
| 11> C 	 42.4899 	 -16.4761 	 -110.597
| 12> H 	 41.7751 	 -14.4809 	 -110.546
| 13> C 	 39.3315 	 -15.1566 	 -112.391
| 14> H 	 39.548 	 -14.2611 	 -111.958
| 15> H 	 38.3685 	 -15.4206 	 -111.961
| 16> C 	 39.0753 	 -14.9774 	 -113.915
| 17> H 	 40.0968 	 -14.6759 	 -114.296
| 18> H 	 38.8917 	 -15.989 	 -114.347
| 19> C 	 38.0476 	 -13.9894 	 -114.397
| 20> H 	 38.2262 	 -13.6705 	 -115.406
| 21> H 	 37.0519 	 -14.447 	 -114.197
| 22> H 	 38.0269 	 -13.0209 	 -113.897
| 23> S 	 45.238 	 -16.6065 	 -110.125
| 24> C 	 45.7966 	 -16.5835 	 -108.466
| 25> C 	 44.7467 	 -16.2562 	 -107.614
| 26> C 	 43.5153 	 -16.0157 	 -108.278
| 27> C 	 43.5806 	 -16.4093 	 -109.6
| 28> H 	 44.9798 	 -16.244 	 -106.539
| 29> C 	 42.2389 	 -15.8185 	 -107.445
| 30> H 	 41.5527 	 -15.2449 	 -108.071
| 31> H 	 42.5155 	 -15.106 	 -106.715
| 32> C 	 41.4693 	 -17.0498 	 -107.135
| 33> H 	 42.1761 	 -17.6798 	 -106.531
| 34> H 	 41.1231 	 -17.5901 	 -108.016
| 35> C 	 40.2958 	 -16.8025 	 -106.222
| 36> H 	 39.7844 	 -17.7044 	 -106.037
| 37> H 	 39.6705 	 -15.9794 	 -106.486
| 38> H 	 40.765 	 -16.6642 	 -105.239
| 39> H 	 39.8472 	 -17.8689 	 -112.649
| 40> H 	 46.7167 	 -17.0747 	 -108.086
| 41> *
| 42>
| 43>                          ****END OF INPUT****

CARTESIAN COORDINATES (ANGSTROEM)
---------------------------------
  S     42.065100  -17.994000  -111.377000
  C     40.684400  -17.345600  -112.143000
  C     40.541700  -15.983400  -111.872000
  C     41.577800  -15.495100  -110.995000
  C     42.489900  -16.476100  -110.597000
  H     41.775100  -14.480900  -110.546000
  C     39.331500  -15.156600  -112.391000
  H     39.548000  -14.261100  -111.958000
  H     38.368500  -15.420600  -111.961000
  C     39.075300  -14.977400  -113.915000
  H     40.096800  -14.675900  -114.296000
  H     38.891700  -15.989000  -114.347000
  C     38.047600  -13.989400  -114.397000
  H     38.226200  -13.670500  -115.406000
  H     37.051900  -14.447000  -114.197000
  H     38.026900  -13.020900  -113.897000
  S     45.238000  -16.606500  -110.125000
  C     45.796600  -16.583500  -108.466000
  C     44.746700  -16.256200  -107.614000
  C     43.515300  -16.015700  -108.278000
  C     43.580600  -16.409300  -109.600000
  H     44.979800  -16.244000  -106.539000
  C     42.238900  -15.818500  -107.445000
  H     41.552700  -15.244900  -108.071000
  H     42.515500  -15.106000  -106.715000
  C     41.469300  -17.049800  -107.135000
  H     42.176100  -17.679800  -106.531000
  H     41.123100  -17.590100  -108.016000
  C     40.295800  -16.802500  -106.222000
  H     39.784400  -17.704400  -106.037000
  H     39.670500  -15.979400  -106.486000
  H     40.765000  -16.664200  -105.239000
  H     39.847200  -17.868900  -112.649000
  H     46.716700  -17.074700  -108.086000

 Total Charge           Charge          ....    0
 Multiplicity           Mult            ....    1
 Number of Electrons    NEL             ....  134
 Basis Dimension        Dim             ....  322

ORBITAL ENERGIES
----------------

  NO   OCC          E(Eh)            E(eV)
   0   2.0000     -88.969105     -2420.9724
   1   2.0000     -88.965033     -2420.8616
   2   2.0000     -10.332263      -281.1552
   3   2.0000     -10.328469      -281.0519
   4   2.0000     -10.316842      -280.7355
   5   2.0000     -10.316813      -280.7348
   6   2.0000     -10.308786      -280.5163
   7   2.0000     -10.305648      -280.4309
   8   2.0000     -10.302124      -280.3350
   9   2.0000     -10.295355      -280.1509
  10   2.0000     -10.292726      -280.0793
  11   2.0000     -10.287359      -279.9333
  12   2.0000     -10.284187      -279.8469
  13   2.0000     -10.282130      -279.7910
  14   2.0000     -10.281343      -279.7696
  15   2.0000     -10.268077      -279.4086
  16   2.0000      -8.084041      -219.9779
  17   2.0000      -8.079812      -219.8629
  18   2.0000      -6.042424      -164.4227
  19   2.0000      -6.038341      -164.3116
  20   2.0000      -6.038262      -164.3095
  21   2.0000      -6.035158      -164.2250
  22   2.0000      -6.034320      -164.2022
  23   2.0000      -6.030540      -164.0993
  24   2.0000      -1.006738       -27.3947
  25   2.0000      -0.986134       -26.8341
  26   2.0000      -0.916290       -24.9335
  27   2.0000      -0.906939       -24.6791
  28   2.0000      -0.867283       -23.6000
  29   2.0000      -0.854287       -23.2463
  30   2.0000      -0.849418       -23.1138
  31   2.0000      -0.814446       -22.1622
  32   2.0000      -0.786506       -21.4019
  33   2.0000      -0.774276       -21.0691
  34   2.0000      -0.703261       -19.1367
  35   2.0000      -0.700061       -19.0496
  36   2.0000      -0.688632       -18.7386
  37   2.0000      -0.658299       -17.9132
  38   2.0000      -0.640803       -17.4371
  39   2.0000      -0.612286       -16.6611
  40   2.0000      -0.593550       -16.1513
  41   2.0000      -0.570227       -15.5167
  42   2.0000      -0.567481       -15.4420
  43   2.0000      -0.562284       -15.3005
  44   2.0000      -0.534410       -14.5420
  45   2.0000      -0.522264       -14.2115
  46   2.0000      -0.518516       -14.1095
  47   2.0000      -0.513354       -13.9691
  48   2.0000      -0.504253       -13.7214
  49   2.0000      -0.499463       -13.5911
  50   2.0000      -0.498702       -13.5704
  51   2.0000      -0.482545       -13.1307
  52   2.0000      -0.473919       -12.8960
  53   2.0000      -0.468479       -12.7479
  54   2.0000      -0.460789       -12.5387
  55   2.0000      -0.449497       -12.2314
  56   2.0000      -0.441128       -12.0037
  57   2.0000      -0.433109       -11.7855
  58   2.0000      -0.427404       -11.6303
  59   2.0000      -0.418450       -11.3866
  60   2.0000      -0.416394       -11.3307
  61   2.0000      -0.410979       -11.1833
  62   2.0000      -0.407203       -11.0805
  63   2.0000      -0.340930        -9.2772
  64   2.0000      -0.332518        -9.0483
  65   2.0000      -0.330115        -8.9829
  66   2.0000      -0.299240        -8.1427
  67   0.0000       0.029110         0.7921
  68   0.0000       0.060516         1.6467
  69   0.0000       0.116893         3.1808
  70   0.0000       0.124214         3.3800
  71   0.0000       0.131190         3.5699

MULLIKEN ATOMIC CHARGES
-----------------------
   0 S :    0.128206
   1 C :   -0.110331
   2 C :   -0.134501
   3 C :    0.043244
   4 C :   -0.202130
   5 H :    0.040747
   6 C :    0.123655
   7 H :   -0.020171
   8 H :    0.025301
   9 C :   -0.108577
  10 H :    0.030449
  11 H :    0.032422
  12 C :   -0.033029
  13 H :    0.039368
  14 H :    0.037840
  15 H :    0.022972
  16 S :    0.113002
  17 C :   -0.109602
  18 C :   -0.063495
  19 C :   -0.018270
  20 C :   -0.173640
  21 H :    0.030848
  22 C :    0.093403
  23 H :   -0.004287
  24 H :    0.013062
  25 C :   -0.067804
  26 H :    0.020523
  27 H :    0.041393
  28 C :   -0.000283
  29 H :    0.019392
  30 H :    0.032996
  31 H :    0.014704
  32 H :    0.067187
  33 H :    0.075408
Sum of atomic charges:    0.0000000

LOEWDIN ATOMIC CHARGES
----------------------
   0 S :    0.431075
   1 C :   -0.214683
   2 C :   -0.066402
   3 C :   -0.067384
   4 C :   -0.202542
   5 H :    0.044299
   6 C :   -0.029702
   7 H :    0.013861
   8 H :    0.027890
   9 C :   -0.047923
  10 H :    0.027322
  11 H :    0.023955
  12 C :   -0.069132
  13 H :    0.030655
  14 H :    0.031088
  15 H :    0.026169
  16 S :    0.405962
  17 C :   -0.200983
  18 C :   -0.071230
  19 C :   -0.056605
  20 C :   -0.200937
  21 H :    0.036162
  22 C :   -0.032670
  23 H :    0.026993
  24 H :    0.025938
  25 C :   -0.037962
  26 H :    0.026160
  27 H :    0.027122
  28 C :   -0.059071
  29 H :    0.022490
  30 H :    0.020146
  31 H :    0.028576
  32 H :    0.041766
  33 H :    0.039597

  Mayer bond orders larger than 0.100000
B(  0-S ,  1-C ) :   1.1651 B(  0-S ,  4-C ) :   1.1617 B(  1-C ,  2-C ) :   1.5888
B(  1-C , 32-H ) :   0.9640 B(  2-C ,  3-C ) :   1.2551 B(  2-C ,  6-C ) :   1.0104
B(  3-C ,  4-C ) :   1.5779 B(  3-C ,  5-H ) :   0.9796 B(  4-C , 20-C ) :   1.0092
B(  6-C ,  7-H ) :   0.9299 B(  6-C ,  8-H ) :   0.9400 B(  6-C ,  9-C ) :   1.0564
B(  9-C , 10-H ) :   0.9578 B(  9-C , 11-H ) :   0.9561 B(  9-C , 12-C ) :   1.0853
B( 12-C , 13-H ) :   0.9727 B( 12-C , 14-H ) :   0.9730 B( 12-C , 15-H ) :   0.9724
B( 16-S , 17-C ) :   1.1470 B( 16-S , 20-C ) :   1.1607 B( 17-C , 18-C ) :   1.6255
B( 17-C , 20-C ) :   0.1050 B( 17-C , 33-H ) :   0.9583 B( 18-C , 19-C ) :   1.2277
B( 18-C , 21-H ) :   0.9855 B( 19-C , 20-C ) :   1.5807 B( 19-C , 22-C ) :   1.0591
B( 22-C , 23-H ) :   0.9143 B( 22-C , 24-H ) :   0.9337 B( 22-C , 25-C ) :   1.0678
B( 25-C , 26-H ) :   0.9578 B( 25-C , 27-H ) :   0.9495 B( 25-C , 28-C ) :   1.0865
B( 28-C , 29-H ) :   0.9684 B( 28-C , 30-H ) :   0.9750 B( 28-C , 31-H ) :   0.9740

Dispersion correction           -0.014178356
FINAL SINGLE POINT ENERGY     -1339.856741327858

DIPOLE MOMENT
-------------
                                X             Y             Z
Electronic contribution:     24.60223     -10.01134      -2.95958
Nuclear contribution   :    -25.15218      10.21386       3.29295
                        -----------------------------------------
Total Dipole Moment    :     -0.54995       0.20252       0.33338
                        -----------------------------------------
Magnitude (a.u.)       :      0.67424
Magnitude (Debye)      :      1.71378

Rotational constants in cm-1:     0.020138     0.007499     0.006327
Rotational constants in MHz :   603.720517   224.827803   189.677301

                             ****ORCA TERMINATED NORMALLY****
TOTAL RUN TIME: 0 days 0 hours 0 minutes 21 seconds 94 msec
