                         Program Version 4.2.1 -  RELEASE  -
|  1> ! wB97X-D3 SP def2-SVP
|  2> %pal
|  3> nprocs 24
|  4> end
|  5>
|  6> * xyz 0 1
|  7> S 	 -87.053 	 -49.4692 	 -71.5128
|  8> C 	 -85.7173 	 -50.6474 	 -71.5564
|  9> C 	 -85.6019 	 -51.1576 	 -72.8163
| 10> C 	 -86.5917 	 -50.6872 	 -73.7274
| 11> C 	 -87.3245 	 -49.6503 	 -73.2136
| 12> H 	 -86.7012 	 -50.958 	 -74.8209
| 13> C 	 -84.5014 	 -52.2084 	 -73.216
| 14> H 	 -85.0183 	 -52.9769 	 -73.8783
| 15> H 	 -84.1973 	 -52.5931 	 -72.2286
| 16> C 	 -83.3589 	 -51.6257 	 -73.9813
| 17> H 	 -82.6212 	 -52.3953 	 -74.1906
| 18> H 	 -83.6909 	 -51.2006 	 -74.9724
| 19> C 	 -82.6247 	 -50.63 	 -73.1428
| 20> H 	 -81.9724 	 -50.9633 	 -72.3288
| 21> H 	 -82.0465 	 -50.0052 	 -73.8126
| 22> H 	 -83.3534 	 -50.0434 	 -72.6896
| 23> S 	 -88.6305 	 -47.281 	 -73.4034
| 24> C 	 -89.9898 	 -47.0931 	 -74.447
| 25> C 	 -90.2803 	 -48.3066 	 -75.1388
| 26> C 	 -89.4054 	 -49.344 	 -74.7815
| 27> C 	 -88.3951 	 -48.9599 	 -73.8705
| 28> H 	 -91.0718 	 -48.403 	 -75.907
| 29> C 	 -89.4613 	 -50.6462 	 -75.4889
| 30> H 	 -90.5349 	 -50.8393 	 -75.7518
| 31> H 	 -89.2173 	 -51.4029 	 -74.6977
| 32> C 	 -88.5188 	 -50.8551 	 -76.6857
| 33> H 	 -88.1867 	 -51.9502 	 -76.7325
| 34> H 	 -87.5802 	 -50.2982 	 -76.6414
| 35> C 	 -89.0651 	 -50.6383 	 -78.0864
| 36> H 	 -89.3493 	 -49.5411 	 -78.2458
| 37> H 	 -89.9528 	 -51.2456 	 -78.2229
| 38> H 	 -88.3468 	 -50.8397 	 -78.8618
| 39> H 	 -85.0832 	 -50.9068 	 -70.6946
| 40> H 	 -90.5751 	 -46.2067 	 -74.3989
| 41> *
| 42>
| 43>                          ****END OF INPUT****

CARTESIAN COORDINATES (ANGSTROEM)
---------------------------------
  S    -87.053000  -49.469200  -71.512800
  C    -85.717300  -50.647400  -71.556400
  C    -85.601900  -51.157600  -72.816300
  C    -86.591700  -50.687200  -73.727400
  C    -87.324500  -49.650300  -73.213600
  H    -86.701200  -50.958000  -74.820900
  C    -84.501400  -52.208400  -73.216000
  H    -85.018300  -52.976900  -73.878300
  H    -84.197300  -52.593100  -72.228600
  C    -83.358900  -51.625700  -73.981300
  H    -82.621200  -52.395300  -74.190600
  H    -83.690900  -51.200600  -74.972400
  C    -82.624700  -50.630000  -73.142800
  H    -81.972400  -50.963300  -72.328800
  H    -82.046500  -50.005200  -73.812600
  H    -83.353400  -50.043400  -72.689600
  S    -88.630500  -47.281000  -73.403400
  C    -89.989800  -47.093100  -74.447000
  C    -90.280300  -48.306600  -75.138800
  C    -89.405400  -49.344000  -74.781500
  C    -88.395100  -48.959900  -73.870500
  H    -91.071800  -48.403000  -75.907000
  C    -89.461300  -50.646200  -75.488900
  H    -90.534900  -50.839300  -75.751800
  H    -89.217300  -51.402900  -74.697700
  C    -88.518800  -50.855100  -76.685700
  H    -88.186700  -51.950200  -76.732500
  H    -87.580200  -50.298200  -76.641400
  C    -89.065100  -50.638300  -78.086400
  H    -89.349300  -49.541100  -78.245800
  H    -89.952800  -51.245600  -78.222900
  H    -88.346800  -50.839700  -78.861800
  H    -85.083200  -50.906800  -70.694600
  H    -90.575100  -46.206700  -74.398900

 Total Charge           Charge          ....    0
 Multiplicity           Mult            ....    1
 Number of Electrons    NEL             ....  134
 Basis Dimension        Dim             ....  322

ORBITAL ENERGIES
----------------

  NO   OCC          E(Eh)            E(eV)
   0   2.0000     -88.968615     -2420.9591
   1   2.0000     -88.965559     -2420.8759
   2   2.0000     -10.327414      -281.0232
   3   2.0000     -10.327130      -281.0155
   4   2.0000     -10.319736      -280.8143
   5   2.0000     -10.316333      -280.7217
   6   2.0000     -10.302899      -280.3561
   7   2.0000     -10.301844      -280.3274
   8   2.0000     -10.300155      -280.2815
   9   2.0000     -10.298265      -280.2300
  10   2.0000     -10.297770      -280.2166
  11   2.0000     -10.295425      -280.1528
  12   2.0000     -10.295053      -280.1426
  13   2.0000     -10.283464      -279.8273
  14   2.0000     -10.281777      -279.7814
  15   2.0000     -10.262086      -279.2455
  16   2.0000      -8.083538      -219.9643
  17   2.0000      -8.080277      -219.8755
  18   2.0000      -6.041780      -164.4052
  19   2.0000      -6.038895      -164.3267
  20   2.0000      -6.037807      -164.2971
  21   2.0000      -6.034829      -164.2161
  22   2.0000      -6.034799      -164.2152
  23   2.0000      -6.030860      -164.1081
  24   2.0000      -1.010772       -27.5045
  25   2.0000      -0.985202       -26.8087
  26   2.0000      -0.918616       -24.9968
  27   2.0000      -0.912230       -24.8231
  28   2.0000      -0.871501       -23.7147
  29   2.0000      -0.858142       -23.3512
  30   2.0000      -0.842902       -22.9365
  31   2.0000      -0.810610       -22.0578
  32   2.0000      -0.784383       -21.3441
  33   2.0000      -0.774005       -21.0617
  34   2.0000      -0.708495       -19.2791
  35   2.0000      -0.695358       -18.9216
  36   2.0000      -0.689956       -18.7746
  37   2.0000      -0.666304       -18.1310
  38   2.0000      -0.636650       -17.3241
  39   2.0000      -0.615277       -16.7425
  40   2.0000      -0.596752       -16.2385
  41   2.0000      -0.565890       -15.3986
  42   2.0000      -0.554220       -15.0811
  43   2.0000      -0.551425       -15.0050
  44   2.0000      -0.544938       -14.8285
  45   2.0000      -0.544027       -14.8037
  46   2.0000      -0.526541       -14.3279
  47   2.0000      -0.508508       -13.8372
  48   2.0000      -0.507278       -13.8037
  49   2.0000      -0.503307       -13.6957
  50   2.0000      -0.489919       -13.3314
  51   2.0000      -0.476806       -12.9745
  52   2.0000      -0.473313       -12.8795
  53   2.0000      -0.466122       -12.6838
  54   2.0000      -0.455273       -12.3886
  55   2.0000      -0.447247       -12.1702
  56   2.0000      -0.446740       -12.1564
  57   2.0000      -0.438829       -11.9411
  58   2.0000      -0.432909       -11.7801
  59   2.0000      -0.429867       -11.6973
  60   2.0000      -0.420750       -11.4492
  61   2.0000      -0.406493       -11.0612
  62   2.0000      -0.401254       -10.9187
  63   2.0000      -0.352672        -9.5967
  64   2.0000      -0.335503        -9.1295
  65   2.0000      -0.332624        -9.0511
  66   2.0000      -0.286076        -7.7845
  67   0.0000       0.021256         0.5784
  68   0.0000       0.073118         1.9896
  69   0.0000       0.107509         2.9255
  70   0.0000       0.119886         3.2623
  71   0.0000       0.128416         3.4944

MULLIKEN ATOMIC CHARGES
-----------------------
   0 S :    0.102102
   1 C :   -0.137629
   2 C :   -0.098588
   3 C :   -0.030207
   4 C :   -0.091474
   5 H :    0.022362
   6 C :    0.058727
   7 H :    0.041047
   8 H :    0.020088
   9 C :   -0.056343
  10 H :    0.030755
  11 H :    0.038224
  12 C :   -0.032320
  13 H :    0.029840
  14 H :    0.024217
  15 H :    0.015262
  16 S :    0.110929
  17 C :   -0.094377
  18 C :   -0.039900
  19 C :   -0.033856
  20 C :   -0.171282
  21 H :    0.030469
  22 C :    0.043546
  23 H :    0.030028
  24 H :    0.042658
  25 C :   -0.112307
  26 H :    0.037400
  27 H :    0.050342
  28 C :   -0.044701
  29 H :    0.034441
  30 H :    0.029642
  31 H :    0.035063
  32 H :    0.058924
  33 H :    0.056919
Sum of atomic charges:    0.0000000

LOEWDIN ATOMIC CHARGES
----------------------
   0 S :    0.395618
   1 C :   -0.196445
   2 C :   -0.064760
   3 C :   -0.079260
   4 C :   -0.195444
   5 H :    0.042827
   6 C :   -0.028199
   7 H :    0.037246
   8 H :    0.029263
   9 C :   -0.047707
  10 H :    0.025739
  11 H :    0.031300
  12 C :   -0.064968
  13 H :    0.026862
  14 H :    0.026844
  15 H :    0.014745
  16 S :    0.427833
  17 C :   -0.191449
  18 C :   -0.073004
  19 C :   -0.060285
  20 C :   -0.199663
  21 H :    0.036996
  22 C :   -0.041621
  23 H :    0.036555
  24 H :    0.042112
  25 C :   -0.053498
  26 H :    0.032419
  27 H :    0.024986
  28 C :   -0.067303
  29 H :    0.029141
  30 H :    0.021176
  31 H :    0.025342
  32 H :    0.034606
  33 H :    0.021995

  Mayer bond orders larger than 0.100000
B(  0-S ,  1-C ) :   1.1125 B(  0-S ,  4-C ) :   1.1498 B(  1-C ,  2-C ) :   1.6282
B(  1-C , 32-H ) :   0.9648 B(  2-C ,  3-C ) :   1.2249 B(  2-C ,  6-C ) :   1.0079
B(  3-C ,  4-C ) :   1.5744 B(  3-C ,  5-H ) :   0.9852 B(  4-C , 20-C ) :   1.0770
B(  6-C ,  7-H ) :   0.9419 B(  6-C ,  8-H ) :   0.9401 B(  6-C ,  9-C ) :   1.0820
B(  9-C , 10-H ) :   0.9513 B(  9-C , 11-H ) :   0.9533 B(  9-C , 12-C ) :   1.0716
B( 12-C , 13-H ) :   0.9729 B( 12-C , 14-H ) :   0.9678 B( 12-C , 15-H ) :   0.9768
B( 16-S , 17-C ) :   1.1972 B( 16-S , 20-C ) :   1.1553 B( 17-C , 18-C ) :   1.5178
B( 17-C , 20-C ) :   0.1172 B( 17-C , 33-H ) :   0.9747 B( 18-C , 19-C ) :   1.3116
B( 18-C , 21-H ) :   0.9860 B( 19-C , 20-C ) :   1.5097 B( 19-C , 22-C ) :   1.0656
B( 22-C , 23-H ) :   0.9363 B( 22-C , 24-H ) :   0.9246 B( 22-C , 25-C ) :   1.0414
B( 25-C , 26-H ) :   0.9539 B( 25-C , 27-H ) :   0.9488 B( 25-C , 28-C ) :   1.0899
B( 28-C , 29-H ) :   0.9714 B( 28-C , 30-H ) :   0.9744 B( 28-C , 31-H ) :   0.9718

Dispersion correction           -0.014753854
FINAL SINGLE POINT ENERGY     -1339.881125309238

DIPOLE MOMENT
-------------
                                X             Y             Z
Electronic contribution:    -11.55947      15.85292      17.77644
Nuclear contribution   :     11.62378     -16.23341     -18.24532
                        -----------------------------------------
Total Dipole Moment    :      0.06431      -0.38049      -0.46889
                        -----------------------------------------
Magnitude (a.u.)       :      0.60726
Magnitude (Debye)      :      1.54353

Rotational constants in cm-1:     0.018934     0.009264     0.006968
Rotational constants in MHz :   567.614689   277.740805   208.898529

                             ****ORCA TERMINATED NORMALLY****
TOTAL RUN TIME: 0 days 0 hours 0 minutes 21 seconds 68 msec
