                         Program Version 4.2.1 -  RELEASE  -
|  1> ! wB97X-D3 SP def2-SVP
|  2> %pal
|  3> nprocs 24
|  4> end
|  5>
|  6> * xyz 0 1
|  7> S 	 31.7264 	 -31.3615 	 -107.8
|  8> C 	 32.6745 	 -31.8051 	 -106.402
|  9> C 	 34.0355 	 -31.8731 	 -106.686
| 10> C 	 34.1823 	 -31.6548 	 -108.11
| 11> C 	 33.0415 	 -31.475 	 -108.891
| 12> H 	 35.1722 	 -31.8462 	 -108.534
| 13> C 	 35.043 	 -31.9729 	 -105.616
| 14> H 	 35.8117 	 -32.6224 	 -105.981
| 15> H 	 34.5885 	 -32.5231 	 -104.767
| 16> C 	 35.5611 	 -30.6695 	 -105.039
| 17> H 	 34.824 	 -30.0354 	 -104.407
| 18> H 	 36.4199 	 -30.7224 	 -104.396
| 19> C 	 36.1246 	 -29.7465 	 -106.187
| 20> H 	 35.3883 	 -29.3374 	 -106.84
| 21> H 	 36.5908 	 -28.8545 	 -105.706
| 22> H 	 36.9838 	 -30.2081 	 -106.75
| 23> S 	 32.8539 	 -29.6699 	 -110.822
| 24> C 	 32.5518 	 -30.021 	 -112.479
| 25> C 	 32.5167 	 -31.4195 	 -112.591
| 26> C 	 32.8485 	 -32.1476 	 -111.419
| 27> C 	 32.9381 	 -31.3039 	 -110.335
| 28> H 	 32.2144 	 -31.9652 	 -113.508
| 29> C 	 32.9658 	 -33.6946 	 -111.36
| 30> H 	 31.9495 	 -34.0995 	 -111.272
| 31> H 	 33.3856 	 -33.9386 	 -110.39
| 32> C 	 33.727 	 -34.4094 	 -112.488
| 33> H 	 34.7744 	 -34.3432 	 -112.333
| 34> H 	 33.6293 	 -33.831 	 -113.402
| 35> C 	 33.2151 	 -35.8156 	 -112.83
| 36> H 	 33.2989 	 -36.3086 	 -111.868
| 37> H 	 33.6957 	 -36.329 	 -113.674
| 38> H 	 32.189 	 -35.8217 	 -113.058
| 39> H 	 32.3134 	 -31.9505 	 -105.407
| 40> H 	 32.32 	 -29.3402 	 -113.193
| 41> *
| 42>
| 43>                          ****END OF INPUT****

CARTESIAN COORDINATES (ANGSTROEM)
---------------------------------
  S     31.726400  -31.361500  -107.800000
  C     32.674500  -31.805100  -106.402000
  C     34.035500  -31.873100  -106.686000
  C     34.182300  -31.654800  -108.110000
  C     33.041500  -31.475000  -108.891000
  H     35.172200  -31.846200  -108.534000
  C     35.043000  -31.972900  -105.616000
  H     35.811700  -32.622400  -105.981000
  H     34.588500  -32.523100  -104.767000
  C     35.561100  -30.669500  -105.039000
  H     34.824000  -30.035400  -104.407000
  H     36.419900  -30.722400  -104.396000
  C     36.124600  -29.746500  -106.187000
  H     35.388300  -29.337400  -106.840000
  H     36.590800  -28.854500  -105.706000
  H     36.983800  -30.208100  -106.750000
  S     32.853900  -29.669900  -110.822000
  C     32.551800  -30.021000  -112.479000
  C     32.516700  -31.419500  -112.591000
  C     32.848500  -32.147600  -111.419000
  C     32.938100  -31.303900  -110.335000
  H     32.214400  -31.965200  -113.508000
  C     32.965800  -33.694600  -111.360000
  H     31.949500  -34.099500  -111.272000
  H     33.385600  -33.938600  -110.390000
  C     33.727000  -34.409400  -112.488000
  H     34.774400  -34.343200  -112.333000
  H     33.629300  -33.831000  -113.402000
  C     33.215100  -35.815600  -112.830000
  H     33.298900  -36.308600  -111.868000
  H     33.695700  -36.329000  -113.674000
  H     32.189000  -35.821700  -113.058000
  H     32.313400  -31.950500  -105.407000
  H     32.320000  -29.340200  -113.193000

 Total Charge           Charge          ....    0
 Multiplicity           Mult            ....    1
 Number of Electrons    NEL             ....  134
 Basis Dimension        Dim             ....  322

ORBITAL ENERGIES
----------------

  NO   OCC          E(Eh)            E(eV)
   0   2.0000     -88.965841     -2420.8836
   1   2.0000     -88.962290     -2420.7870
   2   2.0000     -10.328456      -281.0516
   3   2.0000     -10.322686      -280.8946
   4   2.0000     -10.312385      -280.6143
   5   2.0000     -10.312073      -280.6058
   6   2.0000     -10.304092      -280.3886
   7   2.0000     -10.299364      -280.2599
   8   2.0000     -10.296590      -280.1845
   9   2.0000     -10.296186      -280.1735
  10   2.0000     -10.295832      -280.1638
  11   2.0000     -10.293964      -280.1130
  12   2.0000     -10.293689      -280.1055
  13   2.0000     -10.281845      -279.7832
  14   2.0000     -10.277484      -279.6646
  15   2.0000     -10.275108      -279.5999
  16   2.0000      -8.081098      -219.8978
  17   2.0000      -8.078406      -219.8246
  18   2.0000      -6.039544      -164.3443
  19   2.0000      -6.036798      -164.2696
  20   2.0000      -6.035380      -164.2311
  21   2.0000      -6.032451      -164.1513
  22   2.0000      -6.032026      -164.1398
  23   2.0000      -6.029459      -164.0699
  24   2.0000      -1.013431       -27.5769
  25   2.0000      -0.989929       -26.9373
  26   2.0000      -0.916963       -24.9518
  27   2.0000      -0.907422       -24.6922
  28   2.0000      -0.868335       -23.6286
  29   2.0000      -0.851912       -23.1817
  30   2.0000      -0.840447       -22.8697
  31   2.0000      -0.813241       -22.1294
  32   2.0000      -0.784084       -21.3360
  33   2.0000      -0.776171       -21.1207
  34   2.0000      -0.708218       -19.2716
  35   2.0000      -0.703621       -19.1465
  36   2.0000      -0.700778       -19.0691
  37   2.0000      -0.662618       -18.0308
  38   2.0000      -0.637916       -17.3586
  39   2.0000      -0.616886       -16.7863
  40   2.0000      -0.602395       -16.3920
  41   2.0000      -0.573310       -15.6006
  42   2.0000      -0.555942       -15.1279
  43   2.0000      -0.554269       -15.0824
  44   2.0000      -0.542336       -14.7577
  45   2.0000      -0.537680       -14.6310
  46   2.0000      -0.519280       -14.1303
  47   2.0000      -0.513961       -13.9856
  48   2.0000      -0.507323       -13.8050
  49   2.0000      -0.501062       -13.6346
  50   2.0000      -0.497052       -13.5255
  51   2.0000      -0.473097       -12.8736
  52   2.0000      -0.470735       -12.8094
  53   2.0000      -0.461980       -12.5711
  54   2.0000      -0.457292       -12.4436
  55   2.0000      -0.444739       -12.1020
  56   2.0000      -0.441228       -12.0064
  57   2.0000      -0.439514       -11.9598
  58   2.0000      -0.431383       -11.7385
  59   2.0000      -0.424947       -11.5634
  60   2.0000      -0.419098       -11.4042
  61   2.0000      -0.413508       -11.2521
  62   2.0000      -0.406524       -11.0621
  63   2.0000      -0.332562        -9.0495
  64   2.0000      -0.325915        -8.8686
  65   2.0000      -0.324327        -8.8254
  66   2.0000      -0.311693        -8.4816
  67   0.0000       0.046989         1.2786
  68   0.0000       0.053304         1.4505
  69   0.0000       0.118220         3.2169
  70   0.0000       0.125806         3.4234
  71   0.0000       0.133868         3.6427

MULLIKEN ATOMIC CHARGES
-----------------------
   0 S :    0.129930
   1 C :   -0.107966
   2 C :   -0.130317
   3 C :    0.052724
   4 C :   -0.178635
   5 H :    0.009284
   6 C :    0.106286
   7 H :    0.022444
   8 H :    0.025044
   9 C :   -0.068384
  10 H :    0.042403
  11 H :    0.028910
  12 C :   -0.104076
  13 H :    0.053315
  14 H :    0.026276
  15 H :    0.037269
  16 S :    0.120989
  17 C :   -0.047792
  18 C :   -0.066539
  19 C :   -0.020460
  20 C :   -0.194086
  21 H :    0.031907
  22 C :    0.089607
  23 H :    0.034016
  24 H :    0.023374
  25 C :   -0.068977
  26 H :    0.025533
  27 H :    0.014667
  28 C :   -0.039786
  29 H :    0.030945
  30 H :    0.044023
  31 H :    0.018927
  32 H :    0.035721
  33 H :    0.023424
Sum of atomic charges:   -0.0000000

LOEWDIN ATOMIC CHARGES
----------------------
   0 S :    0.429932
   1 C :   -0.187733
   2 C :   -0.068466
   3 C :   -0.059739
   4 C :   -0.227505
   5 H :    0.027163
   6 C :   -0.037212
   7 H :    0.030586
   8 H :    0.037861
   9 C :   -0.041795
  10 H :    0.034835
  11 H :    0.023651
  12 C :   -0.074411
  13 H :    0.020589
  14 H :    0.026983
  15 H :    0.027826
  16 S :    0.449288
  17 C :   -0.183631
  18 C :   -0.072936
  19 C :   -0.056113
  20 C :   -0.217853
  21 H :    0.033280
  22 C :   -0.027490
  23 H :    0.035687
  24 H :    0.030528
  25 C :   -0.042012
  26 H :    0.021835
  27 H :    0.019060
  28 C :   -0.060638
  29 H :    0.026341
  30 H :    0.031559
  31 H :    0.017984
  32 H :    0.022790
  33 H :    0.009760

  Mayer bond orders larger than 0.100000
B(  0-S ,  1-C ) :   1.1654 B(  0-S ,  4-C ) :   1.1592 B(  1-C ,  2-C ) :   1.5814
B(  1-C , 32-H ) :   0.9677 B(  2-C ,  3-C ) :   1.2678 B(  2-C ,  6-C ) :   1.0391
B(  3-C ,  4-C ) :   1.5582 B(  3-C ,  5-H ) :   0.9903 B(  4-C , 20-C ) :   0.9937
B(  6-C ,  7-H ) :   0.9311 B(  6-C ,  8-H ) :   0.9321 B(  6-C ,  9-C ) :   1.0689
B(  9-C , 10-H ) :   0.9555 B(  9-C , 11-H ) :   0.9578 B(  9-C , 12-C ) :   1.0709
B( 12-C , 13-H ) :   0.9747 B( 12-C , 14-H ) :   0.9739 B( 12-C , 15-H ) :   0.9760
B( 16-S , 17-C ) :   1.1713 B( 16-S , 20-C ) :   1.1940 B( 17-C , 18-C ) :   1.5542
B( 17-C , 20-C ) :   0.1118 B( 17-C , 33-H ) :   0.9892 B( 18-C , 19-C ) :   1.2778
B( 18-C , 21-H ) :   0.9773 B( 19-C , 20-C ) :   1.5801 B( 19-C , 22-C ) :   1.0358
B( 22-C , 23-H ) :   0.9404 B( 22-C , 24-H ) :   0.9292 B( 22-C , 25-C ) :   1.0399
B( 25-C , 26-H ) :   0.9555 B( 25-C , 27-H ) :   0.9634 B( 25-C , 28-C ) :   1.0727
B( 28-C , 29-H ) :   0.9783 B( 28-C , 30-H ) :   0.9740 B( 28-C , 31-H ) :   0.9753

Dispersion correction           -0.014019780
FINAL SINGLE POINT ENERGY     -1339.865567531336

DIPOLE MOMENT
-------------
                                X             Y             Z
Electronic contribution:    -13.97096      13.18251      -1.82538
Nuclear contribution   :     14.24907     -13.50567       1.90213
                        -----------------------------------------
Total Dipole Moment    :      0.27810      -0.32317       0.07674
                        -----------------------------------------
Magnitude (a.u.)       :      0.43321
Magnitude (Debye)      :      1.10112

Rotational constants in cm-1:     0.019882     0.007676     0.006698
Rotational constants in MHz :   596.049094   230.111280   200.811612

                             ****ORCA TERMINATED NORMALLY****
TOTAL RUN TIME: 0 days 0 hours 0 minutes 21 seconds 367 msec
