                         Program Version 4.2.1 -  RELEASE  -
|  1> ! wB97X-D3 SP def2-SVP
|  2> %pal
|  3> nprocs 24
|  4> end
|  5>
|  6> * xyz 0 1
|  7> S 	 34.2475 	 -33.1887 	 -131.217
|  8> C 	 33.8577 	 -32.1711 	 -129.849
|  9> C 	 34.2443 	 -32.7042 	 -128.664
| 10> C 	 34.4985 	 -34.113 	 -128.813
| 11> C 	 34.5653 	 -34.5514 	 -130.109
| 12> H 	 34.7977 	 -34.8789 	 -128.117
| 13> C 	 34.1331 	 -32.0362 	 -127.313
| 14> H 	 33.2677 	 -32.4494 	 -126.866
| 15> H 	 33.9775 	 -30.9414 	 -127.448
| 16> C 	 35.4426 	 -32.239 	 -126.417
| 17> H 	 35.2332 	 -31.7063 	 -125.575
| 18> H 	 35.6448 	 -33.2443 	 -126.149
| 19> C 	 36.5952 	 -31.5391 	 -127.075
| 20> H 	 37.6351 	 -31.5781 	 -126.604
| 21> H 	 36.8431 	 -32.0125 	 -128.034
| 22> H 	 36.4162 	 -30.424 	 -127.415
| 23> S 	 36.2854 	 -36.424 	 -131.16
| 24> C 	 35.7731 	 -37.9965 	 -131.732
| 25> C 	 34.382 	 -37.9838 	 -131.757
| 26> C 	 33.8119 	 -36.8248 	 -131.18
| 27> C 	 34.7245 	 -35.8946 	 -130.648
| 28> H 	 33.8391 	 -38.7995 	 -132.126
| 29> C 	 32.292 	 -36.6799 	 -131.175
| 30> H 	 31.8785 	 -37.3123 	 -131.946
| 31> H 	 31.9366 	 -35.726 	 -131.603
| 32> C 	 31.5013 	 -37.0767 	 -129.882
| 33> H 	 30.4696 	 -37.2439 	 -130.131
| 34> H 	 31.4966 	 -36.0942 	 -129.311
| 35> C 	 32.1295 	 -38.2612 	 -129.132
| 36> H 	 31.5938 	 -38.4905 	 -128.215
| 37> H 	 33.1556 	 -37.9341 	 -128.862
| 38> H 	 32.1101 	 -39.2134 	 -129.675
| 39> H 	 33.7091 	 -31.1512 	 -130.064
| 40> H 	 36.4618 	 -38.765 	 -132.079
| 41> *
| 42>
| 43>                          ****END OF INPUT****

CARTESIAN COORDINATES (ANGSTROEM)
---------------------------------
  S     34.247500  -33.188700  -131.217000
  C     33.857700  -32.171100  -129.849000
  C     34.244300  -32.704200  -128.664000
  C     34.498500  -34.113000  -128.813000
  C     34.565300  -34.551400  -130.109000
  H     34.797700  -34.878900  -128.117000
  C     34.133100  -32.036200  -127.313000
  H     33.267700  -32.449400  -126.866000
  H     33.977500  -30.941400  -127.448000
  C     35.442600  -32.239000  -126.417000
  H     35.233200  -31.706300  -125.575000
  H     35.644800  -33.244300  -126.149000
  C     36.595200  -31.539100  -127.075000
  H     37.635100  -31.578100  -126.604000
  H     36.843100  -32.012500  -128.034000
  H     36.416200  -30.424000  -127.415000
  S     36.285400  -36.424000  -131.160000
  C     35.773100  -37.996500  -131.732000
  C     34.382000  -37.983800  -131.757000
  C     33.811900  -36.824800  -131.180000
  C     34.724500  -35.894600  -130.648000
  H     33.839100  -38.799500  -132.126000
  C     32.292000  -36.679900  -131.175000
  H     31.878500  -37.312300  -131.946000
  H     31.936600  -35.726000  -131.603000
  C     31.501300  -37.076700  -129.882000
  H     30.469600  -37.243900  -130.131000
  H     31.496600  -36.094200  -129.311000
  C     32.129500  -38.261200  -129.132000
  H     31.593800  -38.490500  -128.215000
  H     33.155600  -37.934100  -128.862000
  H     32.110100  -39.213400  -129.675000
  H     33.709100  -31.151200  -130.064000
  H     36.461800  -38.765000  -132.079000

 Total Charge           Charge          ....    0
 Multiplicity           Mult            ....    1
 Number of Electrons    NEL             ....  134
 Basis Dimension        Dim             ....  322

ORBITAL ENERGIES
----------------

  NO   OCC          E(Eh)            E(eV)
   0   2.0000     -88.962110     -2420.7821
   1   2.0000     -88.959883     -2420.7215
   2   2.0000     -10.330207      -281.0992
   3   2.0000     -10.326157      -280.9890
   4   2.0000     -10.321762      -280.8694
   5   2.0000     -10.309162      -280.5266
   6   2.0000     -10.304447      -280.3983
   7   2.0000     -10.302859      -280.3550
   8   2.0000     -10.297444      -280.2077
   9   2.0000     -10.296321      -280.1771
  10   2.0000     -10.290821      -280.0275
  11   2.0000     -10.286628      -279.9134
  12   2.0000     -10.285901      -279.8936
  13   2.0000     -10.284833      -279.8645
  14   2.0000     -10.283580      -279.8304
  15   2.0000     -10.275704      -279.6161
  16   2.0000      -8.077366      -219.7963
  17   2.0000      -8.074705      -219.7239
  18   2.0000      -6.035736      -164.2407
  19   2.0000      -6.033206      -164.1719
  20   2.0000      -6.031541      -164.1266
  21   2.0000      -6.029332      -164.0665
  22   2.0000      -6.028480      -164.0433
  23   2.0000      -6.025328      -163.9575
  24   2.0000      -1.007368       -27.4119
  25   2.0000      -0.986932       -26.8558
  26   2.0000      -0.911839       -24.8124
  27   2.0000      -0.899036       -24.4640
  28   2.0000      -0.873246       -23.7622
  29   2.0000      -0.845446       -23.0058
  30   2.0000      -0.840393       -22.8683
  31   2.0000      -0.818831       -22.2815
  32   2.0000      -0.779299       -21.2058
  33   2.0000      -0.770051       -20.9542
  34   2.0000      -0.712225       -19.3806
  35   2.0000      -0.699809       -19.0428
  36   2.0000      -0.685101       -18.6426
  37   2.0000      -0.665162       -18.1000
  38   2.0000      -0.651659       -17.7325
  39   2.0000      -0.618912       -16.8415
  40   2.0000      -0.589477       -16.0405
  41   2.0000      -0.569467       -15.4960
  42   2.0000      -0.559511       -15.2251
  43   2.0000      -0.551801       -15.0153
  44   2.0000      -0.539924       -14.6921
  45   2.0000      -0.536708       -14.6046
  46   2.0000      -0.517311       -14.0767
  47   2.0000      -0.512814       -13.9544
  48   2.0000      -0.502430       -13.6718
  49   2.0000      -0.491233       -13.3671
  50   2.0000      -0.481819       -13.1110
  51   2.0000      -0.478770       -13.0280
  52   2.0000      -0.471425       -12.8281
  53   2.0000      -0.464784       -12.6474
  54   2.0000      -0.455246       -12.3879
  55   2.0000      -0.449800       -12.2397
  56   2.0000      -0.435997       -11.8641
  57   2.0000      -0.434638       -11.8271
  58   2.0000      -0.433436       -11.7944
  59   2.0000      -0.430743       -11.7211
  60   2.0000      -0.415584       -11.3086
  61   2.0000      -0.410013       -11.1570
  62   2.0000      -0.396668       -10.7939
  63   2.0000      -0.333708        -9.0807
  64   2.0000      -0.330995        -9.0068
  65   2.0000      -0.319714        -8.6999
  66   2.0000      -0.313331        -8.5262
  67   0.0000       0.039006         1.0614
  68   0.0000       0.051726         1.4075
  69   0.0000       0.112566         3.0631
  70   0.0000       0.115061         3.1310
  71   0.0000       0.133329         3.6281

MULLIKEN ATOMIC CHARGES
-----------------------
   0 S :    0.097057
   1 C :   -0.110575
   2 C :   -0.069525
   3 C :    0.048636
   4 C :   -0.170534
   5 H :    0.011288
   6 C :    0.044224
   7 H :    0.038663
   8 H :    0.026290
   9 C :    0.019092
  10 H :    0.010702
  11 H :    0.031997
  12 C :   -0.132104
  13 H :    0.045967
  14 H :    0.036520
  15 H :    0.040727
  16 S :    0.098979
  17 C :   -0.101973
  18 C :   -0.003950
  19 C :   -0.055741
  20 C :   -0.157857
  21 H :    0.002292
  22 C :    0.069292
  23 H :    0.000025
  24 H :    0.027923
  25 C :   -0.086232
  26 H :    0.024542
  27 H :    0.041400
  28 C :   -0.046563
  29 H :    0.028936
  30 H :    0.048925
  31 H :    0.033318
  32 H :    0.038869
  33 H :    0.069389
Sum of atomic charges:    0.0000000

LOEWDIN ATOMIC CHARGES
----------------------
   0 S :    0.381769
   1 C :   -0.180222
   2 C :   -0.065583
   3 C :   -0.053319
   4 C :   -0.183572
   5 H :    0.033601
   6 C :   -0.017951
   7 H :    0.028783
   8 H :    0.033629
   9 C :   -0.027853
  10 H :    0.014914
  11 H :    0.023081
  12 C :   -0.086903
  13 H :    0.032923
  14 H :    0.024572
  15 H :    0.035671
  16 S :    0.424193
  17 C :   -0.183222
  18 C :   -0.066780
  19 C :   -0.054152
  20 C :   -0.222580
  21 H :    0.022906
  22 C :   -0.041024
  23 H :    0.024128
  24 H :    0.031824
  25 C :   -0.041484
  26 H :    0.018333
  27 H :    0.030682
  28 C :   -0.069723
  29 H :    0.024657
  30 H :    0.032295
  31 H :    0.025619
  32 H :    0.016117
  33 H :    0.034670

  Mayer bond orders larger than 0.100000
B(  0-S ,  1-C ) :   1.1425 B(  0-S ,  4-C ) :   1.1255 B(  1-C ,  2-C ) :   1.6417
B(  1-C , 32-H ) :   0.9664 B(  2-C ,  3-C ) :   1.1683 B(  2-C ,  6-C ) :   1.0233
B(  3-C ,  4-C ) :   1.6602 B(  3-C ,  5-H ) :   0.9862 B(  4-C , 20-C ) :   1.0254
B(  6-C ,  7-H ) :   0.9432 B(  6-C ,  8-H ) :   0.9450 B(  6-C ,  9-C ) :   1.0671
B(  9-C , 10-H ) :   0.9538 B(  9-C , 11-H ) :   0.9559 B(  9-C , 12-C ) :   1.0634
B( 12-C , 13-H ) :   0.9731 B( 12-C , 14-H ) :   0.9721 B( 12-C , 15-H ) :   0.9724
B( 16-S , 17-C ) :   1.1871 B( 16-S , 20-C ) :   1.1621 B( 17-C , 18-C ) :   1.5326
B( 17-C , 20-C ) :   0.1131 B( 17-C , 33-H ) :   0.9725 B( 18-C , 19-C ) :   1.2964
B( 18-C , 21-H ) :   1.0007 B( 19-C , 20-C ) :   1.5289 B( 19-C , 22-C ) :   1.0472
B( 22-C , 23-H ) :   0.9314 B( 22-C , 24-H ) :   0.9371 B( 22-C , 25-C ) :   1.0554
B( 25-C , 26-H ) :   0.9591 B( 25-C , 27-H ) :   0.9601 B( 25-C , 28-C ) :   1.0822
B( 28-C , 29-H ) :   0.9731 B( 28-C , 30-H ) :   0.9652 B( 28-C , 31-H ) :   0.9749

Dispersion correction           -0.015369924
FINAL SINGLE POINT ENERGY     -1339.862683494290

DIPOLE MOMENT
-------------
                                X             Y             Z
Electronic contribution:      8.18639      -1.07069     -17.02554
Nuclear contribution   :     -8.44067       0.98337      17.35924
                        -----------------------------------------
Total Dipole Moment    :     -0.25428      -0.08732       0.33369
                        -----------------------------------------
Magnitude (a.u.)       :      0.42853
Magnitude (Debye)      :      1.08923

Rotational constants in cm-1:     0.020813     0.008294     0.007539
Rotational constants in MHz :   623.970176   248.660291   226.002239

                             ****ORCA TERMINATED NORMALLY****
TOTAL RUN TIME: 0 days 0 hours 0 minutes 22 seconds 97 msec
