                         Program Version 4.2.1 -  RELEASE  -
|  1> ! wB97X-D3 SP def2-SVP
|  2> %pal
|  3> nprocs 24
|  4> end
|  5>
|  6> * xyz 0 1
|  7> S 	 33.3932 	 -37.3332 	 -128.718
|  8> C 	 32.4918 	 -36.3668 	 -127.571
|  9> C 	 31.9711 	 -35.2299 	 -128.157
| 10> C 	 32.1936 	 -35.2473 	 -129.567
| 11> C 	 32.8925 	 -36.3532 	 -130.036
| 12> H 	 31.812 	 -34.4756 	 -130.204
| 13> C 	 31.3146 	 -34.0424 	 -127.468
| 14> H 	 31.1116 	 -34.4023 	 -126.468
| 15> H 	 30.2825 	 -33.7812 	 -127.866
| 16> C 	 32.0673 	 -32.6827 	 -127.222
| 17> H 	 31.5647 	 -32.2189 	 -126.362
| 18> H 	 33.0778 	 -32.9151 	 -126.778
| 19> C 	 32.2035 	 -31.6648 	 -128.389
| 20> H 	 32.7557 	 -32.0834 	 -129.217
| 21> H 	 31.2004 	 -31.3642 	 -128.787
| 22> H 	 32.6917 	 -30.7205 	 -128.129
| 23> S 	 33.2891 	 -38.4491 	 -131.793
| 24> C 	 33.6591 	 -38.1916 	 -133.444
| 25> C 	 33.6337 	 -36.8527 	 -133.758
| 26> C 	 33.3783 	 -36.0644 	 -132.608
| 27> C 	 33.25 	 -36.7157 	 -131.401
| 28> H 	 33.8509 	 -36.4338 	 -134.736
| 29> C 	 33.133 	 -34.6157 	 -132.824
| 30> H 	 32.2739 	 -34.311 	 -132.292
| 31> H 	 32.8056 	 -34.4394 	 -133.878
| 32> C 	 34.2705 	 -33.7349 	 -132.598
| 33> H 	 35.1645 	 -34.0915 	 -133.061
| 34> H 	 34.571 	 -33.8258 	 -131.598
| 35> C 	 33.9851 	 -32.2684 	 -132.806
| 36> H 	 33.636 	 -32.1742 	 -133.832
| 37> H 	 34.8318 	 -31.5835 	 -132.748
| 38> H 	 33.1354 	 -31.8799 	 -132.237
| 39> H 	 32.114 	 -36.6561 	 -126.6
| 40> H 	 33.8336 	 -38.9172 	 -134.224
| 41> *
| 42>
| 43>                          ****END OF INPUT****

CARTESIAN COORDINATES (ANGSTROEM)
---------------------------------
  S     33.393200  -37.333200  -128.718000
  C     32.491800  -36.366800  -127.571000
  C     31.971100  -35.229900  -128.157000
  C     32.193600  -35.247300  -129.567000
  C     32.892500  -36.353200  -130.036000
  H     31.812000  -34.475600  -130.204000
  C     31.314600  -34.042400  -127.468000
  H     31.111600  -34.402300  -126.468000
  H     30.282500  -33.781200  -127.866000
  C     32.067300  -32.682700  -127.222000
  H     31.564700  -32.218900  -126.362000
  H     33.077800  -32.915100  -126.778000
  C     32.203500  -31.664800  -128.389000
  H     32.755700  -32.083400  -129.217000
  H     31.200400  -31.364200  -128.787000
  H     32.691700  -30.720500  -128.129000
  S     33.289100  -38.449100  -131.793000
  C     33.659100  -38.191600  -133.444000
  C     33.633700  -36.852700  -133.758000
  C     33.378300  -36.064400  -132.608000
  C     33.250000  -36.715700  -131.401000
  H     33.850900  -36.433800  -134.736000
  C     33.133000  -34.615700  -132.824000
  H     32.273900  -34.311000  -132.292000
  H     32.805600  -34.439400  -133.878000
  C     34.270500  -33.734900  -132.598000
  H     35.164500  -34.091500  -133.061000
  H     34.571000  -33.825800  -131.598000
  C     33.985100  -32.268400  -132.806000
  H     33.636000  -32.174200  -133.832000
  H     34.831800  -31.583500  -132.748000
  H     33.135400  -31.879900  -132.237000
  H     32.114000  -36.656100  -126.600000
  H     33.833600  -38.917200  -134.224000

 Total Charge           Charge          ....    0
 Multiplicity           Mult            ....    1
 Number of Electrons    NEL             ....  134
 Basis Dimension        Dim             ....  322

ORBITAL ENERGIES
----------------

  NO   OCC          E(Eh)            E(eV)
   0   2.0000     -88.969891     -2420.9938
   1   2.0000     -88.965135     -2420.8644
   2   2.0000     -10.333053      -281.1767
   3   2.0000     -10.329702      -281.0855
   4   2.0000     -10.316998      -280.7398
   5   2.0000     -10.314308      -280.6666
   6   2.0000     -10.302780      -280.3529
   7   2.0000     -10.301915      -280.3294
   8   2.0000     -10.298989      -280.2497
   9   2.0000     -10.298795      -280.2444
  10   2.0000     -10.291958      -280.0584
  11   2.0000     -10.291604      -280.0488
  12   2.0000     -10.284382      -279.8523
  13   2.0000     -10.280659      -279.7509
  14   2.0000     -10.275580      -279.6128
  15   2.0000     -10.269385      -279.4442
  16   2.0000      -8.085038      -220.0051
  17   2.0000      -8.080203      -219.8735
  18   2.0000      -6.043670      -164.4566
  19   2.0000      -6.039400      -164.3404
  20   2.0000      -6.038793      -164.3239
  21   2.0000      -6.035717      -164.2402
  22   2.0000      -6.034541      -164.2082
  23   2.0000      -6.030960      -164.1108
  24   2.0000      -1.013386       -27.5756
  25   2.0000      -0.991202       -26.9720
  26   2.0000      -0.925150       -25.1746
  27   2.0000      -0.905604       -24.6427
  28   2.0000      -0.871091       -23.7036
  29   2.0000      -0.856325       -23.3018
  30   2.0000      -0.845140       -22.9974
  31   2.0000      -0.817060       -22.2333
  32   2.0000      -0.786684       -21.4068
  33   2.0000      -0.776836       -21.1388
  34   2.0000      -0.713226       -19.4079
  35   2.0000      -0.701746       -19.0955
  36   2.0000      -0.699208       -19.0264
  37   2.0000      -0.668888       -18.2014
  38   2.0000      -0.636973       -17.3329
  39   2.0000      -0.625108       -17.0101
  40   2.0000      -0.603944       -16.4342
  41   2.0000      -0.571835       -15.5604
  42   2.0000      -0.565795       -15.3961
  43   2.0000      -0.542953       -14.7745
  44   2.0000      -0.540840       -14.7170
  45   2.0000      -0.532404       -14.4875
  46   2.0000      -0.516880       -14.0650
  47   2.0000      -0.511968       -13.9314
  48   2.0000      -0.507000       -13.7962
  49   2.0000      -0.505117       -13.7449
  50   2.0000      -0.491160       -13.3651
  51   2.0000      -0.485623       -13.2145
  52   2.0000      -0.475662       -12.9434
  53   2.0000      -0.466883       -12.7045
  54   2.0000      -0.462737       -12.5917
  55   2.0000      -0.451018       -12.2728
  56   2.0000      -0.447999       -12.1907
  57   2.0000      -0.437946       -11.9171
  58   2.0000      -0.433567       -11.7980
  59   2.0000      -0.427510       -11.6332
  60   2.0000      -0.418223       -11.3804
  61   2.0000      -0.416506       -11.3337
  62   2.0000      -0.401923       -10.9369
  63   2.0000      -0.355532        -9.6745
  64   2.0000      -0.333327        -9.0703
  65   2.0000      -0.331288        -9.0148
  66   2.0000      -0.288818        -7.8591
  67   0.0000       0.020163         0.5487
  68   0.0000       0.080153         2.1811
  69   0.0000       0.105737         2.8772
  70   0.0000       0.112259         3.0547
  71   0.0000       0.125511         3.4153

MULLIKEN ATOMIC CHARGES
-----------------------
   0 S :    0.120152
   1 C :   -0.110275
   2 C :   -0.092325
   3 C :    0.009898
   4 C :   -0.109314
   5 H :   -0.007633
   6 C :    0.046836
   7 H :    0.007456
   8 H :    0.040056
   9 C :   -0.078390
  10 H :    0.032373
  11 H :    0.033405
  12 C :   -0.057586
  13 H :    0.038887
  14 H :    0.026880
  15 H :    0.039133
  16 S :    0.094317
  17 C :   -0.063164
  18 C :   -0.032266
  19 C :   -0.074858
  20 C :   -0.095821
  21 H :    0.020000
  22 C :    0.043509
  23 H :    0.003927
  24 H :    0.006877
  25 C :    0.000996
  26 H :    0.006069
  27 H :    0.001416
  28 C :   -0.025736
  29 H :    0.006574
  30 H :    0.037835
  31 H :    0.026499
  32 H :    0.049124
  33 H :    0.055150
Sum of atomic charges:    0.0000000

LOEWDIN ATOMIC CHARGES
----------------------
   0 S :    0.425599
   1 C :   -0.202877
   2 C :   -0.062180
   3 C :   -0.066736
   4 C :   -0.197829
   5 H :    0.023277
   6 C :   -0.038424
   7 H :    0.029329
   8 H :    0.036705
   9 C :   -0.042386
  10 H :    0.027244
  11 H :    0.029937
  12 C :   -0.073478
  13 H :    0.022994
  14 H :    0.026480
  15 H :    0.029980
  16 S :    0.411127
  17 C :   -0.189327
  18 C :   -0.073065
  19 C :   -0.054328
  20 C :   -0.191049
  21 H :    0.033945
  22 C :   -0.030634
  23 H :    0.020151
  24 H :    0.030658
  25 C :   -0.042984
  26 H :    0.023791
  27 H :    0.018392
  28 C :   -0.063342
  29 H :    0.020719
  30 H :    0.028658
  31 H :    0.025429
  32 H :    0.030863
  33 H :    0.033361

  Mayer bond orders larger than 0.100000
B(  0-S ,  1-C ) :   1.1339 B(  0-S ,  4-C ) :   1.1630 B(  1-C ,  2-C ) :   1.6143
B(  1-C , 32-H ) :   0.9566 B(  2-C ,  3-C ) :   1.2614 B(  2-C ,  6-C ) :   1.0320
B(  3-C ,  4-C ) :   1.5399 B(  3-C ,  5-H ) :   1.0003 B(  4-C , 20-C ) :   1.0538
B(  6-C ,  7-H ) :   0.9315 B(  6-C ,  8-H ) :   0.9401 B(  6-C ,  9-C ) :   1.0657
B(  9-C , 10-H ) :   0.9570 B(  9-C , 11-H ) :   0.9533 B(  9-C , 12-C ) :   1.0728
B( 12-C , 13-H ) :   0.9759 B( 12-C , 14-H ) :   0.9746 B( 12-C , 15-H ) :   0.9728
B( 16-S , 17-C ) :   1.1755 B( 16-S , 20-C ) :   1.1182 B( 17-C , 18-C ) :   1.5742
B( 17-C , 33-H ) :   0.9648 B( 18-C , 19-C ) :   1.2789 B( 18-C , 21-H ) :   0.9898
B( 19-C , 20-C ) :   1.5919 B( 19-C , 22-C ) :   1.0407 B( 22-C , 23-H ) :   0.9314
B( 22-C , 24-H ) :   0.9288 B( 22-C , 25-C ) :   1.0753 B( 25-C , 26-H ) :   0.9416
B( 25-C , 27-H ) :   0.9405 B( 25-C , 28-C ) :   1.0840 B( 28-C , 29-H ) :   0.9695
B( 28-C , 30-H ) :   0.9728 B( 28-C , 31-H ) :   0.9700

Dispersion correction           -0.014567586
FINAL SINGLE POINT ENERGY     -1339.875851290044

DIPOLE MOMENT
-------------
                                X             Y             Z
Electronic contribution:      2.88065     -32.68295       0.23492
Nuclear contribution   :     -3.09494      33.30273      -0.39724
                        -----------------------------------------
Total Dipole Moment    :     -0.21429       0.61978      -0.16232
                        -----------------------------------------
Magnitude (a.u.)       :      0.67557
Magnitude (Debye)      :      1.71716

Rotational constants in cm-1:     0.017426     0.010197     0.006760
Rotational constants in MHz :   522.411305   305.713003   202.667955

                             ****ORCA TERMINATED NORMALLY****
TOTAL RUN TIME: 0 days 0 hours 0 minutes 22 seconds 484 msec
