                         Program Version 4.2.1 -  RELEASE  -
|  1> ! wB97X-D3 SP def2-SVP
|  2> %pal
|  3> nprocs 24
|  4> end
|  5>
|  6> * xyz 0 1
|  7> S 	 -132.308 	 60.7634 	 -61.1742
|  8> C 	 -131.895 	 62.4829 	 -61.4985
|  9> C 	 -131.816 	 63.2684 	 -60.3781
| 10> C 	 -132.214 	 62.6145 	 -59.1976
| 11> C 	 -132.447 	 61.2812 	 -59.4445
| 12> H 	 -132.247 	 63.0467 	 -58.252
| 13> C 	 -131.328 	 64.701 	 -60.3568
| 14> H 	 -131.049 	 64.8755 	 -61.3922
| 15> H 	 -130.342 	 64.7869 	 -59.917
| 16> C 	 -132.26 	 65.7461 	 -59.8928
| 17> H 	 -132.433 	 65.4967 	 -58.8509
| 18> H 	 -131.808 	 66.7476 	 -59.9547
| 19> C 	 -133.526 	 65.8594 	 -60.6488
| 20> H 	 -134.168 	 66.6598 	 -60.3309
| 21> H 	 -133.313 	 65.9112 	 -61.681
| 22> H 	 -134.177 	 65.0685 	 -60.5395
| 23> S 	 -134.426 	 59.7778 	 -58.2689
| 24> C 	 -134.093 	 58.611 	 -57.0118
| 25> C 	 -132.765 	 58.6322 	 -56.717
| 26> C 	 -132.02 	 59.6565 	 -57.4202
| 27> C 	 -132.814 	 60.3825 	 -58.3611
| 28> H 	 -132.392 	 57.9306 	 -55.9614
| 29> C 	 -130.537 	 59.8943 	 -57.2423
| 30> H 	 -130.441 	 60.7572 	 -56.5622
| 31> H 	 -130.167 	 60.324 	 -58.1546
| 32> C 	 -129.686 	 58.7192 	 -56.8349
| 33> H 	 -129.881 	 58.488 	 -55.7881
| 34> H 	 -128.661 	 59.1487 	 -56.8155
| 35> C 	 -129.713 	 57.4198 	 -57.6535
| 36> H 	 -128.893 	 56.6708 	 -57.4589
| 37> H 	 -129.609 	 57.5678 	 -58.7415
| 38> H 	 -130.699 	 57.103 	 -57.5213
| 39> H 	 -131.493 	 62.8021 	 -62.4131
| 40> H 	 -134.847 	 58.0342 	 -56.5025
| 41> *
| 42>
| 43>                          ****END OF INPUT****

CARTESIAN COORDINATES (ANGSTROEM)
---------------------------------
  S    -132.308000   60.763400  -61.174200
  C    -131.895000   62.482900  -61.498500
  C    -131.816000   63.268400  -60.378100
  C    -132.214000   62.614500  -59.197600
  C    -132.447000   61.281200  -59.444500
  H    -132.247000   63.046700  -58.252000
  C    -131.328000   64.701000  -60.356800
  H    -131.049000   64.875500  -61.392200
  H    -130.342000   64.786900  -59.917000
  C    -132.260000   65.746100  -59.892800
  H    -132.433000   65.496700  -58.850900
  H    -131.808000   66.747600  -59.954700
  C    -133.526000   65.859400  -60.648800
  H    -134.168000   66.659800  -60.330900
  H    -133.313000   65.911200  -61.681000
  H    -134.177000   65.068500  -60.539500
  S    -134.426000   59.777800  -58.268900
  C    -134.093000   58.611000  -57.011800
  C    -132.765000   58.632200  -56.717000
  C    -132.020000   59.656500  -57.420200
  C    -132.814000   60.382500  -58.361100
  H    -132.392000   57.930600  -55.961400
  C    -130.537000   59.894300  -57.242300
  H    -130.441000   60.757200  -56.562200
  H    -130.167000   60.324000  -58.154600
  C    -129.686000   58.719200  -56.834900
  H    -129.881000   58.488000  -55.788100
  H    -128.661000   59.148700  -56.815500
  C    -129.713000   57.419800  -57.653500
  H    -128.893000   56.670800  -57.458900
  H    -129.609000   57.567800  -58.741500
  H    -130.699000   57.103000  -57.521300
  H    -131.493000   62.802100  -62.413100
  H    -134.847000   58.034200  -56.502500

 Total Charge           Charge          ....    0
 Multiplicity           Mult            ....    1
 Number of Electrons    NEL             ....  134
 Basis Dimension        Dim             ....  322

ORBITAL ENERGIES
----------------

  NO   OCC          E(Eh)            E(eV)
   0   2.0000     -88.973213     -2421.0842
   1   2.0000     -88.959217     -2420.7034
   2   2.0000     -10.333865      -281.1988
   3   2.0000     -10.321999      -280.8759
   4   2.0000     -10.314724      -280.6779
   5   2.0000     -10.313385      -280.6415
   6   2.0000     -10.306184      -280.4455
   7   2.0000     -10.298105      -280.2257
   8   2.0000     -10.294520      -280.1281
   9   2.0000     -10.290482      -280.0182
  10   2.0000     -10.286294      -279.9043
  11   2.0000     -10.285844      -279.8920
  12   2.0000     -10.285305      -279.8774
  13   2.0000     -10.280875      -279.7568
  14   2.0000     -10.275207      -279.6026
  15   2.0000     -10.258955      -279.1604
  16   2.0000      -8.086125      -220.0346
  17   2.0000      -8.074607      -219.7212
  18   2.0000      -6.044650      -164.4833
  19   2.0000      -6.041277      -164.3915
  20   2.0000      -6.036565      -164.2633
  21   2.0000      -6.033005      -164.1664
  22   2.0000      -6.028811      -164.0523
  23   2.0000      -6.025640      -163.9660
  24   2.0000      -1.003153       -27.2972
  25   2.0000      -0.982114       -26.7247
  26   2.0000      -0.923029       -25.1169
  27   2.0000      -0.908962       -24.7341
  28   2.0000      -0.872415       -23.7396
  29   2.0000      -0.853767       -23.2322
  30   2.0000      -0.839517       -22.8444
  31   2.0000      -0.820774       -22.3344
  32   2.0000      -0.789858       -21.4931
  33   2.0000      -0.775492       -21.1022
  34   2.0000      -0.712873       -19.3983
  35   2.0000      -0.698207       -18.9992
  36   2.0000      -0.695716       -18.9314
  37   2.0000      -0.648448       -17.6452
  38   2.0000      -0.644661       -17.5421
  39   2.0000      -0.627227       -17.0677
  40   2.0000      -0.599232       -16.3059
  41   2.0000      -0.569101       -15.4860
  42   2.0000      -0.564404       -15.3582
  43   2.0000      -0.554234       -15.0815
  44   2.0000      -0.547549       -14.8996
  45   2.0000      -0.537448       -14.6247
  46   2.0000      -0.521322       -14.1859
  47   2.0000      -0.516079       -14.0432
  48   2.0000      -0.502446       -13.6723
  49   2.0000      -0.492122       -13.3913
  50   2.0000      -0.489883       -13.3304
  51   2.0000      -0.477465       -12.9925
  52   2.0000      -0.470595       -12.8055
  53   2.0000      -0.466512       -12.6944
  54   2.0000      -0.459005       -12.4902
  55   2.0000      -0.453849       -12.3499
  56   2.0000      -0.446828       -12.1588
  57   2.0000      -0.442208       -12.0331
  58   2.0000      -0.430505       -11.7146
  59   2.0000      -0.421195       -11.4613
  60   2.0000      -0.414911       -11.2903
  61   2.0000      -0.412891       -11.2353
  62   2.0000      -0.405010       -11.0209
  63   2.0000      -0.343141        -9.3373
  64   2.0000      -0.331483        -9.0201
  65   2.0000      -0.321061        -8.7365
  66   2.0000      -0.301792        -8.2122
  67   0.0000       0.037623         1.0238
  68   0.0000       0.052541         1.4297
  69   0.0000       0.103080         2.8050
  70   0.0000       0.126617         3.4454
  71   0.0000       0.133187         3.6242

MULLIKEN ATOMIC CHARGES
-----------------------
   0 S :    0.118527
   1 C :   -0.097964
   2 C :   -0.085845
   3 C :    0.045829
   4 C :   -0.144790
   5 H :   -0.000203
   6 C :    0.093611
   7 H :   -0.012832
   8 H :    0.034345
   9 C :   -0.061796
  10 H :    0.020906
  11 H :    0.033030
  12 C :    0.010532
  13 H :    0.022811
  14 H :    0.011911
  15 H :    0.009893
  16 S :    0.100430
  17 C :   -0.093091
  18 C :   -0.043926
  19 C :   -0.064803
  20 C :   -0.187984
  21 H :    0.033366
  22 C :    0.096554
  23 H :    0.037374
  24 H :    0.016714
  25 C :   -0.092177
  26 H :    0.025282
  27 H :    0.026271
  28 C :   -0.027616
  29 H :    0.049305
  30 H :    0.026592
  31 H :    0.016373
  32 H :    0.026013
  33 H :    0.057360
Sum of atomic charges:   -0.0000000

LOEWDIN ATOMIC CHARGES
----------------------
   0 S :    0.366738
   1 C :   -0.172176
   2 C :   -0.056893
   3 C :   -0.041305
   4 C :   -0.169358
   5 H :    0.026052
   6 C :   -0.034500
   7 H :    0.023794
   8 H :    0.034708
   9 C :   -0.042479
  10 H :    0.021077
  11 H :    0.031835
  12 C :   -0.056259
  13 H :    0.028372
  14 H :    0.021570
  15 H :    0.017375
  16 S :    0.417114
  17 C :   -0.184262
  18 C :   -0.085052
  19 C :   -0.053037
  20 C :   -0.222038
  21 H :    0.035673
  22 C :   -0.037150
  23 H :    0.040526
  24 H :    0.028240
  25 C :   -0.047271
  26 H :    0.020998
  27 H :    0.028638
  28 C :   -0.068107
  29 H :    0.037261
  30 H :    0.028244
  31 H :    0.016397
  32 H :    0.014325
  33 H :    0.030951

  Mayer bond orders larger than 0.100000
B(  0-S ,  1-C ) :   1.1103 B(  0-S ,  4-C ) :   1.1251 B(  1-C ,  2-C ) :   1.6629
B(  1-C , 32-H ) :   0.9594 B(  2-C ,  3-C ) :   1.2018 B(  2-C ,  6-C ) :   1.0192
B(  3-C ,  4-C ) :   1.6044 B(  3-C ,  5-H ) :   1.0041 B(  4-C , 20-C ) :   1.0449
B(  6-C ,  7-H ) :   0.9231 B(  6-C ,  8-H ) :   0.9345 B(  6-C ,  9-C ) :   1.0820
B(  9-C , 10-H ) :   0.9513 B(  9-C , 11-H ) :   0.9497 B(  9-C , 12-C ) :   1.0898
B( 12-C , 13-H ) :   0.9677 B( 12-C , 14-H ) :   0.9702 B( 12-C , 15-H ) :   0.9653
B( 16-S , 17-C ) :   1.1687 B( 16-S , 20-C ) :   1.1601 B( 17-C , 18-C ) :   1.5893
B( 17-C , 20-C ) :   0.1001 B( 17-C , 33-H ) :   0.9683 B( 18-C , 19-C ) :   1.2597
B( 18-C , 21-H ) :   0.9823 B( 19-C , 20-C ) :   1.5527 B( 19-C , 22-C ) :   1.0339
B( 22-C , 23-H ) :   0.9276 B( 22-C , 24-H ) :   0.9241 B( 22-C , 25-C ) :   1.0868
B( 25-C , 26-H ) :   0.9482 B( 25-C , 27-H ) :   0.9508 B( 25-C , 28-C ) :   1.0696
B( 28-C , 29-H ) :   0.9741 B( 28-C , 30-H ) :   0.9727 B( 28-C , 31-H ) :   0.9714

Dispersion correction           -0.014672118
FINAL SINGLE POINT ENERGY     -1339.866005709765

DIPOLE MOMENT
-------------
                                X             Y             Z
Electronic contribution:    -12.96364     -10.29400      -4.68024
Nuclear contribution   :     13.41928      10.61284       4.94712
                        -----------------------------------------
Total Dipole Moment    :      0.45564       0.31884       0.26688
                        -----------------------------------------
Magnitude (a.u.)       :      0.61683
Magnitude (Debye)      :      1.56787

Rotational constants in cm-1:     0.022088     0.007680     0.007025
Rotational constants in MHz :   662.191254   230.233469   210.618914

                             ****ORCA TERMINATED NORMALLY****
TOTAL RUN TIME: 0 days 0 hours 0 minutes 21 seconds 758 msec
