                         Program Version 4.2.1 -  RELEASE  -
|  1> ! wB97X-D3 SP def2-SVP
|  2> %pal
|  3> nprocs 24
|  4> end
|  5>
|  6> * xyz 0 1
|  7> S 	 -110.442 	 57.5658 	 -102.076
|  8> C 	 -111.465 	 56.1926 	 -101.671
|  9> C 	 -112.129 	 56.4502 	 -100.483
| 10> C 	 -111.741 	 57.6869 	 -99.9065
| 11> C 	 -110.93 	 58.4365 	 -100.698
| 12> H 	 -112.134 	 58.1431 	 -98.9716
| 13> C 	 -113.181 	 55.5692 	 -99.9243
| 14> H 	 -113.503 	 54.8457 	 -100.656
| 15> H 	 -114.013 	 56.2429 	 -99.7621
| 16> C 	 -112.87 	 54.9392 	 -98.5538
| 17> H 	 -112.996 	 55.7477 	 -97.7312
| 18> H 	 -113.583 	 54.2062 	 -98.1208
| 19> C 	 -111.5 	 54.2194 	 -98.6079
| 20> H 	 -110.652 	 55.0057 	 -98.7231
| 21> H 	 -111.34 	 53.5225 	 -97.7335
| 22> H 	 -111.425 	 53.6684 	 -99.5153
| 23> S 	 -109.591 	 60.1985 	 -98.9887
| 24> C 	 -109.261 	 61.8156 	 -99.4711
| 25> C 	 -109.6 	 61.9899 	 -100.808
| 26> C 	 -110.305 	 60.8996 	 -101.353
| 27> C 	 -110.364 	 59.8014 	 -100.501
| 28> H 	 -109.357 	 62.9449 	 -101.372
| 29> C 	 -110.888 	 60.9856 	 -102.771
| 30> H 	 -110.717 	 60.1488 	 -103.444
| 31> H 	 -110.339 	 61.8505 	 -103.209
| 32> C 	 -112.423 	 61.3799 	 -102.852
| 33> H 	 -112.715 	 62.1785 	 -102.171
| 34> H 	 -113.096 	 60.5788 	 -102.73
| 35> C 	 -112.738 	 62.0356 	 -104.265
| 36> H 	 -112.211 	 62.9903 	 -104.375
| 37> H 	 -113.731 	 62.367 	 -104.586
| 38> H 	 -112.334 	 61.3787 	 -105.012
| 39> H 	 -111.459 	 55.2595 	 -102.245
| 40> H 	 -108.59 	 62.5278 	 -99.015
| 41> *
| 42>
| 43>                          ****END OF INPUT****

CARTESIAN COORDINATES (ANGSTROEM)
---------------------------------
  S    -110.442000   57.565800  -102.076000
  C    -111.465000   56.192600  -101.671000
  C    -112.129000   56.450200  -100.483000
  C    -111.741000   57.686900  -99.906500
  C    -110.930000   58.436500  -100.698000
  H    -112.134000   58.143100  -98.971600
  C    -113.181000   55.569200  -99.924300
  H    -113.503000   54.845700  -100.656000
  H    -114.013000   56.242900  -99.762100
  C    -112.870000   54.939200  -98.553800
  H    -112.996000   55.747700  -97.731200
  H    -113.583000   54.206200  -98.120800
  C    -111.500000   54.219400  -98.607900
  H    -110.652000   55.005700  -98.723100
  H    -111.340000   53.522500  -97.733500
  H    -111.425000   53.668400  -99.515300
  S    -109.591000   60.198500  -98.988700
  C    -109.261000   61.815600  -99.471100
  C    -109.600000   61.989900  -100.808000
  C    -110.305000   60.899600  -101.353000
  C    -110.364000   59.801400  -100.501000
  H    -109.357000   62.944900  -101.372000
  C    -110.888000   60.985600  -102.771000
  H    -110.717000   60.148800  -103.444000
  H    -110.339000   61.850500  -103.209000
  C    -112.423000   61.379900  -102.852000
  H    -112.715000   62.178500  -102.171000
  H    -113.096000   60.578800  -102.730000
  C    -112.738000   62.035600  -104.265000
  H    -112.211000   62.990300  -104.375000
  H    -113.731000   62.367000  -104.586000
  H    -112.334000   61.378700  -105.012000
  H    -111.459000   55.259500  -102.245000
  H    -108.590000   62.527800  -99.015000

 Total Charge           Charge          ....    0
 Multiplicity           Mult            ....    1
 Number of Electrons    NEL             ....  134
 Basis Dimension        Dim             ....  322

ORBITAL ENERGIES
----------------

  NO   OCC          E(Eh)            E(eV)
   0   2.0000     -88.969932     -2420.9949
   1   2.0000     -88.964698     -2420.8525
   2   2.0000     -10.330466      -281.1063
   3   2.0000     -10.329124      -281.0697
   4   2.0000     -10.316269      -280.7200
   5   2.0000     -10.315903      -280.7100
   6   2.0000     -10.304012      -280.3864
   7   2.0000     -10.302200      -280.3371
   8   2.0000     -10.298227      -280.2290
   9   2.0000     -10.298094      -280.2254
  10   2.0000     -10.296617      -280.1852
  11   2.0000     -10.294107      -280.1169
  12   2.0000     -10.289739      -279.9980
  13   2.0000     -10.286811      -279.9184
  14   2.0000     -10.282925      -279.8126
  15   2.0000     -10.274850      -279.5929
  16   2.0000      -8.084837      -219.9996
  17   2.0000      -8.080126      -219.8714
  18   2.0000      -6.043232      -164.4447
  19   2.0000      -6.039185      -164.3346
  20   2.0000      -6.038596      -164.3185
  21   2.0000      -6.035840      -164.2436
  22   2.0000      -6.034412      -164.2047
  23   2.0000      -6.031004      -164.1120
  24   2.0000      -1.013910       -27.5899
  25   2.0000      -0.992857       -27.0170
  26   2.0000      -0.915535       -24.9130
  27   2.0000      -0.898223       -24.4419
  28   2.0000      -0.865402       -23.5488
  29   2.0000      -0.849574       -23.1181
  30   2.0000      -0.842800       -22.9338
  31   2.0000      -0.815368       -22.1873
  32   2.0000      -0.781047       -21.2534
  33   2.0000      -0.769879       -20.9495
  34   2.0000      -0.708958       -19.2917
  35   2.0000      -0.699964       -19.0470
  36   2.0000      -0.688160       -18.7258
  37   2.0000      -0.665347       -18.1050
  38   2.0000      -0.637153       -17.3378
  39   2.0000      -0.621151       -16.9024
  40   2.0000      -0.596691       -16.2368
  41   2.0000      -0.566037       -15.4027
  42   2.0000      -0.555328       -15.1112
  43   2.0000      -0.553317       -15.0565
  44   2.0000      -0.540781       -14.7154
  45   2.0000      -0.519397       -14.1335
  46   2.0000      -0.517182       -14.0732
  47   2.0000      -0.511593       -13.9211
  48   2.0000      -0.502791       -13.6816
  49   2.0000      -0.495628       -13.4867
  50   2.0000      -0.489080       -13.3085
  51   2.0000      -0.474868       -12.9218
  52   2.0000      -0.466767       -12.7014
  53   2.0000      -0.465563       -12.6686
  54   2.0000      -0.458834       -12.4855
  55   2.0000      -0.449650       -12.2356
  56   2.0000      -0.448631       -12.2079
  57   2.0000      -0.434273       -11.8172
  58   2.0000      -0.429346       -11.6831
  59   2.0000      -0.426701       -11.6111
  60   2.0000      -0.419644       -11.4191
  61   2.0000      -0.413834       -11.2610
  62   2.0000      -0.403923       -10.9913
  63   2.0000      -0.348044        -9.4708
  64   2.0000      -0.334870        -9.1123
  65   2.0000      -0.331001        -9.0070
  66   2.0000      -0.296359        -8.0643
  67   0.0000       0.031020         0.8441
  68   0.0000       0.072529         1.9736
  69   0.0000       0.113098         3.0775
  70   0.0000       0.121636         3.3099
  71   0.0000       0.131823         3.5871

MULLIKEN ATOMIC CHARGES
-----------------------
   0 S :    0.109792
   1 C :   -0.144980
   2 C :   -0.097062
   3 C :    0.010126
   4 C :   -0.144246
   5 H :    0.023329
   6 C :    0.098760
   7 H :    0.020959
   8 H :    0.031775
   9 C :   -0.115099
  10 H :    0.035248
  11 H :    0.034704
  12 C :   -0.071697
  13 H :    0.058054
  14 H :    0.048775
  15 H :    0.019625
  16 S :    0.125506
  17 C :   -0.083085
  18 C :   -0.080213
  19 C :   -0.025754
  20 C :   -0.142117
  21 H :    0.046193
  22 C :    0.041754
  23 H :    0.038289
  24 H :    0.018118
  25 C :   -0.034038
  26 H :    0.032303
  27 H :    0.035594
  28 C :   -0.089893
  29 H :    0.020719
  30 H :    0.034814
  31 H :    0.025076
  32 H :    0.058869
  33 H :    0.059802
Sum of atomic charges:    0.0000000

LOEWDIN ATOMIC CHARGES
----------------------
   0 S :    0.429615
   1 C :   -0.201552
   2 C :   -0.061500
   3 C :   -0.074762
   4 C :   -0.200377
   5 H :    0.038495
   6 C :   -0.031666
   7 H :    0.028853
   8 H :    0.036343
   9 C :   -0.054662
  10 H :    0.028596
  11 H :    0.027108
  12 C :   -0.076016
  13 H :    0.038623
  14 H :    0.031022
  15 H :    0.017359
  16 S :    0.433669
  17 C :   -0.204048
  18 C :   -0.077630
  19 C :   -0.065485
  20 C :   -0.203772
  21 H :    0.042926
  22 C :   -0.030296
  23 H :    0.023826
  24 H :    0.033537
  25 C :   -0.026851
  26 H :    0.025274
  27 H :    0.018112
  28 C :   -0.076592
  29 H :    0.021942
  30 H :    0.026152
  31 H :    0.018380
  32 H :    0.032167
  33 H :    0.033212

  Mayer bond orders larger than 0.100000
B(  0-S ,  1-C ) :   1.1367 B(  0-S ,  4-C ) :   1.1814 B(  1-C ,  2-C ) :   1.5910
B(  1-C , 32-H ) :   0.9702 B(  2-C ,  3-C ) :   1.2304 B(  2-C ,  6-C ) :   1.0302
B(  3-C ,  4-C ) :   1.5892 B(  3-C ,  5-H ) :   0.9921 B(  4-C , 20-C ) :   0.9972
B(  6-C ,  7-H ) :   0.9435 B(  6-C ,  8-H ) :   0.9365 B(  6-C ,  9-C ) :   1.0610
B(  9-C , 10-H ) :   0.9544 B(  9-C , 11-H ) :   0.9603 B(  9-C , 12-C ) :   1.0623
B( 12-C , 13-H ) :   0.9671 B( 12-C , 14-H ) :   0.9763 B( 12-C , 15-H ) :   0.9755
B( 16-S , 17-C ) :   1.1731 B( 16-S , 20-C ) :   1.1609 B( 17-C , 18-C ) :   1.5843
B( 17-C , 20-C ) :   0.1026 B( 17-C , 33-H ) :   0.9626 B( 18-C , 19-C ) :   1.2965
B( 18-C , 21-H ) :   0.9713 B( 19-C , 20-C ) :   1.5583 B( 19-C , 22-C ) :   1.0369
B( 22-C , 23-H ) :   0.9377 B( 22-C , 24-H ) :   0.9404 B( 22-C , 25-C ) :   1.0460
B( 25-C , 26-H ) :   0.9633 B( 25-C , 27-H ) :   0.9624 B( 25-C , 28-C ) :   1.0614
B( 28-C , 29-H ) :   0.9770 B( 28-C , 30-H ) :   0.9777 B( 28-C , 31-H ) :   0.9783

Dispersion correction           -0.014463684
FINAL SINGLE POINT ENERGY     -1339.877381168544

DIPOLE MOMENT
-------------
                                X             Y             Z
Electronic contribution:     13.77863       3.89619       4.87384
Nuclear contribution   :    -14.03687      -3.88628      -4.95990
                        -----------------------------------------
Total Dipole Moment    :     -0.25824       0.00991      -0.08605
                        -----------------------------------------
Magnitude (a.u.)       :      0.27238
Magnitude (Debye)      :      0.69233

Rotational constants in cm-1:     0.020327     0.008307     0.006711
Rotational constants in MHz :   609.381279   249.035624   201.185840

                             ****ORCA TERMINATED NORMALLY****
TOTAL RUN TIME: 0 days 0 hours 0 minutes 21 seconds 202 msec
