                         Program Version 4.2.1 -  RELEASE  -
|  1> ! wB97X-D3 SP def2-SVP
|  2> %pal
|  3> nprocs 24
|  4> end
|  5>
|  6> * xyz 0 1
|  7> S 	 -124.654 	 63.9905 	 -53.6125
|  8> C 	 -123.303 	 64.3928 	 -54.6885
|  9> C 	 -122.068 	 64.6166 	 -54.0926
| 10> C 	 -122.169 	 64.2954 	 -52.7124
| 11> C 	 -123.438 	 63.896 	 -52.3152
| 12> H 	 -121.424 	 64.4814 	 -51.9005
| 13> C 	 -120.779 	 65.0909 	 -54.766
| 14> H 	 -120.626 	 64.5788 	 -55.7191
| 15> H 	 -119.868 	 64.8276 	 -54.2479
| 16> C 	 -120.687 	 66.6165 	 -55.14
| 17> H 	 -119.699 	 66.9046 	 -55.6768
| 18> H 	 -121.476 	 66.8882 	 -55.8109
| 19> C 	 -120.766 	 67.5046 	 -53.9254
| 20> H 	 -121.044 	 68.557 	 -54.2108
| 21> H 	 -121.616 	 67.2809 	 -53.349
| 22> H 	 -119.802 	 67.5496 	 -53.4037
| 23> S 	 -125.303 	 64.3074 	 -50.2752
| 24> C 	 -124.964 	 63.6934 	 -48.631
| 25> C 	 -123.764 	 63.0764 	 -48.5796
| 26> C 	 -123.155 	 62.8158 	 -49.9064
| 27> C 	 -123.846 	 63.5409 	 -50.9237
| 28> H 	 -123.308 	 62.6741 	 -47.7056
| 29> C 	 -121.843 	 62.06 	 -50.0735
| 30> H 	 -121.375 	 62.0451 	 -49.0766
| 31> H 	 -121.114 	 62.6204 	 -50.6941
| 32> C 	 -121.758 	 60.6979 	 -50.7961
| 33> H 	 -120.706 	 60.3919 	 -50.9086
| 34> H 	 -122.165 	 60.8557 	 -51.7839
| 35> C 	 -122.612 	 59.6757 	 -50.0951
| 36> H 	 -123.712 	 60.0147 	 -50.187
| 37> H 	 -122.413 	 59.5787 	 -49.0091
| 38> H 	 -122.481 	 58.729 	 -50.6179
| 39> H 	 -123.474 	 64.5643 	 -55.7172
| 40> H 	 -125.557 	 63.7975 	 -47.7031
| 41> *
| 42>
| 43>                          ****END OF INPUT****

CARTESIAN COORDINATES (ANGSTROEM)
---------------------------------
  S    -124.654000   63.990500  -53.612500
  C    -123.303000   64.392800  -54.688500
  C    -122.068000   64.616600  -54.092600
  C    -122.169000   64.295400  -52.712400
  C    -123.438000   63.896000  -52.315200
  H    -121.424000   64.481400  -51.900500
  C    -120.779000   65.090900  -54.766000
  H    -120.626000   64.578800  -55.719100
  H    -119.868000   64.827600  -54.247900
  C    -120.687000   66.616500  -55.140000
  H    -119.699000   66.904600  -55.676800
  H    -121.476000   66.888200  -55.810900
  C    -120.766000   67.504600  -53.925400
  H    -121.044000   68.557000  -54.210800
  H    -121.616000   67.280900  -53.349000
  H    -119.802000   67.549600  -53.403700
  S    -125.303000   64.307400  -50.275200
  C    -124.964000   63.693400  -48.631000
  C    -123.764000   63.076400  -48.579600
  C    -123.155000   62.815800  -49.906400
  C    -123.846000   63.540900  -50.923700
  H    -123.308000   62.674100  -47.705600
  C    -121.843000   62.060000  -50.073500
  H    -121.375000   62.045100  -49.076600
  H    -121.114000   62.620400  -50.694100
  C    -121.758000   60.697900  -50.796100
  H    -120.706000   60.391900  -50.908600
  H    -122.165000   60.855700  -51.783900
  C    -122.612000   59.675700  -50.095100
  H    -123.712000   60.014700  -50.187000
  H    -122.413000   59.578700  -49.009100
  H    -122.481000   58.729000  -50.617900
  H    -123.474000   64.564300  -55.717200
  H    -125.557000   63.797500  -47.703100

 Total Charge           Charge          ....    0
 Multiplicity           Mult            ....    1
 Number of Electrons    NEL             ....  134
 Basis Dimension        Dim             ....  322

ORBITAL ENERGIES
----------------

  NO   OCC          E(Eh)            E(eV)
   0   2.0000     -88.974249     -2421.1124
   1   2.0000     -88.966842     -2420.9108
   2   2.0000     -10.336288      -281.2647
   3   2.0000     -10.335067      -281.2315
   4   2.0000     -10.320853      -280.8447
   5   2.0000     -10.317775      -280.7609
   6   2.0000     -10.312010      -280.6041
   7   2.0000     -10.310108      -280.5523
   8   2.0000     -10.300749      -280.2976
   9   2.0000     -10.298680      -280.2413
  10   2.0000     -10.295354      -280.1508
  11   2.0000     -10.292404      -280.0705
  12   2.0000     -10.292360      -280.0694
  13   2.0000     -10.282555      -279.8025
  14   2.0000     -10.276085      -279.6265
  15   2.0000     -10.271804      -279.5100
  16   2.0000      -8.088067      -220.0875
  17   2.0000      -8.080642      -219.8855
  18   2.0000      -6.046461      -164.5326
  19   2.0000      -6.043013      -164.4388
  20   2.0000      -6.039432      -164.3413
  21   2.0000      -6.038702      -164.3214
  22   2.0000      -6.035293      -164.2287
  23   2.0000      -6.031142      -164.1157
  24   2.0000      -0.999528       -27.1985
  25   2.0000      -0.976835       -26.5810
  26   2.0000      -0.908592       -24.7240
  27   2.0000      -0.905790       -24.6478
  28   2.0000      -0.866020       -23.5656
  29   2.0000      -0.852080       -23.1863
  30   2.0000      -0.841337       -22.8939
  31   2.0000      -0.814174       -22.1548
  32   2.0000      -0.784214       -21.3396
  33   2.0000      -0.768078       -20.9005
  34   2.0000      -0.705273       -19.1915
  35   2.0000      -0.697154       -18.9705
  36   2.0000      -0.679992       -18.5035
  37   2.0000      -0.660194       -17.9648
  38   2.0000      -0.641497       -17.4560
  39   2.0000      -0.614620       -16.7247
  40   2.0000      -0.588450       -16.0125
  41   2.0000      -0.576253       -15.6806
  42   2.0000      -0.549471       -14.9519
  43   2.0000      -0.546961       -14.8836
  44   2.0000      -0.542776       -14.7697
  45   2.0000      -0.539697       -14.6859
  46   2.0000      -0.515198       -14.0193
  47   2.0000      -0.511555       -13.9201
  48   2.0000      -0.495275       -13.4771
  49   2.0000      -0.488409       -13.2903
  50   2.0000      -0.484153       -13.1745
  51   2.0000      -0.478744       -13.0273
  52   2.0000      -0.471614       -12.8333
  53   2.0000      -0.463587       -12.6148
  54   2.0000      -0.459717       -12.5095
  55   2.0000      -0.452435       -12.3114
  56   2.0000      -0.435198       -11.8423
  57   2.0000      -0.431392       -11.7388
  58   2.0000      -0.427575       -11.6349
  59   2.0000      -0.427109       -11.6222
  60   2.0000      -0.420444       -11.4409
  61   2.0000      -0.415642       -11.3102
  62   2.0000      -0.411816       -11.2061
  63   2.0000      -0.350217        -9.5299
  64   2.0000      -0.339456        -9.2371
  65   2.0000      -0.326325        -8.8797
  66   2.0000      -0.287295        -7.8177
  67   0.0000       0.020637         0.5616
  68   0.0000       0.068090         1.8528
  69   0.0000       0.091406         2.4873
  70   0.0000       0.111843         3.0434
  71   0.0000       0.132127         3.5954

MULLIKEN ATOMIC CHARGES
-----------------------
   0 S :    0.115671
   1 C :   -0.104169
   2 C :   -0.065030
   3 C :   -0.002409
   4 C :   -0.153918
   5 H :    0.046611
   6 C :    0.081255
   7 H :    0.029998
   8 H :    0.020629
   9 C :   -0.097928
  10 H :    0.041238
  11 H :    0.024438
  12 C :   -0.054727
  13 H :    0.025593
  14 H :    0.031949
  15 H :    0.039741
  16 S :    0.089943
  17 C :   -0.086393
  18 C :   -0.013241
  19 C :   -0.066779
  20 C :   -0.134524
  21 H :    0.012236
  22 C :    0.018428
  23 H :    0.018614
  24 H :    0.022052
  25 C :   -0.046651
  26 H :    0.032833
  27 H :    0.033612
  28 C :   -0.077278
  29 H :    0.053152
  30 H :    0.030226
  31 H :    0.035812
  32 H :    0.029947
  33 H :    0.069072
Sum of atomic charges:   -0.0000000

LOEWDIN ATOMIC CHARGES
----------------------
   0 S :    0.387596
   1 C :   -0.173309
   2 C :   -0.060839
   3 C :   -0.061984
   4 C :   -0.184857
   5 H :    0.043190
   6 C :   -0.031959
   7 H :    0.035551
   8 H :    0.029148
   9 C :   -0.042995
  10 H :    0.034023
  11 H :    0.017436
  12 C :   -0.073171
  13 H :    0.031530
  14 H :    0.020008
  15 H :    0.026740
  16 S :    0.376227
  17 C :   -0.182598
  18 C :   -0.064189
  19 C :   -0.058045
  20 C :   -0.190978
  21 H :    0.026032
  22 C :   -0.043331
  23 H :    0.028213
  24 H :    0.031684
  25 C :   -0.038957
  26 H :    0.026409
  27 H :    0.027295
  28 C :   -0.075709
  29 H :    0.038437
  30 H :    0.022412
  31 H :    0.023727
  32 H :    0.014944
  33 H :    0.042320

  Mayer bond orders larger than 0.100000
B(  0-S ,  1-C ) :   1.1401 B(  0-S ,  4-C ) :   1.1371 B(  1-C ,  2-C ) :   1.6248
B(  1-C , 32-H ) :   0.9684 B(  2-C ,  3-C ) :   1.2269 B(  2-C ,  6-C ) :   1.0134
B(  3-C ,  4-C ) :   1.6028 B(  3-C ,  5-H ) :   0.9746 B(  4-C , 20-C ) :   1.0366
B(  6-C ,  7-H ) :   0.9381 B(  6-C ,  8-H ) :   0.9488 B(  6-C ,  9-C ) :   1.0619
B(  9-C , 10-H ) :   0.9577 B(  9-C , 11-H ) :   0.9595 B(  9-C , 12-C ) :   1.0841
B( 12-C , 13-H ) :   0.9698 B( 12-C , 14-H ) :   0.9722 B( 12-C , 15-H ) :   0.9775
B( 16-S , 17-C ) :   1.1169 B( 16-S , 20-C ) :   1.1311 B( 17-C , 18-C ) :   1.6556
B( 17-C , 33-H ) :   0.9614 B( 18-C , 19-C ) :   1.2225 B( 18-C , 21-H ) :   0.9838
B( 19-C , 20-C ) :   1.5955 B( 19-C , 22-C ) :   1.0375 B( 22-C , 23-H ) :   0.9366
B( 22-C , 24-H ) :   0.9377 B( 22-C , 25-C ) :   1.0691 B( 25-C , 26-H ) :   0.9539
B( 25-C , 27-H ) :   0.9506 B( 25-C , 28-C ) :   1.0828 B( 28-C , 29-H ) :   0.9705
B( 28-C , 30-H ) :   0.9763 B( 28-C , 31-H ) :   0.9737

Dispersion correction           -0.014592183
FINAL SINGLE POINT ENERGY     -1339.870066414932

DIPOLE MOMENT
-------------
                                X             Y             Z
Electronic contribution:    -21.74324       2.37206       2.82138
Nuclear contribution   :     22.38397      -2.32691      -2.83727
                        -----------------------------------------
Total Dipole Moment    :      0.64073       0.04515      -0.01590
                        -----------------------------------------
Magnitude (a.u.)       :      0.64252
Magnitude (Debye)      :      1.63315

Rotational constants in cm-1:     0.019338     0.008221     0.007246
Rotational constants in MHz :   579.738210   246.465960   217.222549

                             ****ORCA TERMINATED NORMALLY****
TOTAL RUN TIME: 0 days 0 hours 0 minutes 21 seconds 593 msec
