                         Program Version 4.2.1 -  RELEASE  -
|  1> ! wB97X-D3 SP def2-SVP
|  2> %pal
|  3> nprocs 24
|  4> end
|  5>
|  6> * xyz 0 1
|  7> S 	 -41.9206 	 -51.691 	 -69.3028
|  8> C 	 -40.2101 	 -51.2072 	 -69.1079
|  9> C 	 -39.4004 	 -51.7633 	 -70.075
| 10> C 	 -40.1737 	 -52.3476 	 -71.1404
| 11> C 	 -41.55 	 -52.2916 	 -70.9275
| 12> H 	 -39.7189 	 -52.8301 	 -72.0295
| 13> C 	 -37.8852 	 -51.6761 	 -70.1618
| 14> H 	 -37.5931 	 -51.4094 	 -69.1156
| 15> H 	 -37.532 	 -50.8238 	 -70.777
| 16> C 	 -37.1517 	 -52.8728 	 -70.5427
| 17> H 	 -37.5007 	 -53.2296 	 -71.5388
| 18> H 	 -36.0837 	 -52.6114 	 -70.5628
| 19> C 	 -37.3228 	 -53.9887 	 -69.5392
| 20> H 	 -36.8557 	 -54.909 	 -69.8997
| 21> H 	 -36.6976 	 -53.651 	 -68.6555
| 22> H 	 -38.3531 	 -54.1063 	 -69.3444
| 23> S 	 -43.5882 	 -51.3235 	 -72.4513
| 24> C 	 -44.626 	 -52.3996 	 -73.394
| 25> C 	 -44.0129 	 -53.6138 	 -73.5484
| 26> C 	 -42.816 	 -53.731 	 -72.7404
| 27> C 	 -42.5277 	 -52.6255 	 -71.9196
| 28> H 	 -44.4715 	 -54.4248 	 -74.0325
| 29> C 	 -42.0879 	 -55.0842 	 -72.66
| 30> H 	 -41.3405 	 -55.0093 	 -71.8366
| 31> H 	 -41.4309 	 -55.3703 	 -73.564
| 32> C 	 -42.924 	 -56.3424 	 -72.4253
| 33> H 	 -43.5736 	 -56.7018 	 -73.3038
| 34> H 	 -43.6873 	 -56.129 	 -71.69
| 35> C 	 -42.084 	 -57.6226 	 -72.1678
| 36> H 	 -42.7458 	 -58.411 	 -71.6633
| 37> H 	 -41.2653 	 -57.3583 	 -71.5582
| 38> H 	 -41.7983 	 -57.9739 	 -73.173
| 39> H 	 -39.8933 	 -50.5588 	 -68.3369
| 40> H 	 -45.5369 	 -52.1439 	 -73.8871
| 41> *
| 42>
| 43>                          ****END OF INPUT****

CARTESIAN COORDINATES (ANGSTROEM)
---------------------------------
  S    -41.920600  -51.691000  -69.302800
  C    -40.210100  -51.207200  -69.107900
  C    -39.400400  -51.763300  -70.075000
  C    -40.173700  -52.347600  -71.140400
  C    -41.550000  -52.291600  -70.927500
  H    -39.718900  -52.830100  -72.029500
  C    -37.885200  -51.676100  -70.161800
  H    -37.593100  -51.409400  -69.115600
  H    -37.532000  -50.823800  -70.777000
  C    -37.151700  -52.872800  -70.542700
  H    -37.500700  -53.229600  -71.538800
  H    -36.083700  -52.611400  -70.562800
  C    -37.322800  -53.988700  -69.539200
  H    -36.855700  -54.909000  -69.899700
  H    -36.697600  -53.651000  -68.655500
  H    -38.353100  -54.106300  -69.344400
  S    -43.588200  -51.323500  -72.451300
  C    -44.626000  -52.399600  -73.394000
  C    -44.012900  -53.613800  -73.548400
  C    -42.816000  -53.731000  -72.740400
  C    -42.527700  -52.625500  -71.919600
  H    -44.471500  -54.424800  -74.032500
  C    -42.087900  -55.084200  -72.660000
  H    -41.340500  -55.009300  -71.836600
  H    -41.430900  -55.370300  -73.564000
  C    -42.924000  -56.342400  -72.425300
  H    -43.573600  -56.701800  -73.303800
  H    -43.687300  -56.129000  -71.690000
  C    -42.084000  -57.622600  -72.167800
  H    -42.745800  -58.411000  -71.663300
  H    -41.265300  -57.358300  -71.558200
  H    -41.798300  -57.973900  -73.173000
  H    -39.893300  -50.558800  -68.336900
  H    -45.536900  -52.143900  -73.887100

 Total Charge           Charge          ....    0
 Multiplicity           Mult            ....    1
 Number of Electrons    NEL             ....  134
 Basis Dimension        Dim             ....  322

ORBITAL ENERGIES
----------------

  NO   OCC          E(Eh)            E(eV)
   0   2.0000     -88.970624     -2421.0138
   1   2.0000     -88.960429     -2420.7363
   2   2.0000     -10.333895      -281.1996
   3   2.0000     -10.329330      -281.0754
   4   2.0000     -10.318499      -280.7806
   5   2.0000     -10.317444      -280.7519
   6   2.0000     -10.310176      -280.5542
   7   2.0000     -10.305192      -280.4185
   8   2.0000     -10.301627      -280.3215
   9   2.0000     -10.299662      -280.2681
  10   2.0000     -10.292858      -280.0829
  11   2.0000     -10.291068      -280.0342
  12   2.0000     -10.288078      -279.9528
  13   2.0000     -10.284408      -279.8530
  14   2.0000     -10.283610      -279.8313
  15   2.0000     -10.275155      -279.6012
  16   2.0000      -8.084411      -219.9880
  17   2.0000      -8.075074      -219.7339
  18   2.0000      -6.043020      -164.4389
  19   2.0000      -6.039239      -164.3361
  20   2.0000      -6.034919      -164.2185
  21   2.0000      -6.033685      -164.1849
  22   2.0000      -6.029570      -164.0729
  23   2.0000      -6.025716      -163.9681
  24   2.0000      -1.003394       -27.3037
  25   2.0000      -0.980586       -26.6831
  26   2.0000      -0.926454       -25.2101
  27   2.0000      -0.902459       -24.5571
  28   2.0000      -0.875265       -23.8172
  29   2.0000      -0.847227       -23.0542
  30   2.0000      -0.841650       -22.9025
  31   2.0000      -0.815392       -22.1879
  32   2.0000      -0.783951       -21.3324
  33   2.0000      -0.767588       -20.8871
  34   2.0000      -0.711447       -19.3594
  35   2.0000      -0.693575       -18.8731
  36   2.0000      -0.690323       -18.7846
  37   2.0000      -0.656817       -17.8729
  38   2.0000      -0.638144       -17.3648
  39   2.0000      -0.626461       -17.0469
  40   2.0000      -0.597368       -16.2552
  41   2.0000      -0.574242       -15.6259
  42   2.0000      -0.562431       -15.3045
  43   2.0000      -0.561405       -15.2766
  44   2.0000      -0.550771       -14.9872
  45   2.0000      -0.527066       -14.3422
  46   2.0000      -0.519359       -14.1325
  47   2.0000      -0.511606       -13.9215
  48   2.0000      -0.507140       -13.8000
  49   2.0000      -0.495612       -13.4863
  50   2.0000      -0.487357       -13.2617
  51   2.0000      -0.476066       -12.9544
  52   2.0000      -0.465860       -12.6767
  53   2.0000      -0.462568       -12.5871
  54   2.0000      -0.459486       -12.5032
  55   2.0000      -0.453647       -12.3444
  56   2.0000      -0.443176       -12.0594
  57   2.0000      -0.437482       -11.9045
  58   2.0000      -0.432751       -11.7757
  59   2.0000      -0.423981       -11.5371
  60   2.0000      -0.415842       -11.3156
  61   2.0000      -0.412087       -11.2134
  62   2.0000      -0.402797       -10.9607
  63   2.0000      -0.342700        -9.3253
  64   2.0000      -0.331981        -9.0337
  65   2.0000      -0.323765        -8.8101
  66   2.0000      -0.298181        -8.1139
  67   0.0000       0.019850         0.5401
  68   0.0000       0.067715         1.8426
  69   0.0000       0.100712         2.7405
  70   0.0000       0.112166         3.0522
  71   0.0000       0.131236         3.5711

MULLIKEN ATOMIC CHARGES
-----------------------
   0 S :    0.121803
   1 C :   -0.123275
   2 C :   -0.089147
   3 C :    0.025311
   4 C :   -0.163620
   5 H :    0.033713
   6 C :    0.076583
   7 H :    0.005358
   8 H :    0.050873
   9 C :   -0.093797
  10 H :    0.029166
  11 H :    0.034311
  12 C :   -0.042404
  13 H :    0.033877
  14 H :    0.030435
  15 H :    0.041261
  16 S :    0.094032
  17 C :   -0.075364
  18 C :   -0.004438
  19 C :   -0.008387
  20 C :   -0.160077
  21 H :    0.006546
  22 C :    0.021512
  23 H :    0.025162
  24 H :    0.039773
  25 C :   -0.130220
  26 H :    0.030622
  27 H :    0.031349
  28 C :   -0.049488
  29 H :    0.052105
  30 H :    0.028012
  31 H :    0.039393
  32 H :    0.037656
  33 H :    0.051365
Sum of atomic charges:    0.0000000

LOEWDIN ATOMIC CHARGES
----------------------
   0 S :    0.386945
   1 C :   -0.171093
   2 C :   -0.065621
   3 C :   -0.053641
   4 C :   -0.196233
   5 H :    0.037645
   6 C :   -0.038586
   7 H :    0.030142
   8 H :    0.038571
   9 C :   -0.050465
  10 H :    0.021137
  11 H :    0.030893
  12 C :   -0.058459
  13 H :    0.025631
  14 H :    0.032158
  15 H :    0.019886
  16 S :    0.392663
  17 C :   -0.167723
  18 C :   -0.065457
  19 C :   -0.052286
  20 C :   -0.196636
  21 H :    0.024726
  22 C :   -0.047205
  23 H :    0.029195
  24 H :    0.038040
  25 C :   -0.056806
  26 H :    0.026145
  27 H :    0.017505
  28 C :   -0.061358
  29 H :    0.039737
  30 H :    0.014814
  31 H :    0.027982
  32 H :    0.020385
  33 H :    0.027366

  Mayer bond orders larger than 0.100000
B(  0-S ,  1-C ) :   1.1287 B(  0-S ,  4-C ) :   1.1375 B(  1-C ,  2-C ) :   1.6221
B(  1-C , 32-H ) :   0.9737 B(  2-C ,  3-C ) :   1.2184 B(  2-C ,  6-C ) :   1.0126
B(  3-C ,  4-C ) :   1.5758 B(  3-C ,  5-H ) :   0.9862 B(  4-C , 20-C ) :   1.0661
B(  6-C ,  7-H ) :   0.9321 B(  6-C ,  8-H ) :   0.9353 B(  6-C ,  9-C ) :   1.0902
B(  9-C , 10-H ) :   0.9470 B(  9-C , 11-H ) :   0.9506 B(  9-C , 12-C ) :   1.0784
B( 12-C , 13-H ) :   0.9736 B( 12-C , 14-H ) :   0.9723 B( 12-C , 15-H ) :   0.9775
B( 16-S , 17-C ) :   1.1469 B( 16-S , 20-C ) :   1.1322 B( 17-C , 18-C ) :   1.6128
B( 17-C , 33-H ) :   0.9709 B( 18-C , 19-C ) :   1.2289 B( 18-C , 21-H ) :   0.9962
B( 19-C , 20-C ) :   1.5869 B( 19-C , 22-C ) :   1.0475 B( 22-C , 23-H ) :   0.9380
B( 22-C , 24-H ) :   0.9344 B( 22-C , 25-C ) :   1.0575 B( 25-C , 26-H ) :   0.9525
B( 25-C , 27-H ) :   0.9614 B( 25-C , 28-C ) :   1.0662 B( 28-C , 29-H ) :   0.9738
B( 28-C , 30-H ) :   0.9792 B( 28-C , 31-H ) :   0.9795

Dispersion correction           -0.013937934
FINAL SINGLE POINT ENERGY     -1339.863437780563

DIPOLE MOMENT
-------------
                                X             Y             Z
Electronic contribution:    -18.21760      22.24609       1.32072
Nuclear contribution   :     18.66220     -22.61301      -1.47703
                        -----------------------------------------
Total Dipole Moment    :      0.44460      -0.36692      -0.15631
                        -----------------------------------------
Magnitude (a.u.)       :      0.59727
Magnitude (Debye)      :      1.51814

Rotational constants in cm-1:     0.016615     0.009284     0.006810
Rotational constants in MHz :   498.097184   278.330892   204.143801

                             ****ORCA TERMINATED NORMALLY****
TOTAL RUN TIME: 0 days 0 hours 0 minutes 21 seconds 429 msec
