                         Program Version 4.2.1 -  RELEASE  -
|  1> ! wB97X-D3 SP def2-SVP
|  2> %pal
|  3> nprocs 24
|  4> end
|  5>
|  6> * xyz 0 1
|  7> S 	 -106.251 	 48.0906 	 -96.6471
|  8> C 	 -107.528 	 49.3213 	 -96.6259
|  9> C 	 -108.109 	 49.4745 	 -97.8869
| 10> C 	 -107.515 	 48.6075 	 -98.9194
| 11> C 	 -106.56 	 47.7353 	 -98.3298
| 12> H 	 -107.813 	 48.4124 	 -99.9302
| 13> C 	 -109.171 	 50.5848 	 -98.1708
| 14> H 	 -109.855 	 50.5324 	 -97.2871
| 15> H 	 -109.668 	 50.3392 	 -99.0937
| 16> C 	 -108.591 	 51.9798 	 -98.1259
| 17> H 	 -109.347 	 52.6843 	 -98.3135
| 18> H 	 -108.212 	 52.2764 	 -97.0727
| 19> C 	 -107.508 	 52.2836 	 -99.1257
| 20> H 	 -106.599 	 51.6475 	 -98.9391
| 21> H 	 -107.809 	 52.0971 	 -100.2
| 22> H 	 -107.3 	 53.3424 	 -98.8575
| 23> S 	 -106.905 	 45.619 	 -100.101
| 24> C 	 -105.561 	 44.6257 	 -100.532
| 25> C 	 -104.42 	 45.1134 	 -100.021
| 26> C 	 -104.591 	 46.2546 	 -99.1583
| 27> C 	 -105.917 	 46.7129 	 -99.1404
| 28> H 	 -103.489 	 44.5874 	 -100.246
| 29> C 	 -103.438 	 46.9155 	 -98.4495
| 30> H 	 -102.598 	 46.1387 	 -98.4062
| 31> H 	 -103.82 	 46.9551 	 -97.4575
| 32> C 	 -102.946 	 48.3119 	 -98.8542
| 33> H 	 -103.685 	 49.0809 	 -98.6053
| 34> H 	 -102.796 	 48.2997 	 -99.9593
| 35> C 	 -101.6 	 48.7488 	 -98.342
| 36> H 	 -101.346 	 49.7738 	 -98.3861
| 37> H 	 -100.848 	 48.1581 	 -98.8323
| 38> H 	 -101.55 	 48.4041 	 -97.3224
| 39> H 	 -107.863 	 49.8951 	 -95.7779
| 40> H 	 -105.594 	 43.7136 	 -101.064
| 41> *
| 42>
| 43>                          ****END OF INPUT****

CARTESIAN COORDINATES (ANGSTROEM)
---------------------------------
  S    -106.251000   48.090600  -96.647100
  C    -107.528000   49.321300  -96.625900
  C    -108.109000   49.474500  -97.886900
  C    -107.515000   48.607500  -98.919400
  C    -106.560000   47.735300  -98.329800
  H    -107.813000   48.412400  -99.930200
  C    -109.171000   50.584800  -98.170800
  H    -109.855000   50.532400  -97.287100
  H    -109.668000   50.339200  -99.093700
  C    -108.591000   51.979800  -98.125900
  H    -109.347000   52.684300  -98.313500
  H    -108.212000   52.276400  -97.072700
  C    -107.508000   52.283600  -99.125700
  H    -106.599000   51.647500  -98.939100
  H    -107.809000   52.097100  -100.200000
  H    -107.300000   53.342400  -98.857500
  S    -106.905000   45.619000  -100.101000
  C    -105.561000   44.625700  -100.532000
  C    -104.420000   45.113400  -100.021000
  C    -104.591000   46.254600  -99.158300
  C    -105.917000   46.712900  -99.140400
  H    -103.489000   44.587400  -100.246000
  C    -103.438000   46.915500  -98.449500
  H    -102.598000   46.138700  -98.406200
  H    -103.820000   46.955100  -97.457500
  C    -102.946000   48.311900  -98.854200
  H    -103.685000   49.080900  -98.605300
  H    -102.796000   48.299700  -99.959300
  C    -101.600000   48.748800  -98.342000
  H    -101.346000   49.773800  -98.386100
  H    -100.848000   48.158100  -98.832300
  H    -101.550000   48.404100  -97.322400
  H    -107.863000   49.895100  -95.777900
  H    -105.594000   43.713600  -101.064000

 Total Charge           Charge          ....    0
 Multiplicity           Mult            ....    1
 Number of Electrons    NEL             ....  134
 Basis Dimension        Dim             ....  322

ORBITAL ENERGIES
----------------

  NO   OCC          E(Eh)            E(eV)
   0   2.0000     -88.974571     -2421.1212
   1   2.0000     -88.965122     -2420.8641
   2   2.0000     -10.335434      -281.2415
   3   2.0000     -10.327586      -281.0279
   4   2.0000     -10.316830      -280.7352
   5   2.0000     -10.310215      -280.5552
   6   2.0000     -10.309340      -280.5314
   7   2.0000     -10.304295      -280.3941
   8   2.0000     -10.300960      -280.3034
   9   2.0000     -10.295506      -280.1550
  10   2.0000     -10.292586      -280.0755
  11   2.0000     -10.290239      -280.0116
  12   2.0000     -10.285221      -279.8751
  13   2.0000     -10.283178      -279.8195
  14   2.0000     -10.280548      -279.7479
  15   2.0000     -10.266685      -279.3707
  16   2.0000      -8.087951      -220.0843
  17   2.0000      -8.080084      -219.8703
  18   2.0000      -6.046621      -164.5369
  19   2.0000      -6.042584      -164.4271
  20   2.0000      -6.038715      -164.3218
  21   2.0000      -6.038655      -164.3202
  22   2.0000      -6.034461      -164.2060
  23   2.0000      -6.030857      -164.1080
  24   2.0000      -1.005475       -27.3604
  25   2.0000      -0.980195       -26.6725
  26   2.0000      -0.913625       -24.8610
  27   2.0000      -0.908556       -24.7231
  28   2.0000      -0.871720       -23.7207
  29   2.0000      -0.854883       -23.2625
  30   2.0000      -0.843786       -22.9606
  31   2.0000      -0.814335       -22.1592
  32   2.0000      -0.782974       -21.3058
  33   2.0000      -0.771446       -20.9921
  34   2.0000      -0.708095       -19.2682
  35   2.0000      -0.692530       -18.8447
  36   2.0000      -0.690276       -18.7834
  37   2.0000      -0.660506       -17.9733
  38   2.0000      -0.637423       -17.3451
  39   2.0000      -0.604715       -16.4551
  40   2.0000      -0.590551       -16.0697
  41   2.0000      -0.575370       -15.6566
  42   2.0000      -0.565267       -15.3817
  43   2.0000      -0.550260       -14.9733
  44   2.0000      -0.545987       -14.8571
  45   2.0000      -0.526991       -14.3402
  46   2.0000      -0.520447       -14.1621
  47   2.0000      -0.518142       -14.0993
  48   2.0000      -0.510459       -13.8903
  49   2.0000      -0.493067       -13.4170
  50   2.0000      -0.486054       -13.2262
  51   2.0000      -0.484369       -13.1803
  52   2.0000      -0.474730       -12.9181
  53   2.0000      -0.462835       -12.5944
  54   2.0000      -0.458996       -12.4899
  55   2.0000      -0.454062       -12.3557
  56   2.0000      -0.437057       -11.8929
  57   2.0000      -0.434983       -11.8365
  58   2.0000      -0.431148       -11.7321
  59   2.0000      -0.422772       -11.5042
  60   2.0000      -0.413503       -11.2520
  61   2.0000      -0.409864       -11.1530
  62   2.0000      -0.404410       -11.0046
  63   2.0000      -0.352124        -9.5818
  64   2.0000      -0.331806        -9.0289
  65   2.0000      -0.329515        -8.9666
  66   2.0000      -0.288327        -7.8458
  67   0.0000       0.024873         0.6768
  68   0.0000       0.071214         1.9378
  69   0.0000       0.107742         2.9318
  70   0.0000       0.112207         3.0533
  71   0.0000       0.128487         3.4963

MULLIKEN ATOMIC CHARGES
-----------------------
   0 S :    0.115875
   1 C :   -0.121839
   2 C :   -0.098300
   3 C :    0.005611
   4 C :   -0.132766
   5 H :    0.018701
   6 C :    0.089759
   7 H :    0.035591
   8 H :    0.024333
   9 C :   -0.079713
  10 H :    0.018384
  11 H :    0.029486
  12 C :   -0.082050
  13 H :    0.052225
  14 H :    0.041574
  15 H :    0.040813
  16 S :    0.103295
  17 C :   -0.073087
  18 C :   -0.037591
  19 C :   -0.065925
  20 C :   -0.148066
  21 H :    0.019321
  22 C :    0.055716
  23 H :    0.023513
  24 H :    0.016172
  25 C :   -0.061711
  26 H :    0.037710
  27 H :    0.030195
  28 C :   -0.012781
  29 H :    0.035264
  30 H :    0.016517
  31 H :    0.013875
  32 H :    0.046786
  33 H :    0.043114
Sum of atomic charges:   -0.0000000

LOEWDIN ATOMIC CHARGES
----------------------
   0 S :    0.408351
   1 C :   -0.200199
   2 C :   -0.051755
   3 C :   -0.066296
   4 C :   -0.189476
   5 H :    0.026407
   6 C :   -0.030772
   7 H :    0.038836
   8 H :    0.026953
   9 C :   -0.049741
  10 H :    0.016678
  11 H :    0.030581
  12 C :   -0.074290
  13 H :    0.030073
  14 H :    0.028896
  15 H :    0.032750
  16 S :    0.414179
  17 C :   -0.186785
  18 C :   -0.075315
  19 C :   -0.055915
  20 C :   -0.196387
  21 H :    0.034150
  22 C :   -0.041486
  23 H :    0.036565
  24 H :    0.020238
  25 C :   -0.042806
  26 H :    0.025738
  27 H :    0.026926
  28 C :   -0.059697
  29 H :    0.024192
  30 H :    0.022272
  31 H :    0.022116
  32 H :    0.028117
  33 H :    0.026903

  Mayer bond orders larger than 0.100000
B(  0-S ,  1-C ) :   1.1166 B(  0-S ,  4-C ) :   1.1509 B(  1-C ,  2-C ) :   1.6218
B(  1-C , 32-H ) :   0.9695 B(  2-C ,  3-C ) :   1.2145 B(  2-C ,  6-C ) :   1.0177
B(  3-C ,  4-C ) :   1.5441 B(  3-C ,  5-H ) :   0.9936 B(  4-C , 20-C ) :   1.0786
B(  6-C ,  7-H ) :   0.9369 B(  6-C ,  8-H ) :   0.9437 B(  6-C ,  9-C ) :   1.0813
B(  9-C , 10-H ) :   0.9531 B(  9-C , 11-H ) :   0.9515 B(  9-C , 12-C ) :   1.0723
B( 12-C , 13-H ) :   0.9723 B( 12-C , 14-H ) :   0.9738 B( 12-C , 15-H ) :   0.9734
B( 16-S , 17-C ) :   1.1527 B( 16-S , 20-C ) :   1.1350 B( 17-C , 18-C ) :   1.6203
B( 17-C , 33-H ) :   0.9685 B( 18-C , 19-C ) :   1.2432 B( 18-C , 21-H ) :   0.9895
B( 19-C , 20-C ) :   1.5630 B( 19-C , 22-C ) :   1.0453 B( 22-C , 23-H ) :   0.9357
B( 22-C , 24-H ) :   0.9132 B( 22-C , 25-C ) :   1.0623 B( 25-C , 26-H ) :   0.9486
B( 25-C , 27-H ) :   0.9621 B( 25-C , 28-C ) :   1.0865 B( 28-C , 29-H ) :   0.9740
B( 28-C , 30-H ) :   0.9734 B( 28-C , 31-H ) :   0.9723

Dispersion correction           -0.014614732
FINAL SINGLE POINT ENERGY     -1339.873850686338

DIPOLE MOMENT
-------------
                                X             Y             Z
Electronic contribution:     -8.79337     -20.43539       0.74542
Nuclear contribution   :      8.88059      20.67581      -0.77968
                        -----------------------------------------
Total Dipole Moment    :      0.08722       0.24043      -0.03426
                        -----------------------------------------
Magnitude (a.u.)       :      0.25804
Magnitude (Debye)      :      0.65589

Rotational constants in cm-1:     0.018254     0.008926     0.007218
Rotational constants in MHz :   547.227270   267.608339   216.396915

                             ****ORCA TERMINATED NORMALLY****
TOTAL RUN TIME: 0 days 0 hours 0 minutes 20 seconds 617 msec
