                         Program Version 4.2.1 -  RELEASE  -
|  1> ! wB97X-D3 SP def2-SVP
|  2> %pal
|  3> nprocs 24
|  4> end
|  5>
|  6> * xyz 0 1
|  7> S 	 34.6731 	 -4.90821 	 -122.239
|  8> C 	 33.991 	 -6.462 	 -121.842
|  9> C 	 34.703 	 -6.99842 	 -120.783
| 10> C 	 35.7941 	 -6.1485 	 -120.273
| 11> C 	 35.7643 	 -4.91736 	 -120.858
| 12> H 	 36.4583 	 -6.30207 	 -119.456
| 13> C 	 34.4238 	 -8.33282 	 -120.149
| 14> H 	 35.3188 	 -8.8555 	 -120.246
| 15> H 	 33.7584 	 -8.84762 	 -120.793
| 16> C 	 34.0465 	 -8.4137 	 -118.645
| 17> H 	 34.8804 	 -7.96019 	 -118.06
| 18> H 	 33.1863 	 -7.85792 	 -118.387
| 19> C 	 33.8236 	 -9.80274 	 -118.02
| 20> H 	 34.6764 	 -10.3986 	 -118.145
| 21> H 	 33.6416 	 -9.71669 	 -116.943
| 22> H 	 33.0297 	 -10.2388 	 -118.594
| 23> S 	 37.5423 	 -2.97524 	 -121.659
| 24> C 	 38.1046 	 -1.79595 	 -120.558
| 25> C 	 37.4578 	 -1.87762 	 -119.312
| 26> C 	 36.5729 	 -2.99196 	 -119.255
| 27> C 	 36.4538 	 -3.7026 	 -120.481
| 28> H 	 37.8228 	 -1.17613 	 -118.521
| 29> C 	 35.8422 	 -3.36483 	 -117.981
| 30> H 	 35.7113 	 -4.46296 	 -118.035
| 31> H 	 34.8291 	 -2.84878 	 -117.988
| 32> C 	 36.4498 	 -2.87161 	 -116.667
| 33> H 	 36.2421 	 -1.80432 	 -116.516
| 34> H 	 37.5075 	 -2.98854 	 -116.7
| 35> C 	 35.9196 	 -3.62258 	 -115.39
| 36> H 	 36.0431 	 -4.72614 	 -115.502
| 37> H 	 34.8709 	 -3.38667 	 -115.281
| 38> H 	 36.4367 	 -3.31591 	 -114.557
| 39> H 	 33.1986 	 -6.96255 	 -122.344
| 40> H 	 38.6093 	 -0.922923 	 -120.859
| 41> *
| 42>
| 43>                          ****END OF INPUT****

CARTESIAN COORDINATES (ANGSTROEM)
---------------------------------
  S     34.673100   -4.908210  -122.239000
  C     33.991000   -6.462000  -121.842000
  C     34.703000   -6.998420  -120.783000
  C     35.794100   -6.148500  -120.273000
  C     35.764300   -4.917360  -120.858000
  H     36.458300   -6.302070  -119.456000
  C     34.423800   -8.332820  -120.149000
  H     35.318800   -8.855500  -120.246000
  H     33.758400   -8.847620  -120.793000
  C     34.046500   -8.413700  -118.645000
  H     34.880400   -7.960190  -118.060000
  H     33.186300   -7.857920  -118.387000
  C     33.823600   -9.802740  -118.020000
  H     34.676400  -10.398600  -118.145000
  H     33.641600   -9.716690  -116.943000
  H     33.029700  -10.238800  -118.594000
  S     37.542300   -2.975240  -121.659000
  C     38.104600   -1.795950  -120.558000
  C     37.457800   -1.877620  -119.312000
  C     36.572900   -2.991960  -119.255000
  C     36.453800   -3.702600  -120.481000
  H     37.822800   -1.176130  -118.521000
  C     35.842200   -3.364830  -117.981000
  H     35.711300   -4.462960  -118.035000
  H     34.829100   -2.848780  -117.988000
  C     36.449800   -2.871610  -116.667000
  H     36.242100   -1.804320  -116.516000
  H     37.507500   -2.988540  -116.700000
  C     35.919600   -3.622580  -115.390000
  H     36.043100   -4.726140  -115.502000
  H     34.870900   -3.386670  -115.281000
  H     36.436700   -3.315910  -114.557000
  H     33.198600   -6.962550  -122.344000
  H     38.609300   -0.922923  -120.859000

 Total Charge           Charge          ....    0
 Multiplicity           Mult            ....    1
 Number of Electrons    NEL             ....  134
 Basis Dimension        Dim             ....  322

ORBITAL ENERGIES
----------------

  NO   OCC          E(Eh)            E(eV)
   0   2.0000     -88.965987     -2420.8876
   1   2.0000     -88.960892     -2420.7489
   2   2.0000     -10.329312      -281.0749
   3   2.0000     -10.327922      -281.0370
   4   2.0000     -10.313651      -280.6487
   5   2.0000     -10.312993      -280.6308
   6   2.0000     -10.310165      -280.5538
   7   2.0000     -10.305754      -280.4338
   8   2.0000     -10.298800      -280.2446
   9   2.0000     -10.295508      -280.1550
  10   2.0000     -10.294777      -280.1351
  11   2.0000     -10.286476      -279.9092
  12   2.0000     -10.285817      -279.8913
  13   2.0000     -10.283941      -279.8403
  14   2.0000     -10.276766      -279.6450
  15   2.0000     -10.274416      -279.5811
  16   2.0000      -8.081195      -219.9005
  17   2.0000      -8.075997      -219.7590
  18   2.0000      -6.039504      -164.3432
  19   2.0000      -6.035425      -164.2323
  20   2.0000      -6.034617      -164.2103
  21   2.0000      -6.032352      -164.1486
  22   2.0000      -6.030407      -164.0957
  23   2.0000      -6.026643      -163.9933
  24   2.0000      -1.005982       -27.3742
  25   2.0000      -0.983463       -26.7614
  26   2.0000      -0.910630       -24.7795
  27   2.0000      -0.907473       -24.6936
  28   2.0000      -0.872916       -23.7532
  29   2.0000      -0.851568       -23.1723
  30   2.0000      -0.846344       -23.0302
  31   2.0000      -0.818752       -22.2794
  32   2.0000      -0.783337       -21.3157
  33   2.0000      -0.771683       -20.9986
  34   2.0000      -0.710699       -19.3391
  35   2.0000      -0.701631       -19.0924
  36   2.0000      -0.697510       -18.9802
  37   2.0000      -0.652275       -17.7493
  38   2.0000      -0.645148       -17.5554
  39   2.0000      -0.619303       -16.8521
  40   2.0000      -0.594889       -16.1877
  41   2.0000      -0.571777       -15.5589
  42   2.0000      -0.570612       -15.5271
  43   2.0000      -0.562059       -15.2944
  44   2.0000      -0.532267       -14.4837
  45   2.0000      -0.527085       -14.3427
  46   2.0000      -0.520380       -14.1603
  47   2.0000      -0.516493       -14.0545
  48   2.0000      -0.509905       -13.8752
  49   2.0000      -0.500003       -13.6058
  50   2.0000      -0.498489       -13.5646
  51   2.0000      -0.478377       -13.0173
  52   2.0000      -0.472992       -12.8708
  53   2.0000      -0.462347       -12.5811
  54   2.0000      -0.459003       -12.4901
  55   2.0000      -0.451496       -12.2858
  56   2.0000      -0.448107       -12.1936
  57   2.0000      -0.435438       -11.8489
  58   2.0000      -0.430478       -11.7139
  59   2.0000      -0.427526       -11.6336
  60   2.0000      -0.420651       -11.4465
  61   2.0000      -0.416966       -11.3462
  62   2.0000      -0.413494       -11.2518
  63   2.0000      -0.342962        -9.3325
  64   2.0000      -0.331007        -9.0072
  65   2.0000      -0.324208        -8.8222
  66   2.0000      -0.295046        -8.0286
  67   0.0000       0.029902         0.8137
  68   0.0000       0.065694         1.7876
  69   0.0000       0.115307         3.1377
  70   0.0000       0.121826         3.3150
  71   0.0000       0.127433         3.4676

MULLIKEN ATOMIC CHARGES
-----------------------
   0 S :    0.101014
   1 C :   -0.091773
   2 C :   -0.130267
   3 C :    0.063144
   4 C :   -0.168401
   5 H :    0.012174
   6 C :    0.136586
   7 H :    0.007830
   8 H :   -0.006641
   9 C :   -0.090826
  10 H :    0.020288
  11 H :    0.023754
  12 C :   -0.022802
  13 H :    0.014339
  14 H :    0.043482
  15 H :    0.027225
  16 S :    0.116632
  17 C :   -0.073658
  18 C :   -0.081701
  19 C :   -0.036329
  20 C :   -0.153989
  21 H :    0.046799
  22 C :    0.067864
  23 H :    0.021830
  24 H :    0.052185
  25 C :   -0.118779
  26 H :    0.036024
  27 H :    0.024427
  28 C :   -0.010056
  29 H :    0.034653
  30 H :    0.029209
  31 H :    0.018518
  32 H :    0.038402
  33 H :    0.048841
Sum of atomic charges:   -0.0000000

LOEWDIN ATOMIC CHARGES
----------------------
   0 S :    0.395430
   1 C :   -0.195735
   2 C :   -0.053705
   3 C :   -0.056914
   4 C :   -0.186130
   5 H :    0.028533
   6 C :   -0.030639
   7 H :    0.027590
   8 H :    0.021301
   9 C :   -0.037099
  10 H :    0.022757
  11 H :    0.016823
  12 C :   -0.055495
  13 H :    0.014854
  14 H :    0.032904
  15 H :    0.022758
  16 S :    0.431016
  17 C :   -0.195035
  18 C :   -0.082959
  19 C :   -0.050332
  20 C :   -0.211938
  21 H :    0.043614
  22 C :   -0.039381
  23 H :    0.030067
  24 H :    0.046388
  25 C :   -0.041883
  26 H :    0.025417
  27 H :    0.015018
  28 C :   -0.051785
  29 H :    0.028758
  30 H :    0.024050
  31 H :    0.014057
  32 H :    0.026857
  33 H :    0.020836

  Mayer bond orders larger than 0.100000
B(  0-S ,  1-C ) :   1.1156 B(  0-S ,  4-C ) :   1.1448 B(  1-C ,  2-C ) :   1.6393
B(  1-C , 32-H ) :   0.9755 B(  2-C ,  3-C ) :   1.1760 B(  2-C ,  6-C ) :   1.0429
B(  3-C ,  4-C ) :   1.6153 B(  3-C ,  5-H ) :   0.9946 B(  4-C , 20-C ) :   1.0252
B(  6-C ,  7-H ) :   0.9229 B(  6-C ,  8-H ) :   0.9351 B(  6-C ,  9-C ) :   1.0537
B(  9-C , 10-H ) :   0.9531 B(  9-C , 11-H ) :   0.9612 B(  9-C , 12-C ) :   1.0874
B( 12-C , 13-H ) :   0.9755 B( 12-C , 14-H ) :   0.9735 B( 12-C , 15-H ) :   0.9766
B( 16-S , 17-C ) :   1.1963 B( 16-S , 20-C ) :   1.1575 B( 17-C , 18-C ) :   1.5679
B( 17-C , 20-C ) :   0.1141 B( 17-C , 33-H ) :   0.9628 B( 18-C , 19-C ) :   1.2772
B( 18-C , 21-H ) :   0.9809 B( 19-C , 20-C ) :   1.5502 B( 19-C , 22-C ) :   1.0421
B( 22-C , 23-H ) :   0.9382 B( 22-C , 24-H ) :   0.9225 B( 22-C , 25-C ) :   1.0734
B( 25-C , 26-H ) :   0.9462 B( 25-C , 27-H ) :   0.9611 B( 25-C , 28-C ) :   1.0859
B( 28-C , 29-H ) :   0.9770 B( 28-C , 30-H ) :   0.9757 B( 28-C , 31-H ) :   0.9740

Dispersion correction           -0.013512227
FINAL SINGLE POINT ENERGY     -1339.872135736468

DIPOLE MOMENT
-------------
                                X             Y             Z
Electronic contribution:      6.91764      14.48997     -28.69735
Nuclear contribution   :     -6.96703     -14.68749      29.40006
                        -----------------------------------------
Total Dipole Moment    :     -0.04939      -0.19751       0.70270
                        -----------------------------------------
Magnitude (a.u.)       :      0.73160
Magnitude (Debye)      :      1.85959

Rotational constants in cm-1:     0.015923     0.009185     0.006230
Rotational constants in MHz :   477.362641   275.368042   186.761815

                             ****ORCA TERMINATED NORMALLY****
TOTAL RUN TIME: 0 days 0 hours 0 minutes 21 seconds 120 msec
