                         Program Version 4.2.1 -  RELEASE  -
|  1> ! wB97X-D3 SP def2-SVP
|  2> %pal
|  3> nprocs 24
|  4> end
|  5>
|  6> * xyz 0 1
|  7> S 	 -29.324 	 -35.5427 	 -91.2043
|  8> C 	 -30.0692 	 -36.9958 	 -91.8524
|  9> C 	 -29.244 	 -38.0543 	 -92.0484
| 10> C 	 -27.9186 	 -37.7014 	 -91.6891
| 11> C 	 -27.8544 	 -36.4089 	 -91.1232
| 12> H 	 -26.9929 	 -38.3294 	 -91.7336
| 13> C 	 -29.5136 	 -39.3449 	 -92.8523
| 14> H 	 -29.1248 	 -40.2838 	 -92.3292
| 15> H 	 -29.0492 	 -39.3714 	 -93.8201
| 16> C 	 -31.0006 	 -39.5098 	 -93.2074
| 17> H 	 -31.3748 	 -38.56 	 -93.6797
| 18> H 	 -31.1531 	 -40.2689 	 -93.9985
| 19> C 	 -31.948 	 -39.8565 	 -91.9951
| 20> H 	 -31.7258 	 -40.7977 	 -91.6858
| 21> H 	 -31.9452 	 -39.0543 	 -91.2531
| 22> H 	 -32.8988 	 -39.9843 	 -92.5662
| 23> S 	 -26.3368 	 -36.4108 	 -88.9015
| 24> C 	 -24.8712 	 -35.5327 	 -88.8752
| 25> C 	 -24.7503 	 -34.76 	 -90.0206
| 26> C 	 -25.8287 	 -34.8293 	 -90.9325
| 27> C 	 -26.7516 	 -35.7943 	 -90.4326
| 28> H 	 -23.787 	 -34.2685 	 -89.9462
| 29> C 	 -25.9394 	 -33.9832 	 -92.1936
| 30> H 	 -26.8142 	 -34.3298 	 -92.7168
| 31> H 	 -25.0413 	 -34.1839 	 -92.8832
| 32> C 	 -26.0122 	 -32.4394 	 -91.9431
| 33> H 	 -25.0627 	 -32.2306 	 -91.4018
| 34> H 	 -26.8394 	 -32.152 	 -91.2477
| 35> C 	 -26.1093 	 -31.6129 	 -93.2504
| 36> H 	 -25.9836 	 -30.5481 	 -92.9892
| 37> H 	 -26.9788 	 -31.6492 	 -93.8306
| 38> H 	 -25.2502 	 -31.9133 	 -93.8759
| 39> H 	 -31.1443 	 -37.1186 	 -91.9706
| 40> H 	 -24.106 	 -35.7966 	 -88.1574
| 41> *
| 42>
| 43>                          ****END OF INPUT****

CARTESIAN COORDINATES (ANGSTROEM)
---------------------------------
  S    -29.324000  -35.542700  -91.204300
  C    -30.069200  -36.995800  -91.852400
  C    -29.244000  -38.054300  -92.048400
  C    -27.918600  -37.701400  -91.689100
  C    -27.854400  -36.408900  -91.123200
  H    -26.992900  -38.329400  -91.733600
  C    -29.513600  -39.344900  -92.852300
  H    -29.124800  -40.283800  -92.329200
  H    -29.049200  -39.371400  -93.820100
  C    -31.000600  -39.509800  -93.207400
  H    -31.374800  -38.560000  -93.679700
  H    -31.153100  -40.268900  -93.998500
  C    -31.948000  -39.856500  -91.995100
  H    -31.725800  -40.797700  -91.685800
  H    -31.945200  -39.054300  -91.253100
  H    -32.898800  -39.984300  -92.566200
  S    -26.336800  -36.410800  -88.901500
  C    -24.871200  -35.532700  -88.875200
  C    -24.750300  -34.760000  -90.020600
  C    -25.828700  -34.829300  -90.932500
  C    -26.751600  -35.794300  -90.432600
  H    -23.787000  -34.268500  -89.946200
  C    -25.939400  -33.983200  -92.193600
  H    -26.814200  -34.329800  -92.716800
  H    -25.041300  -34.183900  -92.883200
  C    -26.012200  -32.439400  -91.943100
  H    -25.062700  -32.230600  -91.401800
  H    -26.839400  -32.152000  -91.247700
  C    -26.109300  -31.612900  -93.250400
  H    -25.983600  -30.548100  -92.989200
  H    -26.978800  -31.649200  -93.830600
  H    -25.250200  -31.913300  -93.875900
  H    -31.144300  -37.118600  -91.970600
  H    -24.106000  -35.796600  -88.157400

 Total Charge           Charge          ....    0
 Multiplicity           Mult            ....    1
 Number of Electrons    NEL             ....  134
 Basis Dimension        Dim             ....  322

ORBITAL ENERGIES
----------------

  NO   OCC          E(Eh)            E(eV)
   0   2.0000     -88.968798     -2420.9641
   1   2.0000     -88.962658     -2420.7970
   2   2.0000     -10.322408      -280.8870
   3   2.0000     -10.319632      -280.8115
   4   2.0000     -10.310342      -280.5587
   5   2.0000     -10.308065      -280.4967
   6   2.0000     -10.306559      -280.4557
   7   2.0000     -10.300125      -280.2806
   8   2.0000     -10.298801      -280.2446
   9   2.0000     -10.296725      -280.1881
  10   2.0000     -10.296636      -280.1857
  11   2.0000     -10.293604      -280.1032
  12   2.0000     -10.291202      -280.0378
  13   2.0000     -10.290179      -280.0100
  14   2.0000     -10.276835      -279.6469
  15   2.0000     -10.274654      -279.5875
  16   2.0000      -8.084096      -219.9794
  17   2.0000      -8.079097      -219.8434
  18   2.0000      -6.042399      -164.4220
  19   2.0000      -6.038656      -164.3202
  20   2.0000      -6.037170      -164.2798
  21   2.0000      -6.034911      -164.2183
  22   2.0000      -6.033217      -164.1722
  23   2.0000      -6.030366      -164.0946
  24   2.0000      -1.012517       -27.5520
  25   2.0000      -0.988558       -26.9000
  26   2.0000      -0.909592       -24.7513
  27   2.0000      -0.901771       -24.5384
  28   2.0000      -0.866549       -23.5800
  29   2.0000      -0.851068       -23.1587
  30   2.0000      -0.847357       -23.0578
  31   2.0000      -0.805664       -21.9232
  32   2.0000      -0.789089       -21.4722
  33   2.0000      -0.772725       -21.0269
  34   2.0000      -0.703714       -19.1490
  35   2.0000      -0.696083       -18.9414
  36   2.0000      -0.692577       -18.8460
  37   2.0000      -0.651170       -17.7192
  38   2.0000      -0.636520       -17.3206
  39   2.0000      -0.610557       -16.6141
  40   2.0000      -0.595502       -16.2044
  41   2.0000      -0.577560       -15.7162
  42   2.0000      -0.561263       -15.2727
  43   2.0000      -0.542212       -14.7543
  44   2.0000      -0.537014       -14.6129
  45   2.0000      -0.522507       -14.2181
  46   2.0000      -0.515818       -14.0361
  47   2.0000      -0.511743       -13.9252
  48   2.0000      -0.505695       -13.7607
  49   2.0000      -0.493215       -13.4211
  50   2.0000      -0.486273       -13.2322
  51   2.0000      -0.480553       -13.0765
  52   2.0000      -0.473875       -12.8948
  53   2.0000      -0.464780       -12.6473
  54   2.0000      -0.459202       -12.4955
  55   2.0000      -0.449439       -12.2299
  56   2.0000      -0.438848       -11.9417
  57   2.0000      -0.431058       -11.7297
  58   2.0000      -0.430111       -11.7039
  59   2.0000      -0.428369       -11.6565
  60   2.0000      -0.424731       -11.5575
  61   2.0000      -0.414339       -11.2747
  62   2.0000      -0.410685       -11.1753
  63   2.0000      -0.338991        -9.2244
  64   2.0000      -0.330031        -8.9806
  65   2.0000      -0.321604        -8.7513
  66   2.0000      -0.299381        -8.1466
  67   0.0000       0.041270         1.1230
  68   0.0000       0.061389         1.6705
  69   0.0000       0.106397         2.8952
  70   0.0000       0.126299         3.4368
  71   0.0000       0.128630         3.5002

MULLIKEN ATOMIC CHARGES
-----------------------
   0 S :    0.138174
   1 C :   -0.134238
   2 C :   -0.067922
   3 C :    0.031350
   4 C :   -0.207518
   5 H :    0.032281
   6 C :    0.075498
   7 H :    0.040039
   8 H :    0.041656
   9 C :   -0.166370
  10 H :    0.033381
  11 H :    0.028486
  12 C :   -0.009547
  13 H :    0.010159
  14 H :    0.047742
  15 H :    0.033513
  16 S :    0.136372
  17 C :   -0.136193
  18 C :   -0.049135
  19 C :    0.024129
  20 C :   -0.189929
  21 H :    0.018579
  22 C :    0.065741
  23 H :    0.016530
  24 H :    0.042057
  25 C :   -0.105692
  26 H :    0.035900
  27 H :    0.041702
  28 C :   -0.029735
  29 H :    0.035101
  30 H :    0.031165
  31 H :    0.027147
  32 H :    0.046477
  33 H :    0.063100
Sum of atomic charges:   -0.0000000

LOEWDIN ATOMIC CHARGES
----------------------
   0 S :    0.430358
   1 C :   -0.197827
   2 C :   -0.066840
   3 C :   -0.058811
   4 C :   -0.214137
   5 H :    0.040765
   6 C :   -0.033185
   7 H :    0.037662
   8 H :    0.034448
   9 C :   -0.050670
  10 H :    0.023652
  11 H :    0.023867
  12 C :   -0.056214
  13 H :    0.008672
  14 H :    0.025037
  15 H :    0.035458
  16 S :    0.453482
  17 C :   -0.211245
  18 C :   -0.077567
  19 C :   -0.053823
  20 C :   -0.229370
  21 H :    0.034078
  22 C :   -0.036239
  23 H :    0.021035
  24 H :    0.040390
  25 C :   -0.040867
  26 H :    0.027017
  27 H :    0.028260
  28 C :   -0.065073
  29 H :    0.031450
  30 H :    0.017689
  31 H :    0.027666
  32 H :    0.023076
  33 H :    0.027805

  Mayer bond orders larger than 0.100000
B(  0-S ,  1-C ) :   1.1351 B(  0-S ,  4-C ) :   1.1698 B(  1-C ,  2-C ) :   1.6519
B(  1-C , 32-H ) :   0.9486 B(  2-C ,  3-C ) :   1.2335 B(  2-C ,  6-C ) :   1.0023
B(  3-C ,  4-C ) :   1.5913 B(  3-C ,  5-H ) :   0.9909 B(  4-C , 20-C ) :   1.0017
B(  6-C ,  7-H ) :   0.9394 B(  6-C ,  8-H ) :   0.9434 B(  6-C ,  9-C ) :   1.0797
B(  9-C , 10-H ) :   0.9500 B(  9-C , 11-H ) :   0.9586 B(  9-C , 12-C ) :   1.0667
B( 12-C , 13-H ) :   0.9754 B( 12-C , 14-H ) :   0.9764 B( 12-C , 15-H ) :   0.9755
B( 16-S , 17-C ) :   1.1738 B( 16-S , 20-C ) :   1.2026 B( 17-C , 18-C ) :   1.5880
B( 17-C , 20-C ) :   0.1034 B( 17-C , 33-H ) :   0.9673 B( 18-C , 19-C ) :   1.2405
B( 18-C , 21-H ) :   0.9939 B( 19-C , 20-C ) :   1.5289 B( 19-C , 22-C ) :   1.0536
B( 22-C , 23-H ) :   0.9272 B( 22-C , 24-H ) :   0.9347 B( 22-C , 25-C ) :   1.0515
B( 25-C , 26-H ) :   0.9573 B( 25-C , 27-H ) :   0.9567 B( 25-C , 28-C ) :   1.0788
B( 28-C , 29-H ) :   0.9738 B( 28-C , 30-H ) :   0.9787 B( 28-C , 31-H ) :   0.9722

Dispersion correction           -0.013890824
FINAL SINGLE POINT ENERGY     -1339.863789474299

DIPOLE MOMENT
-------------
                                X             Y             Z
Electronic contribution:      5.41090       0.09670      16.18254
Nuclear contribution   :     -5.22920      -0.29488     -16.56682
                        -----------------------------------------
Total Dipole Moment    :      0.18170      -0.19817      -0.38428
                        -----------------------------------------
Magnitude (a.u.)       :      0.46900
Magnitude (Debye)      :      1.19211

Rotational constants in cm-1:     0.022205     0.007421     0.006159
Rotational constants in MHz :   665.703974   222.479872   184.627526

                             ****ORCA TERMINATED NORMALLY****
TOTAL RUN TIME: 0 days 0 hours 0 minutes 20 seconds 906 msec
