                         Program Version 4.2.1 -  RELEASE  -
|  1> ! wB97X-D3 SP def2-SVP
|  2> %pal
|  3> nprocs 24
|  4> end
|  5>
|  6> * xyz 0 1
|  7> S 	 -120.388 	 58.4061 	 -38.4853
|  8> C 	 -122.115 	 58.372 	 -38.9003
|  9> C 	 -122.965 	 58.0605 	 -37.7646
| 10> C 	 -122.219 	 58.1802 	 -36.5599
| 11> C 	 -120.819 	 58.1215 	 -36.764
| 12> H 	 -122.388 	 57.9039 	 -35.5167
| 13> C 	 -124.452 	 57.7668 	 -37.7906
| 14> H 	 -124.773 	 58.5205 	 -37.0979
| 15> H 	 -124.656 	 56.833 	 -37.3362
| 16> C 	 -125.296 	 58.0561 	 -39.0366
| 17> H 	 -126.28 	 58.1812 	 -38.5637
| 18> H 	 -124.986 	 58.9745 	 -39.509
| 19> C 	 -125.271 	 57.0114 	 -40.174
| 20> H 	 -125.601 	 56.046 	 -39.8111
| 21> H 	 -126.11 	 57.3021 	 -40.8921
| 22> H 	 -124.258 	 56.9727 	 -40.5856
| 23> S 	 -118.272 	 57.168 	 -36.1221
| 24> C 	 -117.651 	 57.3134 	 -34.5106
| 25> C 	 -118.531 	 57.9515 	 -33.7024
| 26> C 	 -119.687 	 58.4186 	 -34.4027
| 27> C 	 -119.785 	 58.0098 	 -35.7171
| 28> H 	 -118.214 	 58.174 	 -32.6951
| 29> C 	 -120.66 	 59.2589 	 -33.5211
| 30> H 	 -121.466 	 59.5665 	 -34.2163
| 31> H 	 -120.121 	 60.0632 	 -33.1837
| 32> C 	 -121.21 	 58.4909 	 -32.3198
| 33> H 	 -121.815 	 59.269 	 -31.7866
| 34> H 	 -120.53 	 58.2693 	 -31.514
| 35> C 	 -122.229 	 57.4184 	 -32.7176
| 36> H 	 -123.069 	 57.8379 	 -33.3411
| 37> H 	 -122.646 	 57.0989 	 -31.8025
| 38> H 	 -121.731 	 56.7361 	 -33.4152
| 39> H 	 -122.457 	 58.3895 	 -39.9117
| 40> H 	 -116.798 	 56.8478 	 -34.0996
| 41> *
| 42>
| 43>                          ****END OF INPUT****

CARTESIAN COORDINATES (ANGSTROEM)
---------------------------------
  S    -120.388000   58.406100  -38.485300
  C    -122.115000   58.372000  -38.900300
  C    -122.965000   58.060500  -37.764600
  C    -122.219000   58.180200  -36.559900
  C    -120.819000   58.121500  -36.764000
  H    -122.388000   57.903900  -35.516700
  C    -124.452000   57.766800  -37.790600
  H    -124.773000   58.520500  -37.097900
  H    -124.656000   56.833000  -37.336200
  C    -125.296000   58.056100  -39.036600
  H    -126.280000   58.181200  -38.563700
  H    -124.986000   58.974500  -39.509000
  C    -125.271000   57.011400  -40.174000
  H    -125.601000   56.046000  -39.811100
  H    -126.110000   57.302100  -40.892100
  H    -124.258000   56.972700  -40.585600
  S    -118.272000   57.168000  -36.122100
  C    -117.651000   57.313400  -34.510600
  C    -118.531000   57.951500  -33.702400
  C    -119.687000   58.418600  -34.402700
  C    -119.785000   58.009800  -35.717100
  H    -118.214000   58.174000  -32.695100
  C    -120.660000   59.258900  -33.521100
  H    -121.466000   59.566500  -34.216300
  H    -120.121000   60.063200  -33.183700
  C    -121.210000   58.490900  -32.319800
  H    -121.815000   59.269000  -31.786600
  H    -120.530000   58.269300  -31.514000
  C    -122.229000   57.418400  -32.717600
  H    -123.069000   57.837900  -33.341100
  H    -122.646000   57.098900  -31.802500
  H    -121.731000   56.736100  -33.415200
  H    -122.457000   58.389500  -39.911700
  H    -116.798000   56.847800  -34.099600

 Total Charge           Charge          ....    0
 Multiplicity           Mult            ....    1
 Number of Electrons    NEL             ....  134
 Basis Dimension        Dim             ....  322

ORBITAL ENERGIES
----------------

  NO   OCC          E(Eh)            E(eV)
   0   2.0000     -88.970937     -2421.0223
   1   2.0000     -88.962661     -2420.7971
   2   2.0000     -10.340001      -281.3657
   3   2.0000     -10.332376      -281.1583
   4   2.0000     -10.319463      -280.8069
   5   2.0000     -10.314781      -280.6795
   6   2.0000     -10.311336      -280.5857
   7   2.0000     -10.303290      -280.3668
   8   2.0000     -10.298841      -280.2457
   9   2.0000     -10.289852      -280.0011
  10   2.0000     -10.289288      -279.9858
  11   2.0000     -10.288737      -279.9708
  12   2.0000     -10.288515      -279.9647
  13   2.0000     -10.288027      -279.9515
  14   2.0000     -10.284899      -279.8663
  15   2.0000     -10.280883      -279.7571
  16   2.0000      -8.084045      -219.9780
  17   2.0000      -8.077532      -219.8008
  18   2.0000      -6.042575      -164.4268
  19   2.0000      -6.038866      -164.3259
  20   2.0000      -6.036198      -164.2533
  21   2.0000      -6.034801      -164.2153
  22   2.0000      -6.032004      -164.1392
  23   2.0000      -6.028132      -164.0338
  24   2.0000      -1.002432       -27.2776
  25   2.0000      -0.976817       -26.5805
  26   2.0000      -0.913155       -24.8482
  27   2.0000      -0.911456       -24.8020
  28   2.0000      -0.866314       -23.5736
  29   2.0000      -0.853022       -23.2119
  30   2.0000      -0.844980       -22.9931
  31   2.0000      -0.813828       -22.1454
  32   2.0000      -0.786174       -21.3929
  33   2.0000      -0.776798       -21.1377
  34   2.0000      -0.706476       -19.2242
  35   2.0000      -0.705062       -19.1857
  36   2.0000      -0.693093       -18.8600
  37   2.0000      -0.660098       -17.9622
  38   2.0000      -0.641617       -17.4593
  39   2.0000      -0.607210       -16.5230
  40   2.0000      -0.592469       -16.1219
  41   2.0000      -0.580830       -15.8052
  42   2.0000      -0.567823       -15.4513
  43   2.0000      -0.549648       -14.9567
  44   2.0000      -0.543050       -14.7771
  45   2.0000      -0.532257       -14.4834
  46   2.0000      -0.520408       -14.1610
  47   2.0000      -0.516435       -14.0529
  48   2.0000      -0.507583       -13.8120
  49   2.0000      -0.502234       -13.6665
  50   2.0000      -0.493695       -13.4341
  51   2.0000      -0.479299       -13.0424
  52   2.0000      -0.471581       -12.8324
  53   2.0000      -0.463529       -12.6133
  54   2.0000      -0.455646       -12.3988
  55   2.0000      -0.451542       -12.2871
  56   2.0000      -0.444273       -12.0893
  57   2.0000      -0.433475       -11.7955
  58   2.0000      -0.430802       -11.7227
  59   2.0000      -0.427616       -11.6360
  60   2.0000      -0.424017       -11.5381
  61   2.0000      -0.417391       -11.3578
  62   2.0000      -0.396014       -10.7761
  63   2.0000      -0.355507        -9.6738
  64   2.0000      -0.332587        -9.0501
  65   2.0000      -0.328256        -8.9323
  66   2.0000      -0.281554        -7.6615
  67   0.0000       0.020157         0.5485
  68   0.0000       0.072026         1.9599
  69   0.0000       0.107762         2.9324
  70   0.0000       0.110175         2.9980
  71   0.0000       0.131659         3.5826

MULLIKEN ATOMIC CHARGES
-----------------------
   0 S :    0.111298
   1 C :   -0.124413
   2 C :   -0.097015
   3 C :    0.027018
   4 C :   -0.152684
   5 H :   -0.005049
   6 C :    0.080825
   7 H :    0.031715
   8 H :    0.032778
   9 C :   -0.087103
  10 H :    0.032459
  11 H :    0.026559
  12 C :   -0.049932
  13 H :    0.023082
  14 H :    0.046956
  15 H :    0.044408
  16 S :    0.086499
  17 C :   -0.054088
  18 C :   -0.044542
  19 C :   -0.092713
  20 C :   -0.133018
  21 H :    0.017776
  22 C :    0.115441
  23 H :    0.022660
  24 H :    0.012302
  25 C :   -0.103573
  26 H :    0.021735
  27 H :    0.029578
  28 C :   -0.032165
  29 H :    0.039006
  30 H :    0.032228
  31 H :    0.054647
  32 H :    0.045743
  33 H :    0.041579
Sum of atomic charges:    0.0000000

LOEWDIN ATOMIC CHARGES
----------------------
   0 S :    0.382358
   1 C :   -0.204065
   2 C :   -0.044486
   3 C :   -0.076938
   4 C :   -0.167081
   5 H :    0.033037
   6 C :   -0.033473
   7 H :    0.040066
   8 H :    0.029831
   9 C :   -0.041789
  10 H :    0.030295
  11 H :    0.023300
  12 C :   -0.067776
  13 H :    0.019802
  14 H :    0.037599
  15 H :    0.026082
  16 S :    0.391776
  17 C :   -0.175999
  18 C :   -0.074494
  19 C :   -0.061677
  20 C :   -0.196105
  21 H :    0.031327
  22 C :   -0.019217
  23 H :    0.031720
  24 H :    0.020728
  25 C :   -0.045975
  26 H :    0.029090
  27 H :    0.021755
  28 C :   -0.062569
  29 H :    0.028824
  30 H :    0.023912
  31 H :    0.028038
  32 H :    0.016602
  33 H :    0.025503

  Mayer bond orders larger than 0.100000
B(  0-S ,  1-C ) :   1.1349 B(  0-S ,  4-C ) :   1.1428 B(  1-C ,  2-C ) :   1.5863
B(  1-C ,  4-C ) :   0.1134 B(  1-C , 32-H ) :   0.9636 B(  2-C ,  3-C ) :   1.2512
B(  2-C ,  6-C ) :   1.0049 B(  3-C ,  4-C ) :   1.5871 B(  3-C ,  5-H ) :   0.9616
B(  4-C , 20-C ) :   1.0585 B(  6-C ,  7-H ) :   0.9362 B(  6-C ,  8-H ) :   0.9345
B(  6-C ,  9-C ) :   1.0806 B(  9-C , 10-H ) :   0.9559 B(  9-C , 11-H ) :   0.9538
B(  9-C , 12-C ) :   1.0763 B( 12-C , 13-H ) :   0.9747 B( 12-C , 14-H ) :   0.9732
B( 12-C , 15-H ) :   0.9760 B( 16-S , 17-C ) :   1.1492 B( 16-S , 20-C ) :   1.1131
B( 17-C , 18-C ) :   1.6414 B( 17-C , 33-H ) :   0.9664 B( 18-C , 19-C ) :   1.2184
B( 18-C , 21-H ) :   0.9906 B( 19-C , 20-C ) :   1.6126 B( 19-C , 22-C ) :   1.0265
B( 22-C , 23-H ) :   0.9388 B( 22-C , 24-H ) :   0.9273 B( 22-C , 25-C ) :   1.0877
B( 25-C , 26-H ) :   0.9492 B( 25-C , 27-H ) :   0.9537 B( 25-C , 28-C ) :   1.0700
B( 28-C , 29-H ) :   0.9624 B( 28-C , 30-H ) :   0.9674 B( 28-C , 31-H ) :   0.9729

Dispersion correction           -0.014550936
FINAL SINGLE POINT ENERGY     -1339.846295181958

DIPOLE MOMENT
-------------
                                X             Y             Z
Electronic contribution:     25.59450       0.32119      -7.34682
Nuclear contribution   :    -26.14213      -0.29966       7.96676
                        -----------------------------------------
Total Dipole Moment    :     -0.54763       0.02153       0.61994
                        -----------------------------------------
Magnitude (a.u.)       :      0.82747
Magnitude (Debye)      :      2.10325

Rotational constants in cm-1:     0.021784     0.007942     0.006215
Rotational constants in MHz :   653.069937   238.109934   186.315012

                             ****ORCA TERMINATED NORMALLY****
TOTAL RUN TIME: 0 days 0 hours 0 minutes 21 seconds 810 msec
