                         Program Version 4.2.1 -  RELEASE  -
|  1> ! wB97X-D3 SP def2-SVP
|  2> %pal
|  3> nprocs 24
|  4> end
|  5>
|  6> * xyz 0 1
|  7> S 	 -106.077 	 51.6744 	 -73.461
|  8> C 	 -107.316 	 51.3529 	 -74.7473
|  9> C 	 -108.379 	 50.6997 	 -74.3318
| 10> C 	 -108.371 	 50.6108 	 -72.9098
| 11> C 	 -107.205 	 51.0488 	 -72.3116
| 12> H 	 -109.182 	 50.2969 	 -72.1881
| 13> C 	 -109.553 	 50.2113 	 -75.1522
| 14> H 	 -109.561 	 49.2001 	 -75.0899
| 15> H 	 -109.513 	 50.4325 	 -76.2039
| 16> C 	 -110.958 	 50.5575 	 -74.6089
| 17> H 	 -111.578 	 50.0319 	 -75.341
| 18> H 	 -111.15 	 50.0265 	 -73.6647
| 19> C 	 -111.323 	 52.0602 	 -74.4815
| 20> H 	 -110.84 	 52.7819 	 -75.2255
| 21> H 	 -112.346 	 52.2066 	 -74.4257
| 22> H 	 -110.912 	 52.3988 	 -73.4434
| 23> S 	 -106.741 	 49.6921 	 -69.8216
| 24> C 	 -106.81 	 50.5902 	 -68.3237
| 25> C 	 -107.156 	 51.887 	 -68.6057
| 26> C 	 -107.381 	 52.1847 	 -69.9741
| 27> C 	 -107.1 	 51.1267 	 -70.8491
| 28> H 	 -107.233 	 52.542 	 -67.8211
| 29> C 	 -107.607 	 53.6216 	 -70.3611
| 30> H 	 -106.901 	 53.9051 	 -71.0966
| 31> H 	 -107.308 	 54.1098 	 -69.4305
| 32> C 	 -109.042 	 53.9704 	 -70.8749
| 33> H 	 -109.838 	 53.8079 	 -70.1236
| 34> H 	 -109.357 	 53.3874 	 -71.7346
| 35> C 	 -109.048 	 55.4663 	 -71.2305
| 36> H 	 -108.362 	 55.7223 	 -72.0232
| 37> H 	 -108.843 	 56.0669 	 -70.3674
| 38> H 	 -110.122 	 55.6355 	 -71.4759
| 39> H 	 -107.123 	 51.4749 	 -75.7627
| 40> H 	 -106.589 	 50.037 	 -67.3751
| 41> *
| 42>
| 43>                          ****END OF INPUT****

CARTESIAN COORDINATES (ANGSTROEM)
---------------------------------
  S    -106.077000   51.674400  -73.461000
  C    -107.316000   51.352900  -74.747300
  C    -108.379000   50.699700  -74.331800
  C    -108.371000   50.610800  -72.909800
  C    -107.205000   51.048800  -72.311600
  H    -109.182000   50.296900  -72.188100
  C    -109.553000   50.211300  -75.152200
  H    -109.561000   49.200100  -75.089900
  H    -109.513000   50.432500  -76.203900
  C    -110.958000   50.557500  -74.608900
  H    -111.578000   50.031900  -75.341000
  H    -111.150000   50.026500  -73.664700
  C    -111.323000   52.060200  -74.481500
  H    -110.840000   52.781900  -75.225500
  H    -112.346000   52.206600  -74.425700
  H    -110.912000   52.398800  -73.443400
  S    -106.741000   49.692100  -69.821600
  C    -106.810000   50.590200  -68.323700
  C    -107.156000   51.887000  -68.605700
  C    -107.381000   52.184700  -69.974100
  C    -107.100000   51.126700  -70.849100
  H    -107.233000   52.542000  -67.821100
  C    -107.607000   53.621600  -70.361100
  H    -106.901000   53.905100  -71.096600
  H    -107.308000   54.109800  -69.430500
  C    -109.042000   53.970400  -70.874900
  H    -109.838000   53.807900  -70.123600
  H    -109.357000   53.387400  -71.734600
  C    -109.048000   55.466300  -71.230500
  H    -108.362000   55.722300  -72.023200
  H    -108.843000   56.066900  -70.367400
  H    -110.122000   55.635500  -71.475900
  H    -107.123000   51.474900  -75.762700
  H    -106.589000   50.037000  -67.375100

 Total Charge           Charge          ....    0
 Multiplicity           Mult            ....    1
 Number of Electrons    NEL             ....  134
 Basis Dimension        Dim             ....  322

ORBITAL ENERGIES
----------------

  NO   OCC          E(Eh)            E(eV)
   0   2.0000     -88.968172     -2420.9470
   1   2.0000     -88.958290     -2420.6781
   2   2.0000     -10.326995      -281.0118
   3   2.0000     -10.326842      -281.0077
   4   2.0000     -10.320606      -280.8380
   5   2.0000     -10.307575      -280.4834
   6   2.0000     -10.298233      -280.2292
   7   2.0000     -10.296929      -280.1937
   8   2.0000     -10.295510      -280.1551
   9   2.0000     -10.293694      -280.1056
  10   2.0000     -10.287676      -279.9419
  11   2.0000     -10.287302      -279.9317
  12   2.0000     -10.285513      -279.8830
  13   2.0000     -10.284812      -279.8640
  14   2.0000     -10.283981      -279.8413
  15   2.0000     -10.272540      -279.5300
  16   2.0000      -8.082257      -219.9294
  17   2.0000      -8.072622      -219.6672
  18   2.0000      -6.040892      -164.3810
  19   2.0000      -6.037047      -164.2764
  20   2.0000      -6.032719      -164.1586
  21   2.0000      -6.031123      -164.1152
  22   2.0000      -6.027039      -164.0041
  23   2.0000      -6.023564      -163.9095
  24   2.0000      -1.004576       -27.3359
  25   2.0000      -0.983115       -26.7519
  26   2.0000      -0.915324       -24.9072
  27   2.0000      -0.903608       -24.5884
  28   2.0000      -0.870086       -23.6763
  29   2.0000      -0.848791       -23.0968
  30   2.0000      -0.843457       -22.9516
  31   2.0000      -0.811495       -22.0819
  32   2.0000      -0.793489       -21.5919
  33   2.0000      -0.768917       -20.9233
  34   2.0000      -0.707854       -19.2617
  35   2.0000      -0.698358       -19.0033
  36   2.0000      -0.691983       -18.8298
  37   2.0000      -0.661728       -18.0065
  38   2.0000      -0.638613       -17.3775
  39   2.0000      -0.619828       -16.8664
  40   2.0000      -0.597419       -16.2566
  41   2.0000      -0.571108       -15.5406
  42   2.0000      -0.561289       -15.2734
  43   2.0000      -0.556630       -15.1467
  44   2.0000      -0.532294       -14.4845
  45   2.0000      -0.525734       -14.3059
  46   2.0000      -0.516040       -14.0422
  47   2.0000      -0.511764       -13.9258
  48   2.0000      -0.506593       -13.7851
  49   2.0000      -0.496892       -13.5211
  50   2.0000      -0.486331       -13.2337
  51   2.0000      -0.481151       -13.0928
  52   2.0000      -0.471685       -12.8352
  53   2.0000      -0.463318       -12.6075
  54   2.0000      -0.460960       -12.5434
  55   2.0000      -0.447175       -12.1683
  56   2.0000      -0.442459       -12.0399
  57   2.0000      -0.437683       -11.9100
  58   2.0000      -0.432019       -11.7558
  59   2.0000      -0.431574       -11.7437
  60   2.0000      -0.421700       -11.4750
  61   2.0000      -0.413215       -11.2442
  62   2.0000      -0.401994       -10.9388
  63   2.0000      -0.336561        -9.1583
  64   2.0000      -0.327115        -8.9013
  65   2.0000      -0.324494        -8.8299
  66   2.0000      -0.308571        -8.3966
  67   0.0000       0.044446         1.2094
  68   0.0000       0.055451         1.5089
  69   0.0000       0.109920         2.9911
  70   0.0000       0.124060         3.3758
  71   0.0000       0.126921         3.4537

MULLIKEN ATOMIC CHARGES
-----------------------
   0 S :    0.105898
   1 C :   -0.125606
   2 C :   -0.022579
   3 C :   -0.011839
   4 C :   -0.159489
   5 H :    0.038944
   6 C :    0.145228
   7 H :    0.007764
   8 H :    0.014687
   9 C :   -0.120428
  10 H :    0.028475
  11 H :    0.036416
  12 C :   -0.055459
  13 H :    0.049589
  14 H :    0.027780
  15 H :    0.039658
  16 S :    0.080258
  17 C :   -0.117620
  18 C :   -0.000644
  19 C :   -0.013821
  20 C :   -0.181748
  21 H :   -0.013446
  22 C :    0.083803
  23 H :    0.016190
  24 H :    0.012491
  25 C :   -0.094575
  26 H :    0.026550
  27 H :    0.044589
  28 C :   -0.031593
  29 H :    0.037793
  30 H :    0.022384
  31 H :    0.031527
  32 H :    0.014656
  33 H :    0.084167
Sum of atomic charges:    0.0000000

LOEWDIN ATOMIC CHARGES
----------------------
   0 S :    0.384041
   1 C :   -0.160304
   2 C :   -0.062385
   3 C :   -0.061151
   4 C :   -0.204254
   5 H :    0.041730
   6 C :   -0.017373
   7 H :    0.024953
   8 H :    0.028487
   9 C :   -0.040345
  10 H :    0.025306
  11 H :    0.025401
  12 C :   -0.073107
  13 H :    0.035765
  14 H :    0.014910
  15 H :    0.036146
  16 S :    0.380758
  17 C :   -0.184002
  18 C :   -0.074222
  19 C :   -0.053231
  20 C :   -0.191463
  21 H :    0.016337
  22 C :   -0.027987
  23 H :    0.024778
  24 H :    0.031607
  25 C :   -0.035452
  26 H :    0.024927
  27 H :    0.022936
  28 C :   -0.061758
  29 H :    0.023095
  30 H :    0.019488
  31 H :    0.030253
  32 H :    0.013983
  33 H :    0.042134

  Mayer bond orders larger than 0.100000
B(  0-S ,  1-C ) :   1.1046 B(  0-S ,  4-C ) :   1.1325 B(  1-C ,  2-C ) :   1.6888
B(  1-C , 32-H ) :   0.9670 B(  2-C ,  3-C ) :   1.1711 B(  2-C ,  6-C ) :   1.0184
B(  3-C ,  4-C ) :   1.6400 B(  3-C ,  5-H ) :   0.9790 B(  4-C , 20-C ) :   1.0214
B(  6-C ,  7-H ) :   0.9172 B(  6-C ,  8-H ) :   0.9418 B(  6-C ,  9-C ) :   1.0877
B(  9-C , 10-H ) :   0.9568 B(  9-C , 11-H ) :   0.9503 B(  9-C , 12-C ) :   1.0632
B( 12-C , 13-H ) :   0.9782 B( 12-C , 14-H ) :   0.9732 B( 12-C , 15-H ) :   0.9704
B( 16-S , 17-C ) :   1.1734 B( 16-S , 20-C ) :   1.1325 B( 17-C , 18-C ) :   1.5683
B( 17-C , 20-C ) :   0.1034 B( 17-C , 33-H ) :   0.9633 B( 18-C , 19-C ) :   1.2645
B( 18-C , 21-H ) :   1.0041 B( 19-C , 20-C ) :   1.5740 B( 19-C , 22-C ) :   1.0320
B( 22-C , 23-H ) :   0.9365 B( 22-C , 24-H ) :   0.9389 B( 22-C , 25-C ) :   1.0559
B( 25-C , 26-H ) :   0.9555 B( 25-C , 27-H ) :   0.9545 B( 25-C , 28-C ) :   1.0854
B( 28-C , 29-H ) :   0.9756 B( 28-C , 30-H ) :   0.9746 B( 28-C , 31-H ) :   0.9744

Dispersion correction           -0.015552710
FINAL SINGLE POINT ENERGY     -1339.860808163946

DIPOLE MOMENT
-------------
                                X             Y             Z
Electronic contribution:     21.92668     -14.71284       6.75411
Nuclear contribution   :    -22.52037      14.87783      -6.86399
                        -----------------------------------------
Total Dipole Moment    :     -0.59369       0.16499      -0.10988
                        -----------------------------------------
Magnitude (a.u.)       :      0.62590
Magnitude (Debye)      :      1.59092

Rotational constants in cm-1:     0.016893     0.009742     0.008127
Rotational constants in MHz :   506.435701   292.066832   243.644502

                             ****ORCA TERMINATED NORMALLY****
TOTAL RUN TIME: 0 days 0 hours 0 minutes 22 seconds 777 msec
