                         Program Version 4.2.1 -  RELEASE  -
|  1> ! wB97X-D3 SP def2-SVP
|  2> %pal
|  3> nprocs 24
|  4> end
|  5>
|  6> * xyz 0 1
|  7> S 	 -44.0536 	 -3.37547 	 19.307
|  8> C 	 -44.1007 	 -4.50181 	 17.9555
|  9> C 	 -43.982 	 -5.80789 	 18.396
| 10> C 	 -43.9117 	 -5.8923 	 19.8013
| 11> C 	 -43.8761 	 -4.67013 	 20.4419
| 12> H 	 -43.9232 	 -6.81019 	 20.3831
| 13> C 	 -44.1256 	 -6.99453 	 17.4386
| 14> H 	 -44.0391 	 -7.92395 	 18.0164
| 15> H 	 -43.176 	 -6.86835 	 16.8347
| 16> C 	 -45.4235 	 -7.01385 	 16.5438
| 17> H 	 -46.2868 	 -7.49319 	 17.0287
| 18> H 	 -45.7615 	 -6.03617 	 16.2782
| 19> C 	 -45.2433 	 -7.75956 	 15.2161
| 20> H 	 -44.8484 	 -7.10557 	 14.5171
| 21> H 	 -44.4593 	 -8.53719 	 15.2851
| 22> H 	 -46.1009 	 -8.21493 	 14.7288
| 23> S 	 -42.949 	 -5.63495 	 22.8229
| 24> C 	 -43.4279 	 -4.84844 	 24.3112
| 25> C 	 -44.3441 	 -3.87927 	 24.0159
| 26> C 	 -44.7089 	 -3.69034 	 22.6322
| 27> C 	 -43.8988 	 -4.49454 	 21.8625
| 28> H 	 -44.7639 	 -3.35866 	 24.8349
| 29> C 	 -45.6495 	 -2.60879 	 22.1646
| 30> H 	 -46.6235 	 -2.67716 	 22.5926
| 31> H 	 -46.0396 	 -2.86536 	 21.1658
| 32> C 	 -45.1169 	 -1.14924 	 22.062
| 33> H 	 -45.9853 	 -0.661504 	 21.5499
| 34> H 	 -44.2807 	 -1.09283 	 21.3037
| 35> C 	 -44.8036 	 -0.485119 	 23.3695
| 36> H 	 -44.0591 	 -0.824275 	 24.0892
| 37> H 	 -45.689 	 -0.619036 	 23.9577
| 38> H 	 -44.5673 	 0.559707 	 23.2443
| 39> H 	 -44.5162 	 -4.15889 	 17.0177
| 40> H 	 -42.9922 	 -4.99705 	 25.2762
| 41> *
| 42>
| 43>                          ****END OF INPUT****

CARTESIAN COORDINATES (ANGSTROEM)
---------------------------------
  S    -44.053600   -3.375470   19.307000
  C    -44.100700   -4.501810   17.955500
  C    -43.982000   -5.807890   18.396000
  C    -43.911700   -5.892300   19.801300
  C    -43.876100   -4.670130   20.441900
  H    -43.923200   -6.810190   20.383100
  C    -44.125600   -6.994530   17.438600
  H    -44.039100   -7.923950   18.016400
  H    -43.176000   -6.868350   16.834700
  C    -45.423500   -7.013850   16.543800
  H    -46.286800   -7.493190   17.028700
  H    -45.761500   -6.036170   16.278200
  C    -45.243300   -7.759560   15.216100
  H    -44.848400   -7.105570   14.517100
  H    -44.459300   -8.537190   15.285100
  H    -46.100900   -8.214930   14.728800
  S    -42.949000   -5.634950   22.822900
  C    -43.427900   -4.848440   24.311200
  C    -44.344100   -3.879270   24.015900
  C    -44.708900   -3.690340   22.632200
  C    -43.898800   -4.494540   21.862500
  H    -44.763900   -3.358660   24.834900
  C    -45.649500   -2.608790   22.164600
  H    -46.623500   -2.677160   22.592600
  H    -46.039600   -2.865360   21.165800
  C    -45.116900   -1.149240   22.062000
  H    -45.985300   -0.661504   21.549900
  H    -44.280700   -1.092830   21.303700
  C    -44.803600   -0.485119   23.369500
  H    -44.059100   -0.824275   24.089200
  H    -45.689000   -0.619036   23.957700
  H    -44.567300    0.559707   23.244300
  H    -44.516200   -4.158890   17.017700
  H    -42.992200   -4.997050   25.276200

 Total Charge           Charge          ....    0
 Multiplicity           Mult            ....    1
 Number of Electrons    NEL             ....  134
 Basis Dimension        Dim             ....  322

ORBITAL ENERGIES
----------------

  NO   OCC          E(Eh)            E(eV)
   0   2.0000     -88.966504     -2420.9016
   1   2.0000     -88.963169     -2420.8109
   2   2.0000     -10.325203      -280.9630
   3   2.0000     -10.323763      -280.9239
   4   2.0000     -10.313534      -280.6455
   5   2.0000     -10.310136      -280.5531
   6   2.0000     -10.302710      -280.3510
   7   2.0000     -10.302630      -280.3488
   8   2.0000     -10.301060      -280.3061
   9   2.0000     -10.295507      -280.1550
  10   2.0000     -10.290550      -280.0201
  11   2.0000     -10.290262      -280.0123
  12   2.0000     -10.289861      -280.0014
  13   2.0000     -10.288667      -279.9689
  14   2.0000     -10.271730      -279.5080
  15   2.0000     -10.271416      -279.4994
  16   2.0000      -8.080861      -219.8914
  17   2.0000      -8.077733      -219.8063
  18   2.0000      -6.039326      -164.3384
  19   2.0000      -6.036347      -164.2574
  20   2.0000      -6.035323      -164.2295
  21   2.0000      -6.032310      -164.1475
  22   2.0000      -6.031814      -164.1340
  23   2.0000      -6.028349      -164.0397
  24   2.0000      -1.009537       -27.4709
  25   2.0000      -0.984130       -26.7795
  26   2.0000      -0.909217       -24.7410
  27   2.0000      -0.905863       -24.6498
  28   2.0000      -0.871876       -23.7249
  29   2.0000      -0.853986       -23.2381
  30   2.0000      -0.847400       -23.0589
  31   2.0000      -0.812343       -22.1050
  32   2.0000      -0.789480       -21.4828
  33   2.0000      -0.773091       -21.0369
  34   2.0000      -0.708887       -19.2898
  35   2.0000      -0.707111       -19.2415
  36   2.0000      -0.693512       -18.8714
  37   2.0000      -0.666616       -18.1396
  38   2.0000      -0.637614       -17.3503
  39   2.0000      -0.611418       -16.6375
  40   2.0000      -0.601125       -16.3575
  41   2.0000      -0.572046       -15.5662
  42   2.0000      -0.553173       -15.0526
  43   2.0000      -0.552177       -15.0255
  44   2.0000      -0.539989       -14.6938
  45   2.0000      -0.525769       -14.3069
  46   2.0000      -0.517647       -14.0859
  47   2.0000      -0.512910       -13.9570
  48   2.0000      -0.509367       -13.8606
  49   2.0000      -0.505442       -13.7538
  50   2.0000      -0.487938       -13.2775
  51   2.0000      -0.483821       -13.1654
  52   2.0000      -0.473018       -12.8715
  53   2.0000      -0.463558       -12.6141
  54   2.0000      -0.460949       -12.5431
  55   2.0000      -0.444762       -12.1026
  56   2.0000      -0.440532       -11.9875
  57   2.0000      -0.435534       -11.8515
  58   2.0000      -0.429696       -11.6926
  59   2.0000      -0.424562       -11.5529
  60   2.0000      -0.419866       -11.4251
  61   2.0000      -0.417904       -11.3717
  62   2.0000      -0.405515       -11.0346
  63   2.0000      -0.351978        -9.5778
  64   2.0000      -0.331589        -9.0230
  65   2.0000      -0.329933        -8.9779
  66   2.0000      -0.285885        -7.7793
  67   0.0000       0.024211         0.6588
  68   0.0000       0.078922         2.1476
  69   0.0000       0.106894         2.9087
  70   0.0000       0.118995         3.2380
  71   0.0000       0.137119         3.7312

MULLIKEN ATOMIC CHARGES
-----------------------
   0 S :    0.098907
   1 C :   -0.143718
   2 C :   -0.074601
   3 C :   -0.005082
   4 C :   -0.132089
   5 H :    0.016009
   6 C :    0.051804
   7 H :    0.029682
   8 H :    0.056609
   9 C :   -0.049830
  10 H :    0.037755
  11 H :    0.018550
  12 C :   -0.052865
  13 H :    0.011112
  14 H :    0.026058
  15 H :    0.035026
  16 S :    0.093135
  17 C :   -0.079735
  18 C :   -0.018878
  19 C :   -0.013941
  20 C :   -0.142626
  21 H :   -0.001188
  22 C :    0.034469
  23 H :    0.016124
  24 H :    0.012889
  25 C :   -0.059237
  26 H :    0.036907
  27 H :    0.037825
  28 C :   -0.027189
  29 H :    0.035181
  30 H :    0.010456
  31 H :    0.033202
  32 H :    0.056859
  33 H :    0.052417
Sum of atomic charges:   -0.0000000

LOEWDIN ATOMIC CHARGES
----------------------
   0 S :    0.426838
   1 C :   -0.203560
   2 C :   -0.062117
   3 C :   -0.073347
   4 C :   -0.195005
   5 H :    0.028586
   6 C :   -0.030296
   7 H :    0.031477
   8 H :    0.045247
   9 C :   -0.036188
  10 H :    0.029801
  11 H :    0.017394
  12 C :   -0.067339
  13 H :    0.014327
  14 H :    0.026649
  15 H :    0.026996
  16 S :    0.394816
  17 C :   -0.184266
  18 C :   -0.061945
  19 C :   -0.056537
  20 C :   -0.179519
  21 H :    0.021479
  22 C :   -0.050132
  23 H :    0.030296
  24 H :    0.028452
  25 C :   -0.036652
  26 H :    0.034731
  27 H :    0.022073
  28 C :   -0.075213
  29 H :    0.028366
  30 H :    0.023243
  31 H :    0.027808
  32 H :    0.023927
  33 H :    0.029610

  Mayer bond orders larger than 0.100000
B(  0-S ,  1-C ) :   1.1407 B(  0-S ,  4-C ) :   1.1653 B(  1-C ,  2-C ) :   1.5825
B(  1-C , 32-H ) :   0.9689 B(  2-C ,  3-C ) :   1.2908 B(  2-C ,  6-C ) :   0.9991
B(  3-C ,  4-C ) :   1.5368 B(  3-C ,  5-H ) :   0.9873 B(  4-C , 20-C ) :   1.0570
B(  6-C ,  7-H ) :   0.9441 B(  6-C ,  8-H ) :   0.9467 B(  6-C ,  9-C ) :   1.0462
B(  9-C , 10-H ) :   0.9613 B(  9-C , 11-H ) :   0.9681 B(  9-C , 12-C ) :   1.0643
B( 12-C , 13-H ) :   0.9768 B( 12-C , 14-H ) :   0.9771 B( 12-C , 15-H ) :   0.9770
B( 16-S , 17-C ) :   1.1268 B( 16-S , 20-C ) :   1.1409 B( 17-C , 18-C ) :   1.6376
B( 17-C , 33-H ) :   0.9712 B( 18-C , 19-C ) :   1.2111 B( 18-C , 21-H ) :   0.9911
B( 19-C , 20-C ) :   1.5831 B( 19-C , 22-C ) :   1.0608 B( 22-C , 23-H ) :   0.9232
B( 22-C , 24-H ) :   0.9132 B( 22-C , 25-C ) :   1.0739 B( 25-C , 26-H ) :   0.9482
B( 25-C , 27-H ) :   0.9525 B( 25-C , 28-C ) :   1.0781 B( 28-C , 29-H ) :   0.9721
B( 28-C , 30-H ) :   0.9684 B( 28-C , 31-H ) :   0.9708

Dispersion correction           -0.014209502
FINAL SINGLE POINT ENERGY     -1339.871768383444

DIPOLE MOMENT
-------------
                                X             Y             Z
Electronic contribution:     10.37253      -1.78831      11.25129
Nuclear contribution   :    -10.86462       1.81010     -11.31454
                        -----------------------------------------
Total Dipole Moment    :     -0.49210       0.02179      -0.06325
                        -----------------------------------------
Magnitude (a.u.)       :      0.49662
Magnitude (Debye)      :      1.26231

Rotational constants in cm-1:     0.025256     0.007224     0.005996
Rotational constants in MHz :   757.166743   216.569962   179.758186

                             ****ORCA TERMINATED NORMALLY****
TOTAL RUN TIME: 0 days 0 hours 0 minutes 21 seconds 200 msec
