                         Program Version 4.2.1 -  RELEASE  -
|  1> ! wB97X-D3 SP def2-SVP
|  2> %pal
|  3> nprocs 24
|  4> end
|  5>
|  6> * xyz 0 1
|  7> S 	 -119.058 	 59.1973 	 -38.4503
|  8> C 	 -118.244 	 57.9245 	 -37.5637
|  9> C 	 -117.553 	 58.3924 	 -36.4964
| 10> C 	 -117.653 	 59.8653 	 -36.4283
| 11> C 	 -118.338 	 60.4374 	 -37.4554
| 12> H 	 -117.196 	 60.3591 	 -35.6411
| 13> C 	 -116.758 	 57.5675 	 -35.4693
| 14> H 	 -117.393 	 56.8865 	 -34.9566
| 15> H 	 -116.519 	 58.2471 	 -34.6934
| 16> C 	 -115.48 	 56.8149 	 -36.0053
| 17> H 	 -115.683 	 56.4412 	 -37.0462
| 18> H 	 -114.602 	 57.4741 	 -36.2
| 19> C 	 -115.05 	 55.711 	 -35.0898
| 20> H 	 -114.77 	 56.2187 	 -34.0901
| 21> H 	 -115.925 	 55.0857 	 -34.8655
| 22> H 	 -114.264 	 55.1518 	 -35.5108
| 23> S 	 -117.19 	 62.9455 	 -37.3793
| 24> C 	 -118.052 	 64.3299 	 -37.9118
| 25> C 	 -119.388 	 64.0197 	 -38.2133
| 26> C 	 -119.697 	 62.6516 	 -37.9751
| 27> C 	 -118.564 	 61.8968 	 -37.5968
| 28> H 	 -120.102 	 64.7923 	 -38.4647
| 29> C 	 -121.111 	 62.1184 	 -38.0853
| 30> H 	 -121.168 	 61.2088 	 -38.6996
| 31> H 	 -121.72 	 62.7523 	 -38.772
| 32> C 	 -121.921 	 62.0877 	 -36.74
| 33> H 	 -122.936 	 62.1285 	 -36.9935
| 34> H 	 -121.704 	 62.9759 	 -36.2002
| 35> C 	 -121.507 	 60.9887 	 -35.7973
| 36> H 	 -122.052 	 61.1693 	 -34.806
| 37> H 	 -120.498 	 61.1936 	 -35.5232
| 38> H 	 -121.674 	 59.9044 	 -36.133
| 39> H 	 -118.096 	 56.9032 	 -38.0008
| 40> H 	 -117.557 	 65.3004 	 -38.1931
| 41> *
| 42>
| 43>                          ****END OF INPUT****

CARTESIAN COORDINATES (ANGSTROEM)
---------------------------------
  S    -119.058000   59.197300  -38.450300
  C    -118.244000   57.924500  -37.563700
  C    -117.553000   58.392400  -36.496400
  C    -117.653000   59.865300  -36.428300
  C    -118.338000   60.437400  -37.455400
  H    -117.196000   60.359100  -35.641100
  C    -116.758000   57.567500  -35.469300
  H    -117.393000   56.886500  -34.956600
  H    -116.519000   58.247100  -34.693400
  C    -115.480000   56.814900  -36.005300
  H    -115.683000   56.441200  -37.046200
  H    -114.602000   57.474100  -36.200000
  C    -115.050000   55.711000  -35.089800
  H    -114.770000   56.218700  -34.090100
  H    -115.925000   55.085700  -34.865500
  H    -114.264000   55.151800  -35.510800
  S    -117.190000   62.945500  -37.379300
  C    -118.052000   64.329900  -37.911800
  C    -119.388000   64.019700  -38.213300
  C    -119.697000   62.651600  -37.975100
  C    -118.564000   61.896800  -37.596800
  H    -120.102000   64.792300  -38.464700
  C    -121.111000   62.118400  -38.085300
  H    -121.168000   61.208800  -38.699600
  H    -121.720000   62.752300  -38.772000
  C    -121.921000   62.087700  -36.740000
  H    -122.936000   62.128500  -36.993500
  H    -121.704000   62.975900  -36.200200
  C    -121.507000   60.988700  -35.797300
  H    -122.052000   61.169300  -34.806000
  H    -120.498000   61.193600  -35.523200
  H    -121.674000   59.904400  -36.133000
  H    -118.096000   56.903200  -38.000800
  H    -117.557000   65.300400  -38.193100

 Total Charge           Charge          ....    0
 Multiplicity           Mult            ....    1
 Number of Electrons    NEL             ....  134
 Basis Dimension        Dim             ....  322

ORBITAL ENERGIES
----------------

  NO   OCC          E(Eh)            E(eV)
   0   2.0000     -88.969494     -2420.9830
   1   2.0000     -88.965473     -2420.8736
   2   2.0000     -10.331539      -281.1355
   3   2.0000     -10.330563      -281.1089
   4   2.0000     -10.320385      -280.8320
   5   2.0000     -10.313496      -280.6445
   6   2.0000     -10.305211      -280.4191
   7   2.0000     -10.302268      -280.3390
   8   2.0000     -10.295620      -280.1581
   9   2.0000     -10.293057      -280.0883
  10   2.0000     -10.292396      -280.0703
  11   2.0000     -10.291917      -280.0573
  12   2.0000     -10.289112      -279.9810
  13   2.0000     -10.281655      -279.7781
  14   2.0000     -10.276438      -279.6361
  15   2.0000     -10.274495      -279.5832
  16   2.0000      -8.084572      -219.9924
  17   2.0000      -8.080054      -219.8694
  18   2.0000      -6.042924      -164.4363
  19   2.0000      -6.038898      -164.3268
  20   2.0000      -6.038874      -164.3261
  21   2.0000      -6.035619      -164.2376
  22   2.0000      -6.034547      -164.2084
  23   2.0000      -6.030548      -164.0995
  24   2.0000      -1.006475       -27.3876
  25   2.0000      -0.985264       -26.8104
  26   2.0000      -0.909082       -24.7374
  27   2.0000      -0.905008       -24.6265
  28   2.0000      -0.868883       -23.6435
  29   2.0000      -0.852770       -23.2051
  30   2.0000      -0.845526       -23.0079
  31   2.0000      -0.811060       -22.0701
  32   2.0000      -0.781903       -21.2767
  33   2.0000      -0.770775       -20.9739
  34   2.0000      -0.701987       -19.1020
  35   2.0000      -0.697053       -18.9678
  36   2.0000      -0.687723       -18.7139
  37   2.0000      -0.661775       -18.0078
  38   2.0000      -0.639132       -17.3917
  39   2.0000      -0.619127       -16.8473
  40   2.0000      -0.597531       -16.2597
  41   2.0000      -0.569711       -15.5026
  42   2.0000      -0.555990       -15.1293
  43   2.0000      -0.548318       -14.9205
  44   2.0000      -0.534604       -14.5473
  45   2.0000      -0.531532       -14.4637
  46   2.0000      -0.517457       -14.0807
  47   2.0000      -0.511185       -13.9100
  48   2.0000      -0.498845       -13.5743
  49   2.0000      -0.497994       -13.5511
  50   2.0000      -0.489417       -13.3177
  51   2.0000      -0.477101       -12.9826
  52   2.0000      -0.472806       -12.8657
  53   2.0000      -0.463362       -12.6087
  54   2.0000      -0.460797       -12.5389
  55   2.0000      -0.447375       -12.1737
  56   2.0000      -0.443321       -12.0634
  57   2.0000      -0.437755       -11.9119
  58   2.0000      -0.428026       -11.6472
  59   2.0000      -0.421984       -11.4828
  60   2.0000      -0.416402       -11.3309
  61   2.0000      -0.411532       -11.1983
  62   2.0000      -0.408992       -11.1292
  63   2.0000      -0.354216        -9.6387
  64   2.0000      -0.332987        -9.0610
  65   2.0000      -0.328129        -8.9288
  66   2.0000      -0.288684        -7.8555
  67   0.0000       0.029460         0.8016
  68   0.0000       0.069878         1.9015
  69   0.0000       0.106840         2.9073
  70   0.0000       0.123388         3.3576
  71   0.0000       0.129017         3.5107

MULLIKEN ATOMIC CHARGES
-----------------------
   0 S :    0.102191
   1 C :   -0.154016
   2 C :   -0.096078
   3 C :    0.019406
   4 C :   -0.084543
   5 H :   -0.016813
   6 C :    0.114036
   7 H :    0.021950
   8 H :    0.001246
   9 C :   -0.102108
  10 H :    0.026616
  11 H :    0.036531
  12 C :   -0.042862
  13 H :    0.039220
  14 H :    0.032155
  15 H :    0.036783
  16 S :    0.122801
  17 C :   -0.119361
  18 C :   -0.034145
  19 C :   -0.050939
  20 C :   -0.163580
  21 H :    0.022968
  22 C :    0.026137
  23 H :    0.027510
  24 H :    0.010065
  25 C :   -0.002732
  26 H :    0.017283
  27 H :    0.010712
  28 C :   -0.068087
  29 H :    0.030500
  30 H :    0.029698
  31 H :    0.052794
  32 H :    0.071772
  33 H :    0.082889
Sum of atomic charges:   -0.0000000

LOEWDIN ATOMIC CHARGES
----------------------
   0 S :    0.405175
   1 C :   -0.202919
   2 C :   -0.058393
   3 C :   -0.062461
   4 C :   -0.187823
   5 H :    0.014656
   6 C :   -0.025310
   7 H :    0.028517
   8 H :    0.024770
   9 C :   -0.046110
  10 H :    0.022474
  11 H :    0.028252
  12 C :   -0.065536
  13 H :    0.035429
  14 H :    0.024561
  15 H :    0.021241
  16 S :    0.438465
  17 C :   -0.212747
  18 C :   -0.070470
  19 C :   -0.062806
  20 C :   -0.201463
  21 H :    0.032531
  22 C :   -0.042157
  23 H :    0.025089
  24 H :    0.032073
  25 C :   -0.030036
  26 H :    0.015397
  27 H :    0.024390
  28 C :   -0.072770
  29 H :    0.031685
  30 H :    0.021862
  31 H :    0.032092
  32 H :    0.039377
  33 H :    0.042964

  Mayer bond orders larger than 0.100000
B(  0-S ,  1-C ) :   1.1239 B(  0-S ,  4-C ) :   1.1370 B(  1-C ,  2-C ) :   1.6557
B(  1-C , 32-H ) :   0.9558 B(  2-C ,  3-C ) :   1.2298 B(  2-C ,  6-C ) :   1.0158
B(  3-C ,  4-C ) :   1.5726 B(  3-C ,  5-H ) :   1.0039 B(  4-C , 20-C ) :   1.0344
B(  6-C ,  7-H ) :   0.9443 B(  6-C ,  8-H ) :   0.9317 B(  6-C ,  9-C ) :   1.0406
B(  9-C , 10-H ) :   0.9628 B(  9-C , 11-H ) :   0.9541 B(  9-C , 12-C ) :   1.0817
B( 12-C , 13-H ) :   0.9723 B( 12-C , 14-H ) :   0.9758 B( 12-C , 15-H ) :   0.9720
B( 16-S , 17-C ) :   1.1802 B( 16-S , 20-C ) :   1.1669 B( 17-C , 18-C ) :   1.5632
B( 17-C , 20-C ) :   0.1035 B( 17-C , 33-H ) :   0.9590 B( 18-C , 19-C ) :   1.2930
B( 18-C , 21-H ) :   0.9892 B( 19-C , 20-C ) :   1.5338 B( 19-C , 22-C ) :   1.0476
B( 22-C , 23-H ) :   0.9371 B( 22-C , 24-H ) :   0.9317 B( 22-C , 25-C ) :   1.0601
B( 25-C , 26-H ) :   0.9569 B( 25-C , 27-H ) :   0.9491 B( 25-C , 28-C ) :   1.0859
B( 28-C , 29-H ) :   0.9691 B( 28-C , 30-H ) :   0.9700 B( 28-C , 31-H ) :   0.9751

Dispersion correction           -0.014987719
FINAL SINGLE POINT ENERGY     -1339.876092086208

DIPOLE MOMENT
-------------
                                X             Y             Z
Electronic contribution:      2.16457      13.55845     -12.60062
Nuclear contribution   :     -2.13465     -13.61280      12.80654
                        -----------------------------------------
Total Dipole Moment    :      0.02993      -0.05435       0.20592
                        -----------------------------------------
Magnitude (a.u.)       :      0.21506
Magnitude (Debye)      :      0.54664

Rotational constants in cm-1:     0.023437     0.007597     0.006562
Rotational constants in MHz :   702.609874   227.748579   196.734293

                             ****ORCA TERMINATED NORMALLY****
TOTAL RUN TIME: 0 days 0 hours 0 minutes 20 seconds 505 msec
