                         Program Version 4.2.1 -  RELEASE  -
|  1> ! wB97X-D3 SP def2-SVP
|  2> %pal
|  3> nprocs 24
|  4> end
|  5>
|  6> * xyz 0 1
|  7> S 	 -110.224 	 73.1859 	 -9.98741
|  8> C 	 -108.811 	 73.6166 	 -10.8822
|  9> C 	 -107.789 	 72.7134 	 -10.5502
| 10> C 	 -108.294 	 71.5453 	 -9.79726
| 11> C 	 -109.646 	 71.6137 	 -9.51123
| 12> H 	 -107.729 	 70.6943 	 -9.4554
| 13> C 	 -106.338 	 72.9636 	 -10.9138
| 14> H 	 -106.34 	 73.3408 	 -11.8948
| 15> H 	 -105.854 	 72.0045 	 -10.8392
| 16> C 	 -105.592 	 73.9664 	 -10.057
| 17> H 	 -106.167 	 74.8609 	 -9.84494
| 18> H 	 -105.424 	 73.4039 	 -9.12034
| 19> C 	 -104.185 	 74.5178 	 -10.5078
| 20> H 	 -104.256 	 75.131 	 -11.4084
| 21> H 	 -103.74 	 75.1544 	 -9.69585
| 22> H 	 -103.451 	 73.6842 	 -10.6805
| 23> S 	 -111.433 	 71.2715 	 -7.44873
| 24> C 	 -112.368 	 69.7812 	 -7.28413
| 25> C 	 -111.846 	 68.8513 	 -8.13177
| 26> C 	 -110.835 	 69.3331 	 -9.03887
| 27> C 	 -110.461 	 70.644 	 -8.75376
| 28> H 	 -112.291 	 67.8616 	 -8.07289
| 29> C 	 -110.346 	 68.3177 	 -10.035
| 30> H 	 -110.138 	 67.3233 	 -9.70249
| 31> H 	 -109.303 	 68.6827 	 -10.2667
| 32> C 	 -111.173 	 68.1197 	 -11.3512
| 33> H 	 -110.548 	 67.483 	 -12.0137
| 34> H 	 -111.315 	 69.0813 	 -11.8765
| 35> C 	 -112.518 	 67.4767 	 -11.0594
| 36> H 	 -112.338 	 66.5801 	 -10.4128
| 37> H 	 -113.213 	 67.2204 	 -11.8607
| 38> H 	 -113.097 	 67.9827 	 -10.2788
| 39> H 	 -108.572 	 74.5705 	 -11.3412
| 40> H 	 -113.221 	 69.5831 	 -6.61633
| 41> *
| 42>
| 43>                          ****END OF INPUT****

CARTESIAN COORDINATES (ANGSTROEM)
---------------------------------
  S    -110.224000   73.185900   -9.987410
  C    -108.811000   73.616600  -10.882200
  C    -107.789000   72.713400  -10.550200
  C    -108.294000   71.545300   -9.797260
  C    -109.646000   71.613700   -9.511230
  H    -107.729000   70.694300   -9.455400
  C    -106.338000   72.963600  -10.913800
  H    -106.340000   73.340800  -11.894800
  H    -105.854000   72.004500  -10.839200
  C    -105.592000   73.966400  -10.057000
  H    -106.167000   74.860900   -9.844940
  H    -105.424000   73.403900   -9.120340
  C    -104.185000   74.517800  -10.507800
  H    -104.256000   75.131000  -11.408400
  H    -103.740000   75.154400   -9.695850
  H    -103.451000   73.684200  -10.680500
  S    -111.433000   71.271500   -7.448730
  C    -112.368000   69.781200   -7.284130
  C    -111.846000   68.851300   -8.131770
  C    -110.835000   69.333100   -9.038870
  C    -110.461000   70.644000   -8.753760
  H    -112.291000   67.861600   -8.072890
  C    -110.346000   68.317700  -10.035000
  H    -110.138000   67.323300   -9.702490
  H    -109.303000   68.682700  -10.266700
  C    -111.173000   68.119700  -11.351200
  H    -110.548000   67.483000  -12.013700
  H    -111.315000   69.081300  -11.876500
  C    -112.518000   67.476700  -11.059400
  H    -112.338000   66.580100  -10.412800
  H    -113.213000   67.220400  -11.860700
  H    -113.097000   67.982700  -10.278800
  H    -108.572000   74.570500  -11.341200
  H    -113.221000   69.583100   -6.616330

 Total Charge           Charge          ....    0
 Multiplicity           Mult            ....    1
 Number of Electrons    NEL             ....  134
 Basis Dimension        Dim             ....  322

ORBITAL ENERGIES
----------------

  NO   OCC          E(Eh)            E(eV)
   0   2.0000     -88.966159     -2420.8923
   1   2.0000     -88.966004     -2420.8881
   2   2.0000     -10.334739      -281.2225
   3   2.0000     -10.333593      -281.1914
   4   2.0000     -10.320044      -280.8227
   5   2.0000     -10.315776      -280.7065
   6   2.0000     -10.308586      -280.5109
   7   2.0000     -10.308307      -280.5033
   8   2.0000     -10.299855      -280.2733
   9   2.0000     -10.294738      -280.1341
  10   2.0000     -10.292117      -280.0627
  11   2.0000     -10.292067      -280.0614
  12   2.0000     -10.289340      -279.9872
  13   2.0000     -10.288177      -279.9555
  14   2.0000     -10.286625      -279.9133
  15   2.0000     -10.277541      -279.6661
  16   2.0000      -8.081101      -219.8979
  17   2.0000      -8.080704      -219.8871
  18   2.0000      -6.039670      -164.3478
  19   2.0000      -6.039375      -164.3398
  20   2.0000      -6.035492      -164.2341
  21   2.0000      -6.035079      -164.2229
  22   2.0000      -6.031831      -164.1345
  23   2.0000      -6.031403      -164.1228
  24   2.0000      -1.007769       -27.4228
  25   2.0000      -0.985658       -26.8211
  26   2.0000      -0.911778       -24.8107
  27   2.0000      -0.906691       -24.6723
  28   2.0000      -0.870830       -23.6965
  29   2.0000      -0.846678       -23.0393
  30   2.0000      -0.840456       -22.8700
  31   2.0000      -0.820562       -22.3286
  32   2.0000      -0.781884       -21.2761
  33   2.0000      -0.772879       -21.0311
  34   2.0000      -0.709030       -19.2937
  35   2.0000      -0.696967       -18.9654
  36   2.0000      -0.690929       -18.8011
  37   2.0000      -0.661214       -17.9925
  38   2.0000      -0.642039       -17.4708
  39   2.0000      -0.618790       -16.8381
  40   2.0000      -0.596859       -16.2414
  41   2.0000      -0.575329       -15.6555
  42   2.0000      -0.564271       -15.3546
  43   2.0000      -0.550015       -14.9667
  44   2.0000      -0.539590       -14.6830
  45   2.0000      -0.519241       -14.1293
  46   2.0000      -0.513731       -13.9793
  47   2.0000      -0.513080       -13.9616
  48   2.0000      -0.510216       -13.8837
  49   2.0000      -0.507158       -13.8005
  50   2.0000      -0.485681       -13.2160
  51   2.0000      -0.481302       -13.0969
  52   2.0000      -0.474625       -12.9152
  53   2.0000      -0.470023       -12.7900
  54   2.0000      -0.459493       -12.5034
  55   2.0000      -0.450212       -12.2509
  56   2.0000      -0.439698       -11.9648
  57   2.0000      -0.434769       -11.8307
  58   2.0000      -0.427635       -11.6365
  59   2.0000      -0.417699       -11.3662
  60   2.0000      -0.415783       -11.3140
  61   2.0000      -0.412135       -11.2148
  62   2.0000      -0.410055       -11.1582
  63   2.0000      -0.349998        -9.5239
  64   2.0000      -0.331344        -9.0163
  65   2.0000      -0.323841        -8.8122
  66   2.0000      -0.298161        -8.1134
  67   0.0000       0.028559         0.7771
  68   0.0000       0.064264         1.7487
  69   0.0000       0.109192         2.9713
  70   0.0000       0.121561         3.3079
  71   0.0000       0.129355         3.5199

MULLIKEN ATOMIC CHARGES
-----------------------
   0 S :    0.117113
   1 C :   -0.101327
   2 C :   -0.142202
   3 C :    0.037867
   4 C :   -0.140702
   5 H :    0.014544
   6 C :    0.123053
   7 H :    0.010723
   8 H :    0.017568
   9 C :   -0.089212
  10 H :    0.028344
  11 H :    0.027672
  12 C :   -0.080239
  13 H :    0.036835
  14 H :    0.047389
  15 H :    0.037170
  16 S :    0.094370
  17 C :   -0.101987
  18 C :   -0.043170
  19 C :   -0.007394
  20 C :   -0.156034
  21 H :    0.024066
  22 C :    0.022556
  23 H :    0.026863
  24 H :    0.018230
  25 C :   -0.040386
  26 H :    0.036818
  27 H :    0.041219
  28 C :   -0.064225
  29 H :    0.005926
  30 H :    0.048282
  31 H :    0.026703
  32 H :    0.055453
  33 H :    0.068114
Sum of atomic charges:    0.0000000

LOEWDIN ATOMIC CHARGES
----------------------
   0 S :    0.422750
   1 C :   -0.209105
   2 C :   -0.054956
   3 C :   -0.065019
   4 C :   -0.199068
   5 H :    0.029164
   6 C :   -0.031675
   7 H :    0.024171
   8 H :    0.029499
   9 C :   -0.043542
  10 H :    0.021393
  11 H :    0.026955
  12 C :   -0.072983
  13 H :    0.021589
  14 H :    0.034842
  15 H :    0.026963
  16 S :    0.400322
  17 C :   -0.183442
  18 C :   -0.074440
  19 C :   -0.055060
  20 C :   -0.198058
  21 H :    0.032188
  22 C :   -0.035958
  23 H :    0.028028
  24 H :    0.034448
  25 C :   -0.034168
  26 H :    0.028013
  27 H :    0.027949
  28 C :   -0.082478
  29 H :    0.024225
  30 H :    0.028179
  31 H :    0.026412
  32 H :    0.033057
  33 H :    0.039805

  Mayer bond orders larger than 0.100000
B(  0-S ,  1-C ) :   1.1465 B(  0-S ,  4-C ) :   1.1577 B(  1-C ,  2-C ) :   1.5926
B(  1-C , 32-H ) :   0.9679 B(  2-C ,  3-C ) :   1.2410 B(  2-C ,  6-C ) :   1.0361
B(  3-C ,  4-C ) :   1.5675 B(  3-C ,  5-H ) :   0.9935 B(  4-C , 20-C ) :   1.0285
B(  6-C ,  7-H ) :   0.9331 B(  6-C ,  8-H ) :   0.9380 B(  6-C ,  9-C ) :   1.0637
B(  9-C , 10-H ) :   0.9599 B(  9-C , 11-H ) :   0.9554 B(  9-C , 12-C ) :   1.0775
B( 12-C , 13-H ) :   0.9760 B( 12-C , 14-H ) :   0.9750 B( 12-C , 15-H ) :   0.9764
B( 16-S , 17-C ) :   1.1400 B( 16-S , 20-C ) :   1.1403 B( 17-C , 18-C ) :   1.6315
B( 17-C , 33-H ) :   0.9628 B( 18-C , 19-C ) :   1.2246 B( 18-C , 21-H ) :   0.9829
B( 19-C , 20-C ) :   1.6042 B( 19-C , 22-C ) :   1.0344 B( 22-C , 23-H ) :   0.9471
B( 22-C , 24-H ) :   0.9296 B( 22-C , 25-C ) :   1.0699 B( 25-C , 26-H ) :   0.9560
B( 25-C , 27-H ) :   0.9557 B( 25-C , 28-C ) :   1.0718 B( 28-C , 29-H ) :   0.9657
B( 28-C , 30-H ) :   0.9736 B( 28-C , 31-H ) :   0.9658

Dispersion correction           -0.013763359
FINAL SINGLE POINT ENERGY     -1339.868885583171

DIPOLE MOMENT
-------------
                                X             Y             Z
Electronic contribution:    -15.40691       7.53398      11.88466
Nuclear contribution   :     15.73180      -7.85264     -11.99895
                        -----------------------------------------
Total Dipole Moment    :      0.32489      -0.31866      -0.11429
                        -----------------------------------------
Magnitude (a.u.)       :      0.46921
Magnitude (Debye)      :      1.19264

Rotational constants in cm-1:     0.024181     0.006744     0.005996
Rotational constants in MHz :   724.915983   202.166140   179.764557

                             ****ORCA TERMINATED NORMALLY****
TOTAL RUN TIME: 0 days 0 hours 0 minutes 20 seconds 814 msec
