                         Program Version 4.2.1 -  RELEASE  -
|  1> ! wB97X-D3 SP def2-SVP
|  2> %pal
|  3> nprocs 24
|  4> end
|  5>
|  6> * xyz 0 1
|  7> S 	 41.649 	 -14.817 	 -122.367
|  8> C 	 39.9646 	 -14.0892 	 -122.474
|  9> C 	 39.8686 	 -13.3302 	 -123.65
| 10> C 	 41.1017 	 -13.3487 	 -124.437
| 11> C 	 42.1525 	 -14.1251 	 -123.889
| 12> H 	 41.2409 	 -12.8883 	 -125.44
| 13> C 	 38.5691 	 -12.6587 	 -124.08
| 14> H 	 37.8184 	 -12.6241 	 -123.325
| 15> H 	 38.2438 	 -13.3813 	 -124.861
| 16> C 	 38.6294 	 -11.2462 	 -124.627
| 17> H 	 38.9823 	 -11.3573 	 -125.64
| 18> H 	 37.6237 	 -10.7575 	 -124.699
| 19> C 	 39.433 	 -10.2505 	 -123.776
| 20> H 	 40.4767 	 -10.5083 	 -123.726
| 21> H 	 39.4022 	 -9.24617 	 -124.249
| 22> H 	 39.1127 	 -10.1068 	 -122.768
| 23> S 	 43.7817 	 -16.3405 	 -124.328
| 24> C 	 44.8793 	 -16.3172 	 -125.694
| 25> C 	 45.0635 	 -15.0493 	 -126.159
| 26> C 	 44.1185 	 -14.0998 	 -125.643
| 27> C 	 43.3178 	 -14.6355 	 -124.614
| 28> H 	 45.8095 	 -14.8541 	 -126.947
| 29> C 	 44.1217 	 -12.6179 	 -126.159
| 30> H 	 45.1042 	 -12.1692 	 -126.258
| 31> H 	 43.632 	 -12.0263 	 -125.344
| 32> C 	 43.4472 	 -12.3512 	 -127.522
| 33> H 	 42.5439 	 -12.9467 	 -127.576
| 34> H 	 44.1222 	 -12.5048 	 -128.342
| 35> C 	 42.9938 	 -10.9435 	 -127.57
| 36> H 	 42.3428 	 -10.7303 	 -126.742
| 37> H 	 42.5305 	 -10.8221 	 -128.528
| 38> H 	 43.8844 	 -10.2683 	 -127.385
| 39> H 	 39.1621 	 -14.316 	 -121.801
| 40> H 	 45.4195 	 -17.1415 	 -126.03
| 41> *
| 42>
| 43>                          ****END OF INPUT****

CARTESIAN COORDINATES (ANGSTROEM)
---------------------------------
  S     41.649000  -14.817000  -122.367000
  C     39.964600  -14.089200  -122.474000
  C     39.868600  -13.330200  -123.650000
  C     41.101700  -13.348700  -124.437000
  C     42.152500  -14.125100  -123.889000
  H     41.240900  -12.888300  -125.440000
  C     38.569100  -12.658700  -124.080000
  H     37.818400  -12.624100  -123.325000
  H     38.243800  -13.381300  -124.861000
  C     38.629400  -11.246200  -124.627000
  H     38.982300  -11.357300  -125.640000
  H     37.623700  -10.757500  -124.699000
  C     39.433000  -10.250500  -123.776000
  H     40.476700  -10.508300  -123.726000
  H     39.402200   -9.246170  -124.249000
  H     39.112700  -10.106800  -122.768000
  S     43.781700  -16.340500  -124.328000
  C     44.879300  -16.317200  -125.694000
  C     45.063500  -15.049300  -126.159000
  C     44.118500  -14.099800  -125.643000
  C     43.317800  -14.635500  -124.614000
  H     45.809500  -14.854100  -126.947000
  C     44.121700  -12.617900  -126.159000
  H     45.104200  -12.169200  -126.258000
  H     43.632000  -12.026300  -125.344000
  C     43.447200  -12.351200  -127.522000
  H     42.543900  -12.946700  -127.576000
  H     44.122200  -12.504800  -128.342000
  C     42.993800  -10.943500  -127.570000
  H     42.342800  -10.730300  -126.742000
  H     42.530500  -10.822100  -128.528000
  H     43.884400  -10.268300  -127.385000
  H     39.162100  -14.316000  -121.801000
  H     45.419500  -17.141500  -126.030000

 Total Charge           Charge          ....    0
 Multiplicity           Mult            ....    1
 Number of Electrons    NEL             ....  134
 Basis Dimension        Dim             ....  322

ORBITAL ENERGIES
----------------

  NO   OCC          E(Eh)            E(eV)
   0   2.0000     -88.966855     -2420.9112
   1   2.0000     -88.965834     -2420.8834
   2   2.0000     -10.339802      -281.3603
   3   2.0000     -10.337070      -281.2860
   4   2.0000     -10.322572      -280.8915
   5   2.0000     -10.314232      -280.6645
   6   2.0000     -10.313987      -280.6579
   7   2.0000     -10.311864      -280.6001
   8   2.0000     -10.306077      -280.4426
   9   2.0000     -10.297627      -280.2127
  10   2.0000     -10.295635      -280.1585
  11   2.0000     -10.294147      -280.1180
  12   2.0000     -10.289891      -280.0022
  13   2.0000     -10.281761      -279.7809
  14   2.0000     -10.276504      -279.6379
  15   2.0000     -10.274175      -279.5745
  16   2.0000      -8.080269      -219.8753
  17   2.0000      -8.080078      -219.8701
  18   2.0000      -6.038979      -164.3290
  19   2.0000      -6.038720      -164.3219
  20   2.0000      -6.034970      -164.2199
  21   2.0000      -6.034703      -164.2126
  22   2.0000      -6.030881      -164.1086
  23   2.0000      -6.030654      -164.1024
  24   2.0000      -0.999407       -27.1952
  25   2.0000      -0.974309       -26.5123
  26   2.0000      -0.916588       -24.9416
  27   2.0000      -0.914007       -24.8714
  28   2.0000      -0.868141       -23.6233
  29   2.0000      -0.852704       -23.2032
  30   2.0000      -0.836535       -22.7633
  31   2.0000      -0.813014       -22.1232
  32   2.0000      -0.785273       -21.3684
  33   2.0000      -0.772965       -21.0334
  34   2.0000      -0.709045       -19.2941
  35   2.0000      -0.696971       -18.9655
  36   2.0000      -0.694091       -18.8872
  37   2.0000      -0.657871       -17.9016
  38   2.0000      -0.637598       -17.3499
  39   2.0000      -0.617445       -16.8015
  40   2.0000      -0.599346       -16.3090
  41   2.0000      -0.579245       -15.7620
  42   2.0000      -0.566806       -15.4236
  43   2.0000      -0.553226       -15.0540
  44   2.0000      -0.542620       -14.7654
  45   2.0000      -0.535597       -14.5743
  46   2.0000      -0.518660       -14.1135
  47   2.0000      -0.511430       -13.9167
  48   2.0000      -0.504239       -13.7210
  49   2.0000      -0.497177       -13.5289
  50   2.0000      -0.489641       -13.3238
  51   2.0000      -0.482106       -13.1188
  52   2.0000      -0.476079       -12.9548
  53   2.0000      -0.465449       -12.6655
  54   2.0000      -0.456601       -12.4247
  55   2.0000      -0.446654       -12.1541
  56   2.0000      -0.442919       -12.0524
  57   2.0000      -0.439759       -11.9664
  58   2.0000      -0.431972       -11.7546
  59   2.0000      -0.422168       -11.4878
  60   2.0000      -0.419008       -11.4018
  61   2.0000      -0.414019       -11.2660
  62   2.0000      -0.409954       -11.1554
  63   2.0000      -0.355521        -9.6742
  64   2.0000      -0.332965        -9.0604
  65   2.0000      -0.326800        -8.8927
  66   2.0000      -0.284531        -7.7425
  67   0.0000       0.016844         0.4584
  68   0.0000       0.071764         1.9528
  69   0.0000       0.102553         2.7906
  70   0.0000       0.114330         3.1111
  71   0.0000       0.121028         3.2934

MULLIKEN ATOMIC CHARGES
-----------------------
   0 S :    0.076879
   1 C :   -0.129390
   2 C :   -0.087339
   3 C :    0.001346
   4 C :   -0.110869
   5 H :    0.016245
   6 C :    0.070260
   7 H :    0.013836
   8 H :    0.053682
   9 C :   -0.085978
  10 H :    0.024998
  11 H :    0.038655
  12 C :   -0.047587
  13 H :    0.031706
  14 H :    0.033208
  15 H :    0.028022
  16 S :    0.095553
  17 C :   -0.070221
  18 C :   -0.020918
  19 C :   -0.038534
  20 C :   -0.129311
  21 H :    0.028571
  22 C :    0.000893
  23 H :    0.028926
  24 H :    0.032149
  25 C :   -0.046806
  26 H :    0.029055
  27 H :    0.030389
  28 C :   -0.046620
  29 H :    0.024825
  30 H :    0.037490
  31 H :    0.027994
  32 H :    0.051890
  33 H :    0.037004
Sum of atomic charges:   -0.0000000

LOEWDIN ATOMIC CHARGES
----------------------
   0 S :    0.368096
   1 C :   -0.176078
   2 C :   -0.051289
   3 C :   -0.075524
   4 C :   -0.186480
   5 H :    0.033238
   6 C :   -0.033618
   7 H :    0.024663
   8 H :    0.044568
   9 C :   -0.045821
  10 H :    0.020043
  11 H :    0.033299
  12 C :   -0.066303
  13 H :    0.021924
  14 H :    0.031119
  15 H :    0.022695
  16 S :    0.387096
  17 C :   -0.169059
  18 C :   -0.072003
  19 C :   -0.053405
  20 C :   -0.184309
  21 H :    0.036639
  22 C :   -0.034425
  23 H :    0.030394
  24 H :    0.031851
  25 C :   -0.040242
  26 H :    0.021190
  27 H :    0.022865
  28 C :   -0.059843
  29 H :    0.018777
  30 H :    0.024891
  31 H :    0.029073
  32 H :    0.027366
  33 H :    0.018613

  Mayer bond orders larger than 0.100000
B(  0-S ,  1-C ) :   1.1053 B(  0-S ,  4-C ) :   1.1480 B(  1-C ,  2-C ) :   1.6208
B(  1-C , 32-H ) :   0.9742 B(  2-C ,  3-C ) :   1.2252 B(  2-C ,  6-C ) :   1.0136
B(  3-C ,  4-C ) :   1.5575 B(  3-C ,  5-H ) :   0.9802 B(  4-C , 20-C ) :   1.0691
B(  6-C ,  7-H ) :   0.9465 B(  6-C ,  8-H ) :   0.9397 B(  6-C ,  9-C ) :   1.0709
B(  9-C , 10-H ) :   0.9516 B(  9-C , 11-H ) :   0.9592 B(  9-C , 12-C ) :   1.0808
B( 12-C , 13-H ) :   0.9707 B( 12-C , 14-H ) :   0.9739 B( 12-C , 15-H ) :   0.9755
B( 16-S , 17-C ) :   1.1480 B( 16-S , 20-C ) :   1.1218 B( 17-C , 18-C ) :   1.6189
B( 17-C , 33-H ) :   0.9744 B( 18-C , 19-C ) :   1.2380 B( 18-C , 21-H ) :   0.9863
B( 19-C , 20-C ) :   1.5935 B( 19-C , 22-C ) :   1.0330 B( 22-C , 23-H ) :   0.9396
B( 22-C , 24-H ) :   0.9480 B( 22-C , 25-C ) :   1.0548 B( 25-C , 26-H ) :   0.9538
B( 25-C , 27-H ) :   0.9511 B( 25-C , 28-C ) :   1.0952 B( 28-C , 29-H ) :   0.9752
B( 28-C , 30-H ) :   0.9717 B( 28-C , 31-H ) :   0.9677

Dispersion correction           -0.014696243
FINAL SINGLE POINT ENERGY     -1339.870098164809

DIPOLE MOMENT
-------------
                                X             Y             Z
Electronic contribution:     10.07046     -26.68974      14.75345
Nuclear contribution   :    -10.29074      27.09599     -15.38853
                        -----------------------------------------
Total Dipole Moment    :     -0.22028       0.40624      -0.63507
                        -----------------------------------------
Magnitude (a.u.)       :      0.78542
Magnitude (Debye)      :      1.99637

Rotational constants in cm-1:     0.016966     0.010281     0.006815
Rotational constants in MHz :   508.637420   308.222541   204.298670

                             ****ORCA TERMINATED NORMALLY****
TOTAL RUN TIME: 0 days 0 hours 0 minutes 22 seconds 19 msec
