                         Program Version 4.2.1 -  RELEASE  -
|  1> ! wB97X-D3 SP def2-SVP
|  2> %pal
|  3> nprocs 24
|  4> end
|  5>
|  6> * xyz 0 1
|  7> S 	 -110.795 	 30.1041 	 -21.5226
|  8> C 	 -111.556 	 31.1717 	 -22.7379
|  9> C 	 -112.205 	 32.2131 	 -22.1475
| 10> C 	 -112.069 	 32.2273 	 -20.6846
| 11> C 	 -111.305 	 31.1375 	 -20.1907
| 12> H 	 -112.453 	 32.9455 	 -20.0351
| 13> C 	 -113.041 	 33.2737 	 -22.7901
| 14> H 	 -113.398 	 34.0351 	 -22.1262
| 15> H 	 -113.889 	 32.7197 	 -23.2104
| 16> C 	 -112.366 	 33.9906 	 -23.9724
| 17> H 	 -111.677 	 34.6773 	 -23.5134
| 18> H 	 -111.896 	 33.3352 	 -24.6017
| 19> C 	 -113.37 	 34.7558 	 -24.8882
| 20> H 	 -113.952 	 33.9958 	 -25.311
| 21> H 	 -114.03 	 35.451 	 -24.4268
| 22> H 	 -112.876 	 35.2058 	 -25.7427
| 23> S 	 -109.251 	 30.4474 	 -18.4424
| 24> C 	 -109.61 	 30.2829 	 -16.7822
| 25> C 	 -110.919 	 30.5085 	 -16.4755
| 26> C 	 -111.683 	 30.8144 	 -17.6498
| 27> C 	 -110.927 	 30.8225 	 -18.8277
| 28> H 	 -111.076 	 30.5736 	 -15.4075
| 29> C 	 -113.186 	 31.1345 	 -17.5345
| 30> H 	 -113.444 	 32.1222 	 -18.0065
| 31> H 	 -113.427 	 31.0254 	 -16.4839
| 32> C 	 -114.073 	 30.0807 	 -18.1528
| 33> H 	 -113.761 	 29.0882 	 -17.8659
| 34> H 	 -114.116 	 30.2034 	 -19.2032
| 35> C 	 -115.528 	 30.2823 	 -17.6257
| 36> H 	 -115.608 	 29.9065 	 -16.58
| 37> H 	 -116.181 	 29.6845 	 -18.2384
| 38> H 	 -115.762 	 31.3221 	 -17.6508
| 39> H 	 -111.452 	 31.0613 	 -23.7498
| 40> H 	 -108.819 	 30.1132 	 -16.1069
| 41> *
| 42>
| 43>                          ****END OF INPUT****

CARTESIAN COORDINATES (ANGSTROEM)
---------------------------------
  S    -110.795000   30.104100  -21.522600
  C    -111.556000   31.171700  -22.737900
  C    -112.205000   32.213100  -22.147500
  C    -112.069000   32.227300  -20.684600
  C    -111.305000   31.137500  -20.190700
  H    -112.453000   32.945500  -20.035100
  C    -113.041000   33.273700  -22.790100
  H    -113.398000   34.035100  -22.126200
  H    -113.889000   32.719700  -23.210400
  C    -112.366000   33.990600  -23.972400
  H    -111.677000   34.677300  -23.513400
  H    -111.896000   33.335200  -24.601700
  C    -113.370000   34.755800  -24.888200
  H    -113.952000   33.995800  -25.311000
  H    -114.030000   35.451000  -24.426800
  H    -112.876000   35.205800  -25.742700
  S    -109.251000   30.447400  -18.442400
  C    -109.610000   30.282900  -16.782200
  C    -110.919000   30.508500  -16.475500
  C    -111.683000   30.814400  -17.649800
  C    -110.927000   30.822500  -18.827700
  H    -111.076000   30.573600  -15.407500
  C    -113.186000   31.134500  -17.534500
  H    -113.444000   32.122200  -18.006500
  H    -113.427000   31.025400  -16.483900
  C    -114.073000   30.080700  -18.152800
  H    -113.761000   29.088200  -17.865900
  H    -114.116000   30.203400  -19.203200
  C    -115.528000   30.282300  -17.625700
  H    -115.608000   29.906500  -16.580000
  H    -116.181000   29.684500  -18.238400
  H    -115.762000   31.322100  -17.650800
  H    -111.452000   31.061300  -23.749800
  H    -108.819000   30.113200  -16.106900

 Total Charge           Charge          ....    0
 Multiplicity           Mult            ....    1
 Number of Electrons    NEL             ....  134
 Basis Dimension        Dim             ....  322

ORBITAL ENERGIES
----------------

  NO   OCC          E(Eh)            E(eV)
   0   2.0000     -88.965185     -2420.8658
   1   2.0000     -88.963932     -2420.8317
   2   2.0000     -10.335135      -281.2333
   3   2.0000     -10.326716      -281.0042
   4   2.0000     -10.310539      -280.5640
   5   2.0000     -10.308736      -280.5150
   6   2.0000     -10.308144      -280.4989
   7   2.0000     -10.303131      -280.3624
   8   2.0000     -10.295808      -280.1632
   9   2.0000     -10.293145      -280.0907
  10   2.0000     -10.292010      -280.0598
  11   2.0000     -10.289810      -280.0000
  12   2.0000     -10.280107      -279.7359
  13   2.0000     -10.273976      -279.5691
  14   2.0000     -10.273312      -279.5510
  15   2.0000     -10.271972      -279.5146
  16   2.0000      -8.079641      -219.8582
  17   2.0000      -8.079137      -219.8445
  18   2.0000      -6.037953      -164.3011
  19   2.0000      -6.037883      -164.2991
  20   2.0000      -6.033961      -164.1924
  21   2.0000      -6.033675      -164.1846
  22   2.0000      -6.030594      -164.1008
  23   2.0000      -6.029776      -164.0785
  24   2.0000      -1.005360       -27.3572
  25   2.0000      -0.980664       -26.6852
  26   2.0000      -0.915488       -24.9117
  27   2.0000      -0.911580       -24.8053
  28   2.0000      -0.871760       -23.7218
  29   2.0000      -0.850117       -23.1329
  30   2.0000      -0.844569       -22.9819
  31   2.0000      -0.814341       -22.1594
  32   2.0000      -0.783728       -21.3263
  33   2.0000      -0.772179       -21.0121
  34   2.0000      -0.713451       -19.4140
  35   2.0000      -0.706233       -19.2176
  36   2.0000      -0.687668       -18.7124
  37   2.0000      -0.663797       -18.0628
  38   2.0000      -0.644908       -17.5488
  39   2.0000      -0.616481       -16.7753
  40   2.0000      -0.597129       -16.2487
  41   2.0000      -0.586749       -15.9663
  42   2.0000      -0.575856       -15.6698
  43   2.0000      -0.563811       -15.3421
  44   2.0000      -0.524773       -14.2798
  45   2.0000      -0.521002       -14.1772
  46   2.0000      -0.518606       -14.1120
  47   2.0000      -0.514258       -13.9937
  48   2.0000      -0.509606       -13.8671
  49   2.0000      -0.500189       -13.6108
  50   2.0000      -0.488152       -13.2833
  51   2.0000      -0.485540       -13.2122
  52   2.0000      -0.480039       -13.0625
  53   2.0000      -0.464504       -12.6398
  54   2.0000      -0.455982       -12.4079
  55   2.0000      -0.451015       -12.2727
  56   2.0000      -0.442391       -12.0381
  57   2.0000      -0.438481       -11.9317
  58   2.0000      -0.430704       -11.7200
  59   2.0000      -0.429286       -11.6815
  60   2.0000      -0.422725       -11.5029
  61   2.0000      -0.418863       -11.3978
  62   2.0000      -0.409947       -11.1552
  63   2.0000      -0.347052        -9.4438
  64   2.0000      -0.332435        -9.0460
  65   2.0000      -0.326653        -8.8887
  66   2.0000      -0.291407        -7.9296
  67   0.0000       0.026261         0.7146
  68   0.0000       0.072199         1.9646
  69   0.0000       0.109624         2.9830
  70   0.0000       0.119714         3.2576
  71   0.0000       0.136723         3.7204

MULLIKEN ATOMIC CHARGES
-----------------------
   0 S :    0.099537
   1 C :   -0.097228
   2 C :   -0.061741
   3 C :    0.041142
   4 C :   -0.151561
   5 H :   -0.014171
   6 C :    0.072008
   7 H :    0.020188
   8 H :    0.034110
   9 C :   -0.062325
  10 H :    0.031657
  11 H :    0.008324
  12 C :   -0.025847
  13 H :    0.007401
  14 H :    0.027642
  15 H :    0.031534
  16 S :    0.113323
  17 C :   -0.092395
  18 C :   -0.031752
  19 C :   -0.029111
  20 C :   -0.148653
  21 H :    0.024447
  22 C :    0.066262
  23 H :    0.041324
  24 H :    0.008951
  25 C :   -0.069267
  26 H :    0.027504
  27 H :    0.032963
  28 C :   -0.046476
  29 H :    0.034241
  30 H :    0.030932
  31 H :    0.022794
  32 H :    0.010243
  33 H :    0.044001
Sum of atomic charges:   -0.0000000

LOEWDIN ATOMIC CHARGES
----------------------
   0 S :    0.386954
   1 C :   -0.178238
   2 C :   -0.052531
   3 C :   -0.058140
   4 C :   -0.181488
   5 H :    0.017076
   6 C :   -0.029242
   7 H :    0.027320
   8 H :    0.035987
   9 C :   -0.023678
  10 H :    0.022757
  11 H :    0.009659
  12 C :   -0.057786
  13 H :    0.017207
  14 H :    0.019305
  15 H :    0.028144
  16 S :    0.421178
  17 C :   -0.182290
  18 C :   -0.080832
  19 C :   -0.046184
  20 C :   -0.209541
  21 H :    0.037913
  22 C :   -0.031698
  23 H :    0.034736
  24 H :    0.028878
  25 C :   -0.031923
  26 H :    0.022656
  27 H :    0.017918
  28 C :   -0.059301
  29 H :    0.026301
  30 H :    0.023049
  31 H :    0.017581
  32 H :    0.008990
  33 H :    0.019266

  Mayer bond orders larger than 0.100000
B(  0-S ,  1-C ) :   1.1087 B(  0-S ,  4-C ) :   1.1542 B(  1-C ,  2-C ) :   1.6355
B(  1-C , 32-H ) :   0.9807 B(  2-C ,  3-C ) :   1.2130 B(  2-C ,  6-C ) :   1.0185
B(  3-C ,  4-C ) :   1.5657 B(  3-C ,  5-H ) :   1.0034 B(  4-C , 20-C ) :   1.0640
B(  6-C ,  7-H ) :   0.9476 B(  6-C ,  8-H ) :   0.9342 B(  6-C ,  9-C ) :   1.0650
B(  9-C , 10-H ) :   0.9604 B(  9-C , 11-H ) :   0.9594 B(  9-C , 12-C ) :   1.0797
B( 12-C , 13-H ) :   0.9742 B( 12-C , 14-H ) :   0.9784 B( 12-C , 15-H ) :   0.9742
B( 16-S , 17-C ) :   1.1832 B( 16-S , 20-C ) :   1.1401 B( 17-C , 18-C ) :   1.6023
B( 17-C , 33-H ) :   0.9686 B( 18-C , 19-C ) :   1.2373 B( 18-C , 21-H ) :   0.9949
B( 19-C , 20-C ) :   1.5753 B( 19-C , 22-C ) :   1.0420 B( 22-C , 23-H ) :   0.9294
B( 22-C , 24-H ) :   0.9357 B( 22-C , 25-C ) :   1.0781 B( 25-C , 26-H ) :   0.9555
B( 25-C , 27-H ) :   0.9538 B( 25-C , 28-C ) :   1.0872 B( 28-C , 29-H ) :   0.9760
B( 28-C , 30-H ) :   0.9754 B( 28-C , 31-H ) :   0.9735

Dispersion correction           -0.013730016
FINAL SINGLE POINT ENERGY     -1339.872712247861

DIPOLE MOMENT
-------------
                                X             Y             Z
Electronic contribution:     24.09097     -12.70237       6.98367
Nuclear contribution   :    -24.52593      13.08757      -6.89540
                        -----------------------------------------
Total Dipole Moment    :     -0.43496       0.38520       0.08828
                        -----------------------------------------
Magnitude (a.u.)       :      0.58767
Magnitude (Debye)      :      1.49375

Rotational constants in cm-1:     0.019570     0.007770     0.006276
Rotational constants in MHz :   586.702775   232.939176   188.149386

                             ****ORCA TERMINATED NORMALLY****
TOTAL RUN TIME: 0 days 0 hours 0 minutes 22 seconds 518 msec
