                         Program Version 4.2.1 -  RELEASE  -
|  1> ! wB97X-D3 SP def2-SVP
|  2> %pal
|  3> nprocs 24
|  4> end
|  5>
|  6> * xyz 0 1
|  7> S 	 -81.8514 	 -6.84329 	 3.87929
|  8> C 	 -81.6701 	 -5.64874 	 2.56253
|  9> C 	 -80.9718 	 -6.22132 	 1.45608
| 10> C 	 -80.5035 	 -7.50103 	 1.75776
| 11> C 	 -80.7297 	 -7.9402 	 3.07584
| 12> H 	 -80.0153 	 -8.22322 	 1.12644
| 13> C 	 -80.6763 	 -5.49695 	 0.0991928
| 14> H 	 -81.6356 	 -5.24075 	 -0.270722
| 15> H 	 -80.188 	 -6.19932 	 -0.646749
| 16> C 	 -79.8657 	 -4.18649 	 0.269228
| 17> H 	 -79.7679 	 -3.71948 	 -0.708845
| 18> H 	 -80.3456 	 -3.42919 	 0.891038
| 19> C 	 -78.4545 	 -4.41022 	 0.857472
| 20> H 	 -77.75 	 -4.64343 	 0.0368488
| 21> H 	 -78.2893 	 -3.36643 	 1.29143
| 22> H 	 -78.5474 	 -5.0251 	 1.69329
| 23> S 	 -81.7885 	 -10.1862 	 4.16539
| 24> C 	 -80.7399 	 -11.4697 	 4.49573
| 25> C 	 -79.4028 	 -11.1841 	 4.27528
| 26> C 	 -79.2141 	 -9.92776 	 3.68201
| 27> C 	 -80.3819 	 -9.21653 	 3.69631
| 28> H 	 -78.6891 	 -11.9227 	 4.43554
| 29> C 	 -77.8717 	 -9.47536 	 3.15087
| 30> H 	 -77.0879 	 -9.67899 	 3.88197
| 31> H 	 -77.8763 	 -8.42553 	 2.80308
| 32> C 	 -77.4528 	 -10.3727 	 1.93585
| 33> H 	 -78.3203 	 -10.482 	 1.31441
| 34> H 	 -77.2977 	 -11.4027 	 2.3689
| 35> C 	 -76.2489 	 -9.83296 	 1.18283
| 36> H 	 -75.4577 	 -9.91133 	 1.9217
| 37> H 	 -76.3348 	 -8.78074 	 1.00189
| 38> H 	 -75.928 	 -10.3446 	 0.306375
| 39> H 	 -81.9317 	 -4.56457 	 2.53694
| 40> H 	 -81.0379 	 -12.4699 	 4.84197
| 41> *
| 42>
| 43>                          ****END OF INPUT****

CARTESIAN COORDINATES (ANGSTROEM)
---------------------------------
  S    -81.851400   -6.843290    3.879290
  C    -81.670100   -5.648740    2.562530
  C    -80.971800   -6.221320    1.456080
  C    -80.503500   -7.501030    1.757760
  C    -80.729700   -7.940200    3.075840
  H    -80.015300   -8.223220    1.126440
  C    -80.676300   -5.496950    0.099193
  H    -81.635600   -5.240750   -0.270722
  H    -80.188000   -6.199320   -0.646749
  C    -79.865700   -4.186490    0.269228
  H    -79.767900   -3.719480   -0.708845
  H    -80.345600   -3.429190    0.891038
  C    -78.454500   -4.410220    0.857472
  H    -77.750000   -4.643430    0.036849
  H    -78.289300   -3.366430    1.291430
  H    -78.547400   -5.025100    1.693290
  S    -81.788500  -10.186200    4.165390
  C    -80.739900  -11.469700    4.495730
  C    -79.402800  -11.184100    4.275280
  C    -79.214100   -9.927760    3.682010
  C    -80.381900   -9.216530    3.696310
  H    -78.689100  -11.922700    4.435540
  C    -77.871700   -9.475360    3.150870
  H    -77.087900   -9.678990    3.881970
  H    -77.876300   -8.425530    2.803080
  C    -77.452800  -10.372700    1.935850
  H    -78.320300  -10.482000    1.314410
  H    -77.297700  -11.402700    2.368900
  C    -76.248900   -9.832960    1.182830
  H    -75.457700   -9.911330    1.921700
  H    -76.334800   -8.780740    1.001890
  H    -75.928000  -10.344600    0.306375
  H    -81.931700   -4.564570    2.536940
  H    -81.037900  -12.469900    4.841970

 Total Charge           Charge          ....    0
 Multiplicity           Mult            ....    1
 Number of Electrons    NEL             ....  134
 Basis Dimension        Dim             ....  322

ORBITAL ENERGIES
----------------

  NO   OCC          E(Eh)            E(eV)
   0   2.0000     -88.969391     -2420.9802
   1   2.0000     -88.968004     -2420.9425
   2   2.0000     -10.329664      -281.0845
   3   2.0000     -10.323197      -280.9085
   4   2.0000     -10.321050      -280.8501
   5   2.0000     -10.315188      -280.6905
   6   2.0000     -10.305641      -280.4307
   7   2.0000     -10.302039      -280.3327
   8   2.0000     -10.298298      -280.2309
   9   2.0000     -10.295996      -280.1683
  10   2.0000     -10.291638      -280.0497
  11   2.0000     -10.289072      -279.9799
  12   2.0000     -10.287193      -279.9287
  13   2.0000     -10.286479      -279.9093
  14   2.0000     -10.276658      -279.6421
  15   2.0000     -10.275334      -279.6060
  16   2.0000      -8.083686      -219.9683
  17   2.0000      -8.082853      -219.9456
  18   2.0000      -6.042058      -164.4127
  19   2.0000      -6.041405      -164.3950
  20   2.0000      -6.038176      -164.3071
  21   2.0000      -6.037481      -164.2882
  22   2.0000      -6.034403      -164.2044
  23   2.0000      -6.033715      -164.1857
  24   2.0000      -1.010924       -27.5087
  25   2.0000      -0.980669       -26.6854
  26   2.0000      -0.913763       -24.8648
  27   2.0000      -0.906472       -24.6663
  28   2.0000      -0.864199       -23.5160
  29   2.0000      -0.859970       -23.4010
  30   2.0000      -0.843726       -22.9590
  31   2.0000      -0.808173       -21.9915
  32   2.0000      -0.787027       -21.4161
  33   2.0000      -0.771752       -21.0004
  34   2.0000      -0.701831       -19.0978
  35   2.0000      -0.697336       -18.9755
  36   2.0000      -0.691953       -18.8290
  37   2.0000      -0.665379       -18.1059
  38   2.0000      -0.633914       -17.2497
  39   2.0000      -0.612318       -16.6620
  40   2.0000      -0.598977       -16.2990
  41   2.0000      -0.575123       -15.6499
  42   2.0000      -0.569428       -15.4949
  43   2.0000      -0.548285       -14.9196
  44   2.0000      -0.544390       -14.8136
  45   2.0000      -0.526768       -14.3341
  46   2.0000      -0.520482       -14.1630
  47   2.0000      -0.512270       -13.9396
  48   2.0000      -0.504127       -13.7180
  49   2.0000      -0.492356       -13.3977
  50   2.0000      -0.486408       -13.2358
  51   2.0000      -0.481541       -13.1034
  52   2.0000      -0.473439       -12.8829
  53   2.0000      -0.463336       -12.6080
  54   2.0000      -0.459805       -12.5119
  55   2.0000      -0.453051       -12.3282
  56   2.0000      -0.441353       -12.0098
  57   2.0000      -0.435315       -11.8455
  58   2.0000      -0.429518       -11.6878
  59   2.0000      -0.425773       -11.5859
  60   2.0000      -0.423808       -11.5324
  61   2.0000      -0.418492       -11.3877
  62   2.0000      -0.415809       -11.3147
  63   2.0000      -0.342511        -9.3202
  64   2.0000      -0.336401        -9.1539
  65   2.0000      -0.332234        -9.0406
  66   2.0000      -0.283798        -7.7225
  67   0.0000       0.028034         0.7628
  68   0.0000       0.060445         1.6448
  69   0.0000       0.105394         2.8679
  70   0.0000       0.122096         3.3224
  71   0.0000       0.125883         3.4254

MULLIKEN ATOMIC CHARGES
-----------------------
   0 S :    0.109633
   1 C :   -0.136805
   2 C :   -0.105058
   3 C :    0.035276
   4 C :   -0.180906
   5 H :    0.003728
   6 C :    0.091088
   7 H :    0.027255
   8 H :    0.037924
   9 C :   -0.111629
  10 H :    0.026602
  11 H :    0.025293
  12 C :   -0.043816
  13 H :    0.050200
  14 H :    0.031531
  15 H :    0.037281
  16 S :    0.122886
  17 C :   -0.091851
  18 C :   -0.019959
  19 C :   -0.026497
  20 C :   -0.145471
  21 H :   -0.009528
  22 C :    0.070551
  23 H :    0.030832
  24 H :    0.035712
  25 C :   -0.132475
  26 H :    0.026793
  27 H :    0.032270
  28 C :    0.014002
  29 H :    0.014175
  30 H :    0.022979
  31 H :    0.037632
  32 H :    0.062686
  33 H :    0.057666
Sum of atomic charges:    0.0000000

LOEWDIN ATOMIC CHARGES
----------------------
   0 S :    0.394253
   1 C :   -0.208957
   2 C :   -0.061437
   3 C :   -0.072230
   4 C :   -0.188724
   5 H :    0.028546
   6 C :   -0.027802
   7 H :    0.026683
   8 H :    0.037190
   9 C :   -0.043445
  10 H :    0.022921
  11 H :    0.019601
  12 C :   -0.064300
  13 H :    0.030347
  14 H :    0.037049
  15 H :    0.016681
  16 S :    0.425490
  17 C :   -0.197817
  18 C :   -0.066881
  19 C :   -0.049925
  20 C :   -0.198248
  21 H :    0.019600
  22 C :   -0.024605
  23 H :    0.032226
  24 H :    0.031214
  25 C :   -0.040777
  26 H :    0.013456
  27 H :    0.025429
  28 C :   -0.060729
  29 H :    0.027229
  30 H :    0.023950
  31 H :    0.024834
  32 H :    0.036944
  33 H :    0.032230

  Mayer bond orders larger than 0.100000
B(  0-S ,  1-C ) :   1.1420 B(  0-S ,  4-C ) :   1.1597 B(  1-C ,  2-C ) :   1.5740
B(  1-C ,  4-C ) :   0.1220 B(  1-C , 32-H ) :   0.9631 B(  2-C ,  3-C ) :   1.2670
B(  2-C ,  6-C ) :   1.0003 B(  3-C ,  4-C ) :   1.5405 B(  3-C ,  5-H ) :   0.9961
B(  4-C , 20-C ) :   1.0196 B(  6-C ,  7-H ) :   0.9343 B(  6-C ,  8-H ) :   0.9519
B(  6-C ,  9-C ) :   1.0722 B(  9-C , 10-H ) :   0.9558 B(  9-C , 11-H ) :   0.9654
B(  9-C , 12-C ) :   1.0632 B( 12-C , 13-H ) :   0.9778 B( 12-C , 14-H ) :   0.9777
B( 12-C , 15-H ) :   0.9770 B( 16-S , 17-C ) :   1.1750 B( 16-S , 20-C ) :   1.1372
B( 17-C , 18-C ) :   1.6059 B( 17-C , 33-H ) :   0.9614 B( 18-C , 19-C ) :   1.2251
B( 18-C , 21-H ) :   1.0011 B( 19-C , 20-C ) :   1.6226 B( 19-C , 22-C ) :   1.0592
B( 22-C , 23-H ) :   0.9317 B( 22-C , 24-H ) :   0.9377 B( 22-C , 25-C ) :   1.0388
B( 25-C , 26-H ) :   0.9608 B( 25-C , 27-H ) :   0.9558 B( 25-C , 28-C ) :   1.0786
B( 28-C , 29-H ) :   0.9684 B( 28-C , 30-H ) :   0.9725 B( 28-C , 31-H ) :   0.9745

Dispersion correction           -0.014621231
FINAL SINGLE POINT ENERGY     -1339.864655930559

DIPOLE MOMENT
-------------
                                X             Y             Z
Electronic contribution:    -23.21218      -8.42662      18.19360
Nuclear contribution   :     23.70771       8.33213     -18.70656
                        -----------------------------------------
Total Dipole Moment    :      0.49553      -0.09449      -0.51297
                        -----------------------------------------
Magnitude (a.u.)       :      0.71945
Magnitude (Debye)      :      1.82871

Rotational constants in cm-1:     0.017470     0.009835     0.006763
Rotational constants in MHz :   523.726785   294.854895   202.760942

                             ****ORCA TERMINATED NORMALLY****
TOTAL RUN TIME: 0 days 0 hours 0 minutes 22 seconds 121 msec
