                         Program Version 4.2.1 -  RELEASE  -
|  1> ! wB97X-D3 SP def2-SVP
|  2> %pal
|  3> nprocs 24
|  4> end
|  5>
|  6> * xyz 0 1
|  7> S 	 21.7155 	 -24.4578 	 -119.264
|  8> C 	 20.9845 	 -25.8675 	 -120.066
|  9> C 	 21.6865 	 -27.014 	 -119.723
| 10> C 	 22.559 	 -26.8379 	 -118.579
| 11> C 	 22.6411 	 -25.5026 	 -118.204
| 12> H 	 23.0414 	 -27.6703 	 -118.036
| 13> C 	 21.4181 	 -28.3419 	 -120.351
| 14> H 	 20.5645 	 -28.7451 	 -119.864
| 15> H 	 22.3166 	 -29.0149 	 -120.205
| 16> C 	 21.0481 	 -28.2407 	 -121.855
| 17> H 	 20.1151 	 -27.7033 	 -121.8
| 18> H 	 21.8312 	 -27.644 	 -122.454
| 19> C 	 20.9676 	 -29.5825 	 -122.546
| 20> H 	 20.4328 	 -29.4399 	 -123.48
| 21> H 	 22.0135 	 -29.9287 	 -122.75
| 22> H 	 20.3687 	 -30.3158 	 -121.973
| 23> S 	 25.0973 	 -25.1542 	 -117.196
| 24> C 	 25.2375 	 -24.2895 	 -115.595
| 25> C 	 24.0297 	 -23.9984 	 -114.963
| 26> C 	 22.9539 	 -24.3553 	 -115.84
| 27> C 	 23.364 	 -24.9485 	 -117.028
| 28> H 	 23.8019 	 -23.5639 	 -114.034
| 29> C 	 21.5365 	 -24.1189 	 -115.438
| 30> H 	 20.9776 	 -24.0657 	 -116.367
| 31> H 	 21.378 	 -23.1655 	 -114.99
| 32> C 	 20.9634 	 -25.2816 	 -114.538
| 33> H 	 21.522 	 -25.3406 	 -113.565
| 34> H 	 21.0947 	 -26.1917 	 -115.173
| 35> C 	 19.5226 	 -25.0363 	 -114.082
| 36> H 	 19.2639 	 -25.6981 	 -113.322
| 37> H 	 18.7791 	 -25.3033 	 -114.837
| 38> H 	 19.3427 	 -24.0501 	 -113.855
| 39> H 	 20.331 	 -25.8333 	 -120.92
| 40> H 	 26.1529 	 -23.9438 	 -115.11
| 41> *
| 42>
| 43>                          ****END OF INPUT****

CARTESIAN COORDINATES (ANGSTROEM)
---------------------------------
  S     21.715500  -24.457800  -119.264000
  C     20.984500  -25.867500  -120.066000
  C     21.686500  -27.014000  -119.723000
  C     22.559000  -26.837900  -118.579000
  C     22.641100  -25.502600  -118.204000
  H     23.041400  -27.670300  -118.036000
  C     21.418100  -28.341900  -120.351000
  H     20.564500  -28.745100  -119.864000
  H     22.316600  -29.014900  -120.205000
  C     21.048100  -28.240700  -121.855000
  H     20.115100  -27.703300  -121.800000
  H     21.831200  -27.644000  -122.454000
  C     20.967600  -29.582500  -122.546000
  H     20.432800  -29.439900  -123.480000
  H     22.013500  -29.928700  -122.750000
  H     20.368700  -30.315800  -121.973000
  S     25.097300  -25.154200  -117.196000
  C     25.237500  -24.289500  -115.595000
  C     24.029700  -23.998400  -114.963000
  C     22.953900  -24.355300  -115.840000
  C     23.364000  -24.948500  -117.028000
  H     23.801900  -23.563900  -114.034000
  C     21.536500  -24.118900  -115.438000
  H     20.977600  -24.065700  -116.367000
  H     21.378000  -23.165500  -114.990000
  C     20.963400  -25.281600  -114.538000
  H     21.522000  -25.340600  -113.565000
  H     21.094700  -26.191700  -115.173000
  C     19.522600  -25.036300  -114.082000
  H     19.263900  -25.698100  -113.322000
  H     18.779100  -25.303300  -114.837000
  H     19.342700  -24.050100  -113.855000
  H     20.331000  -25.833300  -120.920000
  H     26.152900  -23.943800  -115.110000

 Total Charge           Charge          ....    0
 Multiplicity           Mult            ....    1
 Number of Electrons    NEL             ....  134
 Basis Dimension        Dim             ....  322

ORBITAL ENERGIES
----------------

  NO   OCC          E(Eh)            E(eV)
   0   2.0000     -88.970227     -2421.0030
   1   2.0000     -88.965740     -2420.8809
   2   2.0000     -10.332658      -281.1659
   3   2.0000     -10.325524      -280.9718
   4   2.0000     -10.324499      -280.9439
   5   2.0000     -10.311475      -280.5895
   6   2.0000     -10.300853      -280.3004
   7   2.0000     -10.299536      -280.2646
   8   2.0000     -10.298452      -280.2351
   9   2.0000     -10.293920      -280.1118
  10   2.0000     -10.291505      -280.0461
  11   2.0000     -10.291462      -280.0449
  12   2.0000     -10.291265      -280.0396
  13   2.0000     -10.283188      -279.8198
  14   2.0000     -10.283068      -279.8165
  15   2.0000     -10.263359      -279.2802
  16   2.0000      -8.083509      -219.9635
  17   2.0000      -8.079591      -219.8568
  18   2.0000      -6.042158      -164.4155
  19   2.0000      -6.038413      -164.3136
  20   2.0000      -6.038174      -164.3071
  21   2.0000      -6.034249      -164.2003
  22   2.0000      -6.033998      -164.1934
  23   2.0000      -6.030286      -164.0924
  24   2.0000      -0.999481       -27.1973
  25   2.0000      -0.976666       -26.5764
  26   2.0000      -0.913968       -24.8703
  27   2.0000      -0.902725       -24.5644
  28   2.0000      -0.865833       -23.5605
  29   2.0000      -0.852293       -23.1921
  30   2.0000      -0.844008       -22.9666
  31   2.0000      -0.814092       -22.1526
  32   2.0000      -0.780755       -21.2454
  33   2.0000      -0.763953       -20.7882
  34   2.0000      -0.706636       -19.2285
  35   2.0000      -0.695863       -18.9354
  36   2.0000      -0.685518       -18.6539
  37   2.0000      -0.670354       -18.2413
  38   2.0000      -0.634670       -17.2703
  39   2.0000      -0.608505       -16.5583
  40   2.0000      -0.592103       -16.1120
  41   2.0000      -0.576923       -15.6989
  42   2.0000      -0.565838       -15.3972
  43   2.0000      -0.557225       -15.1629
  44   2.0000      -0.530777       -14.4432
  45   2.0000      -0.519182       -14.1277
  46   2.0000      -0.517535       -14.0828
  47   2.0000      -0.514200       -13.9921
  48   2.0000      -0.506206       -13.7746
  49   2.0000      -0.499980       -13.6051
  50   2.0000      -0.488919       -13.3042
  51   2.0000      -0.479990       -13.0612
  52   2.0000      -0.467114       -12.7108
  53   2.0000      -0.458889       -12.4870
  54   2.0000      -0.453432       -12.3385
  55   2.0000      -0.451203       -12.2779
  56   2.0000      -0.444741       -12.1020
  57   2.0000      -0.432550       -11.7703
  58   2.0000      -0.428071       -11.6484
  59   2.0000      -0.427145       -11.6232
  60   2.0000      -0.421602       -11.4724
  61   2.0000      -0.415030       -11.2935
  62   2.0000      -0.411938       -11.2094
  63   2.0000      -0.339431        -9.2364
  64   2.0000      -0.333103        -9.0642
  65   2.0000      -0.321175        -8.7396
  66   2.0000      -0.296289        -8.0624
  67   0.0000       0.035824         0.9748
  68   0.0000       0.060362         1.6425
  69   0.0000       0.097342         2.6488
  70   0.0000       0.112350         3.0572
  71   0.0000       0.123787         3.3684

MULLIKEN ATOMIC CHARGES
-----------------------
   0 S :    0.113081
   1 C :   -0.128671
   2 C :   -0.098647
   3 C :    0.030047
   4 C :   -0.149281
   5 H :    0.029672
   6 C :    0.059665
   7 H :    0.038679
   8 H :    0.032805
   9 C :   -0.155412
  10 H :    0.032211
  11 H :    0.050576
  12 C :   -0.025716
  13 H :    0.033155
  14 H :    0.046117
  15 H :    0.030056
  16 S :    0.114465
  17 C :   -0.078459
  18 C :   -0.000895
  19 C :   -0.040528
  20 C :   -0.185173
  21 H :    0.001190
  22 C :    0.084358
  23 H :    0.013304
  24 H :    0.009971
  25 C :   -0.115851
  26 H :    0.034987
  27 H :    0.045624
  28 C :    0.024794
  29 H :    0.016962
  30 H :    0.019302
  31 H :    0.010723
  32 H :    0.051157
  33 H :    0.055732
Sum of atomic charges:   -0.0000000

LOEWDIN ATOMIC CHARGES
----------------------
   0 S :    0.396112
   1 C :   -0.198340
   2 C :   -0.058406
   3 C :   -0.070598
   4 C :   -0.193944
   5 H :    0.038740
   6 C :   -0.035186
   7 H :    0.032266
   8 H :    0.032995
   9 C :   -0.048548
  10 H :    0.017270
  11 H :    0.034814
  12 C :   -0.067499
  13 H :    0.027414
  14 H :    0.033484
  15 H :    0.025064
  16 S :    0.387406
  17 C :   -0.161607
  18 C :   -0.054270
  19 C :   -0.051295
  20 C :   -0.202520
  21 H :    0.027025
  22 C :   -0.034670
  23 H :    0.025030
  24 H :    0.021475
  25 C :   -0.034807
  26 H :    0.026525
  27 H :    0.032204
  28 C :   -0.058897
  29 H :    0.019814
  30 H :    0.028000
  31 H :    0.014011
  32 H :    0.023141
  33 H :    0.027792

  Mayer bond orders larger than 0.100000
B(  0-S ,  1-C ) :   1.1162 B(  0-S ,  4-C ) :   1.1564 B(  1-C ,  2-C ) :   1.6249
B(  1-C , 32-H ) :   0.9649 B(  2-C ,  3-C ) :   1.2221 B(  2-C ,  6-C ) :   1.0265
B(  3-C ,  4-C ) :   1.5857 B(  3-C ,  5-H ) :   0.9892 B(  4-C , 20-C ) :   0.9926
B(  6-C ,  7-H ) :   0.9290 B(  6-C ,  8-H ) :   0.9484 B(  6-C ,  9-C ) :   1.0578
B(  9-C , 10-H ) :   0.9470 B(  9-C , 11-H ) :   0.9641 B(  9-C , 12-C ) :   1.0913
B( 12-C , 13-H ) :   0.9707 B( 12-C , 14-H ) :   0.9744 B( 12-C , 15-H ) :   0.9703
B( 16-S , 17-C ) :   1.1318 B( 16-S , 20-C ) :   1.1319 B( 17-C , 18-C ) :   1.6241
B( 17-C , 33-H ) :   0.9630 B( 18-C , 19-C ) :   1.2262 B( 18-C , 21-H ) :   0.9918
B( 19-C , 20-C ) :   1.6282 B( 19-C , 22-C ) :   1.0597 B( 22-C , 23-H ) :   0.9237
B( 22-C , 24-H ) :   0.9296 B( 22-C , 25-C ) :   1.0552 B( 25-C , 26-H ) :   0.9618
B( 25-C , 27-H ) :   0.9566 B( 25-C , 28-C ) :   1.0809 B( 28-C , 29-H ) :   0.9728
B( 28-C , 30-H ) :   0.9700 B( 28-C , 31-H ) :   0.9719

Dispersion correction           -0.013874181
FINAL SINGLE POINT ENERGY     -1339.866336281275

DIPOLE MOMENT
-------------
                                X             Y             Z
Electronic contribution:     17.55682      13.73251       0.60136
Nuclear contribution   :    -17.90890     -14.05784      -0.47105
                        -----------------------------------------
Total Dipole Moment    :     -0.35207      -0.32533       0.13031
                        -----------------------------------------
Magnitude (a.u.)       :      0.49677
Magnitude (Debye)      :      1.26268

Rotational constants in cm-1:     0.020638     0.007371     0.006244
Rotational constants in MHz :   618.711704   220.980637   187.191577

                             ****ORCA TERMINATED NORMALLY****
TOTAL RUN TIME: 0 days 0 hours 0 minutes 20 seconds 987 msec
