                         Program Version 4.2.1 -  RELEASE  -
|  1> ! wB97X-D3 SP def2-SVP
|  2> %pal
|  3> nprocs 24
|  4> end
|  5>
|  6> * xyz 0 1
|  7> S 	 -115.986 	 34.7157 	 -14.8467
|  8> C 	 -114.975 	 33.5175 	 -14.0892
|  9> C 	 -115.742 	 32.4803 	 -13.645
| 10> C 	 -117.125 	 32.7879 	 -13.6708
| 11> C 	 -117.425 	 33.943 	 -14.3186
| 12> H 	 -117.96 	 32.1978 	 -13.3117
| 13> C 	 -115.246 	 31.1322 	 -13.1533
| 14> H 	 -115.173 	 31.2871 	 -12.0969
| 15> H 	 -114.213 	 30.9827 	 -13.6247
| 16> C 	 -116.197 	 29.963 	 -13.4236
| 17> H 	 -117.035 	 30.1685 	 -12.7516
| 18> H 	 -116.484 	 29.855 	 -14.4892
| 19> C 	 -115.64 	 28.5446 	 -13.0219
| 20> H 	 -115.687 	 28.338 	 -11.9662
| 21> H 	 -116.171 	 27.6547 	 -13.441
| 22> H 	 -114.624 	 28.4728 	 -13.3756
| 23> S 	 -119.01 	 36.1828 	 -13.9562
| 24> C 	 -120.697 	 36.1452 	 -14.2904
| 25> C 	 -121.088 	 34.879 	 -14.6876
| 26> C 	 -119.97 	 33.9776 	 -14.8459
| 27> C 	 -118.73 	 34.5398 	 -14.4539
| 28> H 	 -122.063 	 34.6012 	 -14.9135
| 29> C 	 -120.118 	 32.6645 	 -15.524
| 30> H 	 -121.12 	 32.2793 	 -15.3776
| 31> H 	 -119.63 	 32.0207 	 -14.873
| 32> C 	 -119.496 	 32.5942 	 -16.9123
| 33> H 	 -118.464 	 33.0198 	 -16.9366
| 34> H 	 -120.093 	 33.2787 	 -17.5523
| 35> C 	 -119.249 	 31.1494 	 -17.4512
| 36> H 	 -120.235 	 30.6893 	 -17.6622
| 37> H 	 -118.888 	 30.6382 	 -16.559
| 38> H 	 -118.506 	 31.0237 	 -18.2057
| 39> H 	 -113.925 	 33.4592 	 -14.0884
| 40> H 	 -121.383 	 37.0425 	 -14.1111
| 41> *
| 42>
| 43>                          ****END OF INPUT****

CARTESIAN COORDINATES (ANGSTROEM)
---------------------------------
  S    -115.986000   34.715700  -14.846700
  C    -114.975000   33.517500  -14.089200
  C    -115.742000   32.480300  -13.645000
  C    -117.125000   32.787900  -13.670800
  C    -117.425000   33.943000  -14.318600
  H    -117.960000   32.197800  -13.311700
  C    -115.246000   31.132200  -13.153300
  H    -115.173000   31.287100  -12.096900
  H    -114.213000   30.982700  -13.624700
  C    -116.197000   29.963000  -13.423600
  H    -117.035000   30.168500  -12.751600
  H    -116.484000   29.855000  -14.489200
  C    -115.640000   28.544600  -13.021900
  H    -115.687000   28.338000  -11.966200
  H    -116.171000   27.654700  -13.441000
  H    -114.624000   28.472800  -13.375600
  S    -119.010000   36.182800  -13.956200
  C    -120.697000   36.145200  -14.290400
  C    -121.088000   34.879000  -14.687600
  C    -119.970000   33.977600  -14.845900
  C    -118.730000   34.539800  -14.453900
  H    -122.063000   34.601200  -14.913500
  C    -120.118000   32.664500  -15.524000
  H    -121.120000   32.279300  -15.377600
  H    -119.630000   32.020700  -14.873000
  C    -119.496000   32.594200  -16.912300
  H    -118.464000   33.019800  -16.936600
  H    -120.093000   33.278700  -17.552300
  C    -119.249000   31.149400  -17.451200
  H    -120.235000   30.689300  -17.662200
  H    -118.888000   30.638200  -16.559000
  H    -118.506000   31.023700  -18.205700
  H    -113.925000   33.459200  -14.088400
  H    -121.383000   37.042500  -14.111100

 Total Charge           Charge          ....    0
 Multiplicity           Mult            ....    1
 Number of Electrons    NEL             ....  134
 Basis Dimension        Dim             ....  322

ORBITAL ENERGIES
----------------

  NO   OCC          E(Eh)            E(eV)
   0   2.0000     -88.965024     -2420.8614
   1   2.0000     -88.964806     -2420.8555
   2   2.0000     -10.324724      -280.9500
   3   2.0000     -10.323396      -280.9139
   4   2.0000     -10.321934      -280.8741
   5   2.0000     -10.307224      -280.4738
   6   2.0000     -10.302537      -280.3463
   7   2.0000     -10.297879      -280.2195
   8   2.0000     -10.297713      -280.2150
   9   2.0000     -10.296307      -280.1767
  10   2.0000     -10.290270      -280.0125
  11   2.0000     -10.288172      -279.9554
  12   2.0000     -10.287378      -279.9338
  13   2.0000     -10.282011      -279.7877
  14   2.0000     -10.280721      -279.7527
  15   2.0000     -10.277554      -279.6665
  16   2.0000      -8.080427      -219.8796
  17   2.0000      -8.080087      -219.8703
  18   2.0000      -6.038936      -164.3278
  19   2.0000      -6.038487      -164.3156
  20   2.0000      -6.034805      -164.2154
  21   2.0000      -6.034320      -164.2022
  22   2.0000      -6.031175      -164.1166
  23   2.0000      -6.031121      -164.1151
  24   2.0000      -1.014031       -27.5932
  25   2.0000      -0.989247       -26.9188
  26   2.0000      -0.912899       -24.8412
  27   2.0000      -0.911314       -24.7981
  28   2.0000      -0.872951       -23.7542
  29   2.0000      -0.849962       -23.1286
  30   2.0000      -0.844904       -22.9910
  31   2.0000      -0.817534       -22.2462
  32   2.0000      -0.784323       -21.3425
  33   2.0000      -0.772466       -21.0199
  34   2.0000      -0.712024       -19.3752
  35   2.0000      -0.699341       -19.0300
  36   2.0000      -0.691634       -18.8203
  37   2.0000      -0.663631       -18.0583
  38   2.0000      -0.641701       -17.4616
  39   2.0000      -0.620780       -16.8923
  40   2.0000      -0.596132       -16.2216
  41   2.0000      -0.578171       -15.7328
  42   2.0000      -0.567982       -15.4556
  43   2.0000      -0.556127       -15.1330
  44   2.0000      -0.530446       -14.4342
  45   2.0000      -0.523510       -14.2454
  46   2.0000      -0.515402       -14.0248
  47   2.0000      -0.511404       -13.9160
  48   2.0000      -0.508456       -13.8358
  49   2.0000      -0.503531       -13.7018
  50   2.0000      -0.496709       -13.5161
  51   2.0000      -0.488159       -13.2835
  52   2.0000      -0.470111       -12.7924
  53   2.0000      -0.468820       -12.7572
  54   2.0000      -0.460195       -12.5225
  55   2.0000      -0.451577       -12.2880
  56   2.0000      -0.438730       -11.9385
  57   2.0000      -0.435342       -11.8463
  58   2.0000      -0.432159       -11.7596
  59   2.0000      -0.425314       -11.5734
  60   2.0000      -0.420992       -11.4558
  61   2.0000      -0.415222       -11.2988
  62   2.0000      -0.408717       -11.1218
  63   2.0000      -0.347842        -9.4653
  64   2.0000      -0.328752        -8.9458
  65   2.0000      -0.327924        -8.9233
  66   2.0000      -0.292321        -7.9545
  67   0.0000       0.029621         0.8060
  68   0.0000       0.077223         2.1014
  69   0.0000       0.115813         3.1514
  70   0.0000       0.124853         3.3974
  71   0.0000       0.131260         3.5718

MULLIKEN ATOMIC CHARGES
-----------------------
   0 S :    0.117100
   1 C :   -0.108538
   2 C :   -0.092692
   3 C :    0.016074
   4 C :   -0.162218
   5 H :    0.016677
   6 C :    0.078115
   7 H :    0.040429
   8 H :    0.033475
   9 C :   -0.117520
  10 H :    0.041378
  11 H :    0.052996
  12 C :   -0.048075
  13 H :    0.028141
  14 H :    0.036847
  15 H :    0.026741
  16 S :    0.118506
  17 C :   -0.120418
  18 C :    0.006666
  19 C :   -0.100519
  20 C :   -0.148430
  21 H :   -0.011022
  22 C :    0.163405
  23 H :    0.004907
  24 H :   -0.034794
  25 C :   -0.088518
  26 H :    0.042401
  27 H :    0.031566
  28 C :   -0.030819
  29 H :    0.033329
  30 H :    0.020041
  31 H :    0.041580
  32 H :    0.023568
  33 H :    0.089620
Sum of atomic charges:   -0.0000000

LOEWDIN ATOMIC CHARGES
----------------------
   0 S :    0.421234
   1 C :   -0.197047
   2 C :   -0.062534
   3 C :   -0.066844
   4 C :   -0.204148
   5 H :    0.030335
   6 C :   -0.032872
   7 H :    0.034439
   8 H :    0.034636
   9 C :   -0.042683
  10 H :    0.026222
  11 H :    0.031100
  12 C :   -0.069494
  13 H :    0.021370
  14 H :    0.032142
  15 H :    0.021680
  16 S :    0.430619
  17 C :   -0.206084
  18 C :   -0.068570
  19 C :   -0.048255
  20 C :   -0.211508
  21 H :    0.019026
  22 C :   -0.037731
  23 H :    0.030361
  24 H :    0.017474
  25 C :   -0.039398
  26 H :    0.032696
  27 H :    0.023667
  28 C :   -0.063722
  29 H :    0.026454
  30 H :    0.025448
  31 H :    0.023686
  32 H :    0.020278
  33 H :    0.048021

  Mayer bond orders larger than 0.100000
B(  0-S ,  1-C ) :   1.1320 B(  0-S ,  4-C ) :   1.1540 B(  1-C ,  2-C ) :   1.6257
B(  1-C , 32-H ) :   0.9749 B(  2-C ,  3-C ) :   1.2289 B(  2-C ,  6-C ) :   1.0059
B(  3-C ,  4-C ) :   1.5963 B(  3-C ,  5-H ) :   0.9848 B(  4-C , 20-C ) :   1.0423
B(  6-C ,  7-H ) :   0.9321 B(  6-C ,  8-H ) :   0.9424 B(  6-C ,  9-C ) :   1.0744
B(  9-C , 10-H ) :   0.9455 B(  9-C , 11-H ) :   0.9629 B(  9-C , 12-C ) :   1.0772
B( 12-C , 13-H ) :   0.9776 B( 12-C , 14-H ) :   0.9768 B( 12-C , 15-H ) :   0.9760
B( 16-S , 17-C ) :   1.1811 B( 16-S , 20-C ) :   1.1555 B( 17-C , 18-C ) :   1.5509
B( 17-C , 20-C ) :   0.1014 B( 17-C , 33-H ) :   0.9583 B( 18-C , 19-C ) :   1.2855
B( 18-C , 21-H ) :   1.0035 B( 19-C , 20-C ) :   1.5381 B( 19-C , 22-C ) :   1.0568
B( 22-C , 23-H ) :   0.9166 B( 22-C , 24-H ) :   0.8995 B( 22-C , 25-C ) :   1.0524
B( 25-C , 26-H ) :   0.9573 B( 25-C , 27-H ) :   0.9575 B( 25-C , 28-C ) :   1.0628
B( 28-C , 29-H ) :   0.9760 B( 28-C , 30-H ) :   0.9744 B( 28-C , 31-H ) :   0.9780

Dispersion correction           -0.014749858
FINAL SINGLE POINT ENERGY     -1339.873602039397

DIPOLE MOMENT
-------------
                                X             Y             Z
Electronic contribution:      0.24619      30.52995       3.90522
Nuclear contribution   :     -0.39400     -31.21781      -3.81117
                        -----------------------------------------
Total Dipole Moment    :     -0.14781      -0.68787       0.09405
                        -----------------------------------------
Magnitude (a.u.)       :      0.70983
Magnitude (Debye)      :      1.80423

Rotational constants in cm-1:     0.018393     0.009182     0.007285
Rotational constants in MHz :   551.399092   275.276353   218.403957

                             ****ORCA TERMINATED NORMALLY****
TOTAL RUN TIME: 0 days 0 hours 0 minutes 21 seconds 271 msec
