                         Program Version 4.2.1 -  RELEASE  -
|  1> ! wB97X-D3 SP def2-SVP
|  2> %pal
|  3> nprocs 24
|  4> end
|  5>
|  6> * xyz 0 1
|  7> S 	 -28.5845 	 19.7903 	 8.34974
|  8> C 	 -29.1717 	 21.1376 	 7.3584
|  9> C 	 -30.3152 	 20.898 	 6.63096
| 10> C 	 -30.8013 	 19.5891 	 6.99897
| 11> C 	 -29.963 	 18.8333 	 7.84115
| 12> H 	 -31.6775 	 19.164 	 6.50721
| 13> C 	 -31.0063 	 21.9533 	 5.74656
| 14> H 	 -31.4922 	 21.511 	 4.88059
| 15> H 	 -30.2926 	 22.5981 	 5.30791
| 16> C 	 -32.1691 	 22.7158 	 6.35001
| 17> H 	 -32.8716 	 22.0781 	 6.79898
| 18> H 	 -31.8421 	 23.3334 	 7.1596
| 19> C 	 -32.9361 	 23.5333 	 5.29759
| 20> H 	 -32.4122 	 24.3927 	 4.89571
| 21> H 	 -33.2392 	 22.9365 	 4.35881
| 22> H 	 -33.8212 	 23.8855 	 5.73027
| 23> S 	 -28.6765 	 16.51 	 8.43905
| 24> C 	 -29.5884 	 15.0578 	 8.65261
| 25> C 	 -30.9575 	 15.2309 	 8.64005
| 26> C 	 -31.3096 	 16.6224 	 8.40515
| 27> C 	 -30.1397 	 17.4487 	 8.31556
| 28> H 	 -31.63 	 14.3691 	 8.82827
| 29> C 	 -32.7532 	 17.1429 	 8.44808
| 30> H 	 -32.8048 	 18.1588 	 8.87944
| 31> H 	 -33.3252 	 16.43 	 9.07042
| 32> C 	 -33.6833 	 16.963 	 7.10321
| 33> H 	 -33.5714 	 15.9854 	 6.65344
| 34> H 	 -33.2743 	 17.6442 	 6.38275
| 35> C 	 -35.1789 	 17.1825 	 7.40616
| 36> H 	 -35.6619 	 17.3833 	 6.47622
| 37> H 	 -35.1952 	 18.0299 	 8.06288
| 38> H 	 -35.6319 	 16.3128 	 7.8357
| 39> H 	 -28.601 	 22.0335 	 7.14772
| 40> H 	 -29.223 	 14.0382 	 8.85501
| 41> *
| 42>
| 43>                          ****END OF INPUT****

CARTESIAN COORDINATES (ANGSTROEM)
---------------------------------
  S    -28.584500   19.790300    8.349740
  C    -29.171700   21.137600    7.358400
  C    -30.315200   20.898000    6.630960
  C    -30.801300   19.589100    6.998970
  C    -29.963000   18.833300    7.841150
  H    -31.677500   19.164000    6.507210
  C    -31.006300   21.953300    5.746560
  H    -31.492200   21.511000    4.880590
  H    -30.292600   22.598100    5.307910
  C    -32.169100   22.715800    6.350010
  H    -32.871600   22.078100    6.798980
  H    -31.842100   23.333400    7.159600
  C    -32.936100   23.533300    5.297590
  H    -32.412200   24.392700    4.895710
  H    -33.239200   22.936500    4.358810
  H    -33.821200   23.885500    5.730270
  S    -28.676500   16.510000    8.439050
  C    -29.588400   15.057800    8.652610
  C    -30.957500   15.230900    8.640050
  C    -31.309600   16.622400    8.405150
  C    -30.139700   17.448700    8.315560
  H    -31.630000   14.369100    8.828270
  C    -32.753200   17.142900    8.448080
  H    -32.804800   18.158800    8.879440
  H    -33.325200   16.430000    9.070420
  C    -33.683300   16.963000    7.103210
  H    -33.571400   15.985400    6.653440
  H    -33.274300   17.644200    6.382750
  C    -35.178900   17.182500    7.406160
  H    -35.661900   17.383300    6.476220
  H    -35.195200   18.029900    8.062880
  H    -35.631900   16.312800    7.835700
  H    -28.601000   22.033500    7.147720
  H    -29.223000   14.038200    8.855010

 Total Charge           Charge          ....    0
 Multiplicity           Mult            ....    1
 Number of Electrons    NEL             ....  134
 Basis Dimension        Dim             ....  322

ORBITAL ENERGIES
----------------

  NO   OCC          E(Eh)            E(eV)
   0   2.0000     -88.969997     -2420.9967
   1   2.0000     -88.969439     -2420.9815
   2   2.0000     -10.335269      -281.2370
   3   2.0000     -10.331696      -281.1397
   4   2.0000     -10.317310      -280.7483
   5   2.0000     -10.313962      -280.6572
   6   2.0000     -10.312792      -280.6253
   7   2.0000     -10.304330      -280.3951
   8   2.0000     -10.301743      -280.3247
   9   2.0000     -10.299757      -280.2706
  10   2.0000     -10.297949      -280.2214
  11   2.0000     -10.292293      -280.0675
  12   2.0000     -10.290158      -280.0094
  13   2.0000     -10.281338      -279.7694
  14   2.0000     -10.281093      -279.7628
  15   2.0000     -10.275876      -279.6208
  16   2.0000      -8.085003      -220.0041
  17   2.0000      -8.083615      -219.9664
  18   2.0000      -6.043532      -164.4529
  19   2.0000      -6.042220      -164.4172
  20   2.0000      -6.039474      -164.3424
  21   2.0000      -6.038327      -164.3112
  22   2.0000      -6.035727      -164.2405
  23   2.0000      -6.034208      -164.1991
  24   2.0000      -1.002701       -27.2849
  25   2.0000      -0.979643       -26.6574
  26   2.0000      -0.915542       -24.9132
  27   2.0000      -0.898307       -24.4442
  28   2.0000      -0.869241       -23.6532
  29   2.0000      -0.852823       -23.2065
  30   2.0000      -0.843714       -22.9586
  31   2.0000      -0.811658       -22.0863
  32   2.0000      -0.784964       -21.3599
  33   2.0000      -0.768355       -20.9080
  34   2.0000      -0.709878       -19.3168
  35   2.0000      -0.703304       -19.1379
  36   2.0000      -0.691603       -18.8195
  37   2.0000      -0.659735       -17.9523
  38   2.0000      -0.634677       -17.2704
  39   2.0000      -0.619989       -16.8708
  40   2.0000      -0.591299       -16.0901
  41   2.0000      -0.573344       -15.6015
  42   2.0000      -0.564711       -15.3666
  43   2.0000      -0.558960       -15.2101
  44   2.0000      -0.528266       -14.3748
  45   2.0000      -0.527395       -14.3511
  46   2.0000      -0.518999       -14.1227
  47   2.0000      -0.504466       -13.7272
  48   2.0000      -0.500358       -13.6154
  49   2.0000      -0.493394       -13.4259
  50   2.0000      -0.487702       -13.2710
  51   2.0000      -0.481289       -13.0965
  52   2.0000      -0.464621       -12.6430
  53   2.0000      -0.463546       -12.6137
  54   2.0000      -0.458864       -12.4863
  55   2.0000      -0.455751       -12.4016
  56   2.0000      -0.446998       -12.1634
  57   2.0000      -0.445662       -12.1271
  58   2.0000      -0.436204       -11.8697
  59   2.0000      -0.430998       -11.7280
  60   2.0000      -0.424688       -11.5563
  61   2.0000      -0.420141       -11.4326
  62   2.0000      -0.415139       -11.2965
  63   2.0000      -0.354964        -9.6591
  64   2.0000      -0.334127        -9.0921
  65   2.0000      -0.328231        -8.9316
  66   2.0000      -0.281885        -7.6705
  67   0.0000       0.022539         0.6133
  68   0.0000       0.077198         2.1007
  69   0.0000       0.103004         2.8029
  70   0.0000       0.117284         3.1915
  71   0.0000       0.129976         3.5368

MULLIKEN ATOMIC CHARGES
-----------------------
   0 S :    0.104384
   1 C :   -0.114044
   2 C :   -0.084919
   3 C :    0.006087
   4 C :   -0.117206
   5 H :   -0.005959
   6 C :    0.088905
   7 H :    0.008840
   8 H :    0.012194
   9 C :   -0.028232
  10 H :    0.013042
  11 H :    0.020840
  12 C :   -0.062346
  13 H :    0.031437
  14 H :    0.035137
  15 H :    0.023608
  16 S :    0.112319
  17 C :   -0.088904
  18 C :   -0.047296
  19 C :   -0.035299
  20 C :   -0.122954
  21 H :    0.035102
  22 C :   -0.006578
  23 H :    0.052720
  24 H :    0.023222
  25 C :   -0.080359
  26 H :    0.024433
  27 H :    0.021377
  28 C :   -0.020730
  29 H :    0.031798
  30 H :    0.031042
  31 H :    0.036755
  32 H :    0.042105
  33 H :    0.059478
Sum of atomic charges:    0.0000000

LOEWDIN ATOMIC CHARGES
----------------------
   0 S :    0.390915
   1 C :   -0.189278
   2 C :   -0.058263
   3 C :   -0.066650
   4 C :   -0.190217
   5 H :    0.026803
   6 C :   -0.026278
   7 H :    0.030246
   8 H :    0.025569
   9 C :   -0.032288
  10 H :    0.019579
  11 H :    0.022227
  12 C :   -0.064115
  13 H :    0.022933
  14 H :    0.032673
  15 H :    0.019368
  16 S :    0.421579
  17 C :   -0.199769
  18 C :   -0.074858
  19 C :   -0.052658
  20 C :   -0.205156
  21 H :    0.040086
  22 C :   -0.039193
  23 H :    0.035168
  24 H :    0.032002
  25 C :   -0.032704
  26 H :    0.021226
  27 H :    0.011064
  28 C :   -0.056395
  29 H :    0.027002
  30 H :    0.024331
  31 H :    0.024186
  32 H :    0.024894
  33 H :    0.035970

  Mayer bond orders larger than 0.100000
B(  0-S ,  1-C ) :   1.1308 B(  0-S ,  4-C ) :   1.1390 B(  1-C ,  2-C ) :   1.6408
B(  1-C , 32-H ) :   0.9571 B(  2-C ,  3-C ) :   1.2449 B(  2-C ,  6-C ) :   1.0310
B(  3-C ,  4-C ) :   1.5726 B(  3-C ,  5-H ) :   0.9884 B(  4-C , 20-C ) :   1.0469
B(  6-C ,  7-H ) :   0.9350 B(  6-C ,  8-H ) :   0.9400 B(  6-C ,  9-C ) :   1.0642
B(  9-C , 10-H ) :   0.9533 B(  9-C , 11-H ) :   0.9495 B(  9-C , 12-C ) :   1.0833
B( 12-C , 13-H ) :   0.9766 B( 12-C , 14-H ) :   0.9722 B( 12-C , 15-H ) :   0.9739
B( 16-S , 17-C ) :   1.1591 B( 16-S , 20-C ) :   1.1397 B( 17-C , 18-C ) :   1.6246
B( 17-C , 33-H ) :   0.9586 B( 18-C , 19-C ) :   1.2471 B( 18-C , 21-H ) :   0.9816
B( 19-C , 20-C ) :   1.5657 B( 19-C , 22-C ) :   1.0445 B( 22-C , 23-H ) :   0.9446
B( 22-C , 24-H ) :   0.9426 B( 22-C , 25-C ) :   1.0360 B( 25-C , 26-H ) :   0.9558
B( 25-C , 27-H ) :   0.9597 B( 25-C , 28-C ) :   1.0759 B( 28-C , 29-H ) :   0.9724
B( 28-C , 30-H ) :   0.9774 B( 28-C , 31-H ) :   0.9767

Dispersion correction           -0.013483257
FINAL SINGLE POINT ENERGY     -1339.872203672644

DIPOLE MOMENT
-------------
                                X             Y             Z
Electronic contribution:     29.68636     -12.24687      11.85634
Nuclear contribution   :    -30.39209      12.28775     -12.17040
                        -----------------------------------------
Total Dipole Moment    :     -0.70573       0.04089      -0.31405
                        -----------------------------------------
Magnitude (a.u.)       :      0.77354
Magnitude (Debye)      :      1.96617

Rotational constants in cm-1:     0.016614     0.008990     0.006049
Rotational constants in MHz :   498.067954   269.509229   181.355755

                             ****ORCA TERMINATED NORMALLY****
TOTAL RUN TIME: 0 days 0 hours 0 minutes 21 seconds 79 msec
