                         Program Version 4.2.1 -  RELEASE  -
|  1> ! wB97X-D3 SP def2-SVP
|  2> %pal
|  3> nprocs 24
|  4> end
|  5>
|  6> * xyz 0 1
|  7> S 	 -17.9349 	 -29.5766 	 -103.399
|  8> C 	 -18.0278 	 -28.2072 	 -102.32
|  9> C 	 -18.7437 	 -28.5507 	 -101.138
| 10> C 	 -19.0141 	 -29.9619 	 -101.147
| 11> C 	 -18.5105 	 -30.6559 	 -102.164
| 12> H 	 -19.4802 	 -30.4992 	 -100.352
| 13> C 	 -19.2596 	 -27.6574 	 -100.043
| 14> H 	 -20.3313 	 -27.7583 	 -100.238
| 15> H 	 -18.8912 	 -26.6232 	 -100.181
| 16> C 	 -18.9643 	 -28.1309 	 -98.6251
| 17> H 	 -19.5857 	 -27.6326 	 -97.9317
| 18> H 	 -19.1266 	 -29.1999 	 -98.5448
| 19> C 	 -17.5452 	 -27.781 	 -98.1639
| 20> H 	 -16.8348 	 -28.1697 	 -98.8383
| 21> H 	 -17.3136 	 -26.6978 	 -97.9603
| 22> H 	 -17.3771 	 -28.3842 	 -97.2488
| 23> S 	 -19.6856 	 -32.5177 	 -103.793
| 24> C 	 -19.6328 	 -34.221 	 -103.526
| 25> C 	 -18.8129 	 -34.4757 	 -102.491
| 26> C 	 -18.3258 	 -33.3362 	 -101.768
| 27> C 	 -18.6335 	 -32.1203 	 -102.439
| 28> H 	 -18.5466 	 -35.4885 	 -102.283
| 29> C 	 -17.4316 	 -33.3904 	 -100.512
| 30> H 	 -18.1196 	 -33.4547 	 -99.6444
| 31> H 	 -16.7482 	 -32.6098 	 -100.464
| 32> C 	 -16.6435 	 -34.7317 	 -100.376
| 33> H 	 -17.3012 	 -35.5985 	 -100.322
| 34> H 	 -16.1245 	 -34.6987 	 -99.3371
| 35> C 	 -15.5849 	 -34.9519 	 -101.501
| 36> H 	 -14.8886 	 -34.0276 	 -101.686
| 37> H 	 -16.0621 	 -35.2384 	 -102.358
| 38> H 	 -14.8758 	 -35.757 	 -101.373
| 39> H 	 -17.8005 	 -27.1533 	 -102.567
| 40> H 	 -19.9722 	 -35.061 	 -104.135
| 41> *
| 42>
| 43>                          ****END OF INPUT****

CARTESIAN COORDINATES (ANGSTROEM)
---------------------------------
  S    -17.934900  -29.576600  -103.399000
  C    -18.027800  -28.207200  -102.320000
  C    -18.743700  -28.550700  -101.138000
  C    -19.014100  -29.961900  -101.147000
  C    -18.510500  -30.655900  -102.164000
  H    -19.480200  -30.499200  -100.352000
  C    -19.259600  -27.657400  -100.043000
  H    -20.331300  -27.758300  -100.238000
  H    -18.891200  -26.623200  -100.181000
  C    -18.964300  -28.130900  -98.625100
  H    -19.585700  -27.632600  -97.931700
  H    -19.126600  -29.199900  -98.544800
  C    -17.545200  -27.781000  -98.163900
  H    -16.834800  -28.169700  -98.838300
  H    -17.313600  -26.697800  -97.960300
  H    -17.377100  -28.384200  -97.248800
  S    -19.685600  -32.517700  -103.793000
  C    -19.632800  -34.221000  -103.526000
  C    -18.812900  -34.475700  -102.491000
  C    -18.325800  -33.336200  -101.768000
  C    -18.633500  -32.120300  -102.439000
  H    -18.546600  -35.488500  -102.283000
  C    -17.431600  -33.390400  -100.512000
  H    -18.119600  -33.454700  -99.644400
  H    -16.748200  -32.609800  -100.464000
  C    -16.643500  -34.731700  -100.376000
  H    -17.301200  -35.598500  -100.322000
  H    -16.124500  -34.698700  -99.337100
  C    -15.584900  -34.951900  -101.501000
  H    -14.888600  -34.027600  -101.686000
  H    -16.062100  -35.238400  -102.358000
  H    -14.875800  -35.757000  -101.373000
  H    -17.800500  -27.153300  -102.567000
  H    -19.972200  -35.061000  -104.135000

 Total Charge           Charge          ....    0
 Multiplicity           Mult            ....    1
 Number of Electrons    NEL             ....  134
 Basis Dimension        Dim             ....  322

ORBITAL ENERGIES
----------------

  NO   OCC          E(Eh)            E(eV)
   0   2.0000     -88.964776     -2420.8546
   1   2.0000     -88.962076     -2420.7812
   2   2.0000     -10.332900      -281.1725
   3   2.0000     -10.327635      -281.0292
   4   2.0000     -10.319360      -280.8041
   5   2.0000     -10.312789      -280.6253
   6   2.0000     -10.310810      -280.5714
   7   2.0000     -10.305922      -280.4384
   8   2.0000     -10.297970      -280.2220
   9   2.0000     -10.295354      -280.1508
  10   2.0000     -10.294368      -280.1240
  11   2.0000     -10.288717      -279.9702
  12   2.0000     -10.287659      -279.9414
  13   2.0000     -10.283989      -279.8416
  14   2.0000     -10.276787      -279.6456
  15   2.0000     -10.276054      -279.6257
  16   2.0000      -8.079829      -219.8633
  17   2.0000      -8.077073      -219.7883
  18   2.0000      -6.038417      -164.3137
  19   2.0000      -6.035665      -164.2388
  20   2.0000      -6.034363      -164.2034
  21   2.0000      -6.031342      -164.1212
  22   2.0000      -6.030405      -164.0957
  23   2.0000      -6.027897      -164.0274
  24   2.0000      -1.008493       -27.4425
  25   2.0000      -0.987556       -26.8728
  26   2.0000      -0.917332       -24.9619
  27   2.0000      -0.903732       -24.5918
  28   2.0000      -0.869687       -23.6654
  29   2.0000      -0.849040       -23.1036
  30   2.0000      -0.837534       -22.7904
  31   2.0000      -0.821176       -22.3453
  32   2.0000      -0.784535       -21.3483
  33   2.0000      -0.774324       -21.0704
  34   2.0000      -0.709536       -19.3075
  35   2.0000      -0.696234       -18.9455
  36   2.0000      -0.692164       -18.8347
  37   2.0000      -0.648864       -17.6565
  38   2.0000      -0.642393       -17.4804
  39   2.0000      -0.627176       -17.0663
  40   2.0000      -0.598768       -16.2933
  41   2.0000      -0.571128       -15.5412
  42   2.0000      -0.557805       -15.1786
  43   2.0000      -0.555710       -15.1216
  44   2.0000      -0.543665       -14.7939
  45   2.0000      -0.528108       -14.3706
  46   2.0000      -0.518894       -14.1198
  47   2.0000      -0.516110       -14.0441
  48   2.0000      -0.505036       -13.7427
  49   2.0000      -0.492968       -13.4143
  50   2.0000      -0.485164       -13.2020
  51   2.0000      -0.478742       -13.0272
  52   2.0000      -0.472614       -12.8605
  53   2.0000      -0.466999       -12.7077
  54   2.0000      -0.464092       -12.6286
  55   2.0000      -0.445257       -12.1161
  56   2.0000      -0.439148       -11.9498
  57   2.0000      -0.436907       -11.8888
  58   2.0000      -0.433703       -11.8017
  59   2.0000      -0.429889       -11.6979
  60   2.0000      -0.424435       -11.5495
  61   2.0000      -0.416256       -11.3269
  62   2.0000      -0.406027       -11.0485
  63   2.0000      -0.346966        -9.4414
  64   2.0000      -0.327473        -8.9110
  65   2.0000      -0.324373        -8.8266
  66   2.0000      -0.299757        -8.1568
  67   0.0000       0.036628         0.9967
  68   0.0000       0.065403         1.7797
  69   0.0000       0.114487         3.1154
  70   0.0000       0.127474         3.4687
  71   0.0000       0.133968         3.6454

MULLIKEN ATOMIC CHARGES
-----------------------
   0 S :    0.107888
   1 C :   -0.117860
   2 C :   -0.119021
   3 C :    0.035855
   4 C :   -0.146046
   5 H :    0.002594
   6 C :    0.076677
   7 H :    0.047384
   8 H :    0.025548
   9 C :   -0.055187
  10 H :    0.021789
  11 H :    0.026515
  12 C :   -0.063198
  13 H :    0.023721
  14 H :    0.045660
  15 H :    0.030081
  16 S :    0.097157
  17 C :   -0.065434
  18 C :   -0.051640
  19 C :   -0.056579
  20 C :   -0.158459
  21 H :    0.007953
  22 C :    0.124255
  23 H :    0.042351
  24 H :    0.027107
  25 C :   -0.140458
  26 H :    0.031626
  27 H :    0.040780
  28 C :   -0.036968
  29 H :    0.044837
  30 H :    0.010465
  31 H :    0.025192
  32 H :    0.056970
  33 H :    0.058444
Sum of atomic charges:    0.0000000

LOEWDIN ATOMIC CHARGES
----------------------
   0 S :    0.409255
   1 C :   -0.209278
   2 C :   -0.059056
   3 C :   -0.063736
   4 C :   -0.200036
   5 H :    0.027409
   6 C :   -0.033119
   7 H :    0.042254
   8 H :    0.033046
   9 C :   -0.036971
  10 H :    0.020773
  11 H :    0.023606
  12 C :   -0.067089
  13 H :    0.017030
  14 H :    0.030993
  15 H :    0.030448
  16 S :    0.412668
  17 C :   -0.197856
  18 C :   -0.079570
  19 C :   -0.055436
  20 C :   -0.195042
  21 H :    0.025325
  22 C :   -0.020390
  23 H :    0.040538
  24 H :    0.022438
  25 C :   -0.045395
  26 H :    0.018870
  27 H :    0.032614
  28 C :   -0.071779
  29 H :    0.038983
  30 H :    0.009610
  31 H :    0.024318
  32 H :    0.034055
  33 H :    0.040522

  Mayer bond orders larger than 0.100000
B(  0-S ,  1-C ) :   1.1399 B(  0-S ,  4-C ) :   1.1451 B(  1-C ,  2-C ) :   1.6036
B(  1-C , 32-H ) :   0.9643 B(  2-C ,  3-C ) :   1.2196 B(  2-C ,  6-C ) :   1.0201
B(  3-C ,  4-C ) :   1.6235 B(  3-C ,  5-H ) :   0.9943 B(  4-C , 20-C ) :   0.9846
B(  6-C ,  7-H ) :   0.9306 B(  6-C ,  8-H ) :   0.9419 B(  6-C ,  9-C ) :   1.0794
B(  9-C , 10-H ) :   0.9516 B(  9-C , 11-H ) :   0.9556 B(  9-C , 12-C ) :   1.0781
B( 12-C , 13-H ) :   0.9772 B( 12-C , 14-H ) :   0.9748 B( 12-C , 15-H ) :   0.9720
B( 16-S , 17-C ) :   1.1538 B( 16-S , 20-C ) :   1.1585 B( 17-C , 18-C ) :   1.6242
B( 17-C , 33-H ) :   0.9567 B( 18-C , 19-C ) :   1.2476 B( 18-C , 21-H ) :   0.9841
B( 19-C , 20-C ) :   1.5935 B( 19-C , 22-C ) :   1.0239 B( 22-C , 23-H ) :   0.9260
B( 22-C , 24-H ) :   0.9487 B( 22-C , 25-C ) :   1.0790 B( 25-C , 26-H ) :   0.9509
B( 25-C , 27-H ) :   0.9586 B( 25-C , 28-C ) :   1.0661 B( 28-C , 29-H ) :   0.9752
B( 28-C , 30-H ) :   0.9737 B( 28-C , 31-H ) :   0.9740

Dispersion correction           -0.014012976
FINAL SINGLE POINT ENERGY     -1339.863752270080

DIPOLE MOMENT
-------------
                                X             Y             Z
Electronic contribution:    -10.11401       1.56103     -23.39405
Nuclear contribution   :     10.08668      -1.69452      24.03545
                        -----------------------------------------
Total Dipole Moment    :     -0.02733      -0.13350       0.64140
                        -----------------------------------------
Magnitude (a.u.)       :      0.65571
Magnitude (Debye)      :      1.66669

Rotational constants in cm-1:     0.019102     0.008351     0.006753
Rotational constants in MHz :   572.649614   250.370588   202.464787

                             ****ORCA TERMINATED NORMALLY****
TOTAL RUN TIME: 0 days 0 hours 0 minutes 21 seconds 452 msec
