                         Program Version 4.2.1 -  RELEASE  -
|  1> ! wB97X-D3 SP def2-SVP
|  2> %pal
|  3> nprocs 24
|  4> end
|  5>
|  6> * xyz 0 1
|  7> S 	 -99.2981 	 8.90747 	 1.57809
|  8> C 	 -99.59 	 9.26759 	 -0.0633886
|  9> C 	 -98.3733 	 9.32951 	 -0.783787
| 10> C 	 -97.2361 	 9.22397 	 0.0494728
| 11> C 	 -97.5625 	 9.17367 	 1.38891
| 12> H 	 -96.2394 	 9.30487 	 -0.319234
| 13> C 	 -98.1596 	 9.61538 	 -2.25312
| 14> H 	 -98.9452 	 8.93367 	 -2.68356
| 15> H 	 -97.2047 	 9.22623 	 -2.60902
| 16> C 	 -98.3364 	 11.0757 	 -2.69509
| 17> H 	 -99.3391 	 11.4561 	 -2.42484
| 18> H 	 -97.4977 	 11.6159 	 -2.16325
| 19> C 	 -98.2755 	 11.2495 	 -4.22587
| 20> H 	 -97.4115 	 10.8043 	 -4.6617
| 21> H 	 -99.0059 	 10.6775 	 -4.74191
| 22> H 	 -98.3626 	 12.3094 	 -4.5551
| 23> S 	 -97.1314 	 8.24516 	 3.89024
| 24> C 	 -95.6341 	 8.35667 	 4.66486
| 25> C 	 -94.7249 	 9.0043 	 3.86415
| 26> C 	 -95.317 	 9.50174 	 2.68734
| 27> C 	 -96.584 	 9.05838 	 2.50873
| 28> H 	 -93.719 	 9.08204 	 4.25004
| 29> C 	 -94.5219 	 10.4742 	 1.80928
| 30> H 	 -95.2217 	 10.9015 	 1.02597
| 31> H 	 -93.6073 	 9.99153 	 1.43098
| 32> C 	 -94.0054 	 11.7368 	 2.57812
| 33> H 	 -93.238 	 12.2313 	 1.98878
| 34> H 	 -93.527 	 11.4549 	 3.49885
| 35> C 	 -95.1027 	 12.7834 	 2.90239
| 36> H 	 -94.8019 	 13.7285 	 3.44681
| 37> H 	 -95.9672 	 12.387 	 3.43874
| 38> H 	 -95.4028 	 13.1709 	 1.92207
| 39> H 	 -100.494 	 9.33353 	 -0.525267
| 40> H 	 -95.3659 	 8.1138 	 5.66351
| 41> *
| 42>
| 43>                          ****END OF INPUT****

CARTESIAN COORDINATES (ANGSTROEM)
---------------------------------
  S    -99.298100    8.907470    1.578090
  C    -99.590000    9.267590   -0.063389
  C    -98.373300    9.329510   -0.783787
  C    -97.236100    9.223970    0.049473
  C    -97.562500    9.173670    1.388910
  H    -96.239400    9.304870   -0.319234
  C    -98.159600    9.615380   -2.253120
  H    -98.945200    8.933670   -2.683560
  H    -97.204700    9.226230   -2.609020
  C    -98.336400   11.075700   -2.695090
  H    -99.339100   11.456100   -2.424840
  H    -97.497700   11.615900   -2.163250
  C    -98.275500   11.249500   -4.225870
  H    -97.411500   10.804300   -4.661700
  H    -99.005900   10.677500   -4.741910
  H    -98.362600   12.309400   -4.555100
  S    -97.131400    8.245160    3.890240
  C    -95.634100    8.356670    4.664860
  C    -94.724900    9.004300    3.864150
  C    -95.317000    9.501740    2.687340
  C    -96.584000    9.058380    2.508730
  H    -93.719000    9.082040    4.250040
  C    -94.521900   10.474200    1.809280
  H    -95.221700   10.901500    1.025970
  H    -93.607300    9.991530    1.430980
  C    -94.005400   11.736800    2.578120
  H    -93.238000   12.231300    1.988780
  H    -93.527000   11.454900    3.498850
  C    -95.102700   12.783400    2.902390
  H    -94.801900   13.728500    3.446810
  H    -95.967200   12.387000    3.438740
  H    -95.402800   13.170900    1.922070
  H    -100.494000    9.333530   -0.525267
  H    -95.365900    8.113800    5.663510

 Total Charge           Charge          ....    0
 Multiplicity           Mult            ....    1
 Number of Electrons    NEL             ....  134
 Basis Dimension        Dim             ....  322

ORBITAL ENERGIES
----------------

  NO   OCC          E(Eh)            E(eV)
   0   2.0000     -88.970347     -2421.0062
   1   2.0000     -88.962733     -2420.7990
   2   2.0000     -10.332719      -281.1676
   3   2.0000     -10.322454      -280.8882
   4   2.0000     -10.308753      -280.5154
   5   2.0000     -10.307362      -280.4776
   6   2.0000     -10.300184      -280.2823
   7   2.0000     -10.299470      -280.2628
   8   2.0000     -10.298077      -280.2249
   9   2.0000     -10.295506      -280.1550
  10   2.0000     -10.294227      -280.1201
  11   2.0000     -10.288425      -279.9623
  12   2.0000     -10.287658      -279.9414
  13   2.0000     -10.285858      -279.8924
  14   2.0000     -10.277969      -279.6778
  15   2.0000     -10.275611      -279.6136
  16   2.0000      -8.085225      -220.0102
  17   2.0000      -8.079916      -219.8657
  18   2.0000      -6.043752      -164.4589
  19   2.0000      -6.039743      -164.3497
  20   2.0000      -6.038249      -164.3091
  21   2.0000      -6.035945      -164.2464
  22   2.0000      -6.034077      -164.1956
  23   2.0000      -6.030720      -164.1042
  24   2.0000      -1.020048       -27.7569
  25   2.0000      -0.993661       -27.0389
  26   2.0000      -0.910179       -24.7672
  27   2.0000      -0.904945       -24.6248
  28   2.0000      -0.871099       -23.7038
  29   2.0000      -0.856174       -23.2977
  30   2.0000      -0.846229       -23.0271
  31   2.0000      -0.817844       -22.2547
  32   2.0000      -0.778707       -21.1897
  33   2.0000      -0.772633       -21.0244
  34   2.0000      -0.705299       -19.1922
  35   2.0000      -0.703456       -19.1420
  36   2.0000      -0.694571       -18.9002
  37   2.0000      -0.663423       -18.0527
  38   2.0000      -0.643018       -17.4974
  39   2.0000      -0.624259       -16.9870
  40   2.0000      -0.595701       -16.2099
  41   2.0000      -0.575056       -15.6481
  42   2.0000      -0.559598       -15.2274
  43   2.0000      -0.552557       -15.0359
  44   2.0000      -0.539875       -14.6907
  45   2.0000      -0.525335       -14.2951
  46   2.0000      -0.521959       -14.2032
  47   2.0000      -0.510157       -13.8821
  48   2.0000      -0.503540       -13.7020
  49   2.0000      -0.500188       -13.6108
  50   2.0000      -0.497729       -13.5439
  51   2.0000      -0.480732       -13.0814
  52   2.0000      -0.474737       -12.9183
  53   2.0000      -0.464407       -12.6371
  54   2.0000      -0.453487       -12.3400
  55   2.0000      -0.449666       -12.2360
  56   2.0000      -0.440692       -11.9918
  57   2.0000      -0.437741       -11.9115
  58   2.0000      -0.435563       -11.8523
  59   2.0000      -0.424124       -11.5410
  60   2.0000      -0.418246       -11.3811
  61   2.0000      -0.415627       -11.3098
  62   2.0000      -0.413986       -11.2651
  63   2.0000      -0.360177        -9.8009
  64   2.0000      -0.335047        -9.1171
  65   2.0000      -0.326768        -8.8918
  66   2.0000      -0.283948        -7.7266
  67   0.0000       0.025912         0.7051
  68   0.0000       0.085405         2.3240
  69   0.0000       0.102655         2.7934
  70   0.0000       0.120937         3.2909
  71   0.0000       0.136961         3.7269

MULLIKEN ATOMIC CHARGES
-----------------------
   0 S :    0.117882
   1 C :   -0.063528
   2 C :   -0.099069
   3 C :    0.014129
   4 C :   -0.108597
   5 H :    0.007324
   6 C :    0.022248
   7 H :    0.029272
   8 H :    0.022843
   9 C :   -0.058032
  10 H :    0.033931
  11 H :    0.040223
  12 C :   -0.023231
  13 H :    0.009227
  14 H :    0.012470
  15 H :    0.045923
  16 S :    0.106141
  17 C :   -0.070978
  18 C :   -0.058920
  19 C :   -0.058286
  20 C :   -0.125413
  21 H :    0.019663
  22 C :    0.052688
  23 H :    0.034430
  24 H :    0.040979
  25 C :   -0.068043
  26 H :    0.027399
  27 H :    0.020573
  28 C :   -0.080222
  29 H :    0.040153
  30 H :    0.049859
  31 H :    0.021733
  32 H :    0.004415
  33 H :    0.040816
Sum of atomic charges:    0.0000000

LOEWDIN ATOMIC CHARGES
----------------------
   0 S :    0.420968
   1 C :   -0.199013
   2 C :   -0.058760
   3 C :   -0.062358
   4 C :   -0.182287
   5 H :    0.027542
   6 C :   -0.040186
   7 H :    0.034152
   8 H :    0.027729
   9 C :   -0.038303
  10 H :    0.027352
  11 H :    0.031589
  12 C :   -0.069045
  13 H :    0.018456
  14 H :    0.020827
  15 H :    0.032802
  16 S :    0.445975
  17 C :   -0.200389
  18 C :   -0.070512
  19 C :   -0.071528
  20 C :   -0.208142
  21 H :    0.031866
  22 C :   -0.029992
  23 H :    0.034741
  24 H :    0.035487
  25 C :   -0.039362
  26 H :    0.023515
  27 H :    0.014814
  28 C :   -0.074300
  29 H :    0.031985
  30 H :    0.027405
  31 H :    0.022276
  32 H :    0.008449
  33 H :    0.026249

  Mayer bond orders larger than 0.100000
B(  0-S ,  1-C ) :   1.1494 B(  0-S ,  4-C ) :   1.1609 B(  1-C ,  2-C ) :   1.5676
B(  1-C ,  4-C ) :   0.1045 B(  1-C , 32-H ) :   0.9844 B(  2-C ,  3-C ) :   1.2765
B(  2-C ,  6-C ) :   1.0233 B(  3-C ,  4-C ) :   1.5346 B(  3-C ,  5-H ) :   0.9982
B(  4-C , 20-C ) :   1.0401 B(  6-C ,  7-H ) :   0.9347 B(  6-C ,  8-H ) :   0.9462
B(  6-C ,  9-C ) :   1.0622 B(  9-C , 10-H ) :   0.9569 B(  9-C , 11-H ) :   0.9545
B(  9-C , 12-C ) :   1.0771 B( 12-C , 13-H ) :   0.9710 B( 12-C , 14-H ) :   0.9711
B( 12-C , 15-H ) :   0.9755 B( 16-S , 17-C ) :   1.1732 B( 16-S , 20-C ) :   1.1510
B( 17-C , 18-C ) :   1.6068 B( 17-C , 33-H ) :   0.9704 B( 18-C , 19-C ) :   1.2423
B( 18-C , 21-H ) :   0.9938 B( 19-C , 20-C ) :   1.6081 B( 19-C , 22-C ) :   1.0373
B( 22-C , 23-H ) :   0.9386 B( 22-C , 24-H ) :   0.9325 B( 22-C , 25-C ) :   1.0668
B( 25-C , 26-H ) :   0.9578 B( 25-C , 27-H ) :   0.9567 B( 25-C , 28-C ) :   1.0671
B( 28-C , 29-H ) :   0.9752 B( 28-C , 30-H ) :   0.9794 B( 28-C , 31-H ) :   0.9735

Dispersion correction           -0.013928739
FINAL SINGLE POINT ENERGY     -1339.873561310631

DIPOLE MOMENT
-------------
                                X             Y             Z
Electronic contribution:    -10.46738     -18.88672      19.87632
Nuclear contribution   :     10.88002      19.15313     -20.25025
                        -----------------------------------------
Total Dipole Moment    :      0.41264       0.26640      -0.37393
                        -----------------------------------------
Magnitude (a.u.)       :      0.61731
Magnitude (Debye)      :      1.56907

Rotational constants in cm-1:     0.019663     0.008389     0.006472
Rotational constants in MHz :   589.490114   251.501653   194.017806

                             ****ORCA TERMINATED NORMALLY****
TOTAL RUN TIME: 0 days 0 hours 0 minutes 21 seconds 436 msec
