                         Program Version 4.2.1 -  RELEASE  -
|  1> ! wB97X-D3 SP def2-SVP
|  2> %pal
|  3> nprocs 24
|  4> end
|  5>
|  6> * xyz 0 1
|  7> S 	 -54.9789 	 2.9806 	 -22.6237
|  8> C 	 -56.4968 	 3.7874 	 -22.4863
|  9> C 	 -56.9617 	 4.04058 	 -23.7554
| 10> C 	 -55.9715 	 3.73941 	 -24.7361
| 11> C 	 -54.8881 	 3.04912 	 -24.2761
| 12> H 	 -56.1106 	 3.98541 	 -25.7372
| 13> C 	 -58.2728 	 4.82419 	 -24.0217
| 14> H 	 -58.0122 	 5.77406 	 -24.3692
| 15> H 	 -58.8189 	 5.08467 	 -23.0369
| 16> C 	 -59.2129 	 4.19062 	 -25.1218
| 17> H 	 -58.8122 	 3.91612 	 -26.0459
| 18> H 	 -59.6687 	 3.25413 	 -24.7403
| 19> C 	 -60.3427 	 5.23034 	 -25.395
| 20> H 	 -60.8061 	 5.01137 	 -26.3516
| 21> H 	 -61.0114 	 5.29842 	 -24.5293
| 22> H 	 -59.9449 	 6.26506 	 -25.5918
| 23> S 	 -52.6353 	 1.52068 	 -24.156
| 24> C 	 -51.5082 	 1.44406 	 -25.4724
| 25> C 	 -52.116 	 1.91664 	 -26.6274
| 26> C 	 -53.3539 	 2.62057 	 -26.3957
| 27> C 	 -53.7216 	 2.62311 	 -25.0165
| 28> H 	 -51.6415 	 1.81514 	 -27.5924
| 29> C 	 -54.1054 	 3.27896 	 -27.5791
| 30> H 	 -53.2714 	 3.36246 	 -28.3218
| 31> H 	 -54.2925 	 4.31129 	 -27.2069
| 32> C 	 -55.1948 	 2.44536 	 -28.2648
| 33> H 	 -55.6852 	 3.15503 	 -28.9815
| 34> H 	 -56.024 	 2.11703 	 -27.7012
| 35> C 	 -54.5101 	 1.35389 	 -28.9964
| 36> H 	 -55.2342 	 1.03109 	 -29.6749
| 37> H 	 -54.4317 	 0.519055 	 -28.3184
| 38> H 	 -53.6272 	 1.58858 	 -29.63
| 39> H 	 -57.1462 	 3.94209 	 -21.5911
| 40> H 	 -50.6034 	 0.865935 	 -25.4824
| 41> *
| 42>
| 43>                          ****END OF INPUT****

CARTESIAN COORDINATES (ANGSTROEM)
---------------------------------
  S    -54.978900    2.980600  -22.623700
  C    -56.496800    3.787400  -22.486300
  C    -56.961700    4.040580  -23.755400
  C    -55.971500    3.739410  -24.736100
  C    -54.888100    3.049120  -24.276100
  H    -56.110600    3.985410  -25.737200
  C    -58.272800    4.824190  -24.021700
  H    -58.012200    5.774060  -24.369200
  H    -58.818900    5.084670  -23.036900
  C    -59.212900    4.190620  -25.121800
  H    -58.812200    3.916120  -26.045900
  H    -59.668700    3.254130  -24.740300
  C    -60.342700    5.230340  -25.395000
  H    -60.806100    5.011370  -26.351600
  H    -61.011400    5.298420  -24.529300
  H    -59.944900    6.265060  -25.591800
  S    -52.635300    1.520680  -24.156000
  C    -51.508200    1.444060  -25.472400
  C    -52.116000    1.916640  -26.627400
  C    -53.353900    2.620570  -26.395700
  C    -53.721600    2.623110  -25.016500
  H    -51.641500    1.815140  -27.592400
  C    -54.105400    3.278960  -27.579100
  H    -53.271400    3.362460  -28.321800
  H    -54.292500    4.311290  -27.206900
  C    -55.194800    2.445360  -28.264800
  H    -55.685200    3.155030  -28.981500
  H    -56.024000    2.117030  -27.701200
  C    -54.510100    1.353890  -28.996400
  H    -55.234200    1.031090  -29.674900
  H    -54.431700    0.519055  -28.318400
  H    -53.627200    1.588580  -29.630000
  H    -57.146200    3.942090  -21.591100
  H    -50.603400    0.865935  -25.482400

 Total Charge           Charge          ....    0
 Multiplicity           Mult            ....    1
 Number of Electrons    NEL             ....  134
 Basis Dimension        Dim             ....  322

ORBITAL ENERGIES
----------------

  NO   OCC          E(Eh)            E(eV)
   0   2.0000     -88.963398     -2420.8171
   1   2.0000     -88.962128     -2420.7826
   2   2.0000     -10.332755      -281.1686
   3   2.0000     -10.322774      -280.8970
   4   2.0000     -10.316136      -280.7163
   5   2.0000     -10.311260      -280.5837
   6   2.0000     -10.309174      -280.5269
   7   2.0000     -10.300664      -280.2953
   8   2.0000     -10.299046      -280.2513
   9   2.0000     -10.298256      -280.2298
  10   2.0000     -10.294959      -280.1401
  11   2.0000     -10.289996      -280.0050
  12   2.0000     -10.288212      -279.9565
  13   2.0000     -10.283266      -279.8219
  14   2.0000     -10.282886      -279.8116
  15   2.0000     -10.271900      -279.5126
  16   2.0000      -8.079160      -219.8451
  17   2.0000      -8.078190      -219.8187
  18   2.0000      -6.037618      -164.2920
  19   2.0000      -6.036770      -164.2689
  20   2.0000      -6.033210      -164.1720
  21   2.0000      -6.032699      -164.1581
  22   2.0000      -6.029924      -164.0826
  23   2.0000      -6.028881      -164.0542
  24   2.0000      -1.019614       -27.7451
  25   2.0000      -0.985573       -26.8188
  26   2.0000      -0.918235       -24.9864
  27   2.0000      -0.906622       -24.6704
  28   2.0000      -0.872955       -23.7543
  29   2.0000      -0.854315       -23.2471
  30   2.0000      -0.842485       -22.9252
  31   2.0000      -0.815102       -22.1801
  32   2.0000      -0.780723       -21.2445
  33   2.0000      -0.770724       -20.9725
  34   2.0000      -0.713414       -19.4130
  35   2.0000      -0.704969       -19.1832
  36   2.0000      -0.691056       -18.8046
  37   2.0000      -0.665547       -18.1105
  38   2.0000      -0.636149       -17.3105
  39   2.0000      -0.625739       -17.0272
  40   2.0000      -0.590663       -16.0727
  41   2.0000      -0.568716       -15.4756
  42   2.0000      -0.564809       -15.3692
  43   2.0000      -0.561743       -15.2858
  44   2.0000      -0.550475       -14.9792
  45   2.0000      -0.525182       -14.2909
  46   2.0000      -0.518857       -14.1188
  47   2.0000      -0.510707       -13.8970
  48   2.0000      -0.503013       -13.6877
  49   2.0000      -0.498479       -13.5643
  50   2.0000      -0.489258       -13.3134
  51   2.0000      -0.481528       -13.1031
  52   2.0000      -0.471763       -12.8373
  53   2.0000      -0.465318       -12.6619
  54   2.0000      -0.462846       -12.5947
  55   2.0000      -0.450048       -12.2464
  56   2.0000      -0.447481       -12.1766
  57   2.0000      -0.444042       -12.0830
  58   2.0000      -0.435047       -11.8382
  59   2.0000      -0.427018       -11.6197
  60   2.0000      -0.421083       -11.4582
  61   2.0000      -0.407007       -11.0752
  62   2.0000      -0.400740       -10.9047
  63   2.0000      -0.364123        -9.9083
  64   2.0000      -0.330980        -9.0064
  65   2.0000      -0.323921        -8.8143
  66   2.0000      -0.281758        -7.6670
  67   0.0000       0.018644         0.5073
  68   0.0000       0.094430         2.5696
  69   0.0000       0.100254         2.7281
  70   0.0000       0.121988         3.3195
  71   0.0000       0.132877         3.6158

MULLIKEN ATOMIC CHARGES
-----------------------
   0 S :    0.103283
   1 C :   -0.130382
   2 C :   -0.070608
   3 C :   -0.008550
   4 C :   -0.062506
   5 H :   -0.033011
   6 C :    0.041494
   7 H :    0.018616
   8 H :    0.032576
   9 C :   -0.065546
  10 H :    0.020327
  11 H :    0.036684
  12 C :   -0.071212
  13 H :    0.031160
  14 H :    0.042316
  15 H :    0.027731
  16 S :    0.081238
  17 C :   -0.069356
  18 C :   -0.038203
  19 C :   -0.087225
  20 C :   -0.106953
  21 H :    0.015503
  22 C :    0.017602
  23 H :    0.020603
  24 H :    0.047976
  25 C :   -0.035920
  26 H :    0.027599
  27 H :    0.027570
  28 C :   -0.026661
  29 H :    0.007804
  30 H :    0.043581
  31 H :    0.042172
  32 H :    0.063969
  33 H :    0.056330
Sum of atomic charges:    0.0000000

LOEWDIN ATOMIC CHARGES
----------------------
   0 S :    0.451878
   1 C :   -0.218688
   2 C :   -0.063757
   3 C :   -0.070511
   4 C :   -0.219937
   5 H :    0.014160
   6 C :   -0.027259
   7 H :    0.020920
   8 H :    0.039836
   9 C :   -0.035301
  10 H :    0.013987
  11 H :    0.029126
  12 C :   -0.069532
  13 H :    0.024008
  14 H :    0.026252
  15 H :    0.026597
  16 S :    0.399829
  17 C :   -0.188763
  18 C :   -0.072909
  19 C :   -0.056640
  20 C :   -0.184375
  21 H :    0.028842
  22 C :   -0.039526
  23 H :    0.033597
  24 H :    0.032492
  25 C :   -0.037036
  26 H :    0.028346
  27 H :    0.021707
  28 C :   -0.064525
  29 H :    0.021495
  30 H :    0.032194
  31 H :    0.032411
  32 H :    0.042009
  33 H :    0.029071

  Mayer bond orders larger than 0.100000
B(  0-S ,  1-C ) :   1.1451 B(  0-S ,  4-C ) :   1.1717 B(  1-C ,  2-C ) :   1.5903
B(  1-C , 32-H ) :   0.9627 B(  2-C ,  3-C ) :   1.2741 B(  2-C ,  6-C ) :   1.0160
B(  3-C ,  4-C ) :   1.5285 B(  3-C ,  5-H ) :   1.0076 B(  4-C , 20-C ) :   1.0814
B(  6-C ,  7-H ) :   0.9464 B(  6-C ,  8-H ) :   0.9506 B(  6-C ,  9-C ) :   1.0417
B(  9-C , 10-H ) :   0.9639 B(  9-C , 11-H ) :   0.9574 B(  9-C , 12-C ) :   1.0779
B( 12-C , 13-H ) :   0.9752 B( 12-C , 14-H ) :   0.9778 B( 12-C , 15-H ) :   0.9756
B( 16-S , 17-C ) :   1.1589 B( 16-S , 20-C ) :   1.1442 B( 17-C , 18-C ) :   1.5864
B( 17-C , 20-C ) :   0.1062 B( 17-C , 33-H ) :   0.9693 B( 18-C , 19-C ) :   1.2750
B( 18-C , 21-H ) :   0.9848 B( 19-C , 20-C ) :   1.5544 B( 19-C , 22-C ) :   1.0128
B( 22-C , 23-H ) :   0.9438 B( 22-C , 24-H ) :   0.9402 B( 22-C , 25-C ) :   1.0516
B( 25-C , 26-H ) :   0.9558 B( 25-C , 27-H ) :   0.9545 B( 25-C , 28-C ) :   1.0844
B( 28-C , 29-H ) :   0.9622 B( 28-C , 30-H ) :   0.9693 B( 28-C , 31-H ) :   0.9729

Dispersion correction           -0.014047042
FINAL SINGLE POINT ENERGY     -1339.851222205772

DIPOLE MOMENT
-------------
                                X             Y             Z
Electronic contribution:     21.27589      -7.45771      21.39718
Nuclear contribution   :    -21.72109       7.57030     -22.13351
                        -----------------------------------------
Total Dipole Moment    :     -0.44520       0.11259      -0.73633
                        -----------------------------------------
Magnitude (a.u.)       :      0.86779
Magnitude (Debye)      :      2.20574

Rotational constants in cm-1:     0.018887     0.009020     0.006360
Rotational constants in MHz :   566.231793   270.423378   190.673852

                             ****ORCA TERMINATED NORMALLY****
TOTAL RUN TIME: 0 days 0 hours 0 minutes 21 seconds 632 msec
