                         Program Version 4.2.1 -  RELEASE  -
|  1> ! wB97X-D3 SP def2-SVP
|  2> %pal
|  3> nprocs 24
|  4> end
|  5>
|  6> * xyz 0 1
|  7> S 	 -129.077 	 56.7463 	 -58.4723
|  8> C 	 -130.192 	 58.0652 	 -58.2551
|  9> C 	 -129.588 	 59.1567 	 -57.6173
| 10> C 	 -128.194 	 59.0028 	 -57.5308
| 11> C 	 -127.763 	 57.751 	 -58.0058
| 12> H 	 -127.509 	 59.6755 	 -57.0764
| 13> C 	 -130.374 	 60.2916 	 -56.9033
| 14> H 	 -129.874 	 60.7134 	 -55.9803
| 15> H 	 -131.381 	 59.8833 	 -56.6839
| 16> C 	 -130.796 	 61.4505 	 -57.8131
| 17> H 	 -129.94 	 61.9561 	 -58.2718
| 18> H 	 -131.495 	 61.1121 	 -58.5993
| 19> C 	 -131.655 	 62.5679 	 -57.1287
| 20> H 	 -132.664 	 62.1949 	 -56.8625
| 21> H 	 -131.228 	 63.016 	 -56.1954
| 22> H 	 -131.738 	 63.4092 	 -57.8797
| 23> S 	 -125.828 	 56.1109 	 -57.0827
| 24> C 	 -124.191 	 56.3625 	 -57.6554
| 25> C 	 -124.138 	 57.3398 	 -58.6175
| 26> C 	 -125.37 	 58.0438 	 -58.7598
| 27> C 	 -126.386 	 57.367 	 -58.1164
| 28> H 	 -123.208 	 57.5228 	 -59.2776
| 29> C 	 -125.447 	 59.2003 	 -59.7763
| 30> H 	 -126.528 	 59.313 	 -60.0755
| 31> H 	 -124.86 	 58.9006 	 -60.6369
| 32> C 	 -124.9 	 60.5513 	 -59.2773
| 33> H 	 -123.867 	 60.504 	 -59.2927
| 34> H 	 -125.215 	 60.7827 	 -58.2143
| 35> C 	 -125.41 	 61.7326 	 -60.0851
| 36> H 	 -124.966 	 62.7225 	 -59.776
| 37> H 	 -126.463 	 61.9432 	 -60.0727
| 38> H 	 -125.148 	 61.655 	 -61.1793
| 39> H 	 -131.258 	 57.9051 	 -58.322
| 40> H 	 -123.458 	 55.5421 	 -57.5783
| 41> *
| 42>
| 43>                          ****END OF INPUT****

CARTESIAN COORDINATES (ANGSTROEM)
---------------------------------
  S    -129.077000   56.746300  -58.472300
  C    -130.192000   58.065200  -58.255100
  C    -129.588000   59.156700  -57.617300
  C    -128.194000   59.002800  -57.530800
  C    -127.763000   57.751000  -58.005800
  H    -127.509000   59.675500  -57.076400
  C    -130.374000   60.291600  -56.903300
  H    -129.874000   60.713400  -55.980300
  H    -131.381000   59.883300  -56.683900
  C    -130.796000   61.450500  -57.813100
  H    -129.940000   61.956100  -58.271800
  H    -131.495000   61.112100  -58.599300
  C    -131.655000   62.567900  -57.128700
  H    -132.664000   62.194900  -56.862500
  H    -131.228000   63.016000  -56.195400
  H    -131.738000   63.409200  -57.879700
  S    -125.828000   56.110900  -57.082700
  C    -124.191000   56.362500  -57.655400
  C    -124.138000   57.339800  -58.617500
  C    -125.370000   58.043800  -58.759800
  C    -126.386000   57.367000  -58.116400
  H    -123.208000   57.522800  -59.277600
  C    -125.447000   59.200300  -59.776300
  H    -126.528000   59.313000  -60.075500
  H    -124.860000   58.900600  -60.636900
  C    -124.900000   60.551300  -59.277300
  H    -123.867000   60.504000  -59.292700
  H    -125.215000   60.782700  -58.214300
  C    -125.410000   61.732600  -60.085100
  H    -124.966000   62.722500  -59.776000
  H    -126.463000   61.943200  -60.072700
  H    -125.148000   61.655000  -61.179300
  H    -131.258000   57.905100  -58.322000
  H    -123.458000   55.542100  -57.578300

 Total Charge           Charge          ....    0
 Multiplicity           Mult            ....    1
 Number of Electrons    NEL             ....  134
 Basis Dimension        Dim             ....  322

ORBITAL ENERGIES
----------------

  NO   OCC          E(Eh)            E(eV)
   0   2.0000     -88.971144     -2421.0279
   1   2.0000     -88.963985     -2420.8331
   2   2.0000     -10.323659      -280.9210
   3   2.0000     -10.320412      -280.8327
   4   2.0000     -10.314556      -280.6733
   5   2.0000     -10.314442      -280.6702
   6   2.0000     -10.305309      -280.4217
   7   2.0000     -10.302823      -280.3541
   8   2.0000     -10.301099      -280.3072
   9   2.0000     -10.299552      -280.2651
  10   2.0000     -10.295568      -280.1567
  11   2.0000     -10.291607      -280.0489
  12   2.0000     -10.290010      -280.0054
  13   2.0000     -10.288778      -279.9719
  14   2.0000     -10.286368      -279.9063
  15   2.0000     -10.281707      -279.7795
  16   2.0000      -8.086313      -220.0398
  17   2.0000      -8.079593      -219.8569
  18   2.0000      -6.044620      -164.4825
  19   2.0000      -6.040763      -164.3775
  20   2.0000      -6.038087      -164.3047
  21   2.0000      -6.037274      -164.2826
  22   2.0000      -6.034036      -164.1945
  23   2.0000      -6.030267      -164.0919
  24   2.0000      -1.012611       -27.5545
  25   2.0000      -0.987540       -26.8723
  26   2.0000      -0.907831       -24.7033
  27   2.0000      -0.906348       -24.6630
  28   2.0000      -0.869302       -23.6549
  29   2.0000      -0.853380       -23.2217
  30   2.0000      -0.849106       -23.1054
  31   2.0000      -0.808300       -21.9950
  32   2.0000      -0.780161       -21.2293
  33   2.0000      -0.768807       -20.9203
  34   2.0000      -0.703452       -19.1419
  35   2.0000      -0.693301       -18.8657
  36   2.0000      -0.689692       -18.7675
  37   2.0000      -0.659820       -17.9546
  38   2.0000      -0.644187       -17.5292
  39   2.0000      -0.618544       -16.8314
  40   2.0000      -0.592899       -16.1336
  41   2.0000      -0.570520       -15.5246
  42   2.0000      -0.566326       -15.4105
  43   2.0000      -0.555527       -15.1167
  44   2.0000      -0.521608       -14.1937
  45   2.0000      -0.517001       -14.0683
  46   2.0000      -0.514295       -13.9947
  47   2.0000      -0.510416       -13.8891
  48   2.0000      -0.504105       -13.7174
  49   2.0000      -0.493572       -13.4308
  50   2.0000      -0.490924       -13.3587
  51   2.0000      -0.483901       -13.1676
  52   2.0000      -0.469787       -12.7836
  53   2.0000      -0.468829       -12.7575
  54   2.0000      -0.459191       -12.4952
  55   2.0000      -0.446275       -12.1438
  56   2.0000      -0.442789       -12.0489
  57   2.0000      -0.431817       -11.7503
  58   2.0000      -0.430567       -11.7163
  59   2.0000      -0.426131       -11.5956
  60   2.0000      -0.422612       -11.4999
  61   2.0000      -0.420768       -11.4497
  62   2.0000      -0.415453       -11.3050
  63   2.0000      -0.341504        -9.2928
  64   2.0000      -0.335197        -9.1212
  65   2.0000      -0.326828        -8.8934
  66   2.0000      -0.295674        -8.0457
  67   0.0000       0.030767         0.8372
  68   0.0000       0.065960         1.7949
  69   0.0000       0.105345         2.8666
  70   0.0000       0.118441         3.2229
  71   0.0000       0.127752         3.4763

MULLIKEN ATOMIC CHARGES
-----------------------
   0 S :    0.133140
   1 C :   -0.125362
   2 C :   -0.051173
   3 C :    0.041521
   4 C :   -0.177595
   5 H :    0.000337
   6 C :    0.050183
   7 H :    0.047967
   8 H :    0.022069
   9 C :   -0.097310
  10 H :    0.031186
  11 H :    0.035671
  12 C :   -0.090563
  13 H :    0.035474
  14 H :    0.035103
  15 H :    0.046322
  16 S :    0.106070
  17 C :   -0.101399
  18 C :   -0.063404
  19 C :   -0.028607
  20 C :   -0.164366
  21 H :    0.053241
  22 C :    0.040465
  23 H :    0.043863
  24 H :    0.029172
  25 C :   -0.032512
  26 H :    0.014344
  27 H :    0.035067
  28 C :   -0.082410
  29 H :    0.033314
  30 H :    0.033356
  31 H :    0.028498
  32 H :    0.048147
  33 H :    0.070192
Sum of atomic charges:    0.0000000

LOEWDIN ATOMIC CHARGES
----------------------
   0 S :    0.436986
   1 C :   -0.204855
   2 C :   -0.058991
   3 C :   -0.055148
   4 C :   -0.211786
   5 H :    0.027208
   6 C :   -0.034234
   7 H :    0.038860
   8 H :    0.034223
   9 C :   -0.046931
  10 H :    0.019413
  11 H :    0.027965
  12 C :   -0.076477
  13 H :    0.022921
  14 H :    0.023251
  15 H :    0.033917
  16 S :    0.414459
  17 C :   -0.199417
  18 C :   -0.074116
  19 C :   -0.059265
  20 C :   -0.210975
  21 H :    0.046842
  22 C :   -0.027399
  23 H :    0.037138
  24 H :    0.030742
  25 C :   -0.037625
  26 H :    0.014123
  27 H :    0.030464
  28 C :   -0.075003
  29 H :    0.030517
  30 H :    0.021327
  31 H :    0.026555
  32 H :    0.023112
  33 H :    0.032200

  Mayer bond orders larger than 0.100000
B(  0-S ,  1-C ) :   1.1614 B(  0-S ,  4-C ) :   1.1833 B(  1-C ,  2-C ) :   1.5715
B(  1-C ,  4-C ) :   0.1105 B(  1-C , 32-H ) :   0.9673 B(  2-C ,  3-C ) :   1.2791
B(  2-C ,  6-C ) :   1.0120 B(  3-C ,  4-C ) :   1.5233 B(  3-C ,  5-H ) :   1.0076
B(  4-C , 20-C ) :   1.0138 B(  6-C ,  7-H ) :   0.9514 B(  6-C ,  8-H ) :   0.9401
B(  6-C ,  9-C ) :   1.0603 B(  9-C , 10-H ) :   0.9591 B(  9-C , 11-H ) :   0.9579
B(  9-C , 12-C ) :   1.0737 B( 12-C , 13-H ) :   0.9762 B( 12-C , 14-H ) :   0.9755
B( 12-C , 15-H ) :   0.9756 B( 16-S , 17-C ) :   1.1445 B( 16-S , 20-C ) :   1.1620
B( 17-C , 18-C ) :   1.6308 B( 17-C , 20-C ) :   0.1015 B( 17-C , 33-H ) :   0.9573
B( 18-C , 19-C ) :   1.2301 B( 18-C , 21-H ) :   0.9701 B( 19-C , 20-C ) :   1.6106
B( 19-C , 22-C ) :   1.0405 B( 22-C , 23-H ) :   0.9442 B( 22-C , 24-H ) :   0.9382
B( 22-C , 25-C ) :   1.0509 B( 25-C , 26-H ) :   0.9521 B( 25-C , 27-H ) :   0.9572
B( 25-C , 28-C ) :   1.0875 B( 28-C , 29-H ) :   0.9733 B( 28-C , 30-H ) :   0.9767
B( 28-C , 31-H ) :   0.9713

Dispersion correction           -0.013991442
FINAL SINGLE POINT ENERGY     -1339.877656753742

DIPOLE MOMENT
-------------
                                X             Y             Z
Electronic contribution:      5.72275     -31.69973       4.91973
Nuclear contribution   :     -5.73704      32.18774      -5.05403
                        -----------------------------------------
Total Dipole Moment    :     -0.01429       0.48801      -0.13430
                        -----------------------------------------
Magnitude (a.u.)       :      0.50635
Magnitude (Debye)      :      1.28705

Rotational constants in cm-1:     0.017866     0.008696     0.006463
Rotational constants in MHz :   535.616231   260.704532   193.754425

                             ****ORCA TERMINATED NORMALLY****
TOTAL RUN TIME: 0 days 0 hours 0 minutes 21 seconds 220 msec
