                         Program Version 4.2.1 -  RELEASE  -
|  1> ! wB97X-D3 SP def2-SVP
|  2> %pal
|  3> nprocs 24
|  4> end
|  5>
|  6> * xyz 0 1
|  7> S 	 -107.613 	 21.1996 	 -118.944
|  8> C 	 -107.399 	 19.6467 	 -118.164
|  9> C 	 -106.812 	 18.7398 	 -118.997
| 10> C 	 -106.439 	 19.314 	 -120.25
| 11> C 	 -106.908 	 20.6109 	 -120.438
| 12> H 	 -105.968 	 18.8767 	 -121.121
| 13> C 	 -106.512 	 17.3113 	 -118.573
| 14> H 	 -106.246 	 16.881 	 -119.462
| 15> H 	 -107.471 	 16.772 	 -118.307
| 16> C 	 -105.497 	 17.2288 	 -117.384
| 17> H 	 -105.98 	 17.7448 	 -116.494
| 18> H 	 -105.446 	 16.1944 	 -117.104
| 19> C 	 -104.134 	 17.7762 	 -117.773
| 20> H 	 -104.198 	 18.8151 	 -118.099
| 21> H 	 -103.645 	 17.6818 	 -116.899
| 22> H 	 -103.527 	 17.2985 	 -118.61
| 23> S 	 -105.495 	 22.714 	 -121.553
| 24> C 	 -105.759 	 23.2142 	 -123.214
| 25> C 	 -106.68 	 22.4021 	 -123.757
| 26> C 	 -107.234 	 21.4164 	 -122.867
| 27> C 	 -106.738 	 21.4681 	 -121.576
| 28> H 	 -106.907 	 22.5344 	 -124.805
| 29> C 	 -108.196 	 20.4687 	 -123.44
| 30> H 	 -108.925 	 20.9541 	 -124.082
| 31> H 	 -108.776 	 20.1067 	 -122.589
| 32> C 	 -107.617 	 19.2106 	 -124.2
| 33> H 	 -106.641 	 18.869 	 -123.83
| 34> H 	 -107.422 	 19.44 	 -125.257
| 35> C 	 -108.645 	 18.066 	 -124.246
| 36> H 	 -108.809 	 17.6584 	 -123.214
| 37> H 	 -108.22 	 17.2828 	 -124.83
| 38> H 	 -109.543 	 18.3511 	 -124.755
| 39> H 	 -107.679 	 19.3831 	 -117.18
| 40> H 	 -105.341 	 24.0422 	 -123.802
| 41> *
| 42>
| 43>                          ****END OF INPUT****

CARTESIAN COORDINATES (ANGSTROEM)
---------------------------------
  S    -107.613000   21.199600  -118.944000
  C    -107.399000   19.646700  -118.164000
  C    -106.812000   18.739800  -118.997000
  C    -106.439000   19.314000  -120.250000
  C    -106.908000   20.610900  -120.438000
  H    -105.968000   18.876700  -121.121000
  C    -106.512000   17.311300  -118.573000
  H    -106.246000   16.881000  -119.462000
  H    -107.471000   16.772000  -118.307000
  C    -105.497000   17.228800  -117.384000
  H    -105.980000   17.744800  -116.494000
  H    -105.446000   16.194400  -117.104000
  C    -104.134000   17.776200  -117.773000
  H    -104.198000   18.815100  -118.099000
  H    -103.645000   17.681800  -116.899000
  H    -103.527000   17.298500  -118.610000
  S    -105.495000   22.714000  -121.553000
  C    -105.759000   23.214200  -123.214000
  C    -106.680000   22.402100  -123.757000
  C    -107.234000   21.416400  -122.867000
  C    -106.738000   21.468100  -121.576000
  H    -106.907000   22.534400  -124.805000
  C    -108.196000   20.468700  -123.440000
  H    -108.925000   20.954100  -124.082000
  H    -108.776000   20.106700  -122.589000
  C    -107.617000   19.210600  -124.200000
  H    -106.641000   18.869000  -123.830000
  H    -107.422000   19.440000  -125.257000
  C    -108.645000   18.066000  -124.246000
  H    -108.809000   17.658400  -123.214000
  H    -108.220000   17.282800  -124.830000
  H    -109.543000   18.351100  -124.755000
  H    -107.679000   19.383100  -117.180000
  H    -105.341000   24.042200  -123.802000

 Total Charge           Charge          ....    0
 Multiplicity           Mult            ....    1
 Number of Electrons    NEL             ....  134
 Basis Dimension        Dim             ....  322

ORBITAL ENERGIES
----------------

  NO   OCC          E(Eh)            E(eV)
   0   2.0000     -88.965575     -2420.8764
   1   2.0000     -88.959220     -2420.7034
   2   2.0000     -10.328609      -281.0557
   3   2.0000     -10.325163      -280.9620
   4   2.0000     -10.314817      -280.6804
   5   2.0000     -10.309095      -280.5247
   6   2.0000     -10.299473      -280.2629
   7   2.0000     -10.297673      -280.2139
   8   2.0000     -10.297086      -280.1980
   9   2.0000     -10.294236      -280.1204
  10   2.0000     -10.290143      -280.0090
  11   2.0000     -10.287903      -279.9481
  12   2.0000     -10.285889      -279.8933
  13   2.0000     -10.284957      -279.8679
  14   2.0000     -10.276274      -279.6316
  15   2.0000     -10.271224      -279.4942
  16   2.0000      -8.080197      -219.8734
  17   2.0000      -8.074012      -219.7050
  18   2.0000      -6.038671      -164.3206
  19   2.0000      -6.034619      -164.2103
  20   2.0000      -6.032729      -164.1589
  21   2.0000      -6.031093      -164.1144
  22   2.0000      -6.028375      -164.0404
  23   2.0000      -6.024652      -163.9391
  24   2.0000      -1.007640       -27.4193
  25   2.0000      -0.986056       -26.8319
  26   2.0000      -0.912230       -24.8230
  27   2.0000      -0.904806       -24.6210
  28   2.0000      -0.873928       -23.7808
  29   2.0000      -0.850023       -23.1303
  30   2.0000      -0.846786       -23.0422
  31   2.0000      -0.819320       -22.2948
  32   2.0000      -0.784280       -21.3414
  33   2.0000      -0.768390       -20.9090
  34   2.0000      -0.711348       -19.3568
  35   2.0000      -0.705829       -19.2066
  36   2.0000      -0.695874       -18.9357
  37   2.0000      -0.657915       -17.9028
  38   2.0000      -0.644743       -17.5443
  39   2.0000      -0.609560       -16.5870
  40   2.0000      -0.592444       -16.1212
  41   2.0000      -0.575994       -15.6736
  42   2.0000      -0.561168       -15.2701
  43   2.0000      -0.554332       -15.0841
  44   2.0000      -0.540226       -14.7003
  45   2.0000      -0.521852       -14.2003
  46   2.0000      -0.518569       -14.1110
  47   2.0000      -0.516565       -14.0565
  48   2.0000      -0.514530       -14.0011
  49   2.0000      -0.499140       -13.5823
  50   2.0000      -0.495572       -13.4852
  51   2.0000      -0.479536       -13.0488
  52   2.0000      -0.473653       -12.8887
  53   2.0000      -0.460012       -12.5176
  54   2.0000      -0.459646       -12.5076
  55   2.0000      -0.443462       -12.0672
  56   2.0000      -0.440311       -11.9815
  57   2.0000      -0.437587       -11.9073
  58   2.0000      -0.434453       -11.8221
  59   2.0000      -0.422399       -11.4941
  60   2.0000      -0.415421       -11.3042
  61   2.0000      -0.413771       -11.2593
  62   2.0000      -0.413166       -11.2428
  63   2.0000      -0.339168        -9.2292
  64   2.0000      -0.329445        -8.9647
  65   2.0000      -0.321029        -8.7356
  66   2.0000      -0.307661        -8.3719
  67   0.0000       0.036384         0.9900
  68   0.0000       0.061539         1.6746
  69   0.0000       0.123402         3.3579
  70   0.0000       0.126715         3.4481
  71   0.0000       0.131195         3.5700

MULLIKEN ATOMIC CHARGES
-----------------------
   0 S :    0.120201
   1 C :   -0.096663
   2 C :   -0.118044
   3 C :    0.054069
   4 C :   -0.204597
   5 H :    0.010204
   6 C :    0.102211
   7 H :   -0.012388
   8 H :    0.037898
   9 C :   -0.077378
  10 H :    0.037030
  11 H :    0.026430
  12 C :   -0.026112
  13 H :    0.046549
  14 H :    0.014462
  15 H :    0.041752
  16 S :    0.095044
  17 C :   -0.082963
  18 C :   -0.039763
  19 C :   -0.023597
  20 C :   -0.142930
  21 H :    0.014282
  22 C :    0.063595
  23 H :    0.024175
  24 H :    0.021459
  25 C :   -0.078312
  26 H :    0.028389
  27 H :    0.022589
  28 C :   -0.044530
  29 H :    0.043441
  30 H :    0.022528
  31 H :    0.030829
  32 H :    0.027838
  33 H :    0.062303
Sum of atomic charges:   -0.0000000

LOEWDIN ATOMIC CHARGES
----------------------
   0 S :    0.411234
   1 C :   -0.184886
   2 C :   -0.067830
   3 C :   -0.056784
   4 C :   -0.200490
   5 H :    0.032234
   6 C :   -0.030373
   7 H :    0.012809
   8 H :    0.037793
   9 C :   -0.031820
  10 H :    0.031635
  11 H :    0.020600
  12 C :   -0.063729
  13 H :    0.030612
  14 H :    0.011993
  15 H :    0.036397
  16 S :    0.394684
  17 C :   -0.183232
  18 C :   -0.078035
  19 C :   -0.054872
  20 C :   -0.205993
  21 H :    0.030443
  22 C :   -0.036678
  23 H :    0.031719
  24 H :    0.031209
  25 C :   -0.036218
  26 H :    0.021095
  27 H :    0.022443
  28 C :   -0.061989
  29 H :    0.030067
  30 H :    0.021765
  31 H :    0.022390
  32 H :    0.020044
  33 H :    0.041762

  Mayer bond orders larger than 0.100000
B(  0-S ,  1-C ) :   1.1465 B(  0-S ,  4-C ) :   1.1526 B(  1-C ,  2-C ) :   1.6089
B(  1-C , 32-H ) :   0.9733 B(  2-C ,  3-C ) :   1.2302 B(  2-C ,  6-C ) :   1.0098
B(  3-C ,  4-C ) :   1.5856 B(  3-C ,  5-H ) :   0.9923 B(  4-C , 20-C ) :   1.0315
B(  6-C ,  7-H ) :   0.9364 B(  6-C ,  8-H ) :   0.9400 B(  6-C ,  9-C ) :   1.0672
B(  9-C , 10-H ) :   0.9553 B(  9-C , 11-H ) :   0.9558 B(  9-C , 12-C ) :   1.0638
B( 12-C , 13-H ) :   0.9728 B( 12-C , 14-H ) :   0.9712 B( 12-C , 15-H ) :   0.9748
B( 16-S , 17-C ) :   1.1426 B( 16-S , 20-C ) :   1.1244 B( 17-C , 18-C ) :   1.6380
B( 17-C , 33-H ) :   0.9612 B( 18-C , 19-C ) :   1.2200 B( 18-C , 21-H ) :   0.9917
B( 19-C , 20-C ) :   1.6018 B( 19-C , 22-C ) :   1.0770 B( 22-C , 23-H ) :   0.9303
B( 22-C , 24-H ) :   0.9334 B( 22-C , 25-C ) :   1.0418 B( 25-C , 26-H ) :   0.9605
B( 25-C , 27-H ) :   0.9519 B( 25-C , 28-C ) :   1.0899 B( 28-C , 29-H ) :   0.9760
B( 28-C , 30-H ) :   0.9728 B( 28-C , 31-H ) :   0.9746

Dispersion correction           -0.014660114
FINAL SINGLE POINT ENERGY     -1339.870712190629

DIPOLE MOMENT
-------------
                                X             Y             Z
Electronic contribution:      0.13048      23.78686       4.36973
Nuclear contribution   :     -0.14139     -24.40028      -4.69618
                        -----------------------------------------
Total Dipole Moment    :     -0.01091      -0.61342      -0.32646
                        -----------------------------------------
Magnitude (a.u.)       :      0.69496
Magnitude (Debye)      :      1.76646

Rotational constants in cm-1:     0.018380     0.008720     0.007101
Rotational constants in MHz :   551.031471   261.413539   212.877159

                             ****ORCA TERMINATED NORMALLY****
TOTAL RUN TIME: 0 days 0 hours 0 minutes 21 seconds 699 msec
