                         Program Version 4.2.1 -  RELEASE  -
|  1> ! wB97X-D3 SP def2-SVP
|  2> %pal
|  3> nprocs 24
|  4> end
|  5>
|  6> * xyz 0 1
|  7> S 	 -73.7649 	 9.2389 	 -111.151
|  8> C 	 -74.7499 	 9.07965 	 -109.739
|  9> C 	 -74.1829 	 8.41131 	 -108.684
| 10> C 	 -72.9038 	 7.91653 	 -109.152
| 11> C 	 -72.4763 	 8.30258 	 -110.38
| 12> H 	 -72.1908 	 7.31068 	 -108.601
| 13> C 	 -74.7657 	 8.13207 	 -107.344
| 14> H 	 -75.4282 	 7.26214 	 -107.489
| 15> H 	 -75.4094 	 8.87907 	 -106.96
| 16> C 	 -73.6449 	 7.6391 	 -106.279
| 17> H 	 -73.133 	 6.75411 	 -106.67
| 18> H 	 -73.0453 	 8.53354 	 -106.1
| 19> C 	 -74.2618 	 7.3313 	 -104.917
| 20> H 	 -74.8301 	 8.204 	 -104.613
| 21> H 	 -74.9199 	 6.51709 	 -104.877
| 22> H 	 -73.4033 	 7.10675 	 -104.153
| 23> S 	 -71.4523 	 7.20162 	 -112.726
| 24> C 	 -69.7579 	 6.75979 	 -112.789
| 25> C 	 -69.1344 	 7.20463 	 -111.648
| 26> C 	 -69.9425 	 7.87387 	 -110.732
| 27> C 	 -71.2666 	 7.95084 	 -111.144
| 28> H 	 -68.0744 	 6.98112 	 -111.54
| 29> C 	 -69.3153 	 8.28202 	 -109.389
| 30> H 	 -68.4137 	 7.69713 	 -109.335
| 31> H 	 -69.9142 	 7.91068 	 -108.526
| 32> C 	 -68.8833 	 9.73827 	 -109.31
| 33> H 	 -69.7201 	 10.4682 	 -109.401
| 34> H 	 -68.2348 	 9.86544 	 -110.159
| 35> C 	 -67.9521 	 10.1035 	 -108.156
| 36> H 	 -68.445 	 10.1192 	 -107.271
| 37> H 	 -67.5881 	 11.1175 	 -108.337
| 38> H 	 -67.0786 	 9.52782 	 -108.048
| 39> H 	 -75.6955 	 9.60225 	 -109.574
| 40> H 	 -69.2395 	 6.23773 	 -113.632
| 41> *
| 42>
| 43>                          ****END OF INPUT****

CARTESIAN COORDINATES (ANGSTROEM)
---------------------------------
  S    -73.764900    9.238900  -111.151000
  C    -74.749900    9.079650  -109.739000
  C    -74.182900    8.411310  -108.684000
  C    -72.903800    7.916530  -109.152000
  C    -72.476300    8.302580  -110.380000
  H    -72.190800    7.310680  -108.601000
  C    -74.765700    8.132070  -107.344000
  H    -75.428200    7.262140  -107.489000
  H    -75.409400    8.879070  -106.960000
  C    -73.644900    7.639100  -106.279000
  H    -73.133000    6.754110  -106.670000
  H    -73.045300    8.533540  -106.100000
  C    -74.261800    7.331300  -104.917000
  H    -74.830100    8.204000  -104.613000
  H    -74.919900    6.517090  -104.877000
  H    -73.403300    7.106750  -104.153000
  S    -71.452300    7.201620  -112.726000
  C    -69.757900    6.759790  -112.789000
  C    -69.134400    7.204630  -111.648000
  C    -69.942500    7.873870  -110.732000
  C    -71.266600    7.950840  -111.144000
  H    -68.074400    6.981120  -111.540000
  C    -69.315300    8.282020  -109.389000
  H    -68.413700    7.697130  -109.335000
  H    -69.914200    7.910680  -108.526000
  C    -68.883300    9.738270  -109.310000
  H    -69.720100   10.468200  -109.401000
  H    -68.234800    9.865440  -110.159000
  C    -67.952100   10.103500  -108.156000
  H    -68.445000   10.119200  -107.271000
  H    -67.588100   11.117500  -108.337000
  H    -67.078600    9.527820  -108.048000
  H    -75.695500    9.602250  -109.574000
  H    -69.239500    6.237730  -113.632000

 Total Charge           Charge          ....    0
 Multiplicity           Mult            ....    1
 Number of Electrons    NEL             ....  134
 Basis Dimension        Dim             ....  322

ORBITAL ENERGIES
----------------

  NO   OCC          E(Eh)            E(eV)
   0   2.0000     -88.966054     -2420.8894
   1   2.0000     -88.961938     -2420.7774
   2   2.0000     -10.328875      -281.0630
   3   2.0000     -10.326473      -280.9976
   4   2.0000     -10.319775      -280.8154
   5   2.0000     -10.309170      -280.5268
   6   2.0000     -10.300986      -280.3041
   7   2.0000     -10.300666      -280.2954
   8   2.0000     -10.297172      -280.2003
   9   2.0000     -10.296311      -280.1769
  10   2.0000     -10.291856      -280.0556
  11   2.0000     -10.291175      -280.0371
  12   2.0000     -10.289199      -279.9833
  13   2.0000     -10.282990      -279.8144
  14   2.0000     -10.282925      -279.8126
  15   2.0000     -10.263971      -279.2969
  16   2.0000      -8.080528      -219.8824
  17   2.0000      -8.076903      -219.7837
  18   2.0000      -6.039016      -164.3300
  19   2.0000      -6.035425      -164.2323
  20   2.0000      -6.035001      -164.2207
  21   2.0000      -6.031453      -164.1242
  22   2.0000      -6.031381      -164.1222
  23   2.0000      -6.027577      -164.0187
  24   2.0000      -1.006612       -27.3913
  25   2.0000      -0.986321       -26.8392
  26   2.0000      -0.910161       -24.7667
  27   2.0000      -0.908429       -24.7196
  28   2.0000      -0.869776       -23.6678
  29   2.0000      -0.854494       -23.2520
  30   2.0000      -0.846091       -23.0233
  31   2.0000      -0.816564       -22.2198
  32   2.0000      -0.784972       -21.3602
  33   2.0000      -0.772809       -21.0292
  34   2.0000      -0.711700       -19.3664
  35   2.0000      -0.698673       -19.0119
  36   2.0000      -0.686020       -18.6676
  37   2.0000      -0.660089       -17.9619
  38   2.0000      -0.642839       -17.4925
  39   2.0000      -0.618610       -16.8332
  40   2.0000      -0.594438       -16.1755
  41   2.0000      -0.575479       -15.6596
  42   2.0000      -0.566788       -15.4231
  43   2.0000      -0.563159       -15.3243
  44   2.0000      -0.525625       -14.3030
  45   2.0000      -0.521149       -14.1812
  46   2.0000      -0.517077       -14.0704
  47   2.0000      -0.509942       -13.8762
  48   2.0000      -0.505934       -13.7672
  49   2.0000      -0.497200       -13.5295
  50   2.0000      -0.493568       -13.4307
  51   2.0000      -0.486293       -13.2327
  52   2.0000      -0.471647       -12.8342
  53   2.0000      -0.466783       -12.7018
  54   2.0000      -0.457758       -12.4562
  55   2.0000      -0.452262       -12.3067
  56   2.0000      -0.445172       -12.1137
  57   2.0000      -0.439730       -11.9657
  58   2.0000      -0.432145       -11.7593
  59   2.0000      -0.426403       -11.6030
  60   2.0000      -0.417149       -11.3512
  61   2.0000      -0.414875       -11.2893
  62   2.0000      -0.412164       -11.2156
  63   2.0000      -0.348989        -9.4965
  64   2.0000      -0.333947        -9.0872
  65   2.0000      -0.326039        -8.8720
  66   2.0000      -0.292152        -7.9499
  67   0.0000       0.033070         0.8999
  68   0.0000       0.071649         1.9497
  69   0.0000       0.113847         3.0979
  70   0.0000       0.125210         3.4071
  71   0.0000       0.130999         3.5647

MULLIKEN ATOMIC CHARGES
-----------------------
   0 S :    0.101603
   1 C :   -0.118588
   2 C :   -0.072295
   3 C :    0.015174
   4 C :   -0.156379
   5 H :    0.001693
   6 C :    0.057335
   7 H :    0.043245
   8 H :    0.017123
   9 C :   -0.115832
  10 H :    0.055451
  11 H :    0.046742
  12 C :   -0.041005
  13 H :    0.025965
  14 H :    0.021242
  15 H :    0.047945
  16 S :    0.108328
  17 C :   -0.115537
  18 C :   -0.048481
  19 C :   -0.033022
  20 C :   -0.140162
  21 H :    0.020995
  22 C :    0.093131
  23 H :   -0.001839
  24 H :    0.028900
  25 C :   -0.078610
  26 H :    0.046214
  27 H :    0.016212
  28 C :    0.009160
  29 H :    0.007446
  30 H :    0.025351
  31 H :    0.014384
  32 H :    0.042599
  33 H :    0.075511
Sum of atomic charges:    0.0000000

LOEWDIN ATOMIC CHARGES
----------------------
   0 S :    0.395078
   1 C :   -0.201153
   2 C :   -0.066584
   3 C :   -0.062497
   4 C :   -0.187415
   5 H :    0.026405
   6 C :   -0.030920
   7 H :    0.040199
   8 H :    0.023993
   9 C :   -0.035260
  10 H :    0.026924
  11 H :    0.029383
  12 C :   -0.067000
  13 H :    0.023862
  14 H :    0.012827
  15 H :    0.039246
  16 S :    0.407542
  17 C :   -0.193437
  18 C :   -0.078553
  19 C :   -0.058581
  20 C :   -0.197594
  21 H :    0.032578
  22 C :   -0.028746
  23 H :    0.026304
  24 H :    0.028589
  25 C :   -0.037880
  26 H :    0.031295
  27 H :    0.023773
  28 C :   -0.053159
  29 H :    0.008874
  30 H :    0.031839
  31 H :    0.018523
  32 H :    0.028455
  33 H :    0.043088

  Mayer bond orders larger than 0.100000
B(  0-S ,  1-C ) :   1.1449 B(  0-S ,  4-C ) :   1.1247 B(  1-C ,  2-C ) :   1.6431
B(  1-C , 32-H ) :   0.9602 B(  2-C ,  3-C ) :   1.2080 B(  2-C ,  6-C ) :   1.0224
B(  3-C ,  4-C ) :   1.6418 B(  3-C ,  5-H ) :   0.9816 B(  4-C , 20-C ) :   1.0148
B(  6-C ,  7-H ) :   0.9305 B(  6-C ,  8-H ) :   0.9423 B(  6-C ,  9-C ) :   1.0665
B(  9-C , 10-H ) :   0.9468 B(  9-C , 11-H ) :   0.9618 B(  9-C , 12-C ) :   1.0871
B( 12-C , 13-H ) :   0.9725 B( 12-C , 14-H ) :   0.9765 B( 12-C , 15-H ) :   0.9724
B( 16-S , 17-C ) :   1.1584 B( 16-S , 20-C ) :   1.1513 B( 17-C , 18-C ) :   1.5941
B( 17-C , 20-C ) :   0.1055 B( 17-C , 33-H ) :   0.9614 B( 18-C , 19-C ) :   1.2769
B( 18-C , 21-H ) :   0.9851 B( 19-C , 20-C ) :   1.5787 B( 19-C , 22-C ) :   1.0296
B( 22-C , 23-H ) :   0.9281 B( 22-C , 24-H ) :   0.9336 B( 22-C , 25-C ) :   1.0682
B( 25-C , 26-H ) :   0.9569 B( 25-C , 27-H ) :   0.9520 B( 25-C , 28-C ) :   1.0913
B( 28-C , 29-H ) :   0.9737 B( 28-C , 30-H ) :   0.9716 B( 28-C , 31-H ) :   0.9711

Dispersion correction           -0.013502271
FINAL SINGLE POINT ENERGY     -1339.873941833079

DIPOLE MOMENT
-------------
                                X             Y             Z
Electronic contribution:     -8.30594      -2.30661     -29.62232
Nuclear contribution   :      8.59373       2.14295      30.33782
                        -----------------------------------------
Total Dipole Moment    :      0.28779      -0.16366       0.71550
                        -----------------------------------------
Magnitude (a.u.)       :      0.78838
Magnitude (Debye)      :      2.00391

Rotational constants in cm-1:     0.015830     0.008978     0.006754
Rotational constants in MHz :   474.571772   269.154740   202.480436

                             ****ORCA TERMINATED NORMALLY****
TOTAL RUN TIME: 0 days 0 hours 0 minutes 21 seconds 236 msec
