                         Program Version 4.2.1 -  RELEASE  -
|  1> ! wB97X-D3 SP def2-SVP
|  2> %pal
|  3> nprocs 24
|  4> end
|  5>
|  6> * xyz 0 1
|  7> S 	 -121.895 	 63.1328 	 -37.6683
|  8> C 	 -120.834 	 63.8235 	 -38.8696
|  9> C 	 -119.933 	 64.7189 	 -38.2534
| 10> C 	 -120.159 	 64.7807 	 -36.8425
| 11> C 	 -121.229 	 64.1224 	 -36.3797
| 12> H 	 -119.673 	 65.4605 	 -36.239
| 13> C 	 -118.855 	 65.578 	 -38.9577
| 14> H 	 -118.318 	 64.8598 	 -39.5418
| 15> H 	 -118.145 	 66.1599 	 -38.272
| 16> C 	 -119.302 	 66.7742 	 -39.9675
| 17> H 	 -118.492 	 67.1727 	 -40.6174
| 18> H 	 -120.044 	 66.355 	 -40.6046
| 19> C 	 -120.072 	 67.9292 	 -39.3666
| 20> H 	 -120.963 	 67.6695 	 -38.8084
| 21> H 	 -119.473 	 68.5069 	 -38.7152
| 22> H 	 -120.363 	 68.6607 	 -40.2091
| 23> S 	 -123.373 	 63.5473 	 -34.7704
| 24> C 	 -123.352 	 63.9127 	 -33.0723
| 25> C 	 -122.097 	 64.3492 	 -32.7225
| 26> C 	 -121.201 	 64.4265 	 -33.8379
| 27> C 	 -121.82 	 64.2108 	 -35.0523
| 28> H 	 -121.863 	 64.46 	 -31.6469
| 29> C 	 -119.744 	 64.6674 	 -33.5087
| 30> H 	 -119.642 	 65.7633 	 -33.6056
| 31> H 	 -119.09 	 64.2739 	 -34.2761
| 32> C 	 -119.124 	 64.0891 	 -32.2358
| 33> H 	 -119.226 	 63.061 	 -32.1318
| 34> H 	 -119.518 	 64.6203 	 -31.3673
| 35> C 	 -117.551 	 64.2975 	 -32.2737
| 36> H 	 -117.187 	 64.0807 	 -31.2442
| 37> H 	 -117.249 	 65.2931 	 -32.445
| 38> H 	 -117.074 	 63.6248 	 -32.9688
| 39> H 	 -120.858 	 63.6577 	 -39.9559
| 40> H 	 -124.211 	 63.7586 	 -32.5191
| 41> *
| 42>
| 43>                          ****END OF INPUT****

CARTESIAN COORDINATES (ANGSTROEM)
---------------------------------
  S    -121.895000   63.132800  -37.668300
  C    -120.834000   63.823500  -38.869600
  C    -119.933000   64.718900  -38.253400
  C    -120.159000   64.780700  -36.842500
  C    -121.229000   64.122400  -36.379700
  H    -119.673000   65.460500  -36.239000
  C    -118.855000   65.578000  -38.957700
  H    -118.318000   64.859800  -39.541800
  H    -118.145000   66.159900  -38.272000
  C    -119.302000   66.774200  -39.967500
  H    -118.492000   67.172700  -40.617400
  H    -120.044000   66.355000  -40.604600
  C    -120.072000   67.929200  -39.366600
  H    -120.963000   67.669500  -38.808400
  H    -119.473000   68.506900  -38.715200
  H    -120.363000   68.660700  -40.209100
  S    -123.373000   63.547300  -34.770400
  C    -123.352000   63.912700  -33.072300
  C    -122.097000   64.349200  -32.722500
  C    -121.201000   64.426500  -33.837900
  C    -121.820000   64.210800  -35.052300
  H    -121.863000   64.460000  -31.646900
  C    -119.744000   64.667400  -33.508700
  H    -119.642000   65.763300  -33.605600
  H    -119.090000   64.273900  -34.276100
  C    -119.124000   64.089100  -32.235800
  H    -119.226000   63.061000  -32.131800
  H    -119.518000   64.620300  -31.367300
  C    -117.551000   64.297500  -32.273700
  H    -117.187000   64.080700  -31.244200
  H    -117.249000   65.293100  -32.445000
  H    -117.074000   63.624800  -32.968800
  H    -120.858000   63.657700  -39.955900
  H    -124.211000   63.758600  -32.519100

 Total Charge           Charge          ....    0
 Multiplicity           Mult            ....    1
 Number of Electrons    NEL             ....  134
 Basis Dimension        Dim             ....  322

ORBITAL ENERGIES
----------------

  NO   OCC          E(Eh)            E(eV)
   0   2.0000     -88.966622     -2420.9049
   1   2.0000     -88.962045     -2420.7803
   2   2.0000     -10.326850      -281.0079
   3   2.0000     -10.325276      -280.9650
   4   2.0000     -10.318507      -280.7808
   5   2.0000     -10.313531      -280.6454
   6   2.0000     -10.307925      -280.4929
   7   2.0000     -10.304382      -280.3965
   8   2.0000     -10.303748      -280.3792
   9   2.0000     -10.295965      -280.1675
  10   2.0000     -10.291618      -280.0492
  11   2.0000     -10.289551      -279.9929
  12   2.0000     -10.288474      -279.9636
  13   2.0000     -10.281981      -279.7869
  14   2.0000     -10.280004      -279.7331
  15   2.0000     -10.274750      -279.5902
  16   2.0000      -8.081214      -219.9010
  17   2.0000      -8.078123      -219.8169
  18   2.0000      -6.039936      -164.3550
  19   2.0000      -6.036557      -164.2631
  20   2.0000      -6.035686      -164.2394
  21   2.0000      -6.032508      -164.1529
  22   2.0000      -6.031821      -164.1342
  23   2.0000      -6.028823      -164.0526
  24   2.0000      -1.014312       -27.6008
  25   2.0000      -0.988528       -26.8992
  26   2.0000      -0.911196       -24.7949
  27   2.0000      -0.899271       -24.4704
  28   2.0000      -0.872580       -23.7441
  29   2.0000      -0.854791       -23.2600
  30   2.0000      -0.844861       -22.9898
  31   2.0000      -0.819506       -22.2999
  32   2.0000      -0.780414       -21.2362
  33   2.0000      -0.771377       -20.9902
  34   2.0000      -0.712150       -19.3786
  35   2.0000      -0.702219       -19.1083
  36   2.0000      -0.696061       -18.9408
  37   2.0000      -0.661834       -18.0094
  38   2.0000      -0.639118       -17.3913
  39   2.0000      -0.622900       -16.9500
  40   2.0000      -0.604928       -16.4609
  41   2.0000      -0.575523       -15.6608
  42   2.0000      -0.570692       -15.5293
  43   2.0000      -0.544601       -14.8193
  44   2.0000      -0.543330       -14.7848
  45   2.0000      -0.527136       -14.3441
  46   2.0000      -0.521639       -14.1945
  47   2.0000      -0.508910       -13.8482
  48   2.0000      -0.503559       -13.7025
  49   2.0000      -0.499724       -13.5982
  50   2.0000      -0.487444       -13.2640
  51   2.0000      -0.477528       -12.9942
  52   2.0000      -0.472559       -12.8590
  53   2.0000      -0.467660       -12.7257
  54   2.0000      -0.465316       -12.6619
  55   2.0000      -0.450167       -12.2497
  56   2.0000      -0.445453       -12.1214
  57   2.0000      -0.438662       -11.9366
  58   2.0000      -0.435457       -11.8494
  59   2.0000      -0.425820       -11.5872
  60   2.0000      -0.419861       -11.4250
  61   2.0000      -0.412837       -11.2339
  62   2.0000      -0.404733       -11.0133
  63   2.0000      -0.363340        -9.8870
  64   2.0000      -0.333009        -9.0616
  65   2.0000      -0.324284        -8.8242
  66   2.0000      -0.284768        -7.7489
  67   0.0000       0.022525         0.6129
  68   0.0000       0.082449         2.2435
  69   0.0000       0.100706         2.7403
  70   0.0000       0.127829         3.4784
  71   0.0000       0.138405         3.7662

MULLIKEN ATOMIC CHARGES
-----------------------
   0 S :    0.105328
   1 C :   -0.127416
   2 C :   -0.083618
   3 C :    0.011916
   4 C :   -0.103188
   5 H :   -0.025125
   6 C :    0.036963
   7 H :    0.036364
   8 H :    0.042297
   9 C :   -0.073816
  10 H :    0.042104
  11 H :    0.015258
  12 C :   -0.066670
  13 H :    0.043820
  14 H :    0.011281
  15 H :    0.039688
  16 S :    0.082675
  17 C :   -0.069156
  18 C :   -0.030631
  19 C :   -0.070659
  20 C :   -0.093963
  21 H :    0.035762
  22 C :    0.020640
  23 H :    0.047593
  24 H :    0.020868
  25 C :   -0.042313
  26 H :    0.029470
  27 H :    0.031852
  28 C :   -0.056084
  29 H :    0.031368
  30 H :    0.021549
  31 H :    0.040935
  32 H :    0.059159
  33 H :    0.035749
Sum of atomic charges:   -0.0000000

LOEWDIN ATOMIC CHARGES
----------------------
   0 S :    0.400100
   1 C :   -0.206021
   2 C :   -0.059453
   3 C :   -0.067260
   4 C :   -0.178190
   5 H :    0.016815
   6 C :   -0.033693
   7 H :    0.029847
   8 H :    0.036997
   9 C :   -0.044081
  10 H :    0.030991
  11 H :    0.016352
  12 C :   -0.069821
  13 H :    0.026736
  14 H :    0.010959
  15 H :    0.037631
  16 S :    0.420056
  17 C :   -0.169673
  18 C :   -0.073953
  19 C :   -0.057220
  20 C :   -0.209347
  21 H :    0.038514
  22 C :   -0.041594
  23 H :    0.038232
  24 H :    0.028216
  25 C :   -0.026453
  26 H :    0.020087
  27 H :    0.021452
  28 C :   -0.056759
  29 H :    0.030972
  30 H :    0.016027
  31 H :    0.024070
  32 H :    0.035215
  33 H :    0.014249

  Mayer bond orders larger than 0.100000
B(  0-S ,  1-C ) :   1.1366 B(  0-S ,  4-C ) :   1.1271 B(  1-C ,  2-C ) :   1.5989
B(  1-C , 32-H ) :   0.9673 B(  2-C ,  3-C ) :   1.2468 B(  2-C ,  6-C ) :   1.0082
B(  3-C ,  4-C ) :   1.5879 B(  3-C ,  5-H ) :   1.0067 B(  4-C , 20-C ) :   1.0816
B(  6-C ,  7-H ) :   0.9395 B(  6-C ,  8-H ) :   0.9571 B(  6-C ,  9-C ) :   1.0533
B(  9-C , 10-H ) :   0.9589 B(  9-C , 11-H ) :   0.9584 B(  9-C , 12-C ) :   1.0783
B( 12-C , 13-H ) :   0.9759 B( 12-C , 14-H ) :   0.9758 B( 12-C , 15-H ) :   0.9712
B( 16-S , 17-C ) :   1.1730 B( 16-S , 20-C ) :   1.1362 B( 17-C , 18-C ) :   1.5719
B( 17-C , 33-H ) :   0.9841 B( 18-C , 19-C ) :   1.2590 B( 18-C , 21-H ) :   0.9878
B( 19-C , 20-C ) :   1.5643 B( 19-C , 22-C ) :   1.0304 B( 22-C , 23-H ) :   0.9283
B( 22-C , 24-H ) :   0.9360 B( 22-C , 25-C ) :   1.0719 B( 25-C , 26-H ) :   0.9585
B( 25-C , 27-H ) :   0.9463 B( 25-C , 28-C ) :   1.0854 B( 28-C , 29-H ) :   0.9752
B( 28-C , 30-H ) :   0.9778 B( 28-C , 31-H ) :   0.9765

Dispersion correction           -0.013544579
FINAL SINGLE POINT ENERGY     -1339.860520593934

DIPOLE MOMENT
-------------
                                X             Y             Z
Electronic contribution:    -22.72560     -15.29800      -0.99232
Nuclear contribution   :     23.25451      15.59636       1.27583
                        -----------------------------------------
Total Dipole Moment    :      0.52891       0.29836       0.28351
                        -----------------------------------------
Magnitude (a.u.)       :      0.67018
Magnitude (Debye)      :      1.70345

Rotational constants in cm-1:     0.017320     0.008397     0.006534
Rotational constants in MHz :   519.231633   251.722871   195.885591

                             ****ORCA TERMINATED NORMALLY****
TOTAL RUN TIME: 0 days 0 hours 0 minutes 20 seconds 10 msec
