                         Program Version 4.2.1 -  RELEASE  -
|  1> ! wB97X-D3 SP def2-SVP
|  2> %pal
|  3> nprocs 24
|  4> end
|  5>
|  6> * xyz 0 1
|  7> S 	 -33.9793 	 -28.1077 	 -95.3248
|  8> C 	 -34.278 	 -26.8171 	 -96.4378
|  9> C 	 -35.0037 	 -27.1949 	 -97.5654
| 10> C 	 -35.3233 	 -28.5766 	 -97.5713
| 11> C 	 -34.8209 	 -29.2448 	 -96.4052
| 12> H 	 -35.8622 	 -29.1971 	 -98.271
| 13> C 	 -35.7258 	 -26.3139 	 -98.5496
| 14> H 	 -35.1145 	 -25.447 	 -98.6976
| 15> H 	 -36.6216 	 -25.9504 	 -97.9434
| 16> C 	 -36.0734 	 -26.8335 	 -100.043
| 17> H 	 -35.0807 	 -26.905 	 -100.541
| 18> H 	 -36.533 	 -27.7817 	 -100.147
| 19> C 	 -36.8142 	 -25.8013 	 -100.911
| 20> H 	 -36.386 	 -24.8425 	 -100.971
| 21> H 	 -36.9954 	 -26.1936 	 -101.919
| 22> H 	 -37.7621 	 -25.7816 	 -100.42
| 23> S 	 -34.7834 	 -31.8059 	 -97.4411
| 24> C 	 -34.998 	 -33.2097 	 -96.3517
| 25> C 	 -34.9238 	 -32.813 	 -95.0399
| 26> C 	 -35.0491 	 -31.4162 	 -94.8602
| 27> C 	 -34.9815 	 -30.6682 	 -96.0573
| 28> H 	 -34.6259 	 -33.4222 	 -94.168
| 29> C 	 -35.2504 	 -30.6872 	 -93.4787
| 30> H 	 -36.1804 	 -30.0812 	 -93.5315
| 31> H 	 -34.3875 	 -30.0612 	 -93.3056
| 32> C 	 -35.4281 	 -31.6297 	 -92.242
| 33> H 	 -34.5079 	 -32.1411 	 -92.1577
| 34> H 	 -36.2095 	 -32.3335 	 -92.5789
| 35> C 	 -35.7822 	 -30.8813 	 -91.0093
| 36> H 	 -34.9233 	 -30.3297 	 -90.6873
| 37> H 	 -36.0174 	 -31.5053 	 -90.1506
| 38> H 	 -36.6053 	 -30.2444 	 -91.079
| 39> H 	 -34.1637 	 -25.7636 	 -96.1524
| 40> H 	 -34.8813 	 -34.2026 	 -96.7176
| 41> *
| 42>
| 43>                          ****END OF INPUT****

CARTESIAN COORDINATES (ANGSTROEM)
---------------------------------
  S    -33.979300  -28.107700  -95.324800
  C    -34.278000  -26.817100  -96.437800
  C    -35.003700  -27.194900  -97.565400
  C    -35.323300  -28.576600  -97.571300
  C    -34.820900  -29.244800  -96.405200
  H    -35.862200  -29.197100  -98.271000
  C    -35.725800  -26.313900  -98.549600
  H    -35.114500  -25.447000  -98.697600
  H    -36.621600  -25.950400  -97.943400
  C    -36.073400  -26.833500  -100.043000
  H    -35.080700  -26.905000  -100.541000
  H    -36.533000  -27.781700  -100.147000
  C    -36.814200  -25.801300  -100.911000
  H    -36.386000  -24.842500  -100.971000
  H    -36.995400  -26.193600  -101.919000
  H    -37.762100  -25.781600  -100.420000
  S    -34.783400  -31.805900  -97.441100
  C    -34.998000  -33.209700  -96.351700
  C    -34.923800  -32.813000  -95.039900
  C    -35.049100  -31.416200  -94.860200
  C    -34.981500  -30.668200  -96.057300
  H    -34.625900  -33.422200  -94.168000
  C    -35.250400  -30.687200  -93.478700
  H    -36.180400  -30.081200  -93.531500
  H    -34.387500  -30.061200  -93.305600
  C    -35.428100  -31.629700  -92.242000
  H    -34.507900  -32.141100  -92.157700
  H    -36.209500  -32.333500  -92.578900
  C    -35.782200  -30.881300  -91.009300
  H    -34.923300  -30.329700  -90.687300
  H    -36.017400  -31.505300  -90.150600
  H    -36.605300  -30.244400  -91.079000
  H    -34.163700  -25.763600  -96.152400
  H    -34.881300  -34.202600  -96.717600

 Total Charge           Charge          ....    0
 Multiplicity           Mult            ....    1
 Number of Electrons    NEL             ....  134
 Basis Dimension        Dim             ....  322

ORBITAL ENERGIES
----------------

  NO   OCC          E(Eh)            E(eV)
   0   2.0000     -88.970976     -2421.0233
   1   2.0000     -88.964109     -2420.8365
   2   2.0000     -10.336928      -281.2821
   3   2.0000     -10.332884      -281.1721
   4   2.0000     -10.319494      -280.8077
   5   2.0000     -10.313813      -280.6531
   6   2.0000     -10.307231      -280.4740
   7   2.0000     -10.303560      -280.3741
   8   2.0000     -10.300867      -280.3009
   9   2.0000     -10.297649      -280.2133
  10   2.0000     -10.296919      -280.1934
  11   2.0000     -10.295044      -280.1424
  12   2.0000     -10.293808      -280.1087
  13   2.0000     -10.283328      -279.8236
  14   2.0000     -10.274449      -279.5820
  15   2.0000     -10.269482      -279.4468
  16   2.0000      -8.084837      -219.9996
  17   2.0000      -8.077462      -219.7989
  18   2.0000      -6.043358      -164.4481
  19   2.0000      -6.039398      -164.3404
  20   2.0000      -6.036073      -164.2499
  21   2.0000      -6.035732      -164.2406
  22   2.0000      -6.032270      -164.1464
  23   2.0000      -6.028088      -164.0326
  24   2.0000      -0.997225       -27.1359
  25   2.0000      -0.977300       -26.5937
  26   2.0000      -0.908423       -24.7195
  27   2.0000      -0.903284       -24.5796
  28   2.0000      -0.867205       -23.5978
  29   2.0000      -0.855390       -23.2763
  30   2.0000      -0.846041       -23.0219
  31   2.0000      -0.809605       -22.0305
  32   2.0000      -0.780861       -21.2483
  33   2.0000      -0.767975       -20.8977
  34   2.0000      -0.709219       -19.2988
  35   2.0000      -0.705218       -19.1900
  36   2.0000      -0.690316       -18.7845
  37   2.0000      -0.657692       -17.8967
  38   2.0000      -0.634804       -17.2739
  39   2.0000      -0.610275       -16.6064
  40   2.0000      -0.597498       -16.2588
  41   2.0000      -0.579918       -15.7804
  42   2.0000      -0.567977       -15.4554
  43   2.0000      -0.558079       -15.1861
  44   2.0000      -0.522808       -14.2263
  45   2.0000      -0.520802       -14.1717
  46   2.0000      -0.516384       -14.0515
  47   2.0000      -0.511793       -13.9266
  48   2.0000      -0.507089       -13.7986
  49   2.0000      -0.497443       -13.5361
  50   2.0000      -0.484354       -13.1800
  51   2.0000      -0.478925       -13.0322
  52   2.0000      -0.477340       -12.9891
  53   2.0000      -0.473548       -12.8859
  54   2.0000      -0.459306       -12.4984
  55   2.0000      -0.450073       -12.2471
  56   2.0000      -0.447557       -12.1787
  57   2.0000      -0.437829       -11.9139
  58   2.0000      -0.432689       -11.7741
  59   2.0000      -0.428211       -11.6522
  60   2.0000      -0.416793       -11.3415
  61   2.0000      -0.411463       -11.1965
  62   2.0000      -0.407715       -11.0945
  63   2.0000      -0.347216        -9.4482
  64   2.0000      -0.331829        -9.0295
  65   2.0000      -0.329157        -8.9568
  66   2.0000      -0.280793        -7.6408
  67   0.0000       0.014867         0.4046
  68   0.0000       0.072495         1.9727
  69   0.0000       0.103510         2.8166
  70   0.0000       0.112191         3.0529
  71   0.0000       0.125222         3.4075

MULLIKEN ATOMIC CHARGES
-----------------------
   0 S :    0.112074
   1 C :   -0.124215
   2 C :   -0.053257
   3 C :    0.006389
   4 C :   -0.152260
   5 H :    0.017589
   6 C :    0.027816
   7 H :    0.017579
   8 H :    0.058180
   9 C :   -0.095766
  10 H :    0.035746
  11 H :    0.035074
  12 C :   -0.026813
  13 H :    0.029719
  14 H :    0.036748
  15 H :    0.022738
  16 S :    0.074097
  17 C :   -0.069699
  18 C :   -0.040919
  19 C :   -0.077579
  20 C :   -0.129303
  21 H :    0.042308
  22 C :    0.010512
  23 H :    0.050646
  24 H :    0.038137
  25 C :   -0.095064
  26 H :    0.024416
  27 H :    0.037254
  28 C :    0.018432
  29 H :    0.019645
  30 H :    0.025082
  31 H :    0.017077
  32 H :    0.053936
  33 H :    0.053684
Sum of atomic charges:    0.0000000

LOEWDIN ATOMIC CHARGES
----------------------
   0 S :    0.417554
   1 C :   -0.215608
   2 C :   -0.065795
   3 C :   -0.060903
   4 C :   -0.184955
   5 H :    0.027681
   6 C :   -0.036025
   7 H :    0.026068
   8 H :    0.043693
   9 C :   -0.035854
  10 H :    0.029141
  11 H :    0.016954
  12 C :   -0.057616
  13 H :    0.018488
  14 H :    0.031313
  15 H :    0.022767
  16 S :    0.372528
  17 C :   -0.167380
  18 C :   -0.076669
  19 C :   -0.062254
  20 C :   -0.179506
  21 H :    0.041632
  22 C :   -0.032456
  23 H :    0.036917
  24 H :    0.018883
  25 C :   -0.042433
  26 H :    0.016939
  27 H :    0.026299
  28 C :   -0.057635
  29 H :    0.026360
  30 H :    0.029688
  31 H :    0.018657
  32 H :    0.030659
  33 H :    0.022866

  Mayer bond orders larger than 0.100000
B(  0-S ,  1-C ) :   1.1449 B(  0-S ,  4-C ) :   1.1571 B(  1-C ,  2-C ) :   1.5927
B(  1-C , 32-H ) :   0.9643 B(  2-C ,  3-C ) :   1.2548 B(  2-C ,  6-C ) :   1.0218
B(  3-C ,  4-C ) :   1.5297 B(  3-C ,  5-H ) :   0.9896 B(  4-C , 20-C ) :   1.0747
B(  6-C ,  7-H ) :   0.9388 B(  6-C ,  8-H ) :   0.9413 B(  6-C ,  9-C ) :   1.0419
B(  9-C , 10-H ) :   0.9599 B(  9-C , 11-H ) :   0.9602 B(  9-C , 12-C ) :   1.0848
B( 12-C , 13-H ) :   0.9769 B( 12-C , 14-H ) :   0.9727 B( 12-C , 15-H ) :   0.9778
B( 16-S , 17-C ) :   1.1468 B( 16-S , 20-C ) :   1.1295 B( 17-C , 18-C ) :   1.5851
B( 17-C , 20-C ) :   0.1061 B( 17-C , 33-H ) :   0.9683 B( 18-C , 19-C ) :   1.2847
B( 18-C , 21-H ) :   0.9720 B( 19-C , 20-C ) :   1.5811 B( 19-C , 22-C ) :   0.9986
B( 22-C , 23-H ) :   0.9483 B( 22-C , 24-H ) :   0.9356 B( 22-C , 25-C ) :   1.0826
B( 25-C , 26-H ) :   0.9493 B( 25-C , 27-H ) :   0.9542 B( 25-C , 28-C ) :   1.0963
B( 28-C , 29-H ) :   0.9679 B( 28-C , 30-H ) :   0.9672 B( 28-C , 31-H ) :   0.9726

Dispersion correction           -0.013203693
FINAL SINGLE POINT ENERGY     -1339.857376038315

DIPOLE MOMENT
-------------
                                X             Y             Z
Electronic contribution:     10.09177      -8.76263      -2.26781
Nuclear contribution   :    -10.29951       8.93224       2.45623
                        -----------------------------------------
Total Dipole Moment    :     -0.20773       0.16960       0.18843
                        -----------------------------------------
Magnitude (a.u.)       :      0.32775
Magnitude (Debye)      :      0.83308

Rotational constants in cm-1:     0.021576     0.007053     0.005762
Rotational constants in MHz :   646.821233   211.435836   172.735565

                             ****ORCA TERMINATED NORMALLY****
TOTAL RUN TIME: 0 days 0 hours 0 minutes 20 seconds 312 msec
