                         Program Version 4.2.1 -  RELEASE  -
|  1> ! wB97X-D3 SP def2-SVP
|  2> %pal
|  3> nprocs 24
|  4> end
|  5>
|  6> * xyz 0 1
|  7> S 	 -45.7117 	 12.3228 	 -17.6041
|  8> C 	 -45.9617 	 12.1128 	 -15.8379
|  9> C 	 -44.7547 	 11.8741 	 -15.2157
| 10> C 	 -43.7106 	 11.6972 	 -16.174
| 11> C 	 -44.0291 	 11.9065 	 -17.5134
| 12> H 	 -42.7308 	 11.4118 	 -15.9253
| 13> C 	 -44.5579 	 11.4108 	 -13.7725
| 14> H 	 -45.2582 	 12.0011 	 -13.1161
| 15> H 	 -43.5748 	 11.7983 	 -13.5248
| 16> C 	 -44.7711 	 9.90715 	 -13.4893
| 17> H 	 -45.7855 	 9.63813 	 -13.8469
| 18> H 	 -44.0641 	 9.29067 	 -14.0884
| 19> C 	 -44.443 	 9.31322 	 -12.0899
| 20> H 	 -44.801 	 8.31764 	 -11.9977
| 21> H 	 -43.3993 	 9.23486 	 -11.7097
| 22> H 	 -44.8901 	 9.90588 	 -11.3198
| 23> S 	 -43.4366 	 12.6218 	 -20.1094
| 24> C 	 -42.1075 	 11.9277 	 -20.9552
| 25> C 	 -41.4299 	 11.0605 	 -20.1842
| 26> C 	 -42.1005 	 10.8026 	 -18.9157
| 27> C 	 -43.2161 	 11.6057 	 -18.7462
| 28> H 	 -40.4332 	 10.7144 	 -20.5177
| 29> C 	 -41.7101 	 9.71119 	 -17.9505
| 30> H 	 -41.4435 	 10.1748 	 -16.9717
| 31> H 	 -40.6701 	 9.38613 	 -18.158
| 32> C 	 -42.7398 	 8.58045 	 -17.6025
| 33> H 	 -43.7036 	 9.0353 	 -17.3592
| 34> H 	 -42.4337 	 7.94958 	 -16.6982
| 35> C 	 -42.9073 	 7.54731 	 -18.7677
| 36> H 	 -41.9211 	 7.20569 	 -19.0762
| 37> H 	 -43.3845 	 7.94747 	 -19.6601
| 38> H 	 -43.5408 	 6.71212 	 -18.3831
| 39> H 	 -46.8977 	 12.0307 	 -15.3294
| 40> H 	 -41.6359 	 12.3693 	 -21.8449
| 41> *
| 42>
| 43>                          ****END OF INPUT****

CARTESIAN COORDINATES (ANGSTROEM)
---------------------------------
  S    -45.711700   12.322800  -17.604100
  C    -45.961700   12.112800  -15.837900
  C    -44.754700   11.874100  -15.215700
  C    -43.710600   11.697200  -16.174000
  C    -44.029100   11.906500  -17.513400
  H    -42.730800   11.411800  -15.925300
  C    -44.557900   11.410800  -13.772500
  H    -45.258200   12.001100  -13.116100
  H    -43.574800   11.798300  -13.524800
  C    -44.771100    9.907150  -13.489300
  H    -45.785500    9.638130  -13.846900
  H    -44.064100    9.290670  -14.088400
  C    -44.443000    9.313220  -12.089900
  H    -44.801000    8.317640  -11.997700
  H    -43.399300    9.234860  -11.709700
  H    -44.890100    9.905880  -11.319800
  S    -43.436600   12.621800  -20.109400
  C    -42.107500   11.927700  -20.955200
  C    -41.429900   11.060500  -20.184200
  C    -42.100500   10.802600  -18.915700
  C    -43.216100   11.605700  -18.746200
  H    -40.433200   10.714400  -20.517700
  C    -41.710100    9.711190  -17.950500
  H    -41.443500   10.174800  -16.971700
  H    -40.670100    9.386130  -18.158000
  C    -42.739800    8.580450  -17.602500
  H    -43.703600    9.035300  -17.359200
  H    -42.433700    7.949580  -16.698200
  C    -42.907300    7.547310  -18.767700
  H    -41.921100    7.205690  -19.076200
  H    -43.384500    7.947470  -19.660100
  H    -43.540800    6.712120  -18.383100
  H    -46.897700   12.030700  -15.329400
  H    -41.635900   12.369300  -21.844900

 Total Charge           Charge          ....    0
 Multiplicity           Mult            ....    1
 Number of Electrons    NEL             ....  134
 Basis Dimension        Dim             ....  322

ORBITAL ENERGIES
----------------

  NO   OCC          E(Eh)            E(eV)
   0   2.0000     -88.967403     -2420.9261
   1   2.0000     -88.965150     -2420.8648
   2   2.0000     -10.336526      -281.2712
   3   2.0000     -10.331344      -281.1302
   4   2.0000     -10.318466      -280.7797
   5   2.0000     -10.313623      -280.6479
   6   2.0000     -10.308057      -280.4965
   7   2.0000     -10.303751      -280.3793
   8   2.0000     -10.301238      -280.3109
   9   2.0000     -10.298954      -280.2488
  10   2.0000     -10.297650      -280.2133
  11   2.0000     -10.297592      -280.2117
  12   2.0000     -10.295590      -280.1572
  13   2.0000     -10.291658      -280.0503
  14   2.0000     -10.280412      -279.7442
  15   2.0000     -10.275546      -279.6118
  16   2.0000      -8.081613      -219.9119
  17   2.0000      -8.081293      -219.9032
  18   2.0000      -6.040264      -164.3640
  19   2.0000      -6.039809      -164.3516
  20   2.0000      -6.036131      -164.2515
  21   2.0000      -6.035526      -164.2350
  22   2.0000      -6.032294      -164.1471
  23   2.0000      -6.032028      -164.1398
  24   2.0000      -1.011989       -27.5376
  25   2.0000      -0.987840       -26.8805
  26   2.0000      -0.907986       -24.7076
  27   2.0000      -0.900996       -24.5173
  28   2.0000      -0.869644       -23.6642
  29   2.0000      -0.847216       -23.0539
  30   2.0000      -0.843920       -22.9642
  31   2.0000      -0.818652       -22.2767
  32   2.0000      -0.785757       -21.3815
  33   2.0000      -0.774029       -21.0624
  34   2.0000      -0.706455       -19.2236
  35   2.0000      -0.706113       -19.2143
  36   2.0000      -0.687257       -18.7012
  37   2.0000      -0.662212       -18.0197
  38   2.0000      -0.639577       -17.4038
  39   2.0000      -0.623041       -16.9538
  40   2.0000      -0.592036       -16.1101
  41   2.0000      -0.569101       -15.4860
  42   2.0000      -0.556794       -15.1511
  43   2.0000      -0.546969       -14.8838
  44   2.0000      -0.536556       -14.6004
  45   2.0000      -0.528739       -14.3877
  46   2.0000      -0.517956       -14.0943
  47   2.0000      -0.508715       -13.8428
  48   2.0000      -0.501565       -13.6483
  49   2.0000      -0.499882       -13.6025
  50   2.0000      -0.494468       -13.4552
  51   2.0000      -0.483798       -13.1648
  52   2.0000      -0.471776       -12.8377
  53   2.0000      -0.464272       -12.6335
  54   2.0000      -0.458577       -12.4785
  55   2.0000      -0.451948       -12.2981
  56   2.0000      -0.442876       -12.0513
  57   2.0000      -0.437422       -11.9029
  58   2.0000      -0.435786       -11.8583
  59   2.0000      -0.422764       -11.5040
  60   2.0000      -0.416181       -11.3249
  61   2.0000      -0.411426       -11.1955
  62   2.0000      -0.406407       -11.0589
  63   2.0000      -0.359152        -9.7730
  64   2.0000      -0.332840        -9.0570
  65   2.0000      -0.328626        -8.9424
  66   2.0000      -0.291774        -7.9396
  67   0.0000       0.023246         0.6326
  68   0.0000       0.075206         2.0464
  69   0.0000       0.103363         2.8126
  70   0.0000       0.112720         3.0673
  71   0.0000       0.132197         3.5973

MULLIKEN ATOMIC CHARGES
-----------------------
   0 S :    0.094657
   1 C :   -0.120788
   2 C :   -0.069561
   3 C :    0.004759
   4 C :   -0.100121
   5 H :   -0.024700
   6 C :    0.058127
   7 H :    0.029837
   8 H :    0.023690
   9 C :   -0.068543
  10 H :    0.033606
  11 H :    0.031467
  12 C :   -0.041880
  13 H :    0.030496
  14 H :    0.034293
  15 H :    0.016267
  16 S :    0.101145
  17 C :   -0.084330
  18 C :   -0.044685
  19 C :   -0.068814
  20 C :   -0.107118
  21 H :    0.031639
  22 C :    0.033386
  23 H :    0.023432
  24 H :    0.010675
  25 C :   -0.079061
  26 H :    0.052439
  27 H :    0.039280
  28 C :   -0.055312
  29 H :    0.022646
  30 H :    0.041128
  31 H :    0.040125
  32 H :    0.044962
  33 H :    0.066855
Sum of atomic charges:    0.0000000

LOEWDIN ATOMIC CHARGES
----------------------
   0 S :    0.392566
   1 C :   -0.176484
   2 C :   -0.064707
   3 C :   -0.060597
   4 C :   -0.191849
   5 H :    0.016561
   6 C :   -0.033853
   7 H :    0.033462
   8 H :    0.029127
   9 C :   -0.043087
  10 H :    0.029545
  11 H :    0.029091
  12 C :   -0.070272
  13 H :    0.025966
  14 H :    0.031234
  15 H :    0.017394
  16 S :    0.427045
  17 C :   -0.200037
  18 C :   -0.072692
  19 C :   -0.062529
  20 C :   -0.202836
  21 H :    0.039153
  22 C :   -0.047529
  23 H :    0.032470
  24 H :    0.030854
  25 C :   -0.038901
  26 H :    0.026811
  27 H :    0.032517
  28 C :   -0.068581
  29 H :    0.020336
  30 H :    0.024756
  31 H :    0.029746
  32 H :    0.026980
  33 H :    0.038338

  Mayer bond orders larger than 0.100000
B(  0-S ,  1-C ) :   1.1370 B(  0-S ,  4-C ) :   1.1466 B(  1-C ,  2-C ) :   1.6023
B(  1-C , 32-H ) :   0.9726 B(  2-C ,  3-C ) :   1.2419 B(  2-C ,  6-C ) :   1.0369
B(  3-C ,  4-C ) :   1.5774 B(  3-C ,  5-H ) :   1.0046 B(  4-C , 20-C ) :   1.0116
B(  6-C ,  7-H ) :   0.9375 B(  6-C ,  8-H ) :   0.9384 B(  6-C ,  9-C ) :   1.0572
B(  9-C , 10-H ) :   0.9550 B(  9-C , 11-H ) :   0.9577 B(  9-C , 12-C ) :   1.0693
B( 12-C , 13-H ) :   0.9732 B( 12-C , 14-H ) :   0.9765 B( 12-C , 15-H ) :   0.9753
B( 16-S , 17-C ) :   1.1535 B( 16-S , 20-C ) :   1.1514 B( 17-C , 18-C ) :   1.6395
B( 17-C , 33-H ) :   0.9582 B( 18-C , 19-C ) :   1.2341 B( 18-C , 21-H ) :   0.9864
B( 19-C , 20-C ) :   1.5967 B( 19-C , 22-C ) :   1.0459 B( 22-C , 23-H ) :   0.9280
B( 22-C , 24-H ) :   0.9304 B( 22-C , 25-C ) :   1.0588 B( 25-C , 26-H ) :   0.9535
B( 25-C , 27-H ) :   0.9564 B( 25-C , 28-C ) :   1.0695 B( 28-C , 29-H ) :   0.9764
B( 28-C , 30-H ) :   0.9789 B( 28-C , 31-H ) :   0.9762

Dispersion correction           -0.014991293
FINAL SINGLE POINT ENERGY     -1339.871702274988

DIPOLE MOMENT
-------------
                                X             Y             Z
Electronic contribution:     -5.91576      22.21050     -21.30854
Nuclear contribution   :      6.35527     -22.67488      21.81315
                        -----------------------------------------
Total Dipole Moment    :      0.43951      -0.46438       0.50460
                        -----------------------------------------
Magnitude (a.u.)       :      0.81452
Magnitude (Debye)      :      2.07034

Rotational constants in cm-1:     0.020131     0.008899     0.006893
Rotational constants in MHz :   603.503355   266.782135   206.633337

                             ****ORCA TERMINATED NORMALLY****
TOTAL RUN TIME: 0 days 0 hours 0 minutes 22 seconds 231 msec
