                         Program Version 4.2.1 -  RELEASE  -
|  1> ! wB97X-D3 SP def2-SVP
|  2> %pal
|  3> nprocs 24
|  4> end
|  5>
|  6> * xyz 0 1
|  7> S 	 43.2941 	 -16.4644 	 -112.668
|  8> C 	 43.8337 	 -15.9819 	 -111.024
|  9> C 	 43.1742 	 -16.737 	 -110.103
| 10> C 	 42.4107 	 -17.8443 	 -110.673
| 11> C 	 42.3191 	 -17.8341 	 -112.02
| 12> H 	 42.0471 	 -18.7061 	 -110.142
| 13> C 	 43.298 	 -16.5242 	 -108.593
| 14> H 	 43.7551 	 -15.4528 	 -108.413
| 15> H 	 43.9714 	 -17.2571 	 -108.272
| 16> C 	 41.9165 	 -16.6772 	 -107.884
| 17> H 	 41.1828 	 -16.0126 	 -108.367
| 18> H 	 41.5876 	 -17.6763 	 -108.073
| 19> C 	 42.0324 	 -16.3616 	 -106.36
| 20> H 	 42.1952 	 -15.2869 	 -106.162
| 21> H 	 41.1078 	 -16.591 	 -105.852
| 22> H 	 42.8516 	 -16.9343 	 -105.963
| 23> S 	 42.7922 	 -19.625 	 -114.088
| 24> C 	 41.424 	 -20.3681 	 -114.788
| 25> C 	 40.266 	 -20.161 	 -114.062
| 26> C 	 40.4497 	 -19.3941 	 -112.889
| 27> C 	 41.7486 	 -18.8537 	 -112.909
| 28> H 	 39.3548 	 -20.6935 	 -114.378
| 29> C 	 39.2475 	 -19.1723 	 -112.011
| 30> H 	 38.4151 	 -19.1917 	 -112.695
| 31> H 	 39.2127 	 -18.1171 	 -111.642
| 32> C 	 38.9939 	 -20.2182 	 -110.871
| 33> H 	 39.8829 	 -20.0443 	 -110.208
| 34> H 	 39.1206 	 -21.1834 	 -111.324
| 35> C 	 37.7593 	 -19.8811 	 -110.016
| 36> H 	 37.572 	 -20.6656 	 -109.339
| 37> H 	 36.8139 	 -19.7313 	 -110.579
| 38> H 	 37.8574 	 -18.996 	 -109.374
| 39> H 	 44.5918 	 -15.2817 	 -110.774
| 40> H 	 41.5113 	 -21.0556 	 -115.644
| 41> *
| 42>
| 43>                          ****END OF INPUT****

CARTESIAN COORDINATES (ANGSTROEM)
---------------------------------
  S     43.294100  -16.464400  -112.668000
  C     43.833700  -15.981900  -111.024000
  C     43.174200  -16.737000  -110.103000
  C     42.410700  -17.844300  -110.673000
  C     42.319100  -17.834100  -112.020000
  H     42.047100  -18.706100  -110.142000
  C     43.298000  -16.524200  -108.593000
  H     43.755100  -15.452800  -108.413000
  H     43.971400  -17.257100  -108.272000
  C     41.916500  -16.677200  -107.884000
  H     41.182800  -16.012600  -108.367000
  H     41.587600  -17.676300  -108.073000
  C     42.032400  -16.361600  -106.360000
  H     42.195200  -15.286900  -106.162000
  H     41.107800  -16.591000  -105.852000
  H     42.851600  -16.934300  -105.963000
  S     42.792200  -19.625000  -114.088000
  C     41.424000  -20.368100  -114.788000
  C     40.266000  -20.161000  -114.062000
  C     40.449700  -19.394100  -112.889000
  C     41.748600  -18.853700  -112.909000
  H     39.354800  -20.693500  -114.378000
  C     39.247500  -19.172300  -112.011000
  H     38.415100  -19.191700  -112.695000
  H     39.212700  -18.117100  -111.642000
  C     38.993900  -20.218200  -110.871000
  H     39.882900  -20.044300  -110.208000
  H     39.120600  -21.183400  -111.324000
  C     37.759300  -19.881100  -110.016000
  H     37.572000  -20.665600  -109.339000
  H     36.813900  -19.731300  -110.579000
  H     37.857400  -18.996000  -109.374000
  H     44.591800  -15.281700  -110.774000
  H     41.511300  -21.055600  -115.644000

 Total Charge           Charge          ....    0
 Multiplicity           Mult            ....    1
 Number of Electrons    NEL             ....  134
 Basis Dimension        Dim             ....  322

ORBITAL ENERGIES
----------------

  NO   OCC          E(Eh)            E(eV)
   0   2.0000     -88.969188     -2420.9747
   1   2.0000     -88.958009     -2420.6705
   2   2.0000     -10.328993      -281.0662
   3   2.0000     -10.328787      -281.0606
   4   2.0000     -10.314713      -280.6776
   5   2.0000     -10.311150      -280.5807
   6   2.0000     -10.305634      -280.4305
   7   2.0000     -10.300044      -280.2784
   8   2.0000     -10.296832      -280.1910
   9   2.0000     -10.296025      -280.1691
  10   2.0000     -10.292902      -280.0841
  11   2.0000     -10.291870      -280.0560
  12   2.0000     -10.291817      -280.0546
  13   2.0000     -10.289583      -279.9938
  14   2.0000     -10.282753      -279.8079
  15   2.0000     -10.279857      -279.7291
  16   2.0000      -8.084539      -219.9915
  17   2.0000      -8.071576      -219.6388
  18   2.0000      -6.042830      -164.4338
  19   2.0000      -6.039021      -164.3301
  20   2.0000      -6.035431      -164.2324
  21   2.0000      -6.030375      -164.0949
  22   2.0000      -6.026335      -163.9849
  23   2.0000      -6.021989      -163.8667
  24   2.0000      -1.005903       -27.3720
  25   2.0000      -0.979889       -26.6641
  26   2.0000      -0.908927       -24.7332
  27   2.0000      -0.904959       -24.6252
  28   2.0000      -0.867043       -23.5934
  29   2.0000      -0.857057       -23.3217
  30   2.0000      -0.836211       -22.7544
  31   2.0000      -0.813970       -22.1493
  32   2.0000      -0.784664       -21.3518
  33   2.0000      -0.769082       -20.9278
  34   2.0000      -0.712272       -19.3819
  35   2.0000      -0.702026       -19.1031
  36   2.0000      -0.689773       -18.7697
  37   2.0000      -0.657801       -17.8997
  38   2.0000      -0.640825       -17.4377
  39   2.0000      -0.616286       -16.7700
  40   2.0000      -0.596761       -16.2387
  41   2.0000      -0.568862       -15.4795
  42   2.0000      -0.561378       -15.2759
  43   2.0000      -0.554097       -15.0777
  44   2.0000      -0.525421       -14.2974
  45   2.0000      -0.519634       -14.1400
  46   2.0000      -0.517858       -14.0916
  47   2.0000      -0.512799       -13.9540
  48   2.0000      -0.511280       -13.9126
  49   2.0000      -0.495970       -13.4960
  50   2.0000      -0.492440       -13.4000
  51   2.0000      -0.482557       -13.1310
  52   2.0000      -0.467674       -12.7261
  53   2.0000      -0.466506       -12.6943
  54   2.0000      -0.456560       -12.4236
  55   2.0000      -0.449010       -12.2182
  56   2.0000      -0.443102       -12.0574
  57   2.0000      -0.441454       -12.0126
  58   2.0000      -0.436989       -11.8911
  59   2.0000      -0.431173       -11.7328
  60   2.0000      -0.423697       -11.5294
  61   2.0000      -0.415291       -11.3006
  62   2.0000      -0.406491       -11.0612
  63   2.0000      -0.344120        -9.3640
  64   2.0000      -0.334923        -9.1137
  65   2.0000      -0.320817        -8.7299
  66   2.0000      -0.294695        -8.0191
  67   0.0000       0.028377         0.7722
  68   0.0000       0.073959         2.0125
  69   0.0000       0.113336         3.0840
  70   0.0000       0.121083         3.2948
  71   0.0000       0.122716         3.3393

MULLIKEN ATOMIC CHARGES
-----------------------
   0 S :    0.074356
   1 C :   -0.114668
   2 C :   -0.083583
   3 C :    0.022948
   4 C :   -0.137410
   5 H :    0.015914
   6 C :    0.047042
   7 H :    0.039561
   8 H :    0.030272
   9 C :   -0.100881
  10 H :    0.039420
  11 H :    0.024160
  12 C :   -0.026051
  13 H :    0.035849
  14 H :    0.031921
  15 H :    0.028525
  16 S :    0.137950
  17 C :   -0.101812
  18 C :   -0.051550
  19 C :   -0.001664
  20 C :   -0.188612
  21 H :    0.026374
  22 C :    0.035782
  23 H :    0.013272
  24 H :    0.032083
  25 C :   -0.055715
  26 H :    0.028558
  27 H :    0.030532
  28 C :   -0.029663
  29 H :    0.026288
  30 H :    0.033633
  31 H :    0.035589
  32 H :    0.037995
  33 H :    0.063585
Sum of atomic charges:   -0.0000000

LOEWDIN ATOMIC CHARGES
----------------------
   0 S :    0.347503
   1 C :   -0.177753
   2 C :   -0.061539
   3 C :   -0.067840
   4 C :   -0.170469
   5 H :    0.028422
   6 C :   -0.030797
   7 H :    0.039054
   8 H :    0.022288
   9 C :   -0.037034
  10 H :    0.027829
  11 H :    0.016647
  12 C :   -0.062567
  13 H :    0.029024
  14 H :    0.024438
  15 H :    0.022793
  16 S :    0.433229
  17 C :   -0.202103
  18 C :   -0.077827
  19 C :   -0.050195
  20 C :   -0.202660
  21 H :    0.035058
  22 C :   -0.036501
  23 H :    0.025077
  24 H :    0.034745
  25 C :   -0.034743
  26 H :    0.028862
  27 H :    0.023001
  28 C :   -0.066428
  29 H :    0.022324
  30 H :    0.028190
  31 H :    0.031619
  32 H :    0.026022
  33 H :    0.032327

  Mayer bond orders larger than 0.100000
B(  0-S ,  1-C ) :   1.0994 B(  0-S ,  4-C ) :   1.1170 B(  1-C ,  2-C ) :   1.6792
B(  1-C , 32-H ) :   0.9736 B(  2-C ,  3-C ) :   1.1716 B(  2-C ,  6-C ) :   1.0157
B(  3-C ,  4-C ) :   1.6515 B(  3-C ,  5-H ) :   0.9862 B(  4-C , 20-C ) :   1.0365
B(  6-C ,  7-H ) :   0.9517 B(  6-C ,  8-H ) :   0.9335 B(  6-C ,  9-C ) :   1.0572
B(  9-C , 10-H ) :   0.9619 B(  9-C , 11-H ) :   0.9515 B(  9-C , 12-C ) :   1.0822
B( 12-C , 13-H ) :   0.9762 B( 12-C , 14-H ) :   0.9749 B( 12-C , 15-H ) :   0.9749
B( 16-S , 17-C ) :   1.1656 B( 16-S , 20-C ) :   1.1670 B( 17-C , 18-C ) :   1.5947
B( 17-C , 33-H ) :   0.9636 B( 18-C , 19-C ) :   1.2620 B( 18-C , 21-H ) :   0.9843
B( 19-C , 20-C ) :   1.5494 B( 19-C , 22-C ) :   1.0429 B( 22-C , 23-H ) :   0.9364
B( 22-C , 24-H ) :   0.9350 B( 22-C , 25-C ) :   1.0472 B( 25-C , 26-H ) :   0.9547
B( 25-C , 27-H ) :   0.9587 B( 25-C , 28-C ) :   1.0733 B( 28-C , 29-H ) :   0.9732
B( 28-C , 30-H ) :   0.9759 B( 28-C , 31-H ) :   0.9731

Dispersion correction           -0.013942490
FINAL SINGLE POINT ENERGY     -1339.876499517886

DIPOLE MOMENT
-------------
                                X             Y             Z
Electronic contribution:     16.79571       0.45543     -28.04906
Nuclear contribution   :    -17.18162      -0.81427      28.65290
                        -----------------------------------------
Total Dipole Moment    :     -0.38591      -0.35884       0.60385
                        -----------------------------------------
Magnitude (a.u.)       :      0.80145
Magnitude (Debye)      :      2.03713

Rotational constants in cm-1:     0.016086     0.009578     0.006389
Rotational constants in MHz :   482.248356   287.155232   191.527668

                             ****ORCA TERMINATED NORMALLY****
TOTAL RUN TIME: 0 days 0 hours 0 minutes 20 seconds 215 msec
