                         Program Version 4.2.1 -  RELEASE  -
|  1> ! wB97X-D3 SP def2-SVP
|  2> %pal
|  3> nprocs 24
|  4> end
|  5>
|  6> * xyz 0 1
|  7> S 	 -29.1987 	 11.4731 	 1.04955
|  8> C 	 -30.6686 	 11.0375 	 0.246185
|  9> C 	 -31.7591 	 11.406 	 1.08466
| 10> C 	 -31.3944 	 11.8228 	 2.41918
| 11> C 	 -30.0444 	 11.8017 	 2.56347
| 12> H 	 -32.0208 	 12.0956 	 3.23236
| 13> C 	 -33.2287 	 11.4593 	 0.770351
| 14> H 	 -33.9249 	 10.9436 	 1.45776
| 15> H 	 -33.4086 	 10.9149 	 -0.180217
| 16> C 	 -33.8911 	 12.829 	 0.426361
| 17> H 	 -33.2151 	 13.6543 	 0.444834
| 18> H 	 -34.3648 	 12.8244 	 -0.548992
| 19> C 	 -34.973 	 13.276 	 1.43898
| 20> H 	 -34.7339 	 13.5029 	 2.53518
| 21> H 	 -35.3604 	 14.2052 	 1.02428
| 22> H 	 -35.8226 	 12.6272 	 1.38124
| 23> S 	 -28.5776 	 10.795 	 4.64548
| 24> C 	 -28.1573 	 11.8261 	 5.92968
| 25> C 	 -28.6851 	 13.0862 	 5.80078
| 26> C 	 -29.3406 	 13.2471 	 4.53789
| 27> C 	 -29.3915 	 12.0927 	 3.8282
| 28> H 	 -28.6261 	 13.7247 	 6.70846
| 29> C 	 -29.7433 	 14.6228 	 4.1236
| 30> H 	 -29.2032 	 14.7403 	 3.16345
| 31> H 	 -29.2157 	 15.4068 	 4.71654
| 32> C 	 -31.222 	 14.9236 	 4.05479
| 33> H 	 -31.6456 	 14.7649 	 5.136
| 34> H 	 -31.697 	 14.1622 	 3.4425
| 35> C 	 -31.6992 	 16.294 	 3.60897
| 36> H 	 -31.161 	 16.8063 	 2.83595
| 37> H 	 -31.7273 	 16.9421 	 4.48321
| 38> H 	 -32.7112 	 16.3274 	 3.19006
| 39> H 	 -30.6723 	 10.7433 	 -0.767492
| 40> H 	 -27.4977 	 11.5543 	 6.83242
| 41> *
| 42>
| 43>                          ****END OF INPUT****

CARTESIAN COORDINATES (ANGSTROEM)
---------------------------------
  S    -29.198700   11.473100    1.049550
  C    -30.668600   11.037500    0.246185
  C    -31.759100   11.406000    1.084660
  C    -31.394400   11.822800    2.419180
  C    -30.044400   11.801700    2.563470
  H    -32.020800   12.095600    3.232360
  C    -33.228700   11.459300    0.770351
  H    -33.924900   10.943600    1.457760
  H    -33.408600   10.914900   -0.180217
  C    -33.891100   12.829000    0.426361
  H    -33.215100   13.654300    0.444834
  H    -34.364800   12.824400   -0.548992
  C    -34.973000   13.276000    1.438980
  H    -34.733900   13.502900    2.535180
  H    -35.360400   14.205200    1.024280
  H    -35.822600   12.627200    1.381240
  S    -28.577600   10.795000    4.645480
  C    -28.157300   11.826100    5.929680
  C    -28.685100   13.086200    5.800780
  C    -29.340600   13.247100    4.537890
  C    -29.391500   12.092700    3.828200
  H    -28.626100   13.724700    6.708460
  C    -29.743300   14.622800    4.123600
  H    -29.203200   14.740300    3.163450
  H    -29.215700   15.406800    4.716540
  C    -31.222000   14.923600    4.054790
  H    -31.645600   14.764900    5.136000
  H    -31.697000   14.162200    3.442500
  C    -31.699200   16.294000    3.608970
  H    -31.161000   16.806300    2.835950
  H    -31.727300   16.942100    4.483210
  H    -32.711200   16.327400    3.190060
  H    -30.672300   10.743300   -0.767492
  H    -27.497700   11.554300    6.832420

 Total Charge           Charge          ....    0
 Multiplicity           Mult            ....    1
 Number of Electrons    NEL             ....  134
 Basis Dimension        Dim             ....  322

ORBITAL ENERGIES
----------------

  NO   OCC          E(Eh)            E(eV)
   0   2.0000     -88.967009     -2420.9154
   1   2.0000     -88.963085     -2420.8086
   2   2.0000     -10.324987      -280.9572
   3   2.0000     -10.319128      -280.7977
   4   2.0000     -10.317582      -280.7557
   5   2.0000     -10.315066      -280.6872
   6   2.0000     -10.308950      -280.5208
   7   2.0000     -10.298830      -280.2454
   8   2.0000     -10.291763      -280.0531
   9   2.0000     -10.290913      -280.0300
  10   2.0000     -10.290701      -280.0242
  11   2.0000     -10.290541      -280.0199
  12   2.0000     -10.290267      -280.0124
  13   2.0000     -10.286262      -279.9034
  14   2.0000     -10.280284      -279.7407
  15   2.0000     -10.275128      -279.6004
  16   2.0000      -8.081805      -219.9171
  17   2.0000      -8.079216      -219.8466
  18   2.0000      -6.040314      -164.3653
  19   2.0000      -6.037611      -164.2917
  20   2.0000      -6.036311      -164.2564
  21   2.0000      -6.033518      -164.1804
  22   2.0000      -6.032570      -164.1546
  23   2.0000      -6.030011      -164.0849
  24   2.0000      -1.012674       -27.5563
  25   2.0000      -0.987545       -26.8725
  26   2.0000      -0.910586       -24.7783
  27   2.0000      -0.905590       -24.6423
  28   2.0000      -0.872137       -23.7321
  29   2.0000      -0.854324       -23.2473
  30   2.0000      -0.850474       -23.1426
  31   2.0000      -0.815133       -22.1809
  32   2.0000      -0.784029       -21.3345
  33   2.0000      -0.769111       -20.9286
  34   2.0000      -0.705490       -19.1974
  35   2.0000      -0.698827       -19.0160
  36   2.0000      -0.689049       -18.7500
  37   2.0000      -0.659246       -17.9390
  38   2.0000      -0.651134       -17.7183
  39   2.0000      -0.620481       -16.8841
  40   2.0000      -0.593775       -16.1574
  41   2.0000      -0.568259       -15.4631
  42   2.0000      -0.560043       -15.2396
  43   2.0000      -0.549699       -14.9581
  44   2.0000      -0.534900       -14.5554
  45   2.0000      -0.522171       -14.2090
  46   2.0000      -0.519015       -14.1231
  47   2.0000      -0.514395       -13.9974
  48   2.0000      -0.504872       -13.7383
  49   2.0000      -0.501582       -13.6487
  50   2.0000      -0.494665       -13.4605
  51   2.0000      -0.479228       -13.0405
  52   2.0000      -0.477715       -12.9993
  53   2.0000      -0.467695       -12.7266
  54   2.0000      -0.457518       -12.4497
  55   2.0000      -0.446067       -12.1381
  56   2.0000      -0.439174       -11.9505
  57   2.0000      -0.433469       -11.7953
  58   2.0000      -0.430925       -11.7261
  59   2.0000      -0.424668       -11.5558
  60   2.0000      -0.418140       -11.3782
  61   2.0000      -0.409221       -11.1355
  62   2.0000      -0.403259       -10.9732
  63   2.0000      -0.340947        -9.2776
  64   2.0000      -0.330190        -8.9849
  65   2.0000      -0.321586        -8.7508
  66   2.0000      -0.304669        -8.2905
  67   0.0000       0.037947         1.0326
  68   0.0000       0.066041         1.7971
  69   0.0000       0.109561         2.9813
  70   0.0000       0.123435         3.3588
  71   0.0000       0.129247         3.5170

MULLIKEN ATOMIC CHARGES
-----------------------
   0 S :    0.117668
   1 C :   -0.099511
   2 C :   -0.069083
   3 C :    0.058063
   4 C :   -0.163179
   5 H :    0.022678
   6 C :    0.040121
   7 H :    0.037454
   8 H :    0.013348
   9 C :   -0.051537
  10 H :    0.026779
  11 H :    0.030828
  12 C :   -0.096005
  13 H :    0.052540
  14 H :    0.020502
  15 H :    0.024586
  16 S :    0.129930
  17 C :   -0.124702
  18 C :   -0.068156
  19 C :   -0.013879
  20 C :   -0.193858
  21 H :    0.036135
  22 C :    0.089646
  23 H :    0.030133
  24 H :    0.018196
  25 C :   -0.101796
  26 H :    0.034325
  27 H :    0.020841
  28 C :   -0.022868
  29 H :    0.023374
  30 H :    0.028765
  31 H :    0.027020
  32 H :    0.041790
  33 H :    0.079849
Sum of atomic charges:   -0.0000000

LOEWDIN ATOMIC CHARGES
----------------------
   0 S :    0.408813
   1 C :   -0.196587
   2 C :   -0.056430
   3 C :   -0.048338
   4 C :   -0.191204
   5 H :    0.031966
   6 C :   -0.047720
   7 H :    0.033726
   8 H :    0.033090
   9 C :   -0.033976
  10 H :    0.020519
  11 H :    0.027481
  12 C :   -0.076100
  13 H :    0.031833
  14 H :    0.025038
  15 H :    0.016209
  16 S :    0.432925
  17 C :   -0.213153
  18 C :   -0.085341
  19 C :   -0.055271
  20 C :   -0.211074
  21 H :    0.040605
  22 C :   -0.038080
  23 H :    0.037535
  24 H :    0.032244
  25 C :   -0.049839
  26 H :    0.034674
  27 H :    0.019517
  28 C :   -0.070981
  29 H :    0.022155
  30 H :    0.026174
  31 H :    0.030890
  32 H :    0.021883
  33 H :    0.046814

  Mayer bond orders larger than 0.100000
B(  0-S ,  1-C ) :   1.1402 B(  0-S ,  4-C ) :   1.1540 B(  1-C ,  2-C ) :   1.5832
B(  1-C , 32-H ) :   0.9795 B(  2-C ,  3-C ) :   1.2162 B(  2-C ,  6-C ) :   1.0533
B(  3-C ,  4-C ) :   1.5898 B(  3-C ,  5-H ) :   0.9911 B(  4-C , 20-C ) :   1.0169
B(  6-C ,  7-H ) :   0.9518 B(  6-C ,  8-H ) :   0.9391 B(  6-C ,  9-C ) :   1.0294
B(  9-C , 10-H ) :   0.9656 B(  9-C , 11-H ) :   0.9612 B(  9-C , 12-C ) :   1.0798
B( 12-C , 13-H ) :   0.9766 B( 12-C , 14-H ) :   0.9716 B( 12-C , 15-H ) :   0.9744
B( 16-S , 17-C ) :   1.1711 B( 16-S , 20-C ) :   1.1435 B( 17-C , 18-C ) :   1.6288
B( 17-C , 33-H ) :   0.9526 B( 18-C , 19-C ) :   1.2245 B( 18-C , 21-H ) :   0.9857
B( 19-C , 20-C ) :   1.6310 B( 19-C , 22-C ) :   1.0323 B( 22-C , 23-H ) :   0.9216
B( 22-C , 24-H ) :   0.9382 B( 22-C , 25-C ) :   1.0610 B( 25-C , 26-H ) :   0.9544
B( 25-C , 27-H ) :   0.9522 B( 25-C , 28-C ) :   1.0794 B( 28-C , 29-H ) :   0.9740
B( 28-C , 30-H ) :   0.9763 B( 28-C , 31-H ) :   0.9722

Dispersion correction           -0.015170921
FINAL SINGLE POINT ENERGY     -1339.861012262825

DIPOLE MOMENT
-------------
                                X             Y             Z
Electronic contribution:     25.14132     -19.92920       2.65160
Nuclear contribution   :    -25.60791      20.37859      -2.66814
                        -----------------------------------------
Total Dipole Moment    :     -0.46659       0.44939      -0.01654
                        -----------------------------------------
Magnitude (a.u.)       :      0.64802
Magnitude (Debye)      :      1.64713

Rotational constants in cm-1:     0.017401     0.010094     0.007388
Rotational constants in MHz :   521.669404   302.605804   221.492862

                             ****ORCA TERMINATED NORMALLY****
TOTAL RUN TIME: 0 days 0 hours 0 minutes 22 seconds 506 msec
