                         Program Version 4.2.1 -  RELEASE  -
|  1> ! wB97X-D3 SP def2-SVP
|  2> %pal
|  3> nprocs 24
|  4> end
|  5>
|  6> * xyz 0 1
|  7> S 	 -139.206 	 6.09621 	 -8.96052
|  8> C 	 -138.288 	 7.13587 	 -10.0101
|  9> C 	 -137.662 	 8.20419 	 -9.36158
| 10> C 	 -138.124 	 8.1803 	 -8.01516
| 11> C 	 -139.176 	 7.3346 	 -7.70806
| 12> H 	 -137.649 	 8.7501 	 -7.21402
| 13> C 	 -136.578 	 9.06232 	 -9.92978
| 14> H 	 -136.313 	 8.58936 	 -10.9466
| 15> H 	 -135.7 	 8.95908 	 -9.26615
| 16> C 	 -136.9 	 10.5439 	 -10.0368
| 17> H 	 -137.479 	 10.658 	 -10.9491
| 18> H 	 -137.421 	 10.9107 	 -9.19148
| 19> C 	 -135.696 	 11.4178 	 -10.3932
| 20> H 	 -135.773 	 12.5283 	 -10.4893
| 21> H 	 -134.982 	 11.3182 	 -9.56359
| 22> H 	 -135.164 	 10.9532 	 -11.174
| 23> S 	 -139.636 	 5.49078 	 -5.69595
| 24> C 	 -140.206 	 6.0768 	 -4.1675
| 25> C 	 -140.517 	 7.41693 	 -4.21011
| 26> C 	 -140.272 	 8.01728 	 -5.4591
| 27> C 	 -139.788 	 7.10684 	 -6.40478
| 28> H 	 -140.686 	 7.78072 	 -3.20307
| 29> C 	 -140.549 	 9.48838 	 -5.66541
| 30> H 	 -141.627 	 9.69336 	 -5.37022
| 31> H 	 -140.372 	 9.77771 	 -6.65886
| 32> C 	 -139.604 	 10.3934 	 -4.71582
| 33> H 	 -138.544 	 10.241 	 -4.77568
| 34> H 	 -139.857 	 10.1648 	 -3.63286
| 35> C 	 -139.696 	 11.8806 	 -5.05648
| 36> H 	 -138.838 	 12.4219 	 -4.80899
| 37> H 	 -140.639 	 12.1562 	 -4.47267
| 38> H 	 -139.819 	 12.1137 	 -6.12444
| 39> H 	 -138.049 	 6.79843 	 -11.0807
| 40> H 	 -140.505 	 5.42188 	 -3.34105
| 41> *
| 42>
| 43>                          ****END OF INPUT****

CARTESIAN COORDINATES (ANGSTROEM)
---------------------------------
  S    -139.206000    6.096210   -8.960520
  C    -138.288000    7.135870  -10.010100
  C    -137.662000    8.204190   -9.361580
  C    -138.124000    8.180300   -8.015160
  C    -139.176000    7.334600   -7.708060
  H    -137.649000    8.750100   -7.214020
  C    -136.578000    9.062320   -9.929780
  H    -136.313000    8.589360  -10.946600
  H    -135.700000    8.959080   -9.266150
  C    -136.900000   10.543900  -10.036800
  H    -137.479000   10.658000  -10.949100
  H    -137.421000   10.910700   -9.191480
  C    -135.696000   11.417800  -10.393200
  H    -135.773000   12.528300  -10.489300
  H    -134.982000   11.318200   -9.563590
  H    -135.164000   10.953200  -11.174000
  S    -139.636000    5.490780   -5.695950
  C    -140.206000    6.076800   -4.167500
  C    -140.517000    7.416930   -4.210110
  C    -140.272000    8.017280   -5.459100
  C    -139.788000    7.106840   -6.404780
  H    -140.686000    7.780720   -3.203070
  C    -140.549000    9.488380   -5.665410
  H    -141.627000    9.693360   -5.370220
  H    -140.372000    9.777710   -6.658860
  C    -139.604000   10.393400   -4.715820
  H    -138.544000   10.241000   -4.775680
  H    -139.857000   10.164800   -3.632860
  C    -139.696000   11.880600   -5.056480
  H    -138.838000   12.421900   -4.808990
  H    -140.639000   12.156200   -4.472670
  H    -139.819000   12.113700   -6.124440
  H    -138.049000    6.798430  -11.080700
  H    -140.505000    5.421880   -3.341050

 Total Charge           Charge          ....    0
 Multiplicity           Mult            ....    1
 Number of Electrons    NEL             ....  134
 Basis Dimension        Dim             ....  322

ORBITAL ENERGIES
----------------

  NO   OCC          E(Eh)            E(eV)
   0   2.0000     -88.965027     -2420.8615
   1   2.0000     -88.963745     -2420.8266
   2   2.0000     -10.329172      -281.0710
   3   2.0000     -10.328096      -281.0418
   4   2.0000     -10.322279      -280.8835
   5   2.0000     -10.315551      -280.7004
   6   2.0000     -10.305544      -280.4281
   7   2.0000     -10.304403      -280.3971
   8   2.0000     -10.303912      -280.3837
   9   2.0000     -10.297930      -280.2209
  10   2.0000     -10.296477      -280.1814
  11   2.0000     -10.292518      -280.0736
  12   2.0000     -10.290130      -280.0087
  13   2.0000     -10.284349      -279.8514
  14   2.0000     -10.278644      -279.6961
  15   2.0000     -10.278369      -279.6886
  16   2.0000      -8.080056      -219.8695
  17   2.0000      -8.078712      -219.8329
  18   2.0000      -6.038484      -164.3155
  19   2.0000      -6.037173      -164.2798
  20   2.0000      -6.034845      -164.2165
  21   2.0000      -6.033204      -164.1718
  22   2.0000      -6.030569      -164.1001
  23   2.0000      -6.029501      -164.0711
  24   2.0000      -1.007926       -27.4271
  25   2.0000      -0.986381       -26.8408
  26   2.0000      -0.918392       -24.9907
  27   2.0000      -0.902611       -24.5613
  28   2.0000      -0.871352       -23.7107
  29   2.0000      -0.854809       -23.2605
  30   2.0000      -0.848148       -23.0793
  31   2.0000      -0.814421       -22.1615
  32   2.0000      -0.782763       -21.3001
  33   2.0000      -0.768702       -20.9174
  34   2.0000      -0.708380       -19.2760
  35   2.0000      -0.696828       -18.9617
  36   2.0000      -0.693946       -18.8832
  37   2.0000      -0.656211       -17.8564
  38   2.0000      -0.636668       -17.3246
  39   2.0000      -0.623493       -16.9661
  40   2.0000      -0.595746       -16.2111
  41   2.0000      -0.571448       -15.5499
  42   2.0000      -0.569625       -15.5003
  43   2.0000      -0.563809       -15.3420
  44   2.0000      -0.532331       -14.4855
  45   2.0000      -0.523554       -14.2466
  46   2.0000      -0.520384       -14.1604
  47   2.0000      -0.506168       -13.7735
  48   2.0000      -0.503075       -13.6894
  49   2.0000      -0.498963       -13.5775
  50   2.0000      -0.486841       -13.2476
  51   2.0000      -0.480880       -13.0854
  52   2.0000      -0.475099       -12.9281
  53   2.0000      -0.463845       -12.6219
  54   2.0000      -0.455437       -12.3931
  55   2.0000      -0.450744       -12.2654
  56   2.0000      -0.445308       -12.1175
  57   2.0000      -0.442880       -12.0514
  58   2.0000      -0.436851       -11.8873
  59   2.0000      -0.430631       -11.7181
  60   2.0000      -0.425799       -11.5866
  61   2.0000      -0.409463       -11.1421
  62   2.0000      -0.401996       -10.9389
  63   2.0000      -0.347414        -9.4536
  64   2.0000      -0.331101        -9.0097
  65   2.0000      -0.326662        -8.8889
  66   2.0000      -0.287196        -7.8150
  67   0.0000       0.023118         0.6291
  68   0.0000       0.066841         1.8188
  69   0.0000       0.098508         2.6805
  70   0.0000       0.119988         3.2650
  71   0.0000       0.127406         3.4669

MULLIKEN ATOMIC CHARGES
-----------------------
   0 S :    0.096701
   1 C :   -0.142466
   2 C :   -0.072252
   3 C :    0.010802
   4 C :   -0.149773
   5 H :    0.019102
   6 C :    0.029344
   7 H :    0.035041
   8 H :    0.037094
   9 C :   -0.042446
  10 H :    0.029764
  11 H :    0.029181
  12 C :   -0.045443
  13 H :    0.051624
  14 H :    0.007340
  15 H :    0.015432
  16 S :    0.094981
  17 C :   -0.115633
  18 C :   -0.048514
  19 C :   -0.021635
  20 C :   -0.132846
  21 H :    0.028099
  22 C :    0.093524
  23 H :    0.049850
  24 H :    0.010960
  25 C :   -0.126833
  26 H :    0.022982
  27 H :    0.039759
  28 C :   -0.045330
  29 H :    0.026786
  30 H :    0.042119
  31 H :    0.032631
  32 H :    0.072391
  33 H :    0.067661
Sum of atomic charges:   -0.0000000

LOEWDIN ATOMIC CHARGES
----------------------
   0 S :    0.399003
   1 C :   -0.200236
   2 C :   -0.071158
   3 C :   -0.055956
   4 C :   -0.195164
   5 H :    0.030132
   6 C :   -0.033022
   7 H :    0.040859
   8 H :    0.035058
   9 C :   -0.038642
  10 H :    0.028539
  11 H :    0.018905
  12 C :   -0.070474
  13 H :    0.034920
  14 H :    0.019867
  15 H :    0.018603
  16 S :    0.396480
  17 C :   -0.188922
  18 C :   -0.079800
  19 C :   -0.054483
  20 C :   -0.195355
  21 H :    0.036457
  22 C :   -0.018866
  23 H :    0.043049
  24 H :    0.018152
  25 C :   -0.044438
  26 H :    0.016872
  27 H :    0.026651
  28 C :   -0.069886
  29 H :    0.016707
  30 H :    0.036663
  31 H :    0.027098
  32 H :    0.038456
  33 H :    0.033930

  Mayer bond orders larger than 0.100000
B(  0-S ,  1-C ) :   1.1614 B(  0-S ,  4-C ) :   1.1363 B(  1-C ,  2-C ) :   1.5906
B(  1-C , 32-H ) :   0.9535 B(  2-C ,  3-C ) :   1.2541 B(  2-C ,  6-C ) :   1.0300
B(  3-C ,  4-C ) :   1.5583 B(  3-C ,  5-H ) :   0.9885 B(  4-C , 20-C ) :   1.0557
B(  6-C ,  7-H ) :   0.9347 B(  6-C ,  8-H ) :   0.9413 B(  6-C ,  9-C ) :   1.0565
B(  9-C , 10-H ) :   0.9523 B(  9-C , 11-H ) :   0.9641 B(  9-C , 12-C ) :   1.0745
B( 12-C , 13-H ) :   0.9754 B( 12-C , 14-H ) :   0.9722 B( 12-C , 15-H ) :   0.9703
B( 16-S , 17-C ) :   1.1628 B( 16-S , 20-C ) :   1.1338 B( 17-C , 18-C ) :   1.6281
B( 17-C , 33-H ) :   0.9590 B( 18-C , 19-C ) :   1.2216 B( 18-C , 21-H ) :   0.9895
B( 19-C , 20-C ) :   1.5973 B( 19-C , 22-C ) :   1.0556 B( 22-C , 23-H ) :   0.9392
B( 22-C , 24-H ) :   0.9348 B( 22-C , 25-C ) :   1.0379 B( 25-C , 26-H ) :   0.9653
B( 25-C , 27-H ) :   0.9614 B( 25-C , 28-C ) :   1.0721 B( 28-C , 29-H ) :   0.9796
B( 28-C , 30-H ) :   0.9783 B( 28-C , 31-H ) :   0.9739

Dispersion correction           -0.013632531
FINAL SINGLE POINT ENERGY     -1339.849404260872

DIPOLE MOMENT
-------------
                                X             Y             Z
Electronic contribution:    -10.00575     -31.46084       1.66874
Nuclear contribution   :     10.41482      32.02593      -1.48826
                        -----------------------------------------
Total Dipole Moment    :      0.40908       0.56509       0.18048
                        -----------------------------------------
Magnitude (a.u.)       :      0.72058
Magnitude (Debye)      :      1.83157

Rotational constants in cm-1:     0.016420     0.009350     0.006319
Rotational constants in MHz :   492.268832   280.304333   189.428570

                             ****ORCA TERMINATED NORMALLY****
TOTAL RUN TIME: 0 days 0 hours 0 minutes 21 seconds 348 msec
