                         Program Version 4.2.1 -  RELEASE  -
|  1> ! wB97X-D3 SP def2-SVP
|  2> %pal
|  3> nprocs 24
|  4> end
|  5>
|  6> * xyz 0 1
|  7> S 	 -114.424 	 36.4771 	 -122.276
|  8> C 	 -114.586 	 34.8261 	 -121.854
|  9> C 	 -115.895 	 34.3613 	 -121.883
| 10> C 	 -116.708 	 35.3795 	 -122.449
| 11> C 	 -116.14 	 36.5928 	 -122.578
| 12> H 	 -117.771 	 35.26 	 -122.668
| 13> C 	 -116.361 	 32.9179 	 -121.753
| 14> H 	 -115.554 	 32.2647 	 -122.082
| 15> H 	 -117.049 	 32.7464 	 -122.615
| 16> C 	 -116.945 	 32.4133 	 -120.48
| 17> H 	 -116.65 	 31.3654 	 -120.358
| 18> H 	 -116.352 	 32.9074 	 -119.617
| 19> C 	 -118.442 	 32.631 	 -120.315
| 20> H 	 -118.918 	 32.4603 	 -119.306
| 21> H 	 -118.685 	 33.6721 	 -120.432
| 22> H 	 -119.073 	 32.1678 	 -121.168
| 23> S 	 -116.06 	 38.2332 	 -124.659
| 24> C 	 -117.149 	 39.6281 	 -124.741
| 25> C 	 -117.794 	 39.8155 	 -123.564
| 26> C 	 -117.572 	 38.7871 	 -122.563
| 27> C 	 -116.69 	 37.8431 	 -123.122
| 28> H 	 -118.496 	 40.6413 	 -123.466
| 29> C 	 -118.314 	 38.8457 	 -121.166
| 30> H 	 -118.35 	 39.8228 	 -120.837
| 31> H 	 -117.762 	 38.364 	 -120.362
| 32> C 	 -119.82 	 38.3344 	 -121.078
| 33> H 	 -120.228 	 38.6345 	 -120.088
| 34> H 	 -119.88 	 37.2356 	 -121.078
| 35> C 	 -120.769 	 38.9008 	 -122.145
| 36> H 	 -120.858 	 39.9937 	 -122.039
| 37> H 	 -121.676 	 38.3727 	 -122.076
| 38> H 	 -120.313 	 38.774 	 -123.136
| 39> H 	 -113.757 	 34.3231 	 -121.49
| 40> H 	 -117.245 	 40.3344 	 -125.524
| 41> *
| 42>
| 43>                          ****END OF INPUT****

CARTESIAN COORDINATES (ANGSTROEM)
---------------------------------
  S    -114.424000   36.477100  -122.276000
  C    -114.586000   34.826100  -121.854000
  C    -115.895000   34.361300  -121.883000
  C    -116.708000   35.379500  -122.449000
  C    -116.140000   36.592800  -122.578000
  H    -117.771000   35.260000  -122.668000
  C    -116.361000   32.917900  -121.753000
  H    -115.554000   32.264700  -122.082000
  H    -117.049000   32.746400  -122.615000
  C    -116.945000   32.413300  -120.480000
  H    -116.650000   31.365400  -120.358000
  H    -116.352000   32.907400  -119.617000
  C    -118.442000   32.631000  -120.315000
  H    -118.918000   32.460300  -119.306000
  H    -118.685000   33.672100  -120.432000
  H    -119.073000   32.167800  -121.168000
  S    -116.060000   38.233200  -124.659000
  C    -117.149000   39.628100  -124.741000
  C    -117.794000   39.815500  -123.564000
  C    -117.572000   38.787100  -122.563000
  C    -116.690000   37.843100  -123.122000
  H    -118.496000   40.641300  -123.466000
  C    -118.314000   38.845700  -121.166000
  H    -118.350000   39.822800  -120.837000
  H    -117.762000   38.364000  -120.362000
  C    -119.820000   38.334400  -121.078000
  H    -120.228000   38.634500  -120.088000
  H    -119.880000   37.235600  -121.078000
  C    -120.769000   38.900800  -122.145000
  H    -120.858000   39.993700  -122.039000
  H    -121.676000   38.372700  -122.076000
  H    -120.313000   38.774000  -123.136000
  H    -113.757000   34.323100  -121.490000
  H    -117.245000   40.334400  -125.524000

 Total Charge           Charge          ....    0
 Multiplicity           Mult            ....    1
 Number of Electrons    NEL             ....  134
 Basis Dimension        Dim             ....  322

ORBITAL ENERGIES
----------------

  NO   OCC          E(Eh)            E(eV)
   0   2.0000     -88.967185     -2420.9202
   1   2.0000     -88.962818     -2420.8013
   2   2.0000     -10.327198      -281.0173
   3   2.0000     -10.320452      -280.8338
   4   2.0000     -10.312678      -280.6222
   5   2.0000     -10.311360      -280.5864
   6   2.0000     -10.307670      -280.4859
   7   2.0000     -10.299704      -280.2692
   8   2.0000     -10.295290      -280.1491
   9   2.0000     -10.293024      -280.0874
  10   2.0000     -10.292580      -280.0753
  11   2.0000     -10.292456      -280.0720
  12   2.0000     -10.292230      -280.0658
  13   2.0000     -10.287844      -279.9465
  14   2.0000     -10.286742      -279.9165
  15   2.0000     -10.273492      -279.5559
  16   2.0000      -8.082342      -219.9317
  17   2.0000      -8.078776      -219.8347
  18   2.0000      -6.040799      -164.3785
  19   2.0000      -6.037087      -164.2775
  20   2.0000      -6.036838      -164.2707
  21   2.0000      -6.033136      -164.1700
  22   2.0000      -6.033067      -164.1681
  23   2.0000      -6.029657      -164.0753
  24   2.0000      -1.011937       -27.5362
  25   2.0000      -0.987258       -26.8647
  26   2.0000      -0.914028       -24.8720
  27   2.0000      -0.898271       -24.4432
  28   2.0000      -0.871177       -23.7059
  29   2.0000      -0.849812       -23.1246
  30   2.0000      -0.843953       -22.9651
  31   2.0000      -0.817604       -22.2481
  32   2.0000      -0.786523       -21.4024
  33   2.0000      -0.775345       -21.0982
  34   2.0000      -0.703208       -19.1353
  35   2.0000      -0.701699       -19.0942
  36   2.0000      -0.687100       -18.6970
  37   2.0000      -0.659221       -17.9383
  38   2.0000      -0.649621       -17.6771
  39   2.0000      -0.618177       -16.8215
  40   2.0000      -0.592655       -16.1270
  41   2.0000      -0.570001       -15.5105
  42   2.0000      -0.551106       -14.9964
  43   2.0000      -0.549648       -14.9567
  44   2.0000      -0.542636       -14.7659
  45   2.0000      -0.534572       -14.5464
  46   2.0000      -0.517127       -14.0717
  47   2.0000      -0.508244       -13.8300
  48   2.0000      -0.500960       -13.6318
  49   2.0000      -0.493611       -13.4318
  50   2.0000      -0.484784       -13.1916
  51   2.0000      -0.480940       -13.0870
  52   2.0000      -0.475219       -12.9314
  53   2.0000      -0.463930       -12.6242
  54   2.0000      -0.461440       -12.5564
  55   2.0000      -0.442653       -12.0452
  56   2.0000      -0.440264       -11.9802
  57   2.0000      -0.436013       -11.8645
  58   2.0000      -0.434803       -11.8316
  59   2.0000      -0.426921       -11.6171
  60   2.0000      -0.421612       -11.4726
  61   2.0000      -0.416556       -11.3351
  62   2.0000      -0.408359       -11.1120
  63   2.0000      -0.345279        -9.3955
  64   2.0000      -0.330939        -9.0053
  65   2.0000      -0.326442        -8.8829
  66   2.0000      -0.302787        -8.2393
  67   0.0000       0.043600         1.1864
  68   0.0000       0.061944         1.6856
  69   0.0000       0.111322         3.0292
  70   0.0000       0.120919         3.2904
  71   0.0000       0.130851         3.5606

MULLIKEN ATOMIC CHARGES
-----------------------
   0 S :    0.111504
   1 C :   -0.104957
   2 C :   -0.052514
   3 C :    0.030479
   4 C :   -0.161378
   5 H :    0.013630
   6 C :    0.018257
   7 H :    0.021825
   8 H :    0.026252
   9 C :   -0.036453
  10 H :    0.029200
  11 H :    0.035751
  12 C :   -0.075045
  13 H :    0.045648
  14 H :    0.017633
  15 H :    0.039429
  16 S :    0.123291
  17 C :   -0.070429
  18 C :   -0.049262
  19 C :   -0.010577
  20 C :   -0.196092
  21 H :    0.020153
  22 C :    0.117277
  23 H :    0.003284
  24 H :    0.029372
  25 C :   -0.105132
  26 H :    0.029198
  27 H :    0.032104
  28 C :   -0.048192
  29 H :    0.028269
  30 H :    0.033327
  31 H :    0.042015
  32 H :    0.025680
  33 H :    0.036454
Sum of atomic charges:   -0.0000000

LOEWDIN ATOMIC CHARGES
----------------------
   0 S :    0.419552
   1 C :   -0.186824
   2 C :   -0.066469
   3 C :   -0.061267
   4 C :   -0.206104
   5 H :    0.032724
   6 C :   -0.040166
   7 H :    0.034871
   8 H :    0.036314
   9 C :   -0.052193
  10 H :    0.025902
  11 H :    0.036283
  12 C :   -0.083175
  13 H :    0.034420
  14 H :    0.020736
  15 H :    0.034104
  16 S :    0.421106
  17 C :   -0.181599
  18 C :   -0.068181
  19 C :   -0.053181
  20 C :   -0.208917
  21 H :    0.030666
  22 C :   -0.022917
  23 H :    0.020460
  24 H :    0.034654
  25 C :   -0.037390
  26 H :    0.025309
  27 H :    0.020616
  28 C :   -0.066207
  29 H :    0.024201
  30 H :    0.021770
  31 H :    0.027689
  32 H :    0.010168
  33 H :    0.023043

  Mayer bond orders larger than 0.100000
B(  0-S ,  1-C ) :   1.1721 B(  0-S ,  4-C ) :   1.1464 B(  1-C ,  2-C ) :   1.5893
B(  1-C , 32-H ) :   0.9746 B(  2-C ,  3-C ) :   1.2435 B(  2-C ,  6-C ) :   1.0174
B(  3-C ,  4-C ) :   1.6266 B(  3-C ,  5-H ) :   0.9869 B(  4-C , 20-C ) :   0.9835
B(  6-C ,  7-H ) :   0.9425 B(  6-C ,  8-H ) :   0.9456 B(  6-C ,  9-C ) :   1.0596
B(  9-C , 10-H ) :   0.9542 B(  9-C , 11-H ) :   0.9520 B(  9-C , 12-C ) :   1.0711
B( 12-C , 13-H ) :   0.9728 B( 12-C , 14-H ) :   0.9731 B( 12-C , 15-H ) :   0.9718
B( 16-S , 17-C ) :   1.1219 B( 16-S , 20-C ) :   1.1791 B( 17-C , 18-C ) :   1.6582
B( 17-C , 33-H ) :   0.9705 B( 18-C , 19-C ) :   1.2118 B( 18-C , 21-H ) :   0.9811
B( 19-C , 20-C ) :   1.6092 B( 19-C , 22-C ) :   1.0320 B( 22-C , 23-H ) :   0.9351
B( 22-C , 24-H ) :   0.9383 B( 22-C , 25-C ) :   1.0651 B( 25-C , 26-H ) :   0.9557
B( 25-C , 27-H ) :   0.9606 B( 25-C , 28-C ) :   1.0806 B( 28-C , 29-H ) :   0.9753
B( 28-C , 30-H ) :   0.9725 B( 28-C , 31-H ) :   0.9708

Dispersion correction           -0.014287055
FINAL SINGLE POINT ENERGY     -1339.870678864617

DIPOLE MOMENT
-------------
                                X             Y             Z
Electronic contribution:     22.75833      10.51108     -14.20396
Nuclear contribution   :    -23.17860     -10.62512      14.43942
                        -----------------------------------------
Total Dipole Moment    :     -0.42026      -0.11404       0.23546
                        -----------------------------------------
Magnitude (a.u.)       :      0.49504
Magnitude (Debye)      :      1.25830

Rotational constants in cm-1:     0.017703     0.009210     0.006736
Rotational constants in MHz :   530.735749   276.093891   201.938347

                             ****ORCA TERMINATED NORMALLY****
TOTAL RUN TIME: 0 days 0 hours 0 minutes 21 seconds 457 msec
