                         Program Version 4.2.1 -  RELEASE  -
|  1> ! wB97X-D3 SP def2-SVP
|  2> %pal
|  3> nprocs 24
|  4> end
|  5>
|  6> * xyz 0 1
|  7> S 	 -48.606 	 9.3712 	 -16.5768
|  8> C 	 -48.7894 	 8.48954 	 -15.0953
|  9> C 	 -49.877 	 7.63002 	 -15.1996
| 10> C 	 -50.6057 	 7.9133 	 -16.4231
| 11> C 	 -50.0659 	 8.77471 	 -17.317
| 12> H 	 -51.5357 	 7.39861 	 -16.817
| 13> C 	 -50.4656 	 6.76754 	 -14.0663
| 14> H 	 -51.5314 	 6.74233 	 -14.3499
| 15> H 	 -50.4453 	 7.27696 	 -13.1089
| 16> C 	 -49.9949 	 5.3076 	 -13.8821
| 17> H 	 -50.5898 	 4.71234 	 -13.2325
| 18> H 	 -50.0074 	 4.75845 	 -14.8095
| 19> C 	 -48.5829 	 5.21304 	 -13.4133
| 20> H 	 -48.2621 	 4.16605 	 -13.1471
| 21> H 	 -47.8782 	 5.67033 	 -14.1531
| 22> H 	 -48.4494 	 5.78092 	 -12.5391
| 23> S 	 -48.9051 	 9.11542 	 -19.8372
| 24> C 	 -49.9568 	 9.05381 	 -21.2699
| 25> C 	 -51.2662 	 8.94626 	 -20.8698
| 26> C 	 -51.4955 	 8.9699 	 -19.473
| 27> C 	 -50.2962 	 8.9331 	 -18.7322
| 28> H 	 -52.0819 	 8.98887 	 -21.6325
| 29> C 	 -52.905 	 9.08415 	 -18.8259
| 30> H 	 -52.9249 	 9.56558 	 -17.7839
| 31> H 	 -53.3172 	 8.05002 	 -18.7705
| 32> C 	 -53.852 	 9.91049 	 -19.7231
| 33> H 	 -53.8979 	 9.42598 	 -20.6971
| 34> H 	 -53.3958 	 10.8584 	 -20.0807
| 35> C 	 -55.274 	 10.1107 	 -19.1406
| 36> H 	 -55.3478 	 11.1429 	 -18.7471
| 37> H 	 -55.5512 	 9.48938 	 -18.3399
| 38> H 	 -56.0128 	 9.90426 	 -19.8711
| 39> H 	 -48.1507 	 8.56623 	 -14.2099
| 40> H 	 -49.7069 	 9.12286 	 -22.3147
| 41> *
| 42>
| 43>                          ****END OF INPUT****

CARTESIAN COORDINATES (ANGSTROEM)
---------------------------------
  S    -48.606000    9.371200  -16.576800
  C    -48.789400    8.489540  -15.095300
  C    -49.877000    7.630020  -15.199600
  C    -50.605700    7.913300  -16.423100
  C    -50.065900    8.774710  -17.317000
  H    -51.535700    7.398610  -16.817000
  C    -50.465600    6.767540  -14.066300
  H    -51.531400    6.742330  -14.349900
  H    -50.445300    7.276960  -13.108900
  C    -49.994900    5.307600  -13.882100
  H    -50.589800    4.712340  -13.232500
  H    -50.007400    4.758450  -14.809500
  C    -48.582900    5.213040  -13.413300
  H    -48.262100    4.166050  -13.147100
  H    -47.878200    5.670330  -14.153100
  H    -48.449400    5.780920  -12.539100
  S    -48.905100    9.115420  -19.837200
  C    -49.956800    9.053810  -21.269900
  C    -51.266200    8.946260  -20.869800
  C    -51.495500    8.969900  -19.473000
  C    -50.296200    8.933100  -18.732200
  H    -52.081900    8.988870  -21.632500
  C    -52.905000    9.084150  -18.825900
  H    -52.924900    9.565580  -17.783900
  H    -53.317200    8.050020  -18.770500
  C    -53.852000    9.910490  -19.723100
  H    -53.897900    9.425980  -20.697100
  H    -53.395800   10.858400  -20.080700
  C    -55.274000   10.110700  -19.140600
  H    -55.347800   11.142900  -18.747100
  H    -55.551200    9.489380  -18.339900
  H    -56.012800    9.904260  -19.871100
  H    -48.150700    8.566230  -14.209900
  H    -49.706900    9.122860  -22.314700

 Total Charge           Charge          ....    0
 Multiplicity           Mult            ....    1
 Number of Electrons    NEL             ....  134
 Basis Dimension        Dim             ....  322

ORBITAL ENERGIES
----------------

  NO   OCC          E(Eh)            E(eV)
   0   2.0000     -88.969134     -2420.9732
   1   2.0000     -88.962372     -2420.7892
   2   2.0000     -10.334539      -281.2171
   3   2.0000     -10.327762      -281.0327
   4   2.0000     -10.320559      -280.8367
   5   2.0000     -10.320445      -280.8336
   6   2.0000     -10.309627      -280.5392
   7   2.0000     -10.308055      -280.4964
   8   2.0000     -10.305885      -280.4374
   9   2.0000     -10.299029      -280.2508
  10   2.0000     -10.297445      -280.2077
  11   2.0000     -10.297136      -280.1993
  12   2.0000     -10.289381      -279.9883
  13   2.0000     -10.279722      -279.7255
  14   2.0000     -10.275007      -279.5971
  15   2.0000     -10.272970      -279.5417
  16   2.0000      -8.082544      -219.9372
  17   2.0000      -8.077921      -219.8114
  18   2.0000      -6.041277      -164.3915
  19   2.0000      -6.037249      -164.2819
  20   2.0000      -6.036524      -164.2622
  21   2.0000      -6.033106      -164.1692
  22   2.0000      -6.032142      -164.1429
  23   2.0000      -6.028666      -164.0483
  24   2.0000      -1.009558       -27.4715
  25   2.0000      -0.983223       -26.7549
  26   2.0000      -0.912782       -24.8381
  27   2.0000      -0.904003       -24.5992
  28   2.0000      -0.875515       -23.8240
  29   2.0000      -0.850162       -23.1341
  30   2.0000      -0.841752       -22.9052
  31   2.0000      -0.817359       -22.2415
  32   2.0000      -0.781494       -21.2655
  33   2.0000      -0.774431       -21.0733
  34   2.0000      -0.709586       -19.3088
  35   2.0000      -0.704034       -19.1577
  36   2.0000      -0.697833       -18.9890
  37   2.0000      -0.652865       -17.7653
  38   2.0000      -0.643382       -17.5073
  39   2.0000      -0.614459       -16.7203
  40   2.0000      -0.596637       -16.2353
  41   2.0000      -0.571835       -15.5604
  42   2.0000      -0.560550       -15.2534
  43   2.0000      -0.550995       -14.9933
  44   2.0000      -0.536355       -14.5950
  45   2.0000      -0.524306       -14.2671
  46   2.0000      -0.518592       -14.1116
  47   2.0000      -0.514039       -13.9877
  48   2.0000      -0.509856       -13.8739
  49   2.0000      -0.496910       -13.5216
  50   2.0000      -0.489584       -13.3223
  51   2.0000      -0.483164       -13.1476
  52   2.0000      -0.477516       -12.9939
  53   2.0000      -0.465402       -12.6642
  54   2.0000      -0.462027       -12.5724
  55   2.0000      -0.452636       -12.3169
  56   2.0000      -0.440175       -11.9778
  57   2.0000      -0.435558       -11.8521
  58   2.0000      -0.430535       -11.7155
  59   2.0000      -0.423062       -11.5121
  60   2.0000      -0.417196       -11.3525
  61   2.0000      -0.410562       -11.1720
  62   2.0000      -0.405154       -11.0248
  63   2.0000      -0.361790        -9.8448
  64   2.0000      -0.334416        -9.0999
  65   2.0000      -0.327435        -8.9100
  66   2.0000      -0.287103        -7.8125
  67   0.0000       0.020663         0.5623
  68   0.0000       0.073681         2.0050
  69   0.0000       0.106906         2.9091
  70   0.0000       0.119136         3.2419
  71   0.0000       0.140356         3.8193

MULLIKEN ATOMIC CHARGES
-----------------------
   0 S :    0.084915
   1 C :   -0.109567
   2 C :   -0.081739
   3 C :   -0.015564
   4 C :   -0.131504
   5 H :    0.031111
   6 C :    0.031799
   7 H :    0.028079
   8 H :    0.034531
   9 C :   -0.017443
  10 H :    0.019947
  11 H :    0.021208
  12 C :   -0.071587
  13 H :    0.039896
  14 H :    0.039797
  15 H :    0.003650
  16 S :    0.103113
  17 C :   -0.081389
  18 C :   -0.055979
  19 C :   -0.047060
  20 C :   -0.132424
  21 H :    0.034530
  22 C :    0.041743
  23 H :    0.059233
  24 H :    0.048700
  25 C :   -0.132369
  26 H :    0.018985
  27 H :    0.036866
  28 C :   -0.000381
  29 H :    0.042389
  30 H :    0.015263
  31 H :    0.024260
  32 H :    0.062794
  33 H :    0.054197
Sum of atomic charges:   -0.0000000

LOEWDIN ATOMIC CHARGES
----------------------
   0 S :    0.407691
   1 C :   -0.192839
   2 C :   -0.068109
   3 C :   -0.071164
   4 C :   -0.200574
   5 H :    0.039381
   6 C :   -0.029905
   7 H :    0.036316
   8 H :    0.030507
   9 C :   -0.041293
  10 H :    0.021394
  11 H :    0.025136
  12 C :   -0.069866
  13 H :    0.031667
  14 H :    0.029198
  15 H :    0.010106
  16 S :    0.384478
  17 C :   -0.178805
  18 C :   -0.078423
  19 C :   -0.061091
  20 C :   -0.182668
  21 H :    0.037287
  22 C :   -0.035893
  23 H :    0.041127
  24 H :    0.035077
  25 C :   -0.050891
  26 H :    0.016995
  27 H :    0.028583
  28 C :   -0.061874
  29 H :    0.034731
  30 H :    0.019357
  31 H :    0.024669
  32 H :    0.036071
  33 H :    0.033623

  Mayer bond orders larger than 0.100000
B(  0-S ,  1-C ) :   1.1546 B(  0-S ,  4-C ) :   1.1244 B(  1-C ,  2-C ) :   1.5844
B(  1-C , 32-H ) :   0.9710 B(  2-C ,  3-C ) :   1.2575 B(  2-C ,  6-C ) :   1.0044
B(  3-C ,  4-C ) :   1.5960 B(  3-C ,  5-H ) :   0.9723 B(  4-C , 20-C ) :   1.0790
B(  6-C ,  7-H ) :   0.9425 B(  6-C ,  8-H ) :   0.9536 B(  6-C ,  9-C ) :   1.0711
B(  9-C , 10-H ) :   0.9535 B(  9-C , 11-H ) :   0.9516 B(  9-C , 12-C ) :   1.0857
B( 12-C , 13-H ) :   0.9718 B( 12-C , 14-H ) :   0.9731 B( 12-C , 15-H ) :   0.9736
B( 16-S , 17-C ) :   1.1366 B( 16-S , 20-C ) :   1.1293 B( 17-C , 18-C ) :   1.6229
B( 17-C , 20-C ) :   0.1030 B( 17-C , 33-H ) :   0.9667 B( 18-C , 19-C ) :   1.2625
B( 18-C , 21-H ) :   0.9722 B( 19-C , 20-C ) :   1.5789 B( 19-C , 22-C ) :   1.0237
B( 22-C , 23-H ) :   0.9477 B( 22-C , 24-H ) :   0.9271 B( 22-C , 25-C ) :   1.0651
B( 25-C , 26-H ) :   0.9519 B( 25-C , 27-H ) :   0.9642 B( 25-C , 28-C ) :   1.0636
B( 28-C , 29-H ) :   0.9768 B( 28-C , 30-H ) :   0.9764 B( 28-C , 31-H ) :   0.9757

Dispersion correction           -0.013449071
FINAL SINGLE POINT ENERGY     -1339.869369078740

DIPOLE MOMENT
-------------
                                X             Y             Z
Electronic contribution:     19.23505       9.74607     -10.76424
Nuclear contribution   :    -19.91409     -10.00651      10.86978
                        -----------------------------------------
Total Dipole Moment    :     -0.67903      -0.26043       0.10554
                        -----------------------------------------
Magnitude (a.u.)       :      0.73488
Magnitude (Debye)      :      1.86792

Rotational constants in cm-1:     0.019449     0.007501     0.006070
Rotational constants in MHz :   583.076704   224.876287   181.980522

                             ****ORCA TERMINATED NORMALLY****
TOTAL RUN TIME: 0 days 0 hours 0 minutes 20 seconds 820 msec
