                         Program Version 4.2.1 -  RELEASE  -
|  1> ! wB97X-D3 SP def2-SVP
|  2> %pal
|  3> nprocs 24
|  4> end
|  5>
|  6> * xyz 0 1
|  7> S 	 -6.51407 	 -32.2342 	 -109.467
|  8> C 	 -6.92928 	 -30.7194 	 -108.673
|  9> C 	 -8.26307 	 -30.608 	 -108.467
| 10> C 	 -9.00283 	 -31.6775 	 -109.089
| 11> C 	 -8.21581 	 -32.5911 	 -109.729
| 12> H 	 -10.092 	 -31.8244 	 -109.18
| 13> C 	 -8.92468 	 -29.4993 	 -107.63
| 14> H 	 -9.3518 	 -28.6669 	 -108.266
| 15> H 	 -8.12007 	 -29.042 	 -107
| 16> C 	 -10.0251 	 -29.7954 	 -106.589
| 17> H 	 -10.2302 	 -28.9277 	 -106.047
| 18> H 	 -11.0227 	 -30.0861 	 -106.987
| 19> C 	 -9.6032 	 -30.9073 	 -105.647
| 20> H 	 -8.87336 	 -30.6712 	 -104.877
| 21> H 	 -10.5112 	 -31.2318 	 -105.144
| 22> H 	 -9.31635 	 -31.7706 	 -106.19
| 23> S 	 -9.2949 	 -33.4929 	 -112.101
| 24> C 	 -9.58896 	 -35.2335 	 -112.364
| 25> C 	 -8.96274 	 -35.902 	 -111.383
| 26> C 	 -8.49362 	 -35.1602 	 -110.269
| 27> C 	 -8.64918 	 -33.7561 	 -110.472
| 28> H 	 -8.96219 	 -36.9722 	 -111.419
| 29> C 	 -7.93383 	 -35.9178 	 -109.059
| 30> H 	 -6.83898 	 -35.9468 	 -109.081
| 31> H 	 -8.18874 	 -37.0078 	 -109.138
| 32> C 	 -8.39376 	 -35.4338 	 -107.689
| 33> H 	 -7.96742 	 -34.3804 	 -107.533
| 34> H 	 -7.93404 	 -36.0024 	 -106.946
| 35> C 	 -9.92216 	 -35.4795 	 -107.483
| 36> H 	 -10.3592 	 -36.3354 	 -108.038
| 37> H 	 -10.4817 	 -34.6249 	 -107.801
| 38> H 	 -10.1449 	 -35.6615 	 -106.445
| 39> H 	 -6.20524 	 -30.0542 	 -108.205
| 40> H 	 -10.0956 	 -35.7289 	 -113.152
| 41> *
| 42>
| 43>                          ****END OF INPUT****

CARTESIAN COORDINATES (ANGSTROEM)
---------------------------------
  S     -6.514070  -32.234200  -109.467000
  C     -6.929280  -30.719400  -108.673000
  C     -8.263070  -30.608000  -108.467000
  C     -9.002830  -31.677500  -109.089000
  C     -8.215810  -32.591100  -109.729000
  H    -10.092000  -31.824400  -109.180000
  C     -8.924680  -29.499300  -107.630000
  H     -9.351800  -28.666900  -108.266000
  H     -8.120070  -29.042000  -107.000000
  C    -10.025100  -29.795400  -106.589000
  H    -10.230200  -28.927700  -106.047000
  H    -11.022700  -30.086100  -106.987000
  C     -9.603200  -30.907300  -105.647000
  H     -8.873360  -30.671200  -104.877000
  H    -10.511200  -31.231800  -105.144000
  H     -9.316350  -31.770600  -106.190000
  S     -9.294900  -33.492900  -112.101000
  C     -9.588960  -35.233500  -112.364000
  C     -8.962740  -35.902000  -111.383000
  C     -8.493620  -35.160200  -110.269000
  C     -8.649180  -33.756100  -110.472000
  H     -8.962190  -36.972200  -111.419000
  C     -7.933830  -35.917800  -109.059000
  H     -6.838980  -35.946800  -109.081000
  H     -8.188740  -37.007800  -109.138000
  C     -8.393760  -35.433800  -107.689000
  H     -7.967420  -34.380400  -107.533000
  H     -7.934040  -36.002400  -106.946000
  C     -9.922160  -35.479500  -107.483000
  H    -10.359200  -36.335400  -108.038000
  H    -10.481700  -34.624900  -107.801000
  H    -10.144900  -35.661500  -106.445000
  H     -6.205240  -30.054200  -108.205000
  H    -10.095600  -35.728900  -113.152000

 Total Charge           Charge          ....    0
 Multiplicity           Mult            ....    1
 Number of Electrons    NEL             ....  134
 Basis Dimension        Dim             ....  322

ORBITAL ENERGIES
----------------

  NO   OCC          E(Eh)            E(eV)
   0   2.0000     -88.966031     -2420.8888
   1   2.0000     -88.963961     -2420.8325
   2   2.0000     -10.331808      -281.1428
   3   2.0000     -10.328797      -281.0609
   4   2.0000     -10.315408      -280.6965
   5   2.0000     -10.313786      -280.6524
   6   2.0000     -10.308236      -280.5014
   7   2.0000     -10.304998      -280.4133
   8   2.0000     -10.300610      -280.2938
   9   2.0000     -10.297748      -280.2160
  10   2.0000     -10.294926      -280.1392
  11   2.0000     -10.286206      -279.9019
  12   2.0000     -10.284726      -279.8616
  13   2.0000     -10.282220      -279.7934
  14   2.0000     -10.270750      -279.4813
  15   2.0000     -10.267302      -279.3875
  16   2.0000      -8.080472      -219.8808
  17   2.0000      -8.077755      -219.8069
  18   2.0000      -6.039039      -164.3306
  19   2.0000      -6.036413      -164.2591
  20   2.0000      -6.035108      -164.2236
  21   2.0000      -6.032368      -164.1491
  22   2.0000      -6.031080      -164.1140
  23   2.0000      -6.028416      -164.0415
  24   2.0000      -1.005544       -27.3622
  25   2.0000      -0.983231       -26.7551
  26   2.0000      -0.910257       -24.7693
  27   2.0000      -0.903769       -24.5928
  28   2.0000      -0.875539       -23.8246
  29   2.0000      -0.846080       -23.0230
  30   2.0000      -0.839283       -22.8381
  31   2.0000      -0.818528       -22.2733
  32   2.0000      -0.783083       -21.3088
  33   2.0000      -0.773605       -21.0509
  34   2.0000      -0.715588       -19.4721
  35   2.0000      -0.696736       -18.9591
  36   2.0000      -0.687651       -18.7119
  37   2.0000      -0.659872       -17.9560
  38   2.0000      -0.640201       -17.4208
  39   2.0000      -0.616262       -16.7693
  40   2.0000      -0.588706       -16.0195
  41   2.0000      -0.568632       -15.4733
  42   2.0000      -0.552451       -15.0329
  43   2.0000      -0.550051       -14.9676
  44   2.0000      -0.548029       -14.9126
  45   2.0000      -0.544988       -14.8299
  46   2.0000      -0.514556       -14.0018
  47   2.0000      -0.507783       -13.8175
  48   2.0000      -0.502773       -13.6812
  49   2.0000      -0.491785       -13.3822
  50   2.0000      -0.488348       -13.2886
  51   2.0000      -0.477843       -13.0028
  52   2.0000      -0.473912       -12.8958
  53   2.0000      -0.465225       -12.6594
  54   2.0000      -0.462218       -12.5776
  55   2.0000      -0.445702       -12.1282
  56   2.0000      -0.437300       -11.8995
  57   2.0000      -0.432502       -11.7690
  58   2.0000      -0.429375       -11.6839
  59   2.0000      -0.424205       -11.5432
  60   2.0000      -0.421295       -11.4640
  61   2.0000      -0.414526       -11.2798
  62   2.0000      -0.408068       -11.1041
  63   2.0000      -0.337066        -9.1720
  64   2.0000      -0.335091        -9.1183
  65   2.0000      -0.323916        -8.8142
  66   2.0000      -0.305775        -8.3206
  67   0.0000       0.032186         0.8758
  68   0.0000       0.060559         1.6479
  69   0.0000       0.111270         3.0278
  70   0.0000       0.113289         3.0828
  71   0.0000       0.130916         3.5624

MULLIKEN ATOMIC CHARGES
-----------------------
   0 S :    0.114070
   1 C :   -0.124586
   2 C :   -0.064946
   3 C :    0.040647
   4 C :   -0.176457
   5 H :    0.026205
   6 C :    0.032582
   7 H :    0.053562
   8 H :    0.022086
   9 C :   -0.055693
  10 H :    0.017016
  11 H :    0.025848
  12 C :   -0.044283
  13 H :    0.034165
  14 H :    0.018655
  15 H :    0.028347
  16 S :    0.101267
  17 C :   -0.072389
  18 C :   -0.036489
  19 C :    0.003744
  20 C :   -0.184862
  21 H :    0.009871
  22 C :    0.033405
  23 H :    0.039952
  24 H :    0.021661
  25 C :   -0.060850
  26 H :    0.045259
  27 H :    0.012255
  28 C :   -0.033958
  29 H :    0.021223
  30 H :    0.031899
  31 H :    0.025946
  32 H :    0.050761
  33 H :    0.044088
Sum of atomic charges:    0.0000000

LOEWDIN ATOMIC CHARGES
----------------------
   0 S :    0.395470
   1 C :   -0.185647
   2 C :   -0.068164
   3 C :   -0.057534
   4 C :   -0.197320
   5 H :    0.038930
   6 C :   -0.038097
   7 H :    0.039122
   8 H :    0.033118
   9 C :   -0.040112
  10 H :    0.019612
  11 H :    0.025008
  12 C :   -0.064936
  13 H :    0.024068
  14 H :    0.026568
  15 H :    0.021166
  16 S :    0.389053
  17 C :   -0.168933
  18 C :   -0.072312
  19 C :   -0.052199
  20 C :   -0.197241
  21 H :    0.027182
  22 C :   -0.036326
  23 H :    0.034517
  24 H :    0.031189
  25 C :   -0.042827
  26 H :    0.031573
  27 H :    0.016201
  28 C :   -0.065305
  29 H :    0.027561
  30 H :    0.021914
  31 H :    0.024310
  32 H :    0.031634
  33 H :    0.028758

  Mayer bond orders larger than 0.100000
B(  0-S ,  1-C ) :   1.1290 B(  0-S ,  4-C ) :   1.1267 B(  1-C ,  2-C ) :   1.6583
B(  1-C , 32-H ) :   0.9617 B(  2-C ,  3-C ) :   1.1920 B(  2-C ,  6-C ) :   1.0152
B(  3-C ,  4-C ) :   1.6225 B(  3-C ,  5-H ) :   0.9895 B(  4-C , 20-C ) :   1.0417
B(  6-C ,  7-H ) :   0.9393 B(  6-C ,  8-H ) :   0.9447 B(  6-C ,  9-C ) :   1.0773
B(  9-C , 10-H ) :   0.9522 B(  9-C , 11-H ) :   0.9525 B(  9-C , 12-C ) :   1.0841
B( 12-C , 13-H ) :   0.9763 B( 12-C , 14-H ) :   0.9711 B( 12-C , 15-H ) :   0.9721
B( 16-S , 17-C ) :   1.1331 B( 16-S , 20-C ) :   1.1495 B( 17-C , 18-C ) :   1.6261
B( 17-C , 20-C ) :   0.1054 B( 17-C , 33-H ) :   0.9714 B( 18-C , 19-C ) :   1.2575
B( 18-C , 21-H ) :   0.9833 B( 19-C , 20-C ) :   1.5544 B( 19-C , 22-C ) :   1.0288
B( 22-C , 23-H ) :   0.9301 B( 22-C , 24-H ) :   0.9397 B( 22-C , 25-C ) :   1.0948
B( 25-C , 26-H ) :   0.9460 B( 25-C , 27-H ) :   0.9529 B( 25-C , 28-C ) :   1.0663
B( 28-C , 29-H ) :   0.9759 B( 28-C , 30-H ) :   0.9742 B( 28-C , 31-H ) :   0.9774

Dispersion correction           -0.016048141
FINAL SINGLE POINT ENERGY     -1339.880462972449

DIPOLE MOMENT
-------------
                                X             Y             Z
Electronic contribution:      9.40982       0.70087     -23.99248
Nuclear contribution   :     -9.62628      -0.86030      24.50305
                        -----------------------------------------
Total Dipole Moment    :     -0.21646      -0.15942       0.51057
                        -----------------------------------------
Magnitude (a.u.)       :      0.57702
Magnitude (Debye)      :      1.46667

Rotational constants in cm-1:     0.019950     0.009273     0.008115
Rotational constants in MHz :   598.091872   277.994344   243.283775

                             ****ORCA TERMINATED NORMALLY****
TOTAL RUN TIME: 0 days 0 hours 0 minutes 21 seconds 627 msec
