                         Program Version 4.2.1 -  RELEASE  -
|  1> ! wB97X-D3 SP def2-SVP
|  2> %pal
|  3> nprocs 24
|  4> end
|  5>
|  6> * xyz 0 1
|  7> S 	 -116.245 	 35.1859 	 -121.495
|  8> C 	 -115.426 	 33.7077 	 -121.014
|  9> C 	 -115.886 	 33.2613 	 -119.77
| 10> C 	 -117.011 	 34.0172 	 -119.328
| 11> C 	 -117.317 	 35.122 	 -120.093
| 12> H 	 -117.585 	 33.7777 	 -118.521
| 13> C 	 -115.416 	 32.0235 	 -118.992
| 14> H 	 -115.122 	 32.3793 	 -118.024
| 15> H 	 -114.53 	 31.662 	 -119.436
| 16> C 	 -116.392 	 30.8431 	 -118.95
| 17> H 	 -117.334 	 31.2156 	 -118.574
| 18> H 	 -116.642 	 30.5347 	 -119.966
| 19> C 	 -116.011 	 29.7018 	 -118.066
| 20> H 	 -114.941 	 29.4492 	 -118.294
| 21> H 	 -116.022 	 29.9957 	 -117.044
| 22> H 	 -116.663 	 28.7454 	 -118.223
| 23> S 	 -119.04 	 36.9202 	 -121.295
| 24> C 	 -120.092 	 37.9053 	 -120.369
| 25> C 	 -119.905 	 37.6601 	 -119.062
| 26> C 	 -119.007 	 36.6124 	 -118.743
| 27> C 	 -118.381 	 36.1103 	 -119.884
| 28> H 	 -120.613 	 38.2279 	 -118.28
| 29> C 	 -118.673 	 36.2549 	 -117.277
| 30> H 	 -118.653 	 37.2176 	 -116.559
| 31> H 	 -117.691 	 35.8242 	 -117.147
| 32> C 	 -119.621 	 35.3308 	 -116.544
| 33> H 	 -119.726 	 34.4731 	 -117.186
| 34> H 	 -120.578 	 35.8267 	 -116.377
| 35> C 	 -118.964 	 34.7142 	 -115.255
| 36> H 	 -119.656 	 34.1807 	 -114.655
| 37> H 	 -118.4 	 35.3874 	 -114.575
| 38> H 	 -118.246 	 34.0481 	 -115.556
| 39> H 	 -114.576 	 33.2571 	 -121.504
| 40> H 	 -120.707 	 38.7238 	 -120.701
| 41> *
| 42>
| 43>                          ****END OF INPUT****

CARTESIAN COORDINATES (ANGSTROEM)
---------------------------------
  S    -116.245000   35.185900  -121.495000
  C    -115.426000   33.707700  -121.014000
  C    -115.886000   33.261300  -119.770000
  C    -117.011000   34.017200  -119.328000
  C    -117.317000   35.122000  -120.093000
  H    -117.585000   33.777700  -118.521000
  C    -115.416000   32.023500  -118.992000
  H    -115.122000   32.379300  -118.024000
  H    -114.530000   31.662000  -119.436000
  C    -116.392000   30.843100  -118.950000
  H    -117.334000   31.215600  -118.574000
  H    -116.642000   30.534700  -119.966000
  C    -116.011000   29.701800  -118.066000
  H    -114.941000   29.449200  -118.294000
  H    -116.022000   29.995700  -117.044000
  H    -116.663000   28.745400  -118.223000
  S    -119.040000   36.920200  -121.295000
  C    -120.092000   37.905300  -120.369000
  C    -119.905000   37.660100  -119.062000
  C    -119.007000   36.612400  -118.743000
  C    -118.381000   36.110300  -119.884000
  H    -120.613000   38.227900  -118.280000
  C    -118.673000   36.254900  -117.277000
  H    -118.653000   37.217600  -116.559000
  H    -117.691000   35.824200  -117.147000
  C    -119.621000   35.330800  -116.544000
  H    -119.726000   34.473100  -117.186000
  H    -120.578000   35.826700  -116.377000
  C    -118.964000   34.714200  -115.255000
  H    -119.656000   34.180700  -114.655000
  H    -118.400000   35.387400  -114.575000
  H    -118.246000   34.048100  -115.556000
  H    -114.576000   33.257100  -121.504000
  H    -120.707000   38.723800  -120.701000

 Total Charge           Charge          ....    0
 Multiplicity           Mult            ....    1
 Number of Electrons    NEL             ....  134
 Basis Dimension        Dim             ....  322

ORBITAL ENERGIES
----------------

  NO   OCC          E(Eh)            E(eV)
   0   2.0000     -88.969643     -2420.9871
   1   2.0000     -88.965655     -2420.8785
   2   2.0000     -10.335134      -281.2333
   3   2.0000     -10.334243      -281.2090
   4   2.0000     -10.318647      -280.7847
   5   2.0000     -10.312636      -280.6211
   6   2.0000     -10.308521      -280.5091
   7   2.0000     -10.305211      -280.4191
   8   2.0000     -10.301161      -280.3088
   9   2.0000     -10.299132      -280.2536
  10   2.0000     -10.291097      -280.0350
  11   2.0000     -10.288675      -279.9691
  12   2.0000     -10.287689      -279.9422
  13   2.0000     -10.286730      -279.9162
  14   2.0000     -10.284031      -279.8427
  15   2.0000     -10.275278      -279.6045
  16   2.0000      -8.083774      -219.9707
  17   2.0000      -8.081198      -219.9006
  18   2.0000      -6.042412      -164.4224
  19   2.0000      -6.039740      -164.3497
  20   2.0000      -6.038311      -164.3108
  21   2.0000      -6.035482      -164.2338
  22   2.0000      -6.034484      -164.2067
  23   2.0000      -6.031968      -164.1382
  24   2.0000      -1.011789       -27.5322
  25   2.0000      -0.988201       -26.8903
  26   2.0000      -0.916271       -24.9330
  27   2.0000      -0.910197       -24.7677
  28   2.0000      -0.873385       -23.7660
  29   2.0000      -0.855190       -23.2709
  30   2.0000      -0.846598       -23.0371
  31   2.0000      -0.819265       -22.2933
  32   2.0000      -0.785002       -21.3610
  33   2.0000      -0.776078       -21.1182
  34   2.0000      -0.710742       -19.3403
  35   2.0000      -0.699488       -19.0340
  36   2.0000      -0.695658       -18.9298
  37   2.0000      -0.659080       -17.9345
  38   2.0000      -0.641662       -17.4605
  39   2.0000      -0.629640       -17.1334
  40   2.0000      -0.602102       -16.3840
  41   2.0000      -0.571033       -15.5386
  42   2.0000      -0.566566       -15.4170
  43   2.0000      -0.562750       -15.3132
  44   2.0000      -0.526293       -14.3212
  45   2.0000      -0.522056       -14.2059
  46   2.0000      -0.518670       -14.1137
  47   2.0000      -0.512415       -13.9435
  48   2.0000      -0.506841       -13.7918
  49   2.0000      -0.504618       -13.7314
  50   2.0000      -0.495315       -13.4782
  51   2.0000      -0.486361       -13.2346
  52   2.0000      -0.471292       -12.8245
  53   2.0000      -0.465639       -12.6707
  54   2.0000      -0.464199       -12.6315
  55   2.0000      -0.452963       -12.3257
  56   2.0000      -0.444916       -12.1068
  57   2.0000      -0.437583       -11.9072
  58   2.0000      -0.436170       -11.8688
  59   2.0000      -0.427982       -11.6460
  60   2.0000      -0.421678       -11.4744
  61   2.0000      -0.414555       -11.2806
  62   2.0000      -0.410891       -11.1809
  63   2.0000      -0.362001        -9.8506
  64   2.0000      -0.335228        -9.1220
  65   2.0000      -0.331909        -9.0317
  66   2.0000      -0.288864        -7.8604
  67   0.0000       0.021351         0.5810
  68   0.0000       0.083506         2.2723
  69   0.0000       0.104705         2.8492
  70   0.0000       0.119805         3.2601
  71   0.0000       0.124241         3.3808

MULLIKEN ATOMIC CHARGES
-----------------------
   0 S :    0.108743
   1 C :   -0.111047
   2 C :   -0.101503
   3 C :    0.038458
   4 C :   -0.105192
   5 H :   -0.044775
   6 C :    0.109870
   7 H :    0.021044
   8 H :   -0.004466
   9 C :   -0.060615
  10 H :    0.013229
  11 H :    0.028594
  12 C :   -0.059177
  13 H :    0.026615
  14 H :    0.027250
  15 H :    0.058205
  16 S :    0.098867
  17 C :   -0.073604
  18 C :   -0.079769
  19 C :   -0.004960
  20 C :   -0.137986
  21 H :    0.058022
  22 C :   -0.014614
  23 H :    0.044190
  24 H :    0.017559
  25 C :   -0.054926
  26 H :    0.024439
  27 H :    0.034639
  28 C :   -0.021930
  29 H :    0.029061
  30 H :    0.027709
  31 H :    0.004610
  32 H :    0.047724
  33 H :    0.055740
Sum of atomic charges:    0.0000000

LOEWDIN ATOMIC CHARGES
----------------------
   0 S :    0.397344
   1 C :   -0.194466
   2 C :   -0.055127
   3 C :   -0.056301
   4 C :   -0.178130
   5 H :    0.011250
   6 C :   -0.022959
   7 H :    0.028448
   8 H :    0.020839
   9 C :   -0.044690
  10 H :    0.018447
  11 H :    0.026858
  12 C :   -0.069535
  13 H :    0.025825
  14 H :    0.019512
  15 H :    0.042493
  16 S :    0.415238
  17 C :   -0.198828
  18 C :   -0.086835
  19 C :   -0.062793
  20 C :   -0.188705
  21 H :    0.051537
  22 C :   -0.039473
  23 H :    0.042418
  24 H :    0.022719
  25 C :   -0.036353
  26 H :    0.020289
  27 H :    0.022176
  28 C :   -0.058750
  29 H :    0.023499
  30 H :    0.027357
  31 H :    0.012298
  32 H :    0.029186
  33 H :    0.035210

  Mayer bond orders larger than 0.100000
B(  0-S ,  1-C ) :   1.1333 B(  0-S ,  4-C ) :   1.1412 B(  1-C ,  2-C ) :   1.6110
B(  1-C , 32-H ) :   0.9660 B(  2-C ,  3-C ) :   1.2365 B(  2-C ,  6-C ) :   1.0307
B(  3-C ,  4-C ) :   1.5689 B(  3-C ,  5-H ) :   1.0085 B(  4-C , 20-C ) :   1.0671
B(  6-C ,  7-H ) :   0.9354 B(  6-C ,  8-H ) :   0.9311 B(  6-C ,  9-C ) :   1.0625
B(  9-C , 10-H ) :   0.9539 B(  9-C , 11-H ) :   0.9524 B(  9-C , 12-C ) :   1.0837
B( 12-C , 13-H ) :   0.9731 B( 12-C , 14-H ) :   0.9734 B( 12-C , 15-H ) :   0.9718
B( 16-S , 17-C ) :   1.1476 B( 16-S , 20-C ) :   1.1453 B( 17-C , 18-C ) :   1.6325
B( 17-C , 33-H ) :   0.9647 B( 18-C , 19-C ) :   1.2663 B( 18-C , 21-H ) :   0.9631
B( 19-C , 20-C ) :   1.5721 B( 19-C , 22-C ) :   1.0290 B( 22-C , 23-H ) :   0.9419
B( 22-C , 24-H ) :   0.9416 B( 22-C , 25-C ) :   1.0617 B( 25-C , 26-H ) :   0.9536
B( 25-C , 27-H ) :   0.9584 B( 25-C , 28-C ) :   1.0727 B( 28-C , 29-H ) :   0.9747
B( 28-C , 30-H ) :   0.9754 B( 28-C , 31-H ) :   0.9731

Dispersion correction           -0.013829455
FINAL SINGLE POINT ENERGY     -1339.870982644537

DIPOLE MOMENT
-------------
                                X             Y             Z
Electronic contribution:     -0.82030      20.67276     -26.32039
Nuclear contribution   :      0.78911     -20.98704      26.92577
                        -----------------------------------------
Total Dipole Moment    :     -0.03119      -0.31428       0.60538
                        -----------------------------------------
Magnitude (a.u.)       :      0.68281
Magnitude (Debye)      :      1.73557

Rotational constants in cm-1:     0.016866     0.009257     0.006364
Rotational constants in MHz :   505.630649   277.510257   190.788709

                             ****ORCA TERMINATED NORMALLY****
TOTAL RUN TIME: 0 days 0 hours 0 minutes 21 seconds 513 msec
