                         Program Version 4.2.1 -  RELEASE  -
|  1> ! wB97X-D3 SP def2-SVP
|  2> %pal
|  3> nprocs 24
|  4> end
|  5>
|  6> * xyz 0 1
|  7> S 	 -106.615 	 52.1052 	 -81.3593
|  8> C 	 -105.29 	 52.635 	 -82.3718
|  9> C 	 -105.385 	 52.1731 	 -83.6214
| 10> C 	 -106.367 	 51.1628 	 -83.6869
| 11> C 	 -107.032 	 50.92 	 -82.5316
| 12> H 	 -106.623 	 50.594 	 -84.5776
| 13> C 	 -104.535 	 52.7913 	 -84.7504
| 14> H 	 -103.63 	 53.1808 	 -84.3337
| 15> H 	 -104.992 	 53.7038 	 -85.2418
| 16> C 	 -104.2 	 51.8384 	 -85.9602
| 17> H 	 -103.54 	 51.0611 	 -85.6142
| 18> H 	 -105.036 	 51.2345 	 -86.2595
| 19> C 	 -103.648 	 52.5531 	 -87.2043
| 20> H 	 -103.369 	 51.8614 	 -87.9162
| 21> H 	 -104.52 	 53.0018 	 -87.728
| 22> H 	 -102.874 	 53.2813 	 -87.0205
| 23> S 	 -109.713 	 50.7401 	 -82.6643
| 24> C 	 -110.496 	 49.1337 	 -82.3252
| 25> C 	 -109.56 	 48.1211 	 -82.238
| 26> C 	 -108.212 	 48.5793 	 -82.2335
| 27> C 	 -108.148 	 49.9782 	 -82.3878
| 28> H 	 -109.962 	 47.1082 	 -82.1051
| 29> C 	 -107.074 	 47.637 	 -81.9282
| 30> H 	 -106.282 	 48.3692 	 -81.8622
| 31> H 	 -106.885 	 47.0418 	 -82.8294
| 32> C 	 -107.193 	 46.7861 	 -80.6815
| 33> H 	 -106.167 	 46.6065 	 -80.4336
| 34> H 	 -107.705 	 45.8388 	 -80.97
| 35> C 	 -107.955 	 47.3473 	 -79.4464
| 36> H 	 -109.056 	 47.3604 	 -79.6139
| 37> H 	 -107.648 	 48.3804 	 -79.2797
| 38> H 	 -107.716 	 46.8978 	 -78.4967
| 39> H 	 -104.486 	 53.2985 	 -82.1579
| 40> H 	 -111.559 	 48.8796 	 -82.3922
| 41> *
| 42>
| 43>                          ****END OF INPUT****

CARTESIAN COORDINATES (ANGSTROEM)
---------------------------------
  S    -106.615000   52.105200  -81.359300
  C    -105.290000   52.635000  -82.371800
  C    -105.385000   52.173100  -83.621400
  C    -106.367000   51.162800  -83.686900
  C    -107.032000   50.920000  -82.531600
  H    -106.623000   50.594000  -84.577600
  C    -104.535000   52.791300  -84.750400
  H    -103.630000   53.180800  -84.333700
  H    -104.992000   53.703800  -85.241800
  C    -104.200000   51.838400  -85.960200
  H    -103.540000   51.061100  -85.614200
  H    -105.036000   51.234500  -86.259500
  C    -103.648000   52.553100  -87.204300
  H    -103.369000   51.861400  -87.916200
  H    -104.520000   53.001800  -87.728000
  H    -102.874000   53.281300  -87.020500
  S    -109.713000   50.740100  -82.664300
  C    -110.496000   49.133700  -82.325200
  C    -109.560000   48.121100  -82.238000
  C    -108.212000   48.579300  -82.233500
  C    -108.148000   49.978200  -82.387800
  H    -109.962000   47.108200  -82.105100
  C    -107.074000   47.637000  -81.928200
  H    -106.282000   48.369200  -81.862200
  H    -106.885000   47.041800  -82.829400
  C    -107.193000   46.786100  -80.681500
  H    -106.167000   46.606500  -80.433600
  H    -107.705000   45.838800  -80.970000
  C    -107.955000   47.347300  -79.446400
  H    -109.056000   47.360400  -79.613900
  H    -107.648000   48.380400  -79.279700
  H    -107.716000   46.897800  -78.496700
  H    -104.486000   53.298500  -82.157900
  H    -111.559000   48.879600  -82.392200

 Total Charge           Charge          ....    0
 Multiplicity           Mult            ....    1
 Number of Electrons    NEL             ....  134
 Basis Dimension        Dim             ....  322

ORBITAL ENERGIES
----------------

  NO   OCC          E(Eh)            E(eV)
   0   2.0000     -88.965594     -2420.8769
   1   2.0000     -88.965012     -2420.8611
   2   2.0000     -10.328229      -281.0454
   3   2.0000     -10.321981      -280.8754
   4   2.0000     -10.319643      -280.8118
   5   2.0000     -10.304850      -280.4092
   6   2.0000     -10.304203      -280.3916
   7   2.0000     -10.300377      -280.2875
   8   2.0000     -10.294537      -280.1286
   9   2.0000     -10.293236      -280.0932
  10   2.0000     -10.288895      -279.9751
  11   2.0000     -10.287319      -279.9322
  12   2.0000     -10.287112      -279.9265
  13   2.0000     -10.284961      -279.8680
  14   2.0000     -10.275671      -279.6152
  15   2.0000     -10.275261      -279.6041
  16   2.0000      -8.080482      -219.8811
  17   2.0000      -8.079043      -219.8419
  18   2.0000      -6.038975      -164.3289
  19   2.0000      -6.037678      -164.2936
  20   2.0000      -6.035070      -164.2226
  21   2.0000      -6.033873      -164.1900
  22   2.0000      -6.031015      -164.1122
  23   2.0000      -6.029612      -164.0741
  24   2.0000      -1.012580       -27.5537
  25   2.0000      -0.980828       -26.6897
  26   2.0000      -0.908924       -24.7331
  27   2.0000      -0.904868       -24.6227
  28   2.0000      -0.872387       -23.7388
  29   2.0000      -0.847920       -23.0731
  30   2.0000      -0.840397       -22.8684
  31   2.0000      -0.817934       -22.2571
  32   2.0000      -0.785691       -21.3797
  33   2.0000      -0.774130       -21.0651
  34   2.0000      -0.715130       -19.4597
  35   2.0000      -0.697547       -18.9812
  36   2.0000      -0.689687       -18.7673
  37   2.0000      -0.655644       -17.8410
  38   2.0000      -0.642441       -17.4817
  39   2.0000      -0.619788       -16.8653
  40   2.0000      -0.585587       -15.9346
  41   2.0000      -0.570592       -15.5266
  42   2.0000      -0.558220       -15.1899
  43   2.0000      -0.556813       -15.1517
  44   2.0000      -0.539239       -14.6734
  45   2.0000      -0.528276       -14.3751
  46   2.0000      -0.520728       -14.1697
  47   2.0000      -0.501868       -13.6565
  48   2.0000      -0.499084       -13.5808
  49   2.0000      -0.495419       -13.4810
  50   2.0000      -0.487015       -13.2523
  51   2.0000      -0.484487       -13.1836
  52   2.0000      -0.469500       -12.7758
  53   2.0000      -0.461870       -12.5681
  54   2.0000      -0.457720       -12.4552
  55   2.0000      -0.451052       -12.2737
  56   2.0000      -0.443630       -12.0718
  57   2.0000      -0.439656       -11.9636
  58   2.0000      -0.436944       -11.8899
  59   2.0000      -0.426620       -11.6089
  60   2.0000      -0.416748       -11.3403
  61   2.0000      -0.413086       -11.2407
  62   2.0000      -0.411655       -11.2017
  63   2.0000      -0.338776        -9.2186
  64   2.0000      -0.329121        -8.9558
  65   2.0000      -0.322918        -8.7870
  66   2.0000      -0.304970        -8.2986
  67   0.0000       0.043880         1.1940
  68   0.0000       0.053361         1.4520
  69   0.0000       0.108180         2.9437
  70   0.0000       0.117248         3.1905
  71   0.0000       0.133336         3.6283

MULLIKEN ATOMIC CHARGES
-----------------------
   0 S :    0.122620
   1 C :   -0.107136
   2 C :   -0.049327
   3 C :    0.029009
   4 C :   -0.177944
   5 H :    0.010144
   6 C :    0.069913
   7 H :    0.013099
   8 H :    0.045950
   9 C :   -0.103506
  10 H :    0.022386
  11 H :    0.021852
  12 C :   -0.017146
  13 H :    0.013497
  14 H :    0.028626
  15 H :    0.039005
  16 S :    0.103155
  17 C :   -0.095218
  18 C :   -0.058792
  19 C :   -0.046067
  20 C :   -0.192157
  21 H :    0.029158
  22 C :    0.115103
  23 H :    0.017311
  24 H :    0.041391
  25 C :   -0.084799
  26 H :    0.032564
  27 H :    0.033664
  28 C :   -0.036774
  29 H :    0.040380
  30 H :    0.024122
  31 H :    0.033181
  32 H :    0.024958
  33 H :    0.057778
Sum of atomic charges:    0.0000000

LOEWDIN ATOMIC CHARGES
----------------------
   0 S :    0.415701
   1 C :   -0.183430
   2 C :   -0.069310
   3 C :   -0.059297
   4 C :   -0.219180
   5 H :    0.031308
   6 C :   -0.025649
   7 H :    0.024767
   8 H :    0.038805
   9 C :   -0.044293
  10 H :    0.019324
  11 H :    0.020213
  12 C :   -0.060440
  13 H :    0.018524
  14 H :    0.032247
  15 H :    0.024387
  16 S :    0.376420
  17 C :   -0.170935
  18 C :   -0.072914
  19 C :   -0.054123
  20 C :   -0.194662
  21 H :    0.036329
  22 C :   -0.033595
  23 H :    0.029501
  24 H :    0.039309
  25 C :   -0.041504
  26 H :    0.027751
  27 H :    0.026473
  28 C :   -0.069389
  29 H :    0.030209
  30 H :    0.026794
  31 H :    0.025456
  32 H :    0.023724
  33 H :    0.031480

  Mayer bond orders larger than 0.100000
B(  0-S ,  1-C ) :   1.1358 B(  0-S ,  4-C ) :   1.1442 B(  1-C ,  2-C ) :   1.6448
B(  1-C , 32-H ) :   0.9681 B(  2-C ,  3-C ) :   1.2295 B(  2-C ,  6-C ) :   1.0108
B(  3-C ,  4-C ) :   1.5972 B(  3-C ,  5-H ) :   1.0005 B(  4-C , 20-C ) :   1.0007
B(  6-C ,  7-H ) :   0.9382 B(  6-C ,  8-H ) :   0.9463 B(  6-C ,  9-C ) :   1.0490
B(  9-C , 10-H ) :   0.9591 B(  9-C , 11-H ) :   0.9554 B(  9-C , 12-C ) :   1.0908
B( 12-C , 13-H ) :   0.9683 B( 12-C , 14-H ) :   0.9711 B( 12-C , 15-H ) :   0.9780
B( 16-S , 17-C ) :   1.1215 B( 16-S , 20-C ) :   1.1516 B( 17-C , 18-C ) :   1.6600
B( 17-C , 20-C ) :   0.1032 B( 17-C , 33-H ) :   0.9619 B( 18-C , 19-C ) :   1.2012
B( 18-C , 21-H ) :   0.9824 B( 19-C , 20-C ) :   1.6186 B( 19-C , 22-C ) :   1.0371
B( 22-C , 23-H ) :   0.9255 B( 22-C , 24-H ) :   0.9286 B( 22-C , 25-C ) :   1.0655
B( 25-C , 26-H ) :   0.9558 B( 25-C , 27-H ) :   0.9519 B( 25-C , 28-C ) :   1.0920
B( 28-C , 29-H ) :   0.9674 B( 28-C , 30-H ) :   0.9711 B( 28-C , 31-H ) :   0.9742

Dispersion correction           -0.014193036
FINAL SINGLE POINT ENERGY     -1339.862124122297

DIPOLE MOMENT
-------------
                                X             Y             Z
Electronic contribution:    -14.55414       9.22673       8.64400
Nuclear contribution   :     14.88092      -9.55193      -9.03244
                        -----------------------------------------
Total Dipole Moment    :      0.32677      -0.32520      -0.38844
                        -----------------------------------------
Magnitude (a.u.)       :      0.60285
Magnitude (Debye)      :      1.53232

Rotational constants in cm-1:     0.021511     0.007046     0.006866
Rotational constants in MHz :   644.888315   211.242413   205.828362

                             ****ORCA TERMINATED NORMALLY****
TOTAL RUN TIME: 0 days 0 hours 0 minutes 21 seconds 207 msec
