                         Program Version 4.2.1 -  RELEASE  -
|  1> ! wB97X-D3 SP def2-SVP
|  2> %pal
|  3> nprocs 24
|  4> end
|  5>
|  6> * xyz 0 1
|  7> S 	 -126.182 	 62.9081 	 -57.1884
|  8> C 	 -125.073 	 64.1881 	 -57.5518
|  9> C 	 -124.19 	 63.819 	 -58.4821
| 10> C 	 -124.362 	 62.4696 	 -58.9481
| 11> C 	 -125.393 	 61.8105 	 -58.3306
| 12> H 	 -123.759 	 61.938 	 -59.7243
| 13> C 	 -123.112 	 64.6843 	 -59.1419
| 14> H 	 -123.413 	 65.7386 	 -59.2677
| 15> H 	 -122.994 	 64.256 	 -60.1426
| 16> C 	 -121.762 	 64.7193 	 -58.4395
| 17> H 	 -121.612 	 63.7024 	 -58.0153
| 18> H 	 -120.965 	 64.8648 	 -59.2492
| 19> C 	 -121.541 	 65.5458 	 -57.2471
| 20> H 	 -122.348 	 65.3654 	 -56.4937
| 21> H 	 -120.502 	 65.3456 	 -56.8522
| 22> H 	 -121.603 	 66.649 	 -57.5194
| 23> S 	 -126.951 	 59.9465 	 -59.5829
| 24> C 	 -126.777 	 58.2623 	 -59.0492
| 25> C 	 -125.785 	 58.0786 	 -58.0944
| 26> C 	 -125.182 	 59.3237 	 -57.7371
| 27> C 	 -125.733 	 60.4141 	 -58.3841
| 28> H 	 -125.522 	 57.1273 	 -57.7084
| 29> C 	 -124.104 	 59.5035 	 -56.6301
| 30> H 	 -124.639 	 59.808 	 -55.7051
| 31> H 	 -123.505 	 60.3783 	 -56.9855
| 32> C 	 -123.172 	 58.2692 	 -56.4344
| 33> H 	 -122.796 	 58.0393 	 -57.4436
| 34> H 	 -123.698 	 57.3697 	 -56.012
| 35> C 	 -121.966 	 58.6334 	 -55.4968
| 36> H 	 -122.338 	 59.202 	 -54.6269
| 37> H 	 -121.305 	 59.3295 	 -56.0145
| 38> H 	 -121.423 	 57.699 	 -55.0878
| 39> H 	 -125.09 	 65.1561 	 -57.1326
| 40> H 	 -127.248 	 57.4596 	 -59.5856
| 41> *
| 42>
| 43>                          ****END OF INPUT****

CARTESIAN COORDINATES (ANGSTROEM)
---------------------------------
  S    -126.182000   62.908100  -57.188400
  C    -125.073000   64.188100  -57.551800
  C    -124.190000   63.819000  -58.482100
  C    -124.362000   62.469600  -58.948100
  C    -125.393000   61.810500  -58.330600
  H    -123.759000   61.938000  -59.724300
  C    -123.112000   64.684300  -59.141900
  H    -123.413000   65.738600  -59.267700
  H    -122.994000   64.256000  -60.142600
  C    -121.762000   64.719300  -58.439500
  H    -121.612000   63.702400  -58.015300
  H    -120.965000   64.864800  -59.249200
  C    -121.541000   65.545800  -57.247100
  H    -122.348000   65.365400  -56.493700
  H    -120.502000   65.345600  -56.852200
  H    -121.603000   66.649000  -57.519400
  S    -126.951000   59.946500  -59.582900
  C    -126.777000   58.262300  -59.049200
  C    -125.785000   58.078600  -58.094400
  C    -125.182000   59.323700  -57.737100
  C    -125.733000   60.414100  -58.384100
  H    -125.522000   57.127300  -57.708400
  C    -124.104000   59.503500  -56.630100
  H    -124.639000   59.808000  -55.705100
  H    -123.505000   60.378300  -56.985500
  C    -123.172000   58.269200  -56.434400
  H    -122.796000   58.039300  -57.443600
  H    -123.698000   57.369700  -56.012000
  C    -121.966000   58.633400  -55.496800
  H    -122.338000   59.202000  -54.626900
  H    -121.305000   59.329500  -56.014500
  H    -121.423000   57.699000  -55.087800
  H    -125.090000   65.156100  -57.132600
  H    -127.248000   57.459600  -59.585600

 Total Charge           Charge          ....    0
 Multiplicity           Mult            ....    1
 Number of Electrons    NEL             ....  134
 Basis Dimension        Dim             ....  322

ORBITAL ENERGIES
----------------

  NO   OCC          E(Eh)            E(eV)
   0   2.0000     -88.965873     -2420.8845
   1   2.0000     -88.962267     -2420.7863
   2   2.0000     -10.326603      -281.0011
   3   2.0000     -10.322154      -280.8801
   4   2.0000     -10.320053      -280.8229
   5   2.0000     -10.308078      -280.4971
   6   2.0000     -10.305616      -280.4301
   7   2.0000     -10.298698      -280.2418
   8   2.0000     -10.298130      -280.2264
   9   2.0000     -10.297121      -280.1989
  10   2.0000     -10.296958      -280.1945
  11   2.0000     -10.295238      -280.1477
  12   2.0000     -10.293271      -280.0941
  13   2.0000     -10.288468      -279.9635
  14   2.0000     -10.287141      -279.9273
  15   2.0000     -10.286930      -279.9216
  16   2.0000      -8.080019      -219.8685
  17   2.0000      -8.077369      -219.7964
  18   2.0000      -6.038502      -164.3160
  19   2.0000      -6.035958      -164.2468
  20   2.0000      -6.034670      -164.2117
  21   2.0000      -6.031746      -164.1322
  22   2.0000      -6.030792      -164.1062
  23   2.0000      -6.028085      -164.0325
  24   2.0000      -1.007373       -27.4120
  25   2.0000      -0.983289       -26.7566
  26   2.0000      -0.914587       -24.8872
  27   2.0000      -0.899018       -24.4635
  28   2.0000      -0.874527       -23.7971
  29   2.0000      -0.848791       -23.0968
  30   2.0000      -0.844830       -22.9890
  31   2.0000      -0.815130       -22.1808
  32   2.0000      -0.782847       -21.3024
  33   2.0000      -0.767536       -20.8857
  34   2.0000      -0.704778       -19.1780
  35   2.0000      -0.698393       -19.0042
  36   2.0000      -0.683240       -18.5919
  37   2.0000      -0.656642       -17.8681
  38   2.0000      -0.645206       -17.5569
  39   2.0000      -0.617370       -16.7995
  40   2.0000      -0.591931       -16.1073
  41   2.0000      -0.573954       -15.6181
  42   2.0000      -0.566373       -15.4118
  43   2.0000      -0.551842       -15.0164
  44   2.0000      -0.535288       -14.5659
  45   2.0000      -0.523635       -14.2488
  46   2.0000      -0.518065       -14.0973
  47   2.0000      -0.509214       -13.8564
  48   2.0000      -0.506821       -13.7913
  49   2.0000      -0.496436       -13.5087
  50   2.0000      -0.484423       -13.1818
  51   2.0000      -0.479954       -13.0602
  52   2.0000      -0.470986       -12.8162
  53   2.0000      -0.467473       -12.7206
  54   2.0000      -0.457603       -12.4520
  55   2.0000      -0.453849       -12.3499
  56   2.0000      -0.442276       -12.0349
  57   2.0000      -0.436784       -11.8855
  58   2.0000      -0.429877       -11.6976
  59   2.0000      -0.427513       -11.6332
  60   2.0000      -0.416737       -11.3400
  61   2.0000      -0.412125       -11.2145
  62   2.0000      -0.403497       -10.9797
  63   2.0000      -0.336569        -9.1585
  64   2.0000      -0.332109        -9.0371
  65   2.0000      -0.323194        -8.7946
  66   2.0000      -0.312206        -8.4956
  67   0.0000       0.045354         1.2342
  68   0.0000       0.051665         1.4059
  69   0.0000       0.112449         3.0599
  70   0.0000       0.119768         3.2590
  71   0.0000       0.126753         3.4491

MULLIKEN ATOMIC CHARGES
-----------------------
   0 S :    0.107859
   1 C :   -0.103521
   2 C :   -0.089362
   3 C :    0.037758
   4 C :   -0.190713
   5 H :    0.031897
   6 C :    0.080767
   7 H :    0.023783
   8 H :    0.024320
   9 C :   -0.095282
  10 H :    0.020228
  11 H :    0.038547
  12 C :   -0.066964
  13 H :    0.039189
  14 H :    0.052403
  15 H :    0.028732
  16 S :    0.106253
  17 C :   -0.080701
  18 C :   -0.022355
  19 C :   -0.024139
  20 C :   -0.184944
  21 H :    0.007645
  22 C :    0.051583
  23 H :    0.052496
  24 H :    0.040049
  25 C :   -0.112956
  26 H :    0.038956
  27 H :    0.047260
  28 C :   -0.063864
  29 H :    0.032517
  30 H :    0.035351
  31 H :    0.053087
  32 H :    0.029402
  33 H :    0.054719
Sum of atomic charges:   -0.0000000

LOEWDIN ATOMIC CHARGES
----------------------
   0 S :    0.399588
   1 C :   -0.189826
   2 C :   -0.072809
   3 C :   -0.060182
   4 C :   -0.196250
   5 H :    0.041332
   6 C :   -0.031434
   7 H :    0.028670
   8 H :    0.034484
   9 C :   -0.059634
  10 H :    0.025810
  11 H :    0.030708
  12 C :   -0.075113
  13 H :    0.029187
  14 H :    0.037786
  15 H :    0.023371
  16 S :    0.391253
  17 C :   -0.167402
  18 C :   -0.066788
  19 C :   -0.048329
  20 C :   -0.206843
  21 H :    0.027253
  22 C :   -0.034377
  23 H :    0.037023
  24 H :    0.037298
  25 C :   -0.048059
  26 H :    0.026308
  27 H :    0.027135
  28 C :   -0.073173
  29 H :    0.025599
  30 H :    0.024033
  31 H :    0.036409
  32 H :    0.023088
  33 H :    0.023883

  Mayer bond orders larger than 0.100000
B(  0-S ,  1-C ) :   1.1290 B(  0-S ,  4-C ) :   1.1393 B(  1-C ,  2-C ) :   1.6484
B(  1-C , 32-H ) :   0.9726 B(  2-C ,  3-C ) :   1.2121 B(  2-C ,  6-C ) :   1.0174
B(  3-C ,  4-C ) :   1.6189 B(  3-C ,  5-H ) :   0.9886 B(  4-C , 20-C ) :   1.0089
B(  6-C ,  7-H ) :   0.9458 B(  6-C ,  8-H ) :   0.9351 B(  6-C ,  9-C ) :   1.0641
B(  9-C , 10-H ) :   0.9510 B(  9-C , 11-H ) :   0.9522 B(  9-C , 12-C ) :   1.0900
B( 12-C , 13-H ) :   0.9684 B( 12-C , 14-H ) :   0.9691 B( 12-C , 15-H ) :   0.9706
B( 16-S , 17-C ) :   1.1591 B( 16-S , 20-C ) :   1.1363 B( 17-C , 18-C ) :   1.6045
B( 17-C , 20-C ) :   0.1029 B( 17-C , 33-H ) :   0.9653 B( 18-C , 19-C ) :   1.2354
B( 18-C , 21-H ) :   0.9970 B( 19-C , 20-C ) :   1.6270 B( 19-C , 22-C ) :   1.0213
B( 22-C , 23-H ) :   0.9328 B( 22-C , 24-H ) :   0.9349 B( 22-C , 25-C ) :   1.0615
B( 25-C , 26-H ) :   0.9625 B( 25-C , 27-H ) :   0.9514 B( 25-C , 28-C ) :   1.0740
B( 28-C , 29-H ) :   0.9739 B( 28-C , 30-H ) :   0.9765 B( 28-C , 31-H ) :   0.9752

Dispersion correction           -0.014275537
FINAL SINGLE POINT ENERGY     -1339.887713534517

DIPOLE MOMENT
-------------
                                X             Y             Z
Electronic contribution:    -27.32438      -3.57156      -9.09968
Nuclear contribution   :     27.95145       3.46350       9.12505
                        -----------------------------------------
Total Dipole Moment    :      0.62706      -0.10806       0.02538
                        -----------------------------------------
Magnitude (a.u.)       :      0.63681
Magnitude (Debye)      :      1.61865

Rotational constants in cm-1:     0.017426     0.008748     0.006690
Rotational constants in MHz :   522.409206   262.247652   200.571960

                             ****ORCA TERMINATED NORMALLY****
TOTAL RUN TIME: 0 days 0 hours 0 minutes 21 seconds 268 msec
