                         Program Version 4.2.1 -  RELEASE  -
|  1> ! wB97X-D3 SP def2-SVP
|  2> %pal
|  3> nprocs 24
|  4> end
|  5>
|  6> * xyz 0 1
|  7> S 	 -115.123 	 33.9962 	 -14.9452
|  8> C 	 -114.884 	 32.986 	 -16.4305
|  9> C 	 -115.86 	 31.9694 	 -16.5065
| 10> C 	 -116.831 	 32.0514 	 -15.4363
| 11> C 	 -116.551 	 33.0413 	 -14.5283
| 12> H 	 -117.51 	 31.2601 	 -15.332
| 13> C 	 -115.876 	 30.9906 	 -17.6268
| 14> H 	 -115.818 	 29.9257 	 -17.228
| 15> H 	 -115.02 	 31.1045 	 -18.3137
| 16> C 	 -117.26 	 31.0317 	 -18.3555
| 17> H 	 -118.075 	 31.0293 	 -17.607
| 18> H 	 -117.327 	 31.9498 	 -18.9133
| 19> C 	 -117.481 	 29.7857 	 -19.3223
| 20> H 	 -117.211 	 28.8451 	 -18.8873
| 21> H 	 -118.527 	 29.6461 	 -19.6194
| 22> H 	 -116.858 	 29.9867 	 -20.1839
| 23> S 	 -116.77 	 32.9831 	 -11.7768
| 24> C 	 -118.4 	 32.8629 	 -11.161
| 25> C 	 -119.338 	 33.2795 	 -12.012
| 26> C 	 -118.782 	 33.4496 	 -13.3128
| 27> C 	 -117.389 	 33.3239 	 -13.3655
| 28> H 	 -120.412 	 33.2056 	 -11.7399
| 29> C 	 -119.767 	 33.6573 	 -14.5312
| 30> H 	 -120.822 	 33.6306 	 -14.122
| 31> H 	 -119.685 	 32.7782 	 -15.1597
| 32> C 	 -119.481 	 34.9149 	 -15.4477
| 33> H 	 -118.467 	 34.7552 	 -15.9093
| 34> H 	 -119.363 	 35.8112 	 -14.8153
| 35> C 	 -120.492 	 35.1841 	 -16.584
| 36> H 	 -121.462 	 35.4303 	 -16.2097
| 37> H 	 -120.559 	 34.2932 	 -17.1469
| 38> H 	 -120.243 	 35.9833 	 -17.3187
| 39> H 	 -114.046 	 33.1191 	 -17.0543
| 40> H 	 -118.593 	 32.7864 	 -10.1219
| 41> *
| 42>
| 43>                          ****END OF INPUT****

CARTESIAN COORDINATES (ANGSTROEM)
---------------------------------
  S    -115.123000   33.996200  -14.945200
  C    -114.884000   32.986000  -16.430500
  C    -115.860000   31.969400  -16.506500
  C    -116.831000   32.051400  -15.436300
  C    -116.551000   33.041300  -14.528300
  H    -117.510000   31.260100  -15.332000
  C    -115.876000   30.990600  -17.626800
  H    -115.818000   29.925700  -17.228000
  H    -115.020000   31.104500  -18.313700
  C    -117.260000   31.031700  -18.355500
  H    -118.075000   31.029300  -17.607000
  H    -117.327000   31.949800  -18.913300
  C    -117.481000   29.785700  -19.322300
  H    -117.211000   28.845100  -18.887300
  H    -118.527000   29.646100  -19.619400
  H    -116.858000   29.986700  -20.183900
  S    -116.770000   32.983100  -11.776800
  C    -118.400000   32.862900  -11.161000
  C    -119.338000   33.279500  -12.012000
  C    -118.782000   33.449600  -13.312800
  C    -117.389000   33.323900  -13.365500
  H    -120.412000   33.205600  -11.739900
  C    -119.767000   33.657300  -14.531200
  H    -120.822000   33.630600  -14.122000
  H    -119.685000   32.778200  -15.159700
  C    -119.481000   34.914900  -15.447700
  H    -118.467000   34.755200  -15.909300
  H    -119.363000   35.811200  -14.815300
  C    -120.492000   35.184100  -16.584000
  H    -121.462000   35.430300  -16.209700
  H    -120.559000   34.293200  -17.146900
  H    -120.243000   35.983300  -17.318700
  H    -114.046000   33.119100  -17.054300
  H    -118.593000   32.786400  -10.121900

 Total Charge           Charge          ....    0
 Multiplicity           Mult            ....    1
 Number of Electrons    NEL             ....  134
 Basis Dimension        Dim             ....  322

ORBITAL ENERGIES
----------------

  NO   OCC          E(Eh)            E(eV)
   0   2.0000     -88.966826     -2420.9104
   1   2.0000     -88.964260     -2420.8406
   2   2.0000     -10.333537      -281.1898
   3   2.0000     -10.324612      -280.9470
   4   2.0000     -10.317932      -280.7652
   5   2.0000     -10.310400      -280.5602
   6   2.0000     -10.308603      -280.5113
   7   2.0000     -10.306082      -280.4428
   8   2.0000     -10.300965      -280.3035
   9   2.0000     -10.300760      -280.2979
  10   2.0000     -10.294047      -280.1153
  11   2.0000     -10.293756      -280.1073
  12   2.0000     -10.292649      -280.0772
  13   2.0000     -10.288686      -279.9694
  14   2.0000     -10.280846      -279.7560
  15   2.0000     -10.272568      -279.5308
  16   2.0000      -8.080342      -219.8773
  17   2.0000      -8.079663      -219.8588
  18   2.0000      -6.038929      -164.3276
  19   2.0000      -6.038109      -164.3053
  20   2.0000      -6.035078      -164.2228
  21   2.0000      -6.034158      -164.1978
  22   2.0000      -6.031054      -164.1133
  23   2.0000      -6.030364      -164.0945
  24   2.0000      -1.006845       -27.3977
  25   2.0000      -0.979985       -26.6668
  26   2.0000      -0.908676       -24.7263
  27   2.0000      -0.892466       -24.2852
  28   2.0000      -0.869099       -23.6494
  29   2.0000      -0.847460       -23.0606
  30   2.0000      -0.843407       -22.9503
  31   2.0000      -0.816961       -22.2306
  32   2.0000      -0.779715       -21.2171
  33   2.0000      -0.767736       -20.8912
  34   2.0000      -0.711769       -19.3682
  35   2.0000      -0.697800       -18.9881
  36   2.0000      -0.687682       -18.7128
  37   2.0000      -0.658179       -17.9099
  38   2.0000      -0.642401       -17.4806
  39   2.0000      -0.628257       -17.0957
  40   2.0000      -0.592175       -16.1139
  41   2.0000      -0.566302       -15.4099
  42   2.0000      -0.562089       -15.2952
  43   2.0000      -0.553831       -15.0705
  44   2.0000      -0.522710       -14.2237
  45   2.0000      -0.516849       -14.0642
  46   2.0000      -0.514533       -14.0012
  47   2.0000      -0.508453       -13.8357
  48   2.0000      -0.504184       -13.7195
  49   2.0000      -0.498766       -13.5721
  50   2.0000      -0.487141       -13.2558
  51   2.0000      -0.483044       -13.1443
  52   2.0000      -0.473263       -12.8781
  53   2.0000      -0.466705       -12.6997
  54   2.0000      -0.455163       -12.3856
  55   2.0000      -0.452850       -12.3227
  56   2.0000      -0.448319       -12.1994
  57   2.0000      -0.435740       -11.8571
  58   2.0000      -0.428666       -11.6646
  59   2.0000      -0.424597       -11.5539
  60   2.0000      -0.417614       -11.3639
  61   2.0000      -0.417105       -11.3500
  62   2.0000      -0.413196       -11.2436
  63   2.0000      -0.346486        -9.4284
  64   2.0000      -0.330562        -8.9951
  65   2.0000      -0.326150        -8.8750
  66   2.0000      -0.298521        -8.1232
  67   0.0000       0.032125         0.8742
  68   0.0000       0.062892         1.7114
  69   0.0000       0.108553         2.9539
  70   0.0000       0.117203         3.1893
  71   0.0000       0.123488         3.3603

MULLIKEN ATOMIC CHARGES
-----------------------
   0 S :    0.094680
   1 C :   -0.120862
   2 C :   -0.079579
   3 C :    0.042937
   4 C :   -0.135562
   5 H :    0.008172
   6 C :    0.053477
   7 H :    0.038225
   8 H :    0.029187
   9 C :   -0.114444
  10 H :    0.032918
  11 H :    0.035348
  12 C :   -0.040252
  13 H :    0.023623
  14 H :    0.037374
  15 H :    0.034668
  16 S :    0.105114
  17 C :   -0.080159
  18 C :   -0.039945
  19 C :   -0.061414
  20 C :   -0.132119
  21 H :    0.040559
  22 C :    0.065753
  23 H :    0.024034
  24 H :    0.022566
  25 C :   -0.100784
  26 H :    0.048830
  27 H :    0.034600
  28 C :   -0.025797
  29 H :    0.021271
  30 H :    0.015309
  31 H :    0.040582
  32 H :    0.036416
  33 H :    0.045273
Sum of atomic charges:    0.0000000

LOEWDIN ATOMIC CHARGES
----------------------
   0 S :    0.369722
   1 C :   -0.175567
   2 C :   -0.053312
   3 C :   -0.055974
   4 C :   -0.180475
   5 H :    0.024809
   6 C :   -0.036185
   7 H :    0.037607
   8 H :    0.031490
   9 C :   -0.034928
  10 H :    0.021451
  11 H :    0.022394
  12 C :   -0.065335
  13 H :    0.019045
  14 H :    0.028208
  15 H :    0.025184
  16 S :    0.410645
  17 C :   -0.172394
  18 C :   -0.079346
  19 C :   -0.045011
  20 C :   -0.213836
  21 H :    0.043464
  22 C :   -0.030798
  23 H :    0.030571
  24 H :    0.025529
  25 C :   -0.044628
  26 H :    0.032045
  27 H :    0.022823
  28 C :   -0.065614
  29 H :    0.018679
  30 H :    0.018059
  31 H :    0.034003
  32 H :    0.016595
  33 H :    0.021077

  Mayer bond orders larger than 0.100000
B(  0-S ,  1-C ) :   1.1147 B(  0-S ,  4-C ) :   1.1410 B(  1-C ,  2-C ) :   1.6163
B(  1-C , 32-H ) :   0.9775 B(  2-C ,  3-C ) :   1.2208 B(  2-C ,  6-C ) :   1.0455
B(  3-C ,  4-C ) :   1.5965 B(  3-C ,  5-H ) :   0.9941 B(  4-C , 20-C ) :   1.0070
B(  6-C ,  7-H ) :   0.9345 B(  6-C ,  8-H ) :   0.9470 B(  6-C ,  9-C ) :   1.0381
B(  9-C , 10-H ) :   0.9624 B(  9-C , 11-H ) :   0.9603 B(  9-C , 12-C ) :   1.0689
B( 12-C , 13-H ) :   0.9776 B( 12-C , 14-H ) :   0.9774 B( 12-C , 15-H ) :   0.9784
B( 16-S , 17-C ) :   1.1670 B( 16-S , 20-C ) :   1.1371 B( 17-C , 18-C ) :   1.6367
B( 17-C , 33-H ) :   0.9597 B( 18-C , 19-C ) :   1.2456 B( 18-C , 21-H ) :   0.9822
B( 19-C , 20-C ) :   1.6055 B( 19-C , 22-C ) :   1.0240 B( 22-C , 23-H ) :   0.9444
B( 22-C , 24-H ) :   0.9317 B( 22-C , 25-C ) :   1.0490 B( 25-C , 26-H ) :   0.9535
B( 25-C , 27-H ) :   0.9631 B( 25-C , 28-C ) :   1.0783 B( 28-C , 29-H ) :   0.9767
B( 28-C , 30-H ) :   0.9742 B( 28-C , 31-H ) :   0.9748

Dispersion correction           -0.014641528
FINAL SINGLE POINT ENERGY     -1339.877552209089

DIPOLE MOMENT
-------------
                                X             Y             Z
Electronic contribution:     16.62305       6.27324      25.37845
Nuclear contribution   :    -17.10100      -6.69952     -25.78280
                        -----------------------------------------
Total Dipole Moment    :     -0.47795      -0.42628      -0.40435
                        -----------------------------------------
Magnitude (a.u.)       :      0.75740
Magnitude (Debye)      :      1.92515

Rotational constants in cm-1:     0.016576     0.009091     0.007440
Rotational constants in MHz :   496.940019   272.549945   223.057777

                             ****ORCA TERMINATED NORMALLY****
TOTAL RUN TIME: 0 days 0 hours 0 minutes 21 seconds 987 msec
