                         Program Version 4.2.1 -  RELEASE  -
|  1> ! wB97X-D3 SP def2-SVP
|  2> %pal
|  3> nprocs 24
|  4> end
|  5>
|  6> * xyz 0 1
|  7> S 	 -103.892 	 61.6359 	 -8.95188
|  8> C 	 -104.886 	 63.0714 	 -8.70344
|  9> C 	 -104.701 	 64.0028 	 -9.74666
| 10> C 	 -103.844 	 63.5152 	 -10.795
| 11> C 	 -103.348 	 62.2313 	 -10.4938
| 12> H 	 -103.641 	 63.9716 	 -11.7686
| 13> C 	 -105.315 	 65.3677 	 -9.88019
| 14> H 	 -104.388 	 65.9437 	 -9.90098
| 15> H 	 -105.884 	 65.6627 	 -8.95522
| 16> C 	 -106.181 	 65.5579 	 -11.1506
| 17> H 	 -105.771 	 65.0514 	 -12.0311
| 18> H 	 -107.214 	 65.1599 	 -11.0617
| 19> C 	 -106.288 	 67.0335 	 -11.4698
| 20> H 	 -105.243 	 67.3181 	 -11.5938
| 21> H 	 -106.773 	 67.1465 	 -12.4658
| 22> H 	 -106.728 	 67.7702 	 -10.7675
| 23> S 	 -103.264 	 59.8354 	 -11.6856
| 24> C 	 -102.202 	 59.545 	 -12.9584
| 25> C 	 -101.462 	 60.6351 	 -13.2384
| 26> C 	 -101.543 	 61.6894 	 -12.2791
| 27> C 	 -102.532 	 61.3957 	 -11.3657
| 28> H 	 -100.918 	 60.572 	 -14.0826
| 29> C 	 -100.863 	 62.975 	 -12.5228
| 30> H 	 -101.446 	 63.7061 	 -11.9908
| 31> H 	 -101.162 	 63.0433 	 -13.5925
| 32> C 	 -99.3032 	 62.9998 	 -12.3021
| 33> H 	 -98.901 	 64.0149 	 -12.6497
| 34> H 	 -98.7845 	 62.2159 	 -12.8332
| 35> C 	 -99.0749 	 62.861 	 -10.7524
| 36> H 	 -99.4879 	 61.9471 	 -10.31
| 37> H 	 -99.6526 	 63.742 	 -10.3139
| 38> H 	 -98.0557 	 62.9002 	 -10.3932
| 39> H 	 -105.427 	 63.3886 	 -7.78998
| 40> H 	 -102.248 	 58.7705 	 -13.6267
| 41> *
| 42>
| 43>                          ****END OF INPUT****

CARTESIAN COORDINATES (ANGSTROEM)
---------------------------------
  S    -103.892000   61.635900   -8.951880
  C    -104.886000   63.071400   -8.703440
  C    -104.701000   64.002800   -9.746660
  C    -103.844000   63.515200  -10.795000
  C    -103.348000   62.231300  -10.493800
  H    -103.641000   63.971600  -11.768600
  C    -105.315000   65.367700   -9.880190
  H    -104.388000   65.943700   -9.900980
  H    -105.884000   65.662700   -8.955220
  C    -106.181000   65.557900  -11.150600
  H    -105.771000   65.051400  -12.031100
  H    -107.214000   65.159900  -11.061700
  C    -106.288000   67.033500  -11.469800
  H    -105.243000   67.318100  -11.593800
  H    -106.773000   67.146500  -12.465800
  H    -106.728000   67.770200  -10.767500
  S    -103.264000   59.835400  -11.685600
  C    -102.202000   59.545000  -12.958400
  C    -101.462000   60.635100  -13.238400
  C    -101.543000   61.689400  -12.279100
  C    -102.532000   61.395700  -11.365700
  H    -100.918000   60.572000  -14.082600
  C    -100.863000   62.975000  -12.522800
  H    -101.446000   63.706100  -11.990800
  H    -101.162000   63.043300  -13.592500
  C    -99.303200   62.999800  -12.302100
  H    -98.901000   64.014900  -12.649700
  H    -98.784500   62.215900  -12.833200
  C    -99.074900   62.861000  -10.752400
  H    -99.487900   61.947100  -10.310000
  H    -99.652600   63.742000  -10.313900
  H    -98.055700   62.900200  -10.393200
  H    -105.427000   63.388600   -7.789980
  H    -102.248000   58.770500  -13.626700

 Total Charge           Charge          ....    0
 Multiplicity           Mult            ....    1
 Number of Electrons    NEL             ....  134
 Basis Dimension        Dim             ....  322

ORBITAL ENERGIES
----------------

  NO   OCC          E(Eh)            E(eV)
   0   2.0000     -88.968558     -2420.9575
   1   2.0000     -88.959624     -2420.7144
   2   2.0000     -10.331857      -281.1441
   3   2.0000     -10.321558      -280.8639
   4   2.0000     -10.315521      -280.6996
   5   2.0000     -10.303400      -280.3698
   6   2.0000     -10.301172      -280.3091
   7   2.0000     -10.300853      -280.3005
   8   2.0000     -10.300269      -280.2846
   9   2.0000     -10.297132      -280.1992
  10   2.0000     -10.297019      -280.1961
  11   2.0000     -10.293917      -280.1117
  12   2.0000     -10.291782      -280.0536
  13   2.0000     -10.280197      -279.7384
  14   2.0000     -10.279872      -279.7295
  15   2.0000     -10.277762      -279.6721
  16   2.0000      -8.082835      -219.9451
  17   2.0000      -8.076131      -219.7627
  18   2.0000      -6.041346      -164.3934
  19   2.0000      -6.037365      -164.2851
  20   2.0000      -6.034489      -164.2068
  21   2.0000      -6.033658      -164.1842
  22   2.0000      -6.030403      -164.0956
  23   2.0000      -6.026895      -164.0002
  24   2.0000      -1.013727       -27.5849
  25   2.0000      -0.984178       -26.7808
  26   2.0000      -0.914579       -24.8870
  27   2.0000      -0.911552       -24.8046
  28   2.0000      -0.871907       -23.7258
  29   2.0000      -0.851867       -23.1805
  30   2.0000      -0.846144       -23.0247
  31   2.0000      -0.813462       -22.1354
  32   2.0000      -0.780207       -21.2305
  33   2.0000      -0.768732       -20.9183
  34   2.0000      -0.710035       -19.3210
  35   2.0000      -0.701514       -19.0892
  36   2.0000      -0.696207       -18.9448
  37   2.0000      -0.665671       -18.1138
  38   2.0000      -0.635109       -17.2822
  39   2.0000      -0.622565       -16.9408
  40   2.0000      -0.596723       -16.2377
  41   2.0000      -0.567464       -15.4415
  42   2.0000      -0.561549       -15.2805
  43   2.0000      -0.551645       -15.0110
  44   2.0000      -0.540037       -14.6951
  45   2.0000      -0.527852       -14.3636
  46   2.0000      -0.517306       -14.0766
  47   2.0000      -0.510987       -13.9047
  48   2.0000      -0.506273       -13.7764
  49   2.0000      -0.496522       -13.5111
  50   2.0000      -0.489472       -13.3192
  51   2.0000      -0.478531       -13.0215
  52   2.0000      -0.470081       -12.7916
  53   2.0000      -0.458497       -12.4763
  54   2.0000      -0.454549       -12.3689
  55   2.0000      -0.451991       -12.2993
  56   2.0000      -0.441806       -12.0221
  57   2.0000      -0.441559       -12.0154
  58   2.0000      -0.437338       -11.9006
  59   2.0000      -0.427568       -11.6347
  60   2.0000      -0.424210       -11.5433
  61   2.0000      -0.417474       -11.3601
  62   2.0000      -0.410303       -11.1649
  63   2.0000      -0.348871        -9.4933
  64   2.0000      -0.328806        -8.9473
  65   2.0000      -0.326247        -8.8776
  66   2.0000      -0.288602        -7.8532
  67   0.0000       0.032286         0.8786
  68   0.0000       0.075350         2.0504
  69   0.0000       0.110080         2.9954
  70   0.0000       0.113727         3.0947
  71   0.0000       0.132917         3.6168

MULLIKEN ATOMIC CHARGES
-----------------------
   0 S :    0.119224
   1 C :   -0.123078
   2 C :   -0.102988
   3 C :    0.008790
   4 C :   -0.164610
   5 H :    0.031601
   6 C :    0.050048
   7 H :    0.038966
   8 H :    0.031060
   9 C :   -0.071863
  10 H :    0.033666
  11 H :    0.040104
  12 C :   -0.068170
  13 H :    0.017206
  14 H :    0.035986
  15 H :    0.045449
  16 S :    0.102019
  17 C :   -0.028867
  18 C :   -0.031840
  19 C :   -0.048927
  20 C :   -0.130010
  21 H :   -0.031221
  22 C :    0.050821
  23 H :    0.008931
  24 H :    0.039142
  25 C :   -0.044673
  26 H :    0.046284
  27 H :    0.036070
  28 C :   -0.084597
  29 H :    0.048091
  30 H :    0.037171
  31 H :    0.035952
  32 H :    0.055694
  33 H :    0.018568
Sum of atomic charges:   -0.0000000

LOEWDIN ATOMIC CHARGES
----------------------
   0 S :    0.408764
   1 C :   -0.218822
   2 C :   -0.058455
   3 C :   -0.074838
   4 C :   -0.192266
   5 H :    0.032569
   6 C :   -0.035821
   7 H :    0.036550
   8 H :    0.035554
   9 C :   -0.041071
  10 H :    0.027004
  11 H :    0.029270
  12 C :   -0.073294
  13 H :    0.021376
  14 H :    0.029256
  15 H :    0.028008
  16 S :    0.427468
  17 C :   -0.185625
  18 C :   -0.061517
  19 C :   -0.054651
  20 C :   -0.202941
  21 H :    0.010402
  22 C :   -0.034982
  23 H :    0.024413
  24 H :    0.042518
  25 C :   -0.032719
  26 H :    0.033429
  27 H :    0.020980
  28 C :   -0.072848
  29 H :    0.027869
  30 H :    0.033479
  31 H :    0.020857
  32 H :    0.036030
  33 H :    0.014057

  Mayer bond orders larger than 0.100000
B(  0-S ,  1-C ) :   1.1157 B(  0-S ,  4-C ) :   1.1745 B(  1-C ,  2-C ) :   1.6225
B(  1-C , 32-H ) :   0.9609 B(  2-C ,  3-C ) :   1.2363 B(  2-C ,  6-C ) :   1.0154
B(  3-C ,  4-C ) :   1.5650 B(  3-C ,  5-H ) :   0.9754 B(  4-C , 20-C ) :   1.0193
B(  6-C ,  7-H ) :   0.9431 B(  6-C ,  8-H ) :   0.9414 B(  6-C ,  9-C ) :   1.0541
B(  9-C , 10-H ) :   0.9587 B(  9-C , 11-H ) :   0.9537 B(  9-C , 12-C ) :   1.0717
B( 12-C , 13-H ) :   0.9773 B( 12-C , 14-H ) :   0.9723 B( 12-C , 15-H ) :   0.9765
B( 16-S , 17-C ) :   1.1567 B( 16-S , 20-C ) :   1.1492 B( 17-C , 18-C ) :   1.6358
B( 17-C , 33-H ) :   0.9725 B( 18-C , 19-C ) :   1.2170 B( 18-C , 21-H ) :   1.0067
B( 19-C , 20-C ) :   1.5852 B( 19-C , 22-C ) :   1.0217 B( 22-C , 23-H ) :   0.9363
B( 22-C , 24-H ) :   0.9346 B( 22-C , 25-C ) :   1.0543 B( 25-C , 26-H ) :   0.9585
B( 25-C , 27-H ) :   0.9611 B( 25-C , 28-C ) :   1.0542 B( 28-C , 29-H ) :   0.9774
B( 28-C , 30-H ) :   0.9767 B( 28-C , 31-H ) :   0.9777

Dispersion correction           -0.014234980
FINAL SINGLE POINT ENERGY     -1339.862233548189

DIPOLE MOMENT
-------------
                                X             Y             Z
Electronic contribution:     -4.05877     -24.57663       6.58446
Nuclear contribution   :      4.13586      25.12803      -7.09633
                        -----------------------------------------
Total Dipole Moment    :      0.07708       0.55140      -0.51187
                        -----------------------------------------
Magnitude (a.u.)       :      0.75631
Magnitude (Debye)      :      1.92238

Rotational constants in cm-1:     0.017920     0.008453     0.007360
Rotational constants in MHz :   537.219501   253.428801   220.654604

                             ****ORCA TERMINATED NORMALLY****
TOTAL RUN TIME: 0 days 0 hours 0 minutes 21 seconds 754 msec
