                         Program Version 4.2.1 -  RELEASE  -
|  1> ! wB97X-D3 SP def2-SVP
|  2> %pal
|  3> nprocs 24
|  4> end
|  5>
|  6> * xyz 0 1
|  7> S 	 -137.517 	 22.9026 	 -19.2321
|  8> C 	 -139.154 	 22.1643 	 -19.2174
|  9> C 	 -139.964 	 22.635 	 -18.231
| 10> C 	 -139.317 	 23.5965 	 -17.4294
| 11> C 	 -137.986 	 23.8475 	 -17.7703
| 12> H 	 -139.833 	 24.0757 	 -16.6106
| 13> C 	 -141.395 	 22.2964 	 -18.0239
| 14> H 	 -141.418 	 21.2724 	 -17.692
| 15> H 	 -141.719 	 22.159 	 -19.015
| 16> C 	 -142.398 	 23.262 	 -17.5444
| 17> H 	 -142.127 	 23.5439 	 -16.5575
| 18> H 	 -142.435 	 24.1153 	 -18.1989
| 19> C 	 -143.804 	 22.5754 	 -17.6064
| 20> H 	 -144.134 	 22.4291 	 -18.6399
| 21> H 	 -143.836 	 21.6063 	 -17.2057
| 22> H 	 -144.503 	 23.086 	 -16.9921
| 23> S 	 -136.405 	 25.9398 	 -18.4039
| 24> C 	 -135.773 	 26.9472 	 -17.1462
| 25> C 	 -136.096 	 26.4915 	 -15.8975
| 26> C 	 -136.989 	 25.3744 	 -15.9464
| 27> C 	 -137.192 	 24.9497 	 -17.2374
| 28> H 	 -135.635 	 26.9404 	 -14.9723
| 29> C 	 -137.507 	 24.7097 	 -14.6713
| 30> H 	 -136.696 	 24.1956 	 -14.1862
| 31> H 	 -138.204 	 23.8563 	 -14.8424
| 32> C 	 -138.244 	 25.6377 	 -13.75
| 33> H 	 -137.426 	 26.2278 	 -13.3554
| 34> H 	 -138.567 	 25.0545 	 -12.8988
| 35> C 	 -139.545 	 26.2236 	 -14.3619
| 36> H 	 -140.245 	 26.5632 	 -13.6124
| 37> H 	 -139.974 	 25.5264 	 -15.0831
| 38> H 	 -139.296 	 27.1168 	 -14.9815
| 39> H 	 -139.547 	 21.3849 	 -19.8694
| 40> H 	 -135.165 	 27.8158 	 -17.3792
| 41> *
| 42>
| 43>                          ****END OF INPUT****

CARTESIAN COORDINATES (ANGSTROEM)
---------------------------------
  S    -137.517000   22.902600  -19.232100
  C    -139.154000   22.164300  -19.217400
  C    -139.964000   22.635000  -18.231000
  C    -139.317000   23.596500  -17.429400
  C    -137.986000   23.847500  -17.770300
  H    -139.833000   24.075700  -16.610600
  C    -141.395000   22.296400  -18.023900
  H    -141.418000   21.272400  -17.692000
  H    -141.719000   22.159000  -19.015000
  C    -142.398000   23.262000  -17.544400
  H    -142.127000   23.543900  -16.557500
  H    -142.435000   24.115300  -18.198900
  C    -143.804000   22.575400  -17.606400
  H    -144.134000   22.429100  -18.639900
  H    -143.836000   21.606300  -17.205700
  H    -144.503000   23.086000  -16.992100
  S    -136.405000   25.939800  -18.403900
  C    -135.773000   26.947200  -17.146200
  C    -136.096000   26.491500  -15.897500
  C    -136.989000   25.374400  -15.946400
  C    -137.192000   24.949700  -17.237400
  H    -135.635000   26.940400  -14.972300
  C    -137.507000   24.709700  -14.671300
  H    -136.696000   24.195600  -14.186200
  H    -138.204000   23.856300  -14.842400
  C    -138.244000   25.637700  -13.750000
  H    -137.426000   26.227800  -13.355400
  H    -138.567000   25.054500  -12.898800
  C    -139.545000   26.223600  -14.361900
  H    -140.245000   26.563200  -13.612400
  H    -139.974000   25.526400  -15.083100
  H    -139.296000   27.116800  -14.981500
  H    -139.547000   21.384900  -19.869400
  H    -135.165000   27.815800  -17.379200

 Total Charge           Charge          ....    0
 Multiplicity           Mult            ....    1
 Number of Electrons    NEL             ....  134
 Basis Dimension        Dim             ....  322

ORBITAL ENERGIES
----------------

  NO   OCC          E(Eh)            E(eV)
   0   2.0000     -88.970316     -2421.0054
   1   2.0000     -88.963193     -2420.8116
   2   2.0000     -10.332455      -281.1604
   3   2.0000     -10.321458      -280.8611
   4   2.0000     -10.313253      -280.6379
   5   2.0000     -10.311283      -280.5843
   6   2.0000     -10.300349      -280.2867
   7   2.0000     -10.297006      -280.1958
   8   2.0000     -10.291718      -280.0519
   9   2.0000     -10.289039      -279.9790
  10   2.0000     -10.287108      -279.9264
  11   2.0000     -10.286841      -279.9192
  12   2.0000     -10.282388      -279.7980
  13   2.0000     -10.282261      -279.7946
  14   2.0000     -10.278343      -279.6879
  15   2.0000     -10.276461      -279.6367
  16   2.0000      -8.083079      -219.9518
  17   2.0000      -8.079091      -219.8432
  18   2.0000      -6.041783      -164.4053
  19   2.0000      -6.038056      -164.3038
  20   2.0000      -6.037433      -164.2869
  21   2.0000      -6.033573      -164.1819
  22   2.0000      -6.033516      -164.1803
  23   2.0000      -6.029874      -164.0812
  24   2.0000      -1.008279       -27.4367
  25   2.0000      -0.982389       -26.7322
  26   2.0000      -0.924069       -25.1452
  27   2.0000      -0.913276       -24.8515
  28   2.0000      -0.871106       -23.7040
  29   2.0000      -0.848729       -23.0951
  30   2.0000      -0.843961       -22.9653
  31   2.0000      -0.813248       -22.1296
  32   2.0000      -0.786164       -21.3926
  33   2.0000      -0.777554       -21.1583
  34   2.0000      -0.720655       -19.6100
  35   2.0000      -0.701114       -19.0783
  36   2.0000      -0.693864       -18.8810
  37   2.0000      -0.656390       -17.8613
  38   2.0000      -0.633459       -17.2373
  39   2.0000      -0.623886       -16.9768
  40   2.0000      -0.601719       -16.3736
  41   2.0000      -0.581197       -15.8152
  42   2.0000      -0.563169       -15.3246
  43   2.0000      -0.558718       -15.2035
  44   2.0000      -0.543498       -14.7893
  45   2.0000      -0.524778       -14.2799
  46   2.0000      -0.515265       -14.0211
  47   2.0000      -0.507093       -13.7987
  48   2.0000      -0.498107       -13.5542
  49   2.0000      -0.496179       -13.5017
  50   2.0000      -0.491551       -13.3758
  51   2.0000      -0.484831       -13.1929
  52   2.0000      -0.470067       -12.7912
  53   2.0000      -0.465829       -12.6758
  54   2.0000      -0.460325       -12.5261
  55   2.0000      -0.451066       -12.2741
  56   2.0000      -0.448758       -12.2113
  57   2.0000      -0.443000       -12.0546
  58   2.0000      -0.440492       -11.9864
  59   2.0000      -0.422957       -11.5093
  60   2.0000      -0.420020       -11.4293
  61   2.0000      -0.414764       -11.2863
  62   2.0000      -0.407090       -11.0775
  63   2.0000      -0.350602        -9.5404
  64   2.0000      -0.332772        -9.0552
  65   2.0000      -0.330464        -8.9924
  66   2.0000      -0.284267        -7.7353
  67   0.0000       0.029109         0.7921
  68   0.0000       0.072838         1.9820
  69   0.0000       0.107183         2.9166
  70   0.0000       0.125956         3.4274
  71   0.0000       0.134559         3.6615

MULLIKEN ATOMIC CHARGES
-----------------------
   0 S :    0.102869
   1 C :   -0.133281
   2 C :   -0.068954
   3 C :    0.029371
   4 C :   -0.117110
   5 H :   -0.028169
   6 C :    0.065883
   7 H :    0.030116
   8 H :   -0.006050
   9 C :   -0.032273
  10 H :    0.023554
  11 H :    0.037489
  12 C :   -0.018789
  13 H :    0.033824
  14 H :    0.009165
  15 H :    0.024805
  16 S :    0.109898
  17 C :   -0.104775
  18 C :   -0.044838
  19 C :   -0.035831
  20 C :   -0.153868
  21 H :    0.043664
  22 C :    0.037876
  23 H :    0.031017
  24 H :    0.015723
  25 C :   -0.063455
  26 H :    0.022838
  27 H :    0.020227
  28 C :   -0.033008
  29 H :    0.041341
  30 H :    0.022508
  31 H :    0.043658
  32 H :    0.036752
  33 H :    0.057822
Sum of atomic charges:   -0.0000000

LOEWDIN ATOMIC CHARGES
----------------------
   0 S :    0.366432
   1 C :   -0.190190
   2 C :   -0.063145
   3 C :   -0.060379
   4 C :   -0.170422
   5 H :    0.021665
   6 C :   -0.045014
   7 H :    0.035701
   8 H :    0.030239
   9 C :   -0.025194
  10 H :    0.014416
  11 H :    0.030649
  12 C :   -0.053113
  13 H :    0.029186
  14 H :    0.018504
  15 H :    0.023417
  16 S :    0.421345
  17 C :   -0.190970
  18 C :   -0.075361
  19 C :   -0.061332
  20 C :   -0.203327
  21 H :    0.042702
  22 C :   -0.034988
  23 H :    0.031288
  24 H :    0.028664
  25 C :   -0.044935
  26 H :    0.020706
  27 H :    0.023296
  28 C :   -0.062736
  29 H :    0.026816
  30 H :    0.024248
  31 H :    0.034670
  32 H :    0.029023
  33 H :    0.028139

  Mayer bond orders larger than 0.100000
B(  0-S ,  1-C ) :   1.1078 B(  0-S ,  4-C ) :   1.1337 B(  1-C ,  2-C ) :   1.6471
B(  1-C , 32-H ) :   0.9588 B(  2-C ,  3-C ) :   1.2649 B(  2-C ,  6-C ) :   0.9935
B(  3-C ,  4-C ) :   1.5565 B(  3-C ,  5-H ) :   0.9871 B(  4-C , 20-C ) :   1.0475
B(  6-C ,  7-H ) :   0.9223 B(  6-C ,  8-H ) :   0.9329 B(  6-C ,  9-C ) :   1.0735
B(  9-C , 10-H ) :   0.9467 B(  9-C , 11-H ) :   0.9557 B(  9-C , 12-C ) :   1.0845
B( 12-C , 13-H ) :   0.9749 B( 12-C , 14-H ) :   0.9733 B( 12-C , 15-H ) :   0.9724
B( 16-S , 17-C ) :   1.1573 B( 16-S , 20-C ) :   1.1472 B( 17-C , 18-C ) :   1.6131
B( 17-C , 33-H ) :   0.9694 B( 18-C , 19-C ) :   1.2310 B( 18-C , 21-H ) :   0.9814
B( 19-C , 20-C ) :   1.6127 B( 19-C , 22-C ) :   1.0301 B( 22-C , 23-H ) :   0.9371
B( 22-C , 24-H ) :   0.9378 B( 22-C , 25-C ) :   1.0859 B( 25-C , 26-H ) :   0.9585
B( 25-C , 27-H ) :   0.9538 B( 25-C , 28-C ) :   1.0526 B( 28-C , 29-H ) :   0.9745
B( 28-C , 30-H ) :   0.9766 B( 28-C , 31-H ) :   0.9694

Dispersion correction           -0.014666950
FINAL SINGLE POINT ENERGY     -1339.864961263037

DIPOLE MOMENT
-------------
                                X             Y             Z
Electronic contribution:     25.19461       1.29750     -17.01073
Nuclear contribution   :    -25.74717      -1.31649      17.48899
                        -----------------------------------------
Total Dipole Moment    :     -0.55256      -0.01899       0.47826
                        -----------------------------------------
Magnitude (a.u.)       :      0.73104
Magnitude (Debye)      :      1.85815

Rotational constants in cm-1:     0.018033     0.009421     0.006857
Rotational constants in MHz :   540.621884   282.439951   205.581687

                             ****ORCA TERMINATED NORMALLY****
TOTAL RUN TIME: 0 days 0 hours 0 minutes 22 seconds 76 msec
