                         Program Version 4.2.1 -  RELEASE  -
|  1> ! wB97X-D3 SP def2-SVP
|  2> %pal
|  3> nprocs 24
|  4> end
|  5>
|  6> * xyz 0 1
|  7> S 	 -73.8366 	 -0.693151 	 11.4799
|  8> C 	 -73.8901 	 0.746334 	 10.5841
|  9> C 	 -74.6 	 1.74229 	 11.2058
| 10> C 	 -75.1272 	 1.27615 	 12.427
| 11> C 	 -74.829 	 -0.0161894 	 12.7276
| 12> H 	 -75.6239 	 1.90534 	 13.1632
| 13> C 	 -74.9102 	 3.14527 	 10.6452
| 14> H 	 -75.7237 	 3.22894 	 9.92853
| 15> H 	 -74.061 	 3.36464 	 10.0477
| 16> C 	 -75.1745 	 4.32619 	 11.5781
| 17> H 	 -75.2649 	 5.30226 	 11.128
| 18> H 	 -76.25 	 4.2917 	 11.9522
| 19> C 	 -74.2381 	 4.59777 	 12.7901
| 20> H 	 -73.5659 	 3.77258 	 13.0817
| 21> H 	 -73.5221 	 5.39277 	 12.6139
| 22> H 	 -74.9565 	 4.86857 	 13.5844
| 23> S 	 -76.1657 	 -2.36537 	 13.2402
| 24> C 	 -76.894 	 -2.66842 	 14.7823
| 25> C 	 -76.5346 	 -1.66954 	 15.7401
| 26> C 	 -75.7927 	 -0.628194 	 15.1233
| 27> C 	 -75.396 	 -0.860591 	 13.8024
| 28> H 	 -76.7827 	 -1.79212 	 16.7981
| 29> C 	 -75.5447 	 0.638805 	 15.9125
| 30> H 	 -76.5919 	 0.976959 	 16.108
| 31> H 	 -75.1752 	 1.48482 	 15.3388
| 32> C 	 -74.946 	 0.538762 	 17.2716
| 33> H 	 -75.6454 	 0.0255609 	 17.9127
| 34> H 	 -74.8767 	 1.5201 	 17.6959
| 35> C 	 -73.5358 	 -0.19975 	 17.2062
| 36> H 	 -73.6829 	 -1.22976 	 16.9861
| 37> H 	 -73.0476 	 -0.257424 	 18.1859
| 38> H 	 -72.9143 	 0.254522 	 16.4383
| 39> H 	 -73.3936 	 0.926956 	 9.60734
| 40> H 	 -77.5182 	 -3.57547 	 14.9676
| 41> *
| 42>
| 43>                          ****END OF INPUT****

CARTESIAN COORDINATES (ANGSTROEM)
---------------------------------
  S    -73.836600   -0.693151   11.479900
  C    -73.890100    0.746334   10.584100
  C    -74.600000    1.742290   11.205800
  C    -75.127200    1.276150   12.427000
  C    -74.829000   -0.016189   12.727600
  H    -75.623900    1.905340   13.163200
  C    -74.910200    3.145270   10.645200
  H    -75.723700    3.228940    9.928530
  H    -74.061000    3.364640   10.047700
  C    -75.174500    4.326190   11.578100
  H    -75.264900    5.302260   11.128000
  H    -76.250000    4.291700   11.952200
  C    -74.238100    4.597770   12.790100
  H    -73.565900    3.772580   13.081700
  H    -73.522100    5.392770   12.613900
  H    -74.956500    4.868570   13.584400
  S    -76.165700   -2.365370   13.240200
  C    -76.894000   -2.668420   14.782300
  C    -76.534600   -1.669540   15.740100
  C    -75.792700   -0.628194   15.123300
  C    -75.396000   -0.860591   13.802400
  H    -76.782700   -1.792120   16.798100
  C    -75.544700    0.638805   15.912500
  H    -76.591900    0.976959   16.108000
  H    -75.175200    1.484820   15.338800
  C    -74.946000    0.538762   17.271600
  H    -75.645400    0.025561   17.912700
  H    -74.876700    1.520100   17.695900
  C    -73.535800   -0.199750   17.206200
  H    -73.682900   -1.229760   16.986100
  H    -73.047600   -0.257424   18.185900
  H    -72.914300    0.254522   16.438300
  H    -73.393600    0.926956    9.607340
  H    -77.518200   -3.575470   14.967600

 Total Charge           Charge          ....    0
 Multiplicity           Mult            ....    1
 Number of Electrons    NEL             ....  134
 Basis Dimension        Dim             ....  322

ORBITAL ENERGIES
----------------

  NO   OCC          E(Eh)            E(eV)
   0   2.0000     -88.967664     -2420.9332
   1   2.0000     -88.964971     -2420.8599
   2   2.0000     -10.329907      -281.0911
   3   2.0000     -10.326558      -280.9999
   4   2.0000     -10.326144      -280.9887
   5   2.0000     -10.311769      -280.5975
   6   2.0000     -10.306986      -280.4673
   7   2.0000     -10.300170      -280.2819
   8   2.0000     -10.299864      -280.2735
   9   2.0000     -10.292893      -280.0839
  10   2.0000     -10.291864      -280.0558
  11   2.0000     -10.288873      -279.9745
  12   2.0000     -10.287476      -279.9365
  13   2.0000     -10.284694      -279.8608
  14   2.0000     -10.278857      -279.7019
  15   2.0000     -10.273002      -279.5426
  16   2.0000      -8.083578      -219.9654
  17   2.0000      -8.079514      -219.8548
  18   2.0000      -6.041954      -164.4099
  19   2.0000      -6.037974      -164.3016
  20   2.0000      -6.037910      -164.2999
  21   2.0000      -6.034423      -164.2050
  22   2.0000      -6.033892      -164.1906
  23   2.0000      -6.030478      -164.0977
  24   2.0000      -1.012705       -27.5571
  25   2.0000      -0.985763       -26.8240
  26   2.0000      -0.912858       -24.8401
  27   2.0000      -0.907189       -24.6859
  28   2.0000      -0.866808       -23.5870
  29   2.0000      -0.850229       -23.1359
  30   2.0000      -0.841493       -22.8982
  31   2.0000      -0.812746       -22.1159
  32   2.0000      -0.786773       -21.4092
  33   2.0000      -0.777062       -21.1449
  34   2.0000      -0.710064       -19.3218
  35   2.0000      -0.697188       -18.9715
  36   2.0000      -0.688901       -18.7459
  37   2.0000      -0.659086       -17.9346
  38   2.0000      -0.639379       -17.3984
  39   2.0000      -0.624887       -17.0040
  40   2.0000      -0.598069       -16.2743
  41   2.0000      -0.565031       -15.3753
  42   2.0000      -0.552655       -15.0385
  43   2.0000      -0.548483       -14.9250
  44   2.0000      -0.537997       -14.6396
  45   2.0000      -0.535501       -14.5717
  46   2.0000      -0.523510       -14.2454
  47   2.0000      -0.510838       -13.9006
  48   2.0000      -0.500312       -13.6142
  49   2.0000      -0.497457       -13.5365
  50   2.0000      -0.489662       -13.3244
  51   2.0000      -0.480187       -13.0665
  52   2.0000      -0.475180       -12.9303
  53   2.0000      -0.464205       -12.6317
  54   2.0000      -0.457279       -12.4432
  55   2.0000      -0.446409       -12.1474
  56   2.0000      -0.445968       -12.1354
  57   2.0000      -0.437287       -11.8992
  58   2.0000      -0.430593       -11.7170
  59   2.0000      -0.430340       -11.7101
  60   2.0000      -0.420186       -11.4338
  61   2.0000      -0.411143       -11.1878
  62   2.0000      -0.399399       -10.8682
  63   2.0000      -0.351801        -9.5730
  64   2.0000      -0.332642        -9.0517
  65   2.0000      -0.327873        -8.9219
  66   2.0000      -0.287661        -7.8277
  67   0.0000       0.032776         0.8919
  68   0.0000       0.069504         1.8913
  69   0.0000       0.113798         3.0966
  70   0.0000       0.118957         3.2370
  71   0.0000       0.130599         3.5538

MULLIKEN ATOMIC CHARGES
-----------------------
   0 S :    0.126174
   1 C :   -0.136108
   2 C :   -0.090836
   3 C :    0.022185
   4 C :   -0.147827
   5 H :    0.008855
   6 C :    0.136267
   7 H :    0.040769
   8 H :    0.006963
   9 C :   -0.134082
  10 H :    0.024024
  11 H :    0.028232
  12 C :   -0.073628
  13 H :    0.045147
  14 H :    0.033687
  15 H :    0.039271
  16 S :    0.096688
  17 C :   -0.120336
  18 C :   -0.048496
  19 C :   -0.039791
  20 C :   -0.119665
  21 H :    0.034784
  22 C :    0.024301
  23 H :    0.034622
  24 H :    0.020259
  25 C :   -0.045952
  26 H :    0.016135
  27 H :    0.023815
  28 C :   -0.044181
  29 H :    0.030003
  30 H :    0.032394
  31 H :    0.041629
  32 H :    0.054969
  33 H :    0.079730
Sum of atomic charges:    0.0000000

LOEWDIN ATOMIC CHARGES
----------------------
   0 S :    0.437104
   1 C :   -0.216463
   2 C :   -0.067025
   3 C :   -0.064659
   4 C :   -0.201611
   5 H :    0.030142
   6 C :   -0.030871
   7 H :    0.038436
   8 H :    0.025186
   9 C :   -0.056410
  10 H :    0.028914
  11 H :    0.026689
  12 C :   -0.077213
  13 H :    0.028066
  14 H :    0.023444
  15 H :    0.032869
  16 S :    0.405888
  17 C :   -0.192291
  18 C :   -0.077337
  19 C :   -0.053381
  20 C :   -0.195941
  21 H :    0.036024
  22 C :   -0.041270
  23 H :    0.041782
  24 H :    0.025463
  25 C :   -0.035356
  26 H :    0.017543
  27 H :    0.024180
  28 C :   -0.063062
  29 H :    0.022491
  30 H :    0.025820
  31 H :    0.028259
  32 H :    0.036953
  33 H :    0.037637

  Mayer bond orders larger than 0.100000
B(  0-S ,  1-C ) :   1.1576 B(  0-S ,  4-C ) :   1.1625 B(  1-C ,  2-C ) :   1.6115
B(  1-C , 32-H ) :   0.9599 B(  2-C ,  3-C ) :   1.2684 B(  2-C ,  6-C ) :   0.9993
B(  3-C ,  4-C ) :   1.5716 B(  3-C ,  5-H ) :   0.9893 B(  4-C , 20-C ) :   1.0084
B(  6-C ,  7-H ) :   0.9363 B(  6-C ,  8-H ) :   0.9346 B(  6-C ,  9-C ) :   1.0767
B(  9-C , 10-H ) :   0.9533 B(  9-C , 11-H ) :   0.9617 B(  9-C , 12-C ) :   1.0499
B( 12-C , 13-H ) :   0.9807 B( 12-C , 14-H ) :   0.9806 B( 12-C , 15-H ) :   0.9785
B( 16-S , 17-C ) :   1.1920 B( 16-S , 20-C ) :   1.1279 B( 17-C , 18-C ) :   1.5611
B( 17-C , 20-C ) :   0.1047 B( 17-C , 33-H ) :   0.9625 B( 18-C , 19-C ) :   1.2536
B( 18-C , 21-H ) :   0.9906 B( 19-C , 20-C ) :   1.5939 B( 19-C , 22-C ) :   1.0306
B( 22-C , 23-H ) :   0.9297 B( 22-C , 24-H ) :   0.9396 B( 22-C , 25-C ) :   1.0909
B( 25-C , 26-H ) :   0.9508 B( 25-C , 27-H ) :   0.9498 B( 25-C , 28-C ) :   1.0682
B( 28-C , 29-H ) :   0.9718 B( 28-C , 30-H ) :   0.9768 B( 28-C , 31-H ) :   0.9785

Dispersion correction           -0.014618711
FINAL SINGLE POINT ENERGY     -1339.868561215523

DIPOLE MOMENT
-------------
                                X             Y             Z
Electronic contribution:     -2.59246     -23.76379     -13.38298
Nuclear contribution   :      2.36716      24.33858      13.63490
                        -----------------------------------------
Total Dipole Moment    :     -0.22530       0.57479       0.25192
                        -----------------------------------------
Magnitude (a.u.)       :      0.66679
Magnitude (Debye)      :      1.69485

Rotational constants in cm-1:     0.017819     0.009467     0.007198
Rotational constants in MHz :   534.189464   283.822442   215.785031

                             ****ORCA TERMINATED NORMALLY****
TOTAL RUN TIME: 0 days 0 hours 0 minutes 22 seconds 77 msec
