                         Program Version 4.2.1 -  RELEASE  -
|  1> ! wB97X-D3 SP def2-SVP
|  2> %pal
|  3> nprocs 24
|  4> end
|  5>
|  6> * xyz 0 1
|  7> S 	 -116.359 	 52.5211 	 -94.7382
|  8> C 	 -116.703 	 53.7446 	 -95.9669
|  9> C 	 -115.501 	 54.4065 	 -96.2302
| 10> C 	 -114.464 	 54.1008 	 -95.2983
| 11> C 	 -114.811 	 53.2268 	 -94.2793
| 12> H 	 -113.465 	 54.4698 	 -95.4341
| 13> C 	 -115.159 	 55.3054 	 -97.4516
| 14> H 	 -115.221 	 54.6139 	 -98.3104
| 15> H 	 -114.155 	 55.6679 	 -97.3088
| 16> C 	 -116.205 	 56.4654 	 -97.6506
| 17> H 	 -117.195 	 55.9611 	 -97.6785
| 18> H 	 -116.117 	 56.9767 	 -96.7191
| 19> C 	 -115.928 	 57.18 	 -98.9243
| 20> H 	 -116.203 	 56.6122 	 -99.8042
| 21> H 	 -116.569 	 58.1029 	 -99.0046
| 22> H 	 -114.831 	 57.4554 	 -98.9158
| 23> S 	 -112.371 	 52.148 	 -93.4768
| 24> C 	 -112.017 	 51.9029 	 -91.7815
| 25> C 	 -113.121 	 52.3697 	 -91.0888
| 26> C 	 -114.3 	 52.6772 	 -91.8349
| 27> C 	 -113.943 	 52.7785 	 -93.188
| 28> H 	 -113.145 	 52.4028 	 -90.0814
| 29> C 	 -115.595 	 52.9816 	 -91.1244
| 30> H 	 -116.223 	 53.5236 	 -91.8824
| 31> H 	 -115.288 	 53.6669 	 -90.3304
| 32> C 	 -116.317 	 51.7302 	 -90.5652
| 33> H 	 -115.708 	 51.2229 	 -89.8033
| 34> H 	 -116.268 	 50.8479 	 -91.2771
| 35> C 	 -117.757 	 52.1407 	 -90.1123
| 36> H 	 -117.663 	 52.6958 	 -89.1565
| 37> H 	 -118.34 	 51.2831 	 -89.8855
| 38> H 	 -118.314 	 52.6022 	 -90.8797
| 39> H 	 -117.596 	 53.7309 	 -96.5799
| 40> H 	 -111.096 	 51.4578 	 -91.4413
| 41> *
| 42>
| 43>                          ****END OF INPUT****

CARTESIAN COORDINATES (ANGSTROEM)
---------------------------------
  S    -116.359000   52.521100  -94.738200
  C    -116.703000   53.744600  -95.966900
  C    -115.501000   54.406500  -96.230200
  C    -114.464000   54.100800  -95.298300
  C    -114.811000   53.226800  -94.279300
  H    -113.465000   54.469800  -95.434100
  C    -115.159000   55.305400  -97.451600
  H    -115.221000   54.613900  -98.310400
  H    -114.155000   55.667900  -97.308800
  C    -116.205000   56.465400  -97.650600
  H    -117.195000   55.961100  -97.678500
  H    -116.117000   56.976700  -96.719100
  C    -115.928000   57.180000  -98.924300
  H    -116.203000   56.612200  -99.804200
  H    -116.569000   58.102900  -99.004600
  H    -114.831000   57.455400  -98.915800
  S    -112.371000   52.148000  -93.476800
  C    -112.017000   51.902900  -91.781500
  C    -113.121000   52.369700  -91.088800
  C    -114.300000   52.677200  -91.834900
  C    -113.943000   52.778500  -93.188000
  H    -113.145000   52.402800  -90.081400
  C    -115.595000   52.981600  -91.124400
  H    -116.223000   53.523600  -91.882400
  H    -115.288000   53.666900  -90.330400
  C    -116.317000   51.730200  -90.565200
  H    -115.708000   51.222900  -89.803300
  H    -116.268000   50.847900  -91.277100
  C    -117.757000   52.140700  -90.112300
  H    -117.663000   52.695800  -89.156500
  H    -118.340000   51.283100  -89.885500
  H    -118.314000   52.602200  -90.879700
  H    -117.596000   53.730900  -96.579900
  H    -111.096000   51.457800  -91.441300

 Total Charge           Charge          ....    0
 Multiplicity           Mult            ....    1
 Number of Electrons    NEL             ....  134
 Basis Dimension        Dim             ....  322

ORBITAL ENERGIES
----------------

  NO   OCC          E(Eh)            E(eV)
   0   2.0000     -88.964897     -2420.8579
   1   2.0000     -88.964871     -2420.8572
   2   2.0000     -10.330731      -281.1135
   3   2.0000     -10.326138      -280.9885
   4   2.0000     -10.319509      -280.8081
   5   2.0000     -10.316400      -280.7235
   6   2.0000     -10.301863      -280.3279
   7   2.0000     -10.300875      -280.3011
   8   2.0000     -10.294494      -280.1274
   9   2.0000     -10.293560      -280.1020
  10   2.0000     -10.293005      -280.0869
  11   2.0000     -10.289300      -279.9861
  12   2.0000     -10.285793      -279.8907
  13   2.0000     -10.285347      -279.8785
  14   2.0000     -10.284116      -279.8450
  15   2.0000     -10.275118      -279.6002
  16   2.0000      -8.080085      -219.8703
  17   2.0000      -8.078674      -219.8319
  18   2.0000      -6.038576      -164.3180
  19   2.0000      -6.037257      -164.2821
  20   2.0000      -6.034381      -164.2039
  21   2.0000      -6.033381      -164.1767
  22   2.0000      -6.030986      -164.1115
  23   2.0000      -6.029320      -164.0661
  24   2.0000      -1.006169       -27.3793
  25   2.0000      -0.983349       -26.7583
  26   2.0000      -0.909479       -24.7482
  27   2.0000      -0.904908       -24.6238
  28   2.0000      -0.868495       -23.6329
  29   2.0000      -0.849776       -23.1236
  30   2.0000      -0.844200       -22.9718
  31   2.0000      -0.811580       -22.0842
  32   2.0000      -0.779103       -21.2005
  33   2.0000      -0.767235       -20.8775
  34   2.0000      -0.707111       -19.2415
  35   2.0000      -0.701221       -19.0812
  36   2.0000      -0.693639       -18.8749
  37   2.0000      -0.668040       -18.1783
  38   2.0000      -0.637496       -17.3471
  39   2.0000      -0.612011       -16.6537
  40   2.0000      -0.598019       -16.2729
  41   2.0000      -0.575516       -15.6606
  42   2.0000      -0.560252       -15.2452
  43   2.0000      -0.557663       -15.1748
  44   2.0000      -0.527095       -14.3430
  45   2.0000      -0.521690       -14.1959
  46   2.0000      -0.518388       -14.1061
  47   2.0000      -0.513451       -13.9717
  48   2.0000      -0.504531       -13.7290
  49   2.0000      -0.502982       -13.6868
  50   2.0000      -0.500377       -13.6160
  51   2.0000      -0.477343       -12.9892
  52   2.0000      -0.469713       -12.7815
  53   2.0000      -0.466300       -12.6887
  54   2.0000      -0.463286       -12.6066
  55   2.0000      -0.443256       -12.0616
  56   2.0000      -0.442034       -12.0283
  57   2.0000      -0.438354       -11.9282
  58   2.0000      -0.427993       -11.6463
  59   2.0000      -0.421134       -11.4596
  60   2.0000      -0.417621       -11.3640
  61   2.0000      -0.411508       -11.1977
  62   2.0000      -0.409401       -11.1404
  63   2.0000      -0.343693        -9.3524
  64   2.0000      -0.328217        -8.9312
  65   2.0000      -0.321511        -8.7488
  66   2.0000      -0.293279        -7.9805
  67   0.0000       0.026895         0.7318
  68   0.0000       0.068933         1.8758
  69   0.0000       0.104777         2.8511
  70   0.0000       0.119539         3.2528
  71   0.0000       0.133157         3.6234

MULLIKEN ATOMIC CHARGES
-----------------------
   0 S :    0.100649
   1 C :   -0.140972
   2 C :   -0.097812
   3 C :    0.010316
   4 C :   -0.136217
   5 H :    0.006171
   6 C :    0.049213
   7 H :    0.041295
   8 H :    0.018836
   9 C :   -0.086658
  10 H :    0.028284
  11 H :    0.035109
  12 C :   -0.038619
  13 H :    0.034623
  14 H :    0.040007
  15 H :    0.040772
  16 S :    0.111568
  17 C :   -0.094438
  18 C :    0.021842
  19 C :   -0.060819
  20 C :   -0.150202
  21 H :   -0.030001
  22 C :    0.063051
  23 H :    0.038075
  24 H :    0.036661
  25 C :   -0.108915
  26 H :    0.022198
  27 H :    0.034059
  28 C :   -0.005523
  29 H :    0.041229
  30 H :    0.019306
  31 H :    0.034332
  32 H :    0.058190
  33 H :    0.064390
Sum of atomic charges:   -0.0000000

LOEWDIN ATOMIC CHARGES
----------------------
   0 S :    0.399475
   1 C :   -0.203305
   2 C :   -0.061541
   3 C :   -0.071316
   4 C :   -0.186313
   5 H :    0.025727
   6 C :   -0.024759
   7 H :    0.032911
   8 H :    0.021584
   9 C :   -0.042298
  10 H :    0.024943
  11 H :    0.023341
  12 C :   -0.070918
  13 H :    0.026311
  14 H :    0.031963
  15 H :    0.033221
  16 S :    0.422807
  17 C :   -0.184749
  18 C :   -0.057449
  19 C :   -0.051204
  20 C :   -0.215218
  21 H :    0.007412
  22 C :   -0.034354
  23 H :    0.033047
  24 H :    0.035168
  25 C :   -0.047980
  26 H :    0.023318
  27 H :    0.029968
  28 C :   -0.059263
  29 H :    0.033510
  30 H :    0.022295
  31 H :    0.023503
  32 H :    0.028494
  33 H :    0.031667

  Mayer bond orders larger than 0.100000
B(  0-S ,  1-C ) :   1.1329 B(  0-S ,  4-C ) :   1.1537 B(  1-C ,  2-C ) :   1.5699
B(  1-C ,  4-C ) :   0.1045 B(  1-C , 32-H ) :   0.9737 B(  2-C ,  3-C ) :   1.2793
B(  2-C ,  6-C ) :   1.0082 B(  3-C ,  4-C ) :   1.5311 B(  3-C ,  5-H ) :   0.9985
B(  4-C , 20-C ) :   1.0521 B(  6-C ,  7-H ) :   0.9403 B(  6-C ,  8-H ) :   0.9470
B(  6-C ,  9-C ) :   1.0520 B(  9-C , 10-H ) :   0.9545 B(  9-C , 11-H ) :   0.9620
B(  9-C , 12-C ) :   1.0865 B( 12-C , 13-H ) :   0.9718 B( 12-C , 14-H ) :   0.9709
B( 12-C , 15-H ) :   0.9708 B( 16-S , 17-C ) :   1.1529 B( 16-S , 20-C ) :   1.1628
B( 17-C , 18-C ) :   1.5584 B( 17-C , 33-H ) :   0.9779 B( 18-C , 19-C ) :   1.2715
B( 18-C , 21-H ) :   1.0011 B( 19-C , 20-C ) :   1.5338 B( 19-C , 22-C ) :   1.0472
B( 22-C , 23-H ) :   0.9331 B( 22-C , 24-H ) :   0.9342 B( 22-C , 25-C ) :   1.0426
B( 25-C , 26-H ) :   0.9538 B( 25-C , 27-H ) :   0.9578 B( 25-C , 28-C ) :   1.0735
B( 28-C , 29-H ) :   0.9741 B( 28-C , 30-H ) :   0.9734 B( 28-C , 31-H ) :   0.9764

Dispersion correction           -0.013751679
FINAL SINGLE POINT ENERGY     -1339.864384579885

DIPOLE MOMENT
-------------
                                X             Y             Z
Electronic contribution:     12.90929     -12.28451       2.14362
Nuclear contribution   :    -12.96439      12.42697      -2.10712
                        -----------------------------------------
Total Dipole Moment    :     -0.05510       0.14245       0.03650
                        -----------------------------------------
Magnitude (a.u.)       :      0.15704
Magnitude (Debye)      :      0.39917

Rotational constants in cm-1:     0.021237     0.007260     0.005893
Rotational constants in MHz :   636.659193   217.645587   176.670695

                             ****ORCA TERMINATED NORMALLY****
TOTAL RUN TIME: 0 days 0 hours 0 minutes 19 seconds 712 msec
