                         Program Version 4.2.1 -  RELEASE  -
|  1> ! wB97X-D3 SP def2-SVP
|  2> %pal
|  3> nprocs 24
|  4> end
|  5>
|  6> * xyz 0 1
|  7> S 	 -34.0108 	 -9.60877 	 14.2806
|  8> C 	 -33.5638 	 -9.23201 	 15.9027
|  9> C 	 -33.1359 	 -10.3573 	 16.6414
| 10> C 	 -33.3734 	 -11.5424 	 15.8144
| 11> C 	 -33.6934 	 -11.2826 	 14.5038
| 12> H 	 -33.2243 	 -12.5122 	 16.0749
| 13> C 	 -32.836 	 -10.3505 	 18.0921
| 14> H 	 -31.857 	 -9.93215 	 18.1488
| 15> H 	 -32.7833 	 -11.3358 	 18.5823
| 16> C 	 -33.7515 	 -9.56034 	 19.1123
| 17> H 	 -33.108 	 -9.2028 	 19.9435
| 18> H 	 -34.123 	 -8.75814 	 18.4775
| 19> C 	 -35.0256 	 -10.4181 	 19.4899
| 20> H 	 -34.8616 	 -11.232 	 20.202
| 21> H 	 -35.8252 	 -9.92629 	 19.951
| 22> H 	 -35.5638 	 -10.8674 	 18.6507
| 23> S 	 -32.46 	 -12.7966 	 12.5927
| 24> C 	 -33.4604 	 -13.7704 	 11.5162
| 25> C 	 -34.8357 	 -13.6678 	 11.7951
| 26> C 	 -35.0478 	 -12.7297 	 12.8717
| 27> C 	 -33.8859 	 -12.225 	 13.4296
| 28> H 	 -35.5335 	 -14.2188 	 11.2485
| 29> C 	 -36.471 	 -12.3253 	 13.1899
| 30> H 	 -36.4 	 -11.7643 	 14.1089
| 31> H 	 -37.1402 	 -13.151 	 13.1434
| 32> C 	 -37.0567 	 -11.3527 	 12.1229
| 33> H 	 -37.3344 	 -12.0176 	 11.3768
| 34> H 	 -36.3141 	 -10.6319 	 11.6527
| 35> C 	 -38.2862 	 -10.4994 	 12.4664
| 36> H 	 -38.0752 	 -9.56878 	 13.0397
| 37> H 	 -38.8752 	 -11.2131 	 13.0152
| 38> H 	 -38.7852 	 -10.2336 	 11.5471
| 39> H 	 -33.5463 	 -8.19646 	 16.2471
| 40> H 	 -32.968 	 -14.3119 	 10.6588
| 41> *
| 42>
| 43>                          ****END OF INPUT****

CARTESIAN COORDINATES (ANGSTROEM)
---------------------------------
  S    -34.010800   -9.608770   14.280600
  C    -33.563800   -9.232010   15.902700
  C    -33.135900  -10.357300   16.641400
  C    -33.373400  -11.542400   15.814400
  C    -33.693400  -11.282600   14.503800
  H    -33.224300  -12.512200   16.074900
  C    -32.836000  -10.350500   18.092100
  H    -31.857000   -9.932150   18.148800
  H    -32.783300  -11.335800   18.582300
  C    -33.751500   -9.560340   19.112300
  H    -33.108000   -9.202800   19.943500
  H    -34.123000   -8.758140   18.477500
  C    -35.025600  -10.418100   19.489900
  H    -34.861600  -11.232000   20.202000
  H    -35.825200   -9.926290   19.951000
  H    -35.563800  -10.867400   18.650700
  S    -32.460000  -12.796600   12.592700
  C    -33.460400  -13.770400   11.516200
  C    -34.835700  -13.667800   11.795100
  C    -35.047800  -12.729700   12.871700
  C    -33.885900  -12.225000   13.429600
  H    -35.533500  -14.218800   11.248500
  C    -36.471000  -12.325300   13.189900
  H    -36.400000  -11.764300   14.108900
  H    -37.140200  -13.151000   13.143400
  C    -37.056700  -11.352700   12.122900
  H    -37.334400  -12.017600   11.376800
  H    -36.314100  -10.631900   11.652700
  C    -38.286200  -10.499400   12.466400
  H    -38.075200   -9.568780   13.039700
  H    -38.875200  -11.213100   13.015200
  H    -38.785200  -10.233600   11.547100
  H    -33.546300   -8.196460   16.247100
  H    -32.968000  -14.311900   10.658800

 Total Charge           Charge          ....    0
 Multiplicity           Mult            ....    1
 Number of Electrons    NEL             ....  134
 Basis Dimension        Dim             ....  322

ORBITAL ENERGIES
----------------

  NO   OCC          E(Eh)            E(eV)
   0   2.0000     -88.964917     -2420.8585
   1   2.0000     -88.964745     -2420.8538
   2   2.0000     -10.325694      -280.9764
   3   2.0000     -10.321487      -280.8619
   4   2.0000     -10.320669      -280.8397
   5   2.0000     -10.315939      -280.7110
   6   2.0000     -10.307365      -280.4777
   7   2.0000     -10.304406      -280.3971
   8   2.0000     -10.298388      -280.2334
   9   2.0000     -10.295158      -280.1455
  10   2.0000     -10.289385      -279.9884
  11   2.0000     -10.288525      -279.9650
  12   2.0000     -10.286840      -279.9191
  13   2.0000     -10.279429      -279.7175
  14   2.0000     -10.275624      -279.6139
  15   2.0000     -10.275442      -279.6090
  16   2.0000      -8.080551      -219.8830
  17   2.0000      -8.079449      -219.8530
  18   2.0000      -6.038884      -164.3264
  19   2.0000      -6.037888      -164.2993
  20   2.0000      -6.034816      -164.2157
  21   2.0000      -6.033927      -164.1915
  22   2.0000      -6.031574      -164.1275
  23   2.0000      -6.030326      -164.0935
  24   2.0000      -1.007274       -27.4093
  25   2.0000      -0.981672       -26.7126
  26   2.0000      -0.908184       -24.7129
  27   2.0000      -0.907494       -24.6942
  28   2.0000      -0.865975       -23.5644
  29   2.0000      -0.849969       -23.1288
  30   2.0000      -0.846132       -23.0244
  31   2.0000      -0.813525       -22.1371
  32   2.0000      -0.785598       -21.3772
  33   2.0000      -0.770142       -20.9566
  34   2.0000      -0.710719       -19.3397
  35   2.0000      -0.696437       -18.9510
  36   2.0000      -0.686237       -18.6735
  37   2.0000      -0.664624       -18.0853
  38   2.0000      -0.650624       -17.7044
  39   2.0000      -0.609707       -16.5910
  40   2.0000      -0.594238       -16.1700
  41   2.0000      -0.578976       -15.7547
  42   2.0000      -0.569417       -15.4946
  43   2.0000      -0.553325       -15.0567
  44   2.0000      -0.538805       -14.6616
  45   2.0000      -0.526238       -14.3197
  46   2.0000      -0.517308       -14.0767
  47   2.0000      -0.506506       -13.7827
  48   2.0000      -0.500112       -13.6087
  49   2.0000      -0.494628       -13.4595
  50   2.0000      -0.488490       -13.2925
  51   2.0000      -0.481641       -13.1061
  52   2.0000      -0.471655       -12.8344
  53   2.0000      -0.466570       -12.6960
  54   2.0000      -0.457110       -12.4386
  55   2.0000      -0.446844       -12.1592
  56   2.0000      -0.443680       -12.0731
  57   2.0000      -0.437744       -11.9116
  58   2.0000      -0.433640       -11.8000
  59   2.0000      -0.431610       -11.7447
  60   2.0000      -0.418390       -11.3850
  61   2.0000      -0.408813       -11.1244
  62   2.0000      -0.406543       -11.0626
  63   2.0000      -0.333443        -9.0735
  64   2.0000      -0.331303        -9.0152
  65   2.0000      -0.318635        -8.6705
  66   2.0000      -0.305387        -8.3100
  67   0.0000       0.044731         1.2172
  68   0.0000       0.056715         1.5433
  69   0.0000       0.110124         2.9966
  70   0.0000       0.119082         3.2404
  71   0.0000       0.128608         3.4996

MULLIKEN ATOMIC CHARGES
-----------------------
   0 S :    0.130856
   1 C :   -0.150399
   2 C :   -0.061545
   3 C :    0.090108
   4 C :   -0.199315
   5 H :   -0.032581
   6 C :    0.037663
   7 H :    0.031281
   8 H :    0.026965
   9 C :   -0.051071
  10 H :    0.047747
  11 H :    0.024218
  12 C :   -0.058702
  13 H :    0.026468
  14 H :    0.014421
  15 H :    0.034101
  16 S :    0.114889
  17 C :   -0.125896
  18 C :   -0.005828
  19 C :   -0.031326
  20 C :   -0.177636
  21 H :    0.002955
  22 C :    0.129094
  23 H :    0.024656
  24 H :    0.017820
  25 C :   -0.115896
  26 H :    0.003596
  27 H :    0.037453
  28 C :   -0.030669
  29 H :    0.049365
  30 H :    0.019485
  31 H :    0.033312
  32 H :    0.063542
  33 H :    0.080869
Sum of atomic charges:   -0.0000000

LOEWDIN ATOMIC CHARGES
----------------------
   0 S :    0.434357
   1 C :   -0.207837
   2 C :   -0.059232
   3 C :   -0.041063
   4 C :   -0.215761
   5 H :    0.013666
   6 C :   -0.041398
   7 H :    0.032815
   8 H :    0.032472
   9 C :   -0.029582
  10 H :    0.032123
  11 H :    0.021875
  12 C :   -0.075480
  13 H :    0.024591
  14 H :    0.018161
  15 H :    0.032336
  16 S :    0.405731
  17 C :   -0.182054
  18 C :   -0.063936
  19 C :   -0.043251
  20 C :   -0.214995
  21 H :    0.022952
  22 C :   -0.024444
  23 H :    0.026575
  24 H :    0.027732
  25 C :   -0.042240
  26 H :    0.009422
  27 H :    0.026520
  28 C :   -0.062596
  29 H :    0.030458
  30 H :    0.020915
  31 H :    0.027118
  32 H :    0.026658
  33 H :    0.037391

  Mayer bond orders larger than 0.100000
B(  0-S ,  1-C ) :   1.1686 B(  0-S ,  4-C ) :   1.1559 B(  1-C ,  2-C ) :   1.5729
B(  1-C , 32-H ) :   0.9635 B(  2-C ,  3-C ) :   1.2292 B(  2-C ,  6-C ) :   1.0376
B(  3-C ,  4-C ) :   1.5993 B(  3-C ,  5-H ) :   1.0063 B(  4-C , 20-C ) :   1.0056
B(  6-C ,  7-H ) :   0.9230 B(  6-C ,  8-H ) :   0.9521 B(  6-C ,  9-C ) :   1.0623
B(  9-C , 10-H ) :   0.9578 B(  9-C , 11-H ) :   0.9594 B(  9-C , 12-C ) :   1.0613
B( 12-C , 13-H ) :   0.9759 B( 12-C , 14-H ) :   0.9760 B( 12-C , 15-H ) :   0.9761
B( 16-S , 17-C ) :   1.1694 B( 16-S , 20-C ) :   1.1397 B( 17-C , 18-C ) :   1.5947
B( 17-C , 33-H ) :   0.9600 B( 18-C , 19-C ) :   1.2151 B( 18-C , 21-H ) :   1.0033
B( 19-C , 20-C ) :   1.6153 B( 19-C , 22-C ) :   1.0736 B( 22-C , 23-H ) :   0.9281
B( 22-C , 24-H ) :   0.9281 B( 22-C , 25-C ) :   1.0477 B( 25-C , 26-H ) :   0.9574
B( 25-C , 27-H ) :   0.9589 B( 25-C , 28-C ) :   1.0866 B( 28-C , 29-H ) :   0.9770
B( 28-C , 30-H ) :   0.9727 B( 28-C , 31-H ) :   0.9727

Dispersion correction           -0.014415397
FINAL SINGLE POINT ENERGY     -1339.858269347435

DIPOLE MOMENT
-------------
                                X             Y             Z
Electronic contribution:     17.38024      -4.30818     -14.39142
Nuclear contribution   :    -17.70728       4.23918      14.57307
                        -----------------------------------------
Total Dipole Moment    :     -0.32704      -0.06900       0.18165
                        -----------------------------------------
Magnitude (a.u.)       :      0.38041
Magnitude (Debye)      :      0.96692

Rotational constants in cm-1:     0.019486     0.008227     0.006771
Rotational constants in MHz :   584.165859   246.635202   202.989695

                             ****ORCA TERMINATED NORMALLY****
TOTAL RUN TIME: 0 days 0 hours 0 minutes 21 seconds 365 msec
