                         Program Version 4.2.1 -  RELEASE  -
|  1> ! wB97X-D3 SP def2-SVP
|  2> %pal
|  3> nprocs 24
|  4> end
|  5>
|  6> * xyz 0 1
|  7> S 	 -44.0488 	 11.3344 	 26.8458
|  8> C 	 -45.7649 	 11.0487 	 27.2591
|  9> C 	 -46.2599 	 12.2359 	 27.7425
| 10> C 	 -45.4503 	 13.3858 	 27.4558
| 11> C 	 -44.2984 	 13.054 	 26.7721
| 12> H 	 -45.638 	 14.4502 	 27.6868
| 13> C 	 -47.6111 	 12.5151 	 28.3979
| 14> H 	 -48.4196 	 11.8558 	 28.0147
| 15> H 	 -47.8935 	 13.5216 	 28.2156
| 16> C 	 -47.6263 	 12.3691 	 29.925
| 17> H 	 -48.6575 	 12.2334 	 30.2715
| 18> H 	 -47.0659 	 11.5254 	 30.2101
| 19> C 	 -46.9854 	 13.6362 	 30.5889
| 20> H 	 -46.8968 	 13.7501 	 31.7118
| 21> H 	 -45.9679 	 13.6554 	 30.2623
| 22> H 	 -47.5813 	 14.5536 	 30.3549
| 23> S 	 -41.5771 	 13.5381 	 26.6169
| 24> C 	 -41.052 	 15.2048 	 26.2088
| 25> C 	 -42.0546 	 15.9072 	 25.6126
| 26> C 	 -43.3142 	 15.265 	 25.7517
| 27> C 	 -43.2506 	 14.0257 	 26.4316
| 28> H 	 -41.909 	 16.8825 	 25.2669
| 29> C 	 -44.5309 	 15.8921 	 25.2069
| 30> H 	 -44.577 	 16.9759 	 25.5171
| 31> H 	 -45.3816 	 15.4544 	 25.6868
| 32> C 	 -44.7463 	 15.6621 	 23.6983
| 33> H 	 -44.0016 	 16.238 	 23.1753
| 34> H 	 -45.7481 	 15.9625 	 23.415
| 35> C 	 -44.6098 	 14.144 	 23.3849
| 36> H 	 -43.5717 	 13.7218 	 23.4504
| 37> H 	 -44.9187 	 13.9915 	 22.3328
| 38> H 	 -45.1955 	 13.6006 	 24.1232
| 39> H 	 -46.1311 	 10.054 	 27.3454
| 40> H 	 -40.0189 	 15.5204 	 26.1416
| 41> *
| 42>
| 43>                          ****END OF INPUT****

CARTESIAN COORDINATES (ANGSTROEM)
---------------------------------
  S    -44.048800   11.334400   26.845800
  C    -45.764900   11.048700   27.259100
  C    -46.259900   12.235900   27.742500
  C    -45.450300   13.385800   27.455800
  C    -44.298400   13.054000   26.772100
  H    -45.638000   14.450200   27.686800
  C    -47.611100   12.515100   28.397900
  H    -48.419600   11.855800   28.014700
  H    -47.893500   13.521600   28.215600
  C    -47.626300   12.369100   29.925000
  H    -48.657500   12.233400   30.271500
  H    -47.065900   11.525400   30.210100
  C    -46.985400   13.636200   30.588900
  H    -46.896800   13.750100   31.711800
  H    -45.967900   13.655400   30.262300
  H    -47.581300   14.553600   30.354900
  S    -41.577100   13.538100   26.616900
  C    -41.052000   15.204800   26.208800
  C    -42.054600   15.907200   25.612600
  C    -43.314200   15.265000   25.751700
  C    -43.250600   14.025700   26.431600
  H    -41.909000   16.882500   25.266900
  C    -44.530900   15.892100   25.206900
  H    -44.577000   16.975900   25.517100
  H    -45.381600   15.454400   25.686800
  C    -44.746300   15.662100   23.698300
  H    -44.001600   16.238000   23.175300
  H    -45.748100   15.962500   23.415000
  C    -44.609800   14.144000   23.384900
  H    -43.571700   13.721800   23.450400
  H    -44.918700   13.991500   22.332800
  H    -45.195500   13.600600   24.123200
  H    -46.131100   10.054000   27.345400
  H    -40.018900   15.520400   26.141600

 Total Charge           Charge          ....    0
 Multiplicity           Mult            ....    1
 Number of Electrons    NEL             ....  134
 Basis Dimension        Dim             ....  322

ORBITAL ENERGIES
----------------

  NO   OCC          E(Eh)            E(eV)
   0   2.0000     -88.966408     -2420.8990
   1   2.0000     -88.965201     -2420.8662
   2   2.0000     -10.332292      -281.1560
   3   2.0000     -10.331390      -281.1314
   4   2.0000     -10.319284      -280.8020
   5   2.0000     -10.319163      -280.7987
   6   2.0000     -10.307527      -280.4821
   7   2.0000     -10.302177      -280.3365
   8   2.0000     -10.295859      -280.1646
   9   2.0000     -10.291009      -280.0326
  10   2.0000     -10.289952      -280.0038
  11   2.0000     -10.285955      -279.8951
  12   2.0000     -10.285223      -279.8752
  13   2.0000     -10.284219      -279.8478
  14   2.0000     -10.281603      -279.7766
  15   2.0000     -10.274252      -279.5766
  16   2.0000      -8.080532      -219.8824
  17   2.0000      -8.079908      -219.8655
  18   2.0000      -6.039163      -164.3340
  19   2.0000      -6.038532      -164.3168
  20   2.0000      -6.035380      -164.2310
  21   2.0000      -6.034725      -164.2132
  22   2.0000      -6.030960      -164.1108
  23   2.0000      -6.030234      -164.0910
  24   2.0000      -1.008051       -27.4305
  25   2.0000      -0.985202       -26.8087
  26   2.0000      -0.912508       -24.8306
  27   2.0000      -0.909359       -24.7449
  28   2.0000      -0.871911       -23.7259
  29   2.0000      -0.845755       -23.0142
  30   2.0000      -0.838813       -22.8253
  31   2.0000      -0.815184       -22.1823
  32   2.0000      -0.778924       -21.1956
  33   2.0000      -0.768995       -20.9254
  34   2.0000      -0.708361       -19.2755
  35   2.0000      -0.701770       -19.0961
  36   2.0000      -0.692291       -18.8382
  37   2.0000      -0.663162       -18.0456
  38   2.0000      -0.646515       -17.5926
  39   2.0000      -0.616956       -16.7882
  40   2.0000      -0.596099       -16.2207
  41   2.0000      -0.576669       -15.6920
  42   2.0000      -0.553642       -15.0654
  43   2.0000      -0.550097       -14.9689
  44   2.0000      -0.545974       -14.8567
  45   2.0000      -0.536254       -14.5922
  46   2.0000      -0.518385       -14.1060
  47   2.0000      -0.507667       -13.8143
  48   2.0000      -0.502828       -13.6826
  49   2.0000      -0.493276       -13.4227
  50   2.0000      -0.492541       -13.4027
  51   2.0000      -0.478109       -13.0100
  52   2.0000      -0.464966       -12.6524
  53   2.0000      -0.463077       -12.6010
  54   2.0000      -0.456906       -12.4330
  55   2.0000      -0.448953       -12.2166
  56   2.0000      -0.445221       -12.1151
  57   2.0000      -0.430470       -11.7137
  58   2.0000      -0.427357       -11.6290
  59   2.0000      -0.425105       -11.5677
  60   2.0000      -0.417505       -11.3609
  61   2.0000      -0.414926       -11.2907
  62   2.0000      -0.414541       -11.2802
  63   2.0000      -0.358073        -9.7437
  64   2.0000      -0.333541        -9.0761
  65   2.0000      -0.325664        -8.8618
  66   2.0000      -0.285560        -7.7705
  67   0.0000       0.017806         0.4845
  68   0.0000       0.064306         1.7498
  69   0.0000       0.091260         2.4833
  70   0.0000       0.112807         3.0696
  71   0.0000       0.139913         3.8072

MULLIKEN ATOMIC CHARGES
-----------------------
   0 S :    0.079260
   1 C :   -0.110543
   2 C :   -0.059308
   3 C :   -0.010101
   4 C :   -0.118804
   5 H :    0.041347
   6 C :    0.065039
   7 H :    0.033794
   8 H :    0.007354
   9 C :   -0.031746
  10 H :    0.031943
  11 H :    0.020148
  12 C :   -0.109026
  13 H :    0.039551
  14 H :    0.041897
  15 H :    0.033687
  16 S :    0.082218
  17 C :   -0.078720
  18 C :    0.000404
  19 C :   -0.077757
  20 C :   -0.139163
  21 H :    0.003720
  22 C :    0.054207
  23 H :    0.034897
  24 H :   -0.003881
  25 C :   -0.035792
  26 H :    0.023824
  27 H :    0.031448
  28 C :   -0.083939
  29 H :    0.051518
  30 H :    0.037814
  31 H :    0.042774
  32 H :    0.045463
  33 H :    0.056474
Sum of atomic charges:    0.0000000

LOEWDIN ATOMIC CHARGES
----------------------
   0 S :    0.383130
   1 C :   -0.176535
   2 C :   -0.056565
   3 C :   -0.072616
   4 C :   -0.188223
   5 H :    0.038403
   6 C :   -0.026672
   7 H :    0.035449
   8 H :    0.021707
   9 C :   -0.030854
  10 H :    0.023834
  11 H :    0.016804
  12 C :   -0.079595
  13 H :    0.030918
  14 H :    0.023041
  15 H :    0.026232
  16 S :    0.378297
  17 C :   -0.163103
  18 C :   -0.058501
  19 C :   -0.056855
  20 C :   -0.189326
  21 H :    0.025934
  22 C :   -0.043083
  23 H :    0.034547
  24 H :    0.021193
  25 C :   -0.028911
  26 H :    0.017279
  27 H :    0.024405
  28 C :   -0.068671
  29 H :    0.032087
  30 H :    0.027041
  31 H :    0.025762
  32 H :    0.024486
  33 H :    0.028961

  Mayer bond orders larger than 0.100000
B(  0-S ,  1-C ) :   1.1100 B(  0-S ,  4-C ) :   1.1498 B(  1-C ,  2-C ) :   1.6038
B(  1-C , 32-H ) :   0.9853 B(  2-C ,  3-C ) :   1.2238 B(  2-C ,  6-C ) :   1.0255
B(  3-C ,  4-C ) :   1.5625 B(  3-C ,  5-H ) :   0.9842 B(  4-C , 20-C ) :   1.0692
B(  6-C ,  7-H ) :   0.9453 B(  6-C ,  8-H ) :   0.9461 B(  6-C ,  9-C ) :   1.0606
B(  9-C , 10-H ) :   0.9598 B(  9-C , 11-H ) :   0.9586 B(  9-C , 12-C ) :   1.0645
B( 12-C , 13-H ) :   0.9760 B( 12-C , 14-H ) :   0.9764 B( 12-C , 15-H ) :   0.9763
B( 16-S , 17-C ) :   1.1362 B( 16-S , 20-C ) :   1.1268 B( 17-C , 18-C ) :   1.6231
B( 17-C , 33-H ) :   0.9660 B( 18-C , 19-C ) :   1.2396 B( 18-C , 21-H ) :   0.9967
B( 19-C , 20-C ) :   1.5703 B( 19-C , 22-C ) :   1.0626 B( 22-C , 23-H ) :   0.9343
B( 22-C , 24-H ) :   0.9237 B( 22-C , 25-C ) :   1.0680 B( 25-C , 26-H ) :   0.9567
B( 25-C , 27-H ) :   0.9585 B( 25-C , 28-C ) :   1.0722 B( 28-C , 29-H ) :   0.9692
B( 28-C , 30-H ) :   0.9741 B( 28-C , 31-H ) :   0.9759

Dispersion correction           -0.015667096
FINAL SINGLE POINT ENERGY     -1339.866668839193

DIPOLE MOMENT
-------------
                                X             Y             Z
Electronic contribution:     19.41918      -9.44132      -1.57846
Nuclear contribution   :    -19.85810       9.85917       1.59727
                        -----------------------------------------
Total Dipole Moment    :     -0.43892       0.41784       0.01881
                        -----------------------------------------
Magnitude (a.u.)       :      0.60630
Magnitude (Debye)      :      1.54109

Rotational constants in cm-1:     0.020471     0.008677     0.008061
Rotational constants in MHz :   613.699252   260.141913   241.663311

                             ****ORCA TERMINATED NORMALLY****
TOTAL RUN TIME: 0 days 0 hours 0 minutes 22 seconds 902 msec
