                         Program Version 4.2.1 -  RELEASE  -
|  1> ! wB97X-D3 SP def2-SVP
|  2> %pal
|  3> nprocs 24
|  4> end
|  5>
|  6> * xyz 0 1
|  7> S 	 48.0612 	 -16.6501 	 -117.902
|  8> C 	 48.8618 	 -17.2065 	 -116.398
|  9> C 	 49.6482 	 -16.1653 	 -115.866
| 10> C 	 49.6438 	 -14.9874 	 -116.696
| 11> C 	 48.7212 	 -15.0124 	 -117.748
| 12> H 	 50.2011 	 -14.0945 	 -116.615
| 13> C 	 50.3858 	 -16.393 	 -114.588
| 14> H 	 51.409 	 -16.1341 	 -114.864
| 15> H 	 50.3928 	 -17.4795 	 -114.4
| 16> C 	 49.8636 	 -15.6008 	 -113.398
| 17> H 	 49.7077 	 -14.5532 	 -113.664
| 18> H 	 48.844 	 -15.815 	 -113.009
| 19> C 	 50.6896 	 -15.7404 	 -112.049
| 20> H 	 50.2953 	 -15.0598 	 -111.343
| 21> H 	 50.6134 	 -16.7063 	 -111.546
| 22> H 	 51.7556 	 -15.544 	 -112.309
| 23> S 	 47.6074 	 -14.3888 	 -120.148
| 24> C 	 47.7002 	 -12.705 	 -120.699
| 25> C 	 48.0875 	 -11.8197 	 -119.716
| 26> C 	 48.4976 	 -12.4995 	 -118.564
| 27> C 	 48.2485 	 -13.8866 	 -118.61
| 28> H 	 48.2127 	 -10.8228 	 -119.987
| 29> C 	 49.1818 	 -11.6509 	 -117.514
| 30> H 	 49.2168 	 -12.0652 	 -116.494
| 31> H 	 48.5902 	 -10.7256 	 -117.416
| 32> C 	 50.6808 	 -11.2061 	 -117.807
| 33> H 	 50.5937 	 -10.6855 	 -118.763
| 34> H 	 51.4122 	 -11.9662 	 -117.993
| 35> C 	 51.099 	 -10.1338 	 -116.79
| 36> H 	 50.2514 	 -9.45522 	 -116.541
| 37> H 	 51.9441 	 -9.57912 	 -117.227
| 38> H 	 51.4528 	 -10.3966 	 -115.809
| 39> H 	 48.6095 	 -18.1806 	 -116.012
| 40> H 	 47.3696 	 -12.3464 	 -121.645
| 41> *
| 42>
| 43>                          ****END OF INPUT****

CARTESIAN COORDINATES (ANGSTROEM)
---------------------------------
  S     48.061200  -16.650100  -117.902000
  C     48.861800  -17.206500  -116.398000
  C     49.648200  -16.165300  -115.866000
  C     49.643800  -14.987400  -116.696000
  C     48.721200  -15.012400  -117.748000
  H     50.201100  -14.094500  -116.615000
  C     50.385800  -16.393000  -114.588000
  H     51.409000  -16.134100  -114.864000
  H     50.392800  -17.479500  -114.400000
  C     49.863600  -15.600800  -113.398000
  H     49.707700  -14.553200  -113.664000
  H     48.844000  -15.815000  -113.009000
  C     50.689600  -15.740400  -112.049000
  H     50.295300  -15.059800  -111.343000
  H     50.613400  -16.706300  -111.546000
  H     51.755600  -15.544000  -112.309000
  S     47.607400  -14.388800  -120.148000
  C     47.700200  -12.705000  -120.699000
  C     48.087500  -11.819700  -119.716000
  C     48.497600  -12.499500  -118.564000
  C     48.248500  -13.886600  -118.610000
  H     48.212700  -10.822800  -119.987000
  C     49.181800  -11.650900  -117.514000
  H     49.216800  -12.065200  -116.494000
  H     48.590200  -10.725600  -117.416000
  C     50.680800  -11.206100  -117.807000
  H     50.593700  -10.685500  -118.763000
  H     51.412200  -11.966200  -117.993000
  C     51.099000  -10.133800  -116.790000
  H     50.251400   -9.455220  -116.541000
  H     51.944100   -9.579120  -117.227000
  H     51.452800  -10.396600  -115.809000
  H     48.609500  -18.180600  -116.012000
  H     47.369600  -12.346400  -121.645000

 Total Charge           Charge          ....    0
 Multiplicity           Mult            ....    1
 Number of Electrons    NEL             ....  134
 Basis Dimension        Dim             ....  322

ORBITAL ENERGIES
----------------

  NO   OCC          E(Eh)            E(eV)
   0   2.0000     -88.971120     -2421.0272
   1   2.0000     -88.961006     -2420.7520
   2   2.0000     -10.336434      -281.2687
   3   2.0000     -10.334713      -281.2218
   4   2.0000     -10.319061      -280.7959
   5   2.0000     -10.317474      -280.7528
   6   2.0000     -10.308429      -280.5066
   7   2.0000     -10.307126      -280.4712
   8   2.0000     -10.299827      -280.2725
   9   2.0000     -10.294386      -280.1245
  10   2.0000     -10.293827      -280.1093
  11   2.0000     -10.293775      -280.1079
  12   2.0000     -10.291103      -280.0352
  13   2.0000     -10.290664      -280.0232
  14   2.0000     -10.283784      -279.8360
  15   2.0000     -10.280286      -279.7408
  16   2.0000      -8.085606      -220.0205
  17   2.0000      -8.074989      -219.7316
  18   2.0000      -6.044121      -164.4689
  19   2.0000      -6.040231      -164.3630
  20   2.0000      -6.036303      -164.2562
  21   2.0000      -6.033592      -164.1824
  22   2.0000      -6.029619      -164.0743
  23   2.0000      -6.025707      -163.9678
  24   2.0000      -1.004438       -27.3321
  25   2.0000      -0.977998       -26.6127
  26   2.0000      -0.910735       -24.7824
  27   2.0000      -0.906109       -24.6565
  28   2.0000      -0.867955       -23.6183
  29   2.0000      -0.854205       -23.2441
  30   2.0000      -0.841304       -22.8931
  31   2.0000      -0.817511       -22.2456
  32   2.0000      -0.780326       -21.2337
  33   2.0000      -0.768630       -20.9155
  34   2.0000      -0.711583       -19.3631
  35   2.0000      -0.703223       -19.1357
  36   2.0000      -0.694277       -18.8922
  37   2.0000      -0.669460       -18.2169
  38   2.0000      -0.644906       -17.5488
  39   2.0000      -0.620289       -16.8789
  40   2.0000      -0.599808       -16.3216
  41   2.0000      -0.567605       -15.4453
  42   2.0000      -0.564267       -15.3545
  43   2.0000      -0.551171       -14.9981
  44   2.0000      -0.530369       -14.4321
  45   2.0000      -0.523213       -14.2374
  46   2.0000      -0.520125       -14.1533
  47   2.0000      -0.513812       -13.9815
  48   2.0000      -0.506662       -13.7870
  49   2.0000      -0.494795       -13.4641
  50   2.0000      -0.487853       -13.2751
  51   2.0000      -0.486180       -13.2296
  52   2.0000      -0.472523       -12.8580
  53   2.0000      -0.470940       -12.8149
  54   2.0000      -0.457409       -12.4467
  55   2.0000      -0.451517       -12.2864
  56   2.0000      -0.446665       -12.1544
  57   2.0000      -0.443699       -12.0737
  58   2.0000      -0.438098       -11.9213
  59   2.0000      -0.431843       -11.7511
  60   2.0000      -0.420052       -11.4302
  61   2.0000      -0.411027       -11.1846
  62   2.0000      -0.397097       -10.8056
  63   2.0000      -0.357992        -9.7415
  64   2.0000      -0.337371        -9.1803
  65   2.0000      -0.325223        -8.8498
  66   2.0000      -0.280079        -7.6213
  67   0.0000       0.016267         0.4427
  68   0.0000       0.080231         2.1832
  69   0.0000       0.090660         2.4670
  70   0.0000       0.115867         3.1529
  71   0.0000       0.132393         3.6026

MULLIKEN ATOMIC CHARGES
-----------------------
   0 S :    0.068121
   1 C :   -0.125617
   2 C :   -0.085505
   3 C :    0.023811
   4 C :   -0.120147
   5 H :   -0.013372
   6 C :    0.102649
   7 H :    0.029825
   8 H :    0.022948
   9 C :   -0.095176
  10 H :    0.026043
  11 H :    0.027570
  12 C :   -0.050931
  13 H :    0.028259
  14 H :    0.036253
  15 H :    0.034682
  16 S :    0.099696
  17 C :   -0.077408
  18 C :   -0.011137
  19 C :   -0.034562
  20 C :   -0.085107
  21 H :    0.005011
  22 C :   -0.008570
  23 H :    0.030504
  24 H :    0.031079
  25 C :   -0.050188
  26 H :    0.019364
  27 H :    0.038771
  28 C :   -0.060824
  29 H :    0.030477
  30 H :    0.038118
  31 H :    0.027700
  32 H :    0.056108
  33 H :    0.041554
Sum of atomic charges:   -0.0000000

LOEWDIN ATOMIC CHARGES
----------------------
   0 S :    0.361397
   1 C :   -0.184368
   2 C :   -0.053895
   3 C :   -0.072651
   4 C :   -0.172124
   5 H :    0.023012
   6 C :   -0.033287
   7 H :    0.035342
   8 H :    0.034203
   9 C :   -0.046615
  10 H :    0.023555
  11 H :    0.029349
  12 C :   -0.064973
  13 H :    0.021377
  14 H :    0.025129
  15 H :    0.025434
  16 S :    0.405758
  17 C :   -0.162061
  18 C :   -0.060696
  19 C :   -0.055808
  20 C :   -0.195864
  21 H :    0.026299
  22 C :   -0.036691
  23 H :    0.025394
  24 H :    0.034412
  25 C :   -0.035371
  26 H :    0.024241
  27 H :    0.023012
  28 C :   -0.071358
  29 H :    0.029837
  30 H :    0.031050
  31 H :    0.019881
  32 H :    0.026190
  33 H :    0.020890

  Mayer bond orders larger than 0.100000
B(  0-S ,  1-C ) :   1.1195 B(  0-S ,  4-C ) :   1.1469 B(  1-C ,  2-C ) :   1.5990
B(  1-C , 32-H ) :   0.9748 B(  2-C ,  3-C ) :   1.2201 B(  2-C ,  6-C ) :   1.0328
B(  3-C ,  4-C ) :   1.5823 B(  3-C ,  5-H ) :   0.9966 B(  4-C , 20-C ) :   1.0474
B(  6-C ,  7-H ) :   0.9312 B(  6-C ,  8-H ) :   0.9419 B(  6-C ,  9-C ) :   1.0524
B(  9-C , 10-H ) :   0.9594 B(  9-C , 11-H ) :   0.9559 B(  9-C , 12-C ) :   1.0744
B( 12-C , 13-H ) :   0.9753 B( 12-C , 14-H ) :   0.9780 B( 12-C , 15-H ) :   0.9781
B( 16-S , 17-C ) :   1.1610 B( 16-S , 20-C ) :   1.1333 B( 17-C , 18-C ) :   1.6138
B( 17-C , 33-H ) :   0.9649 B( 18-C , 19-C ) :   1.2454 B( 18-C , 21-H ) :   0.9977
B( 19-C , 20-C ) :   1.5833 B( 19-C , 22-C ) :   1.0402 B( 22-C , 23-H ) :   0.9471
B( 22-C , 24-H ) :   0.9346 B( 22-C , 25-C ) :   1.0519 B( 25-C , 26-H ) :   0.9535
B( 25-C , 27-H ) :   0.9585 B( 25-C , 28-C ) :   1.0694 B( 28-C , 29-H ) :   0.9723
B( 28-C , 30-H ) :   0.9750 B( 28-C , 31-H ) :   0.9773

Dispersion correction           -0.013487680
FINAL SINGLE POINT ENERGY     -1339.863357321558

DIPOLE MOMENT
-------------
                                X             Y             Z
Electronic contribution:    -16.84730     -14.28682     -24.97211
Nuclear contribution   :     17.23171      14.87844      25.31115
                        -----------------------------------------
Total Dipole Moment    :      0.38441       0.59161       0.33905
                        -----------------------------------------
Magnitude (a.u.)       :      0.78277
Magnitude (Debye)      :      1.98965

Rotational constants in cm-1:     0.016448     0.009096     0.006074
Rotational constants in MHz :   493.097950   272.677705   182.088208

                             ****ORCA TERMINATED NORMALLY****
TOTAL RUN TIME: 0 days 0 hours 0 minutes 21 seconds 120 msec
