                         Program Version 4.2.1 -  RELEASE  -
|  1> ! wB97X-D3 SP def2-SVP
|  2> %pal
|  3> nprocs 24
|  4> end
|  5>
|  6> * xyz 0 1
|  7> S 	 -107.582 	 31.0498 	 -19.6719
|  8> C 	 -105.866 	 31.2895 	 -19.0846
|  9> C 	 -105.376 	 32.5652 	 -19.338
| 10> C 	 -106.364 	 33.3668 	 -20.0574
| 11> C 	 -107.566 	 32.7197 	 -20.3505
| 12> H 	 -106.309 	 34.4663 	 -20.4003
| 13> C 	 -103.993 	 33.0487 	 -19.0354
| 14> H 	 -103.912 	 34.1158 	 -19.1855
| 15> H 	 -103.39 	 32.4768 	 -19.7017
| 16> C 	 -103.333 	 32.8265 	 -17.6581
| 17> H 	 -103.804 	 33.2844 	 -16.7862
| 18> H 	 -103.396 	 31.7796 	 -17.3765
| 19> C 	 -101.924 	 33.3822 	 -17.6203
| 20> H 	 -102.054 	 34.4589 	 -17.5537
| 21> H 	 -101.353 	 33.2174 	 -16.6623
| 22> H 	 -101.195 	 33.1856 	 -18.4318
| 23> S 	 -109.485 	 34.5575 	 -20.0192
| 24> C 	 -110.69 	 34.8145 	 -21.2833
| 25> C 	 -110.517 	 33.9481 	 -22.3365
| 26> C 	 -109.489 	 32.9566 	 -22.0396
| 27> C 	 -108.717 	 33.2854 	 -20.9222
| 28> H 	 -111.252 	 33.9757 	 -23.1192
| 29> C 	 -109.21 	 31.8909 	 -23.0213
| 30> H 	 -108.127 	 31.6356 	 -22.9597
| 31> H 	 -109.319 	 32.2244 	 -24.0169
| 32> C 	 -110.049 	 30.6472 	 -22.9103
| 33> H 	 -110.023 	 30.2815 	 -21.9101
| 34> H 	 -109.538 	 29.8527 	 -23.4543
| 35> C 	 -111.581 	 30.8725 	 -23.3599
| 36> H 	 -112.041 	 29.9169 	 -23.4901
| 37> H 	 -111.686 	 31.5534 	 -24.209
| 38> H 	 -112.08 	 31.3751 	 -22.5677
| 39> H 	 -105.218 	 30.4233 	 -18.6109
| 40> H 	 -111.476 	 35.5808 	 -21.2976
| 41> *
| 42>
| 43>                          ****END OF INPUT****

CARTESIAN COORDINATES (ANGSTROEM)
---------------------------------
  S    -107.582000   31.049800  -19.671900
  C    -105.866000   31.289500  -19.084600
  C    -105.376000   32.565200  -19.338000
  C    -106.364000   33.366800  -20.057400
  C    -107.566000   32.719700  -20.350500
  H    -106.309000   34.466300  -20.400300
  C    -103.993000   33.048700  -19.035400
  H    -103.912000   34.115800  -19.185500
  H    -103.390000   32.476800  -19.701700
  C    -103.333000   32.826500  -17.658100
  H    -103.804000   33.284400  -16.786200
  H    -103.396000   31.779600  -17.376500
  C    -101.924000   33.382200  -17.620300
  H    -102.054000   34.458900  -17.553700
  H    -101.353000   33.217400  -16.662300
  H    -101.195000   33.185600  -18.431800
  S    -109.485000   34.557500  -20.019200
  C    -110.690000   34.814500  -21.283300
  C    -110.517000   33.948100  -22.336500
  C    -109.489000   32.956600  -22.039600
  C    -108.717000   33.285400  -20.922200
  H    -111.252000   33.975700  -23.119200
  C    -109.210000   31.890900  -23.021300
  H    -108.127000   31.635600  -22.959700
  H    -109.319000   32.224400  -24.016900
  C    -110.049000   30.647200  -22.910300
  H    -110.023000   30.281500  -21.910100
  H    -109.538000   29.852700  -23.454300
  C    -111.581000   30.872500  -23.359900
  H    -112.041000   29.916900  -23.490100
  H    -111.686000   31.553400  -24.209000
  H    -112.080000   31.375100  -22.567700
  H    -105.218000   30.423300  -18.610900
  H    -111.476000   35.580800  -21.297600

 Total Charge           Charge          ....    0
 Multiplicity           Mult            ....    1
 Number of Electrons    NEL             ....  134
 Basis Dimension        Dim             ....  322

ORBITAL ENERGIES
----------------

  NO   OCC          E(Eh)            E(eV)
   0   2.0000     -88.967687     -2420.9338
   1   2.0000     -88.964537     -2420.8481
   2   2.0000     -10.331234      -281.1272
   3   2.0000     -10.329893      -281.0907
   4   2.0000     -10.322102      -280.8787
   5   2.0000     -10.319018      -280.7948
   6   2.0000     -10.310922      -280.5745
   7   2.0000     -10.307478      -280.4807
   8   2.0000     -10.304614      -280.4028
   9   2.0000     -10.294481      -280.1271
  10   2.0000     -10.292890      -280.0838
  11   2.0000     -10.289024      -279.9786
  12   2.0000     -10.283777      -279.8358
  13   2.0000     -10.281551      -279.7752
  14   2.0000     -10.279484      -279.7190
  15   2.0000     -10.275666      -279.6151
  16   2.0000      -8.080178      -219.8728
  17   2.0000      -8.079242      -219.8473
  18   2.0000      -6.038907      -164.3270
  19   2.0000      -6.037800      -164.2969
  20   2.0000      -6.035153      -164.2249
  21   2.0000      -6.033701      -164.1853
  22   2.0000      -6.030685      -164.1033
  23   2.0000      -6.029975      -164.0840
  24   2.0000      -1.003454       -27.3054
  25   2.0000      -0.972369       -26.4595
  26   2.0000      -0.915583       -24.9143
  27   2.0000      -0.909138       -24.7389
  28   2.0000      -0.874424       -23.7943
  29   2.0000      -0.846031       -23.0217
  30   2.0000      -0.838242       -22.8097
  31   2.0000      -0.811576       -22.0841
  32   2.0000      -0.785020       -21.3615
  33   2.0000      -0.770308       -20.9611
  34   2.0000      -0.711086       -19.3496
  35   2.0000      -0.707606       -19.2549
  36   2.0000      -0.691115       -18.8062
  37   2.0000      -0.662588       -18.0299
  38   2.0000      -0.630629       -17.1603
  39   2.0000      -0.608857       -16.5678
  40   2.0000      -0.594557       -16.1787
  41   2.0000      -0.577452       -15.7133
  42   2.0000      -0.563267       -15.3273
  43   2.0000      -0.546961       -14.8836
  44   2.0000      -0.538438       -14.6516
  45   2.0000      -0.521143       -14.1810
  46   2.0000      -0.516576       -14.0568
  47   2.0000      -0.512274       -13.9397
  48   2.0000      -0.506135       -13.7726
  49   2.0000      -0.497994       -13.5511
  50   2.0000      -0.485786       -13.2189
  51   2.0000      -0.477323       -12.9886
  52   2.0000      -0.470141       -12.7932
  53   2.0000      -0.463529       -12.6133
  54   2.0000      -0.456000       -12.4084
  55   2.0000      -0.450248       -12.2519
  56   2.0000      -0.441861       -12.0236
  57   2.0000      -0.437893       -11.9157
  58   2.0000      -0.434574       -11.8254
  59   2.0000      -0.424707       -11.5569
  60   2.0000      -0.415761       -11.3134
  61   2.0000      -0.413966       -11.2646
  62   2.0000      -0.411108       -11.1868
  63   2.0000      -0.337909        -9.1950
  64   2.0000      -0.333194        -9.0667
  65   2.0000      -0.324014        -8.8169
  66   2.0000      -0.297426        -8.0934
  67   0.0000       0.028503         0.7756
  68   0.0000       0.061950         1.6857
  69   0.0000       0.095961         2.6112
  70   0.0000       0.113199         3.0803
  71   0.0000       0.121365         3.3025

MULLIKEN ATOMIC CHARGES
-----------------------
   0 S :    0.099768
   1 C :   -0.177005
   2 C :   -0.053340
   3 C :   -0.006821
   4 C :   -0.161638
   5 H :    0.050472
   6 C :    0.079948
   7 H :    0.023031
   8 H :    0.039528
   9 C :   -0.056720
  10 H :    0.028625
  11 H :    0.016633
  12 C :   -0.090835
  13 H :    0.025272
  14 H :    0.037954
  15 H :    0.040452
  16 S :    0.118152
  17 C :   -0.098873
  18 C :   -0.027166
  19 C :   -0.014006
  20 C :   -0.167880
  21 H :    0.017820
  22 C :    0.039926
  23 H :    0.030703
  24 H :    0.012252
  25 C :   -0.046241
  26 H :    0.011503
  27 H :    0.026574
  28 C :   -0.047278
  29 H :    0.038503
  30 H :    0.027798
  31 H :    0.031904
  32 H :    0.091411
  33 H :    0.059573
Sum of atomic charges:   -0.0000000

LOEWDIN ATOMIC CHARGES
----------------------
   0 S :    0.353735
   1 C :   -0.193797
   2 C :   -0.062748
   3 C :   -0.066942
   4 C :   -0.185971
   5 H :    0.048399
   6 C :   -0.028292
   7 H :    0.031486
   8 H :    0.038783
   9 C :   -0.042039
  10 H :    0.028747
  11 H :    0.016296
  12 C :   -0.078280
  13 H :    0.025546
  14 H :    0.034705
  15 H :    0.025898
  16 S :    0.410372
  17 C :   -0.180956
  18 C :   -0.069454
  19 C :   -0.044362
  20 C :   -0.213515
  21 H :    0.030336
  22 C :   -0.041746
  23 H :    0.036312
  24 H :    0.024417
  25 C :   -0.030446
  26 H :    0.015893
  27 H :    0.024404
  28 C :   -0.061247
  29 H :    0.025352
  30 H :    0.021960
  31 H :    0.022405
  32 H :    0.051451
  33 H :    0.033297

  Mayer bond orders larger than 0.100000
B(  0-S ,  1-C ) :   1.1127 B(  0-S ,  4-C ) :   1.1092 B(  1-C ,  2-C ) :   1.6414
B(  1-C , 32-H ) :   0.9506 B(  2-C ,  3-C ) :   1.2006 B(  2-C ,  6-C ) :   1.0181
B(  3-C ,  4-C ) :   1.6076 B(  3-C ,  5-H ) :   0.9767 B(  4-C , 20-C ) :   1.0858
B(  6-C ,  7-H ) :   0.9496 B(  6-C ,  8-H ) :   0.9308 B(  6-C ,  9-C ) :   1.0601
B(  9-C , 10-H ) :   0.9546 B(  9-C , 11-H ) :   0.9537 B(  9-C , 12-C ) :   1.0754
B( 12-C , 13-H ) :   0.9746 B( 12-C , 14-H ) :   0.9710 B( 12-C , 15-H ) :   0.9775
B( 16-S , 17-C ) :   1.1478 B( 16-S , 20-C ) :   1.1324 B( 17-C , 18-C ) :   1.6370
B( 17-C , 33-H ) :   0.9621 B( 18-C , 19-C ) :   1.2126 B( 18-C , 21-H ) :   0.9875
B( 19-C , 20-C ) :   1.5774 B( 19-C , 22-C ) :   1.0648 B( 22-C , 23-H ) :   0.9274
B( 22-C , 24-H ) :   0.9390 B( 22-C , 25-C ) :   1.0780 B( 25-C , 26-H ) :   0.9513
B( 25-C , 27-H ) :   0.9577 B( 25-C , 28-C ) :   1.0595 B( 28-C , 29-H ) :   0.9756
B( 28-C , 30-H ) :   0.9785 B( 28-C , 31-H ) :   0.9740

Dispersion correction           -0.014197123
FINAL SINGLE POINT ENERGY     -1339.862336297136

DIPOLE MOMENT
-------------
                                X             Y             Z
Electronic contribution:    -11.66794       4.57299       3.43080
Nuclear contribution   :     11.93435      -4.47677      -3.60892
                        -----------------------------------------
Total Dipole Moment    :      0.26641       0.09622      -0.17812
                        -----------------------------------------
Magnitude (a.u.)       :      0.33460
Magnitude (Debye)      :      0.85049

Rotational constants in cm-1:     0.027683     0.006626     0.005772
Rotational constants in MHz :   829.912432   198.642691   173.048923

                             ****ORCA TERMINATED NORMALLY****
TOTAL RUN TIME: 0 days 0 hours 0 minutes 19 seconds 850 msec
