                         Program Version 4.2.1 -  RELEASE  -
|  1> ! wB97X-D3 SP def2-SVP
|  2> %pal
|  3> nprocs 24
|  4> end
|  5>
|  6> * xyz 0 1
|  7> S 	 -61.0157 	 -3.39429 	 -21.7458
|  8> C 	 -61.6025 	 -3.23146 	 -20.0326
|  9> C 	 -62.6489 	 -2.28578 	 -19.986
| 10> C 	 -62.9601 	 -1.7104 	 -21.2741
| 11> C 	 -62.3111 	 -2.26889 	 -22.3666
| 12> H 	 -63.6867 	 -0.924248 	 -21.3899
| 13> C 	 -63.3141 	 -1.83822 	 -18.7516
| 14> H 	 -63.1059 	 -0.79341 	 -18.535
| 15> H 	 -62.8861 	 -2.38771 	 -17.9105
| 16> C 	 -64.7485 	 -2.09872 	 -18.8131
| 17> H 	 -65.2239 	 -1.52188 	 -19.6705
| 18> H 	 -64.8506 	 -3.14963 	 -19.0481
| 19> C 	 -65.4363 	 -1.74642 	 -17.507
| 20> H 	 -64.903 	 -2.13757 	 -16.635
| 21> H 	 -65.579 	 -0.660688 	 -17.4071
| 22> H 	 -66.5029 	 -2.18411 	 -17.4433
| 23> S 	 -60.7273 	 -1.1209 	 -24.3647
| 24> C 	 -61.5512 	 -0.395462 	 -25.6892
| 25> C 	 -62.8972 	 -0.760695 	 -25.7152
| 26> C 	 -63.3214 	 -1.50051 	 -24.5908
| 27> C 	 -62.2602 	 -1.71525 	 -23.738
| 28> H 	 -63.4678 	 -0.430559 	 -26.5814
| 29> C 	 -64.7433 	 -1.96015 	 -24.3971
| 30> H 	 -65.5123 	 -1.81655 	 -25.116
| 31> H 	 -65.103 	 -1.44422 	 -23.4588
| 32> C 	 -64.7418 	 -3.47152 	 -24.1545
| 33> H 	 -65.768 	 -3.82596 	 -23.9306
| 34> H 	 -64.0451 	 -3.7051 	 -23.3466
| 35> C 	 -64.1391 	 -4.28012 	 -25.3669
| 36> H 	 -63.0254 	 -4.24502 	 -25.2072
| 37> H 	 -64.3844 	 -4.01774 	 -26.3979
| 38> H 	 -64.4541 	 -5.31464 	 -25.4188
| 39> H 	 -61.3425 	 -3.82774 	 -19.1189
| 40> H 	 -61.0815 	 0.243921 	 -26.4572
| 41> *
| 42>
| 43>                          ****END OF INPUT****

CARTESIAN COORDINATES (ANGSTROEM)
---------------------------------
  S    -61.015700   -3.394290  -21.745800
  C    -61.602500   -3.231460  -20.032600
  C    -62.648900   -2.285780  -19.986000
  C    -62.960100   -1.710400  -21.274100
  C    -62.311100   -2.268890  -22.366600
  H    -63.686700   -0.924248  -21.389900
  C    -63.314100   -1.838220  -18.751600
  H    -63.105900   -0.793410  -18.535000
  H    -62.886100   -2.387710  -17.910500
  C    -64.748500   -2.098720  -18.813100
  H    -65.223900   -1.521880  -19.670500
  H    -64.850600   -3.149630  -19.048100
  C    -65.436300   -1.746420  -17.507000
  H    -64.903000   -2.137570  -16.635000
  H    -65.579000   -0.660688  -17.407100
  H    -66.502900   -2.184110  -17.443300
  S    -60.727300   -1.120900  -24.364700
  C    -61.551200   -0.395462  -25.689200
  C    -62.897200   -0.760695  -25.715200
  C    -63.321400   -1.500510  -24.590800
  C    -62.260200   -1.715250  -23.738000
  H    -63.467800   -0.430559  -26.581400
  C    -64.743300   -1.960150  -24.397100
  H    -65.512300   -1.816550  -25.116000
  H    -65.103000   -1.444220  -23.458800
  C    -64.741800   -3.471520  -24.154500
  H    -65.768000   -3.825960  -23.930600
  H    -64.045100   -3.705100  -23.346600
  C    -64.139100   -4.280120  -25.366900
  H    -63.025400   -4.245020  -25.207200
  H    -64.384400   -4.017740  -26.397900
  H    -64.454100   -5.314640  -25.418800
  H    -61.342500   -3.827740  -19.118900
  H    -61.081500    0.243921  -26.457200

 Total Charge           Charge          ....    0
 Multiplicity           Mult            ....    1
 Number of Electrons    NEL             ....  134
 Basis Dimension        Dim             ....  322

ORBITAL ENERGIES
----------------

  NO   OCC          E(Eh)            E(eV)
   0   2.0000     -88.969998     -2420.9967
   1   2.0000     -88.967654     -2420.9329
   2   2.0000     -10.340156      -281.3699
   3   2.0000     -10.328174      -281.0439
   4   2.0000     -10.326937      -281.0102
   5   2.0000     -10.317775      -280.7609
   6   2.0000     -10.304512      -280.4000
   7   2.0000     -10.303340      -280.3681
   8   2.0000     -10.298660      -280.2408
   9   2.0000     -10.293241      -280.0933
  10   2.0000     -10.292369      -280.0696
  11   2.0000     -10.285664      -279.8871
  12   2.0000     -10.285095      -279.8717
  13   2.0000     -10.284693      -279.8607
  14   2.0000     -10.283830      -279.8372
  15   2.0000     -10.272668      -279.5335
  16   2.0000      -8.084859      -220.0002
  17   2.0000      -8.079935      -219.8662
  18   2.0000      -6.043248      -164.4451
  19   2.0000      -6.039404      -164.3405
  20   2.0000      -6.038834      -164.3250
  21   2.0000      -6.035675      -164.2391
  22   2.0000      -6.034803      -164.2153
  23   2.0000      -6.030406      -164.0957
  24   2.0000      -1.005611       -27.3641
  25   2.0000      -0.977027       -26.5863
  26   2.0000      -0.925565       -25.1859
  27   2.0000      -0.910244       -24.7690
  28   2.0000      -0.864387       -23.5212
  29   2.0000      -0.845020       -22.9942
  30   2.0000      -0.839893       -22.8547
  31   2.0000      -0.811136       -22.0721
  32   2.0000      -0.783218       -21.3124
  33   2.0000      -0.769772       -20.9466
  34   2.0000      -0.710069       -19.3220
  35   2.0000      -0.694523       -18.8989
  36   2.0000      -0.682655       -18.5760
  37   2.0000      -0.660693       -17.9784
  38   2.0000      -0.638118       -17.3641
  39   2.0000      -0.621478       -16.9113
  40   2.0000      -0.602728       -16.4011
  41   2.0000      -0.578823       -15.7506
  42   2.0000      -0.562717       -15.3123
  43   2.0000      -0.547021       -14.8852
  44   2.0000      -0.544018       -14.8035
  45   2.0000      -0.522769       -14.2253
  46   2.0000      -0.515162       -14.0183
  47   2.0000      -0.504239       -13.7211
  48   2.0000      -0.501478       -13.6459
  49   2.0000      -0.499967       -13.6048
  50   2.0000      -0.491952       -13.3867
  51   2.0000      -0.471865       -12.8401
  52   2.0000      -0.469729       -12.7820
  53   2.0000      -0.463516       -12.6129
  54   2.0000      -0.457314       -12.4442
  55   2.0000      -0.445777       -12.1302
  56   2.0000      -0.441430       -12.0119
  57   2.0000      -0.436102       -11.8669
  58   2.0000      -0.429955       -11.6997
  59   2.0000      -0.421241       -11.4626
  60   2.0000      -0.418029       -11.3751
  61   2.0000      -0.416832       -11.3426
  62   2.0000      -0.408037       -11.1032
  63   2.0000      -0.345784        -9.4093
  64   2.0000      -0.334562        -9.1039
  65   2.0000      -0.326571        -8.8864
  66   2.0000      -0.290488        -7.9046
  67   0.0000       0.025792         0.7018
  68   0.0000       0.058915         1.6032
  69   0.0000       0.102524         2.7898
  70   0.0000       0.120260         3.2724
  71   0.0000       0.129056         3.5118

MULLIKEN ATOMIC CHARGES
-----------------------
   0 S :    0.076103
   1 C :   -0.122975
   2 C :   -0.115216
   3 C :    0.049123
   4 C :   -0.165690
   5 H :    0.016955
   6 C :    0.096620
   7 H :    0.032463
   8 H :    0.002126
   9 C :   -0.105156
  10 H :    0.038675
  11 H :    0.029555
  12 C :   -0.055193
  13 H :    0.030873
  14 H :    0.035637
  15 H :    0.042459
  16 S :    0.134975
  17 C :   -0.116523
  18 C :   -0.050546
  19 C :   -0.011788
  20 C :   -0.166263
  21 H :    0.019123
  22 C :    0.106393
  23 H :    0.019459
  24 H :    0.034683
  25 C :   -0.098650
  26 H :    0.031379
  27 H :    0.053553
  28 C :   -0.077833
  29 H :    0.051312
  30 H :    0.021350
  31 H :    0.026445
  32 H :    0.069555
  33 H :    0.067018
Sum of atomic charges:   -0.0000000

LOEWDIN ATOMIC CHARGES
----------------------
   0 S :    0.342347
   1 C :   -0.190058
   2 C :   -0.058689
   3 C :   -0.053988
   4 C :   -0.167811
   5 H :    0.027771
   6 C :   -0.037732
   7 H :    0.032884
   8 H :    0.028543
   9 C :   -0.048503
  10 H :    0.029689
  11 H :    0.025782
  12 C :   -0.071652
  13 H :    0.023605
  14 H :    0.026506
  15 H :    0.035255
  16 S :    0.423538
  17 C :   -0.198936
  18 C :   -0.073159
  19 C :   -0.050995
  20 C :   -0.203435
  21 H :    0.032843
  22 C :   -0.029643
  23 H :    0.026931
  24 H :    0.038615
  25 C :   -0.036647
  26 H :    0.021637
  27 H :    0.027179
  28 C :   -0.079415
  29 H :    0.034313
  30 H :    0.019620
  31 H :    0.024120
  32 H :    0.043496
  33 H :    0.035989

  Mayer bond orders larger than 0.100000
B(  0-S ,  1-C ) :   1.1101 B(  0-S ,  4-C ) :   1.1142 B(  1-C ,  2-C ) :   1.6274
B(  1-C , 32-H ) :   0.9557 B(  2-C ,  3-C ) :   1.2248 B(  2-C ,  6-C ) :   1.0461
B(  3-C ,  4-C ) :   1.5933 B(  3-C ,  5-H ) :   0.9827 B(  4-C , 20-C ) :   1.0287
B(  6-C ,  7-H ) :   0.9304 B(  6-C ,  8-H ) :   0.9302 B(  6-C ,  9-C ) :   1.0656
B(  9-C , 10-H ) :   0.9500 B(  9-C , 11-H ) :   0.9521 B(  9-C , 12-C ) :   1.0873
B( 12-C , 13-H ) :   0.9721 B( 12-C , 14-H ) :   0.9726 B( 12-C , 15-H ) :   0.9737
B( 16-S , 17-C ) :   1.1671 B( 16-S , 20-C ) :   1.1459 B( 17-C , 18-C ) :   1.5959
B( 17-C , 33-H ) :   0.9644 B( 18-C , 19-C ) :   1.2476 B( 18-C , 21-H ) :   0.9947
B( 19-C , 20-C ) :   1.5799 B( 19-C , 22-C ) :   1.0278 B( 22-C , 23-H ) :   0.9493
B( 22-C , 24-H ) :   0.9268 B( 22-C , 25-C ) :   1.0698 B( 25-C , 26-H ) :   0.9605
B( 25-C , 27-H ) :   0.9567 B( 25-C , 28-C ) :   1.0512 B( 28-C , 29-H ) :   0.9764
B( 28-C , 30-H ) :   0.9786 B( 28-C , 31-H ) :   0.9761

Dispersion correction           -0.015202683
FINAL SINGLE POINT ENERGY     -1339.871231657643

DIPOLE MOMENT
-------------
                                X             Y             Z
Electronic contribution:     23.11547       3.49099     -10.48475
Nuclear contribution   :    -23.73249      -3.20204      10.69398
                        -----------------------------------------
Total Dipole Moment    :     -0.61701       0.28895       0.20923
                        -----------------------------------------
Magnitude (a.u.)       :      0.71273
Magnitude (Debye)      :      1.81160

Rotational constants in cm-1:     0.020527     0.008444     0.007436
Rotational constants in MHz :   615.388261   253.159454   222.940079

                             ****ORCA TERMINATED NORMALLY****
TOTAL RUN TIME: 0 days 0 hours 0 minutes 21 seconds 318 msec
