                         Program Version 4.2.1 -  RELEASE  -
|  1> ! wB97X-D3 SP def2-SVP
|  2> %pal
|  3> nprocs 24
|  4> end
|  5>
|  6> * xyz 0 1
|  7> S 	 -49.8484 	 18.6089 	 22.4758
|  8> C 	 -50.4902 	 19.0078 	 24.1068
|  9> C 	 -51.5987 	 18.261 	 24.3236
| 10> C 	 -51.7784 	 17.2164 	 23.3834
| 11> C 	 -50.7983 	 17.171 	 22.3957
| 12> H 	 -52.654 	 16.5911 	 23.2674
| 13> C 	 -52.6061 	 18.5487 	 25.3697
| 14> H 	 -53.5705 	 18.2559 	 25.0423
| 15> H 	 -52.7771 	 19.5911 	 25.4676
| 16> C 	 -52.3914 	 17.9528 	 26.7304
| 17> H 	 -52.2215 	 16.9229 	 26.5099
| 18> H 	 -51.4601 	 18.2698 	 27.2565
| 19> C 	 -53.6288 	 18.1098 	 27.5372
| 20> H 	 -53.5209 	 17.8686 	 28.6226
| 21> H 	 -53.992 	 19.1203 	 27.4713
| 22> H 	 -54.388 	 17.3645 	 27.1794
| 23> S 	 -49.7871 	 16.7326 	 19.9299
| 24> C 	 -50.0328 	 15.2198 	 19.0715
| 25> C 	 -51.038 	 14.4746 	 19.7234
| 26> C 	 -51.33 	 15.0061 	 21.0135
| 27> C 	 -50.7755 	 16.2269 	 21.2447
| 28> H 	 -51.4413 	 13.5556 	 19.2881
| 29> C 	 -52.1815 	 14.2707 	 22.0512
| 30> H 	 -53.1121 	 14.7673 	 21.8586
| 31> H 	 -51.9779 	 14.6326 	 23.0764
| 32> C 	 -52.3755 	 12.6823 	 22.0212
| 33> H 	 -52.8196 	 12.4291 	 21.076
| 34> H 	 -53.0497 	 12.5226 	 22.8744
| 35> C 	 -51.0752 	 11.8711 	 22.2502
| 36> H 	 -51.3266 	 10.7969 	 22.3117
| 37> H 	 -50.5856 	 12.14 	 23.1627
| 38> H 	 -50.3319 	 11.8569 	 21.4787
| 39> H 	 -50.3395 	 19.9867 	 24.6405
| 40> H 	 -49.6099 	 15.1829 	 18.0524
| 41> *
| 42>
| 43>                          ****END OF INPUT****

CARTESIAN COORDINATES (ANGSTROEM)
---------------------------------
  S    -49.848400   18.608900   22.475800
  C    -50.490200   19.007800   24.106800
  C    -51.598700   18.261000   24.323600
  C    -51.778400   17.216400   23.383400
  C    -50.798300   17.171000   22.395700
  H    -52.654000   16.591100   23.267400
  C    -52.606100   18.548700   25.369700
  H    -53.570500   18.255900   25.042300
  H    -52.777100   19.591100   25.467600
  C    -52.391400   17.952800   26.730400
  H    -52.221500   16.922900   26.509900
  H    -51.460100   18.269800   27.256500
  C    -53.628800   18.109800   27.537200
  H    -53.520900   17.868600   28.622600
  H    -53.992000   19.120300   27.471300
  H    -54.388000   17.364500   27.179400
  S    -49.787100   16.732600   19.929900
  C    -50.032800   15.219800   19.071500
  C    -51.038000   14.474600   19.723400
  C    -51.330000   15.006100   21.013500
  C    -50.775500   16.226900   21.244700
  H    -51.441300   13.555600   19.288100
  C    -52.181500   14.270700   22.051200
  H    -53.112100   14.767300   21.858600
  H    -51.977900   14.632600   23.076400
  C    -52.375500   12.682300   22.021200
  H    -52.819600   12.429100   21.076000
  H    -53.049700   12.522600   22.874400
  C    -51.075200   11.871100   22.250200
  H    -51.326600   10.796900   22.311700
  H    -50.585600   12.140000   23.162700
  H    -50.331900   11.856900   21.478700
  H    -50.339500   19.986700   24.640500
  H    -49.609900   15.182900   18.052400

 Total Charge           Charge          ....    0
 Multiplicity           Mult            ....    1
 Number of Electrons    NEL             ....  134
 Basis Dimension        Dim             ....  322

ORBITAL ENERGIES
----------------

  NO   OCC          E(Eh)            E(eV)
   0   2.0000     -88.965748     -2420.8811
   1   2.0000     -88.961892     -2420.7762
   2   2.0000     -10.333468      -281.1880
   3   2.0000     -10.325527      -280.9719
   4   2.0000     -10.324259      -280.9374
   5   2.0000     -10.315101      -280.6882
   6   2.0000     -10.305205      -280.4189
   7   2.0000     -10.303994      -280.3859
   8   2.0000     -10.298952      -280.2487
   9   2.0000     -10.295877      -280.1650
  10   2.0000     -10.295546      -280.1560
  11   2.0000     -10.290522      -280.0193
  12   2.0000     -10.280532      -279.7475
  13   2.0000     -10.279591      -279.7219
  14   2.0000     -10.279409      -279.7170
  15   2.0000     -10.276430      -279.6359
  16   2.0000      -8.080170      -219.8726
  17   2.0000      -8.077581      -219.8021
  18   2.0000      -6.038865      -164.3259
  19   2.0000      -6.035976      -164.2473
  20   2.0000      -6.034952      -164.2194
  21   2.0000      -6.031993      -164.1389
  22   2.0000      -6.030505      -164.0984
  23   2.0000      -6.028384      -164.0407
  24   2.0000      -1.011730       -27.5306
  25   2.0000      -0.988433       -26.8966
  26   2.0000      -0.925635       -25.1878
  27   2.0000      -0.902361       -24.5545
  28   2.0000      -0.872492       -23.7417
  29   2.0000      -0.854604       -23.2550
  30   2.0000      -0.842987       -22.9388
  31   2.0000      -0.814662       -22.1681
  32   2.0000      -0.785277       -21.3685
  33   2.0000      -0.775968       -21.1152
  34   2.0000      -0.710280       -19.3277
  35   2.0000      -0.703148       -19.1336
  36   2.0000      -0.695771       -18.9329
  37   2.0000      -0.664346       -18.0778
  38   2.0000      -0.636424       -17.3180
  39   2.0000      -0.622810       -16.9475
  40   2.0000      -0.598837       -16.2952
  41   2.0000      -0.574947       -15.6451
  42   2.0000      -0.564521       -15.3614
  43   2.0000      -0.552999       -15.0479
  44   2.0000      -0.537439       -14.6245
  45   2.0000      -0.526179       -14.3181
  46   2.0000      -0.524361       -14.2686
  47   2.0000      -0.507666       -13.8143
  48   2.0000      -0.505339       -13.7510
  49   2.0000      -0.496483       -13.5100
  50   2.0000      -0.492980       -13.4147
  51   2.0000      -0.480018       -13.0620
  52   2.0000      -0.476968       -12.9790
  53   2.0000      -0.466495       -12.6940
  54   2.0000      -0.461513       -12.5584
  55   2.0000      -0.450130       -12.2487
  56   2.0000      -0.446664       -12.1544
  57   2.0000      -0.436931       -11.8895
  58   2.0000      -0.436177       -11.8690
  59   2.0000      -0.427937       -11.6448
  60   2.0000      -0.423425       -11.5220
  61   2.0000      -0.415036       -11.2937
  62   2.0000      -0.408746       -11.1225
  63   2.0000      -0.359348        -9.7784
  64   2.0000      -0.332289        -9.0420
  65   2.0000      -0.325181        -8.8486
  66   2.0000      -0.285261        -7.7623
  67   0.0000       0.018541         0.5045
  68   0.0000       0.081407         2.2152
  69   0.0000       0.086248         2.3469
  70   0.0000       0.127433         3.4676
  71   0.0000       0.135463         3.6861

MULLIKEN ATOMIC CHARGES
-----------------------
   0 S :    0.085534
   1 C :   -0.122937
   2 C :   -0.068623
   3 C :   -0.033096
   4 C :   -0.069391
   5 H :    0.010281
   6 C :    0.075107
   7 H :   -0.005240
   8 H :    0.004193
   9 C :   -0.040152
  10 H :    0.011141
  11 H :    0.033535
  12 C :   -0.057390
  13 H :    0.037843
  14 H :    0.028779
  15 H :    0.038208
  16 S :    0.079503
  17 C :   -0.111777
  18 C :   -0.034077
  19 C :   -0.065816
  20 C :   -0.126082
  21 H :    0.030151
  22 C :   -0.015364
  23 H :    0.041249
  24 H :    0.037719
  25 C :   -0.023239
  26 H :    0.028990
  27 H :    0.039280
  28 C :   -0.044222
  29 H :    0.029786
  30 H :    0.030389
  31 H :    0.030030
  32 H :    0.067890
  33 H :    0.077794
Sum of atomic charges:   -0.0000000

LOEWDIN ATOMIC CHARGES
----------------------
   0 S :    0.390699
   1 C :   -0.192830
   2 C :   -0.061850
   3 C :   -0.078926
   4 C :   -0.184354
   5 H :    0.028609
   6 C :   -0.030308
   7 H :    0.026253
   8 H :    0.022855
   9 C :   -0.042984
  10 H :    0.020409
  11 H :    0.027388
  12 C :   -0.068082
  13 H :    0.030257
  14 H :    0.021055
  15 H :    0.032509
  16 S :    0.406461
  17 C :   -0.182139
  18 C :   -0.069845
  19 C :   -0.060477
  20 C :   -0.202048
  21 H :    0.034625
  22 C :   -0.041698
  23 H :    0.032487
  24 H :    0.031681
  25 C :   -0.028362
  26 H :    0.019688
  27 H :    0.033595
  28 C :   -0.067039
  29 H :    0.030165
  30 H :    0.024089
  31 H :    0.022515
  32 H :    0.042581
  33 H :    0.033024

  Mayer bond orders larger than 0.100000
B(  0-S ,  1-C ) :   1.1052 B(  0-S ,  4-C ) :   1.1658 B(  1-C ,  2-C ) :   1.6274
B(  1-C , 32-H ) :   0.9586 B(  2-C ,  3-C ) :   1.2460 B(  2-C ,  6-C ) :   1.0269
B(  3-C ,  4-C ) :   1.5334 B(  3-C ,  5-H ) :   0.9918 B(  4-C , 20-C ) :   1.0614
B(  6-C ,  7-H ) :   0.9360 B(  6-C ,  8-H ) :   0.9267 B(  6-C ,  9-C ) :   1.0625
B(  9-C , 10-H ) :   0.9517 B(  9-C , 11-H ) :   0.9523 B(  9-C , 12-C ) :   1.0856
B( 12-C , 13-H ) :   0.9715 B( 12-C , 14-H ) :   0.9730 B( 12-C , 15-H ) :   0.9721
B( 16-S , 17-C ) :   1.1743 B( 16-S , 20-C ) :   1.1353 B( 17-C , 18-C ) :   1.5687
B( 17-C , 33-H ) :   0.9672 B( 18-C , 19-C ) :   1.2548 B( 18-C , 21-H ) :   0.9872
B( 19-C , 20-C ) :   1.6112 B( 19-C , 22-C ) :   1.0122 B( 22-C , 23-H ) :   0.9278
B( 22-C , 24-H ) :   0.9345 B( 22-C , 25-C ) :   1.0655 B( 25-C , 26-H ) :   0.9526
B( 25-C , 27-H ) :   0.9529 B( 25-C , 28-C ) :   1.0802 B( 28-C , 29-H ) :   0.9736
B( 28-C , 30-H ) :   0.9754 B( 28-C , 31-H ) :   0.9762

Dispersion correction           -0.013530430
FINAL SINGLE POINT ENERGY     -1339.864274147051

DIPOLE MOMENT
-------------
                                X             Y             Z
Electronic contribution:     16.36905      13.92639     -21.01666
Nuclear contribution   :    -17.05858     -14.27500      21.21598
                        -----------------------------------------
Total Dipole Moment    :     -0.68953      -0.34860       0.19932
                        -----------------------------------------
Magnitude (a.u.)       :      0.79794
Magnitude (Debye)      :      2.02819

Rotational constants in cm-1:     0.018517     0.008412     0.006073
Rotational constants in MHz :   555.128178   252.178303   182.074496

                             ****ORCA TERMINATED NORMALLY****
TOTAL RUN TIME: 0 days 0 hours 0 minutes 21 seconds 224 msec
