                         Program Version 4.2.1 -  RELEASE  -
|  1> ! wB97X-D3 SP def2-SVP
|  2> %pal
|  3> nprocs 24
|  4> end
|  5>
|  6> * xyz 0 1
|  7> S 	 -54.1709 	 -46.6206 	 -78.0672
|  8> C 	 -54.5412 	 -46.5915 	 -79.7359
|  9> C 	 -53.429 	 -46.7918 	 -80.5286
| 10> C 	 -52.2679 	 -46.9538 	 -79.7111
| 11> C 	 -52.4881 	 -46.8397 	 -78.3403
| 12> H 	 -51.2532 	 -46.9569 	 -80.051
| 13> C 	 -53.3617 	 -46.6192 	 -82.038
| 14> H 	 -54.3025 	 -46.9692 	 -82.4793
| 15> H 	 -52.6951 	 -47.3669 	 -82.3741
| 16> C 	 -53.0527 	 -45.2393 	 -82.5388
| 17> H 	 -52.5718 	 -44.7163 	 -81.7551
| 18> H 	 -52.3505 	 -45.2811 	 -83.3922
| 19> C 	 -54.3194 	 -44.4137 	 -82.8923
| 20> H 	 -54.7991 	 -44.9328 	 -83.7029
| 21> H 	 -55.0146 	 -44.5007 	 -82.097
| 22> H 	 -54.1659 	 -43.3797 	 -83.2194
| 23> S 	 -52.0557 	 -47.8732 	 -75.9289
| 24> C 	 -50.4929 	 -47.7793 	 -75.0855
| 25> C 	 -49.5672 	 -47.1404 	 -75.8392
| 26> C 	 -50.0743 	 -46.7442 	 -77.0975
| 27> C 	 -51.4893 	 -47.0101 	 -77.2776
| 28> H 	 -48.551 	 -47.1509 	 -75.4136
| 29> C 	 -49.0558 	 -46.3086 	 -78.1114
| 30> H 	 -48.238 	 -45.7651 	 -77.5982
| 31> H 	 -49.5614 	 -45.6953 	 -78.8471
| 32> C 	 -48.3733 	 -47.5038 	 -78.8789
| 33> H 	 -47.8461 	 -47.1215 	 -79.7205
| 34> H 	 -49.0878 	 -48.2007 	 -79.4166
| 35> C 	 -47.3334 	 -48.3707 	 -78.111
| 36> H 	 -46.4865 	 -47.8013 	 -77.8754
| 37> H 	 -47.0875 	 -49.1827 	 -78.7829
| 38> H 	 -47.7815 	 -48.8593 	 -77.2866
| 39> H 	 -55.5316 	 -46.4137 	 -80.033
| 40> H 	 -50.2548 	 -48.3082 	 -74.1214
| 41> *
| 42>
| 43>                          ****END OF INPUT****

CARTESIAN COORDINATES (ANGSTROEM)
---------------------------------
  S    -54.170900  -46.620600  -78.067200
  C    -54.541200  -46.591500  -79.735900
  C    -53.429000  -46.791800  -80.528600
  C    -52.267900  -46.953800  -79.711100
  C    -52.488100  -46.839700  -78.340300
  H    -51.253200  -46.956900  -80.051000
  C    -53.361700  -46.619200  -82.038000
  H    -54.302500  -46.969200  -82.479300
  H    -52.695100  -47.366900  -82.374100
  C    -53.052700  -45.239300  -82.538800
  H    -52.571800  -44.716300  -81.755100
  H    -52.350500  -45.281100  -83.392200
  C    -54.319400  -44.413700  -82.892300
  H    -54.799100  -44.932800  -83.702900
  H    -55.014600  -44.500700  -82.097000
  H    -54.165900  -43.379700  -83.219400
  S    -52.055700  -47.873200  -75.928900
  C    -50.492900  -47.779300  -75.085500
  C    -49.567200  -47.140400  -75.839200
  C    -50.074300  -46.744200  -77.097500
  C    -51.489300  -47.010100  -77.277600
  H    -48.551000  -47.150900  -75.413600
  C    -49.055800  -46.308600  -78.111400
  H    -48.238000  -45.765100  -77.598200
  H    -49.561400  -45.695300  -78.847100
  C    -48.373300  -47.503800  -78.878900
  H    -47.846100  -47.121500  -79.720500
  H    -49.087800  -48.200700  -79.416600
  C    -47.333400  -48.370700  -78.111000
  H    -46.486500  -47.801300  -77.875400
  H    -47.087500  -49.182700  -78.782900
  H    -47.781500  -48.859300  -77.286600
  H    -55.531600  -46.413700  -80.033000
  H    -50.254800  -48.308200  -74.121400

 Total Charge           Charge          ....    0
 Multiplicity           Mult            ....    1
 Number of Electrons    NEL             ....  134
 Basis Dimension        Dim             ....  322

ORBITAL ENERGIES
----------------

  NO   OCC          E(Eh)            E(eV)
   0   2.0000     -88.967468     -2420.9279
   1   2.0000     -88.964738     -2420.8536
   2   2.0000     -10.332786      -281.1694
   3   2.0000     -10.331019      -281.1213
   4   2.0000     -10.317327      -280.7487
   5   2.0000     -10.309727      -280.5419
   6   2.0000     -10.307294      -280.4757
   7   2.0000     -10.302092      -280.3342
   8   2.0000     -10.294869      -280.1376
   9   2.0000     -10.292313      -280.0681
  10   2.0000     -10.291634      -280.0496
  11   2.0000     -10.289645      -279.9955
  12   2.0000     -10.287751      -279.9439
  13   2.0000     -10.283364      -279.8246
  14   2.0000     -10.274620      -279.5866
  15   2.0000     -10.270390      -279.4715
  16   2.0000      -8.083460      -219.9621
  17   2.0000      -8.080016      -219.8684
  18   2.0000      -6.041859      -164.4073
  19   2.0000      -6.038435      -164.3142
  20   2.0000      -6.037648      -164.2928
  21   2.0000      -6.034401      -164.2044
  22   2.0000      -6.034337      -164.2026
  23   2.0000      -6.030928      -164.1099
  24   2.0000      -1.013288       -27.5730
  25   2.0000      -0.989732       -26.9320
  26   2.0000      -0.917914       -24.9777
  27   2.0000      -0.904022       -24.5997
  28   2.0000      -0.875301       -23.8181
  29   2.0000      -0.851530       -23.1713
  30   2.0000      -0.845881       -23.0176
  31   2.0000      -0.819030       -22.2870
  32   2.0000      -0.786000       -21.3882
  33   2.0000      -0.771994       -21.0070
  34   2.0000      -0.711147       -19.3513
  35   2.0000      -0.703775       -19.1507
  36   2.0000      -0.688592       -18.7375
  37   2.0000      -0.665064       -18.0973
  38   2.0000      -0.643353       -17.5065
  39   2.0000      -0.623324       -16.9615
  40   2.0000      -0.589456       -16.0399
  41   2.0000      -0.577790       -15.7225
  42   2.0000      -0.560118       -15.2416
  43   2.0000      -0.550068       -14.9681
  44   2.0000      -0.542561       -14.7638
  45   2.0000      -0.534290       -14.5388
  46   2.0000      -0.521555       -14.1922
  47   2.0000      -0.510853       -13.9010
  48   2.0000      -0.507230       -13.8024
  49   2.0000      -0.502550       -13.6751
  50   2.0000      -0.486279       -13.2323
  51   2.0000      -0.482577       -13.1316
  52   2.0000      -0.475654       -12.9432
  53   2.0000      -0.472126       -12.8472
  54   2.0000      -0.462255       -12.5786
  55   2.0000      -0.448092       -12.1932
  56   2.0000      -0.443116       -12.0578
  57   2.0000      -0.436944       -11.8898
  58   2.0000      -0.433483       -11.7957
  59   2.0000      -0.425279       -11.5724
  60   2.0000      -0.421091       -11.4585
  61   2.0000      -0.416746       -11.3402
  62   2.0000      -0.412327       -11.2200
  63   2.0000      -0.360720        -9.8157
  64   2.0000      -0.333748        -9.0817
  65   2.0000      -0.327350        -8.9076
  66   2.0000      -0.283857        -7.7241
  67   0.0000       0.025279         0.6879
  68   0.0000       0.080444         2.1890
  69   0.0000       0.110922         3.0183
  70   0.0000       0.121995         3.3197
  71   0.0000       0.135199         3.6790

MULLIKEN ATOMIC CHARGES
-----------------------
   0 S :    0.121805
   1 C :   -0.116955
   2 C :   -0.090905
   3 C :    0.019791
   4 C :   -0.134960
   5 H :   -0.007101
   6 C :    0.087756
   7 H :    0.011238
   8 H :    0.013185
   9 C :   -0.033598
  10 H :    0.023104
  11 H :    0.031907
  12 C :   -0.038893
  13 H :    0.015848
  14 H :    0.017757
  15 H :    0.043576
  16 S :    0.093970
  17 C :   -0.123383
  18 C :   -0.046460
  19 C :   -0.032861
  20 C :   -0.130865
  21 H :    0.036267
  22 C :    0.068087
  23 H :    0.030223
  24 H :    0.025218
  25 C :   -0.111172
  26 H :    0.017674
  27 H :    0.033988
  28 C :   -0.013231
  29 H :    0.026202
  30 H :    0.025915
  31 H :    0.030981
  32 H :    0.032625
  33 H :    0.073268
Sum of atomic charges:    0.0000000

LOEWDIN ATOMIC CHARGES
----------------------
   0 S :    0.437864
   1 C :   -0.198975
   2 C :   -0.061265
   3 C :   -0.064669
   4 C :   -0.208018
   5 H :    0.023727
   6 C :   -0.030362
   7 H :    0.030009
   8 H :    0.028222
   9 C :   -0.035937
  10 H :    0.020044
  11 H :    0.027347
  12 C :   -0.058190
  13 H :    0.020113
  14 H :    0.018158
  15 H :    0.029218
  16 S :    0.420332
  17 C :   -0.190938
  18 C :   -0.078240
  19 C :   -0.060813
  20 C :   -0.209937
  21 H :    0.043015
  22 C :   -0.033046
  23 H :    0.035078
  24 H :    0.027277
  25 C :   -0.042184
  26 H :    0.017349
  27 H :    0.027498
  28 C :   -0.056463
  29 H :    0.016681
  30 H :    0.030696
  31 H :    0.019628
  32 H :    0.016068
  33 H :    0.040712

  Mayer bond orders larger than 0.100000
B(  0-S ,  1-C ) :   1.1643 B(  0-S ,  4-C ) :   1.1686 B(  1-C ,  2-C ) :   1.5676
B(  1-C , 32-H ) :   0.9793 B(  2-C ,  3-C ) :   1.2666 B(  2-C ,  6-C ) :   1.0393
B(  3-C ,  4-C ) :   1.5431 B(  3-C ,  5-H ) :   0.9970 B(  4-C , 20-C ) :   1.0468
B(  6-C ,  7-H ) :   0.9402 B(  6-C ,  8-H ) :   0.9299 B(  6-C ,  9-C ) :   1.0455
B(  9-C , 10-H ) :   0.9593 B(  9-C , 11-H ) :   0.9565 B(  9-C , 12-C ) :   1.0765
B( 12-C , 13-H ) :   0.9761 B( 12-C , 14-H ) :   0.9750 B( 12-C , 15-H ) :   0.9749
B( 16-S , 17-C ) :   1.1544 B( 16-S , 20-C ) :   1.1752 B( 17-C , 18-C ) :   1.6071
B( 17-C , 20-C ) :   0.1049 B( 17-C , 33-H ) :   0.9582 B( 18-C , 19-C ) :   1.2616
B( 18-C , 21-H ) :   0.9851 B( 19-C , 20-C ) :   1.5205 B( 19-C , 22-C ) :   1.0651
B( 22-C , 23-H ) :   0.9362 B( 22-C , 24-H ) :   0.9299 B( 22-C , 25-C ) :   1.0601
B( 25-C , 26-H ) :   0.9571 B( 25-C , 27-H ) :   0.9550 B( 25-C , 28-C ) :   1.0855
B( 28-C , 29-H ) :   0.9770 B( 28-C , 30-H ) :   0.9692 B( 28-C , 31-H ) :   0.9720

Dispersion correction           -0.014512352
FINAL SINGLE POINT ENERGY     -1339.872728891164

DIPOLE MOMENT
-------------
                                X             Y             Z
Electronic contribution:    -13.82243      -4.55840      22.18530
Nuclear contribution   :     14.31449       4.53574     -22.66413
                        -----------------------------------------
Total Dipole Moment    :      0.49206      -0.02267      -0.47882
                        -----------------------------------------
Magnitude (a.u.)       :      0.68696
Magnitude (Debye)      :      1.74610

Rotational constants in cm-1:     0.021158     0.008267     0.006336
Rotational constants in MHz :   634.285958   247.852806   189.956265

                             ****ORCA TERMINATED NORMALLY****
TOTAL RUN TIME: 0 days 0 hours 0 minutes 21 seconds 692 msec
