                         Program Version 4.2.1 -  RELEASE  -
|  1> ! wB97X-D3 SP def2-SVP
|  2> %pal
|  3> nprocs 24
|  4> end
|  5>
|  6> * xyz 0 1
|  7> S 	 36.71 	 -3.9888 	 -119.626
|  8> C 	 36.3914 	 -5.43057 	 -120.551
|  9> C 	 35.3894 	 -6.21457 	 -119.978
| 10> C 	 34.7482 	 -5.52087 	 -118.937
| 11> C 	 35.3085 	 -4.27862 	 -118.681
| 12> H 	 33.8966 	 -5.86174 	 -118.379
| 13> C 	 34.9799 	 -7.5857 	 -120.446
| 14> H 	 35.4763 	 -7.69617 	 -121.411
| 15> H 	 33.934 	 -7.59214 	 -120.638
| 16> C 	 35.3318 	 -8.81666 	 -119.527
| 17> H 	 36.4084 	 -8.78371 	 -119.535
| 18> H 	 34.962 	 -8.79426 	 -118.486
| 19> C 	 34.8791 	 -10.1131 	 -120.209
| 20> H 	 35.0968 	 -11.0012 	 -119.62
| 21> H 	 33.7658 	 -10.1292 	 -120.29
| 22> H 	 35.2813 	 -10.1266 	 -121.241
| 23> S 	 33.6578 	 -2.28464 	 -117.934
| 24> C 	 33.8643 	 -1.3987 	 -116.472
| 25> C 	 34.9172 	 -1.88359 	 -115.792
| 26> C 	 35.4726 	 -3.10999 	 -116.367
| 27> C 	 34.9616 	 -3.34881 	 -117.609
| 28> H 	 35.1523 	 -1.49099 	 -114.779
| 29> C 	 36.6935 	 -3.84692 	 -115.755
| 30> H 	 37.5504 	 -3.16414 	 -115.601
| 31> H 	 37.0801 	 -4.54691 	 -116.514
| 32> C 	 36.4413 	 -4.52616 	 -114.361
| 33> H 	 35.3981 	 -4.90803 	 -114.407
| 34> H 	 36.5353 	 -3.85873 	 -113.503
| 35> C 	 37.5126 	 -5.60022 	 -114.105
| 36> H 	 37.3389 	 -6.28263 	 -113.222
| 37> H 	 38.4001 	 -5.04148 	 -113.859
| 38> H 	 37.6238 	 -6.2598 	 -114.961
| 39> H 	 36.868 	 -5.70864 	 -121.473
| 40> H 	 33.2802 	 -0.503891 	 -116.132
| 41> *
| 42>
| 43>                          ****END OF INPUT****

CARTESIAN COORDINATES (ANGSTROEM)
---------------------------------
  S     36.710000   -3.988800  -119.626000
  C     36.391400   -5.430570  -120.551000
  C     35.389400   -6.214570  -119.978000
  C     34.748200   -5.520870  -118.937000
  C     35.308500   -4.278620  -118.681000
  H     33.896600   -5.861740  -118.379000
  C     34.979900   -7.585700  -120.446000
  H     35.476300   -7.696170  -121.411000
  H     33.934000   -7.592140  -120.638000
  C     35.331800   -8.816660  -119.527000
  H     36.408400   -8.783710  -119.535000
  H     34.962000   -8.794260  -118.486000
  C     34.879100  -10.113100  -120.209000
  H     35.096800  -11.001200  -119.620000
  H     33.765800  -10.129200  -120.290000
  H     35.281300  -10.126600  -121.241000
  S     33.657800   -2.284640  -117.934000
  C     33.864300   -1.398700  -116.472000
  C     34.917200   -1.883590  -115.792000
  C     35.472600   -3.109990  -116.367000
  C     34.961600   -3.348810  -117.609000
  H     35.152300   -1.490990  -114.779000
  C     36.693500   -3.846920  -115.755000
  H     37.550400   -3.164140  -115.601000
  H     37.080100   -4.546910  -116.514000
  C     36.441300   -4.526160  -114.361000
  H     35.398100   -4.908030  -114.407000
  H     36.535300   -3.858730  -113.503000
  C     37.512600   -5.600220  -114.105000
  H     37.338900   -6.282630  -113.222000
  H     38.400100   -5.041480  -113.859000
  H     37.623800   -6.259800  -114.961000
  H     36.868000   -5.708640  -121.473000
  H     33.280200   -0.503891  -116.132000

 Total Charge           Charge          ....    0
 Multiplicity           Mult            ....    1
 Number of Electrons    NEL             ....  134
 Basis Dimension        Dim             ....  322

ORBITAL ENERGIES
----------------

  NO   OCC          E(Eh)            E(eV)
   0   2.0000     -88.970229     -2421.0030
   1   2.0000     -88.958121     -2420.6735
   2   2.0000     -10.324975      -280.9569
   3   2.0000     -10.319418      -280.8056
   4   2.0000     -10.313395      -280.6417
   5   2.0000     -10.313148      -280.6350
   6   2.0000     -10.303037      -280.3599
   7   2.0000     -10.299071      -280.2520
   8   2.0000     -10.294438      -280.1259
   9   2.0000     -10.292027      -280.0603
  10   2.0000     -10.291600      -280.0487
  11   2.0000     -10.291289      -280.0402
  12   2.0000     -10.291165      -280.0368
  13   2.0000     -10.288166      -279.9552
  14   2.0000     -10.283873      -279.8384
  15   2.0000     -10.277945      -279.6771
  16   2.0000      -8.085234      -220.0104
  17   2.0000      -8.074455      -219.7171
  18   2.0000      -6.043525      -164.4527
  19   2.0000      -6.039741      -164.3497
  20   2.0000      -6.036179      -164.2528
  21   2.0000      -6.032920      -164.1641
  22   2.0000      -6.028694      -164.0491
  23   2.0000      -6.025182      -163.9535
  24   2.0000      -1.013753       -27.5856
  25   2.0000      -0.990874       -26.9631
  26   2.0000      -0.911711       -24.8089
  27   2.0000      -0.899427       -24.4746
  28   2.0000      -0.871447       -23.7133
  29   2.0000      -0.853297       -23.2194
  30   2.0000      -0.843905       -22.9638
  31   2.0000      -0.816230       -22.2108
  32   2.0000      -0.779264       -21.2049
  33   2.0000      -0.766248       -20.8507
  34   2.0000      -0.704910       -19.1816
  35   2.0000      -0.697061       -18.9680
  36   2.0000      -0.691100       -18.8058
  37   2.0000      -0.653287       -17.7768
  38   2.0000      -0.643855       -17.5202
  39   2.0000      -0.621004       -16.8984
  40   2.0000      -0.592178       -16.1140
  41   2.0000      -0.572949       -15.5907
  42   2.0000      -0.567447       -15.4410
  43   2.0000      -0.563480       -15.3331
  44   2.0000      -0.529333       -14.4039
  45   2.0000      -0.519843       -14.1456
  46   2.0000      -0.511563       -13.9203
  47   2.0000      -0.510541       -13.8925
  48   2.0000      -0.502068       -13.6620
  49   2.0000      -0.497631       -13.5412
  50   2.0000      -0.489425       -13.3179
  51   2.0000      -0.475447       -12.9376
  52   2.0000      -0.470415       -12.8006
  53   2.0000      -0.461244       -12.5511
  54   2.0000      -0.459318       -12.4987
  55   2.0000      -0.455283       -12.3889
  56   2.0000      -0.442687       -12.0461
  57   2.0000      -0.437407       -11.9024
  58   2.0000      -0.431732       -11.7480
  59   2.0000      -0.428202       -11.6520
  60   2.0000      -0.421228       -11.4622
  61   2.0000      -0.416184       -11.3249
  62   2.0000      -0.412005       -11.2112
  63   2.0000      -0.336162        -9.1474
  64   2.0000      -0.333639        -9.0788
  65   2.0000      -0.321393        -8.7455
  66   2.0000      -0.309101        -8.4111
  67   0.0000       0.047054         1.2804
  68   0.0000       0.063179         1.7192
  69   0.0000       0.112378         3.0580
  70   0.0000       0.126982         3.4553
  71   0.0000       0.128934         3.5085

MULLIKEN ATOMIC CHARGES
-----------------------
   0 S :    0.139333
   1 C :   -0.117202
   2 C :   -0.088036
   3 C :    0.061760
   4 C :   -0.180856
   5 H :    0.005510
   6 C :    0.067608
   7 H :    0.009556
   8 H :    0.021424
   9 C :   -0.068658
  10 H :    0.028334
  11 H :    0.042113
  12 C :   -0.057897
  13 H :    0.040724
  14 H :    0.028733
  15 H :    0.035636
  16 S :    0.108332
  17 C :   -0.101463
  18 C :   -0.037769
  19 C :   -0.018927
  20 C :   -0.183648
  21 H :    0.031291
  22 C :    0.032651
  23 H :    0.032911
  24 H :    0.026903
  25 C :   -0.083984
  26 H :    0.039655
  27 H :    0.032144
  28 C :   -0.064124
  29 H :    0.039394
  30 H :    0.028062
  31 H :    0.036434
  32 H :    0.039122
  33 H :    0.074935
Sum of atomic charges:    0.0000000

LOEWDIN ATOMIC CHARGES
----------------------
   0 S :    0.437332
   1 C :   -0.200546
   2 C :   -0.063676
   3 C :   -0.053121
   4 C :   -0.212004
   5 H :    0.031274
   6 C :   -0.027888
   7 H :    0.030006
   8 H :    0.023995
   9 C :   -0.036900
  10 H :    0.022638
  11 H :    0.027236
  12 C :   -0.069200
  13 H :    0.026489
  14 H :    0.026259
  15 H :    0.028332
  16 S :    0.425047
  17 C :   -0.202041
  18 C :   -0.080018
  19 C :   -0.060201
  20 C :   -0.216478
  21 H :    0.035609
  22 C :   -0.034443
  23 H :    0.032552
  24 H :    0.028026
  25 C :   -0.042620
  26 H :    0.024297
  27 H :    0.022909
  28 C :   -0.068315
  29 H :    0.030945
  30 H :    0.023598
  31 H :    0.022662
  32 H :    0.023517
  33 H :    0.044733

  Mayer bond orders larger than 0.100000
B(  0-S ,  1-C ) :   1.1524 B(  0-S ,  4-C ) :   1.1737 B(  1-C ,  2-C ) :   1.5882
B(  1-C ,  4-C ) :   0.1019 B(  1-C , 32-H ) :   0.9670 B(  2-C ,  3-C ) :   1.2583
B(  2-C ,  6-C ) :   1.0313 B(  3-C ,  4-C ) :   1.5683 B(  3-C ,  5-H ) :   1.0018
B(  4-C , 20-C ) :   0.9761 B(  6-C ,  7-H ) :   0.9364 B(  6-C ,  8-H ) :   0.9400
B(  6-C ,  9-C ) :   1.0506 B(  9-C , 10-H ) :   0.9551 B(  9-C , 11-H ) :   0.9586
B(  9-C , 12-C ) :   1.0846 B( 12-C , 13-H ) :   0.9738 B( 12-C , 14-H ) :   0.9749
B( 12-C , 15-H ) :   0.9728 B( 16-S , 17-C ) :   1.1446 B( 16-S , 20-C ) :   1.1556
B( 17-C , 18-C ) :   1.6485 B( 17-C , 33-H ) :   0.9601 B( 18-C , 19-C ) :   1.2084
B( 18-C , 21-H ) :   0.9801 B( 19-C , 20-C ) :   1.6343 B( 19-C , 22-C ) :   1.0496
B( 22-C , 23-H ) :   0.9414 B( 22-C , 24-H ) :   0.9439 B( 22-C , 25-C ) :   1.0358
B( 25-C , 26-H ) :   0.9650 B( 25-C , 27-H ) :   0.9580 B( 25-C , 28-C ) :   1.0755
B( 28-C , 29-H ) :   0.9751 B( 28-C , 30-H ) :   0.9757 B( 28-C , 31-H ) :   0.9793

Dispersion correction           -0.013633295
FINAL SINGLE POINT ENERGY     -1339.887157815843

DIPOLE MOMENT
-------------
                                X             Y             Z
Electronic contribution:     -5.77675      25.28420      -9.24264
Nuclear contribution   :      5.86239     -25.71760       9.47516
                        -----------------------------------------
Total Dipole Moment    :      0.08564      -0.43340       0.23253
                        -----------------------------------------
Magnitude (a.u.)       :      0.49924
Magnitude (Debye)      :      1.26896

Rotational constants in cm-1:     0.017567     0.008094     0.006642
Rotational constants in MHz :   526.647823   242.640841   199.112721

                             ****ORCA TERMINATED NORMALLY****
TOTAL RUN TIME: 0 days 0 hours 0 minutes 20 seconds 896 msec
