                         Program Version 4.2.1 -  RELEASE  -
|  1> ! wB97X-D3 SP def2-SVP
|  2> %pal
|  3> nprocs 24
|  4> end
|  5>
|  6> * xyz 0 1
|  7> S 	 39.7621 	 -21.7168 	 -115.402
|  8> C 	 41.0919 	 -22.7135 	 -115.863
|  9> C 	 41.8791 	 -23.002 	 -114.78
| 10> C 	 41.3464 	 -22.4328 	 -113.597
| 11> C 	 40.1298 	 -21.807 	 -113.719
| 12> H 	 41.8173 	 -22.4967 	 -112.65
| 13> C 	 43.0956 	 -23.8319 	 -114.742
| 14> H 	 43.5277 	 -23.931 	 -113.73
| 15> H 	 43.8913 	 -23.4159 	 -115.418
| 16> C 	 42.7981 	 -25.3274 	 -115.096
| 17> H 	 42.6884 	 -25.4223 	 -116.214
| 18> H 	 43.7592 	 -25.9388 	 -114.888
| 19> C 	 41.6187 	 -25.9735 	 -114.339
| 20> H 	 41.7895 	 -27.0326 	 -114.199
| 21> H 	 41.3957 	 -25.4477 	 -113.362
| 22> H 	 40.6773 	 -25.7572 	 -114.842
| 23> S 	 39.5683 	 -19.1805 	 -113.016
| 24> C 	 39.0201 	 -18.7981 	 -111.488
| 25> C 	 39.0852 	 -19.945 	 -110.734
| 26> C 	 39.3344 	 -21.1437 	 -111.43
| 27> C 	 39.5931 	 -20.8824 	 -112.76
| 28> H 	 38.8471 	 -19.7273 	 -109.732
| 29> C 	 39.2663 	 -22.5473 	 -110.842
| 30> H 	 39.5782 	 -22.5053 	 -109.748
| 31> H 	 39.8727 	 -23.2754 	 -111.461
| 32> C 	 37.828 	 -23.02 	 -110.761
| 33> H 	 37.188 	 -22.1358 	 -110.615
| 34> H 	 37.6875 	 -23.628 	 -109.837
| 35> C 	 37.3276 	 -23.8357 	 -111.947
| 36> H 	 37.2617 	 -23.1811 	 -112.9
| 37> H 	 36.3152 	 -24.037 	 -111.664
| 38> H 	 37.9616 	 -24.7435 	 -112.069
| 39> H 	 41.3148 	 -23.019 	 -116.854
| 40> H 	 38.9484 	 -17.7706 	 -111.112
| 41> *
| 42>
| 43>                          ****END OF INPUT****

CARTESIAN COORDINATES (ANGSTROEM)
---------------------------------
  S     39.762100  -21.716800  -115.402000
  C     41.091900  -22.713500  -115.863000
  C     41.879100  -23.002000  -114.780000
  C     41.346400  -22.432800  -113.597000
  C     40.129800  -21.807000  -113.719000
  H     41.817300  -22.496700  -112.650000
  C     43.095600  -23.831900  -114.742000
  H     43.527700  -23.931000  -113.730000
  H     43.891300  -23.415900  -115.418000
  C     42.798100  -25.327400  -115.096000
  H     42.688400  -25.422300  -116.214000
  H     43.759200  -25.938800  -114.888000
  C     41.618700  -25.973500  -114.339000
  H     41.789500  -27.032600  -114.199000
  H     41.395700  -25.447700  -113.362000
  H     40.677300  -25.757200  -114.842000
  S     39.568300  -19.180500  -113.016000
  C     39.020100  -18.798100  -111.488000
  C     39.085200  -19.945000  -110.734000
  C     39.334400  -21.143700  -111.430000
  C     39.593100  -20.882400  -112.760000
  H     38.847100  -19.727300  -109.732000
  C     39.266300  -22.547300  -110.842000
  H     39.578200  -22.505300  -109.748000
  H     39.872700  -23.275400  -111.461000
  C     37.828000  -23.020000  -110.761000
  H     37.188000  -22.135800  -110.615000
  H     37.687500  -23.628000  -109.837000
  C     37.327600  -23.835700  -111.947000
  H     37.261700  -23.181100  -112.900000
  H     36.315200  -24.037000  -111.664000
  H     37.961600  -24.743500  -112.069000
  H     41.314800  -23.019000  -116.854000
  H     38.948400  -17.770600  -111.112000

 Total Charge           Charge          ....    0
 Multiplicity           Mult            ....    1
 Number of Electrons    NEL             ....  134
 Basis Dimension        Dim             ....  322

ORBITAL ENERGIES
----------------

  NO   OCC          E(Eh)            E(eV)
   0   2.0000     -88.966825     -2420.9104
   1   2.0000     -88.960591     -2420.7408
   2   2.0000     -10.323583      -280.9190
   3   2.0000     -10.319297      -280.8024
   4   2.0000     -10.311529      -280.5910
   5   2.0000     -10.309433      -280.5339
   6   2.0000     -10.298959      -280.2489
   7   2.0000     -10.298838      -280.2456
   8   2.0000     -10.296551      -280.1834
   9   2.0000     -10.296220      -280.1744
  10   2.0000     -10.295624      -280.1582
  11   2.0000     -10.288552      -279.9657
  12   2.0000     -10.285115      -279.8722
  13   2.0000     -10.280707      -279.7522
  14   2.0000     -10.280695      -279.7519
  15   2.0000     -10.278055      -279.6801
  16   2.0000      -8.082298      -219.9305
  17   2.0000      -8.077494      -219.7998
  18   2.0000      -6.040716      -164.3762
  19   2.0000      -6.036541      -164.2626
  20   2.0000      -6.035680      -164.2392
  21   2.0000      -6.033263      -164.1734
  22   2.0000      -6.031569      -164.1273
  23   2.0000      -6.028558      -164.0454
  24   2.0000      -1.021421       -27.7943
  25   2.0000      -0.998844       -27.1799
  26   2.0000      -0.914211       -24.8769
  27   2.0000      -0.910576       -24.7780
  28   2.0000      -0.874393       -23.7935
  29   2.0000      -0.850410       -23.1408
  30   2.0000      -0.844273       -22.9738
  31   2.0000      -0.815806       -22.1992
  32   2.0000      -0.783545       -21.3214
  33   2.0000      -0.775109       -21.0918
  34   2.0000      -0.707350       -19.2480
  35   2.0000      -0.696814       -18.9613
  36   2.0000      -0.685718       -18.6593
  37   2.0000      -0.655603       -17.8399
  38   2.0000      -0.643678       -17.5154
  39   2.0000      -0.617631       -16.8066
  40   2.0000      -0.598162       -16.2768
  41   2.0000      -0.578200       -15.7336
  42   2.0000      -0.554852       -15.0983
  43   2.0000      -0.551903       -15.0181
  44   2.0000      -0.547373       -14.8948
  45   2.0000      -0.531536       -14.4638
  46   2.0000      -0.522744       -14.2246
  47   2.0000      -0.508966       -13.8497
  48   2.0000      -0.505177       -13.7466
  49   2.0000      -0.500565       -13.6211
  50   2.0000      -0.494562       -13.4577
  51   2.0000      -0.480200       -13.0669
  52   2.0000      -0.473408       -12.8821
  53   2.0000      -0.465797       -12.6750
  54   2.0000      -0.464569       -12.6416
  55   2.0000      -0.441806       -12.0222
  56   2.0000      -0.434837       -11.8325
  57   2.0000      -0.431624       -11.7451
  58   2.0000      -0.426724       -11.6118
  59   2.0000      -0.425909       -11.5896
  60   2.0000      -0.420747       -11.4491
  61   2.0000      -0.406874       -11.0716
  62   2.0000      -0.403231       -10.9725
  63   2.0000      -0.352244        -9.5850
  64   2.0000      -0.330578        -8.9955
  65   2.0000      -0.327071        -8.9000
  66   2.0000      -0.295059        -8.0290
  67   0.0000       0.031643         0.8610
  68   0.0000       0.071443         1.9441
  69   0.0000       0.117412         3.1949
  70   0.0000       0.121735         3.3126
  71   0.0000       0.128395         3.4938

MULLIKEN ATOMIC CHARGES
-----------------------
   0 S :    0.112171
   1 C :   -0.102879
   2 C :   -0.073879
   3 C :    0.028847
   4 C :   -0.167544
   5 H :    0.004464
   6 C :    0.055744
   7 H :    0.029224
   8 H :    0.049012
   9 C :   -0.145095
  10 H :    0.036282
  11 H :    0.039591
  12 C :   -0.040036
  13 H :    0.047787
  14 H :    0.027420
  15 H :    0.037986
  16 S :    0.119748
  17 C :   -0.111821
  18 C :   -0.046234
  19 C :   -0.035406
  20 C :   -0.128725
  21 H :   -0.003628
  22 C :    0.070522
  23 H :    0.033808
  24 H :    0.034517
  25 C :   -0.102428
  26 H :    0.029308
  27 H :    0.025637
  28 C :   -0.052344
  29 H :    0.049220
  30 H :    0.030112
  31 H :    0.044943
  32 H :    0.033351
  33 H :    0.070322
Sum of atomic charges:   -0.0000000

LOEWDIN ATOMIC CHARGES
----------------------
   0 S :    0.434783
   1 C :   -0.192033
   2 C :   -0.071694
   3 C :   -0.049970
   4 C :   -0.210985
   5 H :    0.024159
   6 C :   -0.038459
   7 H :    0.032807
   8 H :    0.039792
   9 C :   -0.050603
  10 H :    0.021978
  11 H :    0.028679
  12 C :   -0.074867
  13 H :    0.028254
  14 H :    0.031029
  15 H :    0.029903
  16 S :    0.451102
  17 C :   -0.217154
  18 C :   -0.076146
  19 C :   -0.060763
  20 C :   -0.215332
  21 H :    0.022374
  22 C :   -0.038644
  23 H :    0.040680
  24 H :    0.033151
  25 C :   -0.050366
  26 H :    0.025659
  27 H :    0.023007
  28 C :   -0.069322
  29 H :    0.035992
  30 H :    0.023433
  31 H :    0.028124
  32 H :    0.023063
  33 H :    0.038371

  Mayer bond orders larger than 0.100000
B(  0-S ,  1-C ) :   1.1628 B(  0-S ,  4-C ) :   1.1568 B(  1-C ,  2-C ) :   1.5610
B(  1-C , 32-H ) :   0.9777 B(  2-C ,  3-C ) :   1.2870 B(  2-C ,  6-C ) :   1.0323
B(  3-C ,  4-C ) :   1.5332 B(  3-C ,  5-H ) :   0.9955 B(  4-C , 20-C ) :   1.0355
B(  6-C ,  7-H ) :   0.9445 B(  6-C ,  8-H ) :   0.9378 B(  6-C ,  9-C ) :   1.0663
B(  9-C , 10-H ) :   0.9577 B(  9-C , 11-H ) :   0.9657 B(  9-C , 12-C ) :   1.0552
B( 12-C , 13-H ) :   0.9764 B( 12-C , 14-H ) :   0.9755 B( 12-C , 15-H ) :   0.9687
B( 16-S , 17-C ) :   1.1874 B( 16-S , 20-C ) :   1.1751 B( 17-C , 18-C ) :   1.5676
B( 17-C , 33-H ) :   0.9659 B( 18-C , 19-C ) :   1.2641 B( 18-C , 21-H ) :   1.0051
B( 19-C , 20-C ) :   1.5454 B( 19-C , 22-C ) :   1.0580 B( 22-C , 23-H ) :   0.9306
B( 22-C , 24-H ) :   0.9303 B( 22-C , 25-C ) :   1.0613 B( 25-C , 26-H ) :   0.9522
B( 25-C , 27-H ) :   0.9560 B( 25-C , 28-C ) :   1.0905 B( 28-C , 29-H ) :   0.9699
B( 28-C , 30-H ) :   0.9713 B( 28-C , 31-H ) :   0.9728

Dispersion correction           -0.015625907
FINAL SINGLE POINT ENERGY     -1339.874735298217

DIPOLE MOMENT
-------------
                                X             Y             Z
Electronic contribution:     -2.30696      24.53445      -7.36172
Nuclear contribution   :      2.64184     -24.82101       7.71341
                        -----------------------------------------
Total Dipole Moment    :      0.33488      -0.28656       0.35169
                        -----------------------------------------
Magnitude (a.u.)       :      0.56387
Magnitude (Debye)      :      1.43325

Rotational constants in cm-1:     0.020567     0.009526     0.007760
Rotational constants in MHz :   616.568347   285.573968   232.634013

                             ****ORCA TERMINATED NORMALLY****
TOTAL RUN TIME: 0 days 0 hours 0 minutes 21 seconds 759 msec
