                         Program Version 4.2.1 -  RELEASE  -
|  1> ! wB97X-D3 SP def2-SVP
|  2> %pal
|  3> nprocs 24
|  4> end
|  5>
|  6> * xyz 0 1
|  7> S 	 -102.533 	 -1.15407 	 -105.256
|  8> C 	 -103.882 	 -1.53036 	 -104.221
|  9> C 	 -105.071 	 -0.954226 	 -104.77
| 10> C 	 -104.829 	 -0.333214 	 -106.02
| 11> C 	 -103.503 	 -0.294646 	 -106.387
| 12> H 	 -105.596 	 -0.0950588 	 -106.801
| 13> C 	 -106.437 	 -1.08636 	 -104.217
| 14> H 	 -107.095 	 -1.08439 	 -105.091
| 15> H 	 -106.696 	 -0.182116 	 -103.629
| 16> C 	 -106.745 	 -2.28675 	 -103.425
| 17> H 	 -106.449 	 -3.19673 	 -103.92
| 18> H 	 -106.185 	 -2.28943 	 -102.411
| 19> C 	 -108.257 	 -2.58605 	 -103.162
| 20> H 	 -108.738 	 -1.67081 	 -102.837
| 21> H 	 -108.833 	 -2.92079 	 -104.049
| 22> H 	 -108.421 	 -3.34372 	 -102.395
| 23> S 	 -101.938 	 -0.774676 	 -108.583
| 24> C 	 -101.819 	 0.497046 	 -109.81
| 25> C 	 -102.296 	 1.69806 	 -109.321
| 26> C 	 -102.943 	 1.58284 	 -108.056
| 27> C 	 -102.938 	 0.28437 	 -107.579
| 28> H 	 -102.095 	 2.46427 	 -109.971
| 29> C 	 -103.684 	 2.67656 	 -107.32
| 30> H 	 -102.905 	 3.21408 	 -106.749
| 31> H 	 -104.391 	 2.27232 	 -106.577
| 32> C 	 -104.477 	 3.63962 	 -108.281
| 33> H 	 -105.368 	 3.2031 	 -108.646
| 34> H 	 -103.978 	 3.80947 	 -109.171
| 35> C 	 -104.956 	 4.93059 	 -107.634
| 36> H 	 -104.122 	 5.54484 	 -107.326
| 37> H 	 -105.555 	 4.6606 	 -106.764
| 38> H 	 -105.557 	 5.45766 	 -108.467
| 39> H 	 -103.721 	 -2.12635 	 -103.335
| 40> H 	 -101.512 	 0.293249 	 -110.878
| 41> *
| 42>
| 43>                          ****END OF INPUT****

CARTESIAN COORDINATES (ANGSTROEM)
---------------------------------
  S    -102.533000   -1.154070  -105.256000
  C    -103.882000   -1.530360  -104.221000
  C    -105.071000   -0.954226  -104.770000
  C    -104.829000   -0.333214  -106.020000
  C    -103.503000   -0.294646  -106.387000
  H    -105.596000   -0.095059  -106.801000
  C    -106.437000   -1.086360  -104.217000
  H    -107.095000   -1.084390  -105.091000
  H    -106.696000   -0.182116  -103.629000
  C    -106.745000   -2.286750  -103.425000
  H    -106.449000   -3.196730  -103.920000
  H    -106.185000   -2.289430  -102.411000
  C    -108.257000   -2.586050  -103.162000
  H    -108.738000   -1.670810  -102.837000
  H    -108.833000   -2.920790  -104.049000
  H    -108.421000   -3.343720  -102.395000
  S    -101.938000   -0.774676  -108.583000
  C    -101.819000    0.497046  -109.810000
  C    -102.296000    1.698060  -109.321000
  C    -102.943000    1.582840  -108.056000
  C    -102.938000    0.284370  -107.579000
  H    -102.095000    2.464270  -109.971000
  C    -103.684000    2.676560  -107.320000
  H    -102.905000    3.214080  -106.749000
  H    -104.391000    2.272320  -106.577000
  C    -104.477000    3.639620  -108.281000
  H    -105.368000    3.203100  -108.646000
  H    -103.978000    3.809470  -109.171000
  C    -104.956000    4.930590  -107.634000
  H    -104.122000    5.544840  -107.326000
  H    -105.555000    4.660600  -106.764000
  H    -105.557000    5.457660  -108.467000
  H    -103.721000   -2.126350  -103.335000
  H    -101.512000    0.293249  -110.878000

 Total Charge           Charge          ....    0
 Multiplicity           Mult            ....    1
 Number of Electrons    NEL             ....  134
 Basis Dimension        Dim             ....  322

ORBITAL ENERGIES
----------------

  NO   OCC          E(Eh)            E(eV)
   0   2.0000     -88.964959     -2420.8596
   1   2.0000     -88.961892     -2420.7761
   2   2.0000     -10.324052      -280.9317
   3   2.0000     -10.323613      -280.9198
   4   2.0000     -10.323207      -280.9087
   5   2.0000     -10.316332      -280.7217
   6   2.0000     -10.306749      -280.4609
   7   2.0000     -10.304559      -280.4013
   8   2.0000     -10.294021      -280.1146
   9   2.0000     -10.293523      -280.1010
  10   2.0000     -10.291680      -280.0508
  11   2.0000     -10.289410      -279.9891
  12   2.0000     -10.289107      -279.9808
  13   2.0000     -10.281634      -279.7775
  14   2.0000     -10.281019      -279.7608
  15   2.0000     -10.275542      -279.6117
  16   2.0000      -8.080326      -219.8769
  17   2.0000      -8.076403      -219.7701
  18   2.0000      -6.038673      -164.3206
  19   2.0000      -6.034863      -164.2170
  20   2.0000      -6.034541      -164.2082
  21   2.0000      -6.031437      -164.1238
  22   2.0000      -6.031006      -164.1120
  23   2.0000      -6.027164      -164.0075
  24   2.0000      -1.008702       -27.4482
  25   2.0000      -0.983442       -26.7608
  26   2.0000      -0.919025       -25.0079
  27   2.0000      -0.905482       -24.6394
  28   2.0000      -0.869752       -23.6672
  29   2.0000      -0.854272       -23.2459
  30   2.0000      -0.847926       -23.0732
  31   2.0000      -0.815542       -22.1920
  32   2.0000      -0.782148       -21.2833
  33   2.0000      -0.765841       -20.8396
  34   2.0000      -0.707765       -19.2593
  35   2.0000      -0.704415       -19.1681
  36   2.0000      -0.693027       -18.8582
  37   2.0000      -0.658628       -17.9222
  38   2.0000      -0.643577       -17.5126
  39   2.0000      -0.615222       -16.7410
  40   2.0000      -0.594476       -16.1765
  41   2.0000      -0.571900       -15.5622
  42   2.0000      -0.567864       -15.4524
  43   2.0000      -0.559422       -15.2226
  44   2.0000      -0.534151       -14.5350
  45   2.0000      -0.525516       -14.3000
  46   2.0000      -0.522456       -14.2167
  47   2.0000      -0.508853       -13.8466
  48   2.0000      -0.504469       -13.7273
  49   2.0000      -0.500907       -13.6304
  50   2.0000      -0.491253       -13.3677
  51   2.0000      -0.478073       -13.0090
  52   2.0000      -0.477404       -12.9908
  53   2.0000      -0.459533       -12.5045
  54   2.0000      -0.458381       -12.4732
  55   2.0000      -0.448737       -12.2108
  56   2.0000      -0.446762       -12.1570
  57   2.0000      -0.438039       -11.9197
  58   2.0000      -0.435232       -11.8433
  59   2.0000      -0.425006       -11.5650
  60   2.0000      -0.417086       -11.3495
  61   2.0000      -0.413574       -11.2539
  62   2.0000      -0.409661       -11.1475
  63   2.0000      -0.344282        -9.3684
  64   2.0000      -0.329997        -8.9797
  65   2.0000      -0.328140        -8.9291
  66   2.0000      -0.288695        -7.8558
  67   0.0000       0.031565         0.8589
  68   0.0000       0.062521         1.7013
  69   0.0000       0.112415         3.0590
  70   0.0000       0.118991         3.2379
  71   0.0000       0.134928         3.6716

MULLIKEN ATOMIC CHARGES
-----------------------
   0 S :    0.118011
   1 C :   -0.141467
   2 C :   -0.083866
   3 C :   -0.001062
   4 C :   -0.164498
   5 H :    0.043276
   6 C :    0.100955
   7 H :    0.017384
   8 H :    0.045950
   9 C :   -0.120730
  10 H :    0.028403
  11 H :    0.039919
  12 C :   -0.054731
  13 H :    0.020525
  14 H :    0.037042
  15 H :    0.035889
  16 S :    0.093768
  17 C :   -0.131434
  18 C :   -0.020792
  19 C :    0.014402
  20 C :   -0.172274
  21 H :   -0.007981
  22 C :    0.080646
  23 H :    0.038476
  24 H :    0.035247
  25 C :   -0.060661
  26 H :    0.011382
  27 H :    0.004391
  28 C :   -0.062006
  29 H :    0.032943
  30 H :    0.036151
  31 H :    0.046960
  32 H :    0.055651
  33 H :    0.084130
Sum of atomic charges:    0.0000000

LOEWDIN ATOMIC CHARGES
----------------------
   0 S :    0.428570
   1 C :   -0.208368
   2 C :   -0.058011
   3 C :   -0.078354
   4 C :   -0.206164
   5 H :    0.043868
   6 C :   -0.042029
   7 H :    0.033719
   8 H :    0.040885
   9 C :   -0.049935
  10 H :    0.022904
  11 H :    0.030690
  12 C :   -0.066732
  13 H :    0.019001
  14 H :    0.027343
  15 H :    0.027729
  16 S :    0.379738
  17 C :   -0.178224
  18 C :   -0.066994
  19 C :   -0.048428
  20 C :   -0.194786
  21 H :    0.020085
  22 C :   -0.028643
  23 H :    0.037116
  24 H :    0.033774
  25 C :   -0.039424
  26 H :    0.020952
  27 H :    0.009719
  28 C :   -0.062870
  29 H :    0.019660
  30 H :    0.025090
  31 H :    0.038477
  32 H :    0.026186
  33 H :    0.043457

  Mayer bond orders larger than 0.100000
B(  0-S ,  1-C ) :   1.1531 B(  0-S ,  4-C ) :   1.1799 B(  1-C ,  2-C ) :   1.5437
B(  1-C ,  4-C ) :   0.1058 B(  1-C , 32-H ) :   0.9769 B(  2-C ,  3-C ) :   1.2825
B(  2-C ,  6-C ) :   1.0314 B(  3-C ,  4-C ) :   1.5585 B(  3-C ,  5-H ) :   0.9788
B(  4-C , 20-C ) :   1.0375 B(  6-C ,  7-H ) :   0.9413 B(  6-C ,  8-H ) :   0.9113
B(  6-C ,  9-C ) :   1.0885 B(  9-C , 10-H ) :   0.9593 B(  9-C , 11-H ) :   0.9431
B(  9-C , 12-C ) :   1.0801 B( 12-C , 13-H ) :   0.9759 B( 12-C , 14-H ) :   0.9755
B( 12-C , 15-H ) :   0.9750 B( 16-S , 17-C ) :   1.1505 B( 16-S , 20-C ) :   1.1288
B( 17-C , 18-C ) :   1.6250 B( 17-C , 20-C ) :   0.1030 B( 17-C , 33-H ) :   0.9588
B( 18-C , 19-C ) :   1.1895 B( 18-C , 21-H ) :   1.0098 B( 19-C , 20-C ) :   1.6038
B( 19-C , 22-C ) :   1.0417 B( 22-C , 23-H ) :   0.9284 B( 22-C , 24-H ) :   0.9351
B( 22-C , 25-C ) :   1.0477 B( 25-C , 26-H ) :   0.9525 B( 25-C , 27-H ) :   0.9581
B( 25-C , 28-C ) :   1.0856 B( 28-C , 29-H ) :   0.9782 B( 28-C , 30-H ) :   0.9747
B( 28-C , 31-H ) :   0.9736

Dispersion correction           -0.013401521
FINAL SINGLE POINT ENERGY     -1339.870675321842

DIPOLE MOMENT
-------------
                                X             Y             Z
Electronic contribution:     24.43436     -11.09790      -8.24180
Nuclear contribution   :    -24.94382      11.37156       8.13732
                        -----------------------------------------
Total Dipole Moment    :     -0.50946       0.27367      -0.10447
                        -----------------------------------------
Magnitude (a.u.)       :      0.58767
Magnitude (Debye)      :      1.49373

Rotational constants in cm-1:     0.018595     0.007703     0.005991
Rotational constants in MHz :   557.453190   230.936293   179.596196

                             ****ORCA TERMINATED NORMALLY****
TOTAL RUN TIME: 0 days 0 hours 0 minutes 19 seconds 830 msec
