                         Program Version 4.2.1 -  RELEASE  -
|  1> ! wB97X-D3 SP def2-SVP
|  2> %pal
|  3> nprocs 24
|  4> end
|  5>
|  6> * xyz 0 1
|  7> S 	 -35.1325 	 12.9957 	 7.984
|  8> C 	 -35.1532 	 14.5919 	 7.20961
|  9> C 	 -33.8732 	 15.0364 	 6.91768
| 10> C 	 -32.896 	 14.2746 	 7.63
| 11> C 	 -33.3818 	 13.171 	 8.32396
| 12> H 	 -31.8752 	 14.5561 	 7.75438
| 13> C 	 -33.4977 	 16.0779 	 5.91767
| 14> H 	 -32.5053 	 16.5963 	 6.11989
| 15> H 	 -34.2735 	 16.7778 	 6.02053
| 16> C 	 -33.4102 	 15.4942 	 4.44014
| 17> H 	 -32.7293 	 14.6604 	 4.58953
| 18> H 	 -34.359 	 14.9951 	 4.19698
| 19> C 	 -32.9783 	 16.5551 	 3.27808
| 20> H 	 -32.0714 	 17.0649 	 3.40787
| 21> H 	 -32.9063 	 16.1443 	 2.27163
| 22> H 	 -33.6943 	 17.3512 	 3.27074
| 23> S 	 -32.5557 	 10.6082 	 8.05503
| 24> C 	 -31.4535 	 9.94538 	 9.18064
| 25> C 	 -31.2831 	 10.7543 	 10.2534
| 26> C 	 -31.9992 	 11.9983 	 10.1305
| 27> C 	 -32.61 	 12.0837 	 8.87059
| 28> H 	 -30.6124 	 10.4499 	 11.0246
| 29> C 	 -32.1465 	 13.0413 	 11.2967
| 30> H 	 -32.163 	 12.5426 	 12.2531
| 31> H 	 -33.1523 	 13.3873 	 11.1216
| 32> C 	 -30.9073 	 14.0515 	 11.377
| 33> H 	 -31.0307 	 14.8695 	 12.1369
| 34> H 	 -30.8125 	 14.6195 	 10.4293
| 35> C 	 -29.5411 	 13.4306 	 11.752
| 36> H 	 -29.1965 	 12.5466 	 11.2052
| 37> H 	 -29.6388 	 13.0167 	 12.7575
| 38> H 	 -28.7063 	 14.0973 	 11.8003
| 39> H 	 -36.1085 	 15.0329 	 6.96682
| 40> H 	 -31.1356 	 8.90463 	 9.16551
| 41> *
| 42>
| 43>                          ****END OF INPUT****

CARTESIAN COORDINATES (ANGSTROEM)
---------------------------------
  S    -35.132500   12.995700    7.984000
  C    -35.153200   14.591900    7.209610
  C    -33.873200   15.036400    6.917680
  C    -32.896000   14.274600    7.630000
  C    -33.381800   13.171000    8.323960
  H    -31.875200   14.556100    7.754380
  C    -33.497700   16.077900    5.917670
  H    -32.505300   16.596300    6.119890
  H    -34.273500   16.777800    6.020530
  C    -33.410200   15.494200    4.440140
  H    -32.729300   14.660400    4.589530
  H    -34.359000   14.995100    4.196980
  C    -32.978300   16.555100    3.278080
  H    -32.071400   17.064900    3.407870
  H    -32.906300   16.144300    2.271630
  H    -33.694300   17.351200    3.270740
  S    -32.555700   10.608200    8.055030
  C    -31.453500    9.945380    9.180640
  C    -31.283100   10.754300   10.253400
  C    -31.999200   11.998300   10.130500
  C    -32.610000   12.083700    8.870590
  H    -30.612400   10.449900   11.024600
  C    -32.146500   13.041300   11.296700
  H    -32.163000   12.542600   12.253100
  H    -33.152300   13.387300   11.121600
  C    -30.907300   14.051500   11.377000
  H    -31.030700   14.869500   12.136900
  H    -30.812500   14.619500   10.429300
  C    -29.541100   13.430600   11.752000
  H    -29.196500   12.546600   11.205200
  H    -29.638800   13.016700   12.757500
  H    -28.706300   14.097300   11.800300
  H    -36.108500   15.032900    6.966820
  H    -31.135600    8.904630    9.165510

 Total Charge           Charge          ....    0
 Multiplicity           Mult            ....    1
 Number of Electrons    NEL             ....  134
 Basis Dimension        Dim             ....  322

ORBITAL ENERGIES
----------------

  NO   OCC          E(Eh)            E(eV)
   0   2.0000     -88.964646     -2420.8511
   1   2.0000     -88.962798     -2420.8008
   2   2.0000     -10.329403      -281.0773
   3   2.0000     -10.319896      -280.8187
   4   2.0000     -10.319291      -280.8022
   5   2.0000     -10.308160      -280.4993
   6   2.0000     -10.304684      -280.4047
   7   2.0000     -10.304353      -280.3957
   8   2.0000     -10.298104      -280.2257
   9   2.0000     -10.298074      -280.2249
  10   2.0000     -10.297604      -280.2121
  11   2.0000     -10.296004      -280.1685
  12   2.0000     -10.294618      -280.1308
  13   2.0000     -10.287439      -279.9354
  14   2.0000     -10.281251      -279.7671
  15   2.0000     -10.276450      -279.6364
  16   2.0000      -8.079654      -219.8586
  17   2.0000      -8.078662      -219.8316
  18   2.0000      -6.037981      -164.3018
  19   2.0000      -6.037189      -164.2803
  20   2.0000      -6.033880      -164.1902
  21   2.0000      -6.033412      -164.1775
  22   2.0000      -6.030454      -164.0970
  23   2.0000      -6.029300      -164.0656
  24   2.0000      -1.012236       -27.5443
  25   2.0000      -0.984369       -26.7860
  26   2.0000      -0.903931       -24.5972
  27   2.0000      -0.895269       -24.3615
  28   2.0000      -0.868082       -23.6217
  29   2.0000      -0.845474       -23.0065
  30   2.0000      -0.841503       -22.8985
  31   2.0000      -0.816694       -22.2234
  32   2.0000      -0.784600       -21.3501
  33   2.0000      -0.771476       -20.9929
  34   2.0000      -0.711016       -19.3477
  35   2.0000      -0.704656       -19.1747
  36   2.0000      -0.693659       -18.8754
  37   2.0000      -0.659549       -17.9472
  38   2.0000      -0.646235       -17.5849
  39   2.0000      -0.618551       -16.8316
  40   2.0000      -0.589380       -16.0378
  41   2.0000      -0.566520       -15.4158
  42   2.0000      -0.554353       -15.0847
  43   2.0000      -0.547315       -14.8932
  44   2.0000      -0.537873       -14.6363
  45   2.0000      -0.520339       -14.1591
  46   2.0000      -0.514771       -14.0076
  47   2.0000      -0.509195       -13.8559
  48   2.0000      -0.505105       -13.7446
  49   2.0000      -0.498936       -13.5767
  50   2.0000      -0.481337       -13.0979
  51   2.0000      -0.478103       -13.0098
  52   2.0000      -0.473066       -12.8728
  53   2.0000      -0.464075       -12.6281
  54   2.0000      -0.455810       -12.4032
  55   2.0000      -0.450902       -12.2697
  56   2.0000      -0.449361       -12.2277
  57   2.0000      -0.435993       -11.8640
  58   2.0000      -0.433243       -11.7892
  59   2.0000      -0.426109       -11.5950
  60   2.0000      -0.423960       -11.5365
  61   2.0000      -0.419170       -11.4062
  62   2.0000      -0.411094       -11.1864
  63   2.0000      -0.340317        -9.2605
  64   2.0000      -0.327393        -8.9088
  65   2.0000      -0.325446        -8.8558
  66   2.0000      -0.298235        -8.1154
  67   0.0000       0.036559         0.9948
  68   0.0000       0.056035         1.5248
  69   0.0000       0.107584         2.9275
  70   0.0000       0.121591         3.3086
  71   0.0000       0.125117         3.4046

MULLIKEN ATOMIC CHARGES
-----------------------
   0 S :    0.089846
   1 C :   -0.132104
   2 C :   -0.077508
   3 C :    0.052824
   4 C :   -0.170855
   5 H :    0.010081
   6 C :    0.062171
   7 H :    0.037060
   8 H :    0.012839
   9 C :   -0.072685
  10 H :    0.028878
  11 H :    0.030901
  12 C :   -0.021491
  13 H :    0.018034
  14 H :    0.040483
  15 H :    0.023022
  16 S :    0.128346
  17 C :   -0.096276
  18 C :   -0.030424
  19 C :   -0.055106
  20 C :   -0.177988
  21 H :    0.010728
  22 C :    0.106528
  23 H :    0.020856
  24 H :    0.038155
  25 C :   -0.077862
  26 H :    0.038284
  27 H :    0.031588
  28 C :   -0.059636
  29 H :    0.032185
  30 H :    0.015132
  31 H :    0.033207
  32 H :    0.052874
  33 H :    0.057911
Sum of atomic charges:   -0.0000000

LOEWDIN ATOMIC CHARGES
----------------------
   0 S :    0.372214
   1 C :   -0.177861
   2 C :   -0.062967
   3 C :   -0.047163
   4 C :   -0.186466
   5 H :    0.028504
   6 C :   -0.032514
   7 H :    0.036423
   8 H :    0.020402
   9 C :   -0.031287
  10 H :    0.022746
  11 H :    0.024981
  12 C :   -0.063800
  13 H :    0.018173
  14 H :    0.030870
  15 H :    0.023339
  16 S :    0.449111
  17 C :   -0.202795
  18 C :   -0.073578
  19 C :   -0.050693
  20 C :   -0.230894
  21 H :    0.027079
  22 C :   -0.021321
  23 H :    0.028289
  24 H :    0.033503
  25 C :   -0.041793
  26 H :    0.029336
  27 H :    0.021696
  28 C :   -0.072565
  29 H :    0.023992
  30 H :    0.023379
  31 H :    0.025068
  32 H :    0.024887
  33 H :    0.031703

  Mayer bond orders larger than 0.100000
B(  0-S ,  1-C ) :   1.1420 B(  0-S ,  4-C ) :   1.1300 B(  1-C ,  2-C ) :   1.5891
B(  1-C ,  4-C ) :   0.1015 B(  1-C , 32-H ) :   0.9753 B(  2-C ,  3-C ) :   1.2343
B(  2-C ,  6-C ) :   1.0392 B(  3-C ,  4-C ) :   1.5903 B(  3-C ,  5-H ) :   0.9954
B(  4-C , 20-C ) :   1.0355 B(  6-C ,  7-H ) :   0.9463 B(  6-C ,  8-H ) :   0.9320
B(  6-C ,  9-C ) :   1.0400 B(  9-C , 10-H ) :   0.9627 B(  9-C , 11-H ) :   0.9608
B(  9-C , 12-C ) :   1.0541 B( 12-C , 13-H ) :   0.9784 B( 12-C , 14-H ) :   0.9791
B( 12-C , 15-H ) :   0.9777 B( 16-S , 17-C ) :   1.1626 B( 16-S , 20-C ) :   1.1752
B( 17-C , 18-C ) :   1.6122 B( 17-C , 33-H ) :   0.9640 B( 18-C , 19-C ) :   1.2498
B( 18-C , 21-H ) :   0.9944 B( 19-C , 20-C ) :   1.5782 B( 19-C , 22-C ) :   1.0196
B( 22-C , 23-H ) :   0.9477 B( 22-C , 24-H ) :   0.9377 B( 22-C , 25-C ) :   1.0458
B( 25-C , 26-H ) :   0.9590 B( 25-C , 27-H ) :   0.9610 B( 25-C , 28-C ) :   1.0676
B( 28-C , 29-H ) :   0.9740 B( 28-C , 30-H ) :   0.9727 B( 28-C , 31-H ) :   0.9748

Dispersion correction           -0.014340202
FINAL SINGLE POINT ENERGY     -1339.860021311939

DIPOLE MOMENT
-------------
                                X             Y             Z
Electronic contribution:    -12.68604     -18.57154       1.63550
Nuclear contribution   :     12.96440      18.91939      -1.61109
                        -----------------------------------------
Total Dipole Moment    :      0.27836       0.34786       0.02441
                        -----------------------------------------
Magnitude (a.u.)       :      0.44619
Magnitude (Debye)      :      1.13413

Rotational constants in cm-1:     0.019850     0.007496     0.006723
Rotational constants in MHz :   595.094675   224.720806   201.560783

                             ****ORCA TERMINATED NORMALLY****
TOTAL RUN TIME: 0 days 0 hours 0 minutes 21 seconds 42 msec
