                         Program Version 4.2.1 -  RELEASE  -
|  1> ! wB97X-D3 SP def2-SVP
|  2> %pal
|  3> nprocs 24
|  4> end
|  5>
|  6> * xyz 0 1
|  7> S 	 -83.309 	 1.93238 	 -114.271
|  8> C 	 -83.2658 	 3.55061 	 -114.822
|  9> C 	 -84.5141 	 4.08691 	 -115.068
| 10> C 	 -85.5116 	 3.06531 	 -114.978
| 11> C 	 -85.0521 	 1.86648 	 -114.469
| 12> H 	 -86.5579 	 3.24744 	 -115.114
| 13> C 	 -84.85 	 5.54078 	 -115.377
| 14> H 	 -84.0103 	 5.99066 	 -115.928
| 15> H 	 -84.8942 	 6.08912 	 -114.482
| 16> C 	 -86.217 	 5.93518 	 -116.063
| 17> H 	 -86.1662 	 5.57445 	 -117.06
| 18> H 	 -87.1097 	 5.45228 	 -115.664
| 19> C 	 -86.3516 	 7.43819 	 -116.176
| 20> H 	 -86.1166 	 8.10365 	 -115.287
| 21> H 	 -85.5954 	 7.74564 	 -116.849
| 22> H 	 -87.3157 	 7.70235 	 -116.516
| 23> S 	 -85.2457 	 0.118019 	 -112.431
| 24> C 	 -86.581 	 -1.04546 	 -112.427
| 25> C 	 -87.4213 	 -0.886561 	 -113.502
| 26> C 	 -87.0375 	 0.14414 	 -114.416
| 27> C 	 -85.8078 	 0.72406 	 -113.999
| 28> H 	 -88.2748 	 -1.54634 	 -113.556
| 29> C 	 -87.8001 	 0.536269 	 -115.623
| 30> H 	 -88.2035 	 -0.421773 	 -116.062
| 31> H 	 -87.124 	 0.899963 	 -116.367
| 32> C 	 -89.1634 	 1.21213 	 -115.33
| 33> H 	 -88.9583 	 2.15426 	 -114.822
| 34> H 	 -89.7902 	 0.686549 	 -114.612
| 35> C 	 -89.8679 	 1.52588 	 -116.691
| 36> H 	 -89.1902 	 1.95618 	 -117.318
| 37> H 	 -90.6597 	 2.21672 	 -116.47
| 38> H 	 -90.2217 	 0.605402 	 -117.206
| 39> H 	 -82.4008 	 4.19212 	 -115.152
| 40> H 	 -86.634 	 -1.94082 	 -111.776
| 41> *
| 42>
| 43>                          ****END OF INPUT****

CARTESIAN COORDINATES (ANGSTROEM)
---------------------------------
  S    -83.309000    1.932380  -114.271000
  C    -83.265800    3.550610  -114.822000
  C    -84.514100    4.086910  -115.068000
  C    -85.511600    3.065310  -114.978000
  C    -85.052100    1.866480  -114.469000
  H    -86.557900    3.247440  -115.114000
  C    -84.850000    5.540780  -115.377000
  H    -84.010300    5.990660  -115.928000
  H    -84.894200    6.089120  -114.482000
  C    -86.217000    5.935180  -116.063000
  H    -86.166200    5.574450  -117.060000
  H    -87.109700    5.452280  -115.664000
  C    -86.351600    7.438190  -116.176000
  H    -86.116600    8.103650  -115.287000
  H    -85.595400    7.745640  -116.849000
  H    -87.315700    7.702350  -116.516000
  S    -85.245700    0.118019  -112.431000
  C    -86.581000   -1.045460  -112.427000
  C    -87.421300   -0.886561  -113.502000
  C    -87.037500    0.144140  -114.416000
  C    -85.807800    0.724060  -113.999000
  H    -88.274800   -1.546340  -113.556000
  C    -87.800100    0.536269  -115.623000
  H    -88.203500   -0.421773  -116.062000
  H    -87.124000    0.899963  -116.367000
  C    -89.163400    1.212130  -115.330000
  H    -88.958300    2.154260  -114.822000
  H    -89.790200    0.686549  -114.612000
  C    -89.867900    1.525880  -116.691000
  H    -89.190200    1.956180  -117.318000
  H    -90.659700    2.216720  -116.470000
  H    -90.221700    0.605402  -117.206000
  H    -82.400800    4.192120  -115.152000
  H    -86.634000   -1.940820  -111.776000

 Total Charge           Charge          ....    0
 Multiplicity           Mult            ....    1
 Number of Electrons    NEL             ....  134
 Basis Dimension        Dim             ....  322

ORBITAL ENERGIES
----------------

  NO   OCC          E(Eh)            E(eV)
   0   2.0000     -88.968946     -2420.9681
   1   2.0000     -88.964576     -2420.8492
   2   2.0000     -10.329046      -281.0676
   3   2.0000     -10.327679      -281.0304
   4   2.0000     -10.316250      -280.7194
   5   2.0000     -10.312415      -280.6151
   6   2.0000     -10.304796      -280.4078
   7   2.0000     -10.300638      -280.2946
   8   2.0000     -10.294286      -280.1218
   9   2.0000     -10.292925      -280.0847
  10   2.0000     -10.292674      -280.0779
  11   2.0000     -10.292619      -280.0764
  12   2.0000     -10.290747      -280.0255
  13   2.0000     -10.289593      -279.9941
  14   2.0000     -10.278029      -279.6794
  15   2.0000     -10.275963      -279.6232
  16   2.0000      -8.083890      -219.9738
  17   2.0000      -8.078638      -219.8309
  18   2.0000      -6.042409      -164.4223
  19   2.0000      -6.038371      -164.3124
  20   2.0000      -6.037191      -164.2803
  21   2.0000      -6.034618      -164.2103
  22   2.0000      -6.033305      -164.1746
  23   2.0000      -6.029326      -164.0663
  24   2.0000      -1.007159       -27.4062
  25   2.0000      -0.980757       -26.6878
  26   2.0000      -0.913143       -24.8479
  27   2.0000      -0.910084       -24.7646
  28   2.0000      -0.872085       -23.7306
  29   2.0000      -0.854379       -23.2488
  30   2.0000      -0.848315       -23.0838
  31   2.0000      -0.815050       -22.1786
  32   2.0000      -0.783070       -21.3084
  33   2.0000      -0.769381       -20.9359
  34   2.0000      -0.715652       -19.4739
  35   2.0000      -0.706718       -19.2308
  36   2.0000      -0.691797       -18.8247
  37   2.0000      -0.660177       -17.9643
  38   2.0000      -0.634553       -17.2671
  39   2.0000      -0.623317       -16.9613
  40   2.0000      -0.594845       -16.1865
  41   2.0000      -0.570362       -15.5203
  42   2.0000      -0.567641       -15.4463
  43   2.0000      -0.561314       -15.2741
  44   2.0000      -0.535292       -14.5660
  45   2.0000      -0.528415       -14.3789
  46   2.0000      -0.516124       -14.0444
  47   2.0000      -0.506562       -13.7842
  48   2.0000      -0.501018       -13.6334
  49   2.0000      -0.496896       -13.5212
  50   2.0000      -0.489230       -13.3126
  51   2.0000      -0.484243       -13.1769
  52   2.0000      -0.473576       -12.8867
  53   2.0000      -0.466796       -12.7022
  54   2.0000      -0.461481       -12.5575
  55   2.0000      -0.453299       -12.3349
  56   2.0000      -0.447196       -12.1688
  57   2.0000      -0.443334       -12.0637
  58   2.0000      -0.435637       -11.8543
  59   2.0000      -0.432006       -11.7555
  60   2.0000      -0.421272       -11.4634
  61   2.0000      -0.417532       -11.3616
  62   2.0000      -0.413616       -11.2551
  63   2.0000      -0.353692        -9.6244
  64   2.0000      -0.331276        -9.0145
  65   2.0000      -0.326857        -8.8942
  66   2.0000      -0.280195        -7.6245
  67   0.0000       0.025166         0.6848
  68   0.0000       0.073173         1.9911
  69   0.0000       0.109301         2.9742
  70   0.0000       0.121182         3.2975
  71   0.0000       0.129053         3.5117

MULLIKEN ATOMIC CHARGES
-----------------------
   0 S :    0.126555
   1 C :   -0.128752
   2 C :   -0.085469
   3 C :    0.022966
   4 C :   -0.143365
   5 H :   -0.007649
   6 C :    0.050702
   7 H :    0.020986
   8 H :    0.030982
   9 C :   -0.076009
  10 H :    0.023744
  11 H :    0.036601
  12 C :   -0.030784
  13 H :    0.032499
  14 H :    0.017366
  15 H :    0.027701
  16 S :    0.091180
  17 C :   -0.101343
  18 C :   -0.038215
  19 C :   -0.011053
  20 C :   -0.141119
  21 H :    0.014426
  22 C :    0.035258
  23 H :    0.020429
  24 H :    0.033607
  25 C :   -0.088993
  26 H :    0.020748
  27 H :    0.035652
  28 C :    0.003988
  29 H :    0.007992
  30 H :    0.034401
  31 H :    0.036579
  32 H :    0.060592
  33 H :    0.067798
Sum of atomic charges:    0.0000000

LOEWDIN ATOMIC CHARGES
----------------------
   0 S :    0.422954
   1 C :   -0.225784
   2 C :   -0.063560
   3 C :   -0.062014
   4 C :   -0.196093
   5 H :    0.024353
   6 C :   -0.029442
   7 H :    0.032008
   8 H :    0.028503
   9 C :   -0.037308
  10 H :    0.022071
  11 H :    0.021723
  12 C :   -0.061935
  13 H :    0.030928
  14 H :    0.021813
  15 H :    0.022228
  16 S :    0.383790
  17 C :   -0.188954
  18 C :   -0.068090
  19 C :   -0.056549
  20 C :   -0.185812
  21 H :    0.031301
  22 C :   -0.041410
  23 H :    0.038636
  24 H :    0.030933
  25 C :   -0.032150
  26 H :    0.017177
  27 H :    0.025431
  28 C :   -0.052004
  29 H :    0.011660
  30 H :    0.026432
  31 H :    0.029982
  32 H :    0.043173
  33 H :    0.036010

  Mayer bond orders larger than 0.100000
B(  0-S ,  1-C ) :   1.1413 B(  0-S ,  4-C ) :   1.1483 B(  1-C ,  2-C ) :   1.6178
B(  1-C , 32-H ) :   0.9557 B(  2-C ,  3-C ) :   1.2696 B(  2-C ,  6-C ) :   1.0068
B(  3-C ,  4-C ) :   1.5508 B(  3-C ,  5-H ) :   0.9942 B(  4-C , 20-C ) :   1.0564
B(  6-C ,  7-H ) :   0.9421 B(  6-C ,  8-H ) :   0.9375 B(  6-C ,  9-C ) :   1.0641
B(  9-C , 10-H ) :   0.9540 B(  9-C , 11-H ) :   0.9531 B(  9-C , 12-C ) :   1.0831
B( 12-C , 13-H ) :   0.9758 B( 12-C , 14-H ) :   0.9736 B( 12-C , 15-H ) :   0.9717
B( 16-S , 17-C ) :   1.1294 B( 16-S , 20-C ) :   1.1404 B( 17-C , 18-C ) :   1.6403
B( 17-C , 33-H ) :   0.9585 B( 18-C , 19-C ) :   1.2194 B( 18-C , 21-H ) :   0.9884
B( 19-C , 20-C ) :   1.5732 B( 19-C , 22-C ) :   1.0634 B( 22-C , 23-H ) :   0.9281
B( 22-C , 24-H ) :   0.9386 B( 22-C , 25-C ) :   1.0405 B( 25-C , 26-H ) :   0.9549
B( 25-C , 27-H ) :   0.9570 B( 25-C , 28-C ) :   1.0761 B( 28-C , 29-H ) :   0.9727
B( 28-C , 30-H ) :   0.9749 B( 28-C , 31-H ) :   0.9754

Dispersion correction           -0.013755464
FINAL SINGLE POINT ENERGY     -1339.865094306479

DIPOLE MOMENT
-------------
                                X             Y             Z
Electronic contribution:     21.02964     -19.03157      16.55626
Nuclear contribution   :    -21.60421      19.42660     -16.97023
                        -----------------------------------------
Total Dipole Moment    :     -0.57457       0.39503      -0.41396
                        -----------------------------------------
Magnitude (a.u.)       :      0.81089
Magnitude (Debye)      :      2.06112

Rotational constants in cm-1:     0.015999     0.009577     0.006435
Rotational constants in MHz :   479.640331   287.121049   192.922842

                             ****ORCA TERMINATED NORMALLY****
TOTAL RUN TIME: 0 days 0 hours 0 minutes 21 seconds 475 msec
