                         Program Version 4.2.1 -  RELEASE  -
|  1> ! wB97X-D3 SP def2-SVP
|  2> %pal
|  3> nprocs 24
|  4> end
|  5>
|  6> * xyz 0 1
|  7> S 	 -40.5767 	 -0.682191 	 -25.4536
|  8> C 	 -41.0054 	 0.592072 	 -24.2534
|  9> C 	 -41.302 	 -0.0285267 	 -23.0313
| 10> C 	 -41.0511 	 -1.43916 	 -23.0759
| 11> C 	 -40.6301 	 -1.91883 	 -24.2904
| 12> H 	 -41.2225 	 -2.22696 	 -22.3255
| 13> C 	 -41.891 	 0.634375 	 -21.8094
| 14> H 	 -40.9857 	 1.20172 	 -21.3053
| 15> H 	 -42.1617 	 -0.19869 	 -21.1464
| 16> C 	 -43.0492 	 1.65747 	 -22.0601
| 17> H 	 -43.4212 	 2.32635 	 -21.234
| 18> H 	 -42.5649 	 2.38567 	 -22.7612
| 19> C 	 -44.2154 	 1.03542 	 -22.8407
| 20> H 	 -43.9118 	 0.617397 	 -23.7543
| 21> H 	 -44.7364 	 0.254279 	 -22.2158
| 22> H 	 -45.0201 	 1.78378 	 -23.067
| 23> S 	 -41.349 	 -4.03534 	 -25.8581
| 24> C 	 -40.5284 	 -5.58239 	 -25.7046
| 25> C 	 -39.4612 	 -5.41464 	 -24.8284
| 26> C 	 -39.43 	 -4.174 	 -24.1661
| 27> C 	 -40.3487 	 -3.34137 	 -24.6156
| 28> H 	 -38.7565 	 -6.2069 	 -24.6541
| 29> C 	 -38.3473 	 -3.80522 	 -23.1821
| 30> H 	 -38.8072 	 -3.6933 	 -22.276
| 31> H 	 -37.8316 	 -2.87392 	 -23.509
| 32> C 	 -37.2169 	 -4.82471 	 -23.0538
| 33> H 	 -36.6857 	 -4.8202 	 -23.9816
| 34> H 	 -37.6442 	 -5.84286 	 -22.9343
| 35> C 	 -36.2959 	 -4.52636 	 -21.8698
| 36> H 	 -36.7425 	 -4.3904 	 -20.8705
| 37> H 	 -35.8201 	 -3.60133 	 -22.0916
| 38> H 	 -35.4553 	 -5.22623 	 -21.711
| 39> H 	 -41.2911 	 1.61788 	 -24.4369
| 40> H 	 -40.5881 	 -6.40127 	 -26.4059
| 41> *
| 42>
| 43>                          ****END OF INPUT****

CARTESIAN COORDINATES (ANGSTROEM)
---------------------------------
  S    -40.576700   -0.682191  -25.453600
  C    -41.005400    0.592072  -24.253400
  C    -41.302000   -0.028527  -23.031300
  C    -41.051100   -1.439160  -23.075900
  C    -40.630100   -1.918830  -24.290400
  H    -41.222500   -2.226960  -22.325500
  C    -41.891000    0.634375  -21.809400
  H    -40.985700    1.201720  -21.305300
  H    -42.161700   -0.198690  -21.146400
  C    -43.049200    1.657470  -22.060100
  H    -43.421200    2.326350  -21.234000
  H    -42.564900    2.385670  -22.761200
  C    -44.215400    1.035420  -22.840700
  H    -43.911800    0.617397  -23.754300
  H    -44.736400    0.254279  -22.215800
  H    -45.020100    1.783780  -23.067000
  S    -41.349000   -4.035340  -25.858100
  C    -40.528400   -5.582390  -25.704600
  C    -39.461200   -5.414640  -24.828400
  C    -39.430000   -4.174000  -24.166100
  C    -40.348700   -3.341370  -24.615600
  H    -38.756500   -6.206900  -24.654100
  C    -38.347300   -3.805220  -23.182100
  H    -38.807200   -3.693300  -22.276000
  H    -37.831600   -2.873920  -23.509000
  C    -37.216900   -4.824710  -23.053800
  H    -36.685700   -4.820200  -23.981600
  H    -37.644200   -5.842860  -22.934300
  C    -36.295900   -4.526360  -21.869800
  H    -36.742500   -4.390400  -20.870500
  H    -35.820100   -3.601330  -22.091600
  H    -35.455300   -5.226230  -21.711000
  H    -41.291100    1.617880  -24.436900
  H    -40.588100   -6.401270  -26.405900

 Total Charge           Charge          ....    0
 Multiplicity           Mult            ....    1
 Number of Electrons    NEL             ....  134
 Basis Dimension        Dim             ....  322

ORBITAL ENERGIES
----------------

  NO   OCC          E(Eh)            E(eV)
   0   2.0000     -88.968531     -2420.9568
   1   2.0000     -88.964002     -2420.8336
   2   2.0000     -10.326490      -280.9981
   3   2.0000     -10.320245      -280.8281
   4   2.0000     -10.318362      -280.7769
   5   2.0000     -10.317855      -280.7631
   6   2.0000     -10.307552      -280.4827
   7   2.0000     -10.306094      -280.4431
   8   2.0000     -10.299501      -280.2637
   9   2.0000     -10.293147      -280.0908
  10   2.0000     -10.293101      -280.0895
  11   2.0000     -10.291308      -280.0407
  12   2.0000     -10.286943      -279.9219
  13   2.0000     -10.285244      -279.8757
  14   2.0000     -10.278629      -279.6957
  15   2.0000     -10.277764      -279.6722
  16   2.0000      -8.083029      -219.9504
  17   2.0000      -8.079040      -219.8419
  18   2.0000      -6.041644      -164.4015
  19   2.0000      -6.037557      -164.2903
  20   2.0000      -6.037398      -164.2860
  21   2.0000      -6.033850      -164.1894
  22   2.0000      -6.033495      -164.1797
  23   2.0000      -6.029771      -164.0784
  24   2.0000      -1.013987       -27.5920
  25   2.0000      -0.988223       -26.8909
  26   2.0000      -0.915610       -24.9150
  27   2.0000      -0.909677       -24.7536
  28   2.0000      -0.865485       -23.5510
  29   2.0000      -0.854064       -23.2402
  30   2.0000      -0.844193       -22.9717
  31   2.0000      -0.813387       -22.1334
  32   2.0000      -0.782911       -21.3041
  33   2.0000      -0.775648       -21.1064
  34   2.0000      -0.710322       -19.3289
  35   2.0000      -0.706577       -19.2269
  36   2.0000      -0.694690       -18.9035
  37   2.0000      -0.658833       -17.9278
  38   2.0000      -0.638044       -17.3621
  39   2.0000      -0.607743       -16.5375
  40   2.0000      -0.598281       -16.2801
  41   2.0000      -0.580062       -15.7843
  42   2.0000      -0.571315       -15.5463
  43   2.0000      -0.547400       -14.8955
  44   2.0000      -0.541315       -14.7299
  45   2.0000      -0.523795       -14.2532
  46   2.0000      -0.516082       -14.0433
  47   2.0000      -0.510421       -13.8893
  48   2.0000      -0.508365       -13.8333
  49   2.0000      -0.498163       -13.5557
  50   2.0000      -0.487512       -13.2659
  51   2.0000      -0.476375       -12.9628
  52   2.0000      -0.473427       -12.8826
  53   2.0000      -0.466943       -12.7062
  54   2.0000      -0.462629       -12.5888
  55   2.0000      -0.453159       -12.3311
  56   2.0000      -0.442168       -12.0320
  57   2.0000      -0.435875       -11.8608
  58   2.0000      -0.432678       -11.7738
  59   2.0000      -0.427190       -11.6244
  60   2.0000      -0.422063       -11.4849
  61   2.0000      -0.415271       -11.3001
  62   2.0000      -0.409525       -11.1437
  63   2.0000      -0.339522        -9.2389
  64   2.0000      -0.334939        -9.1142
  65   2.0000      -0.329341        -8.9618
  66   2.0000      -0.303565        -8.2604
  67   0.0000       0.034368         0.9352
  68   0.0000       0.063431         1.7260
  69   0.0000       0.110013         2.9936
  70   0.0000       0.126836         3.4514
  71   0.0000       0.130454         3.5498

MULLIKEN ATOMIC CHARGES
-----------------------
   0 S :    0.113901
   1 C :   -0.124888
   2 C :   -0.106549
   3 C :    0.023914
   4 C :   -0.162749
   5 H :    0.020407
   6 C :    0.048349
   7 H :    0.065927
   8 H :    0.028995
   9 C :   -0.094834
  10 H :    0.048375
  11 H :    0.022023
  12 C :   -0.058964
  13 H :    0.037082
  14 H :    0.035253
  15 H :    0.036717
  16 S :    0.104204
  17 C :   -0.072433
  18 C :   -0.063424
  19 C :   -0.029234
  20 C :   -0.187755
  21 H :    0.013911
  22 C :    0.138921
  23 H :    0.002373
  24 H :    0.045406
  25 C :   -0.117509
  26 H :    0.030563
  27 H :    0.035637
  28 C :   -0.024659
  29 H :    0.033895
  30 H :    0.013532
  31 H :    0.034508
  32 H :    0.050549
  33 H :    0.058558
Sum of atomic charges:   -0.0000000

LOEWDIN ATOMIC CHARGES
----------------------
   0 S :    0.414143
   1 C :   -0.196854
   2 C :   -0.059232
   3 C :   -0.074912
   4 C :   -0.208134
   5 H :    0.036094
   6 C :   -0.039386
   7 H :    0.051220
   8 H :    0.027923
   9 C :   -0.051332
  10 H :    0.033994
  11 H :    0.023404
  12 C :   -0.069176
  13 H :    0.017386
  14 H :    0.028889
  15 H :    0.030693
  16 S :    0.407046
  17 C :   -0.184791
  18 C :   -0.066881
  19 C :   -0.065630
  20 C :   -0.196736
  21 H :    0.027429
  22 C :   -0.018108
  23 H :    0.018601
  24 H :    0.042000
  25 C :   -0.041033
  26 H :    0.023166
  27 H :    0.021705
  28 C :   -0.067523
  29 H :    0.028192
  30 H :    0.020625
  31 H :    0.029534
  32 H :    0.027206
  33 H :    0.030480

  Mayer bond orders larger than 0.100000
B(  0-S ,  1-C ) :   1.1257 B(  0-S ,  4-C ) :   1.1709 B(  1-C ,  2-C ) :   1.5959
B(  1-C , 32-H ) :   0.9688 B(  2-C ,  3-C ) :   1.2376 B(  2-C ,  6-C ) :   1.0063
B(  3-C ,  4-C ) :   1.5932 B(  3-C ,  5-H ) :   0.9857 B(  4-C , 20-C ) :   0.9854
B(  6-C ,  7-H ) :   0.9359 B(  6-C ,  8-H ) :   0.9495 B(  6-C ,  9-C ) :   1.0505
B(  9-C , 10-H ) :   0.9596 B(  9-C , 11-H ) :   0.9524 B(  9-C , 12-C ) :   1.0761
B( 12-C , 13-H ) :   0.9731 B( 12-C , 14-H ) :   0.9760 B( 12-C , 15-H ) :   0.9737
B( 16-S , 17-C ) :   1.1521 B( 16-S , 20-C ) :   1.1484 B( 17-C , 18-C ) :   1.5979
B( 17-C , 33-H ) :   0.9627 B( 18-C , 19-C ) :   1.2566 B( 18-C , 21-H ) :   0.9816
B( 19-C , 20-C ) :   1.6578 B( 19-C , 22-C ) :   1.0170 B( 22-C , 23-H ) :   0.9141
B( 22-C , 24-H ) :   0.9296 B( 22-C , 25-C ) :   1.0941 B( 25-C , 26-H ) :   0.9532
B( 25-C , 27-H ) :   0.9467 B( 25-C , 28-C ) :   1.0812 B( 28-C , 29-H ) :   0.9757
B( 28-C , 30-H ) :   0.9694 B( 28-C , 31-H ) :   0.9730

Dispersion correction           -0.013982567
FINAL SINGLE POINT ENERGY     -1339.873115691245

DIPOLE MOMENT
-------------
                                X             Y             Z
Electronic contribution:     -4.68692      -4.72585     -19.51282
Nuclear contribution   :      4.88313       4.71168      19.96185
                        -----------------------------------------
Total Dipole Moment    :      0.19621      -0.01417       0.44903
                        -----------------------------------------
Magnitude (a.u.)       :      0.49023
Magnitude (Debye)      :      1.24607

Rotational constants in cm-1:     0.020645     0.007742     0.006386
Rotational constants in MHz :   618.923772   232.099924   191.436186

                             ****ORCA TERMINATED NORMALLY****
TOTAL RUN TIME: 0 days 0 hours 0 minutes 21 seconds 225 msec
