                         Program Version 4.2.1 -  RELEASE  -
|  1> ! wB97X-D3 SP def2-SVP
|  2> %pal
|  3> nprocs 24
|  4> end
|  5>
|  6> * xyz 0 1
|  7> S 	 -48.0784 	 25.0362 	 30.9442
|  8> C 	 -47.2114 	 26.4835 	 31.3488
|  9> C 	 -45.8558 	 26.2368 	 31.5999
| 10> C 	 -45.5473 	 24.8616 	 31.5848
| 11> C 	 -46.6423 	 24.0893 	 31.2349
| 12> H 	 -44.5969 	 24.4417 	 31.9174
| 13> C 	 -44.8599 	 27.2268 	 32.1121
| 14> H 	 -44.76 	 28.0618 	 31.4149
| 15> H 	 -43.916 	 26.6308 	 32.11
| 16> C 	 -45.1808 	 27.732 	 33.5236
| 17> H 	 -46.0228 	 28.4178 	 33.5279
| 18> H 	 -45.3031 	 26.8386 	 34.1909
| 19> C 	 -44.0932 	 28.5258 	 34.2601
| 20> H 	 -43.8713 	 29.4472 	 33.7668
| 21> H 	 -44.3973 	 28.8107 	 35.2765
| 22> H 	 -43.2756 	 27.8661 	 34.2879
| 23> S 	 -47.2567 	 22.0342 	 29.4775
| 24> C 	 -47.4296 	 20.4401 	 30.1417
| 25> C 	 -46.7454 	 20.3219 	 31.3593
| 26> C 	 -46.2817 	 21.5551 	 31.8514
| 27> C 	 -46.7001 	 22.622 	 31.112
| 28> H 	 -46.4991 	 19.3785 	 31.8054
| 29> C 	 -45.4918 	 21.6471 	 33.1396
| 30> H 	 -45.1701 	 22.6741 	 33.3452
| 31> H 	 -44.5793 	 21.0789 	 32.9757
| 32> C 	 -46.3056 	 20.9647 	 34.3515
| 33> H 	 -46.4085 	 19.9374 	 34.19
| 34> H 	 -47.312 	 21.3191 	 34.237
| 35> C 	 -45.7658 	 21.0774 	 35.7878
| 36> H 	 -45.7051 	 22.1126 	 36.0398
| 37> H 	 -44.7363 	 20.6659 	 35.9028
| 38> H 	 -46.4334 	 20.4987 	 36.4219
| 39> H 	 -47.6581 	 27.4456 	 31.5668
| 40> H 	 -47.7596 	 19.5192 	 29.7464
| 41> *
| 42>
| 43>                          ****END OF INPUT****

CARTESIAN COORDINATES (ANGSTROEM)
---------------------------------
  S    -48.078400   25.036200   30.944200
  C    -47.211400   26.483500   31.348800
  C    -45.855800   26.236800   31.599900
  C    -45.547300   24.861600   31.584800
  C    -46.642300   24.089300   31.234900
  H    -44.596900   24.441700   31.917400
  C    -44.859900   27.226800   32.112100
  H    -44.760000   28.061800   31.414900
  H    -43.916000   26.630800   32.110000
  C    -45.180800   27.732000   33.523600
  H    -46.022800   28.417800   33.527900
  H    -45.303100   26.838600   34.190900
  C    -44.093200   28.525800   34.260100
  H    -43.871300   29.447200   33.766800
  H    -44.397300   28.810700   35.276500
  H    -43.275600   27.866100   34.287900
  S    -47.256700   22.034200   29.477500
  C    -47.429600   20.440100   30.141700
  C    -46.745400   20.321900   31.359300
  C    -46.281700   21.555100   31.851400
  C    -46.700100   22.622000   31.112000
  H    -46.499100   19.378500   31.805400
  C    -45.491800   21.647100   33.139600
  H    -45.170100   22.674100   33.345200
  H    -44.579300   21.078900   32.975700
  C    -46.305600   20.964700   34.351500
  H    -46.408500   19.937400   34.190000
  H    -47.312000   21.319100   34.237000
  C    -45.765800   21.077400   35.787800
  H    -45.705100   22.112600   36.039800
  H    -44.736300   20.665900   35.902800
  H    -46.433400   20.498700   36.421900
  H    -47.658100   27.445600   31.566800
  H    -47.759600   19.519200   29.746400

 Total Charge           Charge          ....    0
 Multiplicity           Mult            ....    1
 Number of Electrons    NEL             ....  134
 Basis Dimension        Dim             ....  322

ORBITAL ENERGIES
----------------

  NO   OCC          E(Eh)            E(eV)
   0   2.0000     -88.971560     -2421.0392
   1   2.0000     -88.963583     -2420.8222
   2   2.0000     -10.329575      -281.0820
   3   2.0000     -10.326219      -280.9907
   4   2.0000     -10.312958      -280.6299
   5   2.0000     -10.312912      -280.6286
   6   2.0000     -10.298338      -280.2320
   7   2.0000     -10.297885      -280.2197
   8   2.0000     -10.296029      -280.1692
   9   2.0000     -10.294864      -280.1375
  10   2.0000     -10.294593      -280.1301
  11   2.0000     -10.289608      -279.9945
  12   2.0000     -10.288102      -279.9535
  13   2.0000     -10.282374      -279.7976
  14   2.0000     -10.279405      -279.7168
  15   2.0000     -10.272790      -279.5368
  16   2.0000      -8.086174      -220.0360
  17   2.0000      -8.077439      -219.7983
  18   2.0000      -6.044561      -164.4809
  19   2.0000      -6.040652      -164.3745
  20   2.0000      -6.037107      -164.2780
  21   2.0000      -6.036054      -164.2494
  22   2.0000      -6.032380      -164.1494
  23   2.0000      -6.027816      -164.0252
  24   2.0000      -1.005979       -27.3741
  25   2.0000      -0.984039       -26.7771
  26   2.0000      -0.914814       -24.8934
  27   2.0000      -0.900939       -24.5158
  28   2.0000      -0.865401       -23.5488
  29   2.0000      -0.857607       -23.3367
  30   2.0000      -0.849031       -23.1033
  31   2.0000      -0.812387       -22.1062
  32   2.0000      -0.783117       -21.3097
  33   2.0000      -0.770729       -20.9726
  34   2.0000      -0.705561       -19.1993
  35   2.0000      -0.702644       -19.1199
  36   2.0000      -0.694418       -18.8961
  37   2.0000      -0.661983       -18.0135
  38   2.0000      -0.640196       -17.4206
  39   2.0000      -0.619592       -16.8600
  40   2.0000      -0.589419       -16.0389
  41   2.0000      -0.577748       -15.7213
  42   2.0000      -0.564046       -15.3485
  43   2.0000      -0.560450       -15.2506
  44   2.0000      -0.528535       -14.3822
  45   2.0000      -0.523344       -14.2409
  46   2.0000      -0.518093       -14.0980
  47   2.0000      -0.513516       -13.9735
  48   2.0000      -0.506031       -13.7698
  49   2.0000      -0.496919       -13.5218
  50   2.0000      -0.489344       -13.3157
  51   2.0000      -0.481609       -13.1052
  52   2.0000      -0.476963       -12.9788
  53   2.0000      -0.466808       -12.7025
  54   2.0000      -0.458694       -12.4817
  55   2.0000      -0.448140       -12.1945
  56   2.0000      -0.446899       -12.1607
  57   2.0000      -0.438948       -11.9444
  58   2.0000      -0.432437       -11.7672
  59   2.0000      -0.427442       -11.6313
  60   2.0000      -0.421195       -11.4613
  61   2.0000      -0.418220       -11.3803
  62   2.0000      -0.412153       -11.2153
  63   2.0000      -0.342822        -9.3287
  64   2.0000      -0.334748        -9.1090
  65   2.0000      -0.324462        -8.8291
  66   2.0000      -0.288234        -7.8432
  67   0.0000       0.027684         0.7533
  68   0.0000       0.062214         1.6929
  69   0.0000       0.099674         2.7123
  70   0.0000       0.116720         3.1761
  71   0.0000       0.131312         3.5732

MULLIKEN ATOMIC CHARGES
-----------------------
   0 S :    0.142186
   1 C :   -0.120528
   2 C :   -0.092548
   3 C :    0.027842
   4 C :   -0.163566
   5 H :    0.021044
   6 C :    0.071495
   7 H :    0.034229
   8 H :    0.018067
   9 C :   -0.102262
  10 H :    0.028565
  11 H :    0.035845
  12 C :   -0.015922
  13 H :    0.021136
  14 H :    0.034983
  15 H :    0.015856
  16 S :    0.096331
  17 C :   -0.040593
  18 C :   -0.067109
  19 C :   -0.019702
  20 C :   -0.179238
  21 H :    0.012254
  22 C :    0.094147
  23 H :    0.013679
  24 H :    0.029333
  25 C :   -0.100210
  26 H :    0.012423
  27 H :    0.034384
  28 C :   -0.024448
  29 H :    0.029199
  30 H :    0.031182
  31 H :    0.038834
  32 H :    0.047803
  33 H :    0.035310
Sum of atomic charges:    0.0000000

LOEWDIN ATOMIC CHARGES
----------------------
   0 S :    0.434181
   1 C :   -0.204402
   2 C :   -0.064530
   3 C :   -0.063548
   4 C :   -0.200333
   5 H :    0.032947
   6 C :   -0.034656
   7 H :    0.032016
   8 H :    0.032187
   9 C :   -0.040755
  10 H :    0.020616
  11 H :    0.031011
  12 C :   -0.057792
  13 H :    0.018108
  14 H :    0.029607
  15 H :    0.015325
  16 S :    0.377626
  17 C :   -0.181787
  18 C :   -0.070112
  19 C :   -0.060147
  20 C :   -0.173858
  21 H :    0.027085
  22 C :   -0.024648
  23 H :    0.024931
  24 H :    0.032109
  25 C :   -0.036932
  26 H :    0.013135
  27 H :    0.024770
  28 C :   -0.060879
  29 H :    0.019939
  30 H :    0.028585
  31 H :    0.029877
  32 H :    0.027373
  33 H :    0.022951

  Mayer bond orders larger than 0.100000
B(  0-S ,  1-C ) :   1.1518 B(  0-S ,  4-C ) :   1.1771 B(  1-C ,  2-C ) :   1.5758
B(  1-C ,  4-C ) :   0.1051 B(  1-C , 32-H ) :   0.9703 B(  2-C ,  3-C ) :   1.2775
B(  2-C ,  6-C ) :   1.0320 B(  3-C ,  4-C ) :   1.5454 B(  3-C ,  5-H ) :   0.9863
B(  4-C , 20-C ) :   1.0226 B(  6-C ,  7-H ) :   0.9283 B(  6-C ,  8-H ) :   0.9406
B(  6-C ,  9-C ) :   1.0698 B(  9-C , 10-H ) :   0.9551 B(  9-C , 11-H ) :   0.9588
B(  9-C , 12-C ) :   1.0869 B( 12-C , 13-H ) :   0.9736 B( 12-C , 14-H ) :   0.9740
B( 12-C , 15-H ) :   0.9773 B( 16-S , 17-C ) :   1.1418 B( 16-S , 20-C ) :   1.1214
B( 17-C , 18-C ) :   1.6156 B( 17-C , 20-C ) :   0.1027 B( 17-C , 33-H ) :   0.9686
B( 18-C , 19-C ) :   1.2279 B( 18-C , 21-H ) :   0.9890 B( 19-C , 20-C ) :   1.6198
B( 19-C , 22-C ) :   1.0537 B( 22-C , 23-H ) :   0.9392 B( 22-C , 24-H ) :   0.9264
B( 22-C , 25-C ) :   1.0445 B( 25-C , 26-H ) :   0.9538 B( 25-C , 27-H ) :   0.9612
B( 25-C , 28-C ) :   1.0883 B( 28-C , 29-H ) :   0.9777 B( 28-C , 30-H ) :   0.9730
B( 28-C , 31-H ) :   0.9731

Dispersion correction           -0.013590331
FINAL SINGLE POINT ENERGY     -1339.865984908517

DIPOLE MOMENT
-------------
                                X             Y             Z
Electronic contribution:    -15.28146      -6.52588     -26.07318
Nuclear contribution   :     15.72391       6.55573      26.70929
                        -----------------------------------------
Total Dipole Moment    :      0.44245       0.02985       0.63612
                        -----------------------------------------
Magnitude (a.u.)       :      0.77543
Magnitude (Debye)      :      1.97099

Rotational constants in cm-1:     0.017363     0.008515     0.006249
Rotational constants in MHz :   520.535610   255.261928   187.338068

                             ****ORCA TERMINATED NORMALLY****
TOTAL RUN TIME: 0 days 0 hours 0 minutes 21 seconds 212 msec
