                         Program Version 4.2.1 -  RELEASE  -
|  1> ! wB97X-D3 SP def2-SVP
|  2> %pal
|  3> nprocs 24
|  4> end
|  5>
|  6> * xyz 0 1
|  7> S 	 -140.209 	 6.91552 	 1.38227
|  8> C 	 -140.632 	 7.5925 	 -0.175751
|  9> C 	 -141.894 	 8.20601 	 -0.144369
| 10> C 	 -142.487 	 7.98361 	 1.13038
| 11> C 	 -141.796 	 7.26643 	 2.08511
| 12> H 	 -143.417 	 8.43456 	 1.44281
| 13> C 	 -142.501 	 9.08963 	 -1.27887
| 14> H 	 -143.55 	 9.16107 	 -1.03346
| 15> H 	 -142.489 	 8.49299 	 -2.1837
| 16> C 	 -141.997 	 10.4339 	 -1.54463
| 17> H 	 -142.095 	 11.0632 	 -0.714867
| 18> H 	 -140.975 	 10.4109 	 -1.82903
| 19> C 	 -142.935 	 11.1402 	 -2.57189
| 20> H 	 -143.911 	 11.4137 	 -2.182
| 21> H 	 -142.456 	 12.0733 	 -2.96375
| 22> H 	 -143.13 	 10.5356 	 -3.50666
| 23> S 	 -141.003 	 6.47206 	 4.62839
| 24> C 	 -142.113 	 6.39758 	 5.89186
| 25> C 	 -143.392 	 6.3732 	 5.42908
| 26> C 	 -143.475 	 6.55849 	 4.02423
| 27> C 	 -142.248 	 6.8156 	 3.42038
| 28> H 	 -144.264 	 6.21011 	 6.06919
| 29> C 	 -144.787 	 6.58805 	 3.3378
| 30> H 	 -144.588 	 6.40985 	 2.29823
| 31> H 	 -145.203 	 7.60589 	 3.45335
| 32> C 	 -145.824 	 5.66007 	 3.91216
| 33> H 	 -145.961 	 6.05598 	 4.88598
| 34> H 	 -145.319 	 4.6666 	 3.98982
| 35> C 	 -147.129 	 5.43418 	 3.2412
| 36> H 	 -147.811 	 5.01639 	 3.91812
| 37> H 	 -147.025 	 4.72518 	 2.39192
| 38> H 	 -147.773 	 6.28804 	 2.73931
| 39> H 	 -140.005 	 7.73107 	 -1.0806
| 40> H 	 -141.83 	 6.15952 	 6.89032
| 41> *
| 42>
| 43>                          ****END OF INPUT****

CARTESIAN COORDINATES (ANGSTROEM)
---------------------------------
  S    -140.209000    6.915520    1.382270
  C    -140.632000    7.592500   -0.175751
  C    -141.894000    8.206010   -0.144369
  C    -142.487000    7.983610    1.130380
  C    -141.796000    7.266430    2.085110
  H    -143.417000    8.434560    1.442810
  C    -142.501000    9.089630   -1.278870
  H    -143.550000    9.161070   -1.033460
  H    -142.489000    8.492990   -2.183700
  C    -141.997000   10.433900   -1.544630
  H    -142.095000   11.063200   -0.714867
  H    -140.975000   10.410900   -1.829030
  C    -142.935000   11.140200   -2.571890
  H    -143.911000   11.413700   -2.182000
  H    -142.456000   12.073300   -2.963750
  H    -143.130000   10.535600   -3.506660
  S    -141.003000    6.472060    4.628390
  C    -142.113000    6.397580    5.891860
  C    -143.392000    6.373200    5.429080
  C    -143.475000    6.558490    4.024230
  C    -142.248000    6.815600    3.420380
  H    -144.264000    6.210110    6.069190
  C    -144.787000    6.588050    3.337800
  H    -144.588000    6.409850    2.298230
  H    -145.203000    7.605890    3.453350
  C    -145.824000    5.660070    3.912160
  H    -145.961000    6.055980    4.885980
  H    -145.319000    4.666600    3.989820
  C    -147.129000    5.434180    3.241200
  H    -147.811000    5.016390    3.918120
  H    -147.025000    4.725180    2.391920
  H    -147.773000    6.288040    2.739310
  H    -140.005000    7.731070   -1.080600
  H    -141.830000    6.159520    6.890320

 Total Charge           Charge          ....    0
 Multiplicity           Mult            ....    1
 Number of Electrons    NEL             ....  134
 Basis Dimension        Dim             ....  322

ORBITAL ENERGIES
----------------

  NO   OCC          E(Eh)            E(eV)
   0   2.0000     -88.968418     -2420.9537
   1   2.0000     -88.961751     -2420.7723
   2   2.0000     -10.335479      -281.2427
   3   2.0000     -10.332411      -281.1592
   4   2.0000     -10.319264      -280.8014
   5   2.0000     -10.311859      -280.6000
   6   2.0000     -10.303938      -280.3844
   7   2.0000     -10.301980      -280.3311
   8   2.0000     -10.292011      -280.0599
   9   2.0000     -10.290670      -280.0234
  10   2.0000     -10.290445      -280.0172
  11   2.0000     -10.287534      -279.9380
  12   2.0000     -10.284378      -279.8522
  13   2.0000     -10.284040      -279.8429
  14   2.0000     -10.283909      -279.8394
  15   2.0000     -10.280005      -279.7332
  16   2.0000      -8.082404      -219.9334
  17   2.0000      -8.077993      -219.8134
  18   2.0000      -6.041145      -164.3879
  19   2.0000      -6.036945      -164.2736
  20   2.0000      -6.036449      -164.2601
  21   2.0000      -6.033043      -164.1675
  22   2.0000      -6.032273      -164.1465
  23   2.0000      -6.028746      -164.0505
  24   2.0000      -1.011047       -27.5120
  25   2.0000      -0.987552       -26.8727
  26   2.0000      -0.922108       -25.0918
  27   2.0000      -0.919572       -25.0228
  28   2.0000      -0.871284       -23.7088
  29   2.0000      -0.857457       -23.3326
  30   2.0000      -0.842985       -22.9388
  31   2.0000      -0.815328       -22.1862
  32   2.0000      -0.786010       -21.3884
  33   2.0000      -0.774822       -21.0840
  34   2.0000      -0.709694       -19.3117
  35   2.0000      -0.705050       -19.1854
  36   2.0000      -0.699865       -19.0443
  37   2.0000      -0.653901       -17.7935
  38   2.0000      -0.637967       -17.3600
  39   2.0000      -0.619964       -16.8701
  40   2.0000      -0.604149       -16.4397
  41   2.0000      -0.579413       -15.7666
  42   2.0000      -0.576816       -15.6960
  43   2.0000      -0.567796       -15.4505
  44   2.0000      -0.529441       -14.4068
  45   2.0000      -0.521428       -14.1888
  46   2.0000      -0.519711       -14.1421
  47   2.0000      -0.513878       -13.9833
  48   2.0000      -0.505702       -13.7609
  49   2.0000      -0.500180       -13.6106
  50   2.0000      -0.493387       -13.4257
  51   2.0000      -0.479214       -13.0401
  52   2.0000      -0.478177       -13.0118
  53   2.0000      -0.468722       -12.7546
  54   2.0000      -0.460643       -12.5347
  55   2.0000      -0.456887       -12.4325
  56   2.0000      -0.444665       -12.0999
  57   2.0000      -0.443421       -12.0661
  58   2.0000      -0.427646       -11.6368
  59   2.0000      -0.418614       -11.3911
  60   2.0000      -0.418020       -11.3749
  61   2.0000      -0.414523       -11.2797
  62   2.0000      -0.411488       -11.1972
  63   2.0000      -0.360852        -9.8193
  64   2.0000      -0.333582        -9.0772
  65   2.0000      -0.327755        -8.9187
  66   2.0000      -0.283678        -7.7193
  67   0.0000       0.021242         0.5780
  68   0.0000       0.079076         2.1518
  69   0.0000       0.105111         2.8602
  70   0.0000       0.122617         3.3366
  71   0.0000       0.139107         3.7853

MULLIKEN ATOMIC CHARGES
-----------------------
   0 S :    0.107849
   1 C :   -0.123872
   2 C :   -0.092669
   3 C :   -0.015656
   4 C :   -0.106162
   5 H :    0.005758
   6 C :    0.056780
   7 H :    0.007107
   8 H :    0.026765
   9 C :    0.018103
  10 H :    0.018419
  11 H :    0.019400
  12 C :   -0.098387
  13 H :    0.036794
  14 H :    0.038737
  15 H :    0.031096
  16 S :    0.092915
  17 C :   -0.053667
  18 C :   -0.053997
  19 C :   -0.070954
  20 C :   -0.140147
  21 H :    0.026405
  22 C :    0.085843
  23 H :    0.020703
  24 H :    0.039397
  25 C :   -0.104408
  26 H :    0.022653
  27 H :    0.040454
  28 C :   -0.035491
  29 H :    0.023393
  30 H :    0.033976
  31 H :    0.035800
  32 H :    0.058876
  33 H :    0.048191
Sum of atomic charges:   -0.0000000

LOEWDIN ATOMIC CHARGES
----------------------
   0 S :    0.397662
   1 C :   -0.202446
   2 C :   -0.065047
   3 C :   -0.073182
   4 C :   -0.187307
   5 H :    0.026746
   6 C :   -0.031278
   7 H :    0.028644
   8 H :    0.031859
   9 C :   -0.032770
  10 H :    0.023110
  11 H :    0.020465
  12 C :   -0.067104
  13 H :    0.023571
  14 H :    0.030513
  15 H :    0.026025
  16 S :    0.419935
  17 C :   -0.189833
  18 C :   -0.080563
  19 C :   -0.055770
  20 C :   -0.188123
  21 H :    0.034401
  22 C :   -0.034621
  23 H :    0.025667
  24 H :    0.036193
  25 C :   -0.047076
  26 H :    0.017098
  27 H :    0.035836
  28 C :   -0.073034
  29 H :    0.021272
  30 H :    0.029494
  31 H :    0.035637
  32 H :    0.038177
  33 H :    0.025847

  Mayer bond orders larger than 0.100000
B(  0-S ,  1-C ) :   1.1498 B(  0-S ,  4-C ) :   1.1312 B(  1-C ,  2-C ) :   1.5949
B(  1-C ,  4-C ) :   0.1029 B(  1-C , 32-H ) :   0.9622 B(  2-C ,  3-C ) :   1.2744
B(  2-C ,  6-C ) :   1.0029 B(  3-C ,  4-C ) :   1.5674 B(  3-C ,  5-H ) :   0.9921
B(  4-C , 20-C ) :   1.0670 B(  6-C ,  7-H ) :   0.9388 B(  6-C ,  8-H ) :   0.9364
B(  6-C ,  9-C ) :   1.0888 B(  9-C , 10-H ) :   0.9476 B(  9-C , 11-H ) :   0.9510
B(  9-C , 12-C ) :   1.0701 B( 12-C , 13-H ) :   0.9766 B( 12-C , 14-H ) :   0.9744
B( 12-C , 15-H ) :   0.9764 B( 16-S , 17-C ) :   1.1860 B( 16-S , 20-C ) :   1.1312
B( 17-C , 18-C ) :   1.5759 B( 17-C , 33-H ) :   0.9680 B( 18-C , 19-C ) :   1.2599
B( 18-C , 21-H ) :   0.9889 B( 19-C , 20-C ) :   1.5684 B( 19-C , 22-C ) :   1.0538
B( 22-C , 23-H ) :   0.9318 B( 22-C , 24-H ) :   0.9199 B( 22-C , 25-C ) :   1.0675
B( 25-C , 26-H ) :   0.9444 B( 25-C , 27-H ) :   0.9560 B( 25-C , 28-C ) :   1.0925
B( 28-C , 29-H ) :   0.9688 B( 28-C , 30-H ) :   0.9711 B( 28-C , 31-H ) :   0.9706

Dispersion correction           -0.012946873
FINAL SINGLE POINT ENERGY     -1339.866524431073

DIPOLE MOMENT
-------------
                                X             Y             Z
Electronic contribution:     24.29957      -9.32049      14.92617
Nuclear contribution   :    -24.97352       9.57350     -15.06364
                        -----------------------------------------
Total Dipole Moment    :     -0.67395       0.25301      -0.13746
                        -----------------------------------------
Magnitude (a.u.)       :      0.73288
Magnitude (Debye)      :      1.86284

Rotational constants in cm-1:     0.017824     0.007596     0.005764
Rotational constants in MHz :   534.362244   227.731529   172.791317

                             ****ORCA TERMINATED NORMALLY****
TOTAL RUN TIME: 0 days 0 hours 0 minutes 21 seconds 10 msec
