                         Program Version 4.2.1 -  RELEASE  -
|  1> ! wB97X-D3 SP def2-SVP
|  2> %pal
|  3> nprocs 24
|  4> end
|  5>
|  6> * xyz 0 1
|  7> S 	 -134.286 	 62.3752 	 -62.8888
|  8> C 	 -135.119 	 63.8606 	 -62.989
|  9> C 	 -135.287 	 64.5216 	 -61.7301
| 10> C 	 -134.658 	 63.7564 	 -60.6833
| 11> C 	 -134.087 	 62.5806 	 -61.1384
| 12> H 	 -134.656 	 64.1882 	 -59.7143
| 13> C 	 -135.932 	 65.8885 	 -61.5375
| 14> H 	 -135.676 	 66.409 	 -62.3932
| 15> H 	 -135.438 	 66.4134 	 -60.7567
| 16> C 	 -137.429 	 65.9233 	 -61.1659
| 17> H 	 -137.666 	 65.0897 	 -60.4252
| 18> H 	 -137.618 	 66.9123 	 -60.9136
| 19> C 	 -138.336 	 65.5513 	 -62.3988
| 20> H 	 -138.366 	 64.4691 	 -62.3442
| 21> H 	 -139.397 	 66.0357 	 -62.1428
| 22> H 	 -137.948 	 65.8876 	 -63.3975
| 23> S 	 -133.706 	 59.9382 	 -60.3777
| 24> C 	 -132.896 	 59.5359 	 -58.8596
| 25> C 	 -132.192 	 60.6324 	 -58.4962
| 26> C 	 -132.344 	 61.8033 	 -59.3334
| 27> C 	 -133.343 	 61.6529 	 -60.2829
| 28> H 	 -131.749 	 60.6801 	 -57.5545
| 29> C 	 -131.683 	 63.1782 	 -59.0636
| 30> H 	 -131.472 	 63.2657 	 -58.014
| 31> H 	 -132.442 	 63.9336 	 -59.2354
| 32> C 	 -130.475 	 63.4552 	 -59.9658
| 33> H 	 -129.8 	 62.662 	 -59.9816
| 34> H 	 -130.062 	 64.3642 	 -59.637
| 35> C 	 -130.707 	 63.7542 	 -61.4119
| 36> H 	 -131.026 	 64.7716 	 -61.5576
| 37> H 	 -131.563 	 63.2076 	 -61.9112
| 38> H 	 -129.846 	 63.5058 	 -62.1058
| 39> H 	 -135.659 	 64.2164 	 -63.9432
| 40> H 	 -132.987 	 58.6351 	 -58.3141
| 41> *
| 42>
| 43>                          ****END OF INPUT****

CARTESIAN COORDINATES (ANGSTROEM)
---------------------------------
  S    -134.286000   62.375200  -62.888800
  C    -135.119000   63.860600  -62.989000
  C    -135.287000   64.521600  -61.730100
  C    -134.658000   63.756400  -60.683300
  C    -134.087000   62.580600  -61.138400
  H    -134.656000   64.188200  -59.714300
  C    -135.932000   65.888500  -61.537500
  H    -135.676000   66.409000  -62.393200
  H    -135.438000   66.413400  -60.756700
  C    -137.429000   65.923300  -61.165900
  H    -137.666000   65.089700  -60.425200
  H    -137.618000   66.912300  -60.913600
  C    -138.336000   65.551300  -62.398800
  H    -138.366000   64.469100  -62.344200
  H    -139.397000   66.035700  -62.142800
  H    -137.948000   65.887600  -63.397500
  S    -133.706000   59.938200  -60.377700
  C    -132.896000   59.535900  -58.859600
  C    -132.192000   60.632400  -58.496200
  C    -132.344000   61.803300  -59.333400
  C    -133.343000   61.652900  -60.282900
  H    -131.749000   60.680100  -57.554500
  C    -131.683000   63.178200  -59.063600
  H    -131.472000   63.265700  -58.014000
  H    -132.442000   63.933600  -59.235400
  C    -130.475000   63.455200  -59.965800
  H    -129.800000   62.662000  -59.981600
  H    -130.062000   64.364200  -59.637000
  C    -130.707000   63.754200  -61.411900
  H    -131.026000   64.771600  -61.557600
  H    -131.563000   63.207600  -61.911200
  H    -129.846000   63.505800  -62.105800
  H    -135.659000   64.216400  -63.943200
  H    -132.987000   58.635100  -58.314100

 Total Charge           Charge          ....    0
 Multiplicity           Mult            ....    1
 Number of Electrons    NEL             ....  134
 Basis Dimension        Dim             ....  322

ORBITAL ENERGIES
----------------

  NO   OCC          E(Eh)            E(eV)
   0   2.0000     -88.975844     -2421.1558
   1   2.0000     -88.956121     -2420.6191
   2   2.0000     -10.336291      -281.2648
   3   2.0000     -10.327558      -281.0271
   4   2.0000     -10.323663      -280.9211
   5   2.0000     -10.314784      -280.6796
   6   2.0000     -10.306654      -280.4583
   7   2.0000     -10.304058      -280.3877
   8   2.0000     -10.297722      -280.2153
   9   2.0000     -10.291150      -280.0364
  10   2.0000     -10.290811      -280.0272
  11   2.0000     -10.289485      -279.9911
  12   2.0000     -10.288914      -279.9756
  13   2.0000     -10.286152      -279.9004
  14   2.0000     -10.270894      -279.4852
  15   2.0000     -10.269392      -279.4444
  16   2.0000      -8.090117      -220.1433
  17   2.0000      -8.071199      -219.6285
  18   2.0000      -6.048613      -164.5911
  19   2.0000      -6.044616      -164.4824
  20   2.0000      -6.040973      -164.3832
  21   2.0000      -6.029825      -164.0799
  22   2.0000      -6.025658      -163.9665
  23   2.0000      -6.021795      -163.8614
  24   2.0000      -1.005559       -27.3627
  25   2.0000      -0.983932       -26.7741
  26   2.0000      -0.911948       -24.8154
  27   2.0000      -0.907845       -24.7037
  28   2.0000      -0.870031       -23.6748
  29   2.0000      -0.852693       -23.2030
  30   2.0000      -0.841471       -22.8976
  31   2.0000      -0.814845       -22.1731
  32   2.0000      -0.781245       -21.2588
  33   2.0000      -0.770450       -20.9650
  34   2.0000      -0.705950       -19.2099
  35   2.0000      -0.692738       -18.8504
  36   2.0000      -0.690770       -18.7968
  37   2.0000      -0.661838       -18.0095
  38   2.0000      -0.638428       -17.3725
  39   2.0000      -0.628487       -17.1020
  40   2.0000      -0.598829       -16.2950
  41   2.0000      -0.576405       -15.6848
  42   2.0000      -0.557735       -15.1767
  43   2.0000      -0.548471       -14.9246
  44   2.0000      -0.545797       -14.8519
  45   2.0000      -0.535459       -14.5706
  46   2.0000      -0.523120       -14.2348
  47   2.0000      -0.513928       -13.9847
  48   2.0000      -0.499530       -13.5929
  49   2.0000      -0.496291       -13.5048
  50   2.0000      -0.491116       -13.3639
  51   2.0000      -0.477579       -12.9956
  52   2.0000      -0.468479       -12.7480
  53   2.0000      -0.464288       -12.6339
  54   2.0000      -0.455996       -12.4083
  55   2.0000      -0.452150       -12.3036
  56   2.0000      -0.441304       -12.0085
  57   2.0000      -0.435949       -11.8628
  58   2.0000      -0.427850       -11.6424
  59   2.0000      -0.421277       -11.4635
  60   2.0000      -0.419865       -11.4251
  61   2.0000      -0.412316       -11.2197
  62   2.0000      -0.396263       -10.7829
  63   2.0000      -0.352378        -9.5887
  64   2.0000      -0.333030        -9.0622
  65   2.0000      -0.323301        -8.7975
  66   2.0000      -0.290982        -7.9180
  67   0.0000       0.027406         0.7458
  68   0.0000       0.064122         1.7448
  69   0.0000       0.105089         2.8596
  70   0.0000       0.117700         3.2028
  71   0.0000       0.134267         3.6536

MULLIKEN ATOMIC CHARGES
-----------------------
   0 S :    0.140441
   1 C :   -0.149612
   2 C :   -0.141760
   3 C :    0.052415
   4 C :   -0.141158
   5 H :    0.008696
   6 C :    0.096853
   7 H :    0.009303
   8 H :    0.008831
   9 C :   -0.050222
  10 H :    0.051486
  11 H :    0.024331
  12 C :   -0.115654
  13 H :    0.046263
  14 H :    0.054775
  15 H :    0.040841
  16 S :    0.072286
  17 C :   -0.070101
  18 C :   -0.011319
  19 C :   -0.061244
  20 C :   -0.149163
  21 H :    0.000692
  22 C :    0.094414
  23 H :    0.012470
  24 H :    0.001593
  25 C :    0.021455
  26 H :    0.016082
  27 H :    0.015918
  28 C :   -0.093994
  29 H :    0.017979
  30 H :    0.025880
  31 H :    0.041883
  32 H :    0.080432
  33 H :    0.048909
Sum of atomic charges:    0.0000000

LOEWDIN ATOMIC CHARGES
----------------------
   0 S :    0.430119
   1 C :   -0.229966
   2 C :   -0.060592
   3 C :   -0.051591
   4 C :   -0.190839
   5 H :    0.027977
   6 C :   -0.028848
   7 H :    0.022280
   8 H :    0.026599
   9 C :   -0.032854
  10 H :    0.039368
  11 H :    0.013070
  12 C :   -0.078622
  13 H :    0.024110
  14 H :    0.040635
  15 H :    0.022382
  16 S :    0.378449
  17 C :   -0.166932
  18 C :   -0.068340
  19 C :   -0.056223
  20 C :   -0.190368
  21 H :    0.020991
  22 C :   -0.023135
  23 H :    0.025743
  24 H :    0.026995
  25 C :   -0.033515
  26 H :    0.018833
  27 H :    0.022816
  28 C :   -0.076475
  29 H :    0.018109
  30 H :    0.023742
  31 H :    0.034178
  32 H :    0.044124
  33 H :    0.027780

  Mayer bond orders larger than 0.100000
B(  0-S ,  1-C ) :   1.1604 B(  0-S ,  4-C ) :   1.1528 B(  1-C ,  2-C ) :   1.5806
B(  1-C , 32-H ) :   0.9519 B(  2-C ,  3-C ) :   1.2818 B(  2-C ,  6-C ) :   1.0168
B(  3-C ,  4-C ) :   1.5415 B(  3-C ,  5-H ) :   0.9932 B(  4-C , 20-C ) :   1.0361
B(  6-C ,  7-H ) :   0.9398 B(  6-C ,  8-H ) :   0.9385 B(  6-C ,  9-C ) :   1.0676
B(  9-C , 10-H ) :   0.9616 B(  9-C , 11-H ) :   0.9599 B(  9-C , 12-C ) :   1.0543
B( 12-C , 13-H ) :   0.9825 B( 12-C , 14-H ) :   0.9760 B( 12-C , 15-H ) :   0.9768
B( 16-S , 17-C ) :   1.1348 B( 16-S , 20-C ) :   1.1283 B( 17-C , 18-C ) :   1.6250
B( 17-C , 33-H ) :   0.9782 B( 18-C , 19-C ) :   1.2196 B( 18-C , 21-H ) :   0.9959
B( 19-C , 20-C ) :   1.6031 B( 19-C , 22-C ) :   1.0305 B( 22-C , 23-H ) :   0.9347
B( 22-C , 24-H ) :   0.9364 B( 22-C , 25-C ) :   1.0723 B( 25-C , 26-H ) :   0.9575
B( 25-C , 27-H ) :   0.9524 B( 25-C , 28-C ) :   1.0741 B( 28-C , 29-H ) :   0.9755
B( 28-C , 30-H ) :   0.9684 B( 28-C , 31-H ) :   0.9740

Dispersion correction           -0.015475513
FINAL SINGLE POINT ENERGY     -1339.847443583764

DIPOLE MOMENT
-------------
                                X             Y             Z
Electronic contribution:      2.35896     -22.05547      -1.54188
Nuclear contribution   :     -2.43131      22.71677       1.95912
                        -----------------------------------------
Total Dipole Moment    :     -0.07235       0.66130       0.41724
                        -----------------------------------------
Magnitude (a.u.)       :      0.78526
Magnitude (Debye)      :      1.99598

Rotational constants in cm-1:     0.021511     0.008224     0.007401
Rotational constants in MHz :   644.877174   246.544547   221.890539

                             ****ORCA TERMINATED NORMALLY****
TOTAL RUN TIME: 0 days 0 hours 0 minutes 22 seconds 346 msec
