                         Program Version 4.2.1 -  RELEASE  -
|  1> ! wB97X-D3 SP def2-SVP
|  2> %pal
|  3> nprocs 24
|  4> end
|  5>
|  6> * xyz 0 1
|  7> S 	 -96.9093 	 6.97222 	 -1.37644
|  8> C 	 -97.682 	 8.4442 	 -2.06439
|  9> C 	 -97.2002 	 8.76726 	 -3.34171
| 10> C 	 -96.3016 	 7.76347 	 -3.79886
| 11> C 	 -96.0927 	 6.70308 	 -2.87878
| 12> H 	 -95.6997 	 7.86805 	 -4.70335
| 13> C 	 -97.6094 	 9.91208 	 -4.24821
| 14> H 	 -97.6911 	 9.65214 	 -5.30568
| 15> H 	 -96.8386 	 10.6795 	 -4.1794
| 16> C 	 -98.9745 	 10.5722 	 -3.79018
| 17> H 	 -99.7818 	 9.89458 	 -3.77648
| 18> H 	 -98.772 	 10.9056 	 -2.71262
| 19> C 	 -99.527 	 11.7779 	 -4.60198
| 20> H 	 -98.8074 	 12.6217 	 -4.46804
| 21> H 	 -99.4562 	 11.501 	 -5.64549
| 22> H 	 -100.554 	 12.0205 	 -4.3318
| 23> S 	 -95.849 	 3.94703 	 -2.49201
| 24> C 	 -94.4411 	 3.11179 	 -2.95467
| 25> C 	 -93.6543 	 3.89257 	 -3.73627
| 26> C 	 -94.0135 	 5.26737 	 -3.70721
| 27> C 	 -95.2618 	 5.52022 	 -3.05803
| 28> H 	 -92.691 	 3.43531 	 -4.09212
| 29> C 	 -93.195 	 6.38228 	 -4.27127
| 30> H 	 -93.6139 	 7.34026 	 -3.89361
| 31> H 	 -93.4416 	 6.37314 	 -5.28534
| 32> C 	 -91.5938 	 6.41773 	 -4.22572
| 33> H 	 -91.1754 	 5.54479 	 -4.74935
| 34> H 	 -91.4607 	 6.30782 	 -3.12831
| 35> C 	 -90.8943 	 7.68454 	 -4.74772
| 36> H 	 -91.2474 	 8.5673 	 -4.22873
| 37> H 	 -91.0711 	 7.93418 	 -5.81507
| 38> H 	 -89.7999 	 7.64222 	 -4.68249
| 39> H 	 -98.3317 	 9.03167 	 -1.50433
| 40> H 	 -94.4083 	 2.04931 	 -3.03985
| 41> *
| 42>
| 43>                          ****END OF INPUT****

CARTESIAN COORDINATES (ANGSTROEM)
---------------------------------
  S    -96.909300    6.972220   -1.376440
  C    -97.682000    8.444200   -2.064390
  C    -97.200200    8.767260   -3.341710
  C    -96.301600    7.763470   -3.798860
  C    -96.092700    6.703080   -2.878780
  H    -95.699700    7.868050   -4.703350
  C    -97.609400    9.912080   -4.248210
  H    -97.691100    9.652140   -5.305680
  H    -96.838600   10.679500   -4.179400
  C    -98.974500   10.572200   -3.790180
  H    -99.781800    9.894580   -3.776480
  H    -98.772000   10.905600   -2.712620
  C    -99.527000   11.777900   -4.601980
  H    -98.807400   12.621700   -4.468040
  H    -99.456200   11.501000   -5.645490
  H    -100.554000   12.020500   -4.331800
  S    -95.849000    3.947030   -2.492010
  C    -94.441100    3.111790   -2.954670
  C    -93.654300    3.892570   -3.736270
  C    -94.013500    5.267370   -3.707210
  C    -95.261800    5.520220   -3.058030
  H    -92.691000    3.435310   -4.092120
  C    -93.195000    6.382280   -4.271270
  H    -93.613900    7.340260   -3.893610
  H    -93.441600    6.373140   -5.285340
  C    -91.593800    6.417730   -4.225720
  H    -91.175400    5.544790   -4.749350
  H    -91.460700    6.307820   -3.128310
  C    -90.894300    7.684540   -4.747720
  H    -91.247400    8.567300   -4.228730
  H    -91.071100    7.934180   -5.815070
  H    -89.799900    7.642220   -4.682490
  H    -98.331700    9.031670   -1.504330
  H    -94.408300    2.049310   -3.039850

 Total Charge           Charge          ....    0
 Multiplicity           Mult            ....    1
 Number of Electrons    NEL             ....  134
 Basis Dimension        Dim             ....  322

ORBITAL ENERGIES
----------------

  NO   OCC          E(Eh)            E(eV)
   0   2.0000     -88.971270     -2421.0313
   1   2.0000     -88.962520     -2420.7932
   2   2.0000     -10.335523      -281.2439
   3   2.0000     -10.330969      -281.1200
   4   2.0000     -10.316135      -280.7163
   5   2.0000     -10.309221      -280.5282
   6   2.0000     -10.308505      -280.5087
   7   2.0000     -10.307946      -280.4935
   8   2.0000     -10.302042      -280.3328
   9   2.0000     -10.298028      -280.2236
  10   2.0000     -10.296556      -280.1835
  11   2.0000     -10.294158      -280.1183
  12   2.0000     -10.292742      -280.0798
  13   2.0000     -10.288196      -279.9560
  14   2.0000     -10.284123      -279.8452
  15   2.0000     -10.283990      -279.8416
  16   2.0000      -8.085305      -220.0123
  17   2.0000      -8.077932      -219.8117
  18   2.0000      -6.043780      -164.4596
  19   2.0000      -6.039970      -164.3559
  20   2.0000      -6.036361      -164.2577
  21   2.0000      -6.036069      -164.2498
  22   2.0000      -6.032172      -164.1438
  23   2.0000      -6.028895      -164.0546
  24   2.0000      -1.006197       -27.3800
  25   2.0000      -0.983497       -26.7623
  26   2.0000      -0.909098       -24.7378
  27   2.0000      -0.902323       -24.5535
  28   2.0000      -0.867831       -23.6149
  29   2.0000      -0.853640       -23.2287
  30   2.0000      -0.845735       -23.0136
  31   2.0000      -0.812255       -22.1026
  32   2.0000      -0.785598       -21.3772
  33   2.0000      -0.772356       -21.0169
  34   2.0000      -0.712356       -19.3842
  35   2.0000      -0.704902       -19.1814
  36   2.0000      -0.691737       -18.8231
  37   2.0000      -0.651355       -17.7243
  38   2.0000      -0.637245       -17.3403
  39   2.0000      -0.617788       -16.8109
  40   2.0000      -0.593683       -16.1549
  41   2.0000      -0.572526       -15.5792
  42   2.0000      -0.565710       -15.3938
  43   2.0000      -0.564489       -15.3605
  44   2.0000      -0.526119       -14.3164
  45   2.0000      -0.525024       -14.2866
  46   2.0000      -0.518115       -14.0986
  47   2.0000      -0.510672       -13.8961
  48   2.0000      -0.503790       -13.7088
  49   2.0000      -0.498767       -13.5721
  50   2.0000      -0.493274       -13.4227
  51   2.0000      -0.484409       -13.1814
  52   2.0000      -0.472411       -12.8550
  53   2.0000      -0.465174       -12.6580
  54   2.0000      -0.463029       -12.5997
  55   2.0000      -0.450603       -12.2615
  56   2.0000      -0.446105       -12.1391
  57   2.0000      -0.441405       -12.0112
  58   2.0000      -0.427272       -11.6267
  59   2.0000      -0.426781       -11.6133
  60   2.0000      -0.418517       -11.3884
  61   2.0000      -0.414700       -11.2846
  62   2.0000      -0.411239       -11.1904
  63   2.0000      -0.351477        -9.5642
  64   2.0000      -0.334804        -9.1105
  65   2.0000      -0.326592        -8.8870
  66   2.0000      -0.284379        -7.7383
  67   0.0000       0.020279         0.5518
  68   0.0000       0.074131         2.0172
  69   0.0000       0.106032         2.8853
  70   0.0000       0.121488         3.3059
  71   0.0000       0.134197         3.6517

MULLIKEN ATOMIC CHARGES
-----------------------
   0 S :    0.121652
   1 C :   -0.113443
   2 C :   -0.064793
   3 C :    0.008082
   4 C :   -0.147808
   5 H :    0.017015
   6 C :    0.076335
   7 H :    0.037124
   8 H :    0.038378
   9 C :   -0.151927
  10 H :    0.031809
  11 H :    0.040401
  12 C :   -0.029794
  13 H :    0.033664
  14 H :    0.025826
  15 H :    0.047144
  16 S :    0.095371
  17 C :   -0.070337
  18 C :   -0.069430
  19 C :   -0.041900
  20 C :   -0.143651
  21 H :    0.042270
  22 C :    0.038342
  23 H :    0.030267
  24 H :    0.022270
  25 C :   -0.076475
  26 H :    0.035398
  27 H :    0.043040
  28 C :   -0.055593
  29 H :    0.029199
  30 H :    0.028523
  31 H :    0.042389
  32 H :    0.022454
  33 H :    0.058199
Sum of atomic charges:   -0.0000000

LOEWDIN ATOMIC CHARGES
----------------------
   0 S :    0.407378
   1 C :   -0.177146
   2 C :   -0.054713
   3 C :   -0.066115
   4 C :   -0.197538
   5 H :    0.031236
   6 C :   -0.027826
   7 H :    0.030989
   8 H :    0.035768
   9 C :   -0.043583
  10 H :    0.015704
  11 H :    0.027085
  12 C :   -0.064288
  13 H :    0.027878
  14 H :    0.022418
  15 H :    0.029835
  16 S :    0.416723
  17 C :   -0.198699
  18 C :   -0.084170
  19 C :   -0.052174
  20 C :   -0.200189
  21 H :    0.041901
  22 C :   -0.040490
  23 H :    0.033332
  24 H :    0.023399
  25 C :   -0.039894
  26 H :    0.023141
  27 H :    0.030466
  28 C :   -0.071333
  29 H :    0.024400
  30 H :    0.027204
  31 H :    0.031648
  32 H :    0.009100
  33 H :    0.028554

  Mayer bond orders larger than 0.100000
B(  0-S ,  1-C ) :   1.1269 B(  0-S ,  4-C ) :   1.1688 B(  1-C ,  2-C ) :   1.5960
B(  1-C ,  4-C ) :   0.1024 B(  1-C , 32-H ) :   0.9750 B(  2-C ,  3-C ) :   1.2681
B(  2-C ,  6-C ) :   1.0151 B(  3-C ,  4-C ) :   1.5294 B(  3-C ,  5-H ) :   0.9897
B(  4-C , 20-C ) :   1.0663 B(  6-C ,  7-H ) :   0.9503 B(  6-C ,  8-H ) :   0.9270
B(  6-C ,  9-C ) :   1.0644 B(  9-C , 10-H ) :   0.9654 B(  9-C , 11-H ) :   0.9509
B(  9-C , 12-C ) :   1.0783 B( 12-C , 13-H ) :   0.9767 B( 12-C , 14-H ) :   0.9741
B( 12-C , 15-H ) :   0.9748 B( 16-S , 17-C ) :   1.1779 B( 16-S , 20-C ) :   1.1467
B( 17-C , 18-C ) :   1.6003 B( 17-C , 20-C ) :   0.1020 B( 17-C , 33-H ) :   0.9586
B( 18-C , 19-C ) :   1.2707 B( 18-C , 21-H ) :   0.9771 B( 19-C , 20-C ) :   1.5381
B( 19-C , 22-C ) :   1.0534 B( 22-C , 23-H ) :   0.9337 B( 22-C , 24-H ) :   0.9197
B( 22-C , 25-C ) :   1.0455 B( 25-C , 26-H ) :   0.9525 B( 25-C , 27-H ) :   0.9619
B( 25-C , 28-C ) :   1.0851 B( 28-C , 29-H ) :   0.9745 B( 28-C , 30-H ) :   0.9740
B( 28-C , 31-H ) :   0.9743

Dispersion correction           -0.013144854
FINAL SINGLE POINT ENERGY     -1339.869182627227

DIPOLE MOMENT
-------------
                                X             Y             Z
Electronic contribution:     -6.74906     -23.21907      15.24474
Nuclear contribution   :      7.00768      23.66446     -15.79743
                        -----------------------------------------
Total Dipole Moment    :      0.25862       0.44539      -0.55269
                        -----------------------------------------
Magnitude (a.u.)       :      0.75547
Magnitude (Debye)      :      1.92024

Rotational constants in cm-1:     0.018586     0.007339     0.005677
Rotational constants in MHz :   557.198122   220.006190   170.207085

                             ****ORCA TERMINATED NORMALLY****
TOTAL RUN TIME: 0 days 0 hours 0 minutes 20 seconds 472 msec
