                         Program Version 4.2.1 -  RELEASE  -
|  1> ! wB97X-D3 SP def2-SVP
|  2> %pal
|  3> nprocs 24
|  4> end
|  5>
|  6> * xyz 0 1
|  7> S 	 -51.8289 	 19.3773 	 23.2154
|  8> C 	 -52.4238 	 19.7575 	 24.7804
|  9> C 	 -53.6737 	 19.1301 	 24.9709
| 10> C 	 -54.1113 	 18.3354 	 23.8541
| 11> C 	 -53.1009 	 18.2503 	 22.9053
| 12> H 	 -55.0797 	 17.8955 	 23.7275
| 13> C 	 -54.5453 	 19.3059 	 26.1714
| 14> H 	 -55.5312 	 19.2758 	 25.8079
| 15> H 	 -54.339 	 20.365 	 26.4269
| 16> C 	 -54.471 	 18.3359 	 27.3345
| 17> H 	 -54.4096 	 17.284 	 26.9984
| 18> H 	 -53.5237 	 18.4386 	 27.8476
| 19> C 	 -55.6486 	 18.4329 	 28.308
| 20> H 	 -55.2728 	 18.1435 	 29.2196
| 21> H 	 -55.9494 	 19.506 	 28.3676
| 22> H 	 -56.4629 	 17.7534 	 28.0372
| 23> S 	 -52.3196 	 17.9761 	 20.3174
| 24> C 	 -52.5854 	 16.5337 	 19.4097
| 25> C 	 -53.1142 	 15.5339 	 20.2546
| 26> C 	 -53.4928 	 16.0615 	 21.5631
| 27> C 	 -52.9663 	 17.316 	 21.8172
| 28> H 	 -53.1943 	 14.556 	 19.952
| 29> C 	 -54.2817 	 15.1963 	 22.5035
| 30> H 	 -55.239 	 15.5105 	 22.2211
| 31> H 	 -54.0803 	 15.5005 	 23.5829
| 32> C 	 -54.2674 	 13.712 	 22.3566
| 33> H 	 -54.369 	 13.3671 	 21.2659
| 34> H 	 -55.0374 	 13.2238 	 22.9279
| 35> C 	 -52.973 	 13.0525 	 22.9156
| 36> H 	 -53.0873 	 11.9717 	 23.1497
| 37> H 	 -52.693 	 13.5177 	 23.8506
| 38> H 	 -52.1602 	 13.1724 	 22.2467
| 39> H 	 -51.8501 	 20.2158 	 25.5692
| 40> H 	 -52.3404 	 16.2974 	 18.3654
| 41> *
| 42>
| 43>                          ****END OF INPUT****

CARTESIAN COORDINATES (ANGSTROEM)
---------------------------------
  S    -51.828900   19.377300   23.215400
  C    -52.423800   19.757500   24.780400
  C    -53.673700   19.130100   24.970900
  C    -54.111300   18.335400   23.854100
  C    -53.100900   18.250300   22.905300
  H    -55.079700   17.895500   23.727500
  C    -54.545300   19.305900   26.171400
  H    -55.531200   19.275800   25.807900
  H    -54.339000   20.365000   26.426900
  C    -54.471000   18.335900   27.334500
  H    -54.409600   17.284000   26.998400
  H    -53.523700   18.438600   27.847600
  C    -55.648600   18.432900   28.308000
  H    -55.272800   18.143500   29.219600
  H    -55.949400   19.506000   28.367600
  H    -56.462900   17.753400   28.037200
  S    -52.319600   17.976100   20.317400
  C    -52.585400   16.533700   19.409700
  C    -53.114200   15.533900   20.254600
  C    -53.492800   16.061500   21.563100
  C    -52.966300   17.316000   21.817200
  H    -53.194300   14.556000   19.952000
  C    -54.281700   15.196300   22.503500
  H    -55.239000   15.510500   22.221100
  H    -54.080300   15.500500   23.582900
  C    -54.267400   13.712000   22.356600
  H    -54.369000   13.367100   21.265900
  H    -55.037400   13.223800   22.927900
  C    -52.973000   13.052500   22.915600
  H    -53.087300   11.971700   23.149700
  H    -52.693000   13.517700   23.850600
  H    -52.160200   13.172400   22.246700
  H    -51.850100   20.215800   25.569200
  H    -52.340400   16.297400   18.365400

 Total Charge           Charge          ....    0
 Multiplicity           Mult            ....    1
 Number of Electrons    NEL             ....  134
 Basis Dimension        Dim             ....  322

ORBITAL ENERGIES
----------------

  NO   OCC          E(Eh)            E(eV)
   0   2.0000     -88.965183     -2420.8657
   1   2.0000     -88.963920     -2420.8313
   2   2.0000     -10.328994      -281.0662
   3   2.0000     -10.325370      -280.9676
   4   2.0000     -10.321613      -280.8654
   5   2.0000     -10.310532      -280.5638
   6   2.0000     -10.308220      -280.5009
   7   2.0000     -10.300951      -280.3031
   8   2.0000     -10.293619      -280.1036
   9   2.0000     -10.292489      -280.0729
  10   2.0000     -10.292185      -280.0646
  11   2.0000     -10.291363      -280.0422
  12   2.0000     -10.284003      -279.8419
  13   2.0000     -10.283703      -279.8338
  14   2.0000     -10.275357      -279.6067
  15   2.0000     -10.273102      -279.5453
  16   2.0000      -8.080953      -219.8939
  17   2.0000      -8.078884      -219.8376
  18   2.0000      -6.039361      -164.3394
  19   2.0000      -6.037564      -164.2905
  20   2.0000      -6.035271      -164.2281
  21   2.0000      -6.033241      -164.1728
  22   2.0000      -6.031812      -164.1339
  23   2.0000      -6.029564      -164.0728
  24   2.0000      -1.010452       -27.4958
  25   2.0000      -0.984629       -26.7931
  26   2.0000      -0.917472       -24.9657
  27   2.0000      -0.913987       -24.8709
  28   2.0000      -0.871752       -23.7216
  29   2.0000      -0.856077       -23.2950
  30   2.0000      -0.844706       -22.9856
  31   2.0000      -0.816307       -22.2128
  32   2.0000      -0.785796       -21.3826
  33   2.0000      -0.772874       -21.0310
  34   2.0000      -0.709364       -19.3028
  35   2.0000      -0.701668       -19.0934
  36   2.0000      -0.694997       -18.9118
  37   2.0000      -0.662733       -18.0339
  38   2.0000      -0.642167       -17.4743
  39   2.0000      -0.620026       -16.8718
  40   2.0000      -0.594694       -16.1824
  41   2.0000      -0.574173       -15.6240
  42   2.0000      -0.562823       -15.3152
  43   2.0000      -0.561481       -15.2787
  44   2.0000      -0.544271       -14.8104
  45   2.0000      -0.530540       -14.4367
  46   2.0000      -0.522855       -14.2276
  47   2.0000      -0.515533       -14.0284
  48   2.0000      -0.509192       -13.8558
  49   2.0000      -0.505408       -13.7528
  50   2.0000      -0.491541       -13.3755
  51   2.0000      -0.480632       -13.0787
  52   2.0000      -0.469622       -12.7791
  53   2.0000      -0.464265       -12.6333
  54   2.0000      -0.459266       -12.4973
  55   2.0000      -0.453165       -12.3313
  56   2.0000      -0.447509       -12.1773
  57   2.0000      -0.441472       -12.0131
  58   2.0000      -0.431564       -11.7434
  59   2.0000      -0.426807       -11.6140
  60   2.0000      -0.419327       -11.4105
  61   2.0000      -0.411173       -11.1886
  62   2.0000      -0.407491       -11.0884
  63   2.0000      -0.353986        -9.6325
  64   2.0000      -0.329601        -8.9689
  65   2.0000      -0.324395        -8.8272
  66   2.0000      -0.280694        -7.6381
  67   0.0000       0.023089         0.6283
  68   0.0000       0.072518         1.9733
  69   0.0000       0.107251         2.9184
  70   0.0000       0.119781         3.2594
  71   0.0000       0.133690         3.6379

MULLIKEN ATOMIC CHARGES
-----------------------
   0 S :    0.114114
   1 C :   -0.110570
   2 C :   -0.131794
   3 C :    0.007069
   4 C :   -0.123164
   5 H :    0.015702
   6 C :    0.074021
   7 H :    0.003522
   8 H :    0.029379
   9 C :   -0.067129
  10 H :    0.021532
  11 H :    0.016747
  12 C :   -0.016968
  13 H :    0.013211
  14 H :    0.036820
  15 H :    0.042131
  16 S :    0.092790
  17 C :   -0.078601
  18 C :   -0.023819
  19 C :   -0.087743
  20 C :   -0.103545
  21 H :   -0.012619
  22 C :    0.081829
  23 H :    0.026838
  24 H :    0.050184
  25 C :   -0.092675
  26 H :    0.039255
  27 H :    0.027086
  28 C :   -0.047774
  29 H :    0.036464
  30 H :    0.021327
  31 H :    0.026756
  32 H :    0.053145
  33 H :    0.066479
Sum of atomic charges:    0.0000000

LOEWDIN ATOMIC CHARGES
----------------------
   0 S :    0.429797
   1 C :   -0.220642
   2 C :   -0.055308
   3 C :   -0.068158
   4 C :   -0.192056
   5 H :    0.030741
   6 C :   -0.040136
   7 H :    0.024228
   8 H :    0.036079
   9 C :   -0.042940
  10 H :    0.025956
  11 H :    0.019750
  12 C :   -0.057149
  13 H :    0.016421
  14 H :    0.031288
  15 H :    0.029135
  16 S :    0.407958
  17 C :   -0.192839
  18 C :   -0.067144
  19 C :   -0.046397
  20 C :   -0.201814
  21 H :    0.012651
  22 C :   -0.038259
  23 H :    0.032719
  24 H :    0.041272
  25 C :   -0.044235
  26 H :    0.030951
  27 H :    0.026008
  28 C :   -0.064612
  29 H :    0.028847
  30 H :    0.022217
  31 H :    0.017355
  32 H :    0.029884
  33 H :    0.038432

  Mayer bond orders larger than 0.100000
B(  0-S ,  1-C ) :   1.1393 B(  0-S ,  4-C ) :   1.1745 B(  1-C ,  2-C ) :   1.5897
B(  1-C , 32-H ) :   0.9714 B(  2-C ,  3-C ) :   1.2496 B(  2-C ,  6-C ) :   1.0274
B(  3-C ,  4-C ) :   1.5328 B(  3-C ,  5-H ) :   0.9989 B(  4-C , 20-C ) :   1.0439
B(  6-C ,  7-H ) :   0.9359 B(  6-C ,  8-H ) :   0.9349 B(  6-C ,  9-C ) :   1.0653
B(  9-C , 10-H ) :   0.9537 B(  9-C , 11-H ) :   0.9558 B(  9-C , 12-C ) :   1.0762
B( 12-C , 13-H ) :   0.9725 B( 12-C , 14-H ) :   0.9766 B( 12-C , 15-H ) :   0.9760
B( 16-S , 17-C ) :   1.1727 B( 16-S , 20-C ) :   1.1111 B( 17-C , 18-C ) :   1.5933
B( 17-C , 33-H ) :   0.9625 B( 18-C , 19-C ) :   1.2314 B( 18-C , 21-H ) :   0.9977
B( 19-C , 20-C ) :   1.6155 B( 19-C , 22-C ) :   1.0193 B( 22-C , 23-H ) :   0.9070
B( 22-C , 24-H ) :   0.9384 B( 22-C , 25-C ) :   1.0945 B( 25-C , 26-H ) :   0.9450
B( 25-C , 27-H ) :   0.9505 B( 25-C , 28-C ) :   1.0725 B( 28-C , 29-H ) :   0.9780
B( 28-C , 30-H ) :   0.9730 B( 28-C , 31-H ) :   0.9779

Dispersion correction           -0.013722318
FINAL SINGLE POINT ENERGY     -1339.861124011839

DIPOLE MOMENT
-------------
                                X             Y             Z
Electronic contribution:     13.74782      16.25877     -21.47262
Nuclear contribution   :    -14.19675     -16.80120      21.87174
                        -----------------------------------------
Total Dipole Moment    :     -0.44894      -0.54243       0.39912
                        -----------------------------------------
Magnitude (a.u.)       :      0.80937
Magnitude (Debye)      :      2.05725

Rotational constants in cm-1:     0.018182     0.008618     0.006286
Rotational constants in MHz :   545.094449   258.369695   188.439110

                             ****ORCA TERMINATED NORMALLY****
TOTAL RUN TIME: 0 days 0 hours 0 minutes 20 seconds 252 msec
