                         Program Version 4.2.1 -  RELEASE  -
|  1> ! wB97X-D3 SP def2-SVP
|  2> %pal
|  3> nprocs 24
|  4> end
|  5>
|  6> * xyz 0 1
|  7> S 	 -103.345 	 1.45474 	 -108.61
|  8> C 	 -103.437 	 -0.0797868 	 -109.465
|  9> C 	 -103.382 	 -1.18317 	 -108.613
| 10> C 	 -103.565 	 -0.774989 	 -107.262
| 11> C 	 -103.74 	 0.58775 	 -107.069
| 12> H 	 -103.647 	 -1.41274 	 -106.378
| 13> C 	 -103.334 	 -2.61313 	 -109.142
| 14> H 	 -103.508 	 -2.6205 	 -110.245
| 15> H 	 -104.213 	 -3.01376 	 -108.719
| 16> C 	 -102.066 	 -3.3389 	 -108.71
| 17> H 	 -101.19 	 -2.95724 	 -109.276
| 18> H 	 -101.928 	 -3.15121 	 -107.661
| 19> C 	 -101.98 	 -4.86642 	 -109.111
| 20> H 	 -102.623 	 -5.37693 	 -108.387
| 21> H 	 -102.36 	 -5.029 	 -110.101
| 22> H 	 -100.969 	 -5.30535 	 -109.053
| 23> S 	 -102.488 	 2.36887 	 -105.385
| 24> C 	 -103.345 	 2.87835 	 -103.992
| 25> C 	 -104.473 	 2.24248 	 -103.832
| 26> C 	 -104.711 	 1.22081 	 -104.78
| 27> C 	 -103.766 	 1.28433 	 -105.807
| 28> H 	 -105.101 	 2.45553 	 -103.024
| 29> C 	 -105.965 	 0.324807 	 -104.72
| 30> H 	 -106.488 	 0.461609 	 -103.763
| 31> H 	 -105.556 	 -0.709322 	 -104.673
| 32> C 	 -106.906 	 0.402515 	 -105.993
| 33> H 	 -106.534 	 -0.00902412 	 -106.94
| 34> H 	 -107.254 	 1.42726 	 -106.05
| 35> C 	 -108.103 	 -0.478232 	 -105.824
| 36> H 	 -107.896 	 -1.49323 	 -105.657
| 37> H 	 -108.829 	 -0.376725 	 -106.598
| 38> H 	 -108.63 	 -0.113441 	 -104.904
| 39> H 	 -103.437 	 -0.178141 	 -110.559
| 40> H 	 -103.141 	 3.62907 	 -103.269
| 41> *
| 42>
| 43>                          ****END OF INPUT****

CARTESIAN COORDINATES (ANGSTROEM)
---------------------------------
  S    -103.345000    1.454740  -108.610000
  C    -103.437000   -0.079787  -109.465000
  C    -103.382000   -1.183170  -108.613000
  C    -103.565000   -0.774989  -107.262000
  C    -103.740000    0.587750  -107.069000
  H    -103.647000   -1.412740  -106.378000
  C    -103.334000   -2.613130  -109.142000
  H    -103.508000   -2.620500  -110.245000
  H    -104.213000   -3.013760  -108.719000
  C    -102.066000   -3.338900  -108.710000
  H    -101.190000   -2.957240  -109.276000
  H    -101.928000   -3.151210  -107.661000
  C    -101.980000   -4.866420  -109.111000
  H    -102.623000   -5.376930  -108.387000
  H    -102.360000   -5.029000  -110.101000
  H    -100.969000   -5.305350  -109.053000
  S    -102.488000    2.368870  -105.385000
  C    -103.345000    2.878350  -103.992000
  C    -104.473000    2.242480  -103.832000
  C    -104.711000    1.220810  -104.780000
  C    -103.766000    1.284330  -105.807000
  H    -105.101000    2.455530  -103.024000
  C    -105.965000    0.324807  -104.720000
  H    -106.488000    0.461609  -103.763000
  H    -105.556000   -0.709322  -104.673000
  C    -106.906000    0.402515  -105.993000
  H    -106.534000   -0.009024  -106.940000
  H    -107.254000    1.427260  -106.050000
  C    -108.103000   -0.478232  -105.824000
  H    -107.896000   -1.493230  -105.657000
  H    -108.829000   -0.376725  -106.598000
  H    -108.630000   -0.113441  -104.904000
  H    -103.437000   -0.178141  -110.559000
  H    -103.141000    3.629070  -103.269000

 Total Charge           Charge          ....    0
 Multiplicity           Mult            ....    1
 Number of Electrons    NEL             ....  134
 Basis Dimension        Dim             ....  322

ORBITAL ENERGIES
----------------

  NO   OCC          E(Eh)            E(eV)
   0   2.0000     -88.965151     -2420.8648
   1   2.0000     -88.963827     -2420.8288
   2   2.0000     -10.330878      -281.1175
   3   2.0000     -10.320557      -280.8366
   4   2.0000     -10.317083      -280.7421
   5   2.0000     -10.303597      -280.3751
   6   2.0000     -10.299645      -280.2676
   7   2.0000     -10.299211      -280.2558
   8   2.0000     -10.298602      -280.2392
   9   2.0000     -10.298474      -280.2357
  10   2.0000     -10.294599      -280.1303
  11   2.0000     -10.290465      -280.0178
  12   2.0000     -10.283017      -279.8151
  13   2.0000     -10.281902      -279.7848
  14   2.0000     -10.275031      -279.5978
  15   2.0000     -10.266792      -279.3736
  16   2.0000      -8.079580      -219.8566
  17   2.0000      -8.078877      -219.8374
  18   2.0000      -6.038076      -164.3044
  19   2.0000      -6.037412      -164.2863
  20   2.0000      -6.034028      -164.1943
  21   2.0000      -6.033788      -164.1877
  22   2.0000      -6.030201      -164.0901
  23   2.0000      -6.029406      -164.0685
  24   2.0000      -1.011651       -27.5284
  25   2.0000      -0.983940       -26.7744
  26   2.0000      -0.910396       -24.7731
  27   2.0000      -0.904871       -24.6228
  28   2.0000      -0.873041       -23.7567
  29   2.0000      -0.854554       -23.2536
  30   2.0000      -0.844183       -22.9714
  31   2.0000      -0.819171       -22.2908
  32   2.0000      -0.782324       -21.2881
  33   2.0000      -0.767441       -20.8831
  34   2.0000      -0.711786       -19.3687
  35   2.0000      -0.697605       -18.9828
  36   2.0000      -0.689344       -18.7580
  37   2.0000      -0.658804       -17.9270
  38   2.0000      -0.640498       -17.4288
  39   2.0000      -0.619611       -16.8605
  40   2.0000      -0.594490       -16.1769
  41   2.0000      -0.570424       -15.5220
  42   2.0000      -0.565656       -15.3923
  43   2.0000      -0.563492       -15.3334
  44   2.0000      -0.527059       -14.3420
  45   2.0000      -0.523380       -14.2419
  46   2.0000      -0.518298       -14.1036
  47   2.0000      -0.509323       -13.8594
  48   2.0000      -0.505005       -13.7419
  49   2.0000      -0.499718       -13.5980
  50   2.0000      -0.492331       -13.3970
  51   2.0000      -0.486256       -13.2317
  52   2.0000      -0.472225       -12.8499
  53   2.0000      -0.469746       -12.7824
  54   2.0000      -0.455222       -12.3872
  55   2.0000      -0.450366       -12.2551
  56   2.0000      -0.442069       -12.0293
  57   2.0000      -0.439947       -11.9716
  58   2.0000      -0.428016       -11.6469
  59   2.0000      -0.427314       -11.6278
  60   2.0000      -0.424644       -11.5552
  61   2.0000      -0.413260       -11.2454
  62   2.0000      -0.404366       -11.0033
  63   2.0000      -0.348575        -9.4852
  64   2.0000      -0.329981        -8.9792
  65   2.0000      -0.327777        -8.9193
  66   2.0000      -0.288490        -7.8502
  67   0.0000       0.030125         0.8197
  68   0.0000       0.063075         1.7164
  69   0.0000       0.114829         3.1247
  70   0.0000       0.128436         3.4949
  71   0.0000       0.133895         3.6435

MULLIKEN ATOMIC CHARGES
-----------------------
   0 S :    0.096583
   1 C :   -0.125361
   2 C :   -0.086041
   3 C :    0.023695
   4 C :   -0.158556
   5 H :    0.019976
   6 C :    0.092839
   7 H :    0.022830
   8 H :    0.019091
   9 C :   -0.097379
  10 H :    0.036833
  11 H :    0.033770
  12 C :   -0.046190
  13 H :    0.028971
  14 H :    0.028625
  15 H :    0.044799
  16 S :    0.124746
  17 C :   -0.043742
  18 C :   -0.032443
  19 C :   -0.027653
  20 C :   -0.177955
  21 H :   -0.012256
  22 C :    0.053893
  23 H :    0.020402
  24 H :    0.026449
  25 C :   -0.062995
  26 H :    0.052988
  27 H :    0.035550
  28 C :   -0.029695
  29 H :    0.016973
  30 H :    0.028546
  31 H :    0.008287
  32 H :    0.053822
  33 H :    0.030598
Sum of atomic charges:   -0.0000000

LOEWDIN ATOMIC CHARGES
----------------------
   0 S :    0.372501
   1 C :   -0.191030
   2 C :   -0.062513
   3 C :   -0.059018
   4 C :   -0.172135
   5 H :    0.032820
   6 C :   -0.027557
   7 H :    0.033137
   8 H :    0.024351
   9 C :   -0.039840
  10 H :    0.030371
  11 H :    0.021825
  12 C :   -0.065372
  13 H :    0.023104
  14 H :    0.021478
  15 H :    0.029961
  16 S :    0.426408
  17 C :   -0.193720
  18 C :   -0.072585
  19 C :   -0.055432
  20 C :   -0.210502
  21 H :    0.022820
  22 C :   -0.030933
  23 H :    0.030520
  24 H :    0.033020
  25 C :   -0.036922
  26 H :    0.033321
  27 H :    0.026096
  28 C :   -0.062904
  29 H :    0.014455
  30 H :    0.022137
  31 H :    0.022558
  32 H :    0.029938
  33 H :    0.029644

  Mayer bond orders larger than 0.100000
B(  0-S ,  1-C ) :   1.1394 B(  0-S ,  4-C ) :   1.1224 B(  1-C ,  2-C ) :   1.6159
B(  1-C ,  4-C ) :   0.1033 B(  1-C , 32-H ) :   0.9642 B(  2-C ,  3-C ) :   1.2323
B(  2-C ,  6-C ) :   1.0113 B(  3-C ,  4-C ) :   1.5878 B(  3-C ,  5-H ) :   0.9867
B(  4-C , 20-C ) :   1.0654 B(  6-C ,  7-H ) :   0.9400 B(  6-C ,  8-H ) :   0.9402
B(  6-C ,  9-C ) :   1.0567 B(  9-C , 10-H ) :   0.9579 B(  9-C , 11-H ) :   0.9643
B(  9-C , 12-C ) :   1.0689 B( 12-C , 13-H ) :   0.9785 B( 12-C , 14-H ) :   0.9748
B( 12-C , 15-H ) :   0.9794 B( 16-S , 17-C ) :   1.1301 B( 16-S , 20-C ) :   1.1517
B( 17-C , 18-C ) :   1.6496 B( 17-C , 33-H ) :   0.9599 B( 18-C , 19-C ) :   1.2497
B( 18-C , 21-H ) :   0.9965 B( 19-C , 20-C ) :   1.5849 B( 19-C , 22-C ) :   1.0373
B( 22-C , 23-H ) :   0.9410 B( 22-C , 24-H ) :   0.9275 B( 22-C , 25-C ) :   1.0592
B( 25-C , 26-H ) :   0.9515 B( 25-C , 27-H ) :   0.9592 B( 25-C , 28-C ) :   1.0879
B( 28-C , 29-H ) :   0.9745 B( 28-C , 30-H ) :   0.9732 B( 28-C , 31-H ) :   0.9692

Dispersion correction           -0.014142853
FINAL SINGLE POINT ENERGY     -1339.862906295853

DIPOLE MOMENT
-------------
                                X             Y             Z
Electronic contribution:     12.01933      24.92997       2.44107
Nuclear contribution   :    -12.33275     -25.49545      -2.33467
                        -----------------------------------------
Total Dipole Moment    :     -0.31342      -0.56548       0.10640
                        -----------------------------------------
Magnitude (a.u.)       :      0.65523
Magnitude (Debye)      :      1.66545

Rotational constants in cm-1:     0.017905     0.008292     0.006968
Rotational constants in MHz :   536.790423   248.586248   208.898225

                             ****ORCA TERMINATED NORMALLY****
TOTAL RUN TIME: 0 days 0 hours 0 minutes 21 seconds 483 msec
