                         Program Version 4.2.1 -  RELEASE  -
|  1> ! wB97X-D3 SP def2-SVP
|  2> %pal
|  3> nprocs 24
|  4> end
|  5>
|  6> * xyz 0 1
|  7> S 	 -2.17393 	 -23.926 	 -114.371
|  8> C 	 -0.55433 	 -24.4993 	 -114.786
|  9> C 	 0.0399645 	 -23.6502 	 -115.692
| 10> C 	 -0.846186 	 -22.5542 	 -116.081
| 11> C 	 -2.01027 	 -22.5106 	 -115.326
| 12> H 	 -0.702208 	 -21.6513 	 -116.656
| 13> C 	 1.43721 	 -23.7905 	 -116.265
| 14> H 	 1.35755 	 -24.2012 	 -117.273
| 15> H 	 1.9546 	 -24.6126 	 -115.723
| 16> C 	 2.26858 	 -22.5017 	 -116.34
| 17> H 	 1.78046 	 -21.7696 	 -117.012
| 18> H 	 2.50681 	 -22.0268 	 -115.36
| 19> C 	 3.61657 	 -22.8205 	 -117.033
| 20> H 	 3.40515 	 -23.3603 	 -117.926
| 21> H 	 4.29607 	 -21.9512 	 -117.198
| 22> H 	 4.25241 	 -23.5253 	 -116.37
| 23> S 	 -3.44369 	 -20.7869 	 -116.843
| 24> C 	 -4.71601 	 -19.868 	 -116.168
| 25> C 	 -4.90094 	 -20.2587 	 -114.845
| 26> C 	 -3.96902 	 -21.1738 	 -114.304
| 27> C 	 -3.03768 	 -21.5274 	 -115.294
| 28> H 	 -5.84101 	 -19.8746 	 -114.382
| 29> C 	 -3.99062 	 -21.6164 	 -112.827
| 30> H 	 -4.02176 	 -22.7105 	 -112.67
| 31> H 	 -5.03227 	 -21.2759 	 -112.529
| 32> C 	 -3.1201 	 -20.8581 	 -111.774
| 33> H 	 -3.27418 	 -21.2871 	 -110.747
| 34> H 	 -3.38542 	 -19.8213 	 -111.724
| 35> C 	 -1.55728 	 -20.8527 	 -112.002
| 36> H 	 -1.12466 	 -21.8203 	 -112.184
| 37> H 	 -0.967912 	 -20.4417 	 -111.214
| 38> H 	 -1.30917 	 -20.3118 	 -112.926
| 39> H 	 -0.176654 	 -25.4433 	 -114.328
| 40> H 	 -5.38068 	 -19.193 	 -116.721
| 41> *
| 42>
| 43>                          ****END OF INPUT****

CARTESIAN COORDINATES (ANGSTROEM)
---------------------------------
  S     -2.173930  -23.926000  -114.371000
  C     -0.554330  -24.499300  -114.786000
  C      0.039965  -23.650200  -115.692000
  C     -0.846186  -22.554200  -116.081000
  C     -2.010270  -22.510600  -115.326000
  H     -0.702208  -21.651300  -116.656000
  C      1.437210  -23.790500  -116.265000
  H      1.357550  -24.201200  -117.273000
  H      1.954600  -24.612600  -115.723000
  C      2.268580  -22.501700  -116.340000
  H      1.780460  -21.769600  -117.012000
  H      2.506810  -22.026800  -115.360000
  C      3.616570  -22.820500  -117.033000
  H      3.405150  -23.360300  -117.926000
  H      4.296070  -21.951200  -117.198000
  H      4.252410  -23.525300  -116.370000
  S     -3.443690  -20.786900  -116.843000
  C     -4.716010  -19.868000  -116.168000
  C     -4.900940  -20.258700  -114.845000
  C     -3.969020  -21.173800  -114.304000
  C     -3.037680  -21.527400  -115.294000
  H     -5.841010  -19.874600  -114.382000
  C     -3.990620  -21.616400  -112.827000
  H     -4.021760  -22.710500  -112.670000
  H     -5.032270  -21.275900  -112.529000
  C     -3.120100  -20.858100  -111.774000
  H     -3.274180  -21.287100  -110.747000
  H     -3.385420  -19.821300  -111.724000
  C     -1.557280  -20.852700  -112.002000
  H     -1.124660  -21.820300  -112.184000
  H     -0.967912  -20.441700  -111.214000
  H     -1.309170  -20.311800  -112.926000
  H     -0.176654  -25.443300  -114.328000
  H     -5.380680  -19.193000  -116.721000

 Total Charge           Charge          ....    0
 Multiplicity           Mult            ....    1
 Number of Electrons    NEL             ....  134
 Basis Dimension        Dim             ....  322

ORBITAL ENERGIES
----------------

  NO   OCC          E(Eh)            E(eV)
   0   2.0000     -88.968438     -2420.9543
   1   2.0000     -88.961703     -2420.7710
   2   2.0000     -10.328769      -281.0601
   3   2.0000     -10.325184      -280.9626
   4   2.0000     -10.318149      -280.7711
   5   2.0000     -10.318121      -280.7703
   6   2.0000     -10.310581      -280.5652
   7   2.0000     -10.308800      -280.5167
   8   2.0000     -10.303584      -280.3748
   9   2.0000     -10.297616      -280.2124
  10   2.0000     -10.296563      -280.1837
  11   2.0000     -10.294353      -280.1236
  12   2.0000     -10.293673      -280.1051
  13   2.0000     -10.292135      -280.0632
  14   2.0000     -10.284712      -279.8612
  15   2.0000     -10.265283      -279.3325
  16   2.0000      -8.083492      -219.9630
  17   2.0000      -8.076746      -219.7794
  18   2.0000      -6.041871      -164.4077
  19   2.0000      -6.037828      -164.2977
  20   2.0000      -6.035276      -164.2282
  21   2.0000      -6.034503      -164.2072
  22   2.0000      -6.031136      -164.1156
  23   2.0000      -6.027534      -164.0175
  24   2.0000      -1.011741       -27.5309
  25   2.0000      -0.985300       -26.8114
  26   2.0000      -0.912075       -24.8188
  27   2.0000      -0.898057       -24.4374
  28   2.0000      -0.873492       -23.7689
  29   2.0000      -0.848731       -23.0951
  30   2.0000      -0.840776       -22.8787
  31   2.0000      -0.809534       -22.0285
  32   2.0000      -0.783616       -21.3233
  33   2.0000      -0.769877       -20.9494
  34   2.0000      -0.710107       -19.3230
  35   2.0000      -0.696927       -18.9644
  36   2.0000      -0.685459       -18.6523
  37   2.0000      -0.667506       -18.1638
  38   2.0000      -0.636633       -17.3237
  39   2.0000      -0.613472       -16.6934
  40   2.0000      -0.593045       -16.1376
  41   2.0000      -0.572024       -15.5656
  42   2.0000      -0.557901       -15.1813
  43   2.0000      -0.542502       -14.7622
  44   2.0000      -0.534289       -14.5387
  45   2.0000      -0.524268       -14.2660
  46   2.0000      -0.515792       -14.0354
  47   2.0000      -0.512954       -13.9582
  48   2.0000      -0.500323       -13.6145
  49   2.0000      -0.497994       -13.5511
  50   2.0000      -0.488768       -13.3000
  51   2.0000      -0.478648       -13.0247
  52   2.0000      -0.473006       -12.8712
  53   2.0000      -0.461909       -12.5692
  54   2.0000      -0.455505       -12.3949
  55   2.0000      -0.447073       -12.1655
  56   2.0000      -0.439463       -11.9584
  57   2.0000      -0.436402       -11.8751
  58   2.0000      -0.434129       -11.8132
  59   2.0000      -0.423055       -11.5119
  60   2.0000      -0.420140       -11.4326
  61   2.0000      -0.413905       -11.2629
  62   2.0000      -0.403659       -10.9841
  63   2.0000      -0.356339        -9.6965
  64   2.0000      -0.335991        -9.1428
  65   2.0000      -0.327178        -8.9030
  66   2.0000      -0.285360        -7.7651
  67   0.0000       0.019233         0.5233
  68   0.0000       0.085869         2.3366
  69   0.0000       0.109968         2.9924
  70   0.0000       0.122708         3.3391
  71   0.0000       0.125511         3.4153

MULLIKEN ATOMIC CHARGES
-----------------------
   0 S :    0.087832
   1 C :   -0.151294
   2 C :   -0.044892
   3 C :    0.008515
   4 C :   -0.140637
   5 H :    0.014053
   6 C :    0.057625
   7 H :    0.035425
   8 H :    0.018729
   9 C :   -0.089096
  10 H :    0.044160
  11 H :    0.047544
  12 C :   -0.077278
  13 H :    0.024036
  14 H :    0.046633
  15 H :    0.031240
  16 S :    0.108009
  17 C :   -0.096245
  18 C :   -0.072770
  19 C :   -0.026925
  20 C :   -0.139092
  21 H :    0.032517
  22 C :    0.036024
  23 H :    0.054540
  24 H :    0.023401
  25 C :   -0.047650
  26 H :    0.038487
  27 H :    0.026011
  28 C :   -0.062045
  29 H :    0.020432
  30 H :    0.026944
  31 H :    0.033843
  32 H :    0.066002
  33 H :    0.065923
Sum of atomic charges:   -0.0000000

LOEWDIN ATOMIC CHARGES
----------------------
   0 S :    0.419070
   1 C :   -0.201342
   2 C :   -0.056569
   3 C :   -0.076446
   4 C :   -0.196661
   5 H :    0.025903
   6 C :   -0.035518
   7 H :    0.035479
   8 H :    0.032144
   9 C :   -0.042420
  10 H :    0.027924
  11 H :    0.030623
  12 C :   -0.071739
  13 H :    0.016565
  14 H :    0.029471
  15 H :    0.028944
  16 S :    0.429275
  17 C :   -0.207083
  18 C :   -0.078284
  19 C :   -0.063789
  20 C :   -0.191978
  21 H :    0.037126
  22 C :   -0.042293
  23 H :    0.027584
  24 H :    0.040958
  25 C :   -0.033411
  26 H :    0.031556
  27 H :    0.021294
  28 C :   -0.075152
  29 H :    0.017774
  30 H :    0.020910
  31 H :    0.026908
  32 H :    0.036763
  33 H :    0.036413

  Mayer bond orders larger than 0.100000
B(  0-S ,  1-C ) :   1.1203 B(  0-S ,  4-C ) :   1.1523 B(  1-C ,  2-C ) :   1.6273
B(  1-C , 32-H ) :   0.9679 B(  2-C ,  3-C ) :   1.2006 B(  2-C ,  6-C ) :   1.0266
B(  3-C ,  4-C ) :   1.5777 B(  3-C ,  5-H ) :   0.9846 B(  4-C , 20-C ) :   1.0884
B(  6-C ,  7-H ) :   0.9310 B(  6-C ,  8-H ) :   0.9450 B(  6-C ,  9-C ) :   1.0606
B(  9-C , 10-H ) :   0.9497 B(  9-C , 11-H ) :   0.9593 B(  9-C , 12-C ) :   1.0780
B( 12-C , 13-H ) :   0.9742 B( 12-C , 14-H ) :   0.9748 B( 12-C , 15-H ) :   0.9750
B( 16-S , 17-C ) :   1.1644 B( 16-S , 20-C ) :   1.1607 B( 17-C , 18-C ) :   1.5865
B( 17-C , 20-C ) :   0.1049 B( 17-C , 33-H ) :   0.9663 B( 18-C , 19-C ) :   1.2788
B( 18-C , 21-H ) :   0.9790 B( 19-C , 20-C ) :   1.5194 B( 19-C , 22-C ) :   1.0226
B( 22-C , 23-H ) :   0.9396 B( 22-C , 24-H ) :   0.9292 B( 22-C , 25-C ) :   1.0684
B( 25-C , 26-H ) :   0.9564 B( 25-C , 27-H ) :   0.9580 B( 25-C , 28-C ) :   1.0726
B( 28-C , 29-H ) :   0.9756 B( 28-C , 30-H ) :   0.9767 B( 28-C , 31-H ) :   0.9745

Dispersion correction           -0.014746201
FINAL SINGLE POINT ENERGY     -1339.884576637373

DIPOLE MOMENT
-------------
                                X             Y             Z
Electronic contribution:    -19.21445      -2.48096      -7.67963
Nuclear contribution   :     19.34015       2.57442       7.77397
                        -----------------------------------------
Total Dipole Moment    :      0.12570       0.09346       0.09435
                        -----------------------------------------
Magnitude (a.u.)       :      0.18285
Magnitude (Debye)      :      0.46478

Rotational constants in cm-1:     0.020363     0.008377     0.007249
Rotational constants in MHz :   610.477425   251.141354   217.313440

                             ****ORCA TERMINATED NORMALLY****
TOTAL RUN TIME: 0 days 0 hours 0 minutes 22 seconds 877 msec
