                         Program Version 4.2.1 -  RELEASE  -
|  1> ! wB97X-D3 SP def2-SVP
|  2> %pal
|  3> nprocs 24
|  4> end
|  5>
|  6> * xyz 0 1
|  7> S 	 -62.9133 	 14.7298 	 -111.071
|  8> C 	 -63.6297 	 13.2708 	 -110.449
|  9> C 	 -62.9023 	 12.8009 	 -109.403
| 10> C 	 -61.776 	 13.6611 	 -109.106
| 11> C 	 -61.5784 	 14.6818 	 -110.022
| 12> H 	 -61.0506 	 13.6252 	 -108.324
| 13> C 	 -63.2918 	 11.5484 	 -108.603
| 14> H 	 -62.5284 	 10.7738 	 -108.688
| 15> H 	 -64.2552 	 11.2404 	 -108.937
| 16> C 	 -63.6921 	 11.7564 	 -107.101
| 17> H 	 -62.8314 	 12.1865 	 -106.536
| 18> H 	 -64.5602 	 12.414 	 -106.986
| 19> C 	 -63.9442 	 10.4599 	 -106.357
| 20> H 	 -63.1559 	 9.81888 	 -106.447
| 21> H 	 -64.2098 	 10.6743 	 -105.389
| 22> H 	 -64.7885 	 10.0091 	 -106.781
| 23> S 	 -60.8019 	 17.2693 	 -110.18
| 24> C 	 -59.1764 	 17.7468 	 -110.394
| 25> C 	 -58.3862 	 16.6182 	 -110.558
| 26> C 	 -59.1022 	 15.3953 	 -110.227
| 27> C 	 -60.4507 	 15.6015 	 -110.186
| 28> H 	 -57.3472 	 16.5891 	 -110.781
| 29> C 	 -58.376 	 14.0869 	 -110.296
| 30> H 	 -57.7712 	 14.0942 	 -111.224
| 31> H 	 -59.1058 	 13.309 	 -110.574
| 32> C 	 -57.4438 	 13.8008 	 -109.081
| 33> H 	 -56.5743 	 14.4717 	 -109.278
| 34> H 	 -57.1216 	 12.8109 	 -109.375
| 35> C 	 -58.0484 	 13.9535 	 -107.668
| 36> H 	 -59.0123 	 13.3588 	 -107.54
| 37> H 	 -58.4263 	 14.9065 	 -107.42
| 38> H 	 -57.3443 	 13.6021 	 -106.862
| 39> H 	 -64.6292 	 12.7733 	 -110.577
| 40> H 	 -58.7954 	 18.7516 	 -110.52
| 41> *
| 42>
| 43>                          ****END OF INPUT****

CARTESIAN COORDINATES (ANGSTROEM)
---------------------------------
  S    -62.913300   14.729800  -111.071000
  C    -63.629700   13.270800  -110.449000
  C    -62.902300   12.800900  -109.403000
  C    -61.776000   13.661100  -109.106000
  C    -61.578400   14.681800  -110.022000
  H    -61.050600   13.625200  -108.324000
  C    -63.291800   11.548400  -108.603000
  H    -62.528400   10.773800  -108.688000
  H    -64.255200   11.240400  -108.937000
  C    -63.692100   11.756400  -107.101000
  H    -62.831400   12.186500  -106.536000
  H    -64.560200   12.414000  -106.986000
  C    -63.944200   10.459900  -106.357000
  H    -63.155900    9.818880  -106.447000
  H    -64.209800   10.674300  -105.389000
  H    -64.788500   10.009100  -106.781000
  S    -60.801900   17.269300  -110.180000
  C    -59.176400   17.746800  -110.394000
  C    -58.386200   16.618200  -110.558000
  C    -59.102200   15.395300  -110.227000
  C    -60.450700   15.601500  -110.186000
  H    -57.347200   16.589100  -110.781000
  C    -58.376000   14.086900  -110.296000
  H    -57.771200   14.094200  -111.224000
  H    -59.105800   13.309000  -110.574000
  C    -57.443800   13.800800  -109.081000
  H    -56.574300   14.471700  -109.278000
  H    -57.121600   12.810900  -109.375000
  C    -58.048400   13.953500  -107.668000
  H    -59.012300   13.358800  -107.540000
  H    -58.426300   14.906500  -107.420000
  H    -57.344300   13.602100  -106.862000
  H    -64.629200   12.773300  -110.577000
  H    -58.795400   18.751600  -110.520000

 Total Charge           Charge          ....    0
 Multiplicity           Mult            ....    1
 Number of Electrons    NEL             ....  134
 Basis Dimension        Dim             ....  322

ORBITAL ENERGIES
----------------

  NO   OCC          E(Eh)            E(eV)
   0   2.0000     -88.963565     -2420.8217
   1   2.0000     -88.963525     -2420.8206
   2   2.0000     -10.326024      -280.9854
   3   2.0000     -10.322318      -280.8846
   4   2.0000     -10.316941      -280.7382
   5   2.0000     -10.312678      -280.6222
   6   2.0000     -10.300864      -280.3008
   7   2.0000     -10.298607      -280.2394
   8   2.0000     -10.294935      -280.1394
   9   2.0000     -10.294400      -280.1249
  10   2.0000     -10.292729      -280.0794
  11   2.0000     -10.291447      -280.0445
  12   2.0000     -10.290738      -280.0252
  13   2.0000     -10.287434      -279.9353
  14   2.0000     -10.287186      -279.9286
  15   2.0000     -10.259047      -279.1629
  16   2.0000      -8.079997      -219.8679
  17   2.0000      -8.079331      -219.8498
  18   2.0000      -6.038504      -164.3160
  19   2.0000      -6.037910      -164.2999
  20   2.0000      -6.034111      -164.1965
  21   2.0000      -6.033519      -164.1804
  22   2.0000      -6.030789      -164.1061
  23   2.0000      -6.030100      -164.0874
  24   2.0000      -1.017068       -27.6758
  25   2.0000      -0.993228       -27.0271
  26   2.0000      -0.912820       -24.8391
  27   2.0000      -0.908164       -24.7124
  28   2.0000      -0.876134       -23.8408
  29   2.0000      -0.848983       -23.1020
  30   2.0000      -0.844807       -22.9884
  31   2.0000      -0.818307       -22.2673
  32   2.0000      -0.786378       -21.3984
  33   2.0000      -0.779807       -21.2196
  34   2.0000      -0.710554       -19.3352
  35   2.0000      -0.698073       -18.9955
  36   2.0000      -0.690514       -18.7898
  37   2.0000      -0.665831       -18.1182
  38   2.0000      -0.640999       -17.4425
  39   2.0000      -0.616459       -16.7747
  40   2.0000      -0.595200       -16.1962
  41   2.0000      -0.579053       -15.7568
  42   2.0000      -0.568124       -15.4594
  43   2.0000      -0.546218       -14.8634
  44   2.0000      -0.542258       -14.7556
  45   2.0000      -0.532733       -14.4964
  46   2.0000      -0.520192       -14.1551
  47   2.0000      -0.510381       -13.8882
  48   2.0000      -0.506936       -13.7944
  49   2.0000      -0.502832       -13.6828
  50   2.0000      -0.496781       -13.5181
  51   2.0000      -0.483859       -13.1665
  52   2.0000      -0.471285       -12.8243
  53   2.0000      -0.467642       -12.7252
  54   2.0000      -0.459165       -12.4945
  55   2.0000      -0.451167       -12.2769
  56   2.0000      -0.448304       -12.1990
  57   2.0000      -0.442228       -12.0336
  58   2.0000      -0.437154       -11.8956
  59   2.0000      -0.421340       -11.4652
  60   2.0000      -0.413467       -11.2510
  61   2.0000      -0.410989       -11.1836
  62   2.0000      -0.407412       -11.0862
  63   2.0000      -0.348014        -9.4699
  64   2.0000      -0.329097        -8.9552
  65   2.0000      -0.325486        -8.8569
  66   2.0000      -0.300658        -8.1813
  67   0.0000       0.038288         1.0419
  68   0.0000       0.077138         2.0990
  69   0.0000       0.113003         3.0750
  70   0.0000       0.124203         3.3797
  71   0.0000       0.130901         3.5620

MULLIKEN ATOMIC CHARGES
-----------------------
   0 S :    0.113544
   1 C :   -0.112432
   2 C :   -0.097937
   3 C :    0.060691
   4 C :   -0.158482
   5 H :   -0.031037
   6 C :    0.086523
   7 H :    0.039932
   8 H :    0.000049
   9 C :   -0.136209
  10 H :    0.028126
  11 H :    0.035030
  12 C :    0.054238
  13 H :    0.008999
  14 H :    0.015066
  15 H :    0.000134
  16 S :    0.118928
  17 C :   -0.075061
  18 C :   -0.023043
  19 C :   -0.049784
  20 C :   -0.147739
  21 H :    0.008563
  22 C :   -0.010454
  23 H :    0.030495
  24 H :    0.031826
  25 C :   -0.037238
  26 H :    0.032523
  27 H :    0.029475
  28 C :   -0.058437
  29 H :    0.034934
  30 H :    0.037058
  31 H :    0.050248
  32 H :    0.061459
  33 H :    0.060013
Sum of atomic charges:    0.0000000

LOEWDIN ATOMIC CHARGES
----------------------
   0 S :    0.429045
   1 C :   -0.216097
   2 C :   -0.065824
   3 C :   -0.065274
   4 C :   -0.207960
   5 H :    0.019903
   6 C :   -0.025540
   7 H :    0.032141
   8 H :    0.023349
   9 C :   -0.036587
  10 H :    0.020441
  11 H :    0.024401
  12 C :   -0.043933
  13 H :    0.013450
  14 H :    0.019987
  15 H :    0.016896
  16 S :    0.441989
  17 C :   -0.197548
  18 C :   -0.064128
  19 C :   -0.059515
  20 C :   -0.219662
  21 H :    0.023471
  22 C :   -0.041528
  23 H :    0.036058
  24 H :    0.030158
  25 C :   -0.038618
  26 H :    0.027622
  27 H :    0.026578
  28 C :   -0.073113
  29 H :    0.031276
  30 H :    0.021914
  31 H :    0.036937
  32 H :    0.046888
  33 H :    0.032821

  Mayer bond orders larger than 0.100000
B(  0-S ,  1-C ) :   1.1301 B(  0-S ,  4-C ) :   1.1694 B(  1-C ,  2-C ) :   1.6420
B(  1-C , 32-H ) :   0.9523 B(  2-C ,  3-C ) :   1.2137 B(  2-C ,  6-C ) :   1.0272
B(  3-C ,  4-C ) :   1.5800 B(  3-C ,  5-H ) :   1.0071 B(  4-C , 20-C ) :   0.9909
B(  6-C ,  7-H ) :   0.9420 B(  6-C ,  8-H ) :   0.9408 B(  6-C ,  9-C ) :   1.0549
B(  9-C , 10-H ) :   0.9580 B(  9-C , 11-H ) :   0.9606 B(  9-C , 12-C ) :   1.0889
B( 12-C , 13-H ) :   0.9721 B( 12-C , 14-H ) :   0.9677 B( 12-C , 15-H ) :   0.9691
B( 16-S , 17-C ) :   1.1658 B( 16-S , 20-C ) :   1.1584 B( 17-C , 18-C ) :   1.5827
B( 17-C , 33-H ) :   0.9711 B( 18-C , 19-C ) :   1.2409 B( 18-C , 21-H ) :   0.9897
B( 19-C , 20-C ) :   1.5973 B( 19-C , 22-C ) :   1.0511 B( 22-C , 23-H ) :   0.9436
B( 22-C , 24-H ) :   0.9408 B( 22-C , 25-C ) :   1.0512 B( 25-C , 26-H ) :   0.9555
B( 25-C , 27-H ) :   0.9569 B( 25-C , 28-C ) :   1.0678 B( 28-C , 29-H ) :   0.9676
B( 28-C , 30-H ) :   0.9724 B( 28-C , 31-H ) :   0.9710

Dispersion correction           -0.014532240
FINAL SINGLE POINT ENERGY     -1339.862585006581

DIPOLE MOMENT
-------------
                                X             Y             Z
Electronic contribution:     -5.54832      22.24016     -18.05082
Nuclear contribution   :      5.87825     -22.67460      18.38061
                        -----------------------------------------
Total Dipole Moment    :      0.32993      -0.43444       0.32979
                        -----------------------------------------
Magnitude (a.u.)       :      0.63746
Magnitude (Debye)      :      1.62030

Rotational constants in cm-1:     0.019818     0.008471     0.006657
Rotational constants in MHz :   594.117765   253.945282   199.580038

                             ****ORCA TERMINATED NORMALLY****
TOTAL RUN TIME: 0 days 0 hours 0 minutes 21 seconds 818 msec
