                         Program Version 4.2.1 -  RELEASE  -
|  1> ! wB97X-D3 SP def2-SVP
|  2> %pal
|  3> nprocs 24
|  4> end
|  5>
|  6> * xyz 0 1
|  7> S 	 -64.2132 	 -44.7792 	 -81.7489
|  8> C 	 -63.829 	 -45.5901 	 -83.1944
|  9> C 	 -64.245 	 -46.9214 	 -83.2539
| 10> C 	 -65.0721 	 -47.2459 	 -82.0717
| 11> C 	 -65.2541 	 -46.152 	 -81.2719
| 12> H 	 -65.5547 	 -48.2636 	 -81.9032
| 13> C 	 -63.824 	 -47.9245 	 -84.3388
| 14> H 	 -64.0889 	 -47.4939 	 -85.3429
| 15> H 	 -64.6208 	 -48.6889 	 -84.2346
| 16> C 	 -62.443 	 -48.4918 	 -84.2229
| 17> H 	 -61.73 	 -47.6927 	 -84.4413
| 18> H 	 -62.4307 	 -48.7622 	 -83.1344
| 19> C 	 -62.0739 	 -49.7224 	 -85.0453
| 20> H 	 -62.8048 	 -50.509 	 -85.0127
| 21> H 	 -61.9453 	 -49.4522 	 -86.0771
| 22> H 	 -61.0558 	 -49.9879 	 -84.7343
| 23> S 	 -65.0276 	 -46.616 	 -78.6484
| 24> C 	 -66.3322 	 -46.0676 	 -77.6271
| 25> C 	 -67.5292 	 -45.9065 	 -78.3427
| 26> C 	 -67.3441 	 -46.0173 	 -79.7396
| 27> C 	 -65.9522 	 -46.1463 	 -79.9967
| 28> H 	 -68.4107 	 -45.6974 	 -77.7424
| 29> C 	 -68.4889 	 -45.9543 	 -80.7463
| 30> H 	 -67.9522 	 -45.9242 	 -81.7047
| 31> H 	 -68.9691 	 -45.0055 	 -80.5952
| 32> C 	 -69.3669 	 -47.1853 	 -80.7673
| 33> H 	 -69.5879 	 -47.4453 	 -79.7717
| 34> H 	 -68.9295 	 -48.0813 	 -81.1547
| 35> C 	 -70.6501 	 -46.9577 	 -81.5733
| 36> H 	 -71.3445 	 -46.232 	 -81.0813
| 37> H 	 -71.1928 	 -47.9287 	 -81.6049
| 38> H 	 -70.4736 	 -46.6666 	 -82.591
| 39> H 	 -63.0843 	 -45.1687 	 -83.8811
| 40> H 	 -66.3025 	 -45.7143 	 -76.6325
| 41> *
| 42>
| 43>                          ****END OF INPUT****

CARTESIAN COORDINATES (ANGSTROEM)
---------------------------------
  S    -64.213200  -44.779200  -81.748900
  C    -63.829000  -45.590100  -83.194400
  C    -64.245000  -46.921400  -83.253900
  C    -65.072100  -47.245900  -82.071700
  C    -65.254100  -46.152000  -81.271900
  H    -65.554700  -48.263600  -81.903200
  C    -63.824000  -47.924500  -84.338800
  H    -64.088900  -47.493900  -85.342900
  H    -64.620800  -48.688900  -84.234600
  C    -62.443000  -48.491800  -84.222900
  H    -61.730000  -47.692700  -84.441300
  H    -62.430700  -48.762200  -83.134400
  C    -62.073900  -49.722400  -85.045300
  H    -62.804800  -50.509000  -85.012700
  H    -61.945300  -49.452200  -86.077100
  H    -61.055800  -49.987900  -84.734300
  S    -65.027600  -46.616000  -78.648400
  C    -66.332200  -46.067600  -77.627100
  C    -67.529200  -45.906500  -78.342700
  C    -67.344100  -46.017300  -79.739600
  C    -65.952200  -46.146300  -79.996700
  H    -68.410700  -45.697400  -77.742400
  C    -68.488900  -45.954300  -80.746300
  H    -67.952200  -45.924200  -81.704700
  H    -68.969100  -45.005500  -80.595200
  C    -69.366900  -47.185300  -80.767300
  H    -69.587900  -47.445300  -79.771700
  H    -68.929500  -48.081300  -81.154700
  C    -70.650100  -46.957700  -81.573300
  H    -71.344500  -46.232000  -81.081300
  H    -71.192800  -47.928700  -81.604900
  H    -70.473600  -46.666600  -82.591000
  H    -63.084300  -45.168700  -83.881100
  H    -66.302500  -45.714300  -76.632500

 Total Charge           Charge          ....    0
 Multiplicity           Mult            ....    1
 Number of Electrons    NEL             ....  134
 Basis Dimension        Dim             ....  322

ORBITAL ENERGIES
----------------

  NO   OCC          E(Eh)            E(eV)
   0   2.0000     -88.966253     -2420.8948
   1   2.0000     -88.965265     -2420.8679
   2   2.0000     -10.324873      -280.9541
   3   2.0000     -10.318054      -280.7685
   4   2.0000     -10.311626      -280.5936
   5   2.0000     -10.307403      -280.4787
   6   2.0000     -10.304400      -280.3970
   7   2.0000     -10.304233      -280.3924
   8   2.0000     -10.301790      -280.3260
   9   2.0000     -10.294469      -280.1267
  10   2.0000     -10.290131      -280.0087
  11   2.0000     -10.287925      -279.9487
  12   2.0000     -10.286940      -279.9219
  13   2.0000     -10.279390      -279.7164
  14   2.0000     -10.278883      -279.7026
  15   2.0000     -10.277690      -279.6702
  16   2.0000      -8.081788      -219.9166
  17   2.0000      -8.080441      -219.8800
  18   2.0000      -6.040120      -164.3600
  19   2.0000      -6.038807      -164.3243
  20   2.0000      -6.036417      -164.2592
  21   2.0000      -6.035093      -164.2232
  22   2.0000      -6.032462      -164.1516
  23   2.0000      -6.031120      -164.1151
  24   2.0000      -1.006501       -27.3883
  25   2.0000      -0.981854       -26.7176
  26   2.0000      -0.912187       -24.8219
  27   2.0000      -0.910664       -24.7804
  28   2.0000      -0.867763       -23.6130
  29   2.0000      -0.850886       -23.1538
  30   2.0000      -0.848594       -23.0914
  31   2.0000      -0.811506       -22.0822
  32   2.0000      -0.782159       -21.2836
  33   2.0000      -0.765513       -20.8307
  34   2.0000      -0.704020       -19.1574
  35   2.0000      -0.697402       -18.9773
  36   2.0000      -0.692892       -18.8546
  37   2.0000      -0.654459       -17.8087
  38   2.0000      -0.639771       -17.4091
  39   2.0000      -0.612528       -16.6677
  40   2.0000      -0.589364       -16.0374
  41   2.0000      -0.569490       -15.4966
  42   2.0000      -0.567000       -15.4288
  43   2.0000      -0.554540       -15.0898
  44   2.0000      -0.528716       -14.3871
  45   2.0000      -0.525837       -14.3088
  46   2.0000      -0.518731       -14.1154
  47   2.0000      -0.514387       -13.9972
  48   2.0000      -0.504266       -13.7218
  49   2.0000      -0.497833       -13.5467
  50   2.0000      -0.487797       -13.2736
  51   2.0000      -0.473096       -12.8736
  52   2.0000      -0.469136       -12.7658
  53   2.0000      -0.463376       -12.6091
  54   2.0000      -0.458097       -12.4655
  55   2.0000      -0.450206       -12.2507
  56   2.0000      -0.447530       -12.1779
  57   2.0000      -0.438005       -11.9187
  58   2.0000      -0.434630       -11.8269
  59   2.0000      -0.424227       -11.5438
  60   2.0000      -0.418478       -11.3874
  61   2.0000      -0.412845       -11.2341
  62   2.0000      -0.411148       -11.1879
  63   2.0000      -0.338945        -9.2232
  64   2.0000      -0.330676        -8.9981
  65   2.0000      -0.311065        -8.4645
  66   2.0000      -0.299874        -8.1600
  67   0.0000       0.036223         0.9857
  68   0.0000       0.054592         1.4855
  69   0.0000       0.107783         2.9329
  70   0.0000       0.114429         3.1138
  71   0.0000       0.129361         3.5201

MULLIKEN ATOMIC CHARGES
-----------------------
   0 S :    0.121878
   1 C :   -0.111905
   2 C :   -0.131221
   3 C :    0.023630
   4 C :   -0.180865
   5 H :    0.047382
   6 C :    0.050648
   7 H :    0.032131
   8 H :    0.009152
   9 C :   -0.078039
  10 H :    0.029874
  11 H :    0.036657
  12 C :   -0.008794
  13 H :    0.031482
  14 H :    0.019145
  15 H :    0.036747
  16 S :    0.144243
  17 C :   -0.089734
  18 C :   -0.063245
  19 C :   -0.019927
  20 C :   -0.214150
  21 H :    0.020892
  22 C :    0.109460
  23 H :    0.024944
  24 H :    0.030619
  25 C :   -0.034912
  26 H :    0.008760
  27 H :    0.017873
  28 C :   -0.060613
  29 H :    0.036058
  30 H :    0.033345
  31 H :    0.032281
  32 H :    0.054887
  33 H :    0.041317
Sum of atomic charges:   -0.0000000

LOEWDIN ATOMIC CHARGES
----------------------
   0 S :    0.411678
   1 C :   -0.209812
   2 C :   -0.067722
   3 C :   -0.062032
   4 C :   -0.199830
   5 H :    0.046099
   6 C :   -0.045106
   7 H :    0.031607
   8 H :    0.027409
   9 C :   -0.047116
  10 H :    0.025990
  11 H :    0.032678
  12 C :   -0.059620
  13 H :    0.022649
  14 H :    0.022260
  15 H :    0.033366
  16 S :    0.436500
  17 C :   -0.194013
  18 C :   -0.069733
  19 C :   -0.051192
  20 C :   -0.224157
  21 H :    0.032331
  22 C :   -0.027852
  23 H :    0.034990
  24 H :    0.031183
  25 C :   -0.034417
  26 H :    0.016092
  27 H :    0.024731
  28 C :   -0.064102
  29 H :    0.027195
  30 H :    0.029654
  31 H :    0.021148
  32 H :    0.028630
  33 H :    0.020517

  Mayer bond orders larger than 0.100000
B(  0-S ,  1-C ) :   1.1551 B(  0-S ,  4-C ) :   1.1372 B(  1-C ,  2-C ) :   1.6266
B(  1-C , 32-H ) :   0.9626 B(  2-C ,  3-C ) :   1.2242 B(  2-C ,  6-C ) :   1.0187
B(  3-C ,  4-C ) :   1.6121 B(  3-C ,  5-H ) :   0.9799 B(  4-C , 20-C ) :   1.0172
B(  6-C ,  7-H ) :   0.9374 B(  6-C ,  8-H ) :   0.9360 B(  6-C ,  9-C ) :   1.0602
B(  9-C , 10-H ) :   0.9521 B(  9-C , 11-H ) :   0.9539 B(  9-C , 12-C ) :   1.0895
B( 12-C , 13-H ) :   0.9750 B( 12-C , 14-H ) :   0.9714 B( 12-C , 15-H ) :   0.9716
B( 16-S , 17-C ) :   1.1485 B( 16-S , 20-C ) :   1.1868 B( 17-C , 18-C ) :   1.6147
B( 17-C , 20-C ) :   0.1103 B( 17-C , 33-H ) :   0.9695 B( 18-C , 19-C ) :   1.2368
B( 18-C , 21-H ) :   0.9902 B( 19-C , 20-C ) :   1.5593 B( 19-C , 22-C ) :   1.0366
B( 22-C , 23-H ) :   0.9196 B( 22-C , 24-H ) :   0.9409 B( 22-C , 25-C ) :   1.0661
B( 25-C , 26-H ) :   0.9578 B( 25-C , 27-H ) :   0.9485 B( 25-C , 28-C ) :   1.0877
B( 28-C , 29-H ) :   0.9766 B( 28-C , 30-H ) :   0.9744 B( 28-C , 31-H ) :   0.9744

Dispersion correction           -0.013725878
FINAL SINGLE POINT ENERGY     -1339.860104422242

DIPOLE MOMENT
-------------
                                X             Y             Z
Electronic contribution:      9.30477      14.33491      17.18685
Nuclear contribution   :     -9.46955     -14.65885     -17.46414
                        -----------------------------------------
Total Dipole Moment    :     -0.16478      -0.32394      -0.27729
                        -----------------------------------------
Magnitude (a.u.)       :      0.45714
Magnitude (Debye)      :      1.16197

Rotational constants in cm-1:     0.018534     0.007526     0.006399
Rotational constants in MHz :   555.630144   225.626660   191.828654

                             ****ORCA TERMINATED NORMALLY****
TOTAL RUN TIME: 0 days 0 hours 0 minutes 21 seconds 931 msec
