                         Program Version 4.2.1 -  RELEASE  -
|  1> ! wB97X-D3 SP def2-SVP
|  2> %pal
|  3> nprocs 24
|  4> end
|  5>
|  6> * xyz 0 1
|  7> S 	 -63.0924 	 8.27307 	 -85.7642
|  8> C 	 -64.7336 	 7.75361 	 -85.9193
|  9> C 	 -65.7006 	 8.57723 	 -85.2567
| 10> C 	 -64.9109 	 9.53252 	 -84.4626
| 11> C 	 -63.5533 	 9.42888 	 -84.5582
| 12> H 	 -65.2965 	 10.416 	 -83.9197
| 13> C 	 -67.2311 	 8.47669 	 -85.3387
| 14> H 	 -67.6985 	 8.22254 	 -84.4009
| 15> H 	 -67.3939 	 7.73066 	 -86.0942
| 16> C 	 -67.9424 	 9.67779 	 -85.9737
| 17> H 	 -67.7438 	 10.4793 	 -85.3141
| 18> H 	 -67.6729 	 9.99435 	 -86.9717
| 19> C 	 -69.3934 	 9.54566 	 -86.0756
| 20> H 	 -69.9331 	 10.3994 	 -86.5136
| 21> H 	 -69.6474 	 8.67791 	 -86.6937
| 22> H 	 -69.8505 	 9.28963 	 -85.1194
| 23> S 	 -61.7138 	 11.4166 	 -84.8336
| 24> C 	 -60.7001 	 11.8895 	 -83.4657
| 25> C 	 -61.0394 	 11.1405 	 -82.3598
| 26> C 	 -62.0991 	 10.1682 	 -82.561
| 27> C 	 -62.5907 	 10.1917 	 -83.8455
| 28> H 	 -60.6431 	 11.3952 	 -81.4028
| 29> C 	 -62.5788 	 9.19519 	 -81.4847
| 30> H 	 -61.6924 	 8.76426 	 -81.0467
| 31> H 	 -63.0745 	 8.27596 	 -81.9388
| 32> C 	 -63.5856 	 9.83816 	 -80.5179
| 33> H 	 -64.5399 	 10.0146 	 -80.9738
| 34> H 	 -63.1307 	 10.7958 	 -80.1953
| 35> C 	 -63.8641 	 8.89258 	 -79.2825
| 36> H 	 -62.9957 	 8.51416 	 -78.8792
| 37> H 	 -64.2656 	 7.93709 	 -79.7346
| 38> H 	 -64.6127 	 9.32597 	 -78.5844
| 39> H 	 -65.154 	 7.02995 	 -86.5755
| 40> H 	 -60.0886 	 12.8526 	 -83.4944
| 41> *
| 42>
| 43>                          ****END OF INPUT****

CARTESIAN COORDINATES (ANGSTROEM)
---------------------------------
  S    -63.092400    8.273070  -85.764200
  C    -64.733600    7.753610  -85.919300
  C    -65.700600    8.577230  -85.256700
  C    -64.910900    9.532520  -84.462600
  C    -63.553300    9.428880  -84.558200
  H    -65.296500   10.416000  -83.919700
  C    -67.231100    8.476690  -85.338700
  H    -67.698500    8.222540  -84.400900
  H    -67.393900    7.730660  -86.094200
  C    -67.942400    9.677790  -85.973700
  H    -67.743800   10.479300  -85.314100
  H    -67.672900    9.994350  -86.971700
  C    -69.393400    9.545660  -86.075600
  H    -69.933100   10.399400  -86.513600
  H    -69.647400    8.677910  -86.693700
  H    -69.850500    9.289630  -85.119400
  S    -61.713800   11.416600  -84.833600
  C    -60.700100   11.889500  -83.465700
  C    -61.039400   11.140500  -82.359800
  C    -62.099100   10.168200  -82.561000
  C    -62.590700   10.191700  -83.845500
  H    -60.643100   11.395200  -81.402800
  C    -62.578800    9.195190  -81.484700
  H    -61.692400    8.764260  -81.046700
  H    -63.074500    8.275960  -81.938800
  C    -63.585600    9.838160  -80.517900
  H    -64.539900   10.014600  -80.973800
  H    -63.130700   10.795800  -80.195300
  C    -63.864100    8.892580  -79.282500
  H    -62.995700    8.514160  -78.879200
  H    -64.265600    7.937090  -79.734600
  H    -64.612700    9.325970  -78.584400
  H    -65.154000    7.029950  -86.575500
  H    -60.088600   12.852600  -83.494400

 Total Charge           Charge          ....    0
 Multiplicity           Mult            ....    1
 Number of Electrons    NEL             ....  134
 Basis Dimension        Dim             ....  322

ORBITAL ENERGIES
----------------

  NO   OCC          E(Eh)            E(eV)
   0   2.0000     -88.970185     -2421.0018
   1   2.0000     -88.959154     -2420.7016
   2   2.0000     -10.325476      -280.9705
   3   2.0000     -10.324894      -280.9546
   4   2.0000     -10.321156      -280.8529
   5   2.0000     -10.316190      -280.7178
   6   2.0000     -10.311919      -280.6016
   7   2.0000     -10.306994      -280.4676
   8   2.0000     -10.298350      -280.2324
   9   2.0000     -10.297046      -280.1969
  10   2.0000     -10.295921      -280.1663
  11   2.0000     -10.294973      -280.1405
  12   2.0000     -10.289294      -279.9859
  13   2.0000     -10.279241      -279.7124
  14   2.0000     -10.277891      -279.6756
  15   2.0000     -10.275240      -279.6035
  16   2.0000      -8.085256      -220.0110
  17   2.0000      -8.073387      -219.6880
  18   2.0000      -6.043661      -164.4564
  19   2.0000      -6.039860      -164.3529
  20   2.0000      -6.035938      -164.2462
  21   2.0000      -6.031974      -164.1384
  22   2.0000      -6.027922      -164.0281
  23   2.0000      -6.024129      -163.9249
  24   2.0000      -1.005575       -27.3631
  25   2.0000      -0.977787       -26.6069
  26   2.0000      -0.922359       -25.0987
  27   2.0000      -0.903451       -24.5841
  28   2.0000      -0.874013       -23.7831
  29   2.0000      -0.851674       -23.1752
  30   2.0000      -0.842603       -22.9284
  31   2.0000      -0.813814       -22.1450
  32   2.0000      -0.783041       -21.3076
  33   2.0000      -0.769410       -20.9367
  34   2.0000      -0.707506       -19.2522
  35   2.0000      -0.699447       -19.0329
  36   2.0000      -0.691795       -18.8247
  37   2.0000      -0.659697       -17.9513
  38   2.0000      -0.645385       -17.5618
  39   2.0000      -0.614351       -16.7174
  40   2.0000      -0.593268       -16.1437
  41   2.0000      -0.583821       -15.8866
  42   2.0000      -0.564729       -15.3671
  43   2.0000      -0.557069       -15.1586
  44   2.0000      -0.534910       -14.5556
  45   2.0000      -0.527253       -14.3473
  46   2.0000      -0.518643       -14.1130
  47   2.0000      -0.510962       -13.9040
  48   2.0000      -0.506369       -13.7790
  49   2.0000      -0.500283       -13.6134
  50   2.0000      -0.493191       -13.4204
  51   2.0000      -0.478909       -13.0318
  52   2.0000      -0.462161       -12.5760
  53   2.0000      -0.458859       -12.4862
  54   2.0000      -0.454775       -12.3751
  55   2.0000      -0.451848       -12.2954
  56   2.0000      -0.445477       -12.1221
  57   2.0000      -0.438604       -11.9350
  58   2.0000      -0.435759       -11.8576
  59   2.0000      -0.431957       -11.7541
  60   2.0000      -0.417785       -11.3685
  61   2.0000      -0.411171       -11.1885
  62   2.0000      -0.407183       -11.0800
  63   2.0000      -0.336925        -9.1682
  64   2.0000      -0.330539        -8.9944
  65   2.0000      -0.325799        -8.8654
  66   2.0000      -0.302903        -8.2424
  67   0.0000       0.041695         1.1346
  68   0.0000       0.053342         1.4515
  69   0.0000       0.112346         3.0571
  70   0.0000       0.121715         3.3120
  71   0.0000       0.126952         3.4545

MULLIKEN ATOMIC CHARGES
-----------------------
   0 S :    0.145989
   1 C :   -0.090152
   2 C :   -0.117167
   3 C :    0.027838
   4 C :   -0.171408
   5 H :    0.027401
   6 C :    0.092750
   7 H :    0.041547
   8 H :    0.005586
   9 C :   -0.053872
  10 H :    0.014366
  11 H :    0.028190
  12 C :   -0.046866
  13 H :    0.043852
  14 H :    0.015233
  15 H :    0.013659
  16 S :    0.075731
  17 C :   -0.114732
  18 C :   -0.023540
  19 C :   -0.007455
  20 C :   -0.191966
  21 H :    0.011174
  22 C :    0.036212
  23 H :    0.026079
  24 H :    0.039326
  25 C :   -0.069552
  26 H :    0.031616
  27 H :    0.030674
  28 C :   -0.026197
  29 H :    0.008972
  30 H :    0.019210
  31 H :    0.054047
  32 H :    0.030378
  33 H :    0.093079
Sum of atomic charges:    0.0000000

LOEWDIN ATOMIC CHARGES
----------------------
   0 S :    0.430932
   1 C :   -0.200878
   2 C :   -0.056022
   3 C :   -0.060466
   4 C :   -0.218510
   5 H :    0.034891
   6 C :   -0.022310
   7 H :    0.033744
   8 H :    0.028264
   9 C :   -0.042494
  10 H :    0.016351
  11 H :    0.028590
  12 C :   -0.066023
  13 H :    0.031941
  14 H :    0.022028
  15 H :    0.019632
  16 S :    0.365689
  17 C :   -0.186572
  18 C :   -0.073113
  19 C :   -0.048845
  20 C :   -0.183263
  21 H :    0.025569
  22 C :   -0.034598
  23 H :    0.028540
  24 H :    0.038733
  25 C :   -0.033254
  26 H :    0.022765
  27 H :    0.022293
  28 C :   -0.065456
  29 H :    0.010155
  30 H :    0.031022
  31 H :    0.032212
  32 H :    0.019998
  33 H :    0.048454

  Mayer bond orders larger than 0.100000
B(  0-S ,  1-C ) :   1.1581 B(  0-S ,  4-C ) :   1.1291 B(  1-C ,  2-C ) :   1.6199
B(  1-C , 32-H ) :   0.9612 B(  2-C ,  3-C ) :   1.2166 B(  2-C ,  6-C ) :   1.0288
B(  3-C ,  4-C ) :   1.6212 B(  3-C ,  5-H ) :   0.9814 B(  4-C , 20-C ) :   1.0318
B(  6-C ,  7-H ) :   0.9405 B(  6-C ,  8-H ) :   0.9340 B(  6-C ,  9-C ) :   1.0609
B(  9-C , 10-H ) :   0.9509 B(  9-C , 11-H ) :   0.9541 B(  9-C , 12-C ) :   1.1025
B( 12-C , 13-H ) :   0.9713 B( 12-C , 14-H ) :   0.9695 B( 12-C , 15-H ) :   0.9672
B( 16-S , 17-C ) :   1.1409 B( 16-S , 20-C ) :   1.1248 B( 17-C , 18-C ) :   1.6297
B( 17-C , 33-H ) :   0.9565 B( 18-C , 19-C ) :   1.2081 B( 18-C , 21-H ) :   0.9898
B( 19-C , 20-C ) :   1.6430 B( 19-C , 22-C ) :   1.0376 B( 22-C , 23-H ) :   0.9411
B( 22-C , 24-H ) :   0.9326 B( 22-C , 25-C ) :   1.0561 B( 25-C , 26-H ) :   0.9544
B( 25-C , 27-H ) :   0.9620 B( 25-C , 28-C ) :   1.0742 B( 28-C , 29-H ) :   0.9758
B( 28-C , 30-H ) :   0.9693 B( 28-C , 31-H ) :   0.9755

Dispersion correction           -0.013644738
FINAL SINGLE POINT ENERGY     -1339.863966527971

DIPOLE MOMENT
-------------
                                X             Y             Z
Electronic contribution:     23.70295       3.37947     -13.67795
Nuclear contribution   :    -24.20463      -3.33190      14.03286
                        -----------------------------------------
Total Dipole Moment    :     -0.50169       0.04757       0.35491
                        -----------------------------------------
Magnitude (a.u.)       :      0.61637
Magnitude (Debye)      :      1.56669

Rotational constants in cm-1:     0.017190     0.008016     0.006588
Rotational constants in MHz :   515.332473   240.308749   197.495924

                             ****ORCA TERMINATED NORMALLY****
TOTAL RUN TIME: 0 days 0 hours 0 minutes 19 seconds 777 msec
