                         Program Version 4.2.1 -  RELEASE  -
|  1> ! wB97X-D3 SP def2-SVP
|  2> %pal
|  3> nprocs 24
|  4> end
|  5>
|  6> * xyz 0 1
|  7> S 	 -58.1453 	 13.7534 	 -89.7488
|  8> C 	 -56.488 	 13.3119 	 -90.1065
|  9> C 	 -55.5778 	 14.2836 	 -89.6617
| 10> C 	 -56.2557 	 15.3056 	 -88.9791
| 11> C 	 -57.6306 	 15.346 	 -89.14
| 12> H 	 -55.5972 	 16.0116 	 -88.5658
| 13> C 	 -54.0775 	 14.2345 	 -89.6634
| 14> H 	 -53.8622 	 13.3356 	 -90.3087
| 15> H 	 -53.7164 	 14.0229 	 -88.664
| 16> C 	 -53.3789 	 15.5355 	 -90.2677
| 17> H 	 -53.8589 	 15.8103 	 -91.1711
| 18> H 	 -53.4656 	 16.3209 	 -89.5167
| 19> C 	 -51.8529 	 15.418 	 -90.5803
| 20> H 	 -51.3967 	 16.3599 	 -90.9493
| 21> H 	 -51.3784 	 14.9458 	 -89.7175
| 22> H 	 -51.683 	 14.722 	 -91.3809
| 23> S 	 -59.9726 	 15.9499 	 -87.9226
| 24> C 	 -60.4713 	 17.6294 	 -87.7814
| 25> C 	 -59.6048 	 18.4818 	 -88.3803
| 26> C 	 -58.4693 	 17.8001 	 -88.9747
| 27> C 	 -58.548 	 16.3993 	 -88.7231
| 28> H 	 -59.7674 	 19.5418 	 -88.4614
| 29> C 	 -57.3447 	 18.4918 	 -89.6826
| 30> H 	 -56.4441 	 18.1501 	 -89.1638
| 31> H 	 -57.3223 	 19.5402 	 -89.4122
| 32> C 	 -57.2341 	 18.1856 	 -91.1914
| 33> H 	 -58.1628 	 18.3895 	 -91.7055
| 34> H 	 -57.1153 	 17.097 	 -91.3768
| 35> C 	 -55.9255 	 18.8391 	 -91.862
| 36> H 	 -55.8091 	 18.4761 	 -92.9179
| 37> H 	 -55.0528 	 18.5055 	 -91.2881
| 38> H 	 -55.9816 	 19.8993 	 -91.8281
| 39> H 	 -56.173 	 12.3535 	 -90.3414
| 40> H 	 -61.3968 	 17.9257 	 -87.2705
| 41> *
| 42>
| 43>                          ****END OF INPUT****

CARTESIAN COORDINATES (ANGSTROEM)
---------------------------------
  S    -58.145300   13.753400  -89.748800
  C    -56.488000   13.311900  -90.106500
  C    -55.577800   14.283600  -89.661700
  C    -56.255700   15.305600  -88.979100
  C    -57.630600   15.346000  -89.140000
  H    -55.597200   16.011600  -88.565800
  C    -54.077500   14.234500  -89.663400
  H    -53.862200   13.335600  -90.308700
  H    -53.716400   14.022900  -88.664000
  C    -53.378900   15.535500  -90.267700
  H    -53.858900   15.810300  -91.171100
  H    -53.465600   16.320900  -89.516700
  C    -51.852900   15.418000  -90.580300
  H    -51.396700   16.359900  -90.949300
  H    -51.378400   14.945800  -89.717500
  H    -51.683000   14.722000  -91.380900
  S    -59.972600   15.949900  -87.922600
  C    -60.471300   17.629400  -87.781400
  C    -59.604800   18.481800  -88.380300
  C    -58.469300   17.800100  -88.974700
  C    -58.548000   16.399300  -88.723100
  H    -59.767400   19.541800  -88.461400
  C    -57.344700   18.491800  -89.682600
  H    -56.444100   18.150100  -89.163800
  H    -57.322300   19.540200  -89.412200
  C    -57.234100   18.185600  -91.191400
  H    -58.162800   18.389500  -91.705500
  H    -57.115300   17.097000  -91.376800
  C    -55.925500   18.839100  -91.862000
  H    -55.809100   18.476100  -92.917900
  H    -55.052800   18.505500  -91.288100
  H    -55.981600   19.899300  -91.828100
  H    -56.173000   12.353500  -90.341400
  H    -61.396800   17.925700  -87.270500

 Total Charge           Charge          ....    0
 Multiplicity           Mult            ....    1
 Number of Electrons    NEL             ....  134
 Basis Dimension        Dim             ....  322

ORBITAL ENERGIES
----------------

  NO   OCC          E(Eh)            E(eV)
   0   2.0000     -88.967827     -2420.9377
   1   2.0000     -88.966631     -2420.9051
   2   2.0000     -10.332934      -281.1734
   3   2.0000     -10.324740      -280.9505
   4   2.0000     -10.316649      -280.7303
   5   2.0000     -10.310816      -280.5716
   6   2.0000     -10.306114      -280.4436
   7   2.0000     -10.301515      -280.3185
   8   2.0000     -10.296854      -280.1916
   9   2.0000     -10.294176      -280.1188
  10   2.0000     -10.293613      -280.1034
  11   2.0000     -10.290258      -280.0121
  12   2.0000     -10.288366      -279.9607
  13   2.0000     -10.285073      -279.8711
  14   2.0000     -10.283155      -279.8189
  15   2.0000     -10.282451      -279.7997
  16   2.0000      -8.082313      -219.9309
  17   2.0000      -8.081833      -219.9179
  18   2.0000      -6.040711      -164.3761
  19   2.0000      -6.040420      -164.3682
  20   2.0000      -6.036675      -164.2663
  21   2.0000      -6.036484      -164.2611
  22   2.0000      -6.033160      -164.1706
  23   2.0000      -6.032525      -164.1533
  24   2.0000      -1.007551       -27.4169
  25   2.0000      -0.984448       -26.7882
  26   2.0000      -0.906947       -24.6793
  27   2.0000      -0.902512       -24.5586
  28   2.0000      -0.870276       -23.6814
  29   2.0000      -0.850072       -23.1316
  30   2.0000      -0.843611       -22.9558
  31   2.0000      -0.815728       -22.1971
  32   2.0000      -0.780349       -21.2344
  33   2.0000      -0.767160       -20.8755
  34   2.0000      -0.713207       -19.4074
  35   2.0000      -0.702340       -19.1117
  36   2.0000      -0.693869       -18.8811
  37   2.0000      -0.662825       -18.0364
  38   2.0000      -0.635860       -17.3026
  39   2.0000      -0.630200       -17.1486
  40   2.0000      -0.596004       -16.2181
  41   2.0000      -0.574871       -15.6430
  42   2.0000      -0.559227       -15.2173
  43   2.0000      -0.549749       -14.9594
  44   2.0000      -0.527584       -14.3563
  45   2.0000      -0.522776       -14.2255
  46   2.0000      -0.512224       -13.9383
  47   2.0000      -0.509684       -13.8692
  48   2.0000      -0.505161       -13.7461
  49   2.0000      -0.496950       -13.5227
  50   2.0000      -0.492866       -13.4116
  51   2.0000      -0.487800       -13.2737
  52   2.0000      -0.471958       -12.8426
  53   2.0000      -0.462346       -12.5811
  54   2.0000      -0.455692       -12.4000
  55   2.0000      -0.448669       -12.2089
  56   2.0000      -0.445444       -12.1211
  57   2.0000      -0.442223       -12.0335
  58   2.0000      -0.437263       -11.8985
  59   2.0000      -0.426179       -11.5969
  60   2.0000      -0.422561       -11.4985
  61   2.0000      -0.419327       -11.4105
  62   2.0000      -0.412343       -11.2204
  63   2.0000      -0.350419        -9.5354
  64   2.0000      -0.333603        -9.0778
  65   2.0000      -0.325811        -8.8658
  66   2.0000      -0.285227        -7.7614
  67   0.0000       0.022669         0.6169
  68   0.0000       0.074757         2.0342
  69   0.0000       0.104625         2.8470
  70   0.0000       0.123483         3.3602
  71   0.0000       0.126015         3.4290

MULLIKEN ATOMIC CHARGES
-----------------------
   0 S :    0.105435
   1 C :   -0.081970
   2 C :   -0.129426
   3 C :    0.056942
   4 C :   -0.132755
   5 H :   -0.013596
   6 C :    0.049950
   7 H :    0.022941
   8 H :    0.044420
   9 C :   -0.092641
  10 H :    0.036330
  11 H :    0.036148
  12 C :   -0.046637
  13 H :    0.047940
  14 H :    0.030787
  15 H :    0.020861
  16 S :    0.113340
  17 C :   -0.097381
  18 C :   -0.014909
  19 C :   -0.061339
  20 C :   -0.151121
  21 H :    0.015681
  22 C :    0.096142
  23 H :    0.011320
  24 H :    0.010172
  25 C :   -0.088186
  26 H :    0.029437
  27 H :    0.047853
  28 C :   -0.053619
  29 H :    0.045942
  30 H :    0.029377
  31 H :    0.029959
  32 H :    0.020020
  33 H :    0.062581
Sum of atomic charges:   -0.0000000

LOEWDIN ATOMIC CHARGES
----------------------
   0 S :    0.392963
   1 C :   -0.189638
   2 C :   -0.065374
   3 C :   -0.057618
   4 C :   -0.182346
   5 H :    0.018841
   6 C :   -0.032525
   7 H :    0.034263
   8 H :    0.032742
   9 C :   -0.033505
  10 H :    0.020524
  11 H :    0.020619
  12 C :   -0.067168
  13 H :    0.033272
  14 H :    0.025756
  15 H :    0.020140
  16 S :    0.427516
  17 C :   -0.186027
  18 C :   -0.068126
  19 C :   -0.048644
  20 C :   -0.218565
  21 H :    0.032075
  22 C :   -0.039321
  23 H :    0.032199
  24 H :    0.028172
  25 C :   -0.037213
  26 H :    0.021062
  27 H :    0.031746
  28 C :   -0.063890
  29 H :    0.032906
  30 H :    0.024233
  31 H :    0.016191
  32 H :    0.011820
  33 H :    0.032917

  Mayer bond orders larger than 0.100000
B(  0-S ,  1-C ) :   1.1434 B(  0-S ,  4-C ) :   1.1376 B(  1-C ,  2-C ) :   1.5871
B(  1-C ,  4-C ) :   0.1072 B(  1-C , 32-H ) :   0.9694 B(  2-C ,  3-C ) :   1.2902
B(  2-C ,  6-C ) :   1.0329 B(  3-C ,  4-C ) :   1.5305 B(  3-C ,  5-H ) :   0.9940
B(  4-C , 20-C ) :   1.0690 B(  6-C ,  7-H ) :   0.9414 B(  6-C ,  8-H ) :   0.9369
B(  6-C ,  9-C ) :   1.0497 B(  9-C , 10-H ) :   0.9609 B(  9-C , 11-H ) :   0.9546
B(  9-C , 12-C ) :   1.0855 B( 12-C , 13-H ) :   0.9748 B( 12-C , 14-H ) :   0.9738
B( 12-C , 15-H ) :   0.9760 B( 16-S , 17-C ) :   1.1501 B( 16-S , 20-C ) :   1.1635
B( 17-C , 18-C ) :   1.5998 B( 17-C , 33-H ) :   0.9665 B( 18-C , 19-C ) :   1.2580
B( 18-C , 21-H ) :   0.9927 B( 19-C , 20-C ) :   1.5482 B( 19-C , 22-C ) :   1.0478
B( 22-C , 23-H ) :   0.9259 B( 22-C , 24-H ) :   0.9313 B( 22-C , 25-C ) :   1.0446
B( 25-C , 26-H ) :   0.9604 B( 25-C , 27-H ) :   0.9568 B( 25-C , 28-C ) :   1.0669
B( 28-C , 29-H ) :   0.9775 B( 28-C , 30-H ) :   0.9753 B( 28-C , 31-H ) :   0.9793

Dispersion correction           -0.015236686
FINAL SINGLE POINT ENERGY     -1339.877516593966

DIPOLE MOMENT
-------------
                                X             Y             Z
Electronic contribution:    -28.48790     -12.05917      12.59304
Nuclear contribution   :     29.05420      12.43781     -12.64153
                        -----------------------------------------
Total Dipole Moment    :      0.56629       0.37864      -0.04849
                        -----------------------------------------
Magnitude (a.u.)       :      0.68294
Magnitude (Debye)      :      1.73590

Rotational constants in cm-1:     0.018937     0.009428     0.007029
Rotational constants in MHz :   567.713834   282.636601   210.737493

                             ****ORCA TERMINATED NORMALLY****
TOTAL RUN TIME: 0 days 0 hours 0 minutes 22 seconds 503 msec
