                         Program Version 4.2.1 -  RELEASE  -
|  1> ! wB97X-D3 SP def2-SVP
|  2> %pal
|  3> nprocs 24
|  4> end
|  5>
|  6> * xyz 0 1
|  7> S 	 -64.1992 	 19.685 	 -69.9475
|  8> C 	 -63.3083 	 18.1667 	 -70.0602
|  9> C 	 -64.1363 	 17.1898 	 -69.6191
| 10> C 	 -65.4805 	 17.5696 	 -69.2861
| 11> C 	 -65.6836 	 18.9141 	 -69.4295
| 12> H 	 -66.2081 	 16.8714 	 -68.8374
| 13> C 	 -63.6934 	 15.7487 	 -69.568
| 14> H 	 -64.5685 	 15.083 	 -69.3285
| 15> H 	 -62.9986 	 15.5841 	 -68.723
| 16> C 	 -63.0801 	 15.2666 	 -70.899
| 17> H 	 -63.6757 	 15.6474 	 -71.7236
| 18> H 	 -62.1333 	 15.7732 	 -70.9574
| 19> C 	 -62.7901 	 13.8073 	 -71.1263
| 20> H 	 -62.2191 	 13.6322 	 -72.0847
| 21> H 	 -62.2426 	 13.2464 	 -70.3439
| 22> H 	 -63.7557 	 13.3104 	 -71.1923
| 23> S 	 -66.5723 	 20.9425 	 -67.9356
| 24> C 	 -68.2087 	 21.4783 	 -68.0481
| 25> C 	 -68.9188 	 20.7317 	 -68.9649
| 26> C 	 -68.1055 	 19.7593 	 -69.639
| 27> C 	 -66.8324 	 19.7475 	 -69.1798
| 28> H 	 -69.9943 	 20.7944 	 -69.0796
| 29> C 	 -68.6294 	 18.7875 	 -70.7028
| 30> H 	 -67.8157 	 18.3117 	 -71.1497
| 31> H 	 -69.0513 	 19.473 	 -71.375
| 32> C 	 -69.6707 	 17.7244 	 -70.2471
| 33> H 	 -69.9036 	 17.0889 	 -71.1169
| 34> H 	 -70.5199 	 18.2506 	 -69.9971
| 35> C 	 -69.1307 	 16.7851 	 -69.2008
| 36> H 	 -68.288 	 16.1491 	 -69.4662
| 37> H 	 -69.9198 	 16.1454 	 -68.7726
| 38> H 	 -68.8021 	 17.3586 	 -68.3657
| 39> H 	 -62.2813 	 18.0892 	 -70.1399
| 40> H 	 -68.7062 	 22.1136 	 -67.3848
| 41> *
| 42>
| 43>                          ****END OF INPUT****

CARTESIAN COORDINATES (ANGSTROEM)
---------------------------------
  S    -64.199200   19.685000  -69.947500
  C    -63.308300   18.166700  -70.060200
  C    -64.136300   17.189800  -69.619100
  C    -65.480500   17.569600  -69.286100
  C    -65.683600   18.914100  -69.429500
  H    -66.208100   16.871400  -68.837400
  C    -63.693400   15.748700  -69.568000
  H    -64.568500   15.083000  -69.328500
  H    -62.998600   15.584100  -68.723000
  C    -63.080100   15.266600  -70.899000
  H    -63.675700   15.647400  -71.723600
  H    -62.133300   15.773200  -70.957400
  C    -62.790100   13.807300  -71.126300
  H    -62.219100   13.632200  -72.084700
  H    -62.242600   13.246400  -70.343900
  H    -63.755700   13.310400  -71.192300
  S    -66.572300   20.942500  -67.935600
  C    -68.208700   21.478300  -68.048100
  C    -68.918800   20.731700  -68.964900
  C    -68.105500   19.759300  -69.639000
  C    -66.832400   19.747500  -69.179800
  H    -69.994300   20.794400  -69.079600
  C    -68.629400   18.787500  -70.702800
  H    -67.815700   18.311700  -71.149700
  H    -69.051300   19.473000  -71.375000
  C    -69.670700   17.724400  -70.247100
  H    -69.903600   17.088900  -71.116900
  H    -70.519900   18.250600  -69.997100
  C    -69.130700   16.785100  -69.200800
  H    -68.288000   16.149100  -69.466200
  H    -69.919800   16.145400  -68.772600
  H    -68.802100   17.358600  -68.365700
  H    -62.281300   18.089200  -70.139900
  H    -68.706200   22.113600  -67.384800

 Total Charge           Charge          ....    0
 Multiplicity           Mult            ....    1
 Number of Electrons    NEL             ....  134
 Basis Dimension        Dim             ....  322

ORBITAL ENERGIES
----------------

  NO   OCC          E(Eh)            E(eV)
   0   2.0000     -88.963989     -2420.8332
   1   2.0000     -88.960286     -2420.7324
   2   2.0000     -10.329236      -281.0728
   3   2.0000     -10.319898      -280.8187
   4   2.0000     -10.313286      -280.6388
   5   2.0000     -10.306524      -280.4548
   6   2.0000     -10.300468      -280.2900
   7   2.0000     -10.297189      -280.2008
   8   2.0000     -10.295949      -280.1670
   9   2.0000     -10.294430      -280.1257
  10   2.0000     -10.293889      -280.1110
  11   2.0000     -10.283768      -279.8356
  12   2.0000     -10.281980      -279.7869
  13   2.0000     -10.281849      -279.7833
  14   2.0000     -10.281833      -279.7829
  15   2.0000     -10.274197      -279.5751
  16   2.0000      -8.079518      -219.8549
  17   2.0000      -8.075194      -219.7372
  18   2.0000      -6.038000      -164.3023
  19   2.0000      -6.033886      -164.1904
  20   2.0000      -6.033791      -164.1878
  21   2.0000      -6.030252      -164.0915
  22   2.0000      -6.029590      -164.0735
  23   2.0000      -6.025903      -163.9732
  24   2.0000      -1.013233       -27.5715
  25   2.0000      -0.988581       -26.9007
  26   2.0000      -0.912801       -24.8386
  27   2.0000      -0.911980       -24.8162
  28   2.0000      -0.873826       -23.7780
  29   2.0000      -0.853346       -23.2207
  30   2.0000      -0.844973       -22.9929
  31   2.0000      -0.820953       -22.3393
  32   2.0000      -0.786591       -21.4042
  33   2.0000      -0.772759       -21.0278
  34   2.0000      -0.712364       -19.3844
  35   2.0000      -0.705919       -19.2090
  36   2.0000      -0.696055       -18.9406
  37   2.0000      -0.665413       -18.1068
  38   2.0000      -0.645585       -17.5673
  39   2.0000      -0.617092       -16.7919
  40   2.0000      -0.598046       -16.2737
  41   2.0000      -0.570106       -15.5134
  42   2.0000      -0.563846       -15.3430
  43   2.0000      -0.557439       -15.1687
  44   2.0000      -0.548890       -14.9361
  45   2.0000      -0.524880       -14.2827
  46   2.0000      -0.523337       -14.2407
  47   2.0000      -0.515886       -14.0380
  48   2.0000      -0.510071       -13.8797
  49   2.0000      -0.502500       -13.6737
  50   2.0000      -0.495009       -13.4699
  51   2.0000      -0.483048       -13.1444
  52   2.0000      -0.471515       -12.8306
  53   2.0000      -0.466921       -12.7056
  54   2.0000      -0.458378       -12.4731
  55   2.0000      -0.451617       -12.2891
  56   2.0000      -0.447873       -12.1873
  57   2.0000      -0.439150       -11.9499
  58   2.0000      -0.429242       -11.6803
  59   2.0000      -0.428352       -11.6560
  60   2.0000      -0.415449       -11.3049
  61   2.0000      -0.412372       -11.2212
  62   2.0000      -0.408381       -11.1126
  63   2.0000      -0.344586        -9.3767
  64   2.0000      -0.332798        -9.0559
  65   2.0000      -0.326415        -8.8822
  66   2.0000      -0.303174        -8.2498
  67   0.0000       0.037038         1.0079
  68   0.0000       0.065098         1.7714
  69   0.0000       0.116298         3.1646
  70   0.0000       0.127803         3.4777
  71   0.0000       0.131585         3.5806

MULLIKEN ATOMIC CHARGES
-----------------------
   0 S :    0.095592
   1 C :   -0.094382
   2 C :   -0.099526
   3 C :    0.041672
   4 C :   -0.149001
   5 H :    0.016699
   6 C :    0.050078
   7 H :    0.014678
   8 H :    0.039904
   9 C :   -0.084040
  10 H :    0.035831
  11 H :    0.017787
  12 C :   -0.055529
  13 H :    0.045675
  14 H :    0.031732
  15 H :    0.025720
  16 S :    0.116095
  17 C :   -0.049317
  18 C :   -0.057280
  19 C :   -0.051817
  20 C :   -0.178577
  21 H :    0.018189
  22 C :    0.121029
  23 H :    0.009236
  24 H :    0.017020
  25 C :   -0.027832
  26 H :    0.033133
  27 H :    0.009219
  28 C :   -0.059588
  29 H :    0.035528
  30 H :    0.033408
  31 H :    0.030309
  32 H :    0.031535
  33 H :    0.036820
Sum of atomic charges:   -0.0000000

LOEWDIN ATOMIC CHARGES
----------------------
   0 S :    0.397606
   1 C :   -0.182440
   2 C :   -0.063497
   3 C :   -0.069942
   4 C :   -0.187023
   5 H :    0.036956
   6 C :   -0.035938
   7 H :    0.026249
   8 H :    0.033201
   9 C :   -0.046426
  10 H :    0.028358
  11 H :    0.017992
  12 C :   -0.072664
  13 H :    0.036364
  14 H :    0.025818
  15 H :    0.022568
  16 S :    0.420700
  17 C :   -0.179860
  18 C :   -0.071588
  19 C :   -0.052887
  20 C :   -0.207265
  21 H :    0.029852
  22 C :   -0.015070
  23 H :    0.021586
  24 H :    0.027448
  25 C :   -0.027657
  26 H :    0.030469
  27 H :    0.011850
  28 C :   -0.068032
  29 H :    0.024082
  30 H :    0.030841
  31 H :    0.021097
  32 H :    0.017337
  33 H :    0.019914

  Mayer bond orders larger than 0.100000
B(  0-S ,  1-C ) :   1.1164 B(  0-S ,  4-C ) :   1.1649 B(  1-C ,  2-C ) :   1.6210
B(  1-C , 32-H ) :   0.9823 B(  2-C ,  3-C ) :   1.2367 B(  2-C ,  6-C ) :   1.0253
B(  3-C ,  4-C ) :   1.5786 B(  3-C ,  5-H ) :   0.9898 B(  4-C , 20-C ) :   1.0022
B(  6-C ,  7-H ) :   0.9480 B(  6-C ,  8-H ) :   0.9317 B(  6-C ,  9-C ) :   1.0612
B(  9-C , 10-H ) :   0.9587 B(  9-C , 11-H ) :   0.9479 B(  9-C , 12-C ) :   1.0918
B( 12-C , 13-H ) :   0.9716 B( 12-C , 14-H ) :   0.9733 B( 12-C , 15-H ) :   0.9731
B( 16-S , 17-C ) :   1.1567 B( 16-S , 20-C ) :   1.1443 B( 17-C , 18-C ) :   1.6160
B( 17-C , 33-H ) :   0.9724 B( 18-C , 19-C ) :   1.2221 B( 18-C , 21-H ) :   0.9891
B( 19-C , 20-C ) :   1.6311 B( 19-C , 22-C ) :   1.0304 B( 22-C , 23-H ) :   0.9323
B( 22-C , 24-H ) :   0.9283 B( 22-C , 25-C ) :   1.0783 B( 25-C , 26-H ) :   0.9539
B( 25-C , 27-H ) :   0.9563 B( 25-C , 28-C ) :   1.0807 B( 28-C , 29-H ) :   0.9696
B( 28-C , 30-H ) :   0.9673 B( 28-C , 31-H ) :   0.9723

Dispersion correction           -0.014826547
FINAL SINGLE POINT ENERGY     -1339.883290518174

DIPOLE MOMENT
-------------
                                X             Y             Z
Electronic contribution:      3.79023      27.62363       7.93852
Nuclear contribution   :     -4.14638     -28.18974      -7.90809
                        -----------------------------------------
Total Dipole Moment    :     -0.35616      -0.56611       0.03042
                        -----------------------------------------
Magnitude (a.u.)       :      0.66952
Magnitude (Debye)      :      1.70178

Rotational constants in cm-1:     0.021625     0.008353     0.006538
Rotational constants in MHz :   648.287533   250.419577   195.996673

                             ****ORCA TERMINATED NORMALLY****
TOTAL RUN TIME: 0 days 0 hours 0 minutes 22 seconds 142 msec
