                         Program Version 4.2.1 -  RELEASE  -
|  1> ! wB97X-D3 SP def2-SVP
|  2> %pal
|  3> nprocs 24
|  4> end
|  5>
|  6> * xyz 0 1
|  7> S 	 -49.8368 	 -53.1613 	 -79.1329
|  8> C 	 -51.159 	 -52.3716 	 -78.315
|  9> C 	 -50.9775 	 -50.9918 	 -78.3682
| 10> C 	 -49.7483 	 -50.5605 	 -78.9785
| 11> C 	 -48.9816 	 -51.6326 	 -79.4896
| 12> H 	 -49.3461 	 -49.5319 	 -79.0435
| 13> C 	 -52.0164 	 -50.1214 	 -77.7697
| 14> H 	 -51.908 	 -49.0284 	 -77.8711
| 15> H 	 -52.0217 	 -50.2245 	 -76.6628
| 16> C 	 -53.4456 	 -50.3388 	 -78.4245
| 17> H 	 -53.4452 	 -50.3224 	 -79.5169
| 18> H 	 -53.7024 	 -51.4041 	 -78.2599
| 19> C 	 -54.521 	 -49.4045 	 -77.8181
| 20> H 	 -54.3501 	 -48.3401 	 -78.2134
| 21> H 	 -55.6127 	 -49.6436 	 -78.0355
| 22> H 	 -54.3534 	 -49.4103 	 -76.7056
| 23> S 	 -46.2503 	 -52.0374 	 -79.5119
| 24> C 	 -45.2901 	 -51.3055 	 -80.7472
| 25> C 	 -46.0855 	 -50.6593 	 -81.652
| 26> C 	 -47.493 	 -50.7633 	 -81.4086
| 27> C 	 -47.7391 	 -51.505 	 -80.2646
| 28> H 	 -45.6934 	 -50.1414 	 -82.4793
| 29> C 	 -48.5868 	 -50.1884 	 -82.2979
| 30> H 	 -49.5013 	 -50.6516 	 -82.1175
| 31> H 	 -48.3169 	 -50.2818 	 -83.2927
| 32> C 	 -48.9434 	 -48.7043 	 -82.0681
| 33> H 	 -49.0443 	 -48.4589 	 -81.0258
| 34> H 	 -49.8754 	 -48.4037 	 -82.5778
| 35> C 	 -47.7992 	 -47.7483 	 -82.4917
| 36> H 	 -47.788 	 -47.8975 	 -83.5832
| 37> H 	 -46.8884 	 -48.0268 	 -81.9898
| 38> H 	 -47.9591 	 -46.7007 	 -82.3569
| 39> H 	 -51.9964 	 -52.8366 	 -77.7954
| 40> H 	 -44.2284 	 -51.3766 	 -80.6483
| 41> *
| 42>
| 43>                          ****END OF INPUT****

CARTESIAN COORDINATES (ANGSTROEM)
---------------------------------
  S    -49.836800  -53.161300  -79.132900
  C    -51.159000  -52.371600  -78.315000
  C    -50.977500  -50.991800  -78.368200
  C    -49.748300  -50.560500  -78.978500
  C    -48.981600  -51.632600  -79.489600
  H    -49.346100  -49.531900  -79.043500
  C    -52.016400  -50.121400  -77.769700
  H    -51.908000  -49.028400  -77.871100
  H    -52.021700  -50.224500  -76.662800
  C    -53.445600  -50.338800  -78.424500
  H    -53.445200  -50.322400  -79.516900
  H    -53.702400  -51.404100  -78.259900
  C    -54.521000  -49.404500  -77.818100
  H    -54.350100  -48.340100  -78.213400
  H    -55.612700  -49.643600  -78.035500
  H    -54.353400  -49.410300  -76.705600
  S    -46.250300  -52.037400  -79.511900
  C    -45.290100  -51.305500  -80.747200
  C    -46.085500  -50.659300  -81.652000
  C    -47.493000  -50.763300  -81.408600
  C    -47.739100  -51.505000  -80.264600
  H    -45.693400  -50.141400  -82.479300
  C    -48.586800  -50.188400  -82.297900
  H    -49.501300  -50.651600  -82.117500
  H    -48.316900  -50.281800  -83.292700
  C    -48.943400  -48.704300  -82.068100
  H    -49.044300  -48.458900  -81.025800
  H    -49.875400  -48.403700  -82.577800
  C    -47.799200  -47.748300  -82.491700
  H    -47.788000  -47.897500  -83.583200
  H    -46.888400  -48.026800  -81.989800
  H    -47.959100  -46.700700  -82.356900
  H    -51.996400  -52.836600  -77.795400
  H    -44.228400  -51.376600  -80.648300

 Total Charge           Charge          ....    0
 Multiplicity           Mult            ....    1
 Number of Electrons    NEL             ....  134
 Basis Dimension        Dim             ....  322

ORBITAL ENERGIES
----------------

  NO   OCC          E(Eh)            E(eV)
   0   2.0000     -88.967761     -2420.9358
   1   2.0000     -88.963187     -2420.8114
   2   2.0000     -10.335393      -281.2403
   3   2.0000     -10.326876      -281.0086
   4   2.0000     -10.317981      -280.7665
   5   2.0000     -10.316517      -280.7267
   6   2.0000     -10.306557      -280.4557
   7   2.0000     -10.303088      -280.3613
   8   2.0000     -10.302580      -280.3475
   9   2.0000     -10.296207      -280.1740
  10   2.0000     -10.295319      -280.1499
  11   2.0000     -10.293140      -280.0906
  12   2.0000     -10.293111      -280.0898
  13   2.0000     -10.285089      -279.8715
  14   2.0000     -10.283683      -279.8332
  15   2.0000     -10.272263      -279.5225
  16   2.0000      -8.081592      -219.9113
  17   2.0000      -8.078856      -219.8369
  18   2.0000      -6.040131      -164.3603
  19   2.0000      -6.037220      -164.2811
  20   2.0000      -6.036033      -164.2488
  21   2.0000      -6.033138      -164.1700
  22   2.0000      -6.032561      -164.1543
  23   2.0000      -6.029796      -164.0791
  24   2.0000      -1.005847       -27.3705
  25   2.0000      -0.983346       -26.7582
  26   2.0000      -0.912519       -24.8309
  27   2.0000      -0.906067       -24.6553
  28   2.0000      -0.867506       -23.6060
  29   2.0000      -0.849278       -23.1100
  30   2.0000      -0.843249       -22.9460
  31   2.0000      -0.814956       -22.1761
  32   2.0000      -0.787045       -21.4166
  33   2.0000      -0.764093       -20.7920
  34   2.0000      -0.706836       -19.2340
  35   2.0000      -0.699233       -19.0271
  36   2.0000      -0.691604       -18.8195
  37   2.0000      -0.668392       -18.1879
  38   2.0000      -0.641450       -17.4547
  39   2.0000      -0.612502       -16.6670
  40   2.0000      -0.604569       -16.4512
  41   2.0000      -0.574387       -15.6299
  42   2.0000      -0.562301       -15.3010
  43   2.0000      -0.550842       -14.9892
  44   2.0000      -0.548478       -14.9249
  45   2.0000      -0.522838       -14.2272
  46   2.0000      -0.517181       -14.0732
  47   2.0000      -0.511490       -13.9184
  48   2.0000      -0.502727       -13.6799
  49   2.0000      -0.498925       -13.5764
  50   2.0000      -0.494807       -13.4644
  51   2.0000      -0.488131       -13.2827
  52   2.0000      -0.474476       -12.9111
  53   2.0000      -0.460718       -12.5368
  54   2.0000      -0.455629       -12.3983
  55   2.0000      -0.446555       -12.1514
  56   2.0000      -0.443140       -12.0585
  57   2.0000      -0.436213       -11.8700
  58   2.0000      -0.435253       -11.8438
  59   2.0000      -0.426024       -11.5927
  60   2.0000      -0.423242       -11.5170
  61   2.0000      -0.410577       -11.1724
  62   2.0000      -0.404362       -11.0032
  63   2.0000      -0.341448        -9.2913
  64   2.0000      -0.329798        -8.9743
  65   2.0000      -0.328583        -8.9412
  66   2.0000      -0.301637        -8.2080
  67   0.0000       0.032020         0.8713
  68   0.0000       0.061341         1.6692
  69   0.0000       0.123837         3.3698
  70   0.0000       0.124799         3.3960
  71   0.0000       0.125837         3.4242

MULLIKEN ATOMIC CHARGES
-----------------------
   0 S :    0.115822
   1 C :   -0.126680
   2 C :   -0.072845
   3 C :    0.046676
   4 C :   -0.176417
   5 H :    0.034846
   6 C :    0.020324
   7 H :    0.017929
   8 H :    0.046805
   9 C :   -0.090014
  10 H :    0.036755
  11 H :    0.018215
  12 C :   -0.096260
  13 H :    0.045438
  14 H :    0.055082
  15 H :    0.040919
  16 S :    0.105380
  17 C :   -0.085948
  18 C :   -0.008748
  19 C :   -0.051052
  20 C :   -0.173046
  21 H :    0.003339
  22 C :    0.166774
  23 H :    0.018425
  24 H :    0.004399
  25 C :   -0.086272
  26 H :    0.012097
  27 H :    0.035090
  28 C :   -0.068285
  29 H :    0.020992
  30 H :    0.037541
  31 H :    0.030687
  32 H :    0.064269
  33 H :    0.057764
Sum of atomic charges:   -0.0000000

LOEWDIN ATOMIC CHARGES
----------------------
   0 S :    0.401102
   1 C :   -0.200218
   2 C :   -0.070394
   3 C :   -0.057380
   4 C :   -0.193213
   5 H :    0.038129
   6 C :   -0.041725
   7 H :    0.028095
   8 H :    0.036506
   9 C :   -0.044545
  10 H :    0.025643
  11 H :    0.017548
  12 C :   -0.082806
  13 H :    0.031456
  14 H :    0.034554
  15 H :    0.029473
  16 S :    0.417381
  17 C :   -0.178783
  18 C :   -0.070076
  19 C :   -0.045366
  20 C :   -0.204307
  21 H :    0.023154
  22 C :   -0.012818
  23 H :    0.029375
  24 H :    0.022087
  25 C :   -0.032942
  26 H :    0.014764
  27 H :    0.025990
  28 C :   -0.067893
  29 H :    0.023165
  30 H :    0.022172
  31 H :    0.020798
  32 H :    0.035114
  33 H :    0.025961

  Mayer bond orders larger than 0.100000
B(  0-S ,  1-C ) :   1.1461 B(  0-S ,  4-C ) :   1.1561 B(  1-C ,  2-C ) :   1.5734
B(  1-C ,  4-C ) :   0.1029 B(  1-C , 32-H ) :   0.9695 B(  2-C ,  3-C ) :   1.2602
B(  2-C ,  6-C ) :   1.0306 B(  3-C ,  4-C ) :   1.5482 B(  3-C ,  5-H ) :   0.9872
B(  4-C , 20-C ) :   1.0116 B(  6-C ,  7-H ) :   0.9531 B(  6-C ,  8-H ) :   0.9380
B(  6-C ,  9-C ) :   1.0361 B(  9-C , 10-H ) :   0.9608 B(  9-C , 11-H ) :   0.9566
B(  9-C , 12-C ) :   1.0680 B( 12-C , 13-H ) :   0.9739 B( 12-C , 14-H ) :   0.9741
B( 12-C , 15-H ) :   0.9736 B( 16-S , 17-C ) :   1.1727 B( 16-S , 20-C ) :   1.1584
B( 17-C , 18-C ) :   1.5691 B( 17-C , 33-H ) :   0.9770 B( 18-C , 19-C ) :   1.2467
B( 18-C , 21-H ) :   0.9982 B( 19-C , 20-C ) :   1.5966 B( 19-C , 22-C ) :   1.0453
B( 22-C , 23-H ) :   0.9213 B( 22-C , 24-H ) :   0.9344 B( 22-C , 25-C ) :   1.0654
B( 25-C , 26-H ) :   0.9545 B( 25-C , 27-H ) :   0.9590 B( 25-C , 28-C ) :   1.0688
B( 28-C , 29-H ) :   0.9790 B( 28-C , 30-H ) :   0.9742 B( 28-C , 31-H ) :   0.9751

Dispersion correction           -0.014626060
FINAL SINGLE POINT ENERGY     -1339.879855565438

DIPOLE MOMENT
-------------
                                X             Y             Z
Electronic contribution:     19.36448     -22.22655       4.64463
Nuclear contribution   :    -19.61642      22.80387      -4.77703
                        -----------------------------------------
Total Dipole Moment    :     -0.25194       0.57732      -0.13240
                        -----------------------------------------
Magnitude (a.u.)       :      0.64367
Magnitude (Debye)      :      1.63607

Rotational constants in cm-1:     0.020270     0.008229     0.006359
Rotational constants in MHz :   607.664628   246.695677   190.647161

                             ****ORCA TERMINATED NORMALLY****
TOTAL RUN TIME: 0 days 0 hours 0 minutes 21 seconds 751 msec
