                         Program Version 4.2.1 -  RELEASE  -
|  1> ! wB97X-D3 SP def2-SVP
|  2> %pal
|  3> nprocs 24
|  4> end
|  5>
|  6> * xyz 0 1
|  7> S 	 -66.0683 	 8.41554 	 -103.299
|  8> C 	 -65.4424 	 7.77014 	 -101.695
|  9> C 	 -66.4262 	 7.60688 	 -100.738
| 10> C 	 -67.7162 	 8.0921 	 -101.178
| 11> C 	 -67.6329 	 8.5773 	 -102.491
| 12> H 	 -68.6798 	 8.12566 	 -100.742
| 13> C 	 -66.2087 	 6.82794 	 -99.4645
| 14> H 	 -65.285 	 7.10203 	 -99.0911
| 15> H 	 -66.0555 	 5.84049 	 -99.7931
| 16> C 	 -67.398 	 6.72083 	 -98.399
| 17> H 	 -68.3256 	 6.51906 	 -98.8468
| 18> H 	 -67.3181 	 5.80407 	 -97.8911
| 19> C 	 -67.6444 	 7.80882 	 -97.3549
| 20> H 	 -66.6825 	 8.10881 	 -96.9699
| 21> H 	 -67.8943 	 8.74363 	 -97.8375
| 22> H 	 -68.5411 	 7.67753 	 -96.7284
| 23> S 	 -68.7516 	 10.5805 	 -104.097
| 24> C 	 -70.4755 	 10.6174 	 -104.264
| 25> C 	 -71.0759 	 9.68706 	 -103.432
| 26> C 	 -70.1561 	 8.79396 	 -102.84
| 27> C 	 -68.8606 	 9.10315 	 -103.102
| 28> H 	 -72.1507 	 9.69047 	 -103.362
| 29> C 	 -70.7527 	 7.71421 	 -101.98
| 30> H 	 -69.9543 	 6.9374 	 -101.862
| 31> H 	 -71.5554 	 7.2508 	 -102.466
| 32> C 	 -71.3908 	 8.13611 	 -100.593
| 33> H 	 -72.3184 	 8.63527 	 -100.675
| 34> H 	 -70.6949 	 8.82296 	 -100.12
| 35> C 	 -71.7893 	 6.99321 	 -99.6256
| 36> H 	 -72.6305 	 7.28128 	 -99.0663
| 37> H 	 -70.9294 	 6.7508 	 -98.9704
| 38> H 	 -71.9456 	 6.01268 	 -100.005
| 39> H 	 -64.4144 	 7.49076 	 -101.505
| 40> H 	 -70.9666 	 11.4111 	 -104.839
| 41> *
| 42>
| 43>                          ****END OF INPUT****

CARTESIAN COORDINATES (ANGSTROEM)
---------------------------------
  S    -66.068300    8.415540  -103.299000
  C    -65.442400    7.770140  -101.695000
  C    -66.426200    7.606880  -100.738000
  C    -67.716200    8.092100  -101.178000
  C    -67.632900    8.577300  -102.491000
  H    -68.679800    8.125660  -100.742000
  C    -66.208700    6.827940  -99.464500
  H    -65.285000    7.102030  -99.091100
  H    -66.055500    5.840490  -99.793100
  C    -67.398000    6.720830  -98.399000
  H    -68.325600    6.519060  -98.846800
  H    -67.318100    5.804070  -97.891100
  C    -67.644400    7.808820  -97.354900
  H    -66.682500    8.108810  -96.969900
  H    -67.894300    8.743630  -97.837500
  H    -68.541100    7.677530  -96.728400
  S    -68.751600   10.580500  -104.097000
  C    -70.475500   10.617400  -104.264000
  C    -71.075900    9.687060  -103.432000
  C    -70.156100    8.793960  -102.840000
  C    -68.860600    9.103150  -103.102000
  H    -72.150700    9.690470  -103.362000
  C    -70.752700    7.714210  -101.980000
  H    -69.954300    6.937400  -101.862000
  H    -71.555400    7.250800  -102.466000
  C    -71.390800    8.136110  -100.593000
  H    -72.318400    8.635270  -100.675000
  H    -70.694900    8.822960  -100.120000
  C    -71.789300    6.993210  -99.625600
  H    -72.630500    7.281280  -99.066300
  H    -70.929400    6.750800  -98.970400
  H    -71.945600    6.012680  -100.005000
  H    -64.414400    7.490760  -101.505000
  H    -70.966600   11.411100  -104.839000

 Total Charge           Charge          ....    0
 Multiplicity           Mult            ....    1
 Number of Electrons    NEL             ....  134
 Basis Dimension        Dim             ....  322

ORBITAL ENERGIES
----------------

  NO   OCC          E(Eh)            E(eV)
   0   2.0000     -88.972844     -2421.0742
   1   2.0000     -88.962263     -2420.7863
   2   2.0000     -10.331893      -281.1451
   3   2.0000     -10.325573      -280.9731
   4   2.0000     -10.316308      -280.7210
   5   2.0000     -10.316298      -280.7207
   6   2.0000     -10.306680      -280.4590
   7   2.0000     -10.297821      -280.2180
   8   2.0000     -10.293574      -280.1024
   9   2.0000     -10.293074      -280.0888
  10   2.0000     -10.291963      -280.0586
  11   2.0000     -10.291811      -280.0544
  12   2.0000     -10.290116      -280.0083
  13   2.0000     -10.285612      -279.8857
  14   2.0000     -10.278277      -279.6861
  15   2.0000     -10.277217      -279.6573
  16   2.0000      -8.085490      -220.0174
  17   2.0000      -8.077165      -219.7908
  18   2.0000      -6.044146      -164.4696
  19   2.0000      -6.040633      -164.3740
  20   2.0000      -6.035882      -164.2447
  21   2.0000      -6.035606      -164.2372
  22   2.0000      -6.031758      -164.1325
  23   2.0000      -6.027890      -164.0272
  24   2.0000      -1.003977       -27.3196
  25   2.0000      -0.976279       -26.5659
  26   2.0000      -0.908951       -24.7338
  27   2.0000      -0.907666       -24.6988
  28   2.0000      -0.868941       -23.6451
  29   2.0000      -0.858542       -23.3621
  30   2.0000      -0.846096       -23.0234
  31   2.0000      -0.813435       -22.1347
  32   2.0000      -0.788680       -21.4611
  33   2.0000      -0.777239       -21.1497
  34   2.0000      -0.718146       -19.5417
  35   2.0000      -0.709179       -19.2977
  36   2.0000      -0.693878       -18.8814
  37   2.0000      -0.665976       -18.1221
  38   2.0000      -0.638011       -17.3611
  39   2.0000      -0.618846       -16.8396
  40   2.0000      -0.596863       -16.2415
  41   2.0000      -0.571644       -15.5552
  42   2.0000      -0.563574       -15.3356
  43   2.0000      -0.553462       -15.0605
  44   2.0000      -0.535509       -14.5719
  45   2.0000      -0.530672       -14.4403
  46   2.0000      -0.523030       -14.2324
  47   2.0000      -0.510482       -13.8909
  48   2.0000      -0.509779       -13.8718
  49   2.0000      -0.495117       -13.4728
  50   2.0000      -0.487637       -13.2693
  51   2.0000      -0.483124       -13.1465
  52   2.0000      -0.473157       -12.8752
  53   2.0000      -0.465252       -12.6602
  54   2.0000      -0.458167       -12.4673
  55   2.0000      -0.451099       -12.2750
  56   2.0000      -0.447525       -12.1778
  57   2.0000      -0.440308       -11.9814
  58   2.0000      -0.439141       -11.9496
  59   2.0000      -0.433720       -11.8021
  60   2.0000      -0.424923       -11.5628
  61   2.0000      -0.414015       -11.2659
  62   2.0000      -0.408324       -11.1111
  63   2.0000      -0.347393        -9.4531
  64   2.0000      -0.332545        -9.0490
  65   2.0000      -0.330512        -8.9937
  66   2.0000      -0.285114        -7.7584
  67   0.0000       0.023773         0.6469
  68   0.0000       0.077408         2.1064
  69   0.0000       0.094141         2.5617
  70   0.0000       0.116645         3.1741
  71   0.0000       0.117384         3.1942

MULLIKEN ATOMIC CHARGES
-----------------------
   0 S :    0.112876
   1 C :   -0.136657
   2 C :   -0.047305
   3 C :    0.014931
   4 C :   -0.121366
   5 H :   -0.030675
   6 C :    0.106720
   7 H :    0.006371
   8 H :    0.031019
   9 C :   -0.036590
  10 H :   -0.009082
  11 H :    0.007553
  12 C :   -0.019531
  13 H :    0.023496
  14 H :    0.008420
  15 H :    0.047110
  16 S :    0.092038
  17 C :   -0.101815
  18 C :   -0.034901
  19 C :   -0.034332
  20 C :   -0.130428
  21 H :    0.015508
  22 C :    0.049086
  23 H :    0.039661
  24 H :    0.011956
  25 C :   -0.071694
  26 H :    0.019683
  27 H :    0.037797
  28 C :   -0.030125
  29 H :    0.030670
  30 H :    0.024325
  31 H :    0.019844
  32 H :    0.039237
  33 H :    0.066197
Sum of atomic charges:    0.0000000

LOEWDIN ATOMIC CHARGES
----------------------
   0 S :    0.364712
   1 C :   -0.182253
   2 C :   -0.047050
   3 C :   -0.058664
   4 C :   -0.175112
   5 H :    0.026428
   6 C :   -0.017325
   7 H :    0.022428
   8 H :    0.038016
   9 C :   -0.037843
  10 H :    0.015442
  11 H :    0.021777
  12 C :   -0.072016
  13 H :    0.026075
  14 H :    0.023004
  15 H :    0.035751
  16 S :    0.390916
  17 C :   -0.186317
  18 C :   -0.067993
  19 C :   -0.066128
  20 C :   -0.182592
  21 H :    0.030174
  22 C :   -0.032546
  23 H :    0.034072
  24 H :    0.023631
  25 C :   -0.034618
  26 H :    0.020334
  27 H :    0.021643
  28 C :   -0.063186
  29 H :    0.022282
  30 H :    0.028009
  31 H :    0.022924
  32 H :    0.024386
  33 H :    0.031639

  Mayer bond orders larger than 0.100000
B(  0-S ,  1-C ) :   1.0928 B(  0-S ,  4-C ) :   1.1376 B(  1-C ,  2-C ) :   1.6575
B(  1-C , 32-H ) :   0.9700 B(  2-C ,  3-C ) :   1.1880 B(  2-C ,  6-C ) :   1.0026
B(  3-C ,  4-C ) :   1.5863 B(  3-C ,  5-H ) :   0.9951 B(  4-C , 20-C ) :   1.0534
B(  6-C ,  7-H ) :   0.9356 B(  6-C ,  8-H ) :   0.9324 B(  6-C ,  9-C ) :   1.0744
B(  9-C , 10-H ) :   0.9420 B(  9-C , 11-H ) :   0.9480 B(  9-C , 12-C ) :   1.0837
B( 12-C , 13-H ) :   0.9707 B( 12-C , 14-H ) :   0.9700 B( 12-C , 15-H ) :   0.9700
B( 16-S , 17-C ) :   1.1592 B( 16-S , 20-C ) :   1.1224 B( 17-C , 18-C ) :   1.6019
B( 17-C , 33-H ) :   0.9665 B( 18-C , 19-C ) :   1.2278 B( 18-C , 21-H ) :   0.9981
B( 19-C , 20-C ) :   1.6141 B( 19-C , 22-C ) :   1.0479 B( 22-C , 23-H ) :   0.9402
B( 22-C , 24-H ) :   0.9229 B( 22-C , 25-C ) :   1.0502 B( 25-C , 26-H ) :   0.9581
B( 25-C , 27-H ) :   0.9587 B( 25-C , 28-C ) :   1.0691 B( 28-C , 29-H ) :   0.9791
B( 28-C , 30-H ) :   0.9737 B( 28-C , 31-H ) :   0.9731

Dispersion correction           -0.015271381
FINAL SINGLE POINT ENERGY     -1339.842111809021

DIPOLE MOMENT
-------------
                                X             Y             Z
Electronic contribution:     12.67733      13.18446     -28.70681
Nuclear contribution   :    -13.16941     -13.56320      29.32772
                        -----------------------------------------
Total Dipole Moment    :     -0.49209      -0.37875       0.62091
                        -----------------------------------------
Magnitude (a.u.)       :      0.87814
Magnitude (Debye)      :      2.23204

Rotational constants in cm-1:     0.015828     0.011064     0.007074
Rotational constants in MHz :   474.509155   331.694965   212.070486

                             ****ORCA TERMINATED NORMALLY****
TOTAL RUN TIME: 0 days 0 hours 0 minutes 21 seconds 714 msec
