                         Program Version 4.2.1 -  RELEASE  -
|  1> ! wB97X-D3 SP def2-SVP
|  2> %pal
|  3> nprocs 24
|  4> end
|  5>
|  6> * xyz 0 1
|  7> S 	 -146.149 	 28.0395 	 -13.6005
|  8> C 	 -147.203 	 27.8002 	 -14.9728
|  9> C 	 -147.169 	 28.9556 	 -15.8058
| 10> C 	 -146.353 	 29.9873 	 -15.3207
| 11> C 	 -145.886 	 29.7061 	 -14.0326
| 12> H 	 -146.225 	 30.9128 	 -15.8173
| 13> C 	 -147.712 	 29.0567 	 -17.2736
| 14> H 	 -147.756 	 28.0113 	 -17.6724
| 15> H 	 -146.971 	 29.6097 	 -17.8955
| 16> C 	 -148.965 	 29.9225 	 -17.4793
| 17> H 	 -149.876 	 29.4652 	 -17.0886
| 18> H 	 -148.762 	 30.8065 	 -16.8889
| 19> C 	 -149.189 	 30.2674 	 -18.9198
| 20> H 	 -148.295 	 30.8088 	 -19.2275
| 21> H 	 -149.393 	 29.3719 	 -19.5283
| 22> H 	 -150.01 	 30.9462 	 -19.1356
| 23> S 	 -144.652 	 29.7269 	 -11.6259
| 24> C 	 -144.229 	 31.2141 	 -10.8489
| 25> C 	 -144.458 	 32.3032 	 -11.6685
| 26> C 	 -144.981 	 31.9416 	 -12.9234
| 27> C 	 -145.178 	 30.5723 	 -13.0751
| 28> H 	 -144.263 	 33.2806 	 -11.3086
| 29> C 	 -145.34 	 32.9771 	 -13.9867
| 30> H 	 -145.505 	 33.9568 	 -13.4237
| 31> H 	 -146.43 	 32.8149 	 -14.2999
| 32> C 	 -144.447 	 33.262 	 -15.2143
| 33> H 	 -145.024 	 33.9219 	 -15.9316
| 34> H 	 -144.151 	 32.3358 	 -15.6776
| 35> C 	 -143.164 	 33.9391 	 -14.7247
| 36> H 	 -142.557 	 34.1111 	 -15.5478
| 37> H 	 -142.582 	 33.4648 	 -13.9736
| 38> H 	 -143.531 	 34.8768 	 -14.2045
| 39> H 	 -147.684 	 26.872 	 -15.2913
| 40> H 	 -143.811 	 31.2475 	 -9.78976
| 41> *
| 42>
| 43>                          ****END OF INPUT****

CARTESIAN COORDINATES (ANGSTROEM)
---------------------------------
  S    -146.149000   28.039500  -13.600500
  C    -147.203000   27.800200  -14.972800
  C    -147.169000   28.955600  -15.805800
  C    -146.353000   29.987300  -15.320700
  C    -145.886000   29.706100  -14.032600
  H    -146.225000   30.912800  -15.817300
  C    -147.712000   29.056700  -17.273600
  H    -147.756000   28.011300  -17.672400
  H    -146.971000   29.609700  -17.895500
  C    -148.965000   29.922500  -17.479300
  H    -149.876000   29.465200  -17.088600
  H    -148.762000   30.806500  -16.888900
  C    -149.189000   30.267400  -18.919800
  H    -148.295000   30.808800  -19.227500
  H    -149.393000   29.371900  -19.528300
  H    -150.010000   30.946200  -19.135600
  S    -144.652000   29.726900  -11.625900
  C    -144.229000   31.214100  -10.848900
  C    -144.458000   32.303200  -11.668500
  C    -144.981000   31.941600  -12.923400
  C    -145.178000   30.572300  -13.075100
  H    -144.263000   33.280600  -11.308600
  C    -145.340000   32.977100  -13.986700
  H    -145.505000   33.956800  -13.423700
  H    -146.430000   32.814900  -14.299900
  C    -144.447000   33.262000  -15.214300
  H    -145.024000   33.921900  -15.931600
  H    -144.151000   32.335800  -15.677600
  C    -143.164000   33.939100  -14.724700
  H    -142.557000   34.111100  -15.547800
  H    -142.582000   33.464800  -13.973600
  H    -143.531000   34.876800  -14.204500
  H    -147.684000   26.872000  -15.291300
  H    -143.811000   31.247500   -9.789760

 Total Charge           Charge          ....    0
 Multiplicity           Mult            ....    1
 Number of Electrons    NEL             ....  134
 Basis Dimension        Dim             ....  322

ORBITAL ENERGIES
----------------

  NO   OCC          E(Eh)            E(eV)
   0   2.0000     -88.971318     -2421.0327
   1   2.0000     -88.965637     -2420.8780
   2   2.0000     -10.335407      -281.2407
   3   2.0000     -10.330349      -281.1031
   4   2.0000     -10.322567      -280.8913
   5   2.0000     -10.318240      -280.7736
   6   2.0000     -10.306712      -280.4599
   7   2.0000     -10.304249      -280.3929
   8   2.0000     -10.302174      -280.3364
   9   2.0000     -10.299332      -280.2591
  10   2.0000     -10.294633      -280.1312
  11   2.0000     -10.292934      -280.0850
  12   2.0000     -10.291275      -280.0398
  13   2.0000     -10.282774      -279.8085
  14   2.0000     -10.277220      -279.6574
  15   2.0000     -10.272376      -279.5256
  16   2.0000      -8.085897      -220.0284
  17   2.0000      -8.080989      -219.8949
  18   2.0000      -6.044427      -164.4772
  19   2.0000      -6.040492      -164.3701
  20   2.0000      -6.039433      -164.3413
  21   2.0000      -6.036582      -164.2638
  22   2.0000      -6.035407      -164.2318
  23   2.0000      -6.031804      -164.1337
  24   2.0000      -1.010775       -27.5046
  25   2.0000      -0.985450       -26.8155
  26   2.0000      -0.912595       -24.8330
  27   2.0000      -0.908476       -24.7209
  28   2.0000      -0.870071       -23.6758
  29   2.0000      -0.856733       -23.3129
  30   2.0000      -0.848302       -23.0835
  31   2.0000      -0.811254       -22.0753
  32   2.0000      -0.780348       -21.2343
  33   2.0000      -0.769163       -20.9300
  34   2.0000      -0.708039       -19.2667
  35   2.0000      -0.696248       -18.9459
  36   2.0000      -0.689080       -18.7508
  37   2.0000      -0.667411       -18.1612
  38   2.0000      -0.636447       -17.3186
  39   2.0000      -0.624277       -16.9874
  40   2.0000      -0.594526       -16.1779
  41   2.0000      -0.574839       -15.6422
  42   2.0000      -0.562211       -15.2986
  43   2.0000      -0.553150       -15.0520
  44   2.0000      -0.549152       -14.9432
  45   2.0000      -0.526432       -14.3249
  46   2.0000      -0.513009       -13.9597
  47   2.0000      -0.505635       -13.7590
  48   2.0000      -0.502488       -13.6734
  49   2.0000      -0.496529       -13.5113
  50   2.0000      -0.490638       -13.3509
  51   2.0000      -0.489671       -13.3246
  52   2.0000      -0.471714       -12.8360
  53   2.0000      -0.468225       -12.7410
  54   2.0000      -0.459490       -12.5034
  55   2.0000      -0.455084       -12.3835
  56   2.0000      -0.441226       -12.0064
  57   2.0000      -0.432338       -11.7645
  58   2.0000      -0.428782       -11.6678
  59   2.0000      -0.426467       -11.6048
  60   2.0000      -0.421025       -11.4567
  61   2.0000      -0.417653       -11.3649
  62   2.0000      -0.407731       -11.0949
  63   2.0000      -0.360246        -9.8028
  64   2.0000      -0.342214        -9.3121
  65   2.0000      -0.329562        -8.9678
  66   2.0000      -0.277209        -7.5432
  67   0.0000       0.012933         0.3519
  68   0.0000       0.080596         2.1931
  69   0.0000       0.092608         2.5200
  70   0.0000       0.117807         3.2057
  71   0.0000       0.133121         3.6224

MULLIKEN ATOMIC CHARGES
-----------------------
   0 S :    0.104923
   1 C :   -0.109329
   2 C :   -0.077985
   3 C :    0.007625
   4 C :   -0.094525
   5 H :   -0.002156
   6 C :    0.008745
   7 H :    0.031862
   8 H :    0.023399
   9 C :   -0.048552
  10 H :    0.028429
  11 H :    0.020376
  12 C :   -0.047023
  13 H :    0.022391
  14 H :    0.037338
  15 H :    0.033366
  16 S :    0.079830
  17 C :   -0.117113
  18 C :   -0.008697
  19 C :   -0.052046
  20 C :   -0.095092
  21 H :    0.003112
  22 C :   -0.037197
  23 H :    0.019972
  24 H :    0.041893
  25 C :   -0.039440
  26 H :    0.045251
  27 H :    0.034610
  28 C :   -0.031359
  29 H :    0.023299
  30 H :    0.035991
  31 H :    0.020030
  32 H :    0.053131
  33 H :    0.084940
Sum of atomic charges:   -0.0000000

LOEWDIN ATOMIC CHARGES
----------------------
   0 S :    0.414858
   1 C :   -0.210643
   2 C :   -0.058825
   3 C :   -0.067397
   4 C :   -0.181488
   5 H :    0.024714
   6 C :   -0.032105
   7 H :    0.029842
   8 H :    0.031730
   9 C :   -0.044286
  10 H :    0.022280
  11 H :    0.022828
  12 C :   -0.067024
  13 H :    0.022964
  14 H :    0.028849
  15 H :    0.026465
  16 S :    0.404502
  17 C :   -0.197030
  18 C :   -0.071244
  19 C :   -0.063558
  20 C :   -0.185610
  21 H :    0.027767
  22 C :   -0.048805
  23 H :    0.032207
  24 H :    0.035133
  25 C :   -0.038452
  26 H :    0.035496
  27 H :    0.020667
  28 C :   -0.059691
  29 H :    0.016026
  30 H :    0.023185
  31 H :    0.029149
  32 H :    0.032220
  33 H :    0.045275

  Mayer bond orders larger than 0.100000
B(  0-S ,  1-C ) :   1.1380 B(  0-S ,  4-C ) :   1.1678 B(  1-C ,  2-C ) :   1.5799
B(  1-C ,  4-C ) :   0.1069 B(  1-C , 32-H ) :   0.9685 B(  2-C ,  3-C ) :   1.2816
B(  2-C ,  6-C ) :   1.0149 B(  3-C ,  4-C ) :   1.5143 B(  3-C ,  5-H ) :   0.9975
B(  4-C , 20-C ) :   1.0813 B(  6-C ,  7-H ) :   0.9461 B(  6-C ,  8-H ) :   0.9503
B(  6-C ,  9-C ) :   1.0498 B(  9-C , 10-H ) :   0.9523 B(  9-C , 11-H ) :   0.9547
B(  9-C , 12-C ) :   1.0894 B( 12-C , 13-H ) :   0.9718 B( 12-C , 14-H ) :   0.9733
B( 12-C , 15-H ) :   0.9731 B( 16-S , 17-C ) :   1.1727 B( 16-S , 20-C ) :   1.1358
B( 17-C , 18-C ) :   1.5783 B( 17-C , 33-H ) :   0.9582 B( 18-C , 19-C ) :   1.2687
B( 18-C , 21-H ) :   1.0013 B( 19-C , 20-C ) :   1.5676 B( 19-C , 22-C ) :   1.0329
B( 22-C , 23-H ) :   0.9379 B( 22-C , 24-H ) :   0.9333 B( 22-C , 25-C ) :   1.0623
B( 25-C , 26-H ) :   0.9528 B( 25-C , 27-H ) :   0.9532 B( 25-C , 28-C ) :   1.0722
B( 28-C , 29-H ) :   0.9724 B( 28-C , 30-H ) :   0.9781 B( 28-C , 31-H ) :   0.9743

Dispersion correction           -0.014002945
FINAL SINGLE POINT ENERGY     -1339.873725184729

DIPOLE MOMENT
-------------
                                X             Y             Z
Electronic contribution:      6.51853     -18.12575      24.14753
Nuclear contribution   :     -6.59760      18.60765     -24.51002
                        -----------------------------------------
Total Dipole Moment    :     -0.07907       0.48190      -0.36249
                        -----------------------------------------
Magnitude (a.u.)       :      0.60817
Magnitude (Debye)      :      1.54586

Rotational constants in cm-1:     0.018392     0.008892     0.006336
Rotational constants in MHz :   551.372211   266.587602   189.948122

                             ****ORCA TERMINATED NORMALLY****
TOTAL RUN TIME: 0 days 0 hours 0 minutes 20 seconds 363 msec
