                         Program Version 4.2.1 -  RELEASE  -
|  1> ! wB97X-D3 SP def2-SVP
|  2> %pal
|  3> nprocs 24
|  4> end
|  5>
|  6> * xyz 0 1
|  7> S 	 -64.2597 	 -49.1751 	 -87.1113
|  8> C 	 -62.9278 	 -49.9797 	 -87.9571
|  9> C 	 -63.3984 	 -51.0308 	 -88.7403
| 10> C 	 -64.7945 	 -50.934 	 -88.9631
| 11> C 	 -65.3911 	 -49.8532 	 -88.3079
| 12> H 	 -65.3505 	 -51.5414 	 -89.6725
| 13> C 	 -62.5119 	 -52.0406 	 -89.3796
| 14> H 	 -62.6606 	 -52.9829 	 -88.8362
| 15> H 	 -61.4045 	 -51.7704 	 -89.2429
| 16> C 	 -62.8134 	 -52.2334 	 -90.8787
| 17> H 	 -63.5871 	 -52.9735 	 -91.1157
| 18> H 	 -63.2009 	 -51.2697 	 -91.2431
| 19> C 	 -61.5076 	 -52.683 	 -91.6906
| 20> H 	 -60.6243 	 -52.1562 	 -91.4361
| 21> H 	 -61.3946 	 -53.7297 	 -91.8208
| 22> H 	 -61.6505 	 -52.1916 	 -92.571
| 23> S 	 -67.261 	 -48.8455 	 -86.6926
| 24> C 	 -68.7892 	 -48.2638 	 -87.3049
| 25> C 	 -68.8944 	 -48.533 	 -88.6753
| 26> C 	 -67.7142 	 -49.1591 	 -89.2053
| 27> C 	 -66.8073 	 -49.4398 	 -88.2487
| 28> H 	 -69.8005 	 -48.2167 	 -89.1597
| 29> C 	 -67.5348 	 -49.3674 	 -90.6668
| 30> H 	 -66.6344 	 -49.9898 	 -90.9328
| 31> H 	 -67.1521 	 -48.43 	 -91.075
| 32> C 	 -68.6289 	 -50.0387 	 -91.3657
| 33> H 	 -69.5993 	 -49.4763 	 -91.3685
| 34> H 	 -68.703 	 -51.0239 	 -90.8996
| 35> C 	 -68.4743 	 -50.282 	 -92.8597
| 36> H 	 -68.431 	 -49.3249 	 -93.3281
| 37> H 	 -69.2504 	 -50.8976 	 -93.3598
| 38> H 	 -67.5684 	 -50.8952 	 -93.0789
| 39> H 	 -61.8734 	 -49.7875 	 -87.8105
| 40> H 	 -69.4918 	 -47.6631 	 -86.7797
| 41> *
| 42>
| 43>                          ****END OF INPUT****

CARTESIAN COORDINATES (ANGSTROEM)
---------------------------------
  S    -64.259700  -49.175100  -87.111300
  C    -62.927800  -49.979700  -87.957100
  C    -63.398400  -51.030800  -88.740300
  C    -64.794500  -50.934000  -88.963100
  C    -65.391100  -49.853200  -88.307900
  H    -65.350500  -51.541400  -89.672500
  C    -62.511900  -52.040600  -89.379600
  H    -62.660600  -52.982900  -88.836200
  H    -61.404500  -51.770400  -89.242900
  C    -62.813400  -52.233400  -90.878700
  H    -63.587100  -52.973500  -91.115700
  H    -63.200900  -51.269700  -91.243100
  C    -61.507600  -52.683000  -91.690600
  H    -60.624300  -52.156200  -91.436100
  H    -61.394600  -53.729700  -91.820800
  H    -61.650500  -52.191600  -92.571000
  S    -67.261000  -48.845500  -86.692600
  C    -68.789200  -48.263800  -87.304900
  C    -68.894400  -48.533000  -88.675300
  C    -67.714200  -49.159100  -89.205300
  C    -66.807300  -49.439800  -88.248700
  H    -69.800500  -48.216700  -89.159700
  C    -67.534800  -49.367400  -90.666800
  H    -66.634400  -49.989800  -90.932800
  H    -67.152100  -48.430000  -91.075000
  C    -68.628900  -50.038700  -91.365700
  H    -69.599300  -49.476300  -91.368500
  H    -68.703000  -51.023900  -90.899600
  C    -68.474300  -50.282000  -92.859700
  H    -68.431000  -49.324900  -93.328100
  H    -69.250400  -50.897600  -93.359800
  H    -67.568400  -50.895200  -93.078900
  H    -61.873400  -49.787500  -87.810500
  H    -69.491800  -47.663100  -86.779700

 Total Charge           Charge          ....    0
 Multiplicity           Mult            ....    1
 Number of Electrons    NEL             ....  134
 Basis Dimension        Dim             ....  322

ORBITAL ENERGIES
----------------

  NO   OCC          E(Eh)            E(eV)
   0   2.0000     -88.964702     -2420.8526
   1   2.0000     -88.963047     -2420.8076
   2   2.0000     -10.334007      -281.2026
   3   2.0000     -10.321855      -280.8720
   4   2.0000     -10.315779      -280.7066
   5   2.0000     -10.311971      -280.6030
   6   2.0000     -10.300042      -280.2784
   7   2.0000     -10.298842      -280.2457
   8   2.0000     -10.295803      -280.1631
   9   2.0000     -10.295755      -280.1617
  10   2.0000     -10.295289      -280.1491
  11   2.0000     -10.293671      -280.1050
  12   2.0000     -10.289212      -279.9837
  13   2.0000     -10.285369      -279.8791
  14   2.0000     -10.279611      -279.7224
  15   2.0000     -10.268850      -279.4296
  16   2.0000      -8.078638      -219.8309
  17   2.0000      -8.078614      -219.8303
  18   2.0000      -6.037279      -164.2827
  19   2.0000      -6.037126      -164.2786
  20   2.0000      -6.033554      -164.1813
  21   2.0000      -6.033038      -164.1673
  22   2.0000      -6.029329      -164.0664
  23   2.0000      -6.028964      -164.0565
  24   2.0000      -1.010179       -27.4884
  25   2.0000      -0.982823       -26.7440
  26   2.0000      -0.922106       -25.0918
  27   2.0000      -0.908542       -24.7227
  28   2.0000      -0.866347       -23.5745
  29   2.0000      -0.856991       -23.3199
  30   2.0000      -0.842709       -22.9313
  31   2.0000      -0.816430       -22.2162
  32   2.0000      -0.784653       -21.3515
  33   2.0000      -0.775386       -21.0993
  34   2.0000      -0.711717       -19.3668
  35   2.0000      -0.697435       -18.9782
  36   2.0000      -0.692969       -18.8567
  37   2.0000      -0.661151       -17.9908
  38   2.0000      -0.636988       -17.3333
  39   2.0000      -0.622160       -16.9298
  40   2.0000      -0.603110       -16.4115
  41   2.0000      -0.578981       -15.7549
  42   2.0000      -0.573305       -15.6004
  43   2.0000      -0.557322       -15.1655
  44   2.0000      -0.530367       -14.4320
  45   2.0000      -0.526550       -14.3281
  46   2.0000      -0.520205       -14.1555
  47   2.0000      -0.511896       -13.9294
  48   2.0000      -0.509602       -13.8670
  49   2.0000      -0.496620       -13.5137
  50   2.0000      -0.490621       -13.3505
  51   2.0000      -0.482067       -13.1177
  52   2.0000      -0.470929       -12.8146
  53   2.0000      -0.463763       -12.6196
  54   2.0000      -0.462256       -12.5786
  55   2.0000      -0.451959       -12.2984
  56   2.0000      -0.446497       -12.1498
  57   2.0000      -0.436328       -11.8731
  58   2.0000      -0.433942       -11.8082
  59   2.0000      -0.420389       -11.4394
  60   2.0000      -0.418186       -11.3794
  61   2.0000      -0.413286       -11.2461
  62   2.0000      -0.407777       -11.0962
  63   2.0000      -0.351470        -9.5640
  64   2.0000      -0.333795        -9.0830
  65   2.0000      -0.324340        -8.8257
  66   2.0000      -0.282967        -7.6999
  67   0.0000       0.023258         0.6329
  68   0.0000       0.067287         1.8310
  69   0.0000       0.099091         2.6964
  70   0.0000       0.125189         3.4066
  71   0.0000       0.129235         3.5167

MULLIKEN ATOMIC CHARGES
-----------------------
   0 S :    0.089437
   1 C :   -0.115864
   2 C :   -0.092631
   3 C :    0.023149
   4 C :   -0.127289
   5 H :    0.018678
   6 C :    0.067595
   7 H :    0.047723
   8 H :    0.031707
   9 C :   -0.138866
  10 H :    0.039168
  11 H :    0.040623
  12 C :    0.013336
  13 H :    0.012361
  14 H :    0.044751
  15 H :   -0.000822
  16 S :    0.083084
  17 C :   -0.084495
  18 C :   -0.038055
  19 C :   -0.035434
  20 C :   -0.117683
  21 H :    0.017632
  22 C :    0.083304
  23 H :    0.002529
  24 H :    0.028348
  25 C :   -0.092388
  26 H :    0.037826
  27 H :    0.034303
  28 C :   -0.054598
  29 H :    0.028514
  30 H :    0.040591
  31 H :    0.021987
  32 H :    0.043574
  33 H :    0.047907
Sum of atomic charges:   -0.0000000

LOEWDIN ATOMIC CHARGES
----------------------
   0 S :    0.374153
   1 C :   -0.190702
   2 C :   -0.064192
   3 C :   -0.065401
   4 C :   -0.170163
   5 H :    0.029820
   6 C :   -0.040222
   7 H :    0.038606
   8 H :    0.037677
   9 C :   -0.039298
  10 H :    0.025809
  11 H :    0.024495
  12 C :   -0.057992
  13 H :    0.022992
  14 H :    0.024222
  15 H :    0.019866
  16 S :    0.408973
  17 C :   -0.180229
  18 C :   -0.062558
  19 C :   -0.060860
  20 C :   -0.197834
  21 H :    0.029964
  22 C :   -0.042014
  23 H :    0.034830
  24 H :    0.034452
  25 C :   -0.048754
  26 H :    0.027830
  27 H :    0.029670
  28 C :   -0.067505
  29 H :    0.020453
  30 H :    0.031487
  31 H :    0.022439
  32 H :    0.025728
  33 H :    0.024258

  Mayer bond orders larger than 0.100000
B(  0-S ,  1-C ) :   1.1188 B(  0-S ,  4-C ) :   1.1408 B(  1-C ,  2-C ) :   1.6105
B(  1-C ,  4-C ) :   0.1021 B(  1-C , 32-H ) :   0.9704 B(  2-C ,  3-C ) :   1.2299
B(  2-C ,  6-C ) :   1.0382 B(  3-C ,  4-C ) :   1.5654 B(  3-C ,  5-H ) :   0.9911
B(  4-C , 20-C ) :   1.0414 B(  6-C ,  7-H ) :   0.9253 B(  6-C ,  8-H ) :   0.9511
B(  6-C ,  9-C ) :   1.0462 B(  9-C , 10-H ) :   0.9491 B(  9-C , 11-H ) :   0.9714
B(  9-C , 12-C ) :   1.0751 B( 12-C , 13-H ) :   0.9708 B( 12-C , 14-H ) :   0.9803
B( 12-C , 15-H ) :   0.9669 B( 16-S , 17-C ) :   1.1540 B( 16-S , 20-C ) :   1.1231
B( 17-C , 18-C ) :   1.6204 B( 17-C , 33-H ) :   0.9720 B( 18-C , 19-C ) :   1.2118
B( 18-C , 21-H ) :   0.9963 B( 19-C , 20-C ) :   1.6358 B( 19-C , 22-C ) :   1.0485
B( 22-C , 23-H ) :   0.9275 B( 22-C , 24-H ) :   0.9157 B( 22-C , 25-C ) :   1.0614
B( 25-C , 26-H ) :   0.9497 B( 25-C , 27-H ) :   0.9533 B( 25-C , 28-C ) :   1.0905
B( 28-C , 29-H ) :   0.9747 B( 28-C , 30-H ) :   0.9745 B( 28-C , 31-H ) :   0.9703

Dispersion correction           -0.013559403
FINAL SINGLE POINT ENERGY     -1339.850538330289

DIPOLE MOMENT
-------------
                                X             Y             Z
Electronic contribution:     -4.22502      13.48354      29.39397
Nuclear contribution   :      4.25216     -13.68863     -30.12770
                        -----------------------------------------
Total Dipole Moment    :      0.02714      -0.20508      -0.73373
                        -----------------------------------------
Magnitude (a.u.)       :      0.76233
Magnitude (Debye)      :      1.93769

Rotational constants in cm-1:     0.016678     0.009293     0.006161
Rotational constants in MHz :   499.980384   278.607031   184.714731

                             ****ORCA TERMINATED NORMALLY****
TOTAL RUN TIME: 0 days 0 hours 0 minutes 20 seconds 174 msec
