                         Program Version 4.2.1 -  RELEASE  -
|  1> ! wB97X-D3 SP def2-SVP
|  2> %pal
|  3> nprocs 24
|  4> end
|  5>
|  6> * xyz 0 1
|  7> S 	 -114.876 	 38.6477 	 -118.985
|  8> C 	 -113.666 	 38.3266 	 -120.237
|  9> C 	 -114.241 	 37.6442 	 -121.308
| 10> C 	 -115.673 	 37.6643 	 -121.191
| 11> C 	 -116.165 	 38.3488 	 -120.108
| 12> H 	 -116.273 	 37.0845 	 -121.812
| 13> C 	 -113.512 	 37.056 	 -122.499
| 14> H 	 -113.229 	 37.9543 	 -123.047
| 15> H 	 -114.256 	 36.4975 	 -123.113
| 16> C 	 -112.427 	 36.0569 	 -122.122
| 17> H 	 -111.712 	 35.9652 	 -122.907
| 18> H 	 -111.774 	 36.4013 	 -121.292
| 19> C 	 -113.066 	 34.7413 	 -121.668
| 20> H 	 -112.205 	 34.1294 	 -121.34
| 21> H 	 -113.68 	 34.8182 	 -120.777
| 22> H 	 -113.619 	 34.1932 	 -122.454
| 23> S 	 -118.605 	 38.5922 	 -121.193
| 24> C 	 -120.016 	 38.5925 	 -120.199
| 25> C 	 -119.708 	 38.4555 	 -118.843
| 26> C 	 -118.322 	 38.1637 	 -118.632
| 27> C 	 -117.567 	 38.3372 	 -119.784
| 28> H 	 -120.542 	 38.5008 	 -118.138
| 29> C 	 -117.652 	 38.0554 	 -117.228
| 30> H 	 -118.374 	 38.4646 	 -116.556
| 31> H 	 -116.825 	 38.6984 	 -117.129
| 32> C 	 -117.298 	 36.6096 	 -116.776
| 33> H 	 -116.738 	 36.635 	 -115.889
| 34> H 	 -116.595 	 36.2833 	 -117.527
| 35> C 	 -118.545 	 35.6633 	 -116.772
| 36> H 	 -118.169 	 34.6614 	 -116.832
| 37> H 	 -119.191 	 35.9667 	 -117.588
| 38> H 	 -119.081 	 35.6268 	 -115.814
| 39> H 	 -112.649 	 38.5225 	 -120.058
| 40> H 	 -121.001 	 38.7367 	 -120.728
| 41> *
| 42>
| 43>                          ****END OF INPUT****

CARTESIAN COORDINATES (ANGSTROEM)
---------------------------------
  S    -114.876000   38.647700  -118.985000
  C    -113.666000   38.326600  -120.237000
  C    -114.241000   37.644200  -121.308000
  C    -115.673000   37.664300  -121.191000
  C    -116.165000   38.348800  -120.108000
  H    -116.273000   37.084500  -121.812000
  C    -113.512000   37.056000  -122.499000
  H    -113.229000   37.954300  -123.047000
  H    -114.256000   36.497500  -123.113000
  C    -112.427000   36.056900  -122.122000
  H    -111.712000   35.965200  -122.907000
  H    -111.774000   36.401300  -121.292000
  C    -113.066000   34.741300  -121.668000
  H    -112.205000   34.129400  -121.340000
  H    -113.680000   34.818200  -120.777000
  H    -113.619000   34.193200  -122.454000
  S    -118.605000   38.592200  -121.193000
  C    -120.016000   38.592500  -120.199000
  C    -119.708000   38.455500  -118.843000
  C    -118.322000   38.163700  -118.632000
  C    -117.567000   38.337200  -119.784000
  H    -120.542000   38.500800  -118.138000
  C    -117.652000   38.055400  -117.228000
  H    -118.374000   38.464600  -116.556000
  H    -116.825000   38.698400  -117.129000
  C    -117.298000   36.609600  -116.776000
  H    -116.738000   36.635000  -115.889000
  H    -116.595000   36.283300  -117.527000
  C    -118.545000   35.663300  -116.772000
  H    -118.169000   34.661400  -116.832000
  H    -119.191000   35.966700  -117.588000
  H    -119.081000   35.626800  -115.814000
  H    -112.649000   38.522500  -120.058000
  H    -121.001000   38.736700  -120.728000

 Total Charge           Charge          ....    0
 Multiplicity           Mult            ....    1
 Number of Electrons    NEL             ....  134
 Basis Dimension        Dim             ....  322

ORBITAL ENERGIES
----------------

  NO   OCC          E(Eh)            E(eV)
   0   2.0000     -88.966820     -2420.9102
   1   2.0000     -88.963097     -2420.8089
   2   2.0000     -10.326748      -281.0051
   3   2.0000     -10.325705      -280.9767
   4   2.0000     -10.320038      -280.8225
   5   2.0000     -10.312717      -280.6233
   6   2.0000     -10.305853      -280.4365
   7   2.0000     -10.303120      -280.3621
   8   2.0000     -10.300046      -280.2785
   9   2.0000     -10.294833      -280.1366
  10   2.0000     -10.288232      -279.9570
  11   2.0000     -10.286975      -279.9228
  12   2.0000     -10.285177      -279.8739
  13   2.0000     -10.280285      -279.7408
  14   2.0000     -10.277855      -279.6747
  15   2.0000     -10.272017      -279.5158
  16   2.0000      -8.081038      -219.8962
  17   2.0000      -8.078196      -219.8189
  18   2.0000      -6.039712      -164.3489
  19   2.0000      -6.036570      -164.2634
  20   2.0000      -6.035795      -164.2423
  21   2.0000      -6.032635      -164.1563
  22   2.0000      -6.031488      -164.1251
  23   2.0000      -6.029104      -164.0603
  24   2.0000      -1.009011       -27.4566
  25   2.0000      -0.983167       -26.7533
  26   2.0000      -0.915926       -24.9236
  27   2.0000      -0.902042       -24.5458
  28   2.0000      -0.870350       -23.6834
  29   2.0000      -0.850881       -23.1537
  30   2.0000      -0.841169       -22.8894
  31   2.0000      -0.808387       -21.9973
  32   2.0000      -0.783270       -21.3139
  33   2.0000      -0.773695       -21.0533
  34   2.0000      -0.710878       -19.3440
  35   2.0000      -0.705679       -19.2025
  36   2.0000      -0.688901       -18.7460
  37   2.0000      -0.666374       -18.1330
  38   2.0000      -0.640840       -17.4382
  39   2.0000      -0.611653       -16.6439
  40   2.0000      -0.591473       -16.0948
  41   2.0000      -0.572174       -15.5696
  42   2.0000      -0.562056       -15.2943
  43   2.0000      -0.552327       -15.0296
  44   2.0000      -0.545293       -14.8382
  45   2.0000      -0.536868       -14.6089
  46   2.0000      -0.518037       -14.0965
  47   2.0000      -0.512526       -13.9465
  48   2.0000      -0.497276       -13.5316
  49   2.0000      -0.492154       -13.3922
  50   2.0000      -0.483644       -13.1606
  51   2.0000      -0.479913       -13.0591
  52   2.0000      -0.474651       -12.9159
  53   2.0000      -0.467615       -12.7244
  54   2.0000      -0.457500       -12.4492
  55   2.0000      -0.443207       -12.0603
  56   2.0000      -0.442357       -12.0371
  57   2.0000      -0.434879       -11.8336
  58   2.0000      -0.432179       -11.7602
  59   2.0000      -0.427928       -11.6445
  60   2.0000      -0.423696       -11.5294
  61   2.0000      -0.416095       -11.3225
  62   2.0000      -0.407984       -11.1018
  63   2.0000      -0.354136        -9.6365
  64   2.0000      -0.333155        -9.0656
  65   2.0000      -0.327105        -8.9010
  66   2.0000      -0.282413        -7.6848
  67   0.0000       0.019998         0.5442
  68   0.0000       0.073890         2.0107
  69   0.0000       0.100917         2.7461
  70   0.0000       0.120691         3.2842
  71   0.0000       0.126274         3.4361

MULLIKEN ATOMIC CHARGES
-----------------------
   0 S :    0.081178
   1 C :   -0.112701
   2 C :   -0.088806
   3 C :   -0.002828
   4 C :   -0.063404
   5 H :   -0.003701
   6 C :    0.069769
   7 H :    0.050772
   8 H :    0.023752
   9 C :   -0.055443
  10 H :    0.020931
  11 H :    0.025966
  12 C :   -0.071754
  13 H :    0.032447
  14 H :    0.046254
  15 H :    0.040931
  16 S :    0.095313
  17 C :   -0.127376
  18 C :   -0.028230
  19 C :   -0.071671
  20 C :   -0.150539
  21 H :    0.030301
  22 C :    0.055578
  23 H :    0.006171
  24 H :    0.023476
  25 C :   -0.034046
  26 H :    0.017560
  27 H :    0.019809
  28 C :   -0.047433
  29 H :    0.027375
  30 H :    0.047710
  31 H :    0.029323
  32 H :    0.031483
  33 H :    0.081835
Sum of atomic charges:    0.0000000

LOEWDIN ATOMIC CHARGES
----------------------
   0 S :    0.408381
   1 C :   -0.182977
   2 C :   -0.053221
   3 C :   -0.064039
   4 C :   -0.196737
   5 H :    0.014735
   6 C :   -0.034135
   7 H :    0.038147
   8 H :    0.033188
   9 C :   -0.042238
  10 H :    0.020304
  11 H :    0.026904
  12 C :   -0.066581
  13 H :    0.030835
  14 H :    0.028408
  15 H :    0.026447
  16 S :    0.414810
  17 C :   -0.202448
  18 C :   -0.074669
  19 C :   -0.065600
  20 C :   -0.177605
  21 H :    0.035523
  22 C :   -0.027493
  23 H :    0.024086
  24 H :    0.013134
  25 C :   -0.031440
  26 H :    0.016426
  27 H :    0.019812
  28 C :   -0.064080
  29 H :    0.024806
  30 H :    0.028556
  31 H :    0.025910
  32 H :    0.014324
  33 H :    0.038528

  Mayer bond orders larger than 0.100000
B(  0-S ,  1-C ) :   1.1325 B(  0-S ,  4-C ) :   1.1456 B(  1-C ,  2-C ) :   1.5799
B(  1-C , 32-H ) :   0.9824 B(  2-C ,  3-C ) :   1.2624 B(  2-C ,  6-C ) :   1.0040
B(  3-C ,  4-C ) :   1.5242 B(  3-C ,  5-H ) :   0.9998 B(  4-C , 20-C ) :   1.0670
B(  6-C ,  7-H ) :   0.9378 B(  6-C ,  8-H ) :   0.9464 B(  6-C ,  9-C ) :   1.0634
B(  9-C , 10-H ) :   0.9553 B(  9-C , 11-H ) :   0.9581 B(  9-C , 12-C ) :   1.0708
B( 12-C , 13-H ) :   0.9721 B( 12-C , 14-H ) :   0.9761 B( 12-C , 15-H ) :   0.9752
B( 16-S , 17-C ) :   1.1677 B( 16-S , 20-C ) :   1.1504 B( 17-C , 18-C ) :   1.5882
B( 17-C , 20-C ) :   0.1006 B( 17-C , 33-H ) :   0.9614 B( 18-C , 19-C ) :   1.2301
B( 18-C , 21-H ) :   0.9904 B( 19-C , 20-C ) :   1.5779 B( 19-C , 22-C ) :   1.0200
B( 22-C , 23-H ) :   0.9355 B( 22-C , 24-H ) :   0.9481 B( 22-C , 25-C ) :   1.0613
B( 25-C , 26-H ) :   0.9567 B( 25-C , 27-H ) :   0.9589 B( 25-C , 28-C ) :   1.0661
B( 28-C , 29-H ) :   0.9754 B( 28-C , 30-H ) :   0.9762 B( 28-C , 31-H ) :   0.9765

Dispersion correction           -0.014811018
FINAL SINGLE POINT ENERGY     -1339.871037551623

DIPOLE MOMENT
-------------
                                X             Y             Z
Electronic contribution:     -7.94242      17.31299      -4.38331
Nuclear contribution   :      8.16457     -17.65915       4.35549
                        -----------------------------------------
Total Dipole Moment    :      0.22215      -0.34616      -0.02782
                        -----------------------------------------
Magnitude (a.u.)       :      0.41226
Magnitude (Debye)      :      1.04787

Rotational constants in cm-1:     0.020661     0.008474     0.007377
Rotational constants in MHz :   619.411083   254.044545   221.152751

                             ****ORCA TERMINATED NORMALLY****
TOTAL RUN TIME: 0 days 0 hours 0 minutes 20 seconds 938 msec
