                         Program Version 4.2.1 -  RELEASE  -
|  1> ! wB97X-D3 SP def2-SVP
|  2> %pal
|  3> nprocs 24
|  4> end
|  5>
|  6> * xyz 0 1
|  7> S 	 -73.9526 	 4.98193 	 -108.927
|  8> C 	 -74.676 	 5.58736 	 -107.44
|  9> C 	 -73.8285 	 6.38767 	 -106.728
| 10> C 	 -72.5642 	 6.54497 	 -107.341
| 11> C 	 -72.5558 	 5.95954 	 -108.598
| 12> H 	 -71.6114 	 7.06545 	 -107.058
| 13> C 	 -74.1223 	 7.14562 	 -105.415
| 14> H 	 -73.2681 	 7.74365 	 -105.086
| 15> H 	 -74.2517 	 6.2765 	 -104.671
| 16> C 	 -75.4395 	 7.92036 	 -105.357
| 17> H 	 -75.3135 	 8.79918 	 -105.929
| 18> H 	 -76.2565 	 7.32856 	 -105.908
| 19> C 	 -75.986 	 8.2995 	 -104.028
| 20> H 	 -75.3866 	 8.97711 	 -103.397
| 21> H 	 -76.9399 	 8.76397 	 -104.203
| 22> H 	 -76.0801 	 7.39886 	 -103.399
| 23> S 	 -70.8817 	 4.23309 	 -110.045
| 24> C 	 -69.5397 	 4.89191 	 -110.925
| 25> C 	 -69.2558 	 6.17867 	 -110.573
| 26> C 	 -70.2883 	 6.78766 	 -109.811
| 27> C 	 -71.2713 	 5.86281 	 -109.391
| 28> H 	 -68.3324 	 6.64246 	 -110.884
| 29> C 	 -70.143 	 8.25995 	 -109.308
| 30> H 	 -70.9944 	 8.6061 	 -108.738
| 31> H 	 -70.0844 	 8.84274 	 -110.235
| 32> C 	 -68.9159 	 8.3178 	 -108.393
| 33> H 	 -67.9941 	 7.85236 	 -108.757
| 34> H 	 -69.1226 	 7.96331 	 -107.386
| 35> C 	 -68.6697 	 9.82448 	 -108.112
| 36> H 	 -69.3967 	 10.0377 	 -107.291
| 37> H 	 -68.7416 	 10.5465 	 -108.895
| 38> H 	 -67.6693 	 10.0085 	 -107.695
| 39> H 	 -75.6865 	 5.3889 	 -107.05
| 40> H 	 -68.8228 	 4.27175 	 -111.455
| 41> *
| 42>
| 43>                          ****END OF INPUT****

CARTESIAN COORDINATES (ANGSTROEM)
---------------------------------
  S    -73.952600    4.981930  -108.927000
  C    -74.676000    5.587360  -107.440000
  C    -73.828500    6.387670  -106.728000
  C    -72.564200    6.544970  -107.341000
  C    -72.555800    5.959540  -108.598000
  H    -71.611400    7.065450  -107.058000
  C    -74.122300    7.145620  -105.415000
  H    -73.268100    7.743650  -105.086000
  H    -74.251700    6.276500  -104.671000
  C    -75.439500    7.920360  -105.357000
  H    -75.313500    8.799180  -105.929000
  H    -76.256500    7.328560  -105.908000
  C    -75.986000    8.299500  -104.028000
  H    -75.386600    8.977110  -103.397000
  H    -76.939900    8.763970  -104.203000
  H    -76.080100    7.398860  -103.399000
  S    -70.881700    4.233090  -110.045000
  C    -69.539700    4.891910  -110.925000
  C    -69.255800    6.178670  -110.573000
  C    -70.288300    6.787660  -109.811000
  C    -71.271300    5.862810  -109.391000
  H    -68.332400    6.642460  -110.884000
  C    -70.143000    8.259950  -109.308000
  H    -70.994400    8.606100  -108.738000
  H    -70.084400    8.842740  -110.235000
  C    -68.915900    8.317800  -108.393000
  H    -67.994100    7.852360  -108.757000
  H    -69.122600    7.963310  -107.386000
  C    -68.669700    9.824480  -108.112000
  H    -69.396700   10.037700  -107.291000
  H    -68.741600   10.546500  -108.895000
  H    -67.669300   10.008500  -107.695000
  H    -75.686500    5.388900  -107.050000
  H    -68.822800    4.271750  -111.455000

 Total Charge           Charge          ....    0
 Multiplicity           Mult            ....    1
 Number of Electrons    NEL             ....  134
 Basis Dimension        Dim             ....  322

ORBITAL ENERGIES
----------------

  NO   OCC          E(Eh)            E(eV)
   0   2.0000     -88.972811     -2421.0733
   1   2.0000     -88.961761     -2420.7726
   2   2.0000     -10.332267      -281.1553
   3   2.0000     -10.330326      -281.1025
   4   2.0000     -10.314236      -280.6646
   5   2.0000     -10.312314      -280.6123
   6   2.0000     -10.305619      -280.4302
   7   2.0000     -10.302404      -280.3427
   8   2.0000     -10.300388      -280.2878
   9   2.0000     -10.297604      -280.2120
  10   2.0000     -10.295227      -280.1474
  11   2.0000     -10.291927      -280.0576
  12   2.0000     -10.290238      -280.0116
  13   2.0000     -10.287196      -279.9288
  14   2.0000     -10.278735      -279.6986
  15   2.0000     -10.278574      -279.6942
  16   2.0000      -8.087082      -220.0607
  17   2.0000      -8.076219      -219.7651
  18   2.0000      -6.045639      -164.5102
  19   2.0000      -6.041744      -164.4042
  20   2.0000      -6.037717      -164.2946
  21   2.0000      -6.034693      -164.2124
  22   2.0000      -6.030845      -164.1076
  23   2.0000      -6.026964      -164.0020
  24   2.0000      -1.004298       -27.3283
  25   2.0000      -0.982902       -26.7461
  26   2.0000      -0.913371       -24.8541
  27   2.0000      -0.910882       -24.7864
  28   2.0000      -0.866098       -23.5677
  29   2.0000      -0.854196       -23.2439
  30   2.0000      -0.845496       -23.0071
  31   2.0000      -0.811364       -22.0783
  32   2.0000      -0.782132       -21.2829
  33   2.0000      -0.769751       -20.9460
  34   2.0000      -0.703891       -19.1538
  35   2.0000      -0.701301       -19.0834
  36   2.0000      -0.688918       -18.7464
  37   2.0000      -0.657939       -17.9034
  38   2.0000      -0.636249       -17.3132
  39   2.0000      -0.612518       -16.6675
  40   2.0000      -0.596145       -16.2219
  41   2.0000      -0.574299       -15.6275
  42   2.0000      -0.567356       -15.4386
  43   2.0000      -0.558589       -15.2000
  44   2.0000      -0.527468       -14.3531
  45   2.0000      -0.524910       -14.2835
  46   2.0000      -0.518006       -14.0957
  47   2.0000      -0.512738       -13.9523
  48   2.0000      -0.504790       -13.7360
  49   2.0000      -0.494427       -13.4540
  50   2.0000      -0.490437       -13.3455
  51   2.0000      -0.479262       -13.0414
  52   2.0000      -0.468898       -12.7594
  53   2.0000      -0.465641       -12.6707
  54   2.0000      -0.460021       -12.5178
  55   2.0000      -0.453119       -12.3300
  56   2.0000      -0.447808       -12.1855
  57   2.0000      -0.439588       -11.9618
  58   2.0000      -0.432171       -11.7600
  59   2.0000      -0.429128       -11.6772
  60   2.0000      -0.426376       -11.6023
  61   2.0000      -0.414996       -11.2926
  62   2.0000      -0.403178       -10.9710
  63   2.0000      -0.347268        -9.4497
  64   2.0000      -0.332201        -9.0396
  65   2.0000      -0.328909        -8.9501
  66   2.0000      -0.288348        -7.8463
  67   0.0000       0.029075         0.7912
  68   0.0000       0.074129         2.0171
  69   0.0000       0.101635         2.7656
  70   0.0000       0.121715         3.3120
  71   0.0000       0.127174         3.4606

MULLIKEN ATOMIC CHARGES
-----------------------
   0 S :    0.125757
   1 C :   -0.137494
   2 C :   -0.048949
   3 C :   -0.022909
   4 C :   -0.118821
   5 H :    0.031256
   6 C :    0.064331
   7 H :    0.028418
   8 H :    0.038474
   9 C :   -0.089502
  10 H :    0.022344
  11 H :    0.031342
  12 C :   -0.036839
  13 H :    0.030127
  14 H :    0.036720
  15 H :    0.024903
  16 S :    0.084674
  17 C :   -0.083155
  18 C :   -0.042092
  19 C :   -0.040528
  20 C :   -0.171269
  21 H :    0.018893
  22 C :    0.064189
  23 H :    0.023346
  24 H :    0.041454
  25 C :   -0.084444
  26 H :    0.040886
  27 H :    0.035981
  28 C :   -0.058797
  29 H :    0.028575
  30 H :    0.029982
  31 H :    0.027242
  32 H :    0.049200
  33 H :    0.056707
Sum of atomic charges:    0.0000000

LOEWDIN ATOMIC CHARGES
----------------------
   0 S :    0.413787
   1 C :   -0.204862
   2 C :   -0.062178
   3 C :   -0.070983
   4 C :   -0.195418
   5 H :    0.042037
   6 C :   -0.033075
   7 H :    0.028647
   8 H :    0.040026
   9 C :   -0.048756
  10 H :    0.019028
  11 H :    0.032042
  12 C :   -0.065813
  13 H :    0.024918
  14 H :    0.029076
  15 H :    0.025024
  16 S :    0.380826
  17 C :   -0.186865
  18 C :   -0.074366
  19 C :   -0.058173
  20 C :   -0.181942
  21 H :    0.030787
  22 C :   -0.022843
  23 H :    0.027383
  24 H :    0.034679
  25 C :   -0.035180
  26 H :    0.022958
  27 H :    0.027350
  28 C :   -0.068752
  29 H :    0.028371
  30 H :    0.016808
  31 H :    0.024321
  32 H :    0.032510
  33 H :    0.028627

  Mayer bond orders larger than 0.100000
B(  0-S ,  1-C ) :   1.1201 B(  0-S ,  4-C ) :   1.1628 B(  1-C ,  2-C ) :   1.6331
B(  1-C , 32-H ) :   0.9596 B(  2-C ,  3-C ) :   1.2306 B(  2-C ,  6-C ) :   1.0040
B(  3-C ,  4-C ) :   1.5724 B(  3-C ,  5-H ) :   0.9853 B(  4-C , 20-C ) :   1.0188
B(  6-C ,  7-H ) :   0.9508 B(  6-C ,  8-H ) :   0.9343 B(  6-C ,  9-C ) :   1.0594
B(  9-C , 10-H ) :   0.9509 B(  9-C , 11-H ) :   0.9535 B(  9-C , 12-C ) :   1.0913
B( 12-C , 13-H ) :   0.9731 B( 12-C , 14-H ) :   0.9706 B( 12-C , 15-H ) :   0.9717
B( 16-S , 17-C ) :   1.1544 B( 16-S , 20-C ) :   1.1321 B( 17-C , 18-C ) :   1.6250
B( 17-C , 33-H ) :   0.9622 B( 18-C , 19-C ) :   1.2338 B( 18-C , 21-H ) :   0.9873
B( 19-C , 20-C ) :   1.6141 B( 19-C , 22-C ) :   1.0288 B( 22-C , 23-H ) :   0.9407
B( 22-C , 24-H ) :   0.9414 B( 22-C , 25-C ) :   1.0584 B( 25-C , 26-H ) :   0.9634
B( 25-C , 27-H ) :   0.9589 B( 25-C , 28-C ) :   1.0614 B( 28-C , 29-H ) :   0.9811
B( 28-C , 30-H ) :   0.9800 B( 28-C , 31-H ) :   0.9745

Dispersion correction           -0.013527168
FINAL SINGLE POINT ENERGY     -1339.866939603519

DIPOLE MOMENT
-------------
                                X             Y             Z
Electronic contribution:     -1.00495     -24.28049     -19.45021
Nuclear contribution   :      1.26243      24.84775      19.91603
                        -----------------------------------------
Total Dipole Moment    :      0.25748       0.56726       0.46581
                        -----------------------------------------
Magnitude (a.u.)       :      0.77786
Magnitude (Debye)      :      1.97716

Rotational constants in cm-1:     0.018311     0.008169     0.005871
Rotational constants in MHz :   548.955736   244.910183   176.005012

                             ****ORCA TERMINATED NORMALLY****
TOTAL RUN TIME: 0 days 0 hours 0 minutes 21 seconds 30 msec
