                         Program Version 4.2.1 -  RELEASE  -
|  1> ! wB97X-D3 SP def2-SVP
|  2> %pal
|  3> nprocs 24
|  4> end
|  5>
|  6> * xyz 0 1
|  7> S 	 -107.746 	 48.0967 	 -97.2248
|  8> C 	 -106.153 	 48.5133 	 -96.5775
|  9> C 	 -105.77 	 49.8345 	 -96.9238
| 10> C 	 -106.788 	 50.5093 	 -97.6903
| 11> C 	 -107.872 	 49.6647 	 -98.0061
| 12> H 	 -106.835 	 51.5642 	 -98.0505
| 13> C 	 -104.565 	 50.5691 	 -96.4632
| 14> H 	 -104.444 	 51.2053 	 -97.3169
| 15> H 	 -103.668 	 49.9234 	 -96.5599
| 16> C 	 -104.698 	 51.2351 	 -95.0996
| 17> H 	 -103.857 	 51.9043 	 -95.0575
| 18> H 	 -105.672 	 51.7957 	 -95.0181
| 19> C 	 -104.779 	 50.1507 	 -93.9823
| 20> H 	 -104.203 	 49.3133 	 -94.2834
| 21> H 	 -104.342 	 50.5063 	 -93.0574
| 22> H 	 -105.837 	 49.8066 	 -93.765
| 23> S 	 -110.653 	 49.7866 	 -97.7349
| 24> C 	 -111.611 	 50.4477 	 -99.0418
| 25> C 	 -110.794 	 51.0498 	 -99.9902
| 26> C 	 -109.412 	 50.8087 	 -99.7738
| 27> C 	 -109.135 	 50.0169 	 -98.6372
| 28> H 	 -111.146 	 51.5868 	 -100.852
| 29> C 	 -108.405 	 51.4088 	 -100.766
| 30> H 	 -108.624 	 50.9744 	 -101.72
| 31> H 	 -107.356 	 51.1056 	 -100.519
| 32> C 	 -108.388 	 52.963 	 -100.991
| 33> H 	 -108.331 	 53.6002 	 -100.14
| 34> H 	 -109.41 	 53.272 	 -101.274
| 35> C 	 -107.346 	 53.4926 	 -101.988
| 36> H 	 -107.782 	 53.344 	 -102.963
| 37> H 	 -106.361 	 53.0031 	 -101.888
| 38> H 	 -107.049 	 54.552 	 -101.892
| 39> H 	 -105.659 	 47.784 	 -95.9149
| 40> H 	 -112.758 	 50.4274 	 -99.0883
| 41> *
| 42>
| 43>                          ****END OF INPUT****

CARTESIAN COORDINATES (ANGSTROEM)
---------------------------------
  S    -107.746000   48.096700  -97.224800
  C    -106.153000   48.513300  -96.577500
  C    -105.770000   49.834500  -96.923800
  C    -106.788000   50.509300  -97.690300
  C    -107.872000   49.664700  -98.006100
  H    -106.835000   51.564200  -98.050500
  C    -104.565000   50.569100  -96.463200
  H    -104.444000   51.205300  -97.316900
  H    -103.668000   49.923400  -96.559900
  C    -104.698000   51.235100  -95.099600
  H    -103.857000   51.904300  -95.057500
  H    -105.672000   51.795700  -95.018100
  C    -104.779000   50.150700  -93.982300
  H    -104.203000   49.313300  -94.283400
  H    -104.342000   50.506300  -93.057400
  H    -105.837000   49.806600  -93.765000
  S    -110.653000   49.786600  -97.734900
  C    -111.611000   50.447700  -99.041800
  C    -110.794000   51.049800  -99.990200
  C    -109.412000   50.808700  -99.773800
  C    -109.135000   50.016900  -98.637200
  H    -111.146000   51.586800  -100.852000
  C    -108.405000   51.408800  -100.766000
  H    -108.624000   50.974400  -101.720000
  H    -107.356000   51.105600  -100.519000
  C    -108.388000   52.963000  -100.991000
  H    -108.331000   53.600200  -100.140000
  H    -109.410000   53.272000  -101.274000
  C    -107.346000   53.492600  -101.988000
  H    -107.782000   53.344000  -102.963000
  H    -106.361000   53.003100  -101.888000
  H    -107.049000   54.552000  -101.892000
  H    -105.659000   47.784000  -95.914900
  H    -112.758000   50.427400  -99.088300

 Total Charge           Charge          ....    0
 Multiplicity           Mult            ....    1
 Number of Electrons    NEL             ....  134
 Basis Dimension        Dim             ....  322

ORBITAL ENERGIES
----------------

  NO   OCC          E(Eh)            E(eV)
   0   2.0000     -88.966363     -2420.8978
   1   2.0000     -88.966171     -2420.8926
   2   2.0000     -10.331106      -281.1237
   3   2.0000     -10.329728      -281.0862
   4   2.0000     -10.325740      -280.9777
   5   2.0000     -10.320779      -280.8427
   6   2.0000     -10.306487      -280.4538
   7   2.0000     -10.305924      -280.4385
   8   2.0000     -10.302486      -280.3449
   9   2.0000     -10.297328      -280.2045
  10   2.0000     -10.292967      -280.0859
  11   2.0000     -10.292359      -280.0693
  12   2.0000     -10.288552      -279.9657
  13   2.0000     -10.288044      -279.9519
  14   2.0000     -10.282072      -279.7894
  15   2.0000     -10.279335      -279.7149
  16   2.0000      -8.080694      -219.8869
  17   2.0000      -8.080297      -219.8761
  18   2.0000      -6.039081      -164.3317
  19   2.0000      -6.038914      -164.3272
  20   2.0000      -6.035187      -164.2258
  21   2.0000      -6.034914      -164.2184
  22   2.0000      -6.031685      -164.1305
  23   2.0000      -6.030940      -164.1102
  24   2.0000      -0.999764       -27.2050
  25   2.0000      -0.977331       -26.5945
  26   2.0000      -0.915576       -24.9141
  27   2.0000      -0.902122       -24.5480
  28   2.0000      -0.862304       -23.4645
  29   2.0000      -0.851376       -23.1671
  30   2.0000      -0.845004       -22.9937
  31   2.0000      -0.806268       -21.9397
  32   2.0000      -0.782371       -21.2894
  33   2.0000      -0.769728       -20.9454
  34   2.0000      -0.708490       -19.2790
  35   2.0000      -0.702474       -19.1153
  36   2.0000      -0.691444       -18.8152
  37   2.0000      -0.658381       -17.9155
  38   2.0000      -0.639789       -17.4095
  39   2.0000      -0.615134       -16.7387
  40   2.0000      -0.594458       -16.1760
  41   2.0000      -0.568021       -15.4566
  42   2.0000      -0.560085       -15.2407
  43   2.0000      -0.548443       -14.9239
  44   2.0000      -0.535367       -14.5681
  45   2.0000      -0.520550       -14.1649
  46   2.0000      -0.516070       -14.0430
  47   2.0000      -0.509283       -13.8583
  48   2.0000      -0.504703       -13.7337
  49   2.0000      -0.490586       -13.3495
  50   2.0000      -0.486786       -13.2461
  51   2.0000      -0.483021       -13.1437
  52   2.0000      -0.471681       -12.8351
  53   2.0000      -0.460922       -12.5423
  54   2.0000      -0.458052       -12.4642
  55   2.0000      -0.453205       -12.3323
  56   2.0000      -0.445526       -12.1234
  57   2.0000      -0.441432       -12.0120
  58   2.0000      -0.429695       -11.6926
  59   2.0000      -0.426050       -11.5934
  60   2.0000      -0.420244       -11.4354
  61   2.0000      -0.413953       -11.2642
  62   2.0000      -0.406936       -11.0733
  63   2.0000      -0.344430        -9.3724
  64   2.0000      -0.329710        -8.9719
  65   2.0000      -0.328792        -8.9469
  66   2.0000      -0.287576        -7.8253
  67   0.0000       0.022683         0.6172
  68   0.0000       0.068735         1.8704
  69   0.0000       0.108172         2.9435
  70   0.0000       0.117702         3.2028
  71   0.0000       0.125254         3.4083

MULLIKEN ATOMIC CHARGES
-----------------------
   0 S :    0.102276
   1 C :   -0.137964
   2 C :   -0.102810
   3 C :    0.019015
   4 C :   -0.177765
   5 H :    0.038310
   6 C :    0.044575
   7 H :    0.012259
   8 H :    0.032651
   9 C :   -0.039364
  10 H :    0.035791
  11 H :    0.043348
  12 C :   -0.056284
  13 H :    0.015453
  14 H :    0.032322
  15 H :    0.056396
  16 S :    0.103006
  17 C :   -0.118547
  18 C :   -0.028798
  19 C :   -0.025832
  20 C :   -0.133469
  21 H :    0.017550
  22 C :    0.059769
  23 H :    0.027704
  24 H :    0.027795
  25 C :   -0.069170
  26 H :    0.012668
  27 H :    0.011794
  28 C :   -0.064807
  29 H :    0.036197
  30 H :    0.034905
  31 H :    0.037884
  32 H :    0.064730
  33 H :    0.088409
Sum of atomic charges:    0.0000000

LOEWDIN ATOMIC CHARGES
----------------------
   0 S :    0.400903
   1 C :   -0.197530
   2 C :   -0.060654
   3 C :   -0.063277
   4 C :   -0.195234
   5 H :    0.042740
   6 C :   -0.043613
   7 H :    0.028118
   8 H :    0.034210
   9 C :   -0.034203
  10 H :    0.023347
  11 H :    0.035112
  12 C :   -0.064657
  13 H :    0.014139
  14 H :    0.025682
  15 H :    0.037612
  16 S :    0.396077
  17 C :   -0.195184
  18 C :   -0.074230
  19 C :   -0.054973
  20 C :   -0.199529
  21 H :    0.029119
  22 C :   -0.029449
  23 H :    0.029879
  24 H :    0.030302
  25 C :   -0.048102
  26 H :    0.017871
  27 H :    0.021629
  28 C :   -0.069241
  29 H :    0.024736
  30 H :    0.028454
  31 H :    0.031522
  32 H :    0.030240
  33 H :    0.048186

  Mayer bond orders larger than 0.100000
B(  0-S ,  1-C ) :   1.1447 B(  0-S ,  4-C ) :   1.1630 B(  1-C ,  2-C ) :   1.5740
B(  1-C ,  4-C ) :   0.1010 B(  1-C , 32-H ) :   0.9700 B(  2-C ,  3-C ) :   1.2544
B(  2-C ,  6-C ) :   1.0173 B(  3-C ,  4-C ) :   1.5538 B(  3-C ,  5-H ) :   0.9800
B(  4-C , 20-C ) :   1.0484 B(  6-C ,  7-H ) :   0.9342 B(  6-C ,  8-H ) :   0.9388
B(  6-C ,  9-C ) :   1.0655 B(  9-C , 10-H ) :   0.9585 B(  9-C , 11-H ) :   0.9577
B(  9-C , 12-C ) :   1.0627 B( 12-C , 13-H ) :   0.9785 B( 12-C , 14-H ) :   0.9729
B( 12-C , 15-H ) :   0.9738 B( 16-S , 17-C ) :   1.1605 B( 16-S , 20-C ) :   1.1339
B( 17-C , 18-C ) :   1.5779 B( 17-C , 20-C ) :   0.1026 B( 17-C , 33-H ) :   0.9576
B( 18-C , 19-C ) :   1.2652 B( 18-C , 21-H ) :   0.9921 B( 19-C , 20-C ) :   1.5763
B( 19-C , 22-C ) :   1.0412 B( 22-C , 23-H ) :   0.9365 B( 22-C , 24-H ) :   0.9416
B( 22-C , 25-C ) :   1.0446 B( 25-C , 26-H ) :   0.9593 B( 25-C , 27-H ) :   0.9515
B( 25-C , 28-C ) :   1.0743 B( 28-C , 29-H ) :   0.9800 B( 28-C , 30-H ) :   0.9756
B( 28-C , 31-H ) :   0.9763

Dispersion correction           -0.014152303
FINAL SINGLE POINT ENERGY     -1339.871978623965

DIPOLE MOMENT
-------------
                                X             Y             Z
Electronic contribution:    -17.81029     -17.78504       3.66712
Nuclear contribution   :     18.15427      18.35661      -3.76404
                        -----------------------------------------
Total Dipole Moment    :      0.34397       0.57157      -0.09692
                        -----------------------------------------
Magnitude (a.u.)       :      0.67409
Magnitude (Debye)      :      1.71341

Rotational constants in cm-1:     0.017776     0.008553     0.006482
Rotational constants in MHz :   532.924385   256.417848   194.317080

                             ****ORCA TERMINATED NORMALLY****
TOTAL RUN TIME: 0 days 0 hours 0 minutes 21 seconds 221 msec
