                         Program Version 4.2.1 -  RELEASE  -
|  1> ! wB97X-D3 SP def2-SVP
|  2> %pal
|  3> nprocs 24
|  4> end
|  5>
|  6> * xyz 0 1
|  7> S 	 -91.8597 	 -30.6791 	 -73.2135
|  8> C 	 -90.9321 	 -32.1527 	 -73.378
|  9> C 	 -89.581 	 -31.9994 	 -73.2145
| 10> C 	 -89.233 	 -30.63 	 -73.0931
| 11> C 	 -90.3411 	 -29.8102 	 -73.0971
| 12> H 	 -88.2414 	 -30.2352 	 -72.9635
| 13> C 	 -88.6527 	 -33.1629 	 -73.2723
| 14> H 	 -88.8373 	 -33.8508 	 -72.4267
| 15> H 	 -87.6202 	 -32.8407 	 -73.0725
| 16> C 	 -88.7043 	 -34.0647 	 -74.4834
| 17> H 	 -88.0106 	 -34.8744 	 -74.4167
| 18> H 	 -89.6657 	 -34.5191 	 -74.5937
| 19> C 	 -88.3964 	 -33.3402 	 -75.858
| 20> H 	 -88.1652 	 -34.1112 	 -76.6705
| 21> H 	 -89.1944 	 -32.7025 	 -76.2267
| 22> H 	 -87.4974 	 -32.7963 	 -75.7753
| 23> S 	 -90.1486 	 -27.8206 	 -71.1215
| 24> C 	 -90.3437 	 -26.1638 	 -71.6206
| 25> C 	 -90.8665 	 -26.0824 	 -72.8889
| 26> C 	 -90.7075 	 -27.3223 	 -73.6559
| 27> C 	 -90.3373 	 -28.3622 	 -72.7907
| 28> H 	 -91.1915 	 -25.2109 	 -73.33
| 29> C 	 -91.2187 	 -27.6148 	 -75.0381
| 30> H 	 -91.6943 	 -26.7308 	 -75.3681
| 31> H 	 -92.0489 	 -28.3801 	 -74.8961
| 32> C 	 -90.0875 	 -28.0429 	 -76.072
| 33> H 	 -90.5895 	 -28.8533 	 -76.6569
| 34> H 	 -89.2198 	 -28.4236 	 -75.5084
| 35> C 	 -89.7802 	 -27.0575 	 -77.1566
| 36> H 	 -90.5269 	 -26.921 	 -77.8425
| 37> H 	 -88.8906 	 -27.4398 	 -77.6564
| 38> H 	 -89.6268 	 -26.0889 	 -76.6878
| 39> H 	 -91.3604 	 -33.1361 	 -73.5431
| 40> H 	 -90.2189 	 -25.2954 	 -70.9781
| 41> *
| 42>
| 43>                          ****END OF INPUT****

CARTESIAN COORDINATES (ANGSTROEM)
---------------------------------
  S    -91.859700  -30.679100  -73.213500
  C    -90.932100  -32.152700  -73.378000
  C    -89.581000  -31.999400  -73.214500
  C    -89.233000  -30.630000  -73.093100
  C    -90.341100  -29.810200  -73.097100
  H    -88.241400  -30.235200  -72.963500
  C    -88.652700  -33.162900  -73.272300
  H    -88.837300  -33.850800  -72.426700
  H    -87.620200  -32.840700  -73.072500
  C    -88.704300  -34.064700  -74.483400
  H    -88.010600  -34.874400  -74.416700
  H    -89.665700  -34.519100  -74.593700
  C    -88.396400  -33.340200  -75.858000
  H    -88.165200  -34.111200  -76.670500
  H    -89.194400  -32.702500  -76.226700
  H    -87.497400  -32.796300  -75.775300
  S    -90.148600  -27.820600  -71.121500
  C    -90.343700  -26.163800  -71.620600
  C    -90.866500  -26.082400  -72.888900
  C    -90.707500  -27.322300  -73.655900
  C    -90.337300  -28.362200  -72.790700
  H    -91.191500  -25.210900  -73.330000
  C    -91.218700  -27.614800  -75.038100
  H    -91.694300  -26.730800  -75.368100
  H    -92.048900  -28.380100  -74.896100
  C    -90.087500  -28.042900  -76.072000
  H    -90.589500  -28.853300  -76.656900
  H    -89.219800  -28.423600  -75.508400
  C    -89.780200  -27.057500  -77.156600
  H    -90.526900  -26.921000  -77.842500
  H    -88.890600  -27.439800  -77.656400
  H    -89.626800  -26.088900  -76.687800
  H    -91.360400  -33.136100  -73.543100
  H    -90.218900  -25.295400  -70.978100

 Total Charge           Charge          ....    0
 Multiplicity           Mult            ....    1
 Number of Electrons    NEL             ....  134
 Basis Dimension        Dim             ....  322

ORBITAL ENERGIES
----------------

  NO   OCC          E(Eh)            E(eV)
   0   2.0000     -88.970019     -2420.9973
   1   2.0000     -88.963657     -2420.8242
   2   2.0000     -10.325915      -280.9824
   3   2.0000     -10.320530      -280.8359
   4   2.0000     -10.315632      -280.7026
   5   2.0000     -10.310415      -280.5606
   6   2.0000     -10.300749      -280.2976
   7   2.0000     -10.296653      -280.1862
   8   2.0000     -10.293555      -280.1019
   9   2.0000     -10.291897      -280.0568
  10   2.0000     -10.289765      -279.9987
  11   2.0000     -10.289584      -279.9938
  12   2.0000     -10.285463      -279.8817
  13   2.0000     -10.284470      -279.8547
  14   2.0000     -10.276524      -279.6384
  15   2.0000     -10.266204      -279.3576
  16   2.0000      -8.084325      -219.9857
  17   2.0000      -8.078229      -219.8198
  18   2.0000      -6.042739      -164.4313
  19   2.0000      -6.039031      -164.3304
  20   2.0000      -6.036763      -164.2687
  21   2.0000      -6.035091      -164.2232
  22   2.0000      -6.032887      -164.1632
  23   2.0000      -6.028856      -164.0535
  24   2.0000      -1.004320       -27.3289
  25   2.0000      -0.981661       -26.7123
  26   2.0000      -0.913219       -24.8499
  27   2.0000      -0.903544       -24.5867
  28   2.0000      -0.861999       -23.4562
  29   2.0000      -0.852068       -23.1860
  30   2.0000      -0.848644       -23.0928
  31   2.0000      -0.812972       -22.1221
  32   2.0000      -0.783329       -21.3155
  33   2.0000      -0.767897       -20.8955
  34   2.0000      -0.707371       -19.2486
  35   2.0000      -0.702028       -19.1031
  36   2.0000      -0.683830       -18.6080
  37   2.0000      -0.661217       -17.9926
  38   2.0000      -0.640836       -17.4380
  39   2.0000      -0.610781       -16.6202
  40   2.0000      -0.591406       -16.0930
  41   2.0000      -0.577184       -15.7060
  42   2.0000      -0.554308       -15.0835
  43   2.0000      -0.544998       -14.8301
  44   2.0000      -0.540247       -14.7009
  45   2.0000      -0.534696       -14.5498
  46   2.0000      -0.523522       -14.2457
  47   2.0000      -0.511114       -13.9081
  48   2.0000      -0.500012       -13.6060
  49   2.0000      -0.489877       -13.3302
  50   2.0000      -0.487944       -13.2776
  51   2.0000      -0.474042       -12.8993
  52   2.0000      -0.472074       -12.8458
  53   2.0000      -0.463456       -12.6113
  54   2.0000      -0.460091       -12.5197
  55   2.0000      -0.453093       -12.3293
  56   2.0000      -0.448771       -12.2117
  57   2.0000      -0.436620       -11.8810
  58   2.0000      -0.429004       -11.6738
  59   2.0000      -0.426827       -11.6146
  60   2.0000      -0.423695       -11.5293
  61   2.0000      -0.417220       -11.3531
  62   2.0000      -0.399284       -10.8651
  63   2.0000      -0.337151        -9.1743
  64   2.0000      -0.326777        -8.8920
  65   2.0000      -0.318069        -8.6551
  66   2.0000      -0.304357        -8.2820
  67   0.0000       0.036157         0.9839
  68   0.0000       0.059374         1.6156
  69   0.0000       0.105403         2.8682
  70   0.0000       0.111513         3.0344
  71   0.0000       0.127006         3.4560

MULLIKEN ATOMIC CHARGES
-----------------------
   0 S :    0.127118
   1 C :   -0.131902
   2 C :   -0.065170
   3 C :    0.045063
   4 C :   -0.180117
   5 H :    0.009245
   6 C :    0.073259
   7 H :    0.037258
   8 H :    0.015320
   9 C :   -0.056484
  10 H :    0.023311
  11 H :    0.020077
  12 C :   -0.074039
  13 H :    0.034405
  14 H :    0.047588
  15 H :    0.018390
  16 S :    0.120073
  17 C :   -0.094048
  18 C :    0.008703
  19 C :   -0.077450
  20 C :   -0.163101
  21 H :   -0.011654
  22 C :    0.065278
  23 H :   -0.002735
  24 H :    0.046494
  25 C :   -0.086122
  26 H :    0.030092
  27 H :    0.048922
  28 C :   -0.000910
  29 H :    0.012660
  30 H :    0.036621
  31 H :    0.020787
  32 H :    0.042321
  33 H :    0.060746
Sum of atomic charges:    0.0000000

LOEWDIN ATOMIC CHARGES
----------------------
   0 S :    0.414601
   1 C :   -0.191471
   2 C :   -0.067077
   3 C :   -0.050335
   4 C :   -0.193611
   5 H :    0.032838
   6 C :   -0.037922
   7 H :    0.040167
   8 H :    0.029481
   9 C :   -0.033881
  10 H :    0.023204
  11 H :    0.017706
  12 C :   -0.068135
  13 H :    0.032469
  14 H :    0.025602
  15 H :    0.014711
  16 S :    0.402354
  17 C :   -0.186727
  18 C :   -0.060866
  19 C :   -0.054374
  20 C :   -0.207194
  21 H :    0.014210
  22 C :   -0.036392
  23 H :    0.018530
  24 H :    0.034974
  25 C :   -0.039042
  26 H :    0.031789
  27 H :    0.028126
  28 C :   -0.056569
  29 H :    0.011795
  30 H :    0.032899
  31 H :    0.021826
  32 H :    0.024817
  33 H :    0.031497

  Mayer bond orders larger than 0.100000
B(  0-S ,  1-C ) :   1.1414 B(  0-S ,  4-C ) :   1.1527 B(  1-C ,  2-C ) :   1.6158
B(  1-C , 32-H ) :   0.9674 B(  2-C ,  3-C ) :   1.2335 B(  2-C ,  6-C ) :   1.0219
B(  3-C ,  4-C ) :   1.5858 B(  3-C ,  5-H ) :   1.0013 B(  4-C , 20-C ) :   1.0177
B(  6-C ,  7-H ) :   0.9280 B(  6-C ,  8-H ) :   0.9409 B(  6-C ,  9-C ) :   1.0900
B(  9-C , 10-H ) :   0.9538 B(  9-C , 11-H ) :   0.9538 B(  9-C , 12-C ) :   1.0688
B( 12-C , 13-H ) :   0.9769 B( 12-C , 14-H ) :   0.9771 B( 12-C , 15-H ) :   0.9785
B( 16-S , 17-C ) :   1.1516 B( 16-S , 20-C ) :   1.1430 B( 17-C , 18-C ) :   1.6112
B( 17-C , 33-H ) :   0.9674 B( 18-C , 19-C ) :   1.2431 B( 18-C , 21-H ) :   0.9924
B( 19-C , 20-C ) :   1.5853 B( 19-C , 22-C ) :   1.0459 B( 22-C , 23-H ) :   0.9367
B( 22-C , 24-H ) :   0.9359 B( 22-C , 25-C ) :   1.0249 B( 25-C , 26-H ) :   0.9551
B( 25-C , 27-H ) :   0.9681 B( 25-C , 28-C ) :   1.0886 B( 28-C , 29-H ) :   0.9747
B( 28-C , 30-H ) :   0.9709 B( 28-C , 31-H ) :   0.9734

Dispersion correction           -0.014962318
FINAL SINGLE POINT ENERGY     -1339.869507172450

DIPOLE MOMENT
-------------
                                X             Y             Z
Electronic contribution:    -10.03229       8.59279      22.44742
Nuclear contribution   :     10.16629      -8.75917     -22.77055
                        -----------------------------------------
Total Dipole Moment    :      0.13400      -0.16638      -0.32313
                        -----------------------------------------
Magnitude (a.u.)       :      0.38736
Magnitude (Debye)      :      0.98460

Rotational constants in cm-1:     0.019524     0.008912     0.007178
Rotational constants in MHz :   585.329236   267.170812   215.192068

                             ****ORCA TERMINATED NORMALLY****
TOTAL RUN TIME: 0 days 0 hours 0 minutes 22 seconds 260 msec
