                         Program Version 4.2.1 -  RELEASE  -
|  1> ! wB97X-D3 SP def2-SVP
|  2> %pal
|  3> nprocs 24
|  4> end
|  5>
|  6> * xyz 0 1
|  7> S 	 -78.4364 	 -4.36213 	 -59.1994
|  8> C 	 -77.9806 	 -2.86358 	 -59.8519
|  9> C 	 -78.6693 	 -2.50667 	 -60.9951
| 10> C 	 -79.5478 	 -3.6102 	 -61.3824
| 11> C 	 -79.558 	 -4.67894 	 -60.4998
| 12> H 	 -80.2187 	 -3.60556 	 -62.2134
| 13> C 	 -78.6334 	 -1.18754 	 -61.6883
| 14> H 	 -78.9358 	 -0.541034 	 -60.8527
| 15> H 	 -79.3504 	 -1.00316 	 -62.4593
| 16> C 	 -77.3472 	 -0.705331 	 -62.3022
| 17> H 	 -76.4172 	 -0.911289 	 -61.7253
| 18> H 	 -77.285 	 -1.328 	 -63.1865
| 19> C 	 -77.219 	 0.812318 	 -62.6588
| 20> H 	 -77.3199 	 1.53889 	 -61.9293
| 21> H 	 -76.2724 	 0.902841 	 -63.165
| 22> H 	 -77.9193 	 1.10229 	 -63.4836
| 23> S 	 -79.4733 	 -7.33647 	 -60.7188
| 24> C 	 -80.9819 	 -8.21456 	 -60.891
| 25> C 	 -82.1121 	 -7.50067 	 -60.6957
| 26> C 	 -81.7488 	 -6.10266 	 -60.5172
| 27> C 	 -80.3652 	 -5.88839 	 -60.5833
| 28> H 	 -83.0953 	 -8.00187 	 -60.7771
| 29> C 	 -82.7679 	 -5.02608 	 -60.4013
| 30> H 	 -82.5845 	 -4.4573 	 -61.2815
| 31> H 	 -82.4417 	 -4.42775 	 -59.5722
| 32> C 	 -84.2339 	 -5.42948 	 -60.2603
| 33> H 	 -84.5554 	 -6.19123 	 -60.9518
| 34> H 	 -84.7464 	 -4.52419 	 -60.5209
| 35> C 	 -84.5821 	 -6.03014 	 -58.8801
| 36> H 	 -84.1813 	 -6.99593 	 -58.7824
| 37> H 	 -85.6644 	 -6.14197 	 -58.7375
| 38> H 	 -84.1693 	 -5.27687 	 -58.1737
| 39> H 	 -77.1793 	 -2.37956 	 -59.3087
| 40> H 	 -81.0859 	 -9.24773 	 -61.0954
| 41> *
| 42>
| 43>                          ****END OF INPUT****

CARTESIAN COORDINATES (ANGSTROEM)
---------------------------------
  S    -78.436400   -4.362130  -59.199400
  C    -77.980600   -2.863580  -59.851900
  C    -78.669300   -2.506670  -60.995100
  C    -79.547800   -3.610200  -61.382400
  C    -79.558000   -4.678940  -60.499800
  H    -80.218700   -3.605560  -62.213400
  C    -78.633400   -1.187540  -61.688300
  H    -78.935800   -0.541034  -60.852700
  H    -79.350400   -1.003160  -62.459300
  C    -77.347200   -0.705331  -62.302200
  H    -76.417200   -0.911289  -61.725300
  H    -77.285000   -1.328000  -63.186500
  C    -77.219000    0.812318  -62.658800
  H    -77.319900    1.538890  -61.929300
  H    -76.272400    0.902841  -63.165000
  H    -77.919300    1.102290  -63.483600
  S    -79.473300   -7.336470  -60.718800
  C    -80.981900   -8.214560  -60.891000
  C    -82.112100   -7.500670  -60.695700
  C    -81.748800   -6.102660  -60.517200
  C    -80.365200   -5.888390  -60.583300
  H    -83.095300   -8.001870  -60.777100
  C    -82.767900   -5.026080  -60.401300
  H    -82.584500   -4.457300  -61.281500
  H    -82.441700   -4.427750  -59.572200
  C    -84.233900   -5.429480  -60.260300
  H    -84.555400   -6.191230  -60.951800
  H    -84.746400   -4.524190  -60.520900
  C    -84.582100   -6.030140  -58.880100
  H    -84.181300   -6.995930  -58.782400
  H    -85.664400   -6.141970  -58.737500
  H    -84.169300   -5.276870  -58.173700
  H    -77.179300   -2.379560  -59.308700
  H    -81.085900   -9.247730  -61.095400

 Total Charge           Charge          ....    0
 Multiplicity           Mult            ....    1
 Number of Electrons    NEL             ....  134
 Basis Dimension        Dim             ....  322

ORBITAL ENERGIES
----------------

  NO   OCC          E(Eh)            E(eV)
   0   2.0000     -88.963192     -2420.8115
   1   2.0000     -88.962079     -2420.7812
   2   2.0000     -10.324361      -280.9401
   3   2.0000     -10.317134      -280.7435
   4   2.0000     -10.309738      -280.5422
   5   2.0000     -10.307868      -280.4914
   6   2.0000     -10.304946      -280.4118
   7   2.0000     -10.302624      -280.3487
   8   2.0000     -10.293338      -280.0960
   9   2.0000     -10.293320      -280.0955
  10   2.0000     -10.288358      -279.9605
  11   2.0000     -10.287540      -279.9382
  12   2.0000     -10.283162      -279.8191
  13   2.0000     -10.281141      -279.7641
  14   2.0000     -10.277517      -279.6655
  15   2.0000     -10.276776      -279.6453
  16   2.0000      -8.078775      -219.8346
  17   2.0000      -8.078162      -219.8180
  18   2.0000      -6.037236      -164.2815
  19   2.0000      -6.036457      -164.2603
  20   2.0000      -6.033296      -164.1743
  21   2.0000      -6.032402      -164.1500
  22   2.0000      -6.029406      -164.0685
  23   2.0000      -6.029160      -164.0618
  24   2.0000      -1.009003       -27.4564
  25   2.0000      -0.986906       -26.8551
  26   2.0000      -0.915155       -24.9026
  27   2.0000      -0.912812       -24.8389
  28   2.0000      -0.872333       -23.7374
  29   2.0000      -0.850801       -23.1515
  30   2.0000      -0.846567       -23.0363
  31   2.0000      -0.819990       -22.3131
  32   2.0000      -0.786832       -21.4108
  33   2.0000      -0.771228       -20.9862
  34   2.0000      -0.707551       -19.2534
  35   2.0000      -0.703183       -19.1346
  36   2.0000      -0.693189       -18.8626
  37   2.0000      -0.657924       -17.9030
  38   2.0000      -0.646857       -17.6019
  39   2.0000      -0.615100       -16.7377
  40   2.0000      -0.598265       -16.2796
  41   2.0000      -0.581028       -15.8106
  42   2.0000      -0.562331       -15.3018
  43   2.0000      -0.553323       -15.0567
  44   2.0000      -0.534657       -14.5488
  45   2.0000      -0.529088       -14.3972
  46   2.0000      -0.521367       -14.1871
  47   2.0000      -0.511999       -13.9322
  48   2.0000      -0.508998       -13.8505
  49   2.0000      -0.496372       -13.5070
  50   2.0000      -0.493269       -13.4225
  51   2.0000      -0.478447       -13.0192
  52   2.0000      -0.473074       -12.8730
  53   2.0000      -0.469211       -12.7679
  54   2.0000      -0.462728       -12.5915
  55   2.0000      -0.451369       -12.2824
  56   2.0000      -0.438799       -11.9403
  57   2.0000      -0.437339       -11.9006
  58   2.0000      -0.431106       -11.7310
  59   2.0000      -0.425060       -11.5665
  60   2.0000      -0.422929       -11.5085
  61   2.0000      -0.417172       -11.3518
  62   2.0000      -0.414083       -11.2678
  63   2.0000      -0.344117        -9.3639
  64   2.0000      -0.328001        -8.9254
  65   2.0000      -0.321070        -8.7368
  66   2.0000      -0.293667        -7.9911
  67   0.0000       0.042679         1.1614
  68   0.0000       0.067078         1.8253
  69   0.0000       0.117581         3.1995
  70   0.0000       0.120332         3.2744
  71   0.0000       0.134515         3.6603

MULLIKEN ATOMIC CHARGES
-----------------------
   0 S :    0.118381
   1 C :   -0.144058
   2 C :   -0.056675
   3 C :    0.040346
   4 C :   -0.177260
   5 H :    0.000307
   6 C :    0.091101
   7 H :    0.033814
   8 H :    0.011932
   9 C :   -0.098436
  10 H :    0.032635
  11 H :    0.027107
  12 C :   -0.032335
  13 H :    0.027849
  14 H :    0.028317
  15 H :    0.021739
  16 S :    0.122121
  17 C :   -0.057996
  18 C :   -0.067369
  19 C :   -0.058927
  20 C :   -0.179048
  21 H :    0.035985
  22 C :    0.096021
  23 H :    0.024927
  24 H :    0.029812
  25 C :   -0.052598
  26 H :    0.017917
  27 H :    0.025886
  28 C :   -0.044618
  29 H :    0.027070
  30 H :    0.037264
  31 H :    0.037990
  32 H :    0.052449
  33 H :    0.028346
Sum of atomic charges:    0.0000000

LOEWDIN ATOMIC CHARGES
----------------------
   0 S :    0.426654
   1 C :   -0.208239
   2 C :   -0.060174
   3 C :   -0.056727
   4 C :   -0.208737
   5 H :    0.024871
   6 C :   -0.040345
   7 H :    0.037931
   8 H :    0.028313
   9 C :   -0.041324
  10 H :    0.024839
  11 H :    0.026389
  12 C :   -0.061740
  13 H :    0.014102
  14 H :    0.029433
  15 H :    0.027243
  16 S :    0.423480
  17 C :   -0.174909
  18 C :   -0.079747
  19 C :   -0.044240
  20 C :   -0.228081
  21 H :    0.041471
  22 C :   -0.034461
  23 H :    0.033355
  24 H :    0.034495
  25 C :   -0.038381
  26 H :    0.018716
  27 H :    0.025458
  28 C :   -0.058700
  29 H :    0.016758
  30 H :    0.028353
  31 H :    0.030528
  32 H :    0.024216
  33 H :    0.019199

  Mayer bond orders larger than 0.100000
B(  0-S ,  1-C ) :   1.1683 B(  0-S ,  4-C ) :   1.1592 B(  1-C ,  2-C ) :   1.5752
B(  1-C , 32-H ) :   0.9729 B(  2-C ,  3-C ) :   1.2452 B(  2-C ,  6-C ) :   1.0156
B(  3-C ,  4-C ) :   1.5786 B(  3-C ,  5-H ) :   0.9990 B(  4-C , 20-C ) :   1.0220
B(  6-C ,  7-H ) :   0.9350 B(  6-C ,  8-H ) :   0.9446 B(  6-C ,  9-C ) :   1.0546
B(  9-C , 10-H ) :   0.9631 B(  9-C , 11-H ) :   0.9552 B(  9-C , 12-C ) :   1.0789
B( 12-C , 13-H ) :   0.9797 B( 12-C , 14-H ) :   0.9731 B( 12-C , 15-H ) :   0.9734
B( 16-S , 17-C ) :   1.1530 B( 16-S , 20-C ) :   1.1440 B( 17-C , 18-C ) :   1.6563
B( 17-C , 33-H ) :   0.9593 B( 18-C , 19-C ) :   1.2117 B( 18-C , 21-H ) :   0.9796
B( 19-C , 20-C ) :   1.6143 B( 19-C , 22-C ) :   1.0216 B( 22-C , 23-H ) :   0.9235
B( 22-C , 24-H ) :   0.9190 B( 22-C , 25-C ) :   1.0948 B( 25-C , 26-H ) :   0.9485
B( 25-C , 27-H ) :   0.9518 B( 25-C , 28-C ) :   1.0694 B( 28-C , 29-H ) :   0.9766
B( 28-C , 30-H ) :   0.9742 B( 28-C , 31-H ) :   0.9770

Dispersion correction           -0.013696512
FINAL SINGLE POINT ENERGY     -1339.868473076275

DIPOLE MOMENT
-------------
                                X             Y             Z
Electronic contribution:     11.18513     -19.19113       6.39683
Nuclear contribution   :    -11.60826      19.59142      -6.66525
                        -----------------------------------------
Total Dipole Moment    :     -0.42313       0.40029      -0.26843
                        -----------------------------------------
Magnitude (a.u.)       :      0.64134
Magnitude (Debye)      :      1.63017

Rotational constants in cm-1:     0.022978     0.006758     0.005902
Rotational constants in MHz :   688.858843   202.594990   176.941027

                             ****ORCA TERMINATED NORMALLY****
TOTAL RUN TIME: 0 days 0 hours 0 minutes 21 seconds 191 msec
