                         Program Version 4.2.1 -  RELEASE  -
|  1> ! wB97X-D3 SP def2-SVP
|  2> %pal
|  3> nprocs 24
|  4> end
|  5>
|  6> * xyz 0 1
|  7> S 	 -49.2654 	 13.2976 	 26.6568
|  8> C 	 -49.183 	 13.3992 	 24.9471
|  9> C 	 -50.3309 	 12.9363 	 24.2649
| 10> C 	 -51.2061 	 12.4405 	 25.2123
| 11> C 	 -50.8682 	 12.5471 	 26.5688
| 12> H 	 -52.1237 	 12.0109 	 24.8786
| 13> C 	 -50.5848 	 12.956 	 22.7694
| 14> H 	 -51.5713 	 12.6182 	 22.4894
| 15> H 	 -49.8565 	 12.2636 	 22.2866
| 16> C 	 -50.3754 	 14.2508 	 22.0934
| 17> H 	 -49.3401 	 14.6914 	 22.0258
| 18> H 	 -50.6183 	 14.1423 	 21.0489
| 19> C 	 -51.3711 	 15.3023 	 22.7407
| 20> H 	 -52.2905 	 15.0992 	 22.2704
| 21> H 	 -51.4655 	 15.1334 	 23.808
| 22> H 	 -50.9658 	 16.3373 	 22.7936
| 23> S 	 -50.7762 	 11.7551 	 29.184
| 24> C 	 -52.2417 	 11.6226 	 30.1097
| 25> C 	 -53.3134 	 12.015 	 29.4072
| 26> C 	 -52.9777 	 12.3162 	 28.0586
| 27> C 	 -51.6148 	 12.2827 	 27.82
| 28> H 	 -54.2815 	 11.9923 	 29.7724
| 29> C 	 -54.0066 	 12.5476 	 26.9777
| 30> H 	 -54.9957 	 12.3465 	 27.4094
| 31> H 	 -53.9064 	 11.7632 	 26.2749
| 32> C 	 -53.8425 	 14.0588 	 26.4096
| 33> H 	 -54.5495 	 14.2183 	 25.572
| 34> H 	 -52.9149 	 14.2274 	 25.7965
| 35> C 	 -54.0516 	 15.0813 	 27.5165
| 36> H 	 -55.0227 	 14.9906 	 28.0264
| 37> H 	 -54.0696 	 16.1234 	 27.1382
| 38> H 	 -53.2222 	 14.9312 	 28.2529
| 39> H 	 -48.3019 	 13.7772 	 24.4578
| 40> H 	 -52.3642 	 11.3332 	 31.1174
| 41> *
| 42>
| 43>                          ****END OF INPUT****

CARTESIAN COORDINATES (ANGSTROEM)
---------------------------------
  S    -49.265400   13.297600   26.656800
  C    -49.183000   13.399200   24.947100
  C    -50.330900   12.936300   24.264900
  C    -51.206100   12.440500   25.212300
  C    -50.868200   12.547100   26.568800
  H    -52.123700   12.010900   24.878600
  C    -50.584800   12.956000   22.769400
  H    -51.571300   12.618200   22.489400
  H    -49.856500   12.263600   22.286600
  C    -50.375400   14.250800   22.093400
  H    -49.340100   14.691400   22.025800
  H    -50.618300   14.142300   21.048900
  C    -51.371100   15.302300   22.740700
  H    -52.290500   15.099200   22.270400
  H    -51.465500   15.133400   23.808000
  H    -50.965800   16.337300   22.793600
  S    -50.776200   11.755100   29.184000
  C    -52.241700   11.622600   30.109700
  C    -53.313400   12.015000   29.407200
  C    -52.977700   12.316200   28.058600
  C    -51.614800   12.282700   27.820000
  H    -54.281500   11.992300   29.772400
  C    -54.006600   12.547600   26.977700
  H    -54.995700   12.346500   27.409400
  H    -53.906400   11.763200   26.274900
  C    -53.842500   14.058800   26.409600
  H    -54.549500   14.218300   25.572000
  H    -52.914900   14.227400   25.796500
  C    -54.051600   15.081300   27.516500
  H    -55.022700   14.990600   28.026400
  H    -54.069600   16.123400   27.138200
  H    -53.222200   14.931200   28.252900
  H    -48.301900   13.777200   24.457800
  H    -52.364200   11.333200   31.117400

 Total Charge           Charge          ....    0
 Multiplicity           Mult            ....    1
 Number of Electrons    NEL             ....  134
 Basis Dimension        Dim             ....  322

ORBITAL ENERGIES
----------------

  NO   OCC          E(Eh)            E(eV)
   0   2.0000     -88.970129     -2421.0003
   1   2.0000     -88.965476     -2420.8737
   2   2.0000     -10.333245      -281.1819
   3   2.0000     -10.321376      -280.8589
   4   2.0000     -10.313267      -280.6383
   5   2.0000     -10.308185      -280.5000
   6   2.0000     -10.300667      -280.2954
   7   2.0000     -10.296114      -280.1715
   8   2.0000     -10.295186      -280.1463
   9   2.0000     -10.292679      -280.0780
  10   2.0000     -10.290877      -280.0290
  11   2.0000     -10.290258      -280.0121
  12   2.0000     -10.288230      -279.9570
  13   2.0000     -10.283207      -279.8203
  14   2.0000     -10.277143      -279.6553
  15   2.0000     -10.273448      -279.5547
  16   2.0000      -8.084848      -219.9999
  17   2.0000      -8.081593      -219.9113
  18   2.0000      -6.043132      -164.4420
  19   2.0000      -6.040048      -164.3581
  20   2.0000      -6.039277      -164.3371
  21   2.0000      -6.035956      -164.2467
  22   2.0000      -6.035922      -164.2458
  23   2.0000      -6.032312      -164.1476
  24   2.0000      -1.014716       -27.6118
  25   2.0000      -0.991525       -26.9808
  26   2.0000      -0.920238       -25.0410
  27   2.0000      -0.900892       -24.5145
  28   2.0000      -0.871780       -23.7223
  29   2.0000      -0.851311       -23.1654
  30   2.0000      -0.842867       -22.9356
  31   2.0000      -0.813116       -22.1260
  32   2.0000      -0.784767       -21.3546
  33   2.0000      -0.769940       -20.9511
  34   2.0000      -0.705711       -19.2034
  35   2.0000      -0.704168       -19.1614
  36   2.0000      -0.689575       -18.7643
  37   2.0000      -0.669967       -18.2307
  38   2.0000      -0.639159       -17.3924
  39   2.0000      -0.622896       -16.9499
  40   2.0000      -0.593508       -16.1502
  41   2.0000      -0.584581       -15.9072
  42   2.0000      -0.555900       -15.1268
  43   2.0000      -0.551918       -15.0185
  44   2.0000      -0.542654       -14.7664
  45   2.0000      -0.535024       -14.5588
  46   2.0000      -0.515641       -14.0313
  47   2.0000      -0.508051       -13.8248
  48   2.0000      -0.503532       -13.7018
  49   2.0000      -0.496325       -13.5057
  50   2.0000      -0.487704       -13.2711
  51   2.0000      -0.474537       -12.9128
  52   2.0000      -0.471009       -12.8168
  53   2.0000      -0.465673       -12.6716
  54   2.0000      -0.465305       -12.6616
  55   2.0000      -0.448015       -12.1911
  56   2.0000      -0.442034       -12.0283
  57   2.0000      -0.436597       -11.8804
  58   2.0000      -0.430954       -11.7268
  59   2.0000      -0.424841       -11.5605
  60   2.0000      -0.422178       -11.4880
  61   2.0000      -0.411841       -11.2068
  62   2.0000      -0.405723       -11.0403
  63   2.0000      -0.355683        -9.6786
  64   2.0000      -0.337469        -9.1830
  65   2.0000      -0.327858        -8.9215
  66   2.0000      -0.281730        -7.6663
  67   0.0000       0.024878         0.6770
  68   0.0000       0.078655         2.1403
  69   0.0000       0.108145         2.9428
  70   0.0000       0.126741         3.4488
  71   0.0000       0.133279         3.6267

MULLIKEN ATOMIC CHARGES
-----------------------
   0 S :    0.118353
   1 C :   -0.124240
   2 C :   -0.097696
   3 C :    0.002446
   4 C :   -0.124459
   5 H :   -0.013133
   6 C :    0.105417
   7 H :    0.014979
   8 H :    0.043316
   9 C :   -0.098701
  10 H :    0.034804
  11 H :    0.026585
  12 C :   -0.060711
  13 H :    0.026339
  14 H :    0.041156
  15 H :    0.039575
  16 S :    0.114177
  17 C :   -0.056810
  18 C :    0.003661
  19 C :   -0.109996
  20 C :   -0.117016
  21 H :   -0.014603
  22 C :    0.089747
  23 H :    0.010787
  24 H :    0.027630
  25 C :   -0.101969
  26 H :    0.016902
  27 H :    0.062160
  28 C :   -0.059088
  29 H :    0.028886
  30 H :    0.036492
  31 H :    0.058948
  32 H :    0.041064
  33 H :    0.034994
Sum of atomic charges:    0.0000000

LOEWDIN ATOMIC CHARGES
----------------------
   0 S :    0.424226
   1 C :   -0.203343
   2 C :   -0.066046
   3 C :   -0.064624
   4 C :   -0.186324
   5 H :    0.022508
   6 C :   -0.030437
   7 H :    0.029954
   8 H :    0.041989
   9 C :   -0.046126
  10 H :    0.025395
  11 H :    0.023006
  12 C :   -0.068401
  13 H :    0.019004
  14 H :    0.024605
  15 H :    0.033494
  16 S :    0.435439
  17 C :   -0.180716
  18 C :   -0.062352
  19 C :   -0.061023
  20 C :   -0.222874
  21 H :    0.021372
  22 C :   -0.025707
  23 H :    0.029603
  24 H :    0.023203
  25 C :   -0.048151
  26 H :    0.019168
  27 H :    0.032709
  28 C :   -0.072129
  29 H :    0.024017
  30 H :    0.029484
  31 H :    0.033556
  32 H :    0.020973
  33 H :    0.024549

  Mayer bond orders larger than 0.100000
B(  0-S ,  1-C ) :   1.1849 B(  0-S ,  4-C ) :   1.1673 B(  1-C ,  2-C ) :   1.5281
B(  1-C ,  4-C ) :   0.1201 B(  1-C , 32-H ) :   0.9687 B(  2-C ,  3-C ) :   1.3337
B(  2-C ,  6-C ) :   1.0187 B(  3-C ,  4-C ) :   1.5046 B(  3-C ,  5-H ) :   0.9978
B(  4-C , 20-C ) :   1.0355 B(  6-C ,  7-H ) :   0.9437 B(  6-C ,  8-H ) :   0.9238
B(  6-C ,  9-C ) :   1.0832 B(  9-C , 10-H ) :   0.9563 B(  9-C , 11-H ) :   0.9586
B(  9-C , 12-C ) :   1.0496 B( 12-C , 13-H ) :   0.9786 B( 12-C , 14-H ) :   0.9787
B( 12-C , 15-H ) :   0.9718 B( 16-S , 17-C ) :   1.1509 B( 16-S , 20-C ) :   1.1574
B( 17-C , 18-C ) :   1.6064 B( 17-C , 33-H ) :   0.9687 B( 18-C , 19-C ) :   1.2602
B( 18-C , 21-H ) :   1.0023 B( 19-C , 20-C ) :   1.5722 B( 19-C , 22-C ) :   1.0317
B( 22-C , 23-H ) :   0.9375 B( 22-C , 24-H ) :   0.9397 B( 22-C , 25-C ) :   1.0447
B( 25-C , 26-H ) :   0.9552 B( 25-C , 27-H ) :   0.9504 B( 25-C , 28-C ) :   1.0702
B( 28-C , 29-H ) :   0.9754 B( 28-C , 30-H ) :   0.9721 B( 28-C , 31-H ) :   0.9718

Dispersion correction           -0.016368477
FINAL SINGLE POINT ENERGY     -1339.870527647843

DIPOLE MOMENT
-------------
                                X             Y             Z
Electronic contribution:     14.93464     -12.80164      19.61540
Nuclear contribution   :    -15.38469      12.83643     -20.06044
                        -----------------------------------------
Total Dipole Moment    :     -0.45005       0.03479      -0.44503
                        -----------------------------------------
Magnitude (a.u.)       :      0.63389
Magnitude (Debye)      :      1.61121

Rotational constants in cm-1:     0.022807     0.009496     0.007542
Rotational constants in MHz :   683.747233   284.678513   226.096598

                             ****ORCA TERMINATED NORMALLY****
TOTAL RUN TIME: 0 days 0 hours 0 minutes 23 seconds 771 msec
