                         Program Version 4.2.1 -  RELEASE  -
|  1> ! wB97X-D3 SP def2-SVP
|  2> %pal
|  3> nprocs 24
|  4> end
|  5>
|  6> * xyz 0 1
|  7> S 	 -55.3897 	 -50.2484 	 -80.0818
|  8> C 	 -55.8156 	 -50.1324 	 -81.8326
|  9> C 	 -55.1205 	 -49.0859 	 -82.3799
| 10> C 	 -54.234 	 -48.4066 	 -81.4718
| 11> C 	 -54.1353 	 -49.0053 	 -80.2367
| 12> H 	 -53.6432 	 -47.565 	 -81.8059
| 13> C 	 -55.317 	 -48.5349 	 -83.7987
| 14> H 	 -55.7605 	 -49.2977 	 -84.5106
| 15> H 	 -54.293 	 -48.2709 	 -84.1754
| 16> C 	 -56.2514 	 -47.3014 	 -83.9117
| 17> H 	 -56.482 	 -47.1874 	 -84.9422
| 18> H 	 -57.21 	 -47.4403 	 -83.4843
| 19> C 	 -55.815 	 -45.9251 	 -83.4278
| 20> H 	 -55.7615 	 -45.9456 	 -82.309
| 21> H 	 -54.8276 	 -45.6328 	 -83.8768
| 22> H 	 -56.4929 	 -45.1942 	 -83.7649
| 23> S 	 -52.3602 	 -49.6521 	 -78.1498
| 24> C 	 -51.9061 	 -48.3713 	 -77.0201
| 25> C 	 -52.469 	 -47.1813 	 -77.376
| 26> C 	 -53.3503 	 -47.1942 	 -78.4752
| 27> C 	 -53.4121 	 -48.4957 	 -79.0729
| 28> H 	 -52.3778 	 -46.3136 	 -76.7628
| 29> C 	 -54.2014 	 -46.0369 	 -78.9401
| 30> H 	 -54.5908 	 -45.6399 	 -77.9885
| 31> H 	 -55.0788 	 -46.4292 	 -79.451
| 32> C 	 -53.5098 	 -45.0006 	 -79.7776
| 33> H 	 -53.0564 	 -45.4029 	 -80.6516
| 34> H 	 -52.7443 	 -44.5353 	 -79.1854
| 35> C 	 -54.464 	 -43.8862 	 -80.1435
| 36> H 	 -55.4027 	 -44.3387 	 -80.4544
| 37> H 	 -54.1545 	 -43.2667 	 -80.9756
| 38> H 	 -54.5677 	 -43.1512 	 -79.3066
| 39> H 	 -56.5981 	 -50.6214 	 -82.3888
| 40> H 	 -51.3981 	 -48.491 	 -76.0529
| 41> *
| 42>
| 43>                          ****END OF INPUT****

CARTESIAN COORDINATES (ANGSTROEM)
---------------------------------
  S    -55.389700  -50.248400  -80.081800
  C    -55.815600  -50.132400  -81.832600
  C    -55.120500  -49.085900  -82.379900
  C    -54.234000  -48.406600  -81.471800
  C    -54.135300  -49.005300  -80.236700
  H    -53.643200  -47.565000  -81.805900
  C    -55.317000  -48.534900  -83.798700
  H    -55.760500  -49.297700  -84.510600
  H    -54.293000  -48.270900  -84.175400
  C    -56.251400  -47.301400  -83.911700
  H    -56.482000  -47.187400  -84.942200
  H    -57.210000  -47.440300  -83.484300
  C    -55.815000  -45.925100  -83.427800
  H    -55.761500  -45.945600  -82.309000
  H    -54.827600  -45.632800  -83.876800
  H    -56.492900  -45.194200  -83.764900
  S    -52.360200  -49.652100  -78.149800
  C    -51.906100  -48.371300  -77.020100
  C    -52.469000  -47.181300  -77.376000
  C    -53.350300  -47.194200  -78.475200
  C    -53.412100  -48.495700  -79.072900
  H    -52.377800  -46.313600  -76.762800
  C    -54.201400  -46.036900  -78.940100
  H    -54.590800  -45.639900  -77.988500
  H    -55.078800  -46.429200  -79.451000
  C    -53.509800  -45.000600  -79.777600
  H    -53.056400  -45.402900  -80.651600
  H    -52.744300  -44.535300  -79.185400
  C    -54.464000  -43.886200  -80.143500
  H    -55.402700  -44.338700  -80.454400
  H    -54.154500  -43.266700  -80.975600
  H    -54.567700  -43.151200  -79.306600
  H    -56.598100  -50.621400  -82.388800
  H    -51.398100  -48.491000  -76.052900

 Total Charge           Charge          ....    0
 Multiplicity           Mult            ....    1
 Number of Electrons    NEL             ....  134
 Basis Dimension        Dim             ....  322

ORBITAL ENERGIES
----------------

  NO   OCC          E(Eh)            E(eV)
   0   2.0000     -88.966112     -2420.8910
   1   2.0000     -88.966085     -2420.8902
   2   2.0000     -10.334060      -281.2041
   3   2.0000     -10.333908      -281.1999
   4   2.0000     -10.320174      -280.8262
   5   2.0000     -10.317923      -280.7650
   6   2.0000     -10.307065      -280.4695
   7   2.0000     -10.305126      -280.4167
   8   2.0000     -10.301614      -280.3212
   9   2.0000     -10.296357      -280.1781
  10   2.0000     -10.291076      -280.0344
  11   2.0000     -10.289740      -279.9981
  12   2.0000     -10.282419      -279.7988
  13   2.0000     -10.281772      -279.7812
  14   2.0000     -10.280351      -279.7426
  15   2.0000     -10.277757      -279.6720
  16   2.0000      -8.079609      -219.8573
  17   2.0000      -8.079488      -219.8540
  18   2.0000      -6.038388      -164.3129
  19   2.0000      -6.038011      -164.3026
  20   2.0000      -6.034333      -164.2026
  21   2.0000      -6.034176      -164.1983
  22   2.0000      -6.030305      -164.0929
  23   2.0000      -6.030062      -164.0863
  24   2.0000      -0.998308       -27.1653
  25   2.0000      -0.977666       -26.6036
  26   2.0000      -0.917373       -24.9630
  27   2.0000      -0.909020       -24.7357
  28   2.0000      -0.869485       -23.6599
  29   2.0000      -0.852904       -23.2087
  30   2.0000      -0.842566       -22.9274
  31   2.0000      -0.815640       -22.1947
  32   2.0000      -0.783792       -21.3281
  33   2.0000      -0.770954       -20.9787
  34   2.0000      -0.709086       -19.2952
  35   2.0000      -0.700888       -19.0721
  36   2.0000      -0.698532       -19.0080
  37   2.0000      -0.658339       -17.9143
  38   2.0000      -0.636293       -17.3144
  39   2.0000      -0.618671       -16.8349
  40   2.0000      -0.597214       -16.2510
  41   2.0000      -0.574890       -15.6436
  42   2.0000      -0.570769       -15.5314
  43   2.0000      -0.547362       -14.8945
  44   2.0000      -0.539159       -14.6713
  45   2.0000      -0.528187       -14.3727
  46   2.0000      -0.517997       -14.0954
  47   2.0000      -0.514750       -14.0070
  48   2.0000      -0.511265       -13.9122
  49   2.0000      -0.499756       -13.5990
  50   2.0000      -0.487694       -13.2708
  51   2.0000      -0.484320       -13.1790
  52   2.0000      -0.466839       -12.7033
  53   2.0000      -0.463237       -12.6053
  54   2.0000      -0.456937       -12.4339
  55   2.0000      -0.450455       -12.2575
  56   2.0000      -0.442579       -12.0432
  57   2.0000      -0.435709       -11.8562
  58   2.0000      -0.433238       -11.7890
  59   2.0000      -0.429482       -11.6868
  60   2.0000      -0.423073       -11.5124
  61   2.0000      -0.415804       -11.3146
  62   2.0000      -0.411357       -11.1936
  63   2.0000      -0.342683        -9.3249
  64   2.0000      -0.333076        -9.0635
  65   2.0000      -0.328962        -8.9515
  66   2.0000      -0.295898        -8.0518
  67   0.0000       0.023657         0.6437
  68   0.0000       0.065175         1.7735
  69   0.0000       0.110975         3.0198
  70   0.0000       0.116374         3.1667
  71   0.0000       0.124339         3.3834

MULLIKEN ATOMIC CHARGES
-----------------------
   0 S :    0.095824
   1 C :   -0.104464
   2 C :   -0.087180
   3 C :    0.016882
   4 C :   -0.103635
   5 H :    0.010723
   6 C :    0.026965
   7 H :    0.037654
   8 H :    0.036637
   9 C :   -0.047445
  10 H :    0.015512
  11 H :    0.013847
  12 C :   -0.061693
  13 H :    0.043491
  14 H :    0.027340
  15 H :    0.029617
  16 S :    0.098785
  17 C :   -0.088719
  18 C :   -0.024188
  19 C :   -0.019175
  20 C :   -0.191587
  21 H :    0.004838
  22 C :    0.050176
  23 H :    0.023767
  24 H :    0.027138
  25 C :   -0.024080
  26 H :    0.020708
  27 H :    0.017197
  28 C :   -0.045929
  29 H :    0.025141
  30 H :    0.027368
  31 H :    0.035897
  32 H :    0.043462
  33 H :    0.069126
Sum of atomic charges:    0.0000000

LOEWDIN ATOMIC CHARGES
----------------------
   0 S :    0.376154
   1 C :   -0.180623
   2 C :   -0.066816
   3 C :   -0.060693
   4 C :   -0.186639
   5 H :    0.029868
   6 C :   -0.033359
   7 H :    0.038654
   8 H :    0.034233
   9 C :   -0.042583
  10 H :    0.020667
  11 H :    0.020959
  12 C :   -0.064894
  13 H :    0.026722
  14 H :    0.025388
  15 H :    0.022284
  16 S :    0.376656
  17 C :   -0.181103
  18 C :   -0.075127
  19 C :   -0.044739
  20 C :   -0.185164
  21 H :    0.026910
  22 C :   -0.031028
  23 H :    0.035346
  24 H :    0.030277
  25 C :   -0.036167
  26 H :    0.019096
  27 H :    0.023644
  28 C :   -0.063851
  29 H :    0.020624
  30 H :    0.024456
  31 H :    0.030240
  32 H :    0.031452
  33 H :    0.039155

  Mayer bond orders larger than 0.100000
B(  0-S ,  1-C ) :   1.1092 B(  0-S ,  4-C ) :   1.1400 B(  1-C ,  2-C ) :   1.6443
B(  1-C , 32-H ) :   0.9678 B(  2-C ,  3-C ) :   1.2245 B(  2-C ,  6-C ) :   1.0236
B(  3-C ,  4-C ) :   1.5688 B(  3-C ,  5-H ) :   0.9989 B(  4-C , 20-C ) :   1.0462
B(  6-C ,  7-H ) :   0.9444 B(  6-C ,  8-H ) :   0.9426 B(  6-C ,  9-C ) :   1.0660
B(  9-C , 10-H ) :   0.9534 B(  9-C , 11-H ) :   0.9498 B(  9-C , 12-C ) :   1.0937
B( 12-C , 13-H ) :   0.9703 B( 12-C , 14-H ) :   0.9721 B( 12-C , 15-H ) :   0.9697
B( 16-S , 17-C ) :   1.1478 B( 16-S , 20-C ) :   1.1328 B( 17-C , 18-C ) :   1.6063
B( 17-C , 20-C ) :   0.1051 B( 17-C , 33-H ) :   0.9613 B( 18-C , 19-C ) :   1.2685
B( 18-C , 21-H ) :   0.9857 B( 19-C , 20-C ) :   1.5598 B( 19-C , 22-C ) :   1.0363
B( 22-C , 23-H ) :   0.9299 B( 22-C , 24-H ) :   0.9291 B( 22-C , 25-C ) :   1.0738
B( 25-C , 26-H ) :   0.9510 B( 25-C , 27-H ) :   0.9505 B( 25-C , 28-C ) :   1.0875
B( 28-C , 29-H ) :   0.9706 B( 28-C , 30-H ) :   0.9732 B( 28-C , 31-H ) :   0.9742

Dispersion correction           -0.015783523
FINAL SINGLE POINT ENERGY     -1339.883200718892

DIPOLE MOMENT
-------------
                                X             Y             Z
Electronic contribution:      7.87506     -27.19220      16.40609
Nuclear contribution   :     -8.14422      27.99256     -16.73810
                        -----------------------------------------
Total Dipole Moment    :     -0.26916       0.80035      -0.33201
                        -----------------------------------------
Magnitude (a.u.)       :      0.90733
Magnitude (Debye)      :      2.30625

Rotational constants in cm-1:     0.017231     0.010618     0.007074
Rotational constants in MHz :   516.557877   318.318867   212.066565

                             ****ORCA TERMINATED NORMALLY****
TOTAL RUN TIME: 0 days 0 hours 0 minutes 22 seconds 863 msec
