                         Program Version 4.2.1 -  RELEASE  -
|  1> ! wB97X-D3 SP def2-SVP
|  2> %pal
|  3> nprocs 24
|  4> end
|  5>
|  6> * xyz 0 1
|  7> S 	 -122.851 	 59.7059 	 -36.5005
|  8> C 	 -121.985 	 58.202 	 -36.3089
|  9> C 	 -121.542 	 58.0664 	 -35.0012
| 10> C 	 -121.964 	 59.1292 	 -34.1924
| 11> C 	 -122.741 	 60.1129 	 -34.8033
| 12> H 	 -121.802 	 59.1283 	 -33.101
| 13> C 	 -120.719 	 56.9074 	 -34.469
| 14> H 	 -119.948 	 57.3547 	 -33.7986
| 15> H 	 -120.046 	 56.5926 	 -35.2885
| 16> C 	 -121.407 	 55.7168 	 -33.7632
| 17> H 	 -121.863 	 55.0822 	 -34.492
| 18> H 	 -120.653 	 55.1343 	 -33.1919
| 19> C 	 -122.587 	 56.0794 	 -32.7504
| 20> H 	 -123.121 	 55.2632 	 -32.2829
| 21> H 	 -122.314 	 56.8078 	 -31.9893
| 22> H 	 -123.349 	 56.6092 	 -33.2687
| 23> S 	 -123.083 	 62.8793 	 -35.2394
| 24> C 	 -123.932 	 63.9405 	 -34.1201
| 25> C 	 -124.247 	 63.2204 	 -32.9616
| 26> C 	 -123.952 	 61.8147 	 -33.0612
| 27> C 	 -123.271 	 61.4061 	 -34.2714
| 28> H 	 -124.874 	 63.6287 	 -32.1548
| 29> C 	 -124.173 	 60.83 	 -31.9268
| 30> H 	 -124.228 	 59.8312 	 -32.3018
| 31> H 	 -125.115 	 61.0668 	 -31.427
| 32> C 	 -123.081 	 60.8016 	 -30.8619
| 33> H 	 -122.916 	 61.8559 	 -30.4723
| 34> H 	 -122.2 	 60.4576 	 -31.4602
| 35> C 	 -123.315 	 59.7912 	 -29.7348
| 36> H 	 -122.54 	 59.6669 	 -29.047
| 37> H 	 -123.431 	 58.789 	 -29.9658
| 38> H 	 -124.194 	 60.1295 	 -29.2047
| 39> H 	 -121.861 	 57.5297 	 -37.0742
| 40> H 	 -124.152 	 64.9258 	 -34.3555
| 41> *
| 42>
| 43>                          ****END OF INPUT****

CARTESIAN COORDINATES (ANGSTROEM)
---------------------------------
  S    -122.851000   59.705900  -36.500500
  C    -121.985000   58.202000  -36.308900
  C    -121.542000   58.066400  -35.001200
  C    -121.964000   59.129200  -34.192400
  C    -122.741000   60.112900  -34.803300
  H    -121.802000   59.128300  -33.101000
  C    -120.719000   56.907400  -34.469000
  H    -119.948000   57.354700  -33.798600
  H    -120.046000   56.592600  -35.288500
  C    -121.407000   55.716800  -33.763200
  H    -121.863000   55.082200  -34.492000
  H    -120.653000   55.134300  -33.191900
  C    -122.587000   56.079400  -32.750400
  H    -123.121000   55.263200  -32.282900
  H    -122.314000   56.807800  -31.989300
  H    -123.349000   56.609200  -33.268700
  S    -123.083000   62.879300  -35.239400
  C    -123.932000   63.940500  -34.120100
  C    -124.247000   63.220400  -32.961600
  C    -123.952000   61.814700  -33.061200
  C    -123.271000   61.406100  -34.271400
  H    -124.874000   63.628700  -32.154800
  C    -124.173000   60.830000  -31.926800
  H    -124.228000   59.831200  -32.301800
  H    -125.115000   61.066800  -31.427000
  C    -123.081000   60.801600  -30.861900
  H    -122.916000   61.855900  -30.472300
  H    -122.200000   60.457600  -31.460200
  C    -123.315000   59.791200  -29.734800
  H    -122.540000   59.666900  -29.047000
  H    -123.431000   58.789000  -29.965800
  H    -124.194000   60.129500  -29.204700
  H    -121.861000   57.529700  -37.074200
  H    -124.152000   64.925800  -34.355500

 Total Charge           Charge          ....    0
 Multiplicity           Mult            ....    1
 Number of Electrons    NEL             ....  134
 Basis Dimension        Dim             ....  322

ORBITAL ENERGIES
----------------

  NO   OCC          E(Eh)            E(eV)
   0   2.0000     -88.969548     -2420.9845
   1   2.0000     -88.965974     -2420.8872
   2   2.0000     -10.340793      -281.3873
   3   2.0000     -10.339999      -281.3657
   4   2.0000     -10.321669      -280.8669
   5   2.0000     -10.314401      -280.6691
   6   2.0000     -10.311953      -280.6025
   7   2.0000     -10.303234      -280.3653
   8   2.0000     -10.302949      -280.3575
   9   2.0000     -10.300478      -280.2903
  10   2.0000     -10.298032      -280.2237
  11   2.0000     -10.297255      -280.2026
  12   2.0000     -10.292938      -280.0851
  13   2.0000     -10.286241      -279.9029
  14   2.0000     -10.277579      -279.6671
  15   2.0000     -10.268568      -279.4219
  16   2.0000      -8.084273      -219.9842
  17   2.0000      -8.080058      -219.8696
  18   2.0000      -6.042735      -164.4312
  19   2.0000      -6.038620      -164.3192
  20   2.0000      -6.038610      -164.3189
  21   2.0000      -6.035232      -164.2270
  22   2.0000      -6.034368      -164.2035
  23   2.0000      -6.031080      -164.1140
  24   2.0000      -1.005196       -27.3528
  25   2.0000      -0.981616       -26.7111
  26   2.0000      -0.910439       -24.7743
  27   2.0000      -0.906619       -24.6704
  28   2.0000      -0.865908       -23.5625
  29   2.0000      -0.849733       -23.1224
  30   2.0000      -0.844248       -22.9732
  31   2.0000      -0.818086       -22.2613
  32   2.0000      -0.787852       -21.4386
  33   2.0000      -0.777279       -21.1508
  34   2.0000      -0.709142       -19.2967
  35   2.0000      -0.707018       -19.2389
  36   2.0000      -0.695488       -18.9252
  37   2.0000      -0.661385       -17.9972
  38   2.0000      -0.646578       -17.5943
  39   2.0000      -0.620784       -16.8924
  40   2.0000      -0.598177       -16.2772
  41   2.0000      -0.573139       -15.5959
  42   2.0000      -0.572605       -15.5814
  43   2.0000      -0.548063       -14.9135
  44   2.0000      -0.541584       -14.7372
  45   2.0000      -0.521367       -14.1871
  46   2.0000      -0.517365       -14.0782
  47   2.0000      -0.513705       -13.9786
  48   2.0000      -0.508826       -13.8459
  49   2.0000      -0.501945       -13.6586
  50   2.0000      -0.493953       -13.4412
  51   2.0000      -0.484209       -13.1760
  52   2.0000      -0.469558       -12.7773
  53   2.0000      -0.469106       -12.7650
  54   2.0000      -0.457887       -12.4597
  55   2.0000      -0.451721       -12.2920
  56   2.0000      -0.448688       -12.2094
  57   2.0000      -0.440236       -11.9794
  58   2.0000      -0.428583       -11.6623
  59   2.0000      -0.424025       -11.5383
  60   2.0000      -0.421139       -11.4598
  61   2.0000      -0.414820       -11.2878
  62   2.0000      -0.407904       -11.0996
  63   2.0000      -0.352211        -9.5841
  64   2.0000      -0.336182        -9.1480
  65   2.0000      -0.328818        -8.9476
  66   2.0000      -0.290844        -7.9143
  67   0.0000       0.019793         0.5386
  68   0.0000       0.069395         1.8883
  69   0.0000       0.112823         3.0701
  70   0.0000       0.120371         3.2755
  71   0.0000       0.122688         3.3385

MULLIKEN ATOMIC CHARGES
-----------------------
   0 S :    0.112856
   1 C :   -0.091124
   2 C :   -0.087054
   3 C :    0.017642
   4 C :   -0.132510
   5 H :    0.007896
   6 C :    0.039635
   7 H :    0.031758
   8 H :    0.029340
   9 C :   -0.037919
  10 H :    0.029590
  11 H :    0.042192
  12 C :   -0.070305
  13 H :    0.037103
  14 H :    0.024463
  15 H :    0.029709
  16 S :    0.090001
  17 C :   -0.077081
  18 C :   -0.019566
  19 C :   -0.057914
  20 C :   -0.136616
  21 H :    0.035654
  22 C :    0.066712
  23 H :    0.014403
  24 H :    0.012333
  25 C :   -0.098886
  26 H :    0.039828
  27 H :    0.025482
  28 C :    0.015803
  29 H :    0.016177
  30 H :    0.006255
  31 H :    0.022579
  32 H :    0.017609
  33 H :    0.043953
Sum of atomic charges:   -0.0000000

LOEWDIN ATOMIC CHARGES
----------------------
   0 S :    0.419734
   1 C :   -0.176583
   2 C :   -0.069106
   3 C :   -0.065681
   4 C :   -0.196618
   5 H :    0.030399
   6 C :   -0.040737
   7 H :    0.036712
   8 H :    0.036396
   9 C :   -0.031110
  10 H :    0.021307
  11 H :    0.030288
  12 C :   -0.071623
  13 H :    0.027786
  14 H :    0.019946
  15 H :    0.021889
  16 S :    0.399643
  17 C :   -0.168421
  18 C :   -0.075027
  19 C :   -0.052801
  20 C :   -0.195029
  21 H :    0.037611
  22 C :   -0.035019
  23 H :    0.025117
  24 H :    0.024495
  25 C :   -0.039723
  26 H :    0.030675
  27 H :    0.021487
  28 C :   -0.062351
  29 H :    0.023141
  30 H :    0.017611
  31 H :    0.026526
  32 H :    0.011705
  33 H :    0.017362

  Mayer bond orders larger than 0.100000
B(  0-S ,  1-C ) :   1.1605 B(  0-S ,  4-C ) :   1.1663 B(  1-C ,  2-C ) :   1.5615
B(  1-C ,  4-C ) :   0.1063 B(  1-C , 32-H ) :   0.9846 B(  2-C ,  3-C ) :   1.2933
B(  2-C ,  6-C ) :   1.0159 B(  3-C ,  4-C ) :   1.5268 B(  3-C ,  5-H ) :   0.9839
B(  4-C , 20-C ) :   1.0420 B(  6-C ,  7-H ) :   0.9398 B(  6-C ,  8-H ) :   0.9425
B(  6-C ,  9-C ) :   1.0626 B(  9-C , 10-H ) :   0.9584 B(  9-C , 11-H ) :   0.9582
B(  9-C , 12-C ) :   1.0741 B( 12-C , 13-H ) :   0.9757 B( 12-C , 14-H ) :   0.9761
B( 12-C , 15-H ) :   0.9698 B( 16-S , 17-C ) :   1.1750 B( 16-S , 20-C ) :   1.1476
B( 17-C , 18-C ) :   1.5472 B( 17-C , 20-C ) :   0.1100 B( 17-C , 33-H ) :   0.9816
B( 18-C , 19-C ) :   1.2886 B( 18-C , 21-H ) :   0.9819 B( 19-C , 20-C ) :   1.5339
B( 19-C , 22-C ) :   1.0666 B( 22-C , 23-H ) :   0.9327 B( 22-C , 24-H ) :   0.9296
B( 22-C , 25-C ) :   1.0617 B( 25-C , 26-H ) :   0.9533 B( 25-C , 27-H ) :   0.9510
B( 25-C , 28-C ) :   1.0787 B( 28-C , 29-H ) :   0.9694 B( 28-C , 30-H ) :   0.9694
B( 28-C , 31-H ) :   0.9717

Dispersion correction           -0.015160154
FINAL SINGLE POINT ENERGY     -1339.873646248783

DIPOLE MOMENT
-------------
                                X             Y             Z
Electronic contribution:     -2.04597      19.55316     -25.00445
Nuclear contribution   :      2.06074     -19.96739      25.50069
                        -----------------------------------------
Total Dipole Moment    :      0.01477      -0.41422       0.49624
                        -----------------------------------------
Magnitude (a.u.)       :      0.64657
Magnitude (Debye)      :      1.64345

Rotational constants in cm-1:     0.017368     0.010168     0.006765
Rotational constants in MHz :   520.677161   304.818664   202.817363

                             ****ORCA TERMINATED NORMALLY****
TOTAL RUN TIME: 0 days 0 hours 0 minutes 22 seconds 382 msec
