                         Program Version 4.2.1 -  RELEASE  -
|  1> ! wB97X-D3 SP def2-SVP
|  2> %pal
|  3> nprocs 24
|  4> end
|  5>
|  6> * xyz 0 1
|  7> S 	 -120.497 	 62.2039 	 -34.2955
|  8> C 	 -120.737 	 62.3008 	 -36.1027
|  9> C 	 -119.659 	 61.7859 	 -36.7772
| 10> C 	 -118.807 	 61.0859 	 -35.8673
| 11> C 	 -119.199 	 61.0262 	 -34.5372
| 12> H 	 -117.908 	 60.5498 	 -36.1087
| 13> C 	 -119.391 	 62.0063 	 -38.302
| 14> H 	 -118.623 	 62.7543 	 -38.2531
| 15> H 	 -120.339 	 62.269 	 -38.7424
| 16> C 	 -118.849 	 60.7675 	 -39.047
| 17> H 	 -118.717 	 61.1049 	 -40.0551
| 18> H 	 -117.927 	 60.3921 	 -38.757
| 19> C 	 -119.915 	 59.6986 	 -39.2209
| 20> H 	 -120.819 	 60.1162 	 -39.6034
| 21> H 	 -119.617 	 58.9139 	 -39.8707
| 22> H 	 -120.073 	 59.1848 	 -38.2389
| 23> S 	 -117.445 	 61.4162 	 -32.5354
| 24> C 	 -116.934 	 60.1 	 -31.5251
| 25> C 	 -117.472 	 58.9253 	 -32.0154
| 26> C 	 -118.333 	 59.045 	 -33.1026
| 27> C 	 -118.505 	 60.3707 	 -33.4205
| 28> H 	 -117.163 	 58.0263 	 -31.5679
| 29> C 	 -119.1 	 57.9192 	 -33.8555
| 30> H 	 -118.393 	 57.4736 	 -34.632
| 31> H 	 -119.966 	 58.186 	 -34.477
| 32> C 	 -119.699 	 56.8584 	 -32.9614
| 33> H 	 -120.617 	 57.2599 	 -32.4231
| 34> H 	 -118.972 	 56.6859 	 -32.207
| 35> C 	 -119.978 	 55.5338 	 -33.6177
| 36> H 	 -120.889 	 55.7262 	 -34.3065
| 37> H 	 -120.274 	 54.7536 	 -32.8828
| 38> H 	 -119.136 	 55.147 	 -34.2523
| 39> H 	 -121.36 	 63.0456 	 -36.5923
| 40> H 	 -116.398 	 60.1606 	 -30.6369
| 41> *
| 42>
| 43>                          ****END OF INPUT****

CARTESIAN COORDINATES (ANGSTROEM)
---------------------------------
  S    -120.497000   62.203900  -34.295500
  C    -120.737000   62.300800  -36.102700
  C    -119.659000   61.785900  -36.777200
  C    -118.807000   61.085900  -35.867300
  C    -119.199000   61.026200  -34.537200
  H    -117.908000   60.549800  -36.108700
  C    -119.391000   62.006300  -38.302000
  H    -118.623000   62.754300  -38.253100
  H    -120.339000   62.269000  -38.742400
  C    -118.849000   60.767500  -39.047000
  H    -118.717000   61.104900  -40.055100
  H    -117.927000   60.392100  -38.757000
  C    -119.915000   59.698600  -39.220900
  H    -120.819000   60.116200  -39.603400
  H    -119.617000   58.913900  -39.870700
  H    -120.073000   59.184800  -38.238900
  S    -117.445000   61.416200  -32.535400
  C    -116.934000   60.100000  -31.525100
  C    -117.472000   58.925300  -32.015400
  C    -118.333000   59.045000  -33.102600
  C    -118.505000   60.370700  -33.420500
  H    -117.163000   58.026300  -31.567900
  C    -119.100000   57.919200  -33.855500
  H    -118.393000   57.473600  -34.632000
  H    -119.966000   58.186000  -34.477000
  C    -119.699000   56.858400  -32.961400
  H    -120.617000   57.259900  -32.423100
  H    -118.972000   56.685900  -32.207000
  C    -119.978000   55.533800  -33.617700
  H    -120.889000   55.726200  -34.306500
  H    -120.274000   54.753600  -32.882800
  H    -119.136000   55.147000  -34.252300
  H    -121.360000   63.045600  -36.592300
  H    -116.398000   60.160600  -30.636900

 Total Charge           Charge          ....    0
 Multiplicity           Mult            ....    1
 Number of Electrons    NEL             ....  134
 Basis Dimension        Dim             ....  322

ORBITAL ENERGIES
----------------

  NO   OCC          E(Eh)            E(eV)
   0   2.0000     -88.965030     -2420.8615
   1   2.0000     -88.961391     -2420.7625
   2   2.0000     -10.329616      -281.0831
   3   2.0000     -10.322706      -280.8951
   4   2.0000     -10.314066      -280.6600
   5   2.0000     -10.312024      -280.6044
   6   2.0000     -10.304416      -280.3974
   7   2.0000     -10.302953      -280.3576
   8   2.0000     -10.299625      -280.2670
   9   2.0000     -10.297785      -280.2170
  10   2.0000     -10.292708      -280.0788
  11   2.0000     -10.289150      -279.9820
  12   2.0000     -10.288295      -279.9587
  13   2.0000     -10.281754      -279.7808
  14   2.0000     -10.280502      -279.7467
  15   2.0000     -10.272593      -279.5315
  16   2.0000      -8.080427      -219.8796
  17   2.0000      -8.074884      -219.7288
  18   2.0000      -6.038739      -164.3224
  19   2.0000      -6.034782      -164.2148
  20   2.0000      -6.033496      -164.1798
  21   2.0000      -6.031402      -164.1228
  22   2.0000      -6.029849      -164.0805
  23   2.0000      -6.025304      -163.9569
  24   2.0000      -1.009352       -27.4659
  25   2.0000      -0.980128       -26.6706
  26   2.0000      -0.914070       -24.8731
  27   2.0000      -0.910903       -24.7869
  28   2.0000      -0.870975       -23.7004
  29   2.0000      -0.852595       -23.2003
  30   2.0000      -0.838971       -22.8296
  31   2.0000      -0.813035       -22.1238
  32   2.0000      -0.783936       -21.3320
  33   2.0000      -0.773938       -21.0599
  34   2.0000      -0.710904       -19.3447
  35   2.0000      -0.696395       -18.9499
  36   2.0000      -0.691784       -18.8244
  37   2.0000      -0.658836       -17.9278
  38   2.0000      -0.637794       -17.3552
  39   2.0000      -0.617753       -16.8099
  40   2.0000      -0.607199       -16.5227
  41   2.0000      -0.573353       -15.6017
  42   2.0000      -0.560838       -15.2612
  43   2.0000      -0.560093       -15.2409
  44   2.0000      -0.538190       -14.6449
  45   2.0000      -0.527225       -14.3465
  46   2.0000      -0.519115       -14.1258
  47   2.0000      -0.510355       -13.8875
  48   2.0000      -0.509669       -13.8688
  49   2.0000      -0.494540       -13.4571
  50   2.0000      -0.485393       -13.2082
  51   2.0000      -0.478090       -13.0095
  52   2.0000      -0.470376       -12.7996
  53   2.0000      -0.464613       -12.6428
  54   2.0000      -0.459226       -12.4962
  55   2.0000      -0.448099       -12.1934
  56   2.0000      -0.446904       -12.1609
  57   2.0000      -0.437395       -11.9021
  58   2.0000      -0.434030       -11.8106
  59   2.0000      -0.432753       -11.7758
  60   2.0000      -0.419035       -11.4025
  61   2.0000      -0.405276       -11.0281
  62   2.0000      -0.404097       -10.9960
  63   2.0000      -0.338294        -9.2055
  64   2.0000      -0.326306        -8.8792
  65   2.0000      -0.324438        -8.8284
  66   2.0000      -0.306956        -8.3527
  67   0.0000       0.034322         0.9340
  68   0.0000       0.057335         1.5602
  69   0.0000       0.107327         2.9205
  70   0.0000       0.122633         3.3370
  71   0.0000       0.138274         3.7626

MULLIKEN ATOMIC CHARGES
-----------------------
   0 S :    0.084544
   1 C :   -0.118173
   2 C :   -0.114925
   3 C :    0.051825
   4 C :   -0.171772
   5 H :    0.001587
   6 C :    0.108018
   7 H :    0.045351
   8 H :    0.019280
   9 C :   -0.049007
  10 H :    0.017240
  11 H :    0.016898
  12 C :   -0.043646
  13 H :    0.022143
  14 H :    0.023760
  15 H :    0.039320
  16 S :    0.120026
  17 C :   -0.064805
  18 C :   -0.049116
  19 C :    0.032917
  20 C :   -0.193532
  21 H :   -0.000009
  22 C :    0.048476
  23 H :    0.038369
  24 H :    0.038734
  25 C :   -0.087927
  26 H :    0.048426
  27 H :    0.010846
  28 C :   -0.084553
  29 H :    0.036815
  30 H :    0.047230
  31 H :    0.041787
  32 H :    0.049059
  33 H :    0.034813
Sum of atomic charges:   -0.0000000

LOEWDIN ATOMIC CHARGES
----------------------
   0 S :    0.360835
   1 C :   -0.182249
   2 C :   -0.061532
   3 C :   -0.062209
   4 C :   -0.189377
   5 H :    0.025488
   6 C :   -0.011289
   7 H :    0.036024
   8 H :    0.029897
   9 C :   -0.036489
  10 H :    0.025300
  11 H :    0.013559
  12 C :   -0.058819
  13 H :    0.020562
  14 H :    0.020653
  15 H :    0.029899
  16 S :    0.427749
  17 C :   -0.180003
  18 C :   -0.065924
  19 C :   -0.055151
  20 C :   -0.204335
  21 H :    0.022077
  22 C :   -0.033127
  23 H :    0.037237
  24 H :    0.035362
  25 C :   -0.054344
  26 H :    0.036061
  27 H :    0.011413
  28 C :   -0.073902
  29 H :    0.031522
  30 H :    0.031029
  31 H :    0.028691
  32 H :    0.026626
  33 H :    0.018767

  Mayer bond orders larger than 0.100000
B(  0-S ,  1-C ) :   1.1162 B(  0-S ,  4-C ) :   1.1332 B(  1-C ,  2-C ) :   1.6577
B(  1-C ,  4-C ) :   0.1005 B(  1-C , 32-H ) :   0.9601 B(  2-C ,  3-C ) :   1.2138
B(  2-C ,  6-C ) :   0.9955 B(  3-C ,  4-C ) :   1.6067 B(  3-C ,  5-H ) :   0.9965
B(  4-C , 20-C ) :   1.0035 B(  6-C ,  7-H ) :   0.9358 B(  6-C ,  8-H ) :   0.9418
B(  6-C ,  9-C ) :   1.0873 B(  9-C , 10-H ) :   0.9510 B(  9-C , 11-H ) :   0.9545
B(  9-C , 12-C ) :   1.0805 B( 12-C , 13-H ) :   0.9738 B( 12-C , 14-H ) :   0.9741
B( 12-C , 15-H ) :   0.9748 B( 16-S , 17-C ) :   1.1605 B( 16-S , 20-C ) :   1.1796
B( 17-C , 18-C ) :   1.5898 B( 17-C , 20-C ) :   0.1085 B( 17-C , 33-H ) :   0.9766
B( 18-C , 19-C ) :   1.2594 B( 18-C , 21-H ) :   0.9948 B( 19-C , 20-C ) :   1.5927
B( 19-C , 22-C ) :   1.0183 B( 22-C , 23-H ) :   0.9373 B( 22-C , 24-H ) :   0.9454
B( 22-C , 25-C ) :   1.0519 B( 25-C , 26-H ) :   0.9512 B( 25-C , 27-H ) :   0.9573
B( 25-C , 28-C ) :   1.0863 B( 28-C , 29-H ) :   0.9735 B( 28-C , 30-H ) :   0.9721
B( 28-C , 31-H ) :   0.9728

Dispersion correction           -0.013860330
FINAL SINGLE POINT ENERGY     -1339.858849991978

DIPOLE MOMENT
-------------
                                X             Y             Z
Electronic contribution:      4.48765      21.32799      17.99041
Nuclear contribution   :     -4.17851     -21.71063     -18.47938
                        -----------------------------------------
Total Dipole Moment    :      0.30914      -0.38264      -0.48897
                        -----------------------------------------
Magnitude (a.u.)       :      0.69359
Magnitude (Debye)      :      1.76297

Rotational constants in cm-1:     0.016220     0.009013     0.006917
Rotational constants in MHz :   486.273668   270.212048   207.357235

                             ****ORCA TERMINATED NORMALLY****
TOTAL RUN TIME: 0 days 0 hours 0 minutes 21 seconds 452 msec
