                         Program Version 4.2.1 -  RELEASE  -
|  1> ! wB97X-D3 SP def2-SVP
|  2> %pal
|  3> nprocs 24
|  4> end
|  5>
|  6> * xyz 0 1
|  7> S 	 39.3401 	 -19.2941 	 -111.159
|  8> C 	 37.9015 	 -19.6179 	 -112.101
|  9> C 	 36.8622 	 -20.0523 	 -111.269
| 10> C 	 37.2216 	 -20.1623 	 -109.93
| 11> C 	 38.5226 	 -19.7569 	 -109.673
| 12> H 	 36.6278 	 -20.5693 	 -109.167
| 13> C 	 35.442 	 -20.476 	 -111.663
| 14> H 	 35.2444 	 -19.9491 	 -112.563
| 15> H 	 34.7686 	 -19.9604 	 -110.949
| 16> C 	 35.143 	 -21.9828 	 -111.852
| 17> H 	 35.9861 	 -22.3211 	 -112.453
| 18> H 	 35.3501 	 -22.6912 	 -110.974
| 19> C 	 33.742 	 -22.4767 	 -112.304
| 20> H 	 33.4494 	 -22.2464 	 -113.352
| 21> H 	 33.6173 	 -23.5012 	 -112.154
| 22> H 	 32.9851 	 -22.0539 	 -111.62
| 23> S 	 40.1444 	 -18.0818 	 -108.315
| 24> C 	 40.5266 	 -18.3044 	 -106.62
| 25> C 	 39.9425 	 -19.429 	 -106.161
| 26> C 	 39.2095 	 -20.1463 	 -107.163
| 27> C 	 39.1057 	 -19.498 	 -108.394
| 28> H 	 40.1465 	 -19.7502 	 -105.15
| 29> C 	 38.6807 	 -21.595 	 -106.995
| 30> H 	 38.1637 	 -21.9215 	 -107.899
| 31> H 	 38.0228 	 -21.5263 	 -106.142
| 32> C 	 39.7943 	 -22.6943 	 -106.794
| 33> H 	 40.4813 	 -22.4143 	 -105.948
| 34> H 	 40.4358 	 -22.6001 	 -107.767
| 35> C 	 39.3013 	 -24.1803 	 -106.771
| 36> H 	 38.6102 	 -24.4278 	 -106.045
| 37> H 	 40.1615 	 -24.8838 	 -106.804
| 38> H 	 38.8734 	 -24.471 	 -107.752
| 39> H 	 37.8696 	 -19.5163 	 -113.181
| 40> H 	 41.0898 	 -17.5151 	 -105.958
| 41> *
| 42>
| 43>                          ****END OF INPUT****

CARTESIAN COORDINATES (ANGSTROEM)
---------------------------------
  S     39.340100  -19.294100  -111.159000
  C     37.901500  -19.617900  -112.101000
  C     36.862200  -20.052300  -111.269000
  C     37.221600  -20.162300  -109.930000
  C     38.522600  -19.756900  -109.673000
  H     36.627800  -20.569300  -109.167000
  C     35.442000  -20.476000  -111.663000
  H     35.244400  -19.949100  -112.563000
  H     34.768600  -19.960400  -110.949000
  C     35.143000  -21.982800  -111.852000
  H     35.986100  -22.321100  -112.453000
  H     35.350100  -22.691200  -110.974000
  C     33.742000  -22.476700  -112.304000
  H     33.449400  -22.246400  -113.352000
  H     33.617300  -23.501200  -112.154000
  H     32.985100  -22.053900  -111.620000
  S     40.144400  -18.081800  -108.315000
  C     40.526600  -18.304400  -106.620000
  C     39.942500  -19.429000  -106.161000
  C     39.209500  -20.146300  -107.163000
  C     39.105700  -19.498000  -108.394000
  H     40.146500  -19.750200  -105.150000
  C     38.680700  -21.595000  -106.995000
  H     38.163700  -21.921500  -107.899000
  H     38.022800  -21.526300  -106.142000
  C     39.794300  -22.694300  -106.794000
  H     40.481300  -22.414300  -105.948000
  H     40.435800  -22.600100  -107.767000
  C     39.301300  -24.180300  -106.771000
  H     38.610200  -24.427800  -106.045000
  H     40.161500  -24.883800  -106.804000
  H     38.873400  -24.471000  -107.752000
  H     37.869600  -19.516300  -113.181000
  H     41.089800  -17.515100  -105.958000

 Total Charge           Charge          ....    0
 Multiplicity           Mult            ....    1
 Number of Electrons    NEL             ....  134
 Basis Dimension        Dim             ....  322

ORBITAL ENERGIES
----------------

  NO   OCC          E(Eh)            E(eV)
   0   2.0000     -88.971458     -2421.0365
   1   2.0000     -88.959750     -2420.7179
   2   2.0000     -10.330793      -281.1152
   3   2.0000     -10.327259      -281.0190
   4   2.0000     -10.322984      -280.9027
   5   2.0000     -10.319072      -280.7962
   6   2.0000     -10.306492      -280.4539
   7   2.0000     -10.302447      -280.3438
   8   2.0000     -10.301323      -280.3133
   9   2.0000     -10.296356      -280.1781
  10   2.0000     -10.294678      -280.1324
  11   2.0000     -10.293837      -280.1095
  12   2.0000     -10.293217      -280.0927
  13   2.0000     -10.287510      -279.9374
  14   2.0000     -10.282455      -279.7998
  15   2.0000     -10.280265      -279.7402
  16   2.0000      -8.085766      -220.0249
  17   2.0000      -8.074815      -219.7269
  18   2.0000      -6.044271      -164.4730
  19   2.0000      -6.040284      -164.3645
  20   2.0000      -6.036604      -164.2644
  21   2.0000      -6.033426      -164.1779
  22   2.0000      -6.029192      -164.0627
  23   2.0000      -6.025496      -163.9621
  24   2.0000      -1.010586       -27.4995
  25   2.0000      -0.985799       -26.8250
  26   2.0000      -0.906761       -24.6742
  27   2.0000      -0.895354       -24.3638
  28   2.0000      -0.873642       -23.7730
  29   2.0000      -0.854880       -23.2625
  30   2.0000      -0.841324       -22.8936
  31   2.0000      -0.818058       -22.2605
  32   2.0000      -0.784351       -21.3433
  33   2.0000      -0.771017       -20.9804
  34   2.0000      -0.708637       -19.2830
  35   2.0000      -0.703170       -19.1342
  36   2.0000      -0.690788       -18.7973
  37   2.0000      -0.659892       -17.9566
  38   2.0000      -0.641478       -17.4555
  39   2.0000      -0.625998       -17.0343
  40   2.0000      -0.588213       -16.0061
  41   2.0000      -0.566400       -15.4125
  42   2.0000      -0.560291       -15.2463
  43   2.0000      -0.550118       -14.9695
  44   2.0000      -0.528655       -14.3854
  45   2.0000      -0.525277       -14.2935
  46   2.0000      -0.513398       -13.9703
  47   2.0000      -0.511493       -13.9184
  48   2.0000      -0.506993       -13.7960
  49   2.0000      -0.504518       -13.7286
  50   2.0000      -0.490261       -13.3407
  51   2.0000      -0.486183       -13.2297
  52   2.0000      -0.472877       -12.8676
  53   2.0000      -0.464155       -12.6303
  54   2.0000      -0.461778       -12.5656
  55   2.0000      -0.451780       -12.2936
  56   2.0000      -0.446408       -12.1474
  57   2.0000      -0.437857       -11.9147
  58   2.0000      -0.426670       -11.6103
  59   2.0000      -0.422306       -11.4915
  60   2.0000      -0.420294       -11.4368
  61   2.0000      -0.406391       -11.0584
  62   2.0000      -0.403105       -10.9690
  63   2.0000      -0.359457        -9.7813
  64   2.0000      -0.336865        -9.1666
  65   2.0000      -0.327551        -8.9131
  66   2.0000      -0.284377        -7.7383
  67   0.0000       0.022365         0.6086
  68   0.0000       0.073597         2.0027
  69   0.0000       0.109928         2.9913
  70   0.0000       0.123057         3.3485
  71   0.0000       0.136104         3.7036

MULLIKEN ATOMIC CHARGES
-----------------------
   0 S :    0.117744
   1 C :   -0.131283
   2 C :   -0.100490
   3 C :    0.043243
   4 C :   -0.138910
   5 H :    0.000264
   6 C :    0.109160
   7 H :    0.005179
   8 H :    0.027380
   9 C :   -0.096760
  10 H :    0.023203
  11 H :    0.027244
  12 C :   -0.025823
  13 H :    0.040452
  14 H :    0.021789
  15 H :    0.029285
  16 S :    0.074520
  17 C :   -0.127773
  18 C :   -0.017889
  19 C :   -0.061338
  20 C :   -0.129655
  21 H :    0.018104
  22 C :    0.075621
  23 H :    0.022366
  24 H :    0.028400
  25 C :   -0.132124
  26 H :    0.042247
  27 H :    0.044940
  28 C :   -0.029813
  29 H :    0.028972
  30 H :    0.036953
  31 H :    0.024368
  32 H :    0.052087
  33 H :    0.098336
Sum of atomic charges:    0.0000000

LOEWDIN ATOMIC CHARGES
----------------------
   0 S :    0.412249
   1 C :   -0.199544
   2 C :   -0.062488
   3 C :   -0.053683
   4 C :   -0.189591
   5 H :    0.025656
   6 C :   -0.030982
   7 H :    0.025219
   8 H :    0.032515
   9 C :   -0.055168
  10 H :    0.024459
  11 H :    0.032471
  12 C :   -0.064950
  13 H :    0.026963
  14 H :    0.020366
  15 H :    0.030742
  16 S :    0.390425
  17 C :   -0.197756
  18 C :   -0.079406
  19 C :   -0.059673
  20 C :   -0.189902
  21 H :    0.032704
  22 C :   -0.031585
  23 H :    0.028431
  24 H :    0.024699
  25 C :   -0.048096
  26 H :    0.023469
  27 H :    0.037260
  28 C :   -0.069091
  29 H :    0.012256
  30 H :    0.035192
  31 H :    0.030059
  32 H :    0.029598
  33 H :    0.057180

  Mayer bond orders larger than 0.100000
B(  0-S ,  1-C ) :   1.1420 B(  0-S ,  4-C ) :   1.1553 B(  1-C ,  2-C ) :   1.5704
B(  1-C ,  4-C ) :   0.1033 B(  1-C , 32-H ) :   0.9732 B(  2-C ,  3-C ) :   1.2804
B(  2-C ,  6-C ) :   1.0257 B(  3-C ,  4-C ) :   1.5223 B(  3-C ,  5-H ) :   1.0037
B(  4-C , 20-C ) :   1.0801 B(  6-C ,  7-H ) :   0.9329 B(  6-C ,  8-H ) :   0.9382
B(  6-C ,  9-C ) :   1.0460 B(  9-C , 10-H ) :   0.9518 B(  9-C , 11-H ) :   0.9579
B(  9-C , 12-C ) :   1.0768 B( 12-C , 13-H ) :   0.9769 B( 12-C , 14-H ) :   0.9749
B( 12-C , 15-H ) :   0.9718 B( 16-S , 17-C ) :   1.1487 B( 16-S , 20-C ) :   1.1249
B( 17-C , 18-C ) :   1.6206 B( 17-C , 33-H ) :   0.9508 B( 18-C , 19-C ) :   1.2326
B( 18-C , 21-H ) :   0.9938 B( 19-C , 20-C ) :   1.5874 B( 19-C , 22-C ) :   1.0380
B( 22-C , 23-H ) :   0.9409 B( 22-C , 24-H ) :   0.9344 B( 22-C , 25-C ) :   1.0510
B( 25-C , 26-H ) :   0.9603 B( 25-C , 27-H ) :   0.9574 B( 25-C , 28-C ) :   1.0736
B( 28-C , 29-H ) :   0.9801 B( 28-C , 30-H ) :   0.9725 B( 28-C , 31-H ) :   0.9712

Dispersion correction           -0.013489863
FINAL SINGLE POINT ENERGY     -1339.864024800283

DIPOLE MOMENT
-------------
                                X             Y             Z
Electronic contribution:     17.29401      24.98748      -1.04521
Nuclear contribution   :    -17.66727     -25.48897       1.20715
                        -----------------------------------------
Total Dipole Moment    :     -0.37327      -0.50149       0.16193
                        -----------------------------------------
Magnitude (a.u.)       :      0.64579
Magnitude (Debye)      :      1.64146

Rotational constants in cm-1:     0.017204     0.008365     0.006252
Rotational constants in MHz :   515.755186   250.775027   187.441714

                             ****ORCA TERMINATED NORMALLY****
TOTAL RUN TIME: 0 days 0 hours 0 minutes 19 seconds 821 msec
