                         Program Version 4.2.1 -  RELEASE  -
|  1> ! wB97X-D3 SP def2-SVP
|  2> %pal
|  3> nprocs 24
|  4> end
|  5>
|  6> * xyz 0 1
|  7> S 	 -114.148 	 61.0779 	 -71.3368
|  8> C 	 -112.98 	 62.3399 	 -71.306
|  9> C 	 -113.543 	 63.5156 	 -71.4636
| 10> C 	 -114.977 	 63.431 	 -71.5675
| 11> C 	 -115.488 	 62.1711 	 -71.5968
| 12> H 	 -115.734 	 64.283 	 -71.6851
| 13> C 	 -112.88 	 64.8859 	 -71.4552
| 14> H 	 -113.386 	 65.453 	 -70.7702
| 15> H 	 -113.022 	 65.3903 	 -72.4073
| 16> C 	 -111.402 	 64.9861 	 -71.2146
| 17> H 	 -111.267 	 65.9873 	 -71.0358
| 18> H 	 -111.055 	 64.4128 	 -70.3961
| 19> C 	 -110.495 	 64.7129 	 -72.4092
| 20> H 	 -110.74 	 63.7516 	 -72.8793
| 21> H 	 -110.558 	 65.5016 	 -73.0801
| 22> H 	 -109.404 	 64.7084 	 -72.1209
| 23> S 	 -118.018 	 62.2927 	 -70.3768
| 24> C 	 -119.362 	 61.3268 	 -71.0702
| 25> C 	 -119.043 	 60.6878 	 -72.2192
| 26> C 	 -117.674 	 61.0526 	 -72.5696
| 27> C 	 -116.887 	 61.7898 	 -71.6483
| 28> H 	 -119.77 	 60.0542 	 -72.6897
| 29> C 	 -117.083 	 60.5877 	 -73.9529
| 30> H 	 -116.656 	 59.5936 	 -73.7208
| 31> H 	 -116.213 	 61.1822 	 -74.1258
| 32> C 	 -117.913 	 60.7588 	 -75.2509
| 33> H 	 -118.257 	 61.7336 	 -75.4222
| 34> H 	 -118.77 	 60.1094 	 -75.1462
| 35> C 	 -117.059 	 60.2908 	 -76.4804
| 36> H 	 -116.135 	 60.8207 	 -76.5593
| 37> H 	 -117.721 	 60.376 	 -77.3546
| 38> H 	 -116.708 	 59.2225 	 -76.4025
| 39> H 	 -112.003 	 62.1658 	 -70.9477
| 40> H 	 -120.349 	 61.4217 	 -70.6488
| 41> *
| 42>
| 43>                          ****END OF INPUT****

CARTESIAN COORDINATES (ANGSTROEM)
---------------------------------
  S    -114.148000   61.077900  -71.336800
  C    -112.980000   62.339900  -71.306000
  C    -113.543000   63.515600  -71.463600
  C    -114.977000   63.431000  -71.567500
  C    -115.488000   62.171100  -71.596800
  H    -115.734000   64.283000  -71.685100
  C    -112.880000   64.885900  -71.455200
  H    -113.386000   65.453000  -70.770200
  H    -113.022000   65.390300  -72.407300
  C    -111.402000   64.986100  -71.214600
  H    -111.267000   65.987300  -71.035800
  H    -111.055000   64.412800  -70.396100
  C    -110.495000   64.712900  -72.409200
  H    -110.740000   63.751600  -72.879300
  H    -110.558000   65.501600  -73.080100
  H    -109.404000   64.708400  -72.120900
  S    -118.018000   62.292700  -70.376800
  C    -119.362000   61.326800  -71.070200
  C    -119.043000   60.687800  -72.219200
  C    -117.674000   61.052600  -72.569600
  C    -116.887000   61.789800  -71.648300
  H    -119.770000   60.054200  -72.689700
  C    -117.083000   60.587700  -73.952900
  H    -116.656000   59.593600  -73.720800
  H    -116.213000   61.182200  -74.125800
  C    -117.913000   60.758800  -75.250900
  H    -118.257000   61.733600  -75.422200
  H    -118.770000   60.109400  -75.146200
  C    -117.059000   60.290800  -76.480400
  H    -116.135000   60.820700  -76.559300
  H    -117.721000   60.376000  -77.354600
  H    -116.708000   59.222500  -76.402500
  H    -112.003000   62.165800  -70.947700
  H    -120.349000   61.421700  -70.648800

 Total Charge           Charge          ....    0
 Multiplicity           Mult            ....    1
 Number of Electrons    NEL             ....  134
 Basis Dimension        Dim             ....  322

ORBITAL ENERGIES
----------------

  NO   OCC          E(Eh)            E(eV)
   0   2.0000     -88.961027     -2420.7526
   1   2.0000     -88.959205     -2420.7030
   2   2.0000     -10.330900      -281.1181
   3   2.0000     -10.328482      -281.0523
   4   2.0000     -10.320168      -280.8260
   5   2.0000     -10.313038      -280.6320
   6   2.0000     -10.304929      -280.4114
   7   2.0000     -10.298060      -280.2245
   8   2.0000     -10.296933      -280.1938
   9   2.0000     -10.295823      -280.1636
  10   2.0000     -10.286057      -279.8978
  11   2.0000     -10.284973      -279.8684
  12   2.0000     -10.283326      -279.8235
  13   2.0000     -10.280702      -279.7521
  14   2.0000     -10.274842      -279.5927
  15   2.0000     -10.273247      -279.5493
  16   2.0000      -8.075025      -219.7326
  17   2.0000      -8.074972      -219.7312
  18   2.0000      -6.033647      -164.1839
  19   2.0000      -6.033626      -164.1833
  20   2.0000      -6.029625      -164.0744
  21   2.0000      -6.029323      -164.0662
  22   2.0000      -6.025632      -163.9658
  23   2.0000      -6.025581      -163.9644
  24   2.0000      -1.010919       -27.5085
  25   2.0000      -0.982196       -26.7269
  26   2.0000      -0.921581       -25.0775
  27   2.0000      -0.897189       -24.4138
  28   2.0000      -0.878794       -23.9132
  29   2.0000      -0.849524       -23.1167
  30   2.0000      -0.837429       -22.7876
  31   2.0000      -0.821218       -22.3465
  32   2.0000      -0.789175       -21.4746
  33   2.0000      -0.764870       -20.8132
  34   2.0000      -0.711708       -19.3666
  35   2.0000      -0.704479       -19.1699
  36   2.0000      -0.699175       -19.0255
  37   2.0000      -0.656816       -17.8729
  38   2.0000      -0.643569       -17.5124
  39   2.0000      -0.609399       -16.5826
  40   2.0000      -0.595772       -16.2118
  41   2.0000      -0.587777       -15.9942
  42   2.0000      -0.562343       -15.3021
  43   2.0000      -0.559306       -15.2195
  44   2.0000      -0.548042       -14.9130
  45   2.0000      -0.527140       -14.3442
  46   2.0000      -0.518570       -14.1110
  47   2.0000      -0.511976       -13.9316
  48   2.0000      -0.509679       -13.8691
  49   2.0000      -0.497635       -13.5413
  50   2.0000      -0.490657       -13.3514
  51   2.0000      -0.475983       -12.9522
  52   2.0000      -0.473815       -12.8932
  53   2.0000      -0.467213       -12.7135
  54   2.0000      -0.456342       -12.4177
  55   2.0000      -0.445822       -12.1314
  56   2.0000      -0.442429       -12.0391
  57   2.0000      -0.439773       -11.9668
  58   2.0000      -0.437803       -11.9132
  59   2.0000      -0.423957       -11.5365
  60   2.0000      -0.416458       -11.3324
  61   2.0000      -0.413687       -11.2570
  62   2.0000      -0.400408       -10.8957
  63   2.0000      -0.346602        -9.4315
  64   2.0000      -0.331160        -9.0113
  65   2.0000      -0.324777        -8.8376
  66   2.0000      -0.300702        -8.1825
  67   0.0000       0.037636         1.0241
  68   0.0000       0.065163         1.7732
  69   0.0000       0.114185         3.1071
  70   0.0000       0.124221         3.3802
  71   0.0000       0.133660         3.6371

MULLIKEN ATOMIC CHARGES
-----------------------
   0 S :    0.102614
   1 C :   -0.122992
   2 C :   -0.063251
   3 C :   -0.018974
   4 C :   -0.145853
   5 H :    0.039298
   6 C :    0.108089
   7 H :    0.009629
   8 H :    0.023135
   9 C :   -0.026895
  10 H :    0.002040
  11 H :    0.015429
  12 C :   -0.055791
  13 H :    0.037167
  14 H :    0.013165
  15 H :    0.036521
  16 S :    0.082884
  17 C :   -0.096431
  18 C :    0.001658
  19 C :   -0.071619
  20 C :   -0.136462
  21 H :    0.027464
  22 C :    0.032144
  23 H :    0.041700
  24 H :    0.014050
  25 C :   -0.035709
  26 H :    0.028223
  27 H :    0.022861
  28 C :   -0.068033
  29 H :    0.031829
  30 H :    0.041780
  31 H :    0.033015
  32 H :    0.038318
  33 H :    0.058995
Sum of atomic charges:   -0.0000000

LOEWDIN ATOMIC CHARGES
----------------------
   0 S :    0.407928
   1 C :   -0.193115
   2 C :   -0.067368
   3 C :   -0.065345
   4 C :   -0.200018
   5 H :    0.043457
   6 C :   -0.019810
   7 H :    0.022517
   8 H :    0.036317
   9 C :   -0.035640
  10 H :    0.020343
  11 H :    0.016450
  12 C :   -0.060409
  13 H :    0.024282
  14 H :    0.012692
  15 H :    0.033580
  16 S :    0.370542
  17 C :   -0.155278
  18 C :   -0.073340
  19 C :   -0.043417
  20 C :   -0.204077
  21 H :    0.037152
  22 C :   -0.040595
  23 H :    0.036195
  24 H :    0.021674
  25 C :   -0.029144
  26 H :    0.020270
  27 H :    0.018538
  28 C :   -0.064049
  29 H :    0.020484
  30 H :    0.028446
  31 H :    0.030606
  32 H :    0.024056
  33 H :    0.026075

  Mayer bond orders larger than 0.100000
B(  0-S ,  1-C ) :   1.1290 B(  0-S ,  4-C ) :   1.1305 B(  1-C ,  2-C ) :   1.6633
B(  1-C , 32-H ) :   0.9628 B(  2-C ,  3-C ) :   1.2152 B(  2-C ,  6-C ) :   0.9980
B(  3-C ,  4-C ) :   1.6168 B(  3-C ,  5-H ) :   0.9873 B(  4-C , 20-C ) :   1.0459
B(  6-C ,  7-H ) :   0.9322 B(  6-C ,  8-H ) :   0.9315 B(  6-C ,  9-C ) :   1.0965
B(  9-C , 10-H ) :   0.9430 B(  9-C , 11-H ) :   0.9536 B(  9-C , 12-C ) :   1.0833
B( 12-C , 13-H ) :   0.9795 B( 12-C , 14-H ) :   0.9740 B( 12-C , 15-H ) :   0.9737
B( 16-S , 17-C ) :   1.1561 B( 16-S , 20-C ) :   1.1018 B( 17-C , 18-C ) :   1.6250
B( 17-C , 33-H ) :   0.9637 B( 18-C , 19-C ) :   1.2053 B( 18-C , 21-H ) :   0.9983
B( 19-C , 20-C ) :   1.6153 B( 19-C , 22-C ) :   1.0268 B( 22-C , 23-H ) :   0.9405
B( 22-C , 24-H ) :   0.9413 B( 22-C , 25-C ) :   1.0578 B( 25-C , 26-H ) :   0.9590
B( 25-C , 27-H ) :   0.9541 B( 25-C , 28-C ) :   1.0799 B( 28-C , 29-H ) :   0.9779
B( 28-C , 30-H ) :   0.9755 B( 28-C , 31-H ) :   0.9755

Dispersion correction           -0.013624159
FINAL SINGLE POINT ENERGY     -1339.854771277551

DIPOLE MOMENT
-------------
                                X             Y             Z
Electronic contribution:    -12.14921      -6.21793      18.28389
Nuclear contribution   :     12.16738       6.56254     -18.60494
                        -----------------------------------------
Total Dipole Moment    :      0.01817       0.34461      -0.32105
                        -----------------------------------------
Magnitude (a.u.)       :      0.47134
Magnitude (Debye)      :      1.19805

Rotational constants in cm-1:     0.020140     0.007286     0.006029
Rotational constants in MHz :   603.789467   218.429718   180.749117

                             ****ORCA TERMINATED NORMALLY****
TOTAL RUN TIME: 0 days 0 hours 0 minutes 20 seconds 719 msec
