                         Program Version 4.2.1 -  RELEASE  -
|  1> ! wB97X-D3 SP def2-SVP
|  2> %pal
|  3> nprocs 24
|  4> end
|  5>
|  6> * xyz 0 1
|  7> S 	 36.8141 	 -5.56441 	 -120.607
|  8> C 	 35.2805 	 -6.4067 	 -120.928
|  9> C 	 34.3967 	 -6.09645 	 -119.888
| 10> C 	 34.7996 	 -5.10695 	 -118.957
| 11> C 	 36.0929 	 -4.6508 	 -119.219
| 12> H 	 34.2491 	 -4.80383 	 -118.129
| 13> C 	 33.0534 	 -6.633 	 -119.776
| 14> H 	 32.8452 	 -7.11218 	 -120.739
| 15> H 	 32.4775 	 -5.70872 	 -119.74
| 16> C 	 32.6628 	 -7.73703 	 -118.708
| 17> H 	 33.3525 	 -8.52683 	 -118.791
| 18> H 	 32.7553 	 -7.283 	 -117.718
| 19> C 	 31.2363 	 -8.25125 	 -119.009
| 20> H 	 31.1028 	 -8.51574 	 -120.084
| 21> H 	 31.0426 	 -9.1571 	 -118.374
| 22> H 	 30.4626 	 -7.49858 	 -118.768
| 23> S 	 37.9233 	 -2.69796 	 -119.422
| 24> C 	 38.3016 	 -1.75498 	 -117.962
| 25> C 	 37.7011 	 -2.21146 	 -116.882
| 26> C 	 36.809 	 -3.23573 	 -117.178
| 27> C 	 36.7436 	 -3.58124 	 -118.529
| 28> H 	 37.7987 	 -1.90802 	 -115.846
| 29> C 	 36.2291 	 -3.97576 	 -116.011
| 30> H 	 37.1062 	 -4.11251 	 -115.313
| 31> H 	 36.014 	 -4.97766 	 -116.35
| 32> C 	 34.9526 	 -3.49114 	 -115.376
| 33> H 	 34.0479 	 -3.83965 	 -115.934
| 34> H 	 34.8203 	 -2.43172 	 -115.3
| 35> C 	 34.8729 	 -4.04077 	 -113.951
| 36> H 	 35.2034 	 -3.41468 	 -113.14
| 37> H 	 35.3598 	 -5.03644 	 -113.749
| 38> H 	 33.8543 	 -4.34428 	 -113.812
| 39> H 	 34.9962 	 -6.93351 	 -121.79
| 40> H 	 38.9593 	 -0.932857 	 -118.025
| 41> *
| 42>
| 43>                          ****END OF INPUT****

CARTESIAN COORDINATES (ANGSTROEM)
---------------------------------
  S     36.814100   -5.564410  -120.607000
  C     35.280500   -6.406700  -120.928000
  C     34.396700   -6.096450  -119.888000
  C     34.799600   -5.106950  -118.957000
  C     36.092900   -4.650800  -119.219000
  H     34.249100   -4.803830  -118.129000
  C     33.053400   -6.633000  -119.776000
  H     32.845200   -7.112180  -120.739000
  H     32.477500   -5.708720  -119.740000
  C     32.662800   -7.737030  -118.708000
  H     33.352500   -8.526830  -118.791000
  H     32.755300   -7.283000  -117.718000
  C     31.236300   -8.251250  -119.009000
  H     31.102800   -8.515740  -120.084000
  H     31.042600   -9.157100  -118.374000
  H     30.462600   -7.498580  -118.768000
  S     37.923300   -2.697960  -119.422000
  C     38.301600   -1.754980  -117.962000
  C     37.701100   -2.211460  -116.882000
  C     36.809000   -3.235730  -117.178000
  C     36.743600   -3.581240  -118.529000
  H     37.798700   -1.908020  -115.846000
  C     36.229100   -3.975760  -116.011000
  H     37.106200   -4.112510  -115.313000
  H     36.014000   -4.977660  -116.350000
  C     34.952600   -3.491140  -115.376000
  H     34.047900   -3.839650  -115.934000
  H     34.820300   -2.431720  -115.300000
  C     34.872900   -4.040770  -113.951000
  H     35.203400   -3.414680  -113.140000
  H     35.359800   -5.036440  -113.749000
  H     33.854300   -4.344280  -113.812000
  H     34.996200   -6.933510  -121.790000
  H     38.959300   -0.932857  -118.025000

 Total Charge           Charge          ....    0
 Multiplicity           Mult            ....    1
 Number of Electrons    NEL             ....  134
 Basis Dimension        Dim             ....  322

ORBITAL ENERGIES
----------------

  NO   OCC          E(Eh)            E(eV)
   0   2.0000     -88.966458     -2420.9004
   1   2.0000     -88.963276     -2420.8138
   2   2.0000     -10.334397      -281.2132
   3   2.0000     -10.322820      -280.8982
   4   2.0000     -10.312126      -280.6072
   5   2.0000     -10.311678      -280.5950
   6   2.0000     -10.295099      -280.1439
   7   2.0000     -10.294494      -280.1274
   8   2.0000     -10.290649      -280.0228
   9   2.0000     -10.290545      -280.0200
  10   2.0000     -10.289995      -280.0050
  11   2.0000     -10.288222      -279.9567
  12   2.0000     -10.287416      -279.9348
  13   2.0000     -10.285512      -279.8830
  14   2.0000     -10.284002      -279.8419
  15   2.0000     -10.277512      -279.6653
  16   2.0000      -8.079487      -219.8540
  17   2.0000      -8.078570      -219.8291
  18   2.0000      -6.038288      -164.3102
  19   2.0000      -6.037035      -164.2761
  20   2.0000      -6.034251      -164.2003
  21   2.0000      -6.033115      -164.1694
  22   2.0000      -6.030020      -164.0852
  23   2.0000      -6.029220      -164.0634
  24   2.0000      -1.011743       -27.5309
  25   2.0000      -0.981948       -26.7202
  26   2.0000      -0.916470       -24.9384
  27   2.0000      -0.909594       -24.7513
  28   2.0000      -0.876296       -23.8452
  29   2.0000      -0.856763       -23.3137
  30   2.0000      -0.848742       -23.0954
  31   2.0000      -0.819522       -22.3003
  32   2.0000      -0.777816       -21.1655
  33   2.0000      -0.763002       -20.7623
  34   2.0000      -0.715091       -19.4586
  35   2.0000      -0.705574       -19.1996
  36   2.0000      -0.700931       -19.0733
  37   2.0000      -0.672028       -18.2868
  38   2.0000      -0.640906       -17.4399
  39   2.0000      -0.622735       -16.9455
  40   2.0000      -0.606100       -16.4928
  41   2.0000      -0.568765       -15.4769
  42   2.0000      -0.564532       -15.3617
  43   2.0000      -0.557881       -15.1807
  44   2.0000      -0.531173       -14.4540
  45   2.0000      -0.524731       -14.2786
  46   2.0000      -0.520663       -14.1680
  47   2.0000      -0.517592       -14.0844
  48   2.0000      -0.510886       -13.9019
  49   2.0000      -0.502915       -13.6850
  50   2.0000      -0.492122       -13.3913
  51   2.0000      -0.475898       -12.9498
  52   2.0000      -0.471445       -12.8287
  53   2.0000      -0.463996       -12.6260
  54   2.0000      -0.460145       -12.5212
  55   2.0000      -0.455637       -12.3985
  56   2.0000      -0.445159       -12.1134
  57   2.0000      -0.438418       -11.9299
  58   2.0000      -0.434872       -11.8335
  59   2.0000      -0.426411       -11.6032
  60   2.0000      -0.417013       -11.3475
  61   2.0000      -0.415327       -11.3016
  62   2.0000      -0.408935       -11.1277
  63   2.0000      -0.359095        -9.7715
  64   2.0000      -0.334445        -9.1007
  65   2.0000      -0.324030        -8.8173
  66   2.0000      -0.280947        -7.6450
  67   0.0000       0.017605         0.4791
  68   0.0000       0.077370         2.1053
  69   0.0000       0.104121         2.8333
  70   0.0000       0.118856         3.2342
  71   0.0000       0.124092         3.3767

MULLIKEN ATOMIC CHARGES
-----------------------
   0 S :    0.093127
   1 C :   -0.101393
   2 C :   -0.074791
   3 C :    0.039389
   4 C :   -0.108112
   5 H :   -0.031215
   6 C :    0.015933
   7 H :   -0.002915
   8 H :    0.033394
   9 C :   -0.013884
  10 H :    0.022995
  11 H :    0.027056
  12 C :   -0.082102
  13 H :    0.039138
  14 H :    0.045260
  15 H :    0.038596
  16 S :    0.091237
  17 C :   -0.066640
  18 C :    0.010622
  19 C :   -0.048686
  20 C :   -0.138596
  21 H :    0.015859
  22 C :    0.010659
  23 H :    0.045889
  24 H :    0.017460
  25 C :   -0.034362
  26 H :    0.038615
  27 H :    0.025763
  28 C :   -0.066490
  29 H :    0.041966
  30 H :    0.027672
  31 H :    0.016811
  32 H :    0.033472
  33 H :    0.038272
Sum of atomic charges:   -0.0000000

LOEWDIN ATOMIC CHARGES
----------------------
   0 S :    0.363538
   1 C :   -0.193328
   2 C :   -0.060304
   3 C :   -0.059722
   4 C :   -0.159978
   5 H :    0.019004
   6 C :   -0.042271
   7 H :    0.025161
   8 H :    0.033989
   9 C :   -0.026873
  10 H :    0.019421
  11 H :    0.022666
  12 C :   -0.071061
  13 H :    0.028218
  14 H :    0.031646
  15 H :    0.027552
  16 S :    0.402305
  17 C :   -0.154144
  18 C :   -0.068018
  19 C :   -0.058533
  20 C :   -0.205859
  21 H :    0.037374
  22 C :   -0.039578
  23 H :    0.040857
  24 H :    0.029111
  25 C :   -0.038345
  26 H :    0.028194
  27 H :    0.021951
  28 C :   -0.070737
  29 H :    0.024028
  30 H :    0.030232
  31 H :    0.023613
  32 H :    0.021571
  33 H :    0.018324

  Mayer bond orders larger than 0.100000
B(  0-S ,  1-C ) :   1.0997 B(  0-S ,  4-C ) :   1.1315 B(  1-C ,  2-C ) :   1.5968
B(  1-C , 32-H ) :   0.9729 B(  2-C ,  3-C ) :   1.2365 B(  2-C ,  6-C ) :   1.0452
B(  3-C ,  4-C ) :   1.5381 B(  3-C ,  5-H ) :   1.0061 B(  4-C , 20-C ) :   1.1088
B(  6-C ,  7-H ) :   0.9364 B(  6-C ,  8-H ) :   0.9382 B(  6-C ,  9-C ) :   1.0494
B(  9-C , 10-H ) :   0.9547 B(  9-C , 11-H ) :   0.9549 B(  9-C , 12-C ) :   1.0805
B( 12-C , 13-H ) :   0.9745 B( 12-C , 14-H ) :   0.9752 B( 12-C , 15-H ) :   0.9767
B( 16-S , 17-C ) :   1.1451 B( 16-S , 20-C ) :   1.1307 B( 17-C , 18-C ) :   1.5834
B( 17-C , 33-H ) :   0.9758 B( 18-C , 19-C ) :   1.2737 B( 18-C , 21-H ) :   0.9944
B( 19-C , 20-C ) :   1.5568 B( 19-C , 22-C ) :   1.0346 B( 22-C , 23-H ) :   0.9539
B( 22-C , 24-H ) :   0.9182 B( 22-C , 25-C ) :   1.0558 B( 25-C , 26-H ) :   0.9563
B( 25-C , 27-H ) :   0.9579 B( 25-C , 28-C ) :   1.0645 B( 28-C , 29-H ) :   0.9796
B( 28-C , 30-H ) :   0.9726 B( 28-C , 31-H ) :   0.9755

Dispersion correction           -0.013694893
FINAL SINGLE POINT ENERGY     -1339.857812622565

DIPOLE MOMENT
-------------
                                X             Y             Z
Electronic contribution:     24.20792      11.70534     -19.24940
Nuclear contribution   :    -24.66887     -11.76620      19.89099
                        -----------------------------------------
Total Dipole Moment    :     -0.46095      -0.06086       0.64159
                        -----------------------------------------
Magnitude (a.u.)       :      0.79235
Magnitude (Debye)      :      2.01400

Rotational constants in cm-1:     0.017017     0.009181     0.006198
Rotational constants in MHz :   510.153684   275.231605   185.824344

                             ****ORCA TERMINATED NORMALLY****
TOTAL RUN TIME: 0 days 0 hours 0 minutes 21 seconds 601 msec
