                         Program Version 4.2.1 -  RELEASE  -
|  1> ! wB97X-D3 SP def2-SVP
|  2> %pal
|  3> nprocs 24
|  4> end
|  5>
|  6> * xyz 0 1
|  7> S 	 -110.211 	 52.9199 	 -90.4651
|  8> C 	 -108.705 	 52.9193 	 -89.5381
|  9> C 	 -107.841 	 53.9328 	 -89.8946
| 10> C 	 -108.373 	 54.6725 	 -90.9706
| 11> C 	 -109.648 	 54.3585 	 -91.3859
| 12> H 	 -107.857 	 55.4922 	 -91.4314
| 13> C 	 -106.459 	 54.2204 	 -89.3807
| 14> H 	 -105.784 	 54.2267 	 -90.1943
| 15> H 	 -106.143 	 53.3699 	 -88.6894
| 16> C 	 -106.416 	 55.628 	 -88.7161
| 17> H 	 -106.433 	 56.2981 	 -89.5728
| 18> H 	 -107.386 	 55.717 	 -88.168
| 19> C 	 -105.1 	 55.9208 	 -87.923
| 20> H 	 -105.016 	 55.1889 	 -87.1574
| 21> H 	 -104.312 	 55.7509 	 -88.6486
| 22> H 	 -105.173 	 56.8761 	 -87.4503
| 23> S 	 -111.708 	 54.216 	 -93.0848
| 24> C 	 -112.27 	 55.4608 	 -94.146
| 25> C 	 -111.544 	 56.5673 	 -93.7515
| 26> C 	 -110.468 	 56.3966 	 -92.7272
| 27> C 	 -110.442 	 55.08 	 -92.3139
| 28> H 	 -111.813 	 57.5443 	 -94.1668
| 29> C 	 -109.722 	 57.6267 	 -92.1969
| 30> H 	 -109.139 	 58.1055 	 -93.0481
| 31> H 	 -108.986 	 57.2645 	 -91.4906
| 32> C 	 -110.551 	 58.7043 	 -91.4066
| 33> H 	 -111.026 	 58.1854 	 -90.5688
| 34> H 	 -111.423 	 58.9072 	 -92.0282
| 35> C 	 -109.698 	 59.8228 	 -90.775
| 36> H 	 -110.376 	 60.259 	 -90.0067
| 37> H 	 -109.522 	 60.6341 	 -91.4597
| 38> H 	 -108.722 	 59.5411 	 -90.4524
| 39> H 	 -108.44 	 52.2288 	 -88.7232
| 40> H 	 -112.944 	 55.4105 	 -95.0088
| 41> *
| 42>
| 43>                          ****END OF INPUT****

CARTESIAN COORDINATES (ANGSTROEM)
---------------------------------
  S    -110.211000   52.919900  -90.465100
  C    -108.705000   52.919300  -89.538100
  C    -107.841000   53.932800  -89.894600
  C    -108.373000   54.672500  -90.970600
  C    -109.648000   54.358500  -91.385900
  H    -107.857000   55.492200  -91.431400
  C    -106.459000   54.220400  -89.380700
  H    -105.784000   54.226700  -90.194300
  H    -106.143000   53.369900  -88.689400
  C    -106.416000   55.628000  -88.716100
  H    -106.433000   56.298100  -89.572800
  H    -107.386000   55.717000  -88.168000
  C    -105.100000   55.920800  -87.923000
  H    -105.016000   55.188900  -87.157400
  H    -104.312000   55.750900  -88.648600
  H    -105.173000   56.876100  -87.450300
  S    -111.708000   54.216000  -93.084800
  C    -112.270000   55.460800  -94.146000
  C    -111.544000   56.567300  -93.751500
  C    -110.468000   56.396600  -92.727200
  C    -110.442000   55.080000  -92.313900
  H    -111.813000   57.544300  -94.166800
  C    -109.722000   57.626700  -92.196900
  H    -109.139000   58.105500  -93.048100
  H    -108.986000   57.264500  -91.490600
  C    -110.551000   58.704300  -91.406600
  H    -111.026000   58.185400  -90.568800
  H    -111.423000   58.907200  -92.028200
  C    -109.698000   59.822800  -90.775000
  H    -110.376000   60.259000  -90.006700
  H    -109.522000   60.634100  -91.459700
  H    -108.722000   59.541100  -90.452400
  H    -108.440000   52.228800  -88.723200
  H    -112.944000   55.410500  -95.008800

 Total Charge           Charge          ....    0
 Multiplicity           Mult            ....    1
 Number of Electrons    NEL             ....  134
 Basis Dimension        Dim             ....  322

ORBITAL ENERGIES
----------------

  NO   OCC          E(Eh)            E(eV)
   0   2.0000     -88.969397     -2420.9804
   1   2.0000     -88.959715     -2420.7169
   2   2.0000     -10.332022      -281.1486
   3   2.0000     -10.328302      -281.0474
   4   2.0000     -10.320637      -280.8388
   5   2.0000     -10.317448      -280.7520
   6   2.0000     -10.310379      -280.5597
   7   2.0000     -10.298696      -280.2418
   8   2.0000     -10.298527      -280.2372
   9   2.0000     -10.298023      -280.2234
  10   2.0000     -10.295503      -280.1549
  11   2.0000     -10.292535      -280.0741
  12   2.0000     -10.289899      -280.0024
  13   2.0000     -10.289814      -280.0001
  14   2.0000     -10.282156      -279.7917
  15   2.0000     -10.279866      -279.7294
  16   2.0000      -8.082851      -219.9456
  17   2.0000      -8.075798      -219.7536
  18   2.0000      -6.041600      -164.4003
  19   2.0000      -6.037633      -164.2923
  20   2.0000      -6.034452      -164.2058
  21   2.0000      -6.033321      -164.1750
  22   2.0000      -6.029941      -164.0830
  23   2.0000      -6.026454      -163.9882
  24   2.0000      -1.011352       -27.5203
  25   2.0000      -0.984591       -26.7921
  26   2.0000      -0.913010       -24.8443
  27   2.0000      -0.903018       -24.5724
  28   2.0000      -0.876463       -23.8498
  29   2.0000      -0.852523       -23.1983
  30   2.0000      -0.841389       -22.8954
  31   2.0000      -0.816795       -22.2261
  32   2.0000      -0.780771       -21.2459
  33   2.0000      -0.775342       -21.0981
  34   2.0000      -0.713759       -19.4224
  35   2.0000      -0.701455       -19.0876
  36   2.0000      -0.696053       -18.9406
  37   2.0000      -0.661935       -18.0122
  38   2.0000      -0.635686       -17.2979
  39   2.0000      -0.624534       -16.9944
  40   2.0000      -0.594370       -16.1736
  41   2.0000      -0.579002       -15.7554
  42   2.0000      -0.555915       -15.1272
  43   2.0000      -0.554416       -15.0864
  44   2.0000      -0.532890       -14.5007
  45   2.0000      -0.530281       -14.4297
  46   2.0000      -0.522274       -14.2118
  47   2.0000      -0.512983       -13.9590
  48   2.0000      -0.508712       -13.8428
  49   2.0000      -0.505776       -13.7629
  50   2.0000      -0.490974       -13.3601
  51   2.0000      -0.485962       -13.2237
  52   2.0000      -0.471450       -12.8288
  53   2.0000      -0.467270       -12.7151
  54   2.0000      -0.463905       -12.6235
  55   2.0000      -0.446731       -12.1562
  56   2.0000      -0.443086       -12.0570
  57   2.0000      -0.436435       -11.8760
  58   2.0000      -0.428935       -11.6719
  59   2.0000      -0.426358       -11.6018
  60   2.0000      -0.423618       -11.5272
  61   2.0000      -0.411244       -11.1905
  62   2.0000      -0.405583       -11.0365
  63   2.0000      -0.365799        -9.9539
  64   2.0000      -0.334178        -9.0934
  65   2.0000      -0.320318        -8.7163
  66   2.0000      -0.285138        -7.7590
  67   0.0000       0.020480         0.5573
  68   0.0000       0.080388         2.1875
  69   0.0000       0.105827         2.8797
  70   0.0000       0.116419         3.1679
  71   0.0000       0.130531         3.5519

MULLIKEN ATOMIC CHARGES
-----------------------
   0 S :    0.110573
   1 C :   -0.128402
   2 C :   -0.079187
   3 C :   -0.017543
   4 C :   -0.097720
   5 H :    0.009149
   6 C :    0.074821
   7 H :    0.023104
   8 H :    0.025597
   9 C :   -0.147130
  10 H :    0.027982
  11 H :    0.049062
  12 C :    0.013296
  13 H :    0.020727
  14 H :    0.031504
  15 H :    0.042162
  16 S :    0.077463
  17 C :   -0.080467
  18 C :   -0.063661
  19 C :   -0.065116
  20 C :   -0.121581
  21 H :    0.022207
  22 C :    0.042527
  23 H :    0.044322
  24 H :    0.001810
  25 C :   -0.076053
  26 H :    0.029569
  27 H :    0.024954
  28 C :   -0.023135
  29 H :    0.045248
  30 H :    0.025069
  31 H :    0.031967
  32 H :    0.050581
  33 H :    0.076297
Sum of atomic charges:   -0.0000000

LOEWDIN ATOMIC CHARGES
----------------------
   0 S :    0.378346
   1 C :   -0.191539
   2 C :   -0.067335
   3 C :   -0.059877
   4 C :   -0.173662
   5 H :    0.025216
   6 C :   -0.029793
   7 H :    0.024367
   8 H :    0.032211
   9 C :   -0.041105
  10 H :    0.018911
  11 H :    0.028175
  12 C :   -0.053980
  13 H :    0.019784
  14 H :    0.028792
  15 H :    0.027305
  16 S :    0.417708
  17 C :   -0.200662
  18 C :   -0.073779
  19 C :   -0.063322
  20 C :   -0.200058
  21 H :    0.025178
  22 C :   -0.040208
  23 H :    0.036893
  24 H :    0.021059
  25 C :   -0.041901
  26 H :    0.027525
  27 H :    0.022819
  28 C :   -0.061194
  29 H :    0.038293
  30 H :    0.023103
  31 H :    0.024116
  32 H :    0.033622
  33 H :    0.044989

  Mayer bond orders larger than 0.100000
B(  0-S ,  1-C ) :   1.1242 B(  0-S ,  4-C ) :   1.1122 B(  1-C ,  2-C ) :   1.6313
B(  1-C , 32-H ) :   0.9581 B(  2-C ,  3-C ) :   1.2309 B(  2-C ,  6-C ) :   1.0338
B(  3-C ,  4-C ) :   1.5905 B(  3-C ,  5-H ) :   0.9908 B(  4-C , 20-C ) :   1.1012
B(  6-C ,  7-H ) :   0.9367 B(  6-C ,  8-H ) :   0.9440 B(  6-C ,  9-C ) :   1.0377
B(  9-C , 10-H ) :   0.9554 B(  9-C , 11-H ) :   0.9642 B(  9-C , 12-C ) :   1.0747
B( 12-C , 13-H ) :   0.9782 B( 12-C , 14-H ) :   0.9710 B( 12-C , 15-H ) :   0.9749
B( 16-S , 17-C ) :   1.1387 B( 16-S , 20-C ) :   1.1414 B( 17-C , 18-C ) :   1.6096
B( 17-C , 33-H ) :   0.9719 B( 18-C , 19-C ) :   1.2269 B( 18-C , 21-H ) :   0.9821
B( 19-C , 20-C ) :   1.5723 B( 19-C , 22-C ) :   1.0499 B( 22-C , 23-H ) :   0.9344
B( 22-C , 24-H ) :   0.9312 B( 22-C , 25-C ) :   1.0596 B( 25-C , 26-H ) :   0.9574
B( 25-C , 27-H ) :   0.9588 B( 25-C , 28-C ) :   1.0636 B( 28-C , 29-H ) :   0.9764
B( 28-C , 30-H ) :   0.9755 B( 28-C , 31-H ) :   0.9747

Dispersion correction           -0.013690802
FINAL SINGLE POINT ENERGY     -1339.867577280018

DIPOLE MOMENT
-------------
                                X             Y             Z
Electronic contribution:    -19.11161     -23.43483     -12.60790
Nuclear contribution   :     19.57011      24.10745      12.76648
                        -----------------------------------------
Total Dipole Moment    :      0.45850       0.67263       0.15858
                        -----------------------------------------
Magnitude (a.u.)       :      0.82934
Magnitude (Debye)      :      2.10800

Rotational constants in cm-1:     0.016408     0.009497     0.006395
Rotational constants in MHz :   491.891357   284.719400   191.712728

                             ****ORCA TERMINATED NORMALLY****
TOTAL RUN TIME: 0 days 0 hours 0 minutes 20 seconds 259 msec
