                         Program Version 4.2.1 -  RELEASE  -
|  1> ! wB97X-D3 SP def2-SVP
|  2> %pal
|  3> nprocs 24
|  4> end
|  5>
|  6> * xyz 0 1
|  7> S 	 -59.6352 	 16.584 	 -103.887
|  8> C 	 -59.6144 	 17.23 	 -102.274
|  9> C 	 -59.3197 	 16.2322 	 -101.371
| 10> C 	 -58.9865 	 14.9878 	 -101.981
| 11> C 	 -59.0661 	 15.0289 	 -103.387
| 12> H 	 -58.7873 	 14.0355 	 -101.444
| 13> C 	 -59.2187 	 16.4267 	 -99.8913
| 14> H 	 -59.8406 	 17.2404 	 -99.6156
| 15> H 	 -58.2017 	 16.6972 	 -99.5958
| 16> C 	 -59.7942 	 15.4434 	 -98.9477
| 17> H 	 -60.8693 	 15.3558 	 -99.2157
| 18> H 	 -59.4063 	 14.4412 	 -99.0832
| 19> C 	 -59.6146 	 15.8742 	 -97.4588
| 20> H 	 -59.8701 	 15.0254 	 -96.7966
| 21> H 	 -58.5879 	 16.2635 	 -97.1788
| 22> H 	 -60.3124 	 16.6881 	 -97.2481
| 23> S 	 -57.4202 	 14.0993 	 -105.35
| 24> C 	 -57.4987 	 12.3966 	 -105.797
| 25> C 	 -58.4743 	 11.673 	 -105.059
| 26> C 	 -59.1811 	 12.5212 	 -104.15
| 27> C 	 -58.8213 	 13.8555 	 -104.224
| 28> H 	 -58.6158 	 10.6431 	 -105.218
| 29> C 	 -60.3317 	 12.009 	 -103.302
| 30> H 	 -60.5838 	 12.6771 	 -102.509
| 31> H 	 -60.0034 	 11.0673 	 -102.842
| 32> C 	 -61.5962 	 11.8126 	 -104.088
| 33> H 	 -61.8188 	 12.7793 	 -104.666
| 34> H 	 -62.4654 	 11.9259 	 -103.462
| 35> C 	 -61.6459 	 10.6353 	 -105.089
| 36> H 	 -62.6934 	 10.5321 	 -105.49
| 37> H 	 -61.2162 	 9.80924 	 -104.504
| 38> H 	 -60.8776 	 10.7396 	 -105.946
| 39> H 	 -59.7853 	 18.2619 	 -101.994
| 40> H 	 -56.8057 	 11.8953 	 -106.426
| 41> *
| 42>
| 43>                          ****END OF INPUT****

CARTESIAN COORDINATES (ANGSTROEM)
---------------------------------
  S    -59.635200   16.584000  -103.887000
  C    -59.614400   17.230000  -102.274000
  C    -59.319700   16.232200  -101.371000
  C    -58.986500   14.987800  -101.981000
  C    -59.066100   15.028900  -103.387000
  H    -58.787300   14.035500  -101.444000
  C    -59.218700   16.426700  -99.891300
  H    -59.840600   17.240400  -99.615600
  H    -58.201700   16.697200  -99.595800
  C    -59.794200   15.443400  -98.947700
  H    -60.869300   15.355800  -99.215700
  H    -59.406300   14.441200  -99.083200
  C    -59.614600   15.874200  -97.458800
  H    -59.870100   15.025400  -96.796600
  H    -58.587900   16.263500  -97.178800
  H    -60.312400   16.688100  -97.248100
  S    -57.420200   14.099300  -105.350000
  C    -57.498700   12.396600  -105.797000
  C    -58.474300   11.673000  -105.059000
  C    -59.181100   12.521200  -104.150000
  C    -58.821300   13.855500  -104.224000
  H    -58.615800   10.643100  -105.218000
  C    -60.331700   12.009000  -103.302000
  H    -60.583800   12.677100  -102.509000
  H    -60.003400   11.067300  -102.842000
  C    -61.596200   11.812600  -104.088000
  H    -61.818800   12.779300  -104.666000
  H    -62.465400   11.925900  -103.462000
  C    -61.645900   10.635300  -105.089000
  H    -62.693400   10.532100  -105.490000
  H    -61.216200    9.809240  -104.504000
  H    -60.877600   10.739600  -105.946000
  H    -59.785300   18.261900  -101.994000
  H    -56.805700   11.895300  -106.426000

 Total Charge           Charge          ....    0
 Multiplicity           Mult            ....    1
 Number of Electrons    NEL             ....  134
 Basis Dimension        Dim             ....  322

ORBITAL ENERGIES
----------------

  NO   OCC          E(Eh)            E(eV)
   0   2.0000     -88.969182     -2420.9745
   1   2.0000     -88.966131     -2420.8915
   2   2.0000     -10.330804      -281.1155
   3   2.0000     -10.330153      -281.0977
   4   2.0000     -10.322446      -280.8880
   5   2.0000     -10.313285      -280.6388
   6   2.0000     -10.307541      -280.4825
   7   2.0000     -10.298365      -280.2328
   8   2.0000     -10.297470      -280.2084
   9   2.0000     -10.295673      -280.1595
  10   2.0000     -10.289991      -280.0049
  11   2.0000     -10.289775      -279.9990
  12   2.0000     -10.288796      -279.9724
  13   2.0000     -10.287250      -279.9303
  14   2.0000     -10.285567      -279.8845
  15   2.0000     -10.281446      -279.7724
  16   2.0000      -8.084063      -219.9785
  17   2.0000      -8.079807      -219.8627
  18   2.0000      -6.042561      -164.4264
  19   2.0000      -6.038422      -164.3138
  20   2.0000      -6.038274      -164.3098
  21   2.0000      -6.034954      -164.2194
  22   2.0000      -6.034492      -164.2069
  23   2.0000      -6.030631      -164.1018
  24   2.0000      -1.004593       -27.3364
  25   2.0000      -0.980197       -26.6725
  26   2.0000      -0.920018       -25.0350
  27   2.0000      -0.910740       -24.7825
  28   2.0000      -0.868482       -23.6326
  29   2.0000      -0.848196       -23.0806
  30   2.0000      -0.842303       -22.9202
  31   2.0000      -0.810347       -22.0507
  32   2.0000      -0.784113       -21.3368
  33   2.0000      -0.773626       -21.0514
  34   2.0000      -0.709983       -19.3196
  35   2.0000      -0.695935       -18.9374
  36   2.0000      -0.688449       -18.7337
  37   2.0000      -0.667539       -18.1647
  38   2.0000      -0.639653       -17.4058
  39   2.0000      -0.621307       -16.9066
  40   2.0000      -0.593384       -16.1468
  41   2.0000      -0.574074       -15.6214
  42   2.0000      -0.571834       -15.5604
  43   2.0000      -0.554814       -15.0973
  44   2.0000      -0.539988       -14.6938
  45   2.0000      -0.523942       -14.2572
  46   2.0000      -0.514899       -14.0111
  47   2.0000      -0.509410       -13.8618
  48   2.0000      -0.502731       -13.6800
  49   2.0000      -0.492432       -13.3998
  50   2.0000      -0.487697       -13.2709
  51   2.0000      -0.480840       -13.0843
  52   2.0000      -0.474420       -12.9096
  53   2.0000      -0.467889       -12.7319
  54   2.0000      -0.459034       -12.4910
  55   2.0000      -0.453362       -12.3366
  56   2.0000      -0.444055       -12.0834
  57   2.0000      -0.434404       -11.8207
  58   2.0000      -0.432562       -11.7706
  59   2.0000      -0.429024       -11.6743
  60   2.0000      -0.421637       -11.4733
  61   2.0000      -0.413100       -11.2410
  62   2.0000      -0.394837       -10.7441
  63   2.0000      -0.339022        -9.2253
  64   2.0000      -0.334081        -9.0908
  65   2.0000      -0.330238        -8.9862
  66   2.0000      -0.294416        -8.0115
  67   0.0000       0.029330         0.7981
  68   0.0000       0.062581         1.7029
  69   0.0000       0.108629         2.9559
  70   0.0000       0.120306         3.2737
  71   0.0000       0.128698         3.5021

MULLIKEN ATOMIC CHARGES
-----------------------
   0 S :    0.126500
   1 C :   -0.120121
   2 C :   -0.076449
   3 C :    0.018087
   4 C :   -0.153961
   5 H :    0.033549
   6 C :    0.080433
   7 H :   -0.002963
   8 H :    0.038897
   9 C :   -0.096427
  10 H :    0.032393
  11 H :    0.021734
  12 C :   -0.074695
  13 H :    0.044041
  14 H :    0.042715
  15 H :    0.034544
  16 S :    0.096383
  17 C :   -0.070443
  18 C :   -0.040751
  19 C :   -0.024106
  20 C :   -0.163245
  21 H :    0.007121
  22 C :    0.090431
  23 H :    0.013277
  24 H :    0.024866
  25 C :   -0.085614
  26 H :    0.023874
  27 H :    0.019759
  28 C :   -0.069997
  29 H :    0.059411
  30 H :    0.024376
  31 H :    0.052217
  32 H :    0.046524
  33 H :    0.047644
Sum of atomic charges:    0.0000000

LOEWDIN ATOMIC CHARGES
----------------------
   0 S :    0.427465
   1 C :   -0.203153
   2 C :   -0.066614
   3 C :   -0.065303
   4 C :   -0.213240
   5 H :    0.037019
   6 C :   -0.040280
   7 H :    0.026530
   8 H :    0.032488
   9 C :   -0.042803
  10 H :    0.029548
  11 H :    0.012674
  12 C :   -0.067906
  13 H :    0.031290
  14 H :    0.031668
  15 H :    0.024485
  16 S :    0.382697
  17 C :   -0.168770
  18 C :   -0.066673
  19 C :   -0.045738
  20 C :   -0.179640
  21 H :    0.023604
  22 C :   -0.029629
  23 H :    0.029083
  24 H :    0.029379
  25 C :   -0.053546
  26 H :    0.032855
  27 H :    0.022194
  28 C :   -0.076840
  29 H :    0.037869
  30 H :    0.021364
  31 H :    0.034824
  32 H :    0.031481
  33 H :    0.021617

  Mayer bond orders larger than 0.100000
B(  0-S ,  1-C ) :   1.1397 B(  0-S ,  4-C ) :   1.1756 B(  1-C ,  2-C ) :   1.5868
B(  1-C , 32-H ) :   0.9721 B(  2-C ,  3-C ) :   1.2663 B(  2-C ,  6-C ) :   1.0254
B(  3-C ,  4-C ) :   1.5302 B(  3-C ,  5-H ) :   0.9879 B(  4-C , 20-C ) :   1.0217
B(  6-C ,  7-H ) :   0.9407 B(  6-C ,  8-H ) :   0.9349 B(  6-C ,  9-C ) :   1.0588
B(  9-C , 10-H ) :   0.9570 B(  9-C , 11-H ) :   0.9533 B(  9-C , 12-C ) :   1.0776
B( 12-C , 13-H ) :   0.9745 B( 12-C , 14-H ) :   0.9752 B( 12-C , 15-H ) :   0.9759
B( 16-S , 17-C ) :   1.1666 B( 16-S , 20-C ) :   1.1223 B( 17-C , 18-C ) :   1.5986
B( 17-C , 20-C ) :   0.1058 B( 17-C , 33-H ) :   0.9692 B( 18-C , 19-C ) :   1.2260
B( 18-C , 21-H ) :   0.9946 B( 19-C , 20-C ) :   1.6258 B( 19-C , 22-C ) :   1.0423
B( 22-C , 23-H ) :   0.9258 B( 22-C , 24-H ) :   0.9331 B( 22-C , 25-C ) :   1.0866
B( 25-C , 26-H ) :   0.9416 B( 25-C , 27-H ) :   0.9560 B( 25-C , 28-C ) :   1.0672
B( 28-C , 29-H ) :   0.9700 B( 28-C , 30-H ) :   0.9748 B( 28-C , 31-H ) :   0.9665

Dispersion correction           -0.014217963
FINAL SINGLE POINT ENERGY     -1339.872560807666

DIPOLE MOMENT
-------------
                                X             Y             Z
Electronic contribution:     12.38005      10.79368     -20.55180
Nuclear contribution   :    -12.59310     -11.11587      21.12284
                        -----------------------------------------
Total Dipole Moment    :     -0.21305      -0.32219       0.57103
                        -----------------------------------------
Magnitude (a.u.)       :      0.68940
Magnitude (Debye)      :      1.75232

Rotational constants in cm-1:     0.019004     0.007934     0.006664
Rotational constants in MHz :   569.733618   237.851290   199.781857

                             ****ORCA TERMINATED NORMALLY****
TOTAL RUN TIME: 0 days 0 hours 0 minutes 21 seconds 551 msec
