                         Program Version 4.2.1 -  RELEASE  -
|  1> ! wB97X-D3 SP def2-SVP
|  2> %pal
|  3> nprocs 24
|  4> end
|  5>
|  6> * xyz 0 1
|  7> S 	 -68.728 	 19.0582 	 -76.7546
|  8> C 	 -69.53 	 19.1712 	 -75.2059
|  9> C 	 -70.154 	 17.9643 	 -74.8295
| 10> C 	 -70.0458 	 16.9463 	 -75.8687
| 11> C 	 -69.2371 	 17.3473 	 -76.9158
| 12> H 	 -70.4563 	 15.8566 	 -75.8081
| 13> C 	 -70.8271 	 17.6463 	 -73.461
| 14> H 	 -70.7595 	 18.6228 	 -72.8899
| 15> H 	 -70.1503 	 16.8899 	 -73.003
| 16> C 	 -72.2512 	 17.1182 	 -73.6766
| 17> H 	 -72.943 	 17.9704 	 -73.8957
| 18> H 	 -72.3677 	 16.5 	 -74.4842
| 19> C 	 -72.8115 	 16.3663 	 -72.4201
| 20> H 	 -72.215 	 15.457 	 -72.2553
| 21> H 	 -72.6614 	 16.9157 	 -71.4653
| 22> H 	 -73.8661 	 16.0538 	 -72.5538
| 23> S 	 -70.293 	 16.0966 	 -79.0521
| 24> C 	 -69.3033 	 15.2405 	 -80.2418
| 25> C 	 -67.9608 	 15.3676 	 -79.8802
| 26> C 	 -67.7824 	 16.149 	 -78.7262
| 27> C 	 -68.9409 	 16.633 	 -78.1088
| 28> H 	 -67.1902 	 15.0804 	 -80.446
| 29> C 	 -66.3888 	 16.3426 	 -78.1633
| 30> H 	 -66.5931 	 16.5321 	 -77.1444
| 31> H 	 -66.0291 	 17.2552 	 -78.52
| 32> C 	 -65.4059 	 15.1538 	 -78.386
| 33> H 	 -64.5048 	 15.4293 	 -77.8368
| 34> H 	 -65.1904 	 15.0388 	 -79.4263
| 35> C 	 -65.8987 	 13.8372 	 -77.7951
| 36> H 	 -65.0588 	 13.2006 	 -77.7956
| 37> H 	 -66.5921 	 13.2957 	 -78.4687
| 38> H 	 -66.3121 	 13.8414 	 -76.7438
| 39> H 	 -69.4303 	 19.8916 	 -74.4669
| 40> H 	 -69.657 	 14.6697 	 -81.0794
| 41> *
| 42>
| 43>                          ****END OF INPUT****

CARTESIAN COORDINATES (ANGSTROEM)
---------------------------------
  S    -68.728000   19.058200  -76.754600
  C    -69.530000   19.171200  -75.205900
  C    -70.154000   17.964300  -74.829500
  C    -70.045800   16.946300  -75.868700
  C    -69.237100   17.347300  -76.915800
  H    -70.456300   15.856600  -75.808100
  C    -70.827100   17.646300  -73.461000
  H    -70.759500   18.622800  -72.889900
  H    -70.150300   16.889900  -73.003000
  C    -72.251200   17.118200  -73.676600
  H    -72.943000   17.970400  -73.895700
  H    -72.367700   16.500000  -74.484200
  C    -72.811500   16.366300  -72.420100
  H    -72.215000   15.457000  -72.255300
  H    -72.661400   16.915700  -71.465300
  H    -73.866100   16.053800  -72.553800
  S    -70.293000   16.096600  -79.052100
  C    -69.303300   15.240500  -80.241800
  C    -67.960800   15.367600  -79.880200
  C    -67.782400   16.149000  -78.726200
  C    -68.940900   16.633000  -78.108800
  H    -67.190200   15.080400  -80.446000
  C    -66.388800   16.342600  -78.163300
  H    -66.593100   16.532100  -77.144400
  H    -66.029100   17.255200  -78.520000
  C    -65.405900   15.153800  -78.386000
  H    -64.504800   15.429300  -77.836800
  H    -65.190400   15.038800  -79.426300
  C    -65.898700   13.837200  -77.795100
  H    -65.058800   13.200600  -77.795600
  H    -66.592100   13.295700  -78.468700
  H    -66.312100   13.841400  -76.743800
  H    -69.430300   19.891600  -74.466900
  H    -69.657000   14.669700  -81.079400

 Total Charge           Charge          ....    0
 Multiplicity           Mult            ....    1
 Number of Electrons    NEL             ....  134
 Basis Dimension        Dim             ....  322

ORBITAL ENERGIES
----------------

  NO   OCC          E(Eh)            E(eV)
   0   2.0000     -88.968662     -2420.9604
   1   2.0000     -88.963076     -2420.8084
   2   2.0000     -10.332138      -281.1518
   3   2.0000     -10.319411      -280.8055
   4   2.0000     -10.319345      -280.8036
   5   2.0000     -10.312129      -280.6073
   6   2.0000     -10.307961      -280.4939
   7   2.0000     -10.306658      -280.4584
   8   2.0000     -10.305979      -280.4399
   9   2.0000     -10.296196      -280.1737
  10   2.0000     -10.287517      -279.9376
  11   2.0000     -10.287121      -279.9268
  12   2.0000     -10.284192      -279.8471
  13   2.0000     -10.282865      -279.8110
  14   2.0000     -10.276336      -279.6333
  15   2.0000     -10.275259      -279.6040
  16   2.0000      -8.082452      -219.9347
  17   2.0000      -8.077534      -219.8009
  18   2.0000      -6.041089      -164.3864
  19   2.0000      -6.037157      -164.2794
  20   2.0000      -6.036037      -164.2489
  21   2.0000      -6.033059      -164.1679
  22   2.0000      -6.031801      -164.1337
  23   2.0000      -6.028583      -164.0461
  24   2.0000      -1.004333       -27.3293
  25   2.0000      -0.978066       -26.6145
  26   2.0000      -0.908429       -24.7196
  27   2.0000      -0.906164       -24.6580
  28   2.0000      -0.872968       -23.7547
  29   2.0000      -0.846748       -23.0412
  30   2.0000      -0.841027       -22.8855
  31   2.0000      -0.814962       -22.1762
  32   2.0000      -0.780857       -21.2482
  33   2.0000      -0.767685       -20.8898
  34   2.0000      -0.712539       -19.3892
  35   2.0000      -0.703613       -19.1463
  36   2.0000      -0.696561       -18.9544
  37   2.0000      -0.667102       -18.1528
  38   2.0000      -0.634583       -17.2679
  39   2.0000      -0.613516       -16.6946
  40   2.0000      -0.595561       -16.2060
  41   2.0000      -0.567541       -15.4436
  42   2.0000      -0.557312       -15.1652
  43   2.0000      -0.555817       -15.1246
  44   2.0000      -0.539134       -14.6706
  45   2.0000      -0.528890       -14.3918
  46   2.0000      -0.525611       -14.3026
  47   2.0000      -0.506073       -13.7709
  48   2.0000      -0.504482       -13.7276
  49   2.0000      -0.493522       -13.4294
  50   2.0000      -0.490998       -13.3607
  51   2.0000      -0.480952       -13.0874
  52   2.0000      -0.462864       -12.5952
  53   2.0000      -0.460247       -12.5240
  54   2.0000      -0.457319       -12.4443
  55   2.0000      -0.448737       -12.2107
  56   2.0000      -0.446466       -12.1490
  57   2.0000      -0.439142       -11.9497
  58   2.0000      -0.435519       -11.8511
  59   2.0000      -0.427754       -11.6398
  60   2.0000      -0.421173       -11.4607
  61   2.0000      -0.416027       -11.3207
  62   2.0000      -0.406652       -11.0656
  63   2.0000      -0.339927        -9.2499
  64   2.0000      -0.334135        -9.0923
  65   2.0000      -0.322574        -8.7777
  66   2.0000      -0.294949        -8.0260
  67   0.0000       0.030050         0.8177
  68   0.0000       0.066116         1.7991
  69   0.0000       0.109832         2.9887
  70   0.0000       0.113436         3.0868
  71   0.0000       0.134732         3.6663

MULLIKEN ATOMIC CHARGES
-----------------------
   0 S :    0.116612
   1 C :   -0.071104
   2 C :   -0.140736
   3 C :   -0.006593
   4 C :   -0.173922
   5 H :    0.062994
   6 C :    0.056634
   7 H :    0.035932
   8 H :    0.050591
   9 C :   -0.059082
  10 H :    0.039078
  11 H :    0.017523
  12 C :   -0.078566
  13 H :    0.026756
  14 H :    0.036966
  15 H :    0.045728
  16 S :    0.109605
  17 C :   -0.085883
  18 C :    0.024174
  19 C :   -0.075671
  20 C :   -0.161534
  21 H :   -0.037670
  22 C :    0.142108
  23 H :    0.007149
  24 H :    0.017147
  25 C :   -0.080959
  26 H :    0.033017
  27 H :    0.029476
  28 C :   -0.049874
  29 H :    0.016313
  30 H :    0.032791
  31 H :    0.047939
  32 H :    0.017791
  33 H :    0.055267
Sum of atomic charges:   -0.0000000

LOEWDIN ATOMIC CHARGES
----------------------
   0 S :    0.393338
   1 C :   -0.198596
   2 C :   -0.058263
   3 C :   -0.072293
   4 C :   -0.188080
   5 H :    0.051920
   6 C :   -0.030464
   7 H :    0.037290
   8 H :    0.036984
   9 C :   -0.037428
  10 H :    0.034261
  11 H :    0.011104
  12 C :   -0.072477
  13 H :    0.022665
  14 H :    0.027156
  15 H :    0.029645
  16 S :    0.419519
  17 C :   -0.174212
  18 C :   -0.059812
  19 C :   -0.050473
  20 C :   -0.221615
  21 H :    0.008463
  22 C :   -0.027002
  23 H :    0.024410
  24 H :    0.024240
  25 C :   -0.034334
  26 H :    0.029392
  27 H :    0.020462
  28 C :   -0.070102
  29 H :    0.019401
  30 H :    0.027481
  31 H :    0.035252
  32 H :    0.013902
  33 H :    0.028266

  Mayer bond orders larger than 0.100000
B(  0-S ,  1-C ) :   1.1264 B(  0-S ,  4-C ) :   1.1270 B(  1-C ,  2-C ) :   1.6489
B(  1-C , 32-H ) :   0.9652 B(  2-C ,  3-C ) :   1.2117 B(  2-C ,  6-C ) :   1.0112
B(  3-C ,  4-C ) :   1.6128 B(  3-C ,  5-H ) :   0.9689 B(  4-C , 20-C ) :   1.0432
B(  6-C ,  7-H ) :   0.9404 B(  6-C ,  8-H ) :   0.9481 B(  6-C ,  9-C ) :   1.0478
B(  9-C , 10-H ) :   0.9522 B(  9-C , 11-H ) :   0.9645 B(  9-C , 12-C ) :   1.0751
B( 12-C , 13-H ) :   0.9770 B( 12-C , 14-H ) :   0.9760 B( 12-C , 15-H ) :   0.9754
B( 16-S , 17-C ) :   1.1789 B( 16-S , 20-C ) :   1.1439 B( 17-C , 18-C ) :   1.5396
B( 17-C , 20-C ) :   0.1086 B( 17-C , 33-H ) :   0.9706 B( 18-C , 19-C ) :   1.3066
B( 18-C , 21-H ) :   1.0025 B( 19-C , 20-C ) :   1.5482 B( 19-C , 22-C ) :   1.0187
B( 22-C , 23-H ) :   0.9270 B( 22-C , 24-H ) :   0.9235 B( 22-C , 25-C ) :   1.0829
B( 25-C , 26-H ) :   0.9555 B( 25-C , 27-H ) :   0.9490 B( 25-C , 28-C ) :   1.0846
B( 28-C , 29-H ) :   0.9710 B( 28-C , 30-H ) :   0.9694 B( 28-C , 31-H ) :   0.9748

Dispersion correction           -0.014203543
FINAL SINGLE POINT ENERGY     -1339.864997680239

DIPOLE MOMENT
-------------
                                X             Y             Z
Electronic contribution:     -2.44180      11.95011     -15.58815
Nuclear contribution   :      2.68310     -12.33182      15.87840
                        -----------------------------------------
Total Dipole Moment    :      0.24130      -0.38171       0.29025
                        -----------------------------------------
Magnitude (a.u.)       :      0.53682
Magnitude (Debye)      :      1.36448

Rotational constants in cm-1:     0.020693     0.007208     0.006930
Rotational constants in MHz :   620.352090   216.103134   207.751460

                             ****ORCA TERMINATED NORMALLY****
TOTAL RUN TIME: 0 days 0 hours 0 minutes 20 seconds 47 msec
