                         Program Version 4.2.1 -  RELEASE  -
|  1> ! wB97X-D3 SP def2-SVP
|  2> %pal
|  3> nprocs 24
|  4> end
|  5>
|  6> * xyz 0 1
|  7> S 	 -103.831 	 -1.17569 	 -109.924
|  8> C 	 -104.882 	 -1.36234 	 -111.373
|  9> C 	 -106.218 	 -1.58517 	 -110.995
| 10> C 	 -106.407 	 -1.51998 	 -109.58
| 11> C 	 -105.252 	 -1.2241 	 -108.838
| 12> H 	 -107.297 	 -1.78435 	 -109.096
| 13> C 	 -107.378 	 -1.90586 	 -111.851
| 14> H 	 -107.635 	 -3.01828 	 -111.841
| 15> H 	 -107.095 	 -1.70003 	 -112.88
| 16> C 	 -108.712 	 -1.26635 	 -111.457
| 17> H 	 -109.078 	 -1.63168 	 -110.523
| 18> H 	 -108.451 	 -0.256304 	 -111.328
| 19> C 	 -109.822 	 -1.44344 	 -112.576
| 20> H 	 -110.757 	 -0.827432 	 -112.474
| 21> H 	 -109.304 	 -1.16144 	 -113.515
| 22> H 	 -110.085 	 -2.49031 	 -112.857
| 23> S 	 -104.506 	 -2.91507 	 -106.805
| 24> C 	 -105.031 	 -2.55201 	 -105.161
| 25> C 	 -105.813 	 -1.43749 	 -105.14
| 26> C 	 -105.874 	 -0.741699 	 -106.367
| 27> C 	 -105.212 	 -1.45012 	 -107.381
| 28> H 	 -106.426 	 -1.18876 	 -104.277
| 29> C 	 -106.618 	 0.587843 	 -106.585
| 30> H 	 -107.647 	 0.618991 	 -106.264
| 31> H 	 -106.763 	 0.760443 	 -107.675
| 32> C 	 -105.898 	 1.8282 	 -105.953
| 33> H 	 -105.747 	 1.61007 	 -104.939
| 34> H 	 -106.56 	 2.6799 	 -105.913
| 35> C 	 -104.508 	 2.133 	 -106.573
| 36> H 	 -103.987 	 1.17146 	 -106.666
| 37> H 	 -104.024 	 2.92511 	 -106.013
| 38> H 	 -104.634 	 2.33456 	 -107.635
| 39> H 	 -104.497 	 -1.44473 	 -112.376
| 40> H 	 -104.901 	 -3.24279 	 -104.328
| 41> *
| 42>
| 43>                          ****END OF INPUT****

CARTESIAN COORDINATES (ANGSTROEM)
---------------------------------
  S    -103.831000   -1.175690  -109.924000
  C    -104.882000   -1.362340  -111.373000
  C    -106.218000   -1.585170  -110.995000
  C    -106.407000   -1.519980  -109.580000
  C    -105.252000   -1.224100  -108.838000
  H    -107.297000   -1.784350  -109.096000
  C    -107.378000   -1.905860  -111.851000
  H    -107.635000   -3.018280  -111.841000
  H    -107.095000   -1.700030  -112.880000
  C    -108.712000   -1.266350  -111.457000
  H    -109.078000   -1.631680  -110.523000
  H    -108.451000   -0.256304  -111.328000
  C    -109.822000   -1.443440  -112.576000
  H    -110.757000   -0.827432  -112.474000
  H    -109.304000   -1.161440  -113.515000
  H    -110.085000   -2.490310  -112.857000
  S    -104.506000   -2.915070  -106.805000
  C    -105.031000   -2.552010  -105.161000
  C    -105.813000   -1.437490  -105.140000
  C    -105.874000   -0.741699  -106.367000
  C    -105.212000   -1.450120  -107.381000
  H    -106.426000   -1.188760  -104.277000
  C    -106.618000    0.587843  -106.585000
  H    -107.647000    0.618991  -106.264000
  H    -106.763000    0.760443  -107.675000
  C    -105.898000    1.828200  -105.953000
  H    -105.747000    1.610070  -104.939000
  H    -106.560000    2.679900  -105.913000
  C    -104.508000    2.133000  -106.573000
  H    -103.987000    1.171460  -106.666000
  H    -104.024000    2.925110  -106.013000
  H    -104.634000    2.334560  -107.635000
  H    -104.497000   -1.444730  -112.376000
  H    -104.901000   -3.242790  -104.328000

 Total Charge           Charge          ....    0
 Multiplicity           Mult            ....    1
 Number of Electrons    NEL             ....  134
 Basis Dimension        Dim             ....  322

ORBITAL ENERGIES
----------------

  NO   OCC          E(Eh)            E(eV)
   0   2.0000     -88.971486     -2421.0372
   1   2.0000     -88.966617     -2420.9047
   2   2.0000     -10.335544      -281.2445
   3   2.0000     -10.328192      -281.0444
   4   2.0000     -10.324644      -280.9478
   5   2.0000     -10.317248      -280.7466
   6   2.0000     -10.305468      -280.4260
   7   2.0000     -10.304410      -280.3972
   8   2.0000     -10.296140      -280.1722
   9   2.0000     -10.293878      -280.1107
  10   2.0000     -10.292322      -280.0683
  11   2.0000     -10.292240      -280.0661
  12   2.0000     -10.291959      -280.0584
  13   2.0000     -10.288411      -279.9619
  14   2.0000     -10.277355      -279.6610
  15   2.0000     -10.269128      -279.4372
  16   2.0000      -8.084455      -219.9892
  17   2.0000      -8.081664      -219.9133
  18   2.0000      -6.043130      -164.4419
  19   2.0000      -6.040099      -164.3594
  20   2.0000      -6.039208      -164.3352
  21   2.0000      -6.036153      -164.2521
  22   2.0000      -6.035142      -164.2246
  23   2.0000      -6.032450      -164.1513
  24   2.0000      -1.005012       -27.3478
  25   2.0000      -0.979904       -26.6645
  26   2.0000      -0.914323       -24.8800
  27   2.0000      -0.900019       -24.4908
  28   2.0000      -0.868349       -23.6290
  29   2.0000      -0.845883       -23.0177
  30   2.0000      -0.843386       -22.9497
  31   2.0000      -0.811687       -22.0871
  32   2.0000      -0.778408       -21.1816
  33   2.0000      -0.769986       -20.9524
  34   2.0000      -0.714534       -19.4435
  35   2.0000      -0.698616       -19.0103
  36   2.0000      -0.695535       -18.9265
  37   2.0000      -0.656338       -17.8599
  38   2.0000      -0.643100       -17.4996
  39   2.0000      -0.622887       -16.9496
  40   2.0000      -0.599505       -16.3134
  41   2.0000      -0.573728       -15.6119
  42   2.0000      -0.561158       -15.2699
  43   2.0000      -0.550511       -14.9802
  44   2.0000      -0.532432       -14.4882
  45   2.0000      -0.523821       -14.2539
  46   2.0000      -0.516327       -14.0500
  47   2.0000      -0.510155       -13.8820
  48   2.0000      -0.498915       -13.5762
  49   2.0000      -0.495157       -13.4739
  50   2.0000      -0.486784       -13.2461
  51   2.0000      -0.480245       -13.0681
  52   2.0000      -0.464969       -12.6524
  53   2.0000      -0.462271       -12.5790
  54   2.0000      -0.458884       -12.4869
  55   2.0000      -0.447411       -12.1747
  56   2.0000      -0.444520       -12.0960
  57   2.0000      -0.436629       -11.8813
  58   2.0000      -0.431595       -11.7443
  59   2.0000      -0.427766       -11.6401
  60   2.0000      -0.421330       -11.4650
  61   2.0000      -0.420018       -11.4293
  62   2.0000      -0.411260       -11.1910
  63   2.0000      -0.343843        -9.3564
  64   2.0000      -0.329575        -8.9682
  65   2.0000      -0.325994        -8.8707
  66   2.0000      -0.299762        -8.1569
  67   0.0000       0.029658         0.8070
  68   0.0000       0.057833         1.5737
  69   0.0000       0.107875         2.9354
  70   0.0000       0.117395         3.1945
  71   0.0000       0.122724         3.3395

MULLIKEN ATOMIC CHARGES
-----------------------
   0 S :    0.099307
   1 C :   -0.118762
   2 C :   -0.068633
   3 C :    0.050732
   4 C :   -0.150719
   5 H :    0.002270
   6 C :    0.032660
   7 H :    0.050099
   8 H :    0.013096
   9 C :   -0.062942
  10 H :    0.033490
  11 H :    0.026755
  12 C :   -0.070895
  13 H :    0.056704
  14 H :    0.020156
  15 H :    0.033618
  16 S :    0.116950
  17 C :   -0.101681
  18 C :   -0.023911
  19 C :   -0.042267
  20 C :   -0.167187
  21 H :    0.023515
  22 C :    0.047592
  23 H :    0.021364
  24 H :    0.027991
  25 C :   -0.055335
  26 H :    0.008565
  27 H :    0.020110
  28 C :   -0.038271
  29 H :    0.035486
  30 H :    0.046235
  31 H :    0.021949
  32 H :    0.050039
  33 H :    0.061919
Sum of atomic charges:   -0.0000000

LOEWDIN ATOMIC CHARGES
----------------------
   0 S :    0.377258
   1 C :   -0.179683
   2 C :   -0.063444
   3 C :   -0.043283
   4 C :   -0.189302
   5 H :    0.023231
   6 C :   -0.039624
   7 H :    0.042802
   8 H :    0.026598
   9 C :   -0.033347
  10 H :    0.018226
  11 H :    0.019993
  12 C :   -0.076349
  13 H :    0.034396
  14 H :    0.026341
  15 H :    0.028190
  16 S :    0.415591
  17 C :   -0.183769
  18 C :   -0.070023
  19 C :   -0.059603
  20 C :   -0.206901
  21 H :    0.034941
  22 C :   -0.033462
  23 H :    0.028344
  24 H :    0.031566
  25 C :   -0.035650
  26 H :    0.012603
  27 H :    0.019310
  28 C :   -0.066027
  29 H :    0.030357
  30 H :    0.027082
  31 H :    0.024590
  32 H :    0.027471
  33 H :    0.031577

  Mayer bond orders larger than 0.100000
B(  0-S ,  1-C ) :   1.1315 B(  0-S ,  4-C ) :   1.1416 B(  1-C ,  2-C ) :   1.5941
B(  1-C , 32-H ) :   0.9696 B(  2-C ,  3-C ) :   1.2475 B(  2-C ,  6-C ) :   1.0458
B(  3-C ,  4-C ) :   1.5604 B(  3-C ,  5-H ) :   0.9954 B(  4-C , 20-C ) :   1.0220
B(  6-C ,  7-H ) :   0.9286 B(  6-C ,  8-H ) :   0.9405 B(  6-C ,  9-C ) :   1.0569
B(  9-C , 10-H ) :   0.9479 B(  9-C , 11-H ) :   0.9631 B(  9-C , 12-C ) :   1.0699
B( 12-C , 13-H ) :   0.9766 B( 12-C , 14-H ) :   0.9735 B( 12-C , 15-H ) :   0.9754
B( 16-S , 17-C ) :   1.1476 B( 16-S , 20-C ) :   1.1668 B( 17-C , 18-C ) :   1.6070
B( 17-C , 33-H ) :   0.9675 B( 18-C , 19-C ) :   1.2606 B( 18-C , 21-H ) :   0.9864
B( 19-C , 20-C ) :   1.5776 B( 19-C , 22-C ) :   1.0402 B( 22-C , 23-H ) :   0.9394
B( 22-C , 24-H ) :   0.9364 B( 22-C , 25-C ) :   1.0675 B( 25-C , 26-H ) :   0.9576
B( 25-C , 27-H ) :   0.9565 B( 25-C , 28-C ) :   1.0681 B( 28-C , 29-H ) :   0.9730
B( 28-C , 30-H ) :   0.9747 B( 28-C , 31-H ) :   0.9741

Dispersion correction           -0.014609143
FINAL SINGLE POINT ENERGY     -1339.873784557332

DIPOLE MOMENT
-------------
                                X             Y             Z
Electronic contribution:     19.05676     -12.86885       6.45064
Nuclear contribution   :    -19.77209      12.78531      -6.53706
                        -----------------------------------------
Total Dipole Moment    :     -0.71533      -0.08354      -0.08642
                        -----------------------------------------
Magnitude (a.u.)       :      0.72536
Magnitude (Debye)      :      1.84372

Rotational constants in cm-1:     0.018229     0.008080     0.007502
Rotational constants in MHz :   546.496035   242.245950   224.897956

                             ****ORCA TERMINATED NORMALLY****
TOTAL RUN TIME: 0 days 0 hours 0 minutes 21 seconds 878 msec
