                         Program Version 4.2.1 -  RELEASE  -
|  1> ! wB97X-D3 SP def2-SVP
|  2> %pal
|  3> nprocs 24
|  4> end
|  5>
|  6> * xyz 0 1
|  7> S 	 -115.164 	 16.2569 	 -113.882
|  8> C 	 -114.676 	 16.9748 	 -115.396
|  9> C 	 -115.061 	 18.2956 	 -115.44
| 10> C 	 -115.936 	 18.6733 	 -114.368
| 11> C 	 -116.107 	 17.6949 	 -113.489
| 12> H 	 -116.459 	 19.5779 	 -114.217
| 13> C 	 -114.736 	 19.3039 	 -116.574
| 14> H 	 -115.692 	 19.64 	 -117.011
| 15> H 	 -114.131 	 18.745 	 -117.369
| 16> C 	 -113.85 	 20.4536 	 -116.065
| 17> H 	 -113.628 	 20.9947 	 -116.918
| 18> H 	 -114.423 	 21.1406 	 -115.454
| 19> C 	 -112.593 	 20.0107 	 -115.198
| 20> H 	 -112.171 	 19.1876 	 -115.723
| 21> H 	 -111.787 	 20.7543 	 -115.217
| 22> H 	 -112.833 	 19.8697 	 -114.148
| 23> S 	 -118.675 	 17.2299 	 -112.305
| 24> C 	 -118.741 	 17.5224 	 -110.607
| 25> C 	 -117.532 	 18.1049 	 -110.099
| 26> C 	 -116.474 	 18.0814 	 -111.002
| 27> C 	 -116.898 	 17.7417 	 -112.277
| 28> H 	 -117.424 	 18.3307 	 -109.034
| 29> C 	 -115.018 	 18.3405 	 -110.582
| 30> H 	 -114.473 	 17.5243 	 -111.006
| 31> H 	 -114.888 	 18.1107 	 -109.58
| 32> C 	 -114.522 	 19.7033 	 -110.809
| 33> H 	 -115.06 	 20.3213 	 -110.094
| 34> H 	 -114.815 	 20.1176 	 -111.788
| 35> C 	 -113.05 	 19.9962 	 -110.584
| 36> H 	 -112.527 	 19.5311 	 -111.385
| 37> H 	 -112.83 	 19.5232 	 -109.66
| 38> H 	 -112.772 	 21.0601 	 -110.438
| 39> H 	 -113.914 	 16.5231 	 -116.068
| 40> H 	 -119.622 	 17.6977 	 -110.003
| 41> *
| 42>
| 43>                          ****END OF INPUT****

CARTESIAN COORDINATES (ANGSTROEM)
---------------------------------
  S    -115.164000   16.256900  -113.882000
  C    -114.676000   16.974800  -115.396000
  C    -115.061000   18.295600  -115.440000
  C    -115.936000   18.673300  -114.368000
  C    -116.107000   17.694900  -113.489000
  H    -116.459000   19.577900  -114.217000
  C    -114.736000   19.303900  -116.574000
  H    -115.692000   19.640000  -117.011000
  H    -114.131000   18.745000  -117.369000
  C    -113.850000   20.453600  -116.065000
  H    -113.628000   20.994700  -116.918000
  H    -114.423000   21.140600  -115.454000
  C    -112.593000   20.010700  -115.198000
  H    -112.171000   19.187600  -115.723000
  H    -111.787000   20.754300  -115.217000
  H    -112.833000   19.869700  -114.148000
  S    -118.675000   17.229900  -112.305000
  C    -118.741000   17.522400  -110.607000
  C    -117.532000   18.104900  -110.099000
  C    -116.474000   18.081400  -111.002000
  C    -116.898000   17.741700  -112.277000
  H    -117.424000   18.330700  -109.034000
  C    -115.018000   18.340500  -110.582000
  H    -114.473000   17.524300  -111.006000
  H    -114.888000   18.110700  -109.580000
  C    -114.522000   19.703300  -110.809000
  H    -115.060000   20.321300  -110.094000
  H    -114.815000   20.117600  -111.788000
  C    -113.050000   19.996200  -110.584000
  H    -112.527000   19.531100  -111.385000
  H    -112.830000   19.523200  -109.660000
  H    -112.772000   21.060100  -110.438000
  H    -113.914000   16.523100  -116.068000
  H    -119.622000   17.697700  -110.003000

 Total Charge           Charge          ....    0
 Multiplicity           Mult            ....    1
 Number of Electrons    NEL             ....  134
 Basis Dimension        Dim             ....  322

ORBITAL ENERGIES
----------------

  NO   OCC          E(Eh)            E(eV)
   0   2.0000     -88.971437     -2421.0359
   1   2.0000     -88.961003     -2420.7520
   2   2.0000     -10.327643      -281.0295
   3   2.0000     -10.320329      -280.8304
   4   2.0000     -10.318841      -280.7899
   5   2.0000     -10.314988      -280.6851
   6   2.0000     -10.302849      -280.3548
   7   2.0000     -10.301119      -280.3077
   8   2.0000     -10.300873      -280.3010
   9   2.0000     -10.293456      -280.0992
  10   2.0000     -10.286505      -279.9100
  11   2.0000     -10.283716      -279.8341
  12   2.0000     -10.282958      -279.8135
  13   2.0000     -10.279079      -279.7080
  14   2.0000     -10.278843      -279.7015
  15   2.0000     -10.272804      -279.5372
  16   2.0000      -8.084755      -219.9974
  17   2.0000      -8.075879      -219.7559
  18   2.0000      -6.043149      -164.4425
  19   2.0000      -6.039549      -164.3445
  20   2.0000      -6.035638      -164.2380
  21   2.0000      -6.034368      -164.2035
  22   2.0000      -6.030483      -164.0978
  23   2.0000      -6.026531      -163.9903
  24   2.0000      -1.005410       -27.3586
  25   2.0000      -0.980534       -26.6817
  26   2.0000      -0.918816       -25.0023
  27   2.0000      -0.905171       -24.6310
  28   2.0000      -0.867242       -23.5988
  29   2.0000      -0.856255       -23.2999
  30   2.0000      -0.842865       -22.9355
  31   2.0000      -0.807899       -21.9840
  32   2.0000      -0.790816       -21.5192
  33   2.0000      -0.773794       -21.0560
  34   2.0000      -0.707159       -19.2428
  35   2.0000      -0.700349       -19.0575
  36   2.0000      -0.690684       -18.7945
  37   2.0000      -0.659770       -17.9533
  38   2.0000      -0.644411       -17.5353
  39   2.0000      -0.617181       -16.7943
  40   2.0000      -0.596534       -16.2325
  41   2.0000      -0.571694       -15.5566
  42   2.0000      -0.558813       -15.2061
  43   2.0000      -0.554971       -15.1015
  44   2.0000      -0.538334       -14.6488
  45   2.0000      -0.529120       -14.3981
  46   2.0000      -0.516385       -14.0516
  47   2.0000      -0.510828       -13.9003
  48   2.0000      -0.505818       -13.7640
  49   2.0000      -0.494425       -13.4540
  50   2.0000      -0.485430       -13.2092
  51   2.0000      -0.483994       -13.1702
  52   2.0000      -0.472634       -12.8610
  53   2.0000      -0.468498       -12.7485
  54   2.0000      -0.458717       -12.4823
  55   2.0000      -0.447040       -12.1646
  56   2.0000      -0.444071       -12.0838
  57   2.0000      -0.440894       -11.9973
  58   2.0000      -0.436307       -11.8725
  59   2.0000      -0.421668       -11.4742
  60   2.0000      -0.417701       -11.3662
  61   2.0000      -0.411798       -11.2056
  62   2.0000      -0.409082       -11.1317
  63   2.0000      -0.341160        -9.2834
  64   2.0000      -0.334733        -9.1086
  65   2.0000      -0.316936        -8.6243
  66   2.0000      -0.307016        -8.3543
  67   0.0000       0.038368         1.0441
  68   0.0000       0.050294         1.3686
  69   0.0000       0.107632         2.9288
  70   0.0000       0.117224         3.1898
  71   0.0000       0.130502         3.5511

MULLIKEN ATOMIC CHARGES
-----------------------
   0 S :    0.100946
   1 C :   -0.128656
   2 C :   -0.093905
   3 C :    0.064470
   4 C :   -0.167996
   5 H :    0.000444
   6 C :    0.033853
   7 H :    0.046263
   8 H :    0.027197
   9 C :   -0.056374
  10 H :    0.015994
  11 H :    0.021181
  12 C :   -0.039430
  13 H :    0.019435
  14 H :    0.028878
  15 H :    0.053056
  16 S :    0.123043
  17 C :   -0.082857
  18 C :   -0.072910
  19 C :   -0.028022
  20 C :   -0.206999
  21 H :    0.023928
  22 C :    0.172491
  23 H :    0.006530
  24 H :   -0.014795
  25 C :   -0.083951
  26 H :    0.010999
  27 H :    0.023491
  28 C :   -0.008920
  29 H :    0.034797
  30 H :    0.008804
  31 H :    0.042096
  32 H :    0.062602
  33 H :    0.064316
Sum of atomic charges:   -0.0000000

LOEWDIN ATOMIC CHARGES
----------------------
   0 S :    0.390717
   1 C :   -0.203543
   2 C :   -0.063408
   3 C :   -0.053013
   4 C :   -0.186437
   5 H :    0.030169
   6 C :   -0.030509
   7 H :    0.034900
   8 H :    0.031788
   9 C :   -0.036819
  10 H :    0.014586
  11 H :    0.019176
  12 C :   -0.059964
  13 H :    0.019930
  14 H :    0.027958
  15 H :    0.029721
  16 S :    0.391668
  17 C :   -0.201241
  18 C :   -0.074807
  19 C :   -0.042062
  20 C :   -0.179127
  21 H :    0.031407
  22 C :   -0.022026
  23 H :    0.026449
  24 H :    0.021740
  25 C :   -0.043698
  26 H :    0.022907
  27 H :    0.020697
  28 C :   -0.057091
  29 H :    0.021437
  30 H :    0.018617
  31 H :    0.033251
  32 H :    0.035954
  33 H :    0.030674

  Mayer bond orders larger than 0.100000
B(  0-S ,  1-C ) :   1.1267 B(  0-S ,  4-C ) :   1.1310 B(  1-C ,  2-C ) :   1.6525
B(  1-C , 32-H ) :   0.9586 B(  2-C ,  3-C ) :   1.1826 B(  2-C ,  6-C ) :   1.0205
B(  3-C ,  4-C ) :   1.6490 B(  3-C ,  5-H ) :   1.0001 B(  4-C , 20-C ) :   1.0254
B(  6-C ,  7-H ) :   0.9463 B(  6-C ,  8-H ) :   0.9448 B(  6-C ,  9-C ) :   1.0691
B(  9-C , 10-H ) :   0.9593 B(  9-C , 11-H ) :   0.9564 B(  9-C , 12-C ) :   1.0643
B( 12-C , 13-H ) :   0.9787 B( 12-C , 14-H ) :   0.9747 B( 12-C , 15-H ) :   0.9732
B( 16-S , 17-C ) :   1.1741 B( 16-S , 20-C ) :   1.1306 B( 17-C , 18-C ) :   1.5905
B( 17-C , 20-C ) :   0.1186 B( 17-C , 33-H ) :   0.9572 B( 18-C , 19-C ) :   1.2837
B( 18-C , 21-H ) :   0.9761 B( 19-C , 20-C ) :   1.5901 B( 19-C , 22-C ) :   1.0260
B( 22-C , 23-H ) :   0.9203 B( 22-C , 24-H ) :   0.9135 B( 22-C , 25-C ) :   1.0650
B( 25-C , 26-H ) :   0.9457 B( 25-C , 27-H ) :   0.9579 B( 25-C , 28-C ) :   1.0841
B( 28-C , 29-H ) :   0.9759 B( 28-C , 30-H ) :   0.9677 B( 28-C , 31-H ) :   0.9740

Dispersion correction           -0.016026785
FINAL SINGLE POINT ENERGY     -1339.862515873476

DIPOLE MOMENT
-------------
                                X             Y             Z
Electronic contribution:    -21.37437     -19.16553       0.23948
Nuclear contribution   :     21.75911      19.76172      -0.16495
                        -----------------------------------------
Total Dipole Moment    :      0.38474       0.59619       0.07453
                        -----------------------------------------
Magnitude (a.u.)       :      0.71345
Magnitude (Debye)      :      1.81346

Rotational constants in cm-1:     0.018323     0.010040     0.007762
Rotational constants in MHz :   549.297811   300.977468   232.684687

                             ****ORCA TERMINATED NORMALLY****
TOTAL RUN TIME: 0 days 0 hours 0 minutes 22 seconds 928 msec
