                         Program Version 4.2.1 -  RELEASE  -
|  1> ! wB97X-D3 SP def2-SVP
|  2> %pal
|  3> nprocs 24
|  4> end
|  5>
|  6> * xyz 0 1
|  7> S 	 -103.601 	 61.6578 	 -105.974
|  8> C 	 -102.595 	 60.339 	 -105.416
|  9> C 	 -103.13 	 59.0991 	 -105.659
| 10> C 	 -104.46 	 59.2607 	 -106.265
| 11> C 	 -104.866 	 60.5516 	 -106.398
| 12> H 	 -105.155 	 58.4303 	 -106.357
| 13> C 	 -102.551 	 57.7602 	 -105.249
| 14> H 	 -103.067 	 56.9903 	 -105.748
| 15> H 	 -102.781 	 57.6358 	 -104.181
| 16> C 	 -101.104 	 57.4773 	 -105.573
| 17> H 	 -100.583 	 58.4029 	 -105.279
| 18> H 	 -100.713 	 56.6826 	 -105.02
| 19> C 	 -100.919 	 57.3943 	 -107.044
| 20> H 	 -101.448 	 58.3392 	 -107.393
| 21> H 	 -99.9093 	 57.6208 	 -107.393
| 22> H 	 -101.304 	 56.4494 	 -107.557
| 23> S 	 -106.121 	 62.2491 	 -108.113
| 24> C 	 -107.835 	 62.4304 	 -108.084
| 25> C 	 -108.4 	 61.5469 	 -107.193
| 26> C 	 -107.476 	 60.7866 	 -106.499
| 27> C 	 -106.151 	 61.0944 	 -106.839
| 28> H 	 -109.465 	 61.501 	 -107.047
| 29> C 	 -107.894 	 59.8019 	 -105.472
| 30> H 	 -107.077 	 59.0915 	 -105.305
| 31> H 	 -108.65 	 59.2043 	 -105.921
| 32> C 	 -108.247 	 60.2896 	 -104.074
| 33> H 	 -109.087 	 61.0294 	 -104.105
| 34> H 	 -107.45 	 60.8971 	 -103.593
| 35> C 	 -108.569 	 59.0978 	 -103.178
| 36> H 	 -107.612 	 58.6925 	 -102.884
| 37> H 	 -109.166 	 58.3331 	 -103.677
| 38> H 	 -109.248 	 59.3421 	 -102.313
| 39> H 	 -101.621 	 60.48 	 -104.906
| 40> H 	 -108.429 	 63.0818 	 -108.693
| 41> *
| 42>
| 43>                          ****END OF INPUT****

CARTESIAN COORDINATES (ANGSTROEM)
---------------------------------
  S    -103.601000   61.657800  -105.974000
  C    -102.595000   60.339000  -105.416000
  C    -103.130000   59.099100  -105.659000
  C    -104.460000   59.260700  -106.265000
  C    -104.866000   60.551600  -106.398000
  H    -105.155000   58.430300  -106.357000
  C    -102.551000   57.760200  -105.249000
  H    -103.067000   56.990300  -105.748000
  H    -102.781000   57.635800  -104.181000
  C    -101.104000   57.477300  -105.573000
  H    -100.583000   58.402900  -105.279000
  H    -100.713000   56.682600  -105.020000
  C    -100.919000   57.394300  -107.044000
  H    -101.448000   58.339200  -107.393000
  H    -99.909300   57.620800  -107.393000
  H    -101.304000   56.449400  -107.557000
  S    -106.121000   62.249100  -108.113000
  C    -107.835000   62.430400  -108.084000
  C    -108.400000   61.546900  -107.193000
  C    -107.476000   60.786600  -106.499000
  C    -106.151000   61.094400  -106.839000
  H    -109.465000   61.501000  -107.047000
  C    -107.894000   59.801900  -105.472000
  H    -107.077000   59.091500  -105.305000
  H    -108.650000   59.204300  -105.921000
  C    -108.247000   60.289600  -104.074000
  H    -109.087000   61.029400  -104.105000
  H    -107.450000   60.897100  -103.593000
  C    -108.569000   59.097800  -103.178000
  H    -107.612000   58.692500  -102.884000
  H    -109.166000   58.333100  -103.677000
  H    -109.248000   59.342100  -102.313000
  H    -101.621000   60.480000  -104.906000
  H    -108.429000   63.081800  -108.693000

 Total Charge           Charge          ....    0
 Multiplicity           Mult            ....    1
 Number of Electrons    NEL             ....  134
 Basis Dimension        Dim             ....  322

ORBITAL ENERGIES
----------------

  NO   OCC          E(Eh)            E(eV)
   0   2.0000     -88.966978     -2420.9146
   1   2.0000     -88.965412     -2420.8719
   2   2.0000     -10.328053      -281.0406
   3   2.0000     -10.324047      -280.9316
   4   2.0000     -10.315370      -280.6955
   5   2.0000     -10.312399      -280.6146
   6   2.0000     -10.304948      -280.4119
   7   2.0000     -10.295741      -280.1614
   8   2.0000     -10.295217      -280.1471
   9   2.0000     -10.288229      -279.9569
  10   2.0000     -10.288174      -279.9555
  11   2.0000     -10.286588      -279.9123
  12   2.0000     -10.284112      -279.8449
  13   2.0000     -10.280009      -279.7333
  14   2.0000     -10.279794      -279.7274
  15   2.0000     -10.279534      -279.7203
  16   2.0000      -8.082506      -219.9362
  17   2.0000      -8.080724      -219.8877
  18   2.0000      -6.040817      -164.3790
  19   2.0000      -6.039336      -164.3387
  20   2.0000      -6.036737      -164.2680
  21   2.0000      -6.035183      -164.2257
  22   2.0000      -6.033611      -164.1829
  23   2.0000      -6.031292      -164.1198
  24   2.0000      -1.013973       -27.5916
  25   2.0000      -0.989963       -26.9383
  26   2.0000      -0.924828       -25.1658
  27   2.0000      -0.914034       -24.8721
  28   2.0000      -0.871907       -23.7258
  29   2.0000      -0.856033       -23.2938
  30   2.0000      -0.846340       -23.0301
  31   2.0000      -0.814839       -22.1729
  32   2.0000      -0.782934       -21.3047
  33   2.0000      -0.771617       -20.9968
  34   2.0000      -0.704848       -19.1799
  35   2.0000      -0.703145       -19.1335
  36   2.0000      -0.694094       -18.8873
  37   2.0000      -0.666257       -18.1298
  38   2.0000      -0.637195       -17.3390
  39   2.0000      -0.615454       -16.7474
  40   2.0000      -0.600345       -16.3362
  41   2.0000      -0.584886       -15.9156
  42   2.0000      -0.565279       -15.3820
  43   2.0000      -0.564334       -15.3563
  44   2.0000      -0.543978       -14.8024
  45   2.0000      -0.523685       -14.2502
  46   2.0000      -0.519020       -14.1232
  47   2.0000      -0.508778       -13.8445
  48   2.0000      -0.504289       -13.7224
  49   2.0000      -0.496676       -13.5152
  50   2.0000      -0.492809       -13.4100
  51   2.0000      -0.478620       -13.0239
  52   2.0000      -0.471214       -12.8224
  53   2.0000      -0.464929       -12.6513
  54   2.0000      -0.460388       -12.5278
  55   2.0000      -0.449447       -12.2301
  56   2.0000      -0.442170       -12.0321
  57   2.0000      -0.439020       -11.9463
  58   2.0000      -0.436862       -11.8876
  59   2.0000      -0.425123       -11.5682
  60   2.0000      -0.423533       -11.5249
  61   2.0000      -0.410513       -11.1706
  62   2.0000      -0.409253       -11.1363
  63   2.0000      -0.349391        -9.5074
  64   2.0000      -0.334179        -9.0935
  65   2.0000      -0.330201        -8.9852
  66   2.0000      -0.292909        -7.9705
  67   0.0000       0.034053         0.9266
  68   0.0000       0.071186         1.9371
  69   0.0000       0.113071         3.0768
  70   0.0000       0.119390         3.2488
  71   0.0000       0.136326         3.7096

MULLIKEN ATOMIC CHARGES
-----------------------
   0 S :    0.113697
   1 C :   -0.142222
   2 C :   -0.142830
   3 C :    0.047885
   4 C :   -0.157415
   5 H :    0.018136
   6 C :    0.101303
   7 H :   -0.001848
   8 H :    0.045391
   9 C :   -0.022999
  10 H :    0.013180
  11 H :    0.018736
  12 C :   -0.093029
  13 H :    0.043151
  14 H :    0.030319
  15 H :    0.049271
  16 S :    0.120762
  17 C :   -0.078555
  18 C :   -0.042841
  19 C :   -0.013732
  20 C :   -0.153197
  21 H :    0.010746
  22 C :    0.074592
  23 H :   -0.003451
  24 H :    0.015972
  25 C :   -0.071086
  26 H :    0.021062
  27 H :    0.039100
  28 C :   -0.050064
  29 H :    0.039167
  30 H :    0.022749
  31 H :    0.040705
  32 H :    0.061078
  33 H :    0.046270
Sum of atomic charges:   -0.0000000

LOEWDIN ATOMIC CHARGES
----------------------
   0 S :    0.408274
   1 C :   -0.203305
   2 C :   -0.062981
   3 C :   -0.063737
   4 C :   -0.196127
   5 H :    0.029387
   6 C :   -0.029710
   7 H :    0.021564
   8 H :    0.038593
   9 C :   -0.039975
  10 H :    0.025432
  11 H :    0.015970
  12 C :   -0.077627
  13 H :    0.039200
  14 H :    0.024256
  15 H :    0.030764
  16 S :    0.438048
  17 C :   -0.192510
  18 C :   -0.069213
  19 C :   -0.059774
  20 C :   -0.211035
  21 H :    0.031026
  22 C :   -0.034946
  23 H :    0.028673
  24 H :    0.028197
  25 C :   -0.042754
  26 H :    0.020099
  27 H :    0.031148
  28 C :   -0.068246
  29 H :    0.025880
  30 H :    0.022317
  31 H :    0.033750
  32 H :    0.032466
  33 H :    0.026895

  Mayer bond orders larger than 0.100000
B(  0-S ,  1-C ) :   1.1280 B(  0-S ,  4-C ) :   1.1471 B(  1-C ,  2-C ) :   1.6411
B(  1-C , 32-H ) :   0.9608 B(  2-C ,  3-C ) :   1.2092 B(  2-C ,  6-C ) :   1.0126
B(  3-C ,  4-C ) :   1.6177 B(  3-C ,  5-H ) :   0.9871 B(  4-C , 20-C ) :   1.0071
B(  6-C ,  7-H ) :   0.9341 B(  6-C ,  8-H ) :   0.9323 B(  6-C ,  9-C ) :   1.0755
B(  9-C , 10-H ) :   0.9533 B(  9-C , 11-H ) :   0.9530 B(  9-C , 12-C ) :   1.0757
B( 12-C , 13-H ) :   0.9688 B( 12-C , 14-H ) :   0.9721 B( 12-C , 15-H ) :   0.9719
B( 16-S , 17-C ) :   1.1729 B( 16-S , 20-C ) :   1.1723 B( 17-C , 18-C ) :   1.5609
B( 17-C , 20-C ) :   0.1093 B( 17-C , 33-H ) :   0.9707 B( 18-C , 19-C ) :   1.2951
B( 18-C , 21-H ) :   0.9953 B( 19-C , 20-C ) :   1.5472 B( 19-C , 22-C ) :   1.0510
B( 22-C , 23-H ) :   0.9253 B( 22-C , 24-H ) :   0.9235 B( 22-C , 25-C ) :   1.0660
B( 25-C , 26-H ) :   0.9556 B( 25-C , 27-H ) :   0.9557 B( 25-C , 28-C ) :   1.0710
B( 28-C , 29-H ) :   0.9770 B( 28-C , 30-H ) :   0.9739 B( 28-C , 31-H ) :   0.9734

Dispersion correction           -0.013976335
FINAL SINGLE POINT ENERGY     -1339.884837061597

DIPOLE MOMENT
-------------
                                X             Y             Z
Electronic contribution:     -0.59610      21.04646     -12.61862
Nuclear contribution   :      0.37377     -21.54275      12.95480
                        -----------------------------------------
Total Dipole Moment    :     -0.22233      -0.49629       0.33618
                        -----------------------------------------
Magnitude (a.u.)       :      0.63934
Magnitude (Debye)      :      1.62507

Rotational constants in cm-1:     0.019358     0.008330     0.006614
Rotational constants in MHz :   580.333310   249.740456   198.297590

                             ****ORCA TERMINATED NORMALLY****
TOTAL RUN TIME: 0 days 0 hours 0 minutes 21 seconds 431 msec
