                         Program Version 4.2.1 -  RELEASE  -
|  1> ! wB97X-D3 SP def2-SVP
|  2> %pal
|  3> nprocs 24
|  4> end
|  5>
|  6> * xyz 0 1
|  7> S 	 -48.3595 	 10.9705 	 -21.5869
|  8> C 	 -49.8094 	 10.1874 	 -20.9227
|  9> C 	 -50.7815 	 11.1651 	 -20.6705
| 10> C 	 -50.269 	 12.4613 	 -20.9854
| 11> C 	 -48.9231 	 12.5045 	 -21.2814
| 12> H 	 -50.8978 	 13.3564 	 -20.8983
| 13> C 	 -52.0553 	 11.0708 	 -19.9339
| 14> H 	 -52.0442 	 11.7681 	 -19.0299
| 15> H 	 -52.0329 	 10.1512 	 -19.394
| 16> C 	 -53.3854 	 11.2001 	 -20.7754
| 17> H 	 -53.2663 	 12.2159 	 -21.3003
| 18> H 	 -53.4247 	 10.4528 	 -21.5606
| 19> C 	 -54.737 	 11.0234 	 -20.0253
| 20> H 	 -55.545 	 10.9704 	 -20.7399
| 21> H 	 -54.7503 	 10.0682 	 -19.512
| 22> H 	 -54.7233 	 11.8635 	 -19.2592
| 23> S 	 -47.0692 	 13.5672 	 -23.0978
| 24> C 	 -46.3451 	 15.1014 	 -22.6959
| 25> C 	 -46.977 	 15.7696 	 -21.654
| 26> C 	 -47.885 	 14.8792 	 -20.9713
| 27> C 	 -48.0711 	 13.6319 	 -21.6283
| 28> H 	 -46.71 	 16.7857 	 -21.3776
| 29> C 	 -48.4651 	 15.3133 	 -19.6004
| 30> H 	 -47.7676 	 15.9394 	 -19.0908
| 31> H 	 -48.4996 	 14.376 	 -19.0028
| 32> C 	 -49.7656 	 16.0556 	 -19.7521
| 33> H 	 -50.4073 	 15.7042 	 -20.504
| 34> H 	 -49.4956 	 17.0391 	 -20.1602
| 35> C 	 -50.3653 	 16.1972 	 -18.3955
| 36> H 	 -49.6795 	 16.7811 	 -17.855
| 37> H 	 -50.4028 	 15.2325 	 -17.9242
| 38> H 	 -51.3095 	 16.6264 	 -18.3789
| 39> H 	 -49.9421 	 9.17059 	 -20.7632
| 40> H 	 -45.6834 	 15.6456 	 -23.2967
| 41> *
| 42>
| 43>                          ****END OF INPUT****

CARTESIAN COORDINATES (ANGSTROEM)
---------------------------------
  S    -48.359500   10.970500  -21.586900
  C    -49.809400   10.187400  -20.922700
  C    -50.781500   11.165100  -20.670500
  C    -50.269000   12.461300  -20.985400
  C    -48.923100   12.504500  -21.281400
  H    -50.897800   13.356400  -20.898300
  C    -52.055300   11.070800  -19.933900
  H    -52.044200   11.768100  -19.029900
  H    -52.032900   10.151200  -19.394000
  C    -53.385400   11.200100  -20.775400
  H    -53.266300   12.215900  -21.300300
  H    -53.424700   10.452800  -21.560600
  C    -54.737000   11.023400  -20.025300
  H    -55.545000   10.970400  -20.739900
  H    -54.750300   10.068200  -19.512000
  H    -54.723300   11.863500  -19.259200
  S    -47.069200   13.567200  -23.097800
  C    -46.345100   15.101400  -22.695900
  C    -46.977000   15.769600  -21.654000
  C    -47.885000   14.879200  -20.971300
  C    -48.071100   13.631900  -21.628300
  H    -46.710000   16.785700  -21.377600
  C    -48.465100   15.313300  -19.600400
  H    -47.767600   15.939400  -19.090800
  H    -48.499600   14.376000  -19.002800
  C    -49.765600   16.055600  -19.752100
  H    -50.407300   15.704200  -20.504000
  H    -49.495600   17.039100  -20.160200
  C    -50.365300   16.197200  -18.395500
  H    -49.679500   16.781100  -17.855000
  H    -50.402800   15.232500  -17.924200
  H    -51.309500   16.626400  -18.378900
  H    -49.942100    9.170590  -20.763200
  H    -45.683400   15.645600  -23.296700

 Total Charge           Charge          ....    0
 Multiplicity           Mult            ....    1
 Number of Electrons    NEL             ....  134
 Basis Dimension        Dim             ....  322

ORBITAL ENERGIES
----------------

  NO   OCC          E(Eh)            E(eV)
   0   2.0000     -88.969159     -2420.9739
   1   2.0000     -88.963943     -2420.8320
   2   2.0000     -10.330978      -281.1202
   3   2.0000     -10.323730      -280.9230
   4   2.0000     -10.314058      -280.6598
   5   2.0000     -10.313646      -280.6486
   6   2.0000     -10.307749      -280.4881
   7   2.0000     -10.301147      -280.3085
   8   2.0000     -10.297026      -280.1963
   9   2.0000     -10.295991      -280.1682
  10   2.0000     -10.295799      -280.1629
  11   2.0000     -10.290321      -280.0139
  12   2.0000     -10.289698      -279.9969
  13   2.0000     -10.287326      -279.9324
  14   2.0000     -10.276759      -279.6448
  15   2.0000     -10.263568      -279.2859
  16   2.0000      -8.083236      -219.9560
  17   2.0000      -8.080143      -219.8719
  18   2.0000      -6.041791      -164.4055
  19   2.0000      -6.038601      -164.3187
  20   2.0000      -6.037875      -164.2989
  21   2.0000      -6.034352      -164.2031
  22   2.0000      -6.033949      -164.1921
  23   2.0000      -6.030928      -164.1099
  24   2.0000      -1.011737       -27.5308
  25   2.0000      -0.981660       -26.7123
  26   2.0000      -0.920020       -25.0350
  27   2.0000      -0.910846       -24.7854
  28   2.0000      -0.868193       -23.6247
  29   2.0000      -0.852789       -23.2056
  30   2.0000      -0.845240       -23.0002
  31   2.0000      -0.813331       -22.1319
  32   2.0000      -0.784616       -21.3505
  33   2.0000      -0.772509       -21.0210
  34   2.0000      -0.709519       -19.3070
  35   2.0000      -0.700721       -19.0676
  36   2.0000      -0.696514       -18.9531
  37   2.0000      -0.659952       -17.9582
  38   2.0000      -0.643001       -17.4970
  39   2.0000      -0.623389       -16.9633
  40   2.0000      -0.596464       -16.2306
  41   2.0000      -0.572990       -15.5919
  42   2.0000      -0.568817       -15.4783
  43   2.0000      -0.556227       -15.1357
  44   2.0000      -0.535421       -14.5696
  45   2.0000      -0.528213       -14.3734
  46   2.0000      -0.514871       -14.0103
  47   2.0000      -0.511217       -13.9109
  48   2.0000      -0.507914       -13.8210
  49   2.0000      -0.501376       -13.6431
  50   2.0000      -0.495954       -13.4956
  51   2.0000      -0.482486       -13.1291
  52   2.0000      -0.472303       -12.8520
  53   2.0000      -0.465426       -12.6649
  54   2.0000      -0.462840       -12.5945
  55   2.0000      -0.453247       -12.3335
  56   2.0000      -0.448711       -12.2100
  57   2.0000      -0.441460       -12.0127
  58   2.0000      -0.430305       -11.7092
  59   2.0000      -0.424518       -11.5517
  60   2.0000      -0.416613       -11.3366
  61   2.0000      -0.415347       -11.3022
  62   2.0000      -0.408516       -11.1163
  63   2.0000      -0.346530        -9.4296
  64   2.0000      -0.331139        -9.0108
  65   2.0000      -0.326859        -8.8943
  66   2.0000      -0.288244        -7.8435
  67   0.0000       0.026843         0.7304
  68   0.0000       0.070735         1.9248
  69   0.0000       0.104907         2.8547
  70   0.0000       0.114087         3.1045
  71   0.0000       0.129281         3.5179

MULLIKEN ATOMIC CHARGES
-----------------------
   0 S :    0.104635
   1 C :   -0.089242
   2 C :   -0.072637
   3 C :    0.015818
   4 C :   -0.136410
   5 H :    0.011137
   6 C :    0.035433
   7 H :    0.041226
   8 H :   -0.000911
   9 C :   -0.107858
  10 H :    0.039888
  11 H :    0.027853
  12 C :   -0.035397
  13 H :    0.043292
  14 H :    0.030573
  15 H :    0.044267
  16 S :    0.112299
  17 C :   -0.060096
  18 C :   -0.041151
  19 C :   -0.058066
  20 C :   -0.139380
  21 H :    0.025008
  22 C :    0.041879
  23 H :    0.014081
  24 H :    0.038077
  25 C :   -0.063852
  26 H :    0.019570
  27 H :    0.012434
  28 C :    0.049122
  29 H :    0.007814
  30 H :    0.017458
  31 H :    0.018081
  32 H :    0.019581
  33 H :    0.035473
Sum of atomic charges:    0.0000000

LOEWDIN ATOMIC CHARGES
----------------------
   0 S :    0.435616
   1 C :   -0.179635
   2 C :   -0.060915
   3 C :   -0.066280
   4 C :   -0.220810
   5 H :    0.028853
   6 C :   -0.043401
   7 H :    0.039823
   8 H :    0.022784
   9 C :   -0.043609
  10 H :    0.028963
  11 H :    0.020721
  12 C :   -0.065156
  13 H :    0.028236
  14 H :    0.024464
  15 H :    0.033377
  16 S :    0.397441
  17 C :   -0.178705
  18 C :   -0.068828
  19 C :   -0.045115
  20 C :   -0.199537
  21 H :    0.033088
  22 C :   -0.025676
  23 H :    0.024893
  24 H :    0.033698
  25 C :   -0.037811
  26 H :    0.012583
  27 H :    0.025448
  28 C :   -0.048143
  29 H :    0.021784
  30 H :    0.024197
  31 H :    0.016370
  32 H :    0.014055
  33 H :    0.017227

  Mayer bond orders larger than 0.100000
B(  0-S ,  1-C ) :   1.1400 B(  0-S ,  4-C ) :   1.1744 B(  1-C ,  2-C ) :   1.5775
B(  1-C , 32-H ) :   0.9816 B(  2-C ,  3-C ) :   1.2582 B(  2-C ,  6-C ) :   1.0339
B(  3-C ,  4-C ) :   1.5441 B(  3-C ,  5-H ) :   0.9902 B(  4-C , 20-C ) :   1.0437
B(  6-C ,  7-H ) :   0.9454 B(  6-C ,  8-H ) :   0.9340 B(  6-C ,  9-C ) :   1.0383
B(  9-C , 10-H ) :   0.9603 B(  9-C , 11-H ) :   0.9580 B(  9-C , 12-C ) :   1.0748
B( 12-C , 13-H ) :   0.9753 B( 12-C , 14-H ) :   0.9736 B( 12-C , 15-H ) :   0.9767
B( 16-S , 17-C ) :   1.1539 B( 16-S , 20-C ) :   1.1272 B( 17-C , 18-C ) :   1.6211
B( 17-C , 33-H ) :   0.9672 B( 18-C , 19-C ) :   1.2451 B( 18-C , 21-H ) :   0.9851
B( 19-C , 20-C ) :   1.5974 B( 19-C , 22-C ) :   1.0327 B( 22-C , 23-H ) :   0.9388
B( 22-C , 24-H ) :   0.9427 B( 22-C , 25-C ) :   1.0533 B( 25-C , 26-H ) :   0.9600
B( 25-C , 27-H ) :   0.9441 B( 25-C , 28-C ) :   1.0832 B( 28-C , 29-H ) :   0.9651
B( 28-C , 30-H ) :   0.9735 B( 28-C , 31-H ) :   0.9701

Dispersion correction           -0.013976619
FINAL SINGLE POINT ENERGY     -1339.858978720167

DIPOLE MOMENT
-------------
                                X             Y             Z
Electronic contribution:     25.70474      -8.01875     -17.28331
Nuclear contribution   :    -26.16270       8.34389      17.68831
                        -----------------------------------------
Total Dipole Moment    :     -0.45795       0.32514       0.40500
                        -----------------------------------------
Magnitude (a.u.)       :      0.69243
Magnitude (Debye)      :      1.76003

Rotational constants in cm-1:     0.017981     0.008823     0.006445
Rotational constants in MHz :   539.055159   264.500909   193.209139

                             ****ORCA TERMINATED NORMALLY****
TOTAL RUN TIME: 0 days 0 hours 0 minutes 21 seconds 478 msec
