                         Program Version 4.2.1 -  RELEASE  -
|  1> ! wB97X-D3 SP def2-SVP
|  2> %pal
|  3> nprocs 24
|  4> end
|  5>
|  6> * xyz 0 1
|  7> S 	 -118.318 	 46.819 	 -116.062
|  8> C 	 -117.309 	 45.432 	 -115.742
|  9> C 	 -116.184 	 45.7901 	 -115.085
| 10> C 	 -116.115 	 47.1541 	 -114.767
| 11> C 	 -117.201 	 47.8465 	 -115.22
| 12> H 	 -115.366 	 47.6586 	 -114.162
| 13> C 	 -115.04 	 44.8624 	 -114.868
| 14> H 	 -115.385 	 43.8251 	 -114.706
| 15> H 	 -114.669 	 45.1625 	 -113.885
| 16> C 	 -113.964 	 44.8204 	 -115.925
| 17> H 	 -113.563 	 45.7938 	 -116.222
| 18> H 	 -113.098 	 44.3036 	 -115.527
| 19> C 	 -114.381 	 44.0968 	 -117.144
| 20> H 	 -113.576 	 44.1234 	 -117.841
| 21> H 	 -114.672 	 43.031 	 -117.043
| 22> H 	 -115.202 	 44.5374 	 -117.583
| 23> S 	 -116.198 	 50.4139 	 -115.125
| 24> C 	 -117.031 	 51.6533 	 -114.197
| 25> C 	 -118.25 	 51.1391 	 -113.676
| 26> C 	 -118.443 	 49.7426 	 -113.952
| 27> C 	 -117.439 	 49.1998 	 -114.767
| 28> H 	 -119.032 	 51.6924 	 -113.17
| 29> C 	 -119.673 	 49.0702 	 -113.398
| 30> H 	 -120.112 	 48.4105 	 -114.141
| 31> H 	 -120.46 	 49.834 	 -113.369
| 32> C 	 -119.599 	 48.3932 	 -111.986
| 33> H 	 -120.571 	 48.416 	 -111.479
| 34> H 	 -119.057 	 49.0597 	 -111.389
| 35> C 	 -119.202 	 46.9157 	 -112.016
| 36> H 	 -118.191 	 46.7651 	 -112.119
| 37> H 	 -119.921 	 46.3486 	 -112.639
| 38> H 	 -119.352 	 46.5924 	 -110.989
| 39> H 	 -117.583 	 44.4005 	 -115.942
| 40> H 	 -116.765 	 52.685 	 -114.11
| 41> *
| 42>
| 43>                          ****END OF INPUT****

CARTESIAN COORDINATES (ANGSTROEM)
---------------------------------
  S    -118.318000   46.819000  -116.062000
  C    -117.309000   45.432000  -115.742000
  C    -116.184000   45.790100  -115.085000
  C    -116.115000   47.154100  -114.767000
  C    -117.201000   47.846500  -115.220000
  H    -115.366000   47.658600  -114.162000
  C    -115.040000   44.862400  -114.868000
  H    -115.385000   43.825100  -114.706000
  H    -114.669000   45.162500  -113.885000
  C    -113.964000   44.820400  -115.925000
  H    -113.563000   45.793800  -116.222000
  H    -113.098000   44.303600  -115.527000
  C    -114.381000   44.096800  -117.144000
  H    -113.576000   44.123400  -117.841000
  H    -114.672000   43.031000  -117.043000
  H    -115.202000   44.537400  -117.583000
  S    -116.198000   50.413900  -115.125000
  C    -117.031000   51.653300  -114.197000
  C    -118.250000   51.139100  -113.676000
  C    -118.443000   49.742600  -113.952000
  C    -117.439000   49.199800  -114.767000
  H    -119.032000   51.692400  -113.170000
  C    -119.673000   49.070200  -113.398000
  H    -120.112000   48.410500  -114.141000
  H    -120.460000   49.834000  -113.369000
  C    -119.599000   48.393200  -111.986000
  H    -120.571000   48.416000  -111.479000
  H    -119.057000   49.059700  -111.389000
  C    -119.202000   46.915700  -112.016000
  H    -118.191000   46.765100  -112.119000
  H    -119.921000   46.348600  -112.639000
  H    -119.352000   46.592400  -110.989000
  H    -117.583000   44.400500  -115.942000
  H    -116.765000   52.685000  -114.110000

 Total Charge           Charge          ....    0
 Multiplicity           Mult            ....    1
 Number of Electrons    NEL             ....  134
 Basis Dimension        Dim             ....  322

ORBITAL ENERGIES
----------------

  NO   OCC          E(Eh)            E(eV)
   0   2.0000     -88.968845     -2420.9654
   1   2.0000     -88.968537     -2420.9570
   2   2.0000     -10.327663      -281.0300
   3   2.0000     -10.324291      -280.9382
   4   2.0000     -10.321135      -280.8524
   5   2.0000     -10.309761      -280.5429
   6   2.0000     -10.301588      -280.3205
   7   2.0000     -10.296514      -280.1824
   8   2.0000     -10.291339      -280.0416
   9   2.0000     -10.288128      -279.9542
  10   2.0000     -10.286858      -279.9196
  11   2.0000     -10.286488      -279.9096
  12   2.0000     -10.280234      -279.7394
  13   2.0000     -10.280042      -279.7342
  14   2.0000     -10.267619      -279.3961
  15   2.0000     -10.262627      -279.2603
  16   2.0000      -8.083274      -219.9571
  17   2.0000      -8.082592      -219.9385
  18   2.0000      -6.041788      -164.4054
  19   2.0000      -6.041202      -164.3895
  20   2.0000      -6.037742      -164.2953
  21   2.0000      -6.037093      -164.2777
  22   2.0000      -6.034071      -164.1954
  23   2.0000      -6.033458      -164.1787
  24   2.0000      -1.010984       -27.5103
  25   2.0000      -0.981391       -26.7050
  26   2.0000      -0.920192       -25.0397
  27   2.0000      -0.902206       -24.5503
  28   2.0000      -0.871547       -23.7160
  29   2.0000      -0.856854       -23.3162
  30   2.0000      -0.848943       -23.1009
  31   2.0000      -0.809964       -22.0402
  32   2.0000      -0.785102       -21.3637
  33   2.0000      -0.773639       -21.0518
  34   2.0000      -0.709365       -19.3028
  35   2.0000      -0.700791       -19.0695
  36   2.0000      -0.692822       -18.8526
  37   2.0000      -0.667288       -18.1578
  38   2.0000      -0.641319       -17.4512
  39   2.0000      -0.617047       -16.7907
  40   2.0000      -0.594683       -16.1822
  41   2.0000      -0.569685       -15.5019
  42   2.0000      -0.557981       -15.1834
  43   2.0000      -0.549401       -14.9499
  44   2.0000      -0.541484       -14.7345
  45   2.0000      -0.537539       -14.6272
  46   2.0000      -0.519588       -14.1387
  47   2.0000      -0.510891       -13.9020
  48   2.0000      -0.503927       -13.7126
  49   2.0000      -0.496694       -13.5157
  50   2.0000      -0.487423       -13.2634
  51   2.0000      -0.479627       -13.0513
  52   2.0000      -0.475308       -12.9338
  53   2.0000      -0.470134       -12.7930
  54   2.0000      -0.456313       -12.4169
  55   2.0000      -0.448921       -12.2158
  56   2.0000      -0.439863       -11.9693
  57   2.0000      -0.437035       -11.8923
  58   2.0000      -0.430837       -11.7237
  59   2.0000      -0.424350       -11.5472
  60   2.0000      -0.418548       -11.3893
  61   2.0000      -0.412410       -11.2222
  62   2.0000      -0.409002       -11.1295
  63   2.0000      -0.343346        -9.3429
  64   2.0000      -0.331653        -9.0247
  65   2.0000      -0.329416        -8.9639
  66   2.0000      -0.293652        -7.9907
  67   0.0000       0.030889         0.8405
  68   0.0000       0.068147         1.8544
  69   0.0000       0.110156         2.9975
  70   0.0000       0.118745         3.2312
  71   0.0000       0.128261         3.4902

MULLIKEN ATOMIC CHARGES
-----------------------
   0 S :    0.118621
   1 C :   -0.128297
   2 C :   -0.068982
   3 C :    0.008289
   4 C :   -0.127621
   5 H :    0.020338
   6 C :    0.068643
   7 H :    0.013007
   8 H :    0.014228
   9 C :   -0.024170
  10 H :    0.023313
  11 H :    0.021720
  12 C :   -0.022063
  13 H :    0.021046
  14 H :    0.019218
  15 H :    0.013258
  16 S :    0.109562
  17 C :   -0.086401
  18 C :   -0.034580
  19 C :   -0.032956
  20 C :   -0.181850
  21 H :    0.020081
  22 C :    0.052401
  23 H :    0.010039
  24 H :    0.009862
  25 C :   -0.042621
  26 H :    0.018836
  27 H :    0.002913
  28 C :    0.003668
  29 H :    0.023811
  30 H :    0.041585
  31 H :    0.013285
  32 H :    0.045822
  33 H :    0.055991
Sum of atomic charges:    0.0000000

LOEWDIN ATOMIC CHARGES
----------------------
   0 S :    0.417988
   1 C :   -0.195627
   2 C :   -0.070622
   3 C :   -0.059335
   4 C :   -0.200853
   5 H :    0.033301
   6 C :   -0.032502
   7 H :    0.030639
   8 H :    0.028786
   9 C :   -0.037393
  10 H :    0.026978
  11 H :    0.025842
  12 C :   -0.059253
  13 H :    0.024646
  14 H :    0.025739
  15 H :    0.013196
  16 S :    0.405682
  17 C :   -0.188237
  18 C :   -0.067178
  19 C :   -0.058904
  20 C :   -0.190313
  21 H :    0.029817
  22 C :   -0.038905
  23 H :    0.021585
  24 H :    0.031037
  25 C :   -0.033907
  26 H :    0.026240
  27 H :    0.014696
  28 C :   -0.055517
  29 H :    0.014992
  30 H :    0.033190
  31 H :    0.027012
  32 H :    0.030275
  33 H :    0.026906

  Mayer bond orders larger than 0.100000
B(  0-S ,  1-C ) :   1.1277 B(  0-S ,  4-C ) :   1.1531 B(  1-C ,  2-C ) :   1.6196
B(  1-C , 32-H ) :   0.9665 B(  2-C ,  3-C ) :   1.2448 B(  2-C ,  6-C ) :   1.0335
B(  3-C ,  4-C ) :   1.5638 B(  3-C ,  5-H ) :   0.9938 B(  4-C , 20-C ) :   1.0285
B(  6-C ,  7-H ) :   0.9363 B(  6-C ,  8-H ) :   0.9302 B(  6-C ,  9-C ) :   1.0775
B(  9-C , 10-H ) :   0.9507 B(  9-C , 11-H ) :   0.9483 B(  9-C , 12-C ) :   1.0908
B( 12-C , 13-H ) :   0.9676 B( 12-C , 14-H ) :   0.9700 B( 12-C , 15-H ) :   0.9715
B( 16-S , 17-C ) :   1.1579 B( 16-S , 20-C ) :   1.1417 B( 17-C , 18-C ) :   1.5714
B( 17-C , 20-C ) :   0.1041 B( 17-C , 33-H ) :   0.9722 B( 18-C , 19-C ) :   1.2735
B( 18-C , 21-H ) :   0.9819 B( 19-C , 20-C ) :   1.5721 B( 19-C , 22-C ) :   1.0453
B( 22-C , 23-H ) :   0.9365 B( 22-C , 24-H ) :   0.9299 B( 22-C , 25-C ) :   1.0596
B( 25-C , 26-H ) :   0.9570 B( 25-C , 27-H ) :   0.9521 B( 25-C , 28-C ) :   1.0842
B( 28-C , 29-H ) :   0.9774 B( 28-C , 30-H ) :   0.9725 B( 28-C , 31-H ) :   0.9684

Dispersion correction           -0.015542153
FINAL SINGLE POINT ENERGY     -1339.875956429835

DIPOLE MOMENT
-------------
                                X             Y             Z
Electronic contribution:     -2.11113      16.30356      -8.24898
Nuclear contribution   :      2.10418     -16.53552       8.64505
                        -----------------------------------------
Total Dipole Moment    :     -0.00695      -0.23196       0.39607
                        -----------------------------------------
Magnitude (a.u.)       :      0.45905
Magnitude (Debye)      :      1.16680

Rotational constants in cm-1:     0.021279     0.008874     0.007320
Rotational constants in MHz :   637.934576   266.029713   219.451435

                             ****ORCA TERMINATED NORMALLY****
TOTAL RUN TIME: 0 days 0 hours 0 minutes 21 seconds 157 msec
