                         Program Version 4.2.1 -  RELEASE  -
|  1> ! wB97X-D3 SP def2-SVP
|  2> %pal
|  3> nprocs 24
|  4> end
|  5>
|  6> * xyz 0 1
|  7> S 	 -149.177 	 12.8272 	 -5.32961
|  8> C 	 -148.614 	 13.7702 	 -6.73237
|  9> C 	 -147.499 	 14.5204 	 -6.457
| 10> C 	 -147.049 	 14.2466 	 -5.1129
| 11> C 	 -147.812 	 13.2765 	 -4.38197
| 12> H 	 -146.291 	 14.7501 	 -4.52697
| 13> C 	 -146.848 	 15.5312 	 -7.38984
| 14> H 	 -146.511 	 16.383 	 -6.75963
| 15> H 	 -147.622 	 15.9398 	 -8.05479
| 16> C 	 -145.616 	 15.0474 	 -8.2409
| 17> H 	 -145.027 	 14.608 	 -7.50274
| 18> H 	 -145.889 	 14.1165 	 -8.74095
| 19> C 	 -144.888 	 16.0286 	 -9.11505
| 20> H 	 -144.602 	 16.9395 	 -8.67714
| 21> H 	 -144.067 	 15.4708 	 -9.58289
| 22> H 	 -145.542 	 16.3659 	 -9.91175
| 23> S 	 -147.079 	 13.8546 	 -1.83952
| 24> C 	 -146.914 	 12.544 	 -0.729434
| 25> C 	 -147.116 	 11.3259 	 -1.35162
| 26> C 	 -147.353 	 11.4109 	 -2.78856
| 27> C 	 -147.509 	 12.7232 	 -3.06867
| 28> H 	 -146.831 	 10.4523 	 -0.712305
| 29> C 	 -147.52 	 10.2669 	 -3.77039
| 30> H 	 -148.093 	 10.483 	 -4.65471
| 31> H 	 -148.183 	 9.53334 	 -3.3336
| 32> C 	 -146.233 	 9.66759 	 -4.25007
| 33> H 	 -145.649 	 9.21811 	 -3.45262
| 34> H 	 -145.587 	 10.4812 	 -4.63439
| 35> C 	 -146.55 	 8.78463 	 -5.41127
| 36> H 	 -145.675 	 8.18648 	 -5.80142
| 37> H 	 -146.962 	 9.3072 	 -6.25974
| 38> H 	 -147.236 	 8.08912 	 -5.147
| 39> H 	 -149.018 	 13.7808 	 -7.75157
| 40> H 	 -146.749 	 12.6579 	 0.354142
| 41> *
| 42>
| 43>                          ****END OF INPUT****

CARTESIAN COORDINATES (ANGSTROEM)
---------------------------------
  S    -149.177000   12.827200   -5.329610
  C    -148.614000   13.770200   -6.732370
  C    -147.499000   14.520400   -6.457000
  C    -147.049000   14.246600   -5.112900
  C    -147.812000   13.276500   -4.381970
  H    -146.291000   14.750100   -4.526970
  C    -146.848000   15.531200   -7.389840
  H    -146.511000   16.383000   -6.759630
  H    -147.622000   15.939800   -8.054790
  C    -145.616000   15.047400   -8.240900
  H    -145.027000   14.608000   -7.502740
  H    -145.889000   14.116500   -8.740950
  C    -144.888000   16.028600   -9.115050
  H    -144.602000   16.939500   -8.677140
  H    -144.067000   15.470800   -9.582890
  H    -145.542000   16.365900   -9.911750
  S    -147.079000   13.854600   -1.839520
  C    -146.914000   12.544000   -0.729434
  C    -147.116000   11.325900   -1.351620
  C    -147.353000   11.410900   -2.788560
  C    -147.509000   12.723200   -3.068670
  H    -146.831000   10.452300   -0.712305
  C    -147.520000   10.266900   -3.770390
  H    -148.093000   10.483000   -4.654710
  H    -148.183000    9.533340   -3.333600
  C    -146.233000    9.667590   -4.250070
  H    -145.649000    9.218110   -3.452620
  H    -145.587000   10.481200   -4.634390
  C    -146.550000    8.784630   -5.411270
  H    -145.675000    8.186480   -5.801420
  H    -146.962000    9.307200   -6.259740
  H    -147.236000    8.089120   -5.147000
  H    -149.018000   13.780800   -7.751570
  H    -146.749000   12.657900    0.354142

 Total Charge           Charge          ....    0
 Multiplicity           Mult            ....    1
 Number of Electrons    NEL             ....  134
 Basis Dimension        Dim             ....  322

ORBITAL ENERGIES
----------------

  NO   OCC          E(Eh)            E(eV)
   0   2.0000     -88.969716     -2420.9890
   1   2.0000     -88.966937     -2420.9134
   2   2.0000     -10.328319      -281.0478
   3   2.0000     -10.321317      -280.8573
   4   2.0000     -10.317055      -280.7413
   5   2.0000     -10.313915      -280.6559
   6   2.0000     -10.305127      -280.4168
   7   2.0000     -10.303312      -280.3674
   8   2.0000     -10.300055      -280.2787
   9   2.0000     -10.297244      -280.2023
  10   2.0000     -10.295410      -280.1523
  11   2.0000     -10.285237      -279.8755
  12   2.0000     -10.280526      -279.7473
  13   2.0000     -10.279321      -279.7145
  14   2.0000     -10.276483      -279.6373
  15   2.0000     -10.266752      -279.3725
  16   2.0000      -8.083515      -219.9636
  17   2.0000      -8.082701      -219.9415
  18   2.0000      -6.042096      -164.4138
  19   2.0000      -6.041151      -164.3881
  20   2.0000      -6.038049      -164.3037
  21   2.0000      -6.037211      -164.2809
  22   2.0000      -6.034358      -164.2032
  23   2.0000      -6.033321      -164.1750
  24   2.0000      -1.011731       -27.5306
  25   2.0000      -0.982740       -26.7417
  26   2.0000      -0.920892       -25.0587
  27   2.0000      -0.908583       -24.7238
  28   2.0000      -0.871708       -23.7204
  29   2.0000      -0.856277       -23.3005
  30   2.0000      -0.846556       -23.0360
  31   2.0000      -0.806660       -21.9503
  32   2.0000      -0.786615       -21.4049
  33   2.0000      -0.776965       -21.1423
  34   2.0000      -0.708957       -19.2917
  35   2.0000      -0.705618       -19.2008
  36   2.0000      -0.695472       -18.9248
  37   2.0000      -0.661701       -18.0058
  38   2.0000      -0.632206       -17.2032
  39   2.0000      -0.615161       -16.7394
  40   2.0000      -0.599185       -16.3047
  41   2.0000      -0.569073       -15.4853
  42   2.0000      -0.567414       -15.4401
  43   2.0000      -0.552357       -15.0304
  44   2.0000      -0.529260       -14.4019
  45   2.0000      -0.525853       -14.3092
  46   2.0000      -0.519052       -14.1241
  47   2.0000      -0.514609       -14.0032
  48   2.0000      -0.508433       -13.8352
  49   2.0000      -0.501728       -13.6527
  50   2.0000      -0.487446       -13.2641
  51   2.0000      -0.478324       -13.0159
  52   2.0000      -0.470658       -12.8072
  53   2.0000      -0.464336       -12.6352
  54   2.0000      -0.460355       -12.5269
  55   2.0000      -0.448669       -12.2089
  56   2.0000      -0.446720       -12.1559
  57   2.0000      -0.441242       -12.0068
  58   2.0000      -0.432877       -11.7792
  59   2.0000      -0.429761       -11.6944
  60   2.0000      -0.425792       -11.5864
  61   2.0000      -0.411572       -11.1994
  62   2.0000      -0.408764       -11.1230
  63   2.0000      -0.344468        -9.3735
  64   2.0000      -0.333787        -9.0828
  65   2.0000      -0.328747        -8.9457
  66   2.0000      -0.291725        -7.9382
  67   0.0000       0.031681         0.8621
  68   0.0000       0.074310         2.0221
  69   0.0000       0.107675         2.9300
  70   0.0000       0.117642         3.2012
  71   0.0000       0.130490         3.5508

MULLIKEN ATOMIC CHARGES
-----------------------
   0 S :    0.119983
   1 C :   -0.135828
   2 C :   -0.077641
   3 C :    0.018989
   4 C :   -0.175453
   5 H :    0.006775
   6 C :    0.041478
   7 H :    0.030922
   8 H :    0.021949
   9 C :   -0.050899
  10 H :    0.001526
  11 H :    0.014248
  12 C :    0.008274
  13 H :    0.021351
  14 H :    0.042396
  15 H :    0.020996
  16 S :    0.119780
  17 C :   -0.112393
  18 C :   -0.044892
  19 C :   -0.017027
  20 C :   -0.154137
  21 H :    0.035814
  22 C :    0.071285
  23 H :    0.003933
  24 H :    0.021492
  25 C :   -0.061778
  26 H :    0.027648
  27 H :    0.033377
  28 C :   -0.012193
  29 H :    0.033170
  30 H :    0.033168
  31 H :   -0.002214
  32 H :    0.048528
  33 H :    0.067373
Sum of atomic charges:    0.0000000

LOEWDIN ATOMIC CHARGES
----------------------
   0 S :    0.423425
   1 C :   -0.198890
   2 C :   -0.065115
   3 C :   -0.072309
   4 C :   -0.201646
   5 H :    0.021495
   6 C :   -0.031246
   7 H :    0.034461
   8 H :    0.026364
   9 C :   -0.044999
  10 H :    0.015555
  11 H :    0.025746
  12 C :   -0.058122
  13 H :    0.019751
  14 H :    0.036841
  15 H :    0.026619
  16 S :    0.423637
  17 C :   -0.199536
  18 C :   -0.074927
  19 C :   -0.048753
  20 C :   -0.203950
  21 H :    0.038603
  22 C :   -0.035320
  23 H :    0.018415
  24 H :    0.031303
  25 C :   -0.038590
  26 H :    0.022117
  27 H :    0.030978
  28 C :   -0.059327
  29 H :    0.032562
  30 H :    0.027872
  31 H :    0.008128
  32 H :    0.033236
  33 H :    0.035621

  Mayer bond orders larger than 0.100000
B(  0-S ,  1-C ) :   1.1352 B(  0-S ,  4-C ) :   1.1666 B(  1-C ,  2-C ) :   1.6195
B(  1-C , 32-H ) :   0.9611 B(  2-C ,  3-C ) :   1.2426 B(  2-C ,  6-C ) :   1.0264
B(  3-C ,  4-C ) :   1.5620 B(  3-C ,  5-H ) :   0.9869 B(  4-C , 20-C ) :   1.0214
B(  6-C ,  7-H ) :   0.9401 B(  6-C ,  8-H ) :   0.9423 B(  6-C ,  9-C ) :   1.0528
B(  9-C , 10-H ) :   0.9505 B(  9-C , 11-H ) :   0.9501 B(  9-C , 12-C ) :   1.0826
B( 12-C , 13-H ) :   0.9740 B( 12-C , 14-H ) :   0.9698 B( 12-C , 15-H ) :   0.9715
B( 16-S , 17-C ) :   1.1404 B( 16-S , 20-C ) :   1.1454 B( 17-C , 18-C ) :   1.6529
B( 17-C , 33-H ) :   0.9632 B( 18-C , 19-C ) :   1.1974 B( 18-C , 21-H ) :   0.9770
B( 19-C , 20-C ) :   1.6196 B( 19-C , 22-C ) :   1.0373 B( 22-C , 23-H ) :   0.9288
B( 22-C , 24-H ) :   0.9230 B( 22-C , 25-C ) :   1.0588 B( 25-C , 26-H ) :   0.9548
B( 25-C , 27-H ) :   0.9527 B( 25-C , 28-C ) :   1.0915 B( 28-C , 29-H ) :   0.9696
B( 28-C , 30-H ) :   0.9694 B( 28-C , 31-H ) :   0.9668

Dispersion correction           -0.013936589
FINAL SINGLE POINT ENERGY     -1339.867634838771

DIPOLE MOMENT
-------------
                                X             Y             Z
Electronic contribution:    -13.28439       5.33819      20.11943
Nuclear contribution   :     13.64937      -5.48268     -20.33704
                        -----------------------------------------
Total Dipole Moment    :      0.36498      -0.14450      -0.21761
                        -----------------------------------------
Magnitude (a.u.)       :      0.44883
Magnitude (Debye)      :      1.14082

Rotational constants in cm-1:     0.018219     0.008081     0.006945
Rotational constants in MHz :   546.200043   242.274234   208.218409

                             ****ORCA TERMINATED NORMALLY****
TOTAL RUN TIME: 0 days 0 hours 0 minutes 20 seconds 195 msec
