                         Program Version 4.2.1 -  RELEASE  -
|  1> ! wB97X-D3 SP def2-SVP
|  2> %pal
|  3> nprocs 24
|  4> end
|  5>
|  6> * xyz 0 1
|  7> S 	 -104.188 	 1.65573 	 -105.995
|  8> C 	 -103.844 	 3.0821 	 -105.028
|  9> C 	 -102.747 	 2.88371 	 -104.158
| 10> C 	 -102.216 	 1.61186 	 -104.35
| 11> C 	 -102.806 	 0.851374 	 -105.331
| 12> H 	 -101.376 	 1.21599 	 -103.852
| 13> C 	 -102.183 	 3.96367 	 -103.287
| 14> H 	 -102.694 	 4.83055 	 -103.631
| 15> H 	 -101.158 	 4.06254 	 -103.565
| 16> C 	 -102.599 	 3.61459 	 -101.838
| 17> H 	 -103.65 	 3.78136 	 -101.997
| 18> H 	 -102.377 	 2.5872 	 -101.59
| 19> C 	 -101.994 	 4.64111 	 -100.815
| 20> H 	 -102.393 	 4.53189 	 -99.7712
| 21> H 	 -100.934 	 4.39193 	 -100.715
| 22> H 	 -102.151 	 5.65731 	 -101.204
| 23> S 	 -103.628 	 -1.89874 	 -105.38
| 24> C 	 -102.563 	 -3.02777 	 -106.144
| 25> C 	 -101.349 	 -2.47153 	 -106.481
| 26> C 	 -101.334 	 -1.05372 	 -106.286
| 27> C 	 -102.496 	 -0.572614 	 -105.693
| 28> H 	 -100.57 	 -3.102 	 -106.889
| 29> C 	 -100.119 	 -0.224409 	 -106.583
| 30> H 	 -100.505 	 0.799858 	 -106.643
| 31> H 	 -99.7855 	 -0.481221 	 -107.594
| 32> C 	 -98.9963 	 -0.360653 	 -105.503
| 33> H 	 -98.7443 	 -1.38058 	 -105.342
| 34> H 	 -99.4268 	 -0.184719 	 -104.547
| 35> C 	 -97.8184 	 0.579678 	 -105.715
| 36> H 	 -98.1606 	 1.57765 	 -105.533
| 37> H 	 -97.335 	 0.519891 	 -106.726
| 38> H 	 -97.0736 	 0.333547 	 -104.979
| 39> H 	 -104.347 	 4.03841 	 -105.136
| 40> H 	 -102.548 	 -4.07679 	 -106.065
| 41> *
| 42>
| 43>                          ****END OF INPUT****

CARTESIAN COORDINATES (ANGSTROEM)
---------------------------------
  S    -104.188000    1.655730  -105.995000
  C    -103.844000    3.082100  -105.028000
  C    -102.747000    2.883710  -104.158000
  C    -102.216000    1.611860  -104.350000
  C    -102.806000    0.851374  -105.331000
  H    -101.376000    1.215990  -103.852000
  C    -102.183000    3.963670  -103.287000
  H    -102.694000    4.830550  -103.631000
  H    -101.158000    4.062540  -103.565000
  C    -102.599000    3.614590  -101.838000
  H    -103.650000    3.781360  -101.997000
  H    -102.377000    2.587200  -101.590000
  C    -101.994000    4.641110  -100.815000
  H    -102.393000    4.531890  -99.771200
  H    -100.934000    4.391930  -100.715000
  H    -102.151000    5.657310  -101.204000
  S    -103.628000   -1.898740  -105.380000
  C    -102.563000   -3.027770  -106.144000
  C    -101.349000   -2.471530  -106.481000
  C    -101.334000   -1.053720  -106.286000
  C    -102.496000   -0.572614  -105.693000
  H    -100.570000   -3.102000  -106.889000
  C    -100.119000   -0.224409  -106.583000
  H    -100.505000    0.799858  -106.643000
  H    -99.785500   -0.481221  -107.594000
  C    -98.996300   -0.360653  -105.503000
  H    -98.744300   -1.380580  -105.342000
  H    -99.426800   -0.184719  -104.547000
  C    -97.818400    0.579678  -105.715000
  H    -98.160600    1.577650  -105.533000
  H    -97.335000    0.519891  -106.726000
  H    -97.073600    0.333547  -104.979000
  H    -104.347000    4.038410  -105.136000
  H    -102.548000   -4.076790  -106.065000

 Total Charge           Charge          ....    0
 Multiplicity           Mult            ....    1
 Number of Electrons    NEL             ....  134
 Basis Dimension        Dim             ....  322

ORBITAL ENERGIES
----------------

  NO   OCC          E(Eh)            E(eV)
   0   2.0000     -88.967673     -2420.9335
   1   2.0000     -88.967082     -2420.9174
   2   2.0000     -10.328518      -281.0533
   3   2.0000     -10.328059      -281.0408
   4   2.0000     -10.315560      -280.7007
   5   2.0000     -10.309705      -280.5413
   6   2.0000     -10.299108      -280.2530
   7   2.0000     -10.298026      -280.2235
   8   2.0000     -10.290349      -280.0146
   9   2.0000     -10.289565      -279.9933
  10   2.0000     -10.288276      -279.9582
  11   2.0000     -10.287717      -279.9430
  12   2.0000     -10.287355      -279.9332
  13   2.0000     -10.285894      -279.8934
  14   2.0000     -10.282300      -279.7956
  15   2.0000     -10.278492      -279.6920
  16   2.0000      -8.082417      -219.9338
  17   2.0000      -8.081523      -219.9094
  18   2.0000      -6.040798      -164.3785
  19   2.0000      -6.040143      -164.3606
  20   2.0000      -6.036821      -164.2702
  21   2.0000      -6.036035      -164.2489
  22   2.0000      -6.033415      -164.1776
  23   2.0000      -6.032224      -164.1452
  24   2.0000      -1.005664       -27.3655
  25   2.0000      -0.985879       -26.8271
  26   2.0000      -0.917773       -24.9739
  27   2.0000      -0.907674       -24.6991
  28   2.0000      -0.862556       -23.4714
  29   2.0000      -0.852832       -23.2067
  30   2.0000      -0.847682       -23.0666
  31   2.0000      -0.817272       -22.2391
  32   2.0000      -0.782658       -21.2972
  33   2.0000      -0.767669       -20.8893
  34   2.0000      -0.709337       -19.3020
  35   2.0000      -0.705330       -19.1930
  36   2.0000      -0.695607       -18.9284
  37   2.0000      -0.656542       -17.8654
  38   2.0000      -0.645704       -17.5705
  39   2.0000      -0.624544       -16.9947
  40   2.0000      -0.590103       -16.0575
  41   2.0000      -0.572840       -15.5878
  42   2.0000      -0.567391       -15.4395
  43   2.0000      -0.557674       -15.1751
  44   2.0000      -0.529123       -14.3982
  45   2.0000      -0.523001       -14.2316
  46   2.0000      -0.516197       -14.0464
  47   2.0000      -0.509162       -13.8550
  48   2.0000      -0.502570       -13.6756
  49   2.0000      -0.500106       -13.6086
  50   2.0000      -0.492915       -13.4129
  51   2.0000      -0.476236       -12.9590
  52   2.0000      -0.471935       -12.8420
  53   2.0000      -0.467578       -12.7235
  54   2.0000      -0.459498       -12.5036
  55   2.0000      -0.451191       -12.2775
  56   2.0000      -0.443875       -12.0784
  57   2.0000      -0.441286       -12.0080
  58   2.0000      -0.440216       -11.9789
  59   2.0000      -0.425698       -11.5838
  60   2.0000      -0.423390       -11.5210
  61   2.0000      -0.418255       -11.3813
  62   2.0000      -0.416362       -11.3298
  63   2.0000      -0.340421        -9.2633
  64   2.0000      -0.330923        -9.0049
  65   2.0000      -0.329138        -8.9563
  66   2.0000      -0.297957        -8.1078
  67   0.0000       0.038629         1.0511
  68   0.0000       0.060574         1.6483
  69   0.0000       0.120931         3.2907
  70   0.0000       0.123228         3.3532
  71   0.0000       0.130930         3.5628

MULLIKEN ATOMIC CHARGES
-----------------------
   0 S :    0.126217
   1 C :   -0.130567
   2 C :   -0.137907
   3 C :    0.061354
   4 C :   -0.183473
   5 H :   -0.018079
   6 C :    0.128392
   7 H :   -0.000805
   8 H :    0.026712
   9 C :   -0.087870
  10 H :    0.028607
  11 H :    0.040929
  12 C :   -0.038976
  13 H :    0.044551
  14 H :    0.033235
  15 H :    0.037005
  16 S :    0.117169
  17 C :   -0.058507
  18 C :   -0.061648
  19 C :   -0.049398
  20 C :   -0.162154
  21 H :    0.022186
  22 C :    0.076901
  23 H :    0.028813
  24 H :    0.023710
  25 C :   -0.045589
  26 H :    0.008014
  27 H :    0.001982
  28 C :   -0.018538
  29 H :    0.027524
  30 H :    0.040648
  31 H :    0.029743
  32 H :    0.047358
  33 H :    0.042462
Sum of atomic charges:   -0.0000000

LOEWDIN ATOMIC CHARGES
----------------------
   0 S :    0.419554
   1 C :   -0.202891
   2 C :   -0.058951
   3 C :   -0.059927
   4 C :   -0.199501
   5 H :    0.022238
   6 C :   -0.022108
   7 H :    0.024887
   8 H :    0.024419
   9 C :   -0.030780
  10 H :    0.027036
  11 H :    0.023069
  12 C :   -0.070524
  13 H :    0.030351
  14 H :    0.025506
  15 H :    0.026866
  16 S :    0.405848
  17 C :   -0.190084
  18 C :   -0.070438
  19 C :   -0.054419
  20 C :   -0.201869
  21 H :    0.032103
  22 C :   -0.030577
  23 H :    0.031232
  24 H :    0.029179
  25 C :   -0.036852
  26 H :    0.018072
  27 H :    0.019178
  28 C :   -0.060179
  29 H :    0.023102
  30 H :    0.031073
  31 H :    0.025970
  32 H :    0.025360
  33 H :    0.024057

  Mayer bond orders larger than 0.100000
B(  0-S ,  1-C ) :   1.1572 B(  0-S ,  4-C ) :   1.1680 B(  1-C ,  2-C ) :   1.5748
B(  1-C ,  4-C ) :   0.1043 B(  1-C , 32-H ) :   0.9642 B(  2-C ,  3-C ) :   1.2711
B(  2-C ,  6-C ) :   1.0155 B(  3-C ,  4-C ) :   1.5611 B(  3-C ,  5-H ) :   1.0019
B(  4-C , 20-C ) :   1.0019 B(  6-C ,  7-H ) :   0.9333 B(  6-C ,  8-H ) :   0.9399
B(  6-C ,  9-C ) :   1.0271 B(  9-C , 10-H ) :   0.9562 B(  9-C , 11-H ) :   0.9712
B(  9-C , 12-C ) :   1.0710 B( 12-C , 13-H ) :   0.9763 B( 12-C , 14-H ) :   0.9769
B( 12-C , 15-H ) :   0.9725 B( 16-S , 17-C ) :   1.1567 B( 16-S , 20-C ) :   1.1352
B( 17-C , 18-C ) :   1.6292 B( 17-C , 33-H ) :   0.9599 B( 18-C , 19-C ) :   1.2385
B( 18-C , 21-H ) :   0.9879 B( 19-C , 20-C ) :   1.6069 B( 19-C , 22-C ) :   1.0542
B( 22-C , 23-H ) :   0.9270 B( 22-C , 24-H ) :   0.9315 B( 22-C , 25-C ) :   1.0546
B( 25-C , 26-H ) :   0.9532 B( 25-C , 27-H ) :   0.9459 B( 25-C , 28-C ) :   1.0836
B( 28-C , 29-H ) :   0.9749 B( 28-C , 30-H ) :   0.9755 B( 28-C , 31-H ) :   0.9723

Dispersion correction           -0.014335877
FINAL SINGLE POINT ENERGY     -1339.880172173150

DIPOLE MOMENT
-------------
                                X             Y             Z
Electronic contribution:    -21.76958     -14.73053     -12.83330
Nuclear contribution   :     22.42857      14.95151      13.13016
                        -----------------------------------------
Total Dipole Moment    :      0.65899       0.22098       0.29686
                        -----------------------------------------
Magnitude (a.u.)       :      0.75579
Magnitude (Debye)      :      1.92108

Rotational constants in cm-1:     0.017456     0.008570     0.006748
Rotational constants in MHz :   523.331987   256.912891   202.299072

                             ****ORCA TERMINATED NORMALLY****
TOTAL RUN TIME: 0 days 0 hours 0 minutes 21 seconds 550 msec
