                         Program Version 4.2.1 -  RELEASE  -
|  1> ! wB97X-D3 SP def2-SVP
|  2> %pal
|  3> nprocs 24
|  4> end
|  5>
|  6> * xyz 0 1
|  7> S 	 -127.51 	 64.674 	 -36.456
|  8> C 	 -126.775 	 63.6485 	 -37.7246
|  9> C 	 -125.42 	 63.8938 	 -37.7339
| 10> C 	 -124.946 	 64.6388 	 -36.6582
| 11> C 	 -125.95 	 65.1592 	 -35.8345
| 12> H 	 -123.922 	 64.8797 	 -36.4247
| 13> C 	 -124.398 	 63.2143 	 -38.6373
| 14> H 	 -124.779 	 62.2009 	 -38.4785
| 15> H 	 -123.374 	 63.3164 	 -38.279
| 16> C 	 -124.46 	 63.6524 	 -40.07
| 17> H 	 -123.949 	 63.0202 	 -40.7378
| 18> H 	 -125.44 	 63.5073 	 -40.5349
| 19> C 	 -123.922 	 65.0557 	 -40.3019
| 20> H 	 -122.969 	 65.1076 	 -39.8144
| 21> H 	 -123.862 	 65.2203 	 -41.3505
| 22> H 	 -124.605 	 65.6921 	 -39.7653
| 23> S 	 -126.708 	 65.317 	 -33.2023
| 24> C 	 -126.054 	 66.5363 	 -32.1873
| 25> C 	 -125.037 	 67.2443 	 -32.8154
| 26> C 	 -124.88 	 66.8384 	 -34.1782
| 27> C 	 -125.823 	 65.8997 	 -34.5876
| 28> H 	 -124.54 	 68.0812 	 -32.2701
| 29> C 	 -123.821 	 67.429 	 -35.0403
| 30> H 	 -123.855 	 68.5343 	 -34.9332
| 31> H 	 -124.22 	 67.2794 	 -36.1179
| 32> C 	 -122.345 	 66.9719 	 -34.9545
| 33> H 	 -122.354 	 65.8521 	 -34.9392
| 34> H 	 -121.746 	 67.2779 	 -34.0062
| 35> C 	 -121.518 	 67.2878 	 -36.1713
| 36> H 	 -121.419 	 68.3842 	 -36.2127
| 37> H 	 -122.008 	 66.8965 	 -37.0365
| 38> H 	 -120.537 	 66.8206 	 -36.051
| 39> H 	 -127.221 	 63.0471 	 -38.4987
| 40> H 	 -126.366 	 66.8085 	 -31.1638
| 41> *
| 42>
| 43>                          ****END OF INPUT****

CARTESIAN COORDINATES (ANGSTROEM)
---------------------------------
  S    -127.510000   64.674000  -36.456000
  C    -126.775000   63.648500  -37.724600
  C    -125.420000   63.893800  -37.733900
  C    -124.946000   64.638800  -36.658200
  C    -125.950000   65.159200  -35.834500
  H    -123.922000   64.879700  -36.424700
  C    -124.398000   63.214300  -38.637300
  H    -124.779000   62.200900  -38.478500
  H    -123.374000   63.316400  -38.279000
  C    -124.460000   63.652400  -40.070000
  H    -123.949000   63.020200  -40.737800
  H    -125.440000   63.507300  -40.534900
  C    -123.922000   65.055700  -40.301900
  H    -122.969000   65.107600  -39.814400
  H    -123.862000   65.220300  -41.350500
  H    -124.605000   65.692100  -39.765300
  S    -126.708000   65.317000  -33.202300
  C    -126.054000   66.536300  -32.187300
  C    -125.037000   67.244300  -32.815400
  C    -124.880000   66.838400  -34.178200
  C    -125.823000   65.899700  -34.587600
  H    -124.540000   68.081200  -32.270100
  C    -123.821000   67.429000  -35.040300
  H    -123.855000   68.534300  -34.933200
  H    -124.220000   67.279400  -36.117900
  C    -122.345000   66.971900  -34.954500
  H    -122.354000   65.852100  -34.939200
  H    -121.746000   67.277900  -34.006200
  C    -121.518000   67.287800  -36.171300
  H    -121.419000   68.384200  -36.212700
  H    -122.008000   66.896500  -37.036500
  H    -120.537000   66.820600  -36.051000
  H    -127.221000   63.047100  -38.498700
  H    -126.366000   66.808500  -31.163800

 Total Charge           Charge          ....    0
 Multiplicity           Mult            ....    1
 Number of Electrons    NEL             ....  134
 Basis Dimension        Dim             ....  322

ORBITAL ENERGIES
----------------

  NO   OCC          E(Eh)            E(eV)
   0   2.0000     -88.969866     -2420.9931
   1   2.0000     -88.967447     -2420.9273
   2   2.0000     -10.332421      -281.1595
   3   2.0000     -10.327258      -281.0190
   4   2.0000     -10.317845      -280.7628
   5   2.0000     -10.316064      -280.7144
   6   2.0000     -10.304480      -280.3992
   7   2.0000     -10.298398      -280.2337
   8   2.0000     -10.297637      -280.2130
   9   2.0000     -10.297557      -280.2108
  10   2.0000     -10.296731      -280.1883
  11   2.0000     -10.290900      -280.0296
  12   2.0000     -10.290848      -280.0282
  13   2.0000     -10.278541      -279.6933
  14   2.0000     -10.276651      -279.6419
  15   2.0000     -10.269747      -279.4540
  16   2.0000      -8.083583      -219.9655
  17   2.0000      -8.082743      -219.9426
  18   2.0000      -6.042174      -164.4159
  19   2.0000      -6.041250      -164.3908
  20   2.0000      -6.038117      -164.3055
  21   2.0000      -6.037123      -164.2785
  22   2.0000      -6.034420      -164.2049
  23   2.0000      -6.033497      -164.1798
  24   2.0000      -1.010279       -27.4911
  25   2.0000      -0.987743       -26.8778
  26   2.0000      -0.919663       -25.0253
  27   2.0000      -0.910463       -24.7750
  28   2.0000      -0.871840       -23.7240
  29   2.0000      -0.859522       -23.3888
  30   2.0000      -0.847538       -23.0627
  31   2.0000      -0.815487       -22.1905
  32   2.0000      -0.784248       -21.3405
  33   2.0000      -0.771781       -21.0012
  34   2.0000      -0.709283       -19.3006
  35   2.0000      -0.703202       -19.1351
  36   2.0000      -0.688775       -18.7425
  37   2.0000      -0.660439       -17.9714
  38   2.0000      -0.637120       -17.3369
  39   2.0000      -0.615202       -16.7405
  40   2.0000      -0.593199       -16.1418
  41   2.0000      -0.579153       -15.7596
  42   2.0000      -0.568327       -15.4650
  43   2.0000      -0.565885       -15.3985
  44   2.0000      -0.543916       -14.8007
  45   2.0000      -0.527241       -14.3470
  46   2.0000      -0.517767       -14.0891
  47   2.0000      -0.513823       -13.9818
  48   2.0000      -0.509403       -13.8616
  49   2.0000      -0.501125       -13.6363
  50   2.0000      -0.482686       -13.1346
  51   2.0000      -0.482140       -13.1197
  52   2.0000      -0.480685       -13.0801
  53   2.0000      -0.466654       -12.6983
  54   2.0000      -0.462169       -12.5763
  55   2.0000      -0.448968       -12.2170
  56   2.0000      -0.445757       -12.1297
  57   2.0000      -0.435947       -11.8627
  58   2.0000      -0.430942       -11.7265
  59   2.0000      -0.425403       -11.5758
  60   2.0000      -0.422057       -11.4847
  61   2.0000      -0.411124       -11.1873
  62   2.0000      -0.405597       -11.0368
  63   2.0000      -0.348460        -9.4821
  64   2.0000      -0.333855        -9.0847
  65   2.0000      -0.329595        -8.9687
  66   2.0000      -0.290694        -7.9102
  67   0.0000       0.020142         0.5481
  68   0.0000       0.074992         2.0406
  69   0.0000       0.111512         3.0344
  70   0.0000       0.116697         3.1755
  71   0.0000       0.123994         3.3741

MULLIKEN ATOMIC CHARGES
-----------------------
   0 S :    0.113748
   1 C :   -0.113059
   2 C :   -0.090943
   3 C :    0.034225
   4 C :   -0.161140
   5 H :   -0.015949
   6 C :    0.061336
   7 H :    0.039845
   8 H :    0.025737
   9 C :   -0.063036
  10 H :    0.002464
  11 H :    0.009749
  12 C :   -0.008932
  13 H :    0.016774
  14 H :    0.034470
  15 H :    0.036234
  16 S :    0.121694
  17 C :   -0.100471
  18 C :   -0.047923
  19 C :   -0.021567
  20 C :   -0.121968
  21 H :    0.035834
  22 C :   -0.007535
  23 H :    0.031807
  24 H :    0.039720
  25 C :   -0.103078
  26 H :    0.029620
  27 H :    0.045014
  28 C :   -0.030362
  29 H :    0.034490
  30 H :    0.025900
  31 H :    0.039920
  32 H :    0.042640
  33 H :    0.064742
Sum of atomic charges:    0.0000000

LOEWDIN ATOMIC CHARGES
----------------------
   0 S :    0.402819
   1 C :   -0.194535
   2 C :   -0.063936
   3 C :   -0.068744
   4 C :   -0.190020
   5 H :    0.026587
   6 C :   -0.026967
   7 H :    0.040694
   8 H :    0.029015
   9 C :   -0.047466
  10 H :    0.014320
  11 H :    0.021781
  12 C :   -0.050294
  13 H :    0.020124
  14 H :    0.024640
  15 H :    0.025942
  16 S :    0.428885
  17 C :   -0.200369
  18 C :   -0.076455
  19 C :   -0.058592
  20 C :   -0.206746
  21 H :    0.040764
  22 C :   -0.050055
  23 H :    0.032808
  24 H :    0.041420
  25 C :   -0.052707
  26 H :    0.021257
  27 H :    0.033504
  28 C :   -0.060261
  29 H :    0.026187
  30 H :    0.018920
  31 H :    0.030438
  32 H :    0.030166
  33 H :    0.036875

  Mayer bond orders larger than 0.100000
B(  0-S ,  1-C ) :   1.1269 B(  0-S ,  4-C ) :   1.1676 B(  1-C ,  2-C ) :   1.5962
B(  1-C ,  4-C ) :   0.1088 B(  1-C , 32-H ) :   0.9662 B(  2-C ,  3-C ) :   1.2601
B(  2-C ,  6-C ) :   0.9922 B(  3-C ,  4-C ) :   1.5293 B(  3-C ,  5-H ) :   0.9991
B(  4-C , 20-C ) :   1.0420 B(  6-C ,  7-H ) :   0.9383 B(  6-C ,  8-H ) :   0.9523
B(  6-C ,  9-C ) :   1.0834 B(  9-C , 10-H ) :   0.9495 B(  9-C , 11-H ) :   0.9492
B(  9-C , 12-C ) :   1.0701 B( 12-C , 13-H ) :   0.9735 B( 12-C , 14-H ) :   0.9724
B( 12-C , 15-H ) :   0.9788 B( 16-S , 17-C ) :   1.1683 B( 16-S , 20-C ) :   1.1424
B( 17-C , 18-C ) :   1.5980 B( 17-C , 33-H ) :   0.9620 B( 18-C , 19-C ) :   1.2456
B( 18-C , 21-H ) :   0.9873 B( 19-C , 20-C ) :   1.5744 B( 19-C , 22-C ) :   1.0596
B( 22-C , 23-H ) :   0.9288 B( 22-C , 24-H ) :   0.9365 B( 22-C , 25-C ) :   1.0464
B( 25-C , 26-H ) :   0.9533 B( 25-C , 27-H ) :   0.9486 B( 25-C , 28-C ) :   1.0898
B( 28-C , 29-H ) :   0.9747 B( 28-C , 30-H ) :   0.9725 B( 28-C , 31-H ) :   0.9716

Dispersion correction           -0.014797410
FINAL SINGLE POINT ENERGY     -1339.872585711051

DIPOLE MOMENT
-------------
                                X             Y             Z
Electronic contribution:    -24.70572      -4.30415      18.76815
Nuclear contribution   :     25.33136       4.37087     -18.97895
                        -----------------------------------------
Total Dipole Moment    :      0.62565       0.06673      -0.21080
                        -----------------------------------------
Magnitude (a.u.)       :      0.66357
Magnitude (Debye)      :      1.68666

Rotational constants in cm-1:     0.018178     0.009921     0.006811
Rotational constants in MHz :   544.951644   297.431447   204.189230

                             ****ORCA TERMINATED NORMALLY****
TOTAL RUN TIME: 0 days 0 hours 0 minutes 22 seconds 523 msec
