                         Program Version 4.2.1 -  RELEASE  -
|  1> ! wB97X-D3 SP def2-SVP
|  2> %pal
|  3> nprocs 24
|  4> end
|  5>
|  6> * xyz 0 1
|  7> S 	 -129.549 	 75.3819 	 -50.4891
|  8> C 	 -129.722 	 75.002 	 -52.1533
|  9> C 	 -128.808 	 74.02 	 -52.5303
| 10> C 	 -128.09 	 73.5083 	 -51.445
| 11> C 	 -128.537 	 74.0159 	 -50.2017
| 12> H 	 -127.397 	 72.6578 	 -51.4101
| 13> C 	 -128.515 	 73.6342 	 -53.9295
| 14> H 	 -127.429 	 73.6681 	 -54.0185
| 15> H 	 -128.867 	 74.5317 	 -54.5077
| 16> C 	 -128.996 	 72.3092 	 -54.4984
| 17> H 	 -130.079 	 72.2338 	 -54.3844
| 18> H 	 -128.676 	 72.2365 	 -55.561
| 19> C 	 -128.375 	 71.1233 	 -53.7017
| 20> H 	 -128.88 	 71.1558 	 -52.7004
| 21> H 	 -128.446 	 70.1927 	 -54.1759
| 22> H 	 -127.349 	 71.3809 	 -53.6157
| 23> S 	 -127.133 	 75.1607 	 -48.1214
| 24> C 	 -126.384 	 74.1596 	 -46.8513
| 25> C 	 -126.508 	 72.8197 	 -47.2363
| 26> C 	 -127.275 	 72.5264 	 -48.3946
| 27> C 	 -127.816 	 73.7067 	 -48.9838
| 28> H 	 -125.965 	 72.0831 	 -46.6113
| 29> C 	 -127.495 	 71.0267 	 -48.8055
| 30> H 	 -126.546 	 70.5444 	 -49.0786
| 31> H 	 -127.897 	 71.0041 	 -49.8013
| 32> C 	 -128.345 	 70.1371 	 -47.8405
| 33> H 	 -129.413 	 70.4125 	 -47.8968
| 34> H 	 -128.055 	 70.3292 	 -46.8183
| 35> C 	 -128.337 	 68.6151 	 -48.1768
| 36> H 	 -128.874 	 68.103 	 -47.3198
| 37> H 	 -127.33 	 68.3419 	 -48.2512
| 38> H 	 -128.864 	 68.4025 	 -49.1662
| 39> H 	 -130.277 	 75.5265 	 -52.9249
| 40> H 	 -125.854 	 74.4986 	 -45.9887
| 41> *
| 42>
| 43>                          ****END OF INPUT****

CARTESIAN COORDINATES (ANGSTROEM)
---------------------------------
  S    -129.549000   75.381900  -50.489100
  C    -129.722000   75.002000  -52.153300
  C    -128.808000   74.020000  -52.530300
  C    -128.090000   73.508300  -51.445000
  C    -128.537000   74.015900  -50.201700
  H    -127.397000   72.657800  -51.410100
  C    -128.515000   73.634200  -53.929500
  H    -127.429000   73.668100  -54.018500
  H    -128.867000   74.531700  -54.507700
  C    -128.996000   72.309200  -54.498400
  H    -130.079000   72.233800  -54.384400
  H    -128.676000   72.236500  -55.561000
  C    -128.375000   71.123300  -53.701700
  H    -128.880000   71.155800  -52.700400
  H    -128.446000   70.192700  -54.175900
  H    -127.349000   71.380900  -53.615700
  S    -127.133000   75.160700  -48.121400
  C    -126.384000   74.159600  -46.851300
  C    -126.508000   72.819700  -47.236300
  C    -127.275000   72.526400  -48.394600
  C    -127.816000   73.706700  -48.983800
  H    -125.965000   72.083100  -46.611300
  C    -127.495000   71.026700  -48.805500
  H    -126.546000   70.544400  -49.078600
  H    -127.897000   71.004100  -49.801300
  C    -128.345000   70.137100  -47.840500
  H    -129.413000   70.412500  -47.896800
  H    -128.055000   70.329200  -46.818300
  C    -128.337000   68.615100  -48.176800
  H    -128.874000   68.103000  -47.319800
  H    -127.330000   68.341900  -48.251200
  H    -128.864000   68.402500  -49.166200
  H    -130.277000   75.526500  -52.924900
  H    -125.854000   74.498600  -45.988700

 Total Charge           Charge          ....    0
 Multiplicity           Mult            ....    1
 Number of Electrons    NEL             ....  134
 Basis Dimension        Dim             ....  322

ORBITAL ENERGIES
----------------

  NO   OCC          E(Eh)            E(eV)
   0   2.0000     -88.974417     -2421.1170
   1   2.0000     -88.963696     -2420.8252
   2   2.0000     -10.339733      -281.3584
   3   2.0000     -10.330015      -281.0940
   4   2.0000     -10.319545      -280.8091
   5   2.0000     -10.315328      -280.6943
   6   2.0000     -10.313586      -280.6470
   7   2.0000     -10.298277      -280.2304
   8   2.0000     -10.297772      -280.2166
   9   2.0000     -10.296676      -280.1868
  10   2.0000     -10.294859      -280.1373
  11   2.0000     -10.291737      -280.0524
  12   2.0000     -10.290821      -280.0275
  13   2.0000     -10.289137      -279.9816
  14   2.0000     -10.285994      -279.8961
  15   2.0000     -10.275723      -279.6166
  16   2.0000      -8.089449      -220.1251
  17   2.0000      -8.076883      -219.7832
  18   2.0000      -6.047814      -164.5694
  19   2.0000      -6.043882      -164.4624
  20   2.0000      -6.040359      -164.3665
  21   2.0000      -6.035556      -164.2358
  22   2.0000      -6.031600      -164.1282
  23   2.0000      -6.027557      -164.0182
  24   2.0000      -1.010580       -27.4993
  25   2.0000      -0.975966       -26.5574
  26   2.0000      -0.918761       -25.0007
  27   2.0000      -0.897915       -24.4335
  28   2.0000      -0.870675       -23.6923
  29   2.0000      -0.853502       -23.2250
  30   2.0000      -0.842173       -22.9167
  31   2.0000      -0.811139       -22.0722
  32   2.0000      -0.782195       -21.2846
  33   2.0000      -0.771451       -20.9922
  34   2.0000      -0.707406       -19.2495
  35   2.0000      -0.703127       -19.1331
  36   2.0000      -0.697226       -18.9725
  37   2.0000      -0.657481       -17.8910
  38   2.0000      -0.638848       -17.3839
  39   2.0000      -0.613633       -16.6978
  40   2.0000      -0.593704       -16.1555
  41   2.0000      -0.579112       -15.7584
  42   2.0000      -0.556520       -15.1437
  43   2.0000      -0.551834       -15.0162
  44   2.0000      -0.543782       -14.7971
  45   2.0000      -0.524845       -14.2818
  46   2.0000      -0.516530       -14.0555
  47   2.0000      -0.512345       -13.9416
  48   2.0000      -0.504474       -13.7274
  49   2.0000      -0.496467       -13.5096
  50   2.0000      -0.495580       -13.4854
  51   2.0000      -0.481764       -13.1095
  52   2.0000      -0.466590       -12.6966
  53   2.0000      -0.463862       -12.6223
  54   2.0000      -0.461263       -12.5516
  55   2.0000      -0.445783       -12.1304
  56   2.0000      -0.443744       -12.0749
  57   2.0000      -0.437801       -11.9132
  58   2.0000      -0.437214       -11.8972
  59   2.0000      -0.424769       -11.5585
  60   2.0000      -0.421404       -11.4670
  61   2.0000      -0.413016       -11.2387
  62   2.0000      -0.409066       -11.1313
  63   2.0000      -0.349009        -9.4970
  64   2.0000      -0.332492        -9.0476
  65   2.0000      -0.330107        -8.9827
  66   2.0000      -0.285773        -7.7763
  67   0.0000       0.017469         0.4754
  68   0.0000       0.067943         1.8488
  69   0.0000       0.101808         2.7703
  70   0.0000       0.116752         3.1770
  71   0.0000       0.130893         3.5618

MULLIKEN ATOMIC CHARGES
-----------------------
   0 S :    0.134802
   1 C :   -0.098691
   2 C :   -0.108344
   3 C :    0.008627
   4 C :   -0.146768
   5 H :    0.026117
   6 C :    0.034563
   7 H :    0.031283
   8 H :    0.020667
   9 C :   -0.051051
  10 H :    0.032037
  11 H :    0.041032
  12 C :   -0.055853
  13 H :    0.056426
  14 H :    0.031096
  15 H :    0.017597
  16 S :    0.073539
  17 C :   -0.088233
  18 C :   -0.057437
  19 C :   -0.028540
  20 C :   -0.149695
  21 H :    0.031988
  22 C :    0.079957
  23 H :    0.022507
  24 H :   -0.006640
  25 C :   -0.072622
  26 H :    0.037177
  27 H :    0.027838
  28 C :   -0.070041
  29 H :    0.053798
  30 H :    0.023344
  31 H :    0.048612
  32 H :    0.046414
  33 H :    0.054494
Sum of atomic charges:    0.0000000

LOEWDIN ATOMIC CHARGES
----------------------
   0 S :    0.447503
   1 C :   -0.209884
   2 C :   -0.072353
   3 C :   -0.054232
   4 C :   -0.216495
   5 H :    0.032808
   6 C :   -0.040978
   7 H :    0.033270
   8 H :    0.034192
   9 C :   -0.035821
  10 H :    0.023260
  11 H :    0.028886
  12 C :   -0.060575
  13 H :    0.034203
  14 H :    0.018189
  15 H :    0.015990
  16 S :    0.360717
  17 C :   -0.178894
  18 C :   -0.074913
  19 C :   -0.061419
  20 C :   -0.163148
  21 H :    0.035134
  22 C :   -0.036724
  23 H :    0.031843
  24 H :    0.022359
  25 C :   -0.039789
  26 H :    0.029154
  27 H :    0.019488
  28 C :   -0.065929
  29 H :    0.038093
  30 H :    0.011966
  31 H :    0.033830
  32 H :    0.032242
  33 H :    0.028028

  Mayer bond orders larger than 0.100000
B(  0-S ,  1-C ) :   1.1607 B(  0-S ,  4-C ) :   1.1758 B(  1-C ,  2-C ) :   1.5625
B(  1-C , 32-H ) :   0.9640 B(  2-C ,  3-C ) :   1.3009 B(  2-C ,  6-C ) :   1.0194
B(  3-C ,  4-C ) :   1.4905 B(  3-C ,  5-H ) :   0.9869 B(  4-C , 20-C ) :   1.0777
B(  6-C ,  7-H ) :   0.9408 B(  6-C ,  8-H ) :   0.9342 B(  6-C ,  9-C ) :   1.0725
B(  9-C , 10-H ) :   0.9565 B(  9-C , 11-H ) :   0.9535 B(  9-C , 12-C ) :   1.0757
B( 12-C , 13-H ) :   0.9711 B( 12-C , 14-H ) :   0.9727 B( 12-C , 15-H ) :   0.9746
B( 16-S , 17-C ) :   1.1339 B( 16-S , 20-C ) :   1.1361 B( 17-C , 18-C ) :   1.6100
B( 17-C , 20-C ) :   0.1112 B( 17-C , 33-H ) :   0.9731 B( 18-C , 19-C ) :   1.2503
B( 18-C , 21-H ) :   0.9805 B( 19-C , 20-C ) :   1.5749 B( 19-C , 22-C ) :   1.0362
B( 22-C , 23-H ) :   0.9391 B( 22-C , 24-H ) :   0.9270 B( 22-C , 25-C ) :   1.0497
B( 25-C , 26-H ) :   0.9566 B( 25-C , 27-H ) :   0.9628 B( 25-C , 28-C ) :   1.0713
B( 28-C , 29-H ) :   0.9740 B( 28-C , 30-H ) :   0.9790 B( 28-C , 31-H ) :   0.9768

Dispersion correction           -0.014060996
FINAL SINGLE POINT ENERGY     -1339.862385926832

DIPOLE MOMENT
-------------
                                X             Y             Z
Electronic contribution:     -0.32421      28.24936      11.19900
Nuclear contribution   :      0.54701     -28.80134     -11.58786
                        -----------------------------------------
Total Dipole Moment    :      0.22280      -0.55198      -0.38886
                        -----------------------------------------
Magnitude (a.u.)       :      0.71101
Magnitude (Debye)      :      1.80723

Rotational constants in cm-1:     0.015468     0.009907     0.006700
Rotational constants in MHz :   463.726663   297.014216   200.861731

                             ****ORCA TERMINATED NORMALLY****
TOTAL RUN TIME: 0 days 0 hours 0 minutes 21 seconds 479 msec
