                         Program Version 4.2.1 -  RELEASE  -
|  1> ! wB97X-D3 SP def2-SVP
|  2> %pal
|  3> nprocs 24
|  4> end
|  5>
|  6> * xyz 0 1
|  7> S 	 -119.751 	 52.7483 	 -39.141
|  8> C 	 -120.682 	 53.4293 	 -40.4316
|  9> C 	 -121.734 	 54.2015 	 -39.9792
| 10> C 	 -121.758 	 54.182 	 -38.5697
| 11> C 	 -120.919 	 53.292 	 -37.9821
| 12> H 	 -122.471 	 54.6744 	 -37.8987
| 13> C 	 -122.66 	 54.9625 	 -40.9753
| 14> H 	 -122.156 	 55.7973 	 -41.4741
| 15> H 	 -123.44 	 55.4004 	 -40.3815
| 16> C 	 -123.386 	 54.1149 	 -42.0704
| 17> H 	 -123.999 	 54.7565 	 -42.7639
| 18> H 	 -122.661 	 53.7003 	 -42.7373
| 19> C 	 -124.302 	 53.0222 	 -41.5062
| 20> H 	 -124.997 	 53.5308 	 -40.9464
| 21> H 	 -124.692 	 52.3566 	 -42.2393
| 22> H 	 -123.778 	 52.3661 	 -40.8968
| 23> S 	 -119.335 	 53.2065 	 -35.738
| 24> C 	 -119.96 	 52.4148 	 -34.2959
| 25> C 	 -121.291 	 52.1163 	 -34.4077
| 26> C 	 -121.85 	 52.4601 	 -35.7141
| 27> C 	 -120.876 	 52.9808 	 -36.5741
| 28> H 	 -121.773 	 51.7357 	 -33.5729
| 29> C 	 -123.322 	 52.1435 	 -36.0711
| 30> H 	 -123.371 	 51.1794 	 -36.4589
| 31> H 	 -123.727 	 52.8258 	 -36.8557
| 32> C 	 -124.279 	 52.1576 	 -34.9264
| 33> H 	 -124.274 	 53.2126 	 -34.6061
| 34> H 	 -123.919 	 51.531 	 -34.1422
| 35> C 	 -125.747 	 51.6478 	 -35.1945
| 36> H 	 -126.264 	 52.4899 	 -35.7718
| 37> H 	 -126.339 	 51.3328 	 -34.306
| 38> H 	 -125.782 	 50.7725 	 -35.8199
| 39> H 	 -120.382 	 53.4688 	 -41.4335
| 40> H 	 -119.326 	 52.2705 	 -33.4508
| 41> *
| 42>
| 43>                          ****END OF INPUT****

CARTESIAN COORDINATES (ANGSTROEM)
---------------------------------
  S    -119.751000   52.748300  -39.141000
  C    -120.682000   53.429300  -40.431600
  C    -121.734000   54.201500  -39.979200
  C    -121.758000   54.182000  -38.569700
  C    -120.919000   53.292000  -37.982100
  H    -122.471000   54.674400  -37.898700
  C    -122.660000   54.962500  -40.975300
  H    -122.156000   55.797300  -41.474100
  H    -123.440000   55.400400  -40.381500
  C    -123.386000   54.114900  -42.070400
  H    -123.999000   54.756500  -42.763900
  H    -122.661000   53.700300  -42.737300
  C    -124.302000   53.022200  -41.506200
  H    -124.997000   53.530800  -40.946400
  H    -124.692000   52.356600  -42.239300
  H    -123.778000   52.366100  -40.896800
  S    -119.335000   53.206500  -35.738000
  C    -119.960000   52.414800  -34.295900
  C    -121.291000   52.116300  -34.407700
  C    -121.850000   52.460100  -35.714100
  C    -120.876000   52.980800  -36.574100
  H    -121.773000   51.735700  -33.572900
  C    -123.322000   52.143500  -36.071100
  H    -123.371000   51.179400  -36.458900
  H    -123.727000   52.825800  -36.855700
  C    -124.279000   52.157600  -34.926400
  H    -124.274000   53.212600  -34.606100
  H    -123.919000   51.531000  -34.142200
  C    -125.747000   51.647800  -35.194500
  H    -126.264000   52.489900  -35.771800
  H    -126.339000   51.332800  -34.306000
  H    -125.782000   50.772500  -35.819900
  H    -120.382000   53.468800  -41.433500
  H    -119.326000   52.270500  -33.450800

 Total Charge           Charge          ....    0
 Multiplicity           Mult            ....    1
 Number of Electrons    NEL             ....  134
 Basis Dimension        Dim             ....  322

ORBITAL ENERGIES
----------------

  NO   OCC          E(Eh)            E(eV)
   0   2.0000     -88.966309     -2420.8963
   1   2.0000     -88.963067     -2420.8081
   2   2.0000     -10.328243      -281.0458
   3   2.0000     -10.321903      -280.8733
   4   2.0000     -10.317136      -280.7435
   5   2.0000     -10.313045      -280.6322
   6   2.0000     -10.306729      -280.4604
   7   2.0000     -10.302017      -280.3321
   8   2.0000     -10.297301      -280.2038
   9   2.0000     -10.293466      -280.0995
  10   2.0000     -10.290777      -280.0263
  11   2.0000     -10.289153      -279.9821
  12   2.0000     -10.289100      -279.9806
  13   2.0000     -10.288976      -279.9773
  14   2.0000     -10.285628      -279.8862
  15   2.0000     -10.260205      -279.1944
  16   2.0000      -8.081646      -219.9128
  17   2.0000      -8.077795      -219.8080
  18   2.0000      -6.040054      -164.3582
  19   2.0000      -6.036313      -164.2564
  20   2.0000      -6.036140      -164.2517
  21   2.0000      -6.032401      -164.1500
  22   2.0000      -6.032338      -164.1483
  23   2.0000      -6.028521      -164.0444
  24   2.0000      -1.010798       -27.5052
  25   2.0000      -0.983736       -26.7688
  26   2.0000      -0.911783       -24.8109
  27   2.0000      -0.907493       -24.6941
  28   2.0000      -0.872463       -23.7409
  29   2.0000      -0.851059       -23.1585
  30   2.0000      -0.841579       -22.9005
  31   2.0000      -0.817377       -22.2420
  32   2.0000      -0.787246       -21.4221
  33   2.0000      -0.775877       -21.1127
  34   2.0000      -0.705855       -19.2073
  35   2.0000      -0.705198       -19.1894
  36   2.0000      -0.697625       -18.9833
  37   2.0000      -0.657766       -17.8987
  38   2.0000      -0.643717       -17.5164
  39   2.0000      -0.614408       -16.7189
  40   2.0000      -0.600548       -16.3418
  41   2.0000      -0.576237       -15.6802
  42   2.0000      -0.575884       -15.6706
  43   2.0000      -0.556308       -15.1379
  44   2.0000      -0.543412       -14.7870
  45   2.0000      -0.520115       -14.1531
  46   2.0000      -0.515497       -14.0274
  47   2.0000      -0.512446       -13.9444
  48   2.0000      -0.504481       -13.7276
  49   2.0000      -0.501170       -13.6375
  50   2.0000      -0.491894       -13.3851
  51   2.0000      -0.476723       -12.9723
  52   2.0000      -0.469215       -12.7680
  53   2.0000      -0.466145       -12.6845
  54   2.0000      -0.462310       -12.5801
  55   2.0000      -0.453285       -12.3345
  56   2.0000      -0.443849       -12.0777
  57   2.0000      -0.436416       -11.8755
  58   2.0000      -0.431495       -11.7416
  59   2.0000      -0.428184       -11.6515
  60   2.0000      -0.424847       -11.5607
  61   2.0000      -0.415855       -11.3160
  62   2.0000      -0.412518       -11.2252
  63   2.0000      -0.345361        -9.3977
  64   2.0000      -0.332482        -9.0473
  65   2.0000      -0.331068        -9.0088
  66   2.0000      -0.294577        -8.0158
  67   0.0000       0.029610         0.8057
  68   0.0000       0.068272         1.8578
  69   0.0000       0.110240         2.9998
  70   0.0000       0.127526         3.4702
  71   0.0000       0.130157         3.5417

MULLIKEN ATOMIC CHARGES
-----------------------
   0 S :    0.126299
   1 C :   -0.098467
   2 C :   -0.091127
   3 C :    0.021718
   4 C :   -0.164144
   5 H :    0.016811
   6 C :    0.084321
   7 H :    0.045154
   8 H :    0.007563
   9 C :   -0.098044
  10 H :    0.031194
  11 H :    0.015340
  12 C :    0.020490
  13 H :    0.009722
  14 H :    0.024929
  15 H :    0.016365
  16 S :    0.093908
  17 C :   -0.084674
  18 C :   -0.014564
  19 C :   -0.024749
  20 C :   -0.173577
  21 H :   -0.001708
  22 C :    0.122990
  23 H :    0.015651
  24 H :    0.025170
  25 C :   -0.120741
  26 H :    0.036293
  27 H :    0.029277
  28 C :   -0.068398
  29 H :    0.042490
  30 H :    0.048251
  31 H :    0.025812
  32 H :    0.028529
  33 H :    0.051918
Sum of atomic charges:   -0.0000000

LOEWDIN ATOMIC CHARGES
----------------------
   0 S :    0.423575
   1 C :   -0.190371
   2 C :   -0.065214
   3 C :   -0.063304
   4 C :   -0.205751
   5 H :    0.032839
   6 C :   -0.026076
   7 H :    0.035516
   8 H :    0.023369
   9 C :   -0.037044
  10 H :    0.028690
  11 H :    0.012621
  12 C :   -0.050567
  13 H :    0.014533
  14 H :    0.026328
  15 H :    0.018945
  16 S :    0.387107
  17 C :   -0.167518
  18 C :   -0.064951
  19 C :   -0.043617
  20 C :   -0.192849
  21 H :    0.020809
  22 C :   -0.028883
  23 H :    0.023998
  24 H :    0.032720
  25 C :   -0.043810
  26 H :    0.027621
  27 H :    0.016276
  28 C :   -0.071977
  29 H :    0.033219
  30 H :    0.033192
  31 H :    0.020204
  32 H :    0.016654
  33 H :    0.023714

  Mayer bond orders larger than 0.100000
B(  0-S ,  1-C ) :   1.1555 B(  0-S ,  4-C ) :   1.1468 B(  1-C ,  2-C ) :   1.5904
B(  1-C , 32-H ) :   0.9754 B(  2-C ,  3-C ) :   1.2624 B(  2-C ,  6-C ) :   1.0025
B(  3-C ,  4-C ) :   1.5765 B(  3-C ,  5-H ) :   0.9880 B(  4-C , 20-C ) :   1.0511
B(  6-C ,  7-H ) :   0.9422 B(  6-C ,  8-H ) :   0.9436 B(  6-C ,  9-C ) :   1.0731
B(  9-C , 10-H ) :   0.9578 B(  9-C , 11-H ) :   0.9569 B(  9-C , 12-C ) :   1.0717
B( 12-C , 13-H ) :   0.9773 B( 12-C , 14-H ) :   0.9713 B( 12-C , 15-H ) :   0.9724
B( 16-S , 17-C ) :   1.1451 B( 16-S , 20-C ) :   1.1399 B( 17-C , 18-C ) :   1.6294
B( 17-C , 33-H ) :   0.9699 B( 18-C , 19-C ) :   1.2063 B( 18-C , 21-H ) :   1.0008
B( 19-C , 20-C ) :   1.6187 B( 19-C , 22-C ) :   1.0313 B( 22-C , 23-H ) :   0.9194
B( 22-C , 24-H ) :   0.9383 B( 22-C , 25-C ) :   1.0688 B( 25-C , 26-H ) :   0.9646
B( 25-C , 27-H ) :   0.9478 B( 25-C , 28-C ) :   1.0724 B( 28-C , 29-H ) :   0.9764
B( 28-C , 30-H ) :   0.9775 B( 28-C , 31-H ) :   0.9746

Dispersion correction           -0.013878578
FINAL SINGLE POINT ENERGY     -1339.869008474519

DIPOLE MOMENT
-------------
                                X             Y             Z
Electronic contribution:     30.09636       1.31041       6.63862
Nuclear contribution   :    -30.69003      -1.33068      -6.64117
                        -----------------------------------------
Total Dipole Moment    :     -0.59367      -0.02028      -0.00255
                        -----------------------------------------
Magnitude (a.u.)       :      0.59402
Magnitude (Debye)      :      1.50988

Rotational constants in cm-1:     0.016773     0.009250     0.006350
Rotational constants in MHz :   502.836942   277.313370   190.366194

                             ****ORCA TERMINATED NORMALLY****
TOTAL RUN TIME: 0 days 0 hours 0 minutes 21 seconds 368 msec
