                         Program Version 4.2.1 -  RELEASE  -
|  1> ! wB97X-D3 SP def2-SVP
|  2> %pal
|  3> nprocs 24
|  4> end
|  5>
|  6> * xyz 0 1
|  7> S 	 -94.9252 	 46.8397 	 -90.1304
|  8> C 	 -94.7375 	 45.3683 	 -89.2286
|  9> C 	 -95.0218 	 44.2245 	 -89.9734
| 10> C 	 -95.2429 	 44.5732 	 -91.3369
| 11> C 	 -95.2951 	 45.8905 	 -91.615
| 12> H 	 -95.3941 	 43.9255 	 -92.155
| 13> C 	 -95.1622 	 42.8534 	 -89.4326
| 14> H 	 -95.7067 	 42.2347 	 -90.1674
| 15> H 	 -95.5692 	 42.8355 	 -88.4229
| 16> C 	 -93.766 	 42.198 	 -89.2729
| 17> H 	 -93.088 	 42.7439 	 -88.6444
| 18> H 	 -93.9284 	 41.1835 	 -88.8464
| 19> C 	 -93.09 	 41.9174 	 -90.6481
| 20> H 	 -92.1887 	 41.3343 	 -90.5153
| 21> H 	 -93.8109 	 41.3944 	 -91.2927
| 22> H 	 -92.74 	 42.8628 	 -91.1328
| 23> S 	 -97.1481 	 47.5326 	 -92.7391
| 24> C 	 -97.1824 	 47.8308 	 -94.459
| 25> C 	 -96.2155 	 47.0752 	 -95.1289
| 26> C 	 -95.4429 	 46.3114 	 -94.2372
| 27> C 	 -95.7074 	 46.534 	 -92.8975
| 28> H 	 -96.2163 	 47.095 	 -96.2192
| 29> C 	 -94.3711 	 45.3299 	 -94.7699
| 30> H 	 -93.6337 	 45.2546 	 -93.9767
| 31> H 	 -93.8003 	 45.893 	 -95.5124
| 32> C 	 -94.8138 	 44.0402 	 -95.3288
| 33> H 	 -95.5003 	 44.2449 	 -96.1805
| 34> H 	 -95.5288 	 43.6248 	 -94.5857
| 35> C 	 -93.6588 	 43.0464 	 -95.755
| 36> H 	 -93.093 	 43.3963 	 -96.6219
| 37> H 	 -94.0563 	 42.0463 	 -95.8579
| 38> H 	 -92.8656 	 43.0267 	 -94.9174
| 39> H 	 -94.5079 	 45.3759 	 -88.2047
| 40> H 	 -98.0859 	 48.2398 	 -94.8068
| 41> *
| 42>
| 43>                          ****END OF INPUT****

CARTESIAN COORDINATES (ANGSTROEM)
---------------------------------
  S    -94.925200   46.839700  -90.130400
  C    -94.737500   45.368300  -89.228600
  C    -95.021800   44.224500  -89.973400
  C    -95.242900   44.573200  -91.336900
  C    -95.295100   45.890500  -91.615000
  H    -95.394100   43.925500  -92.155000
  C    -95.162200   42.853400  -89.432600
  H    -95.706700   42.234700  -90.167400
  H    -95.569200   42.835500  -88.422900
  C    -93.766000   42.198000  -89.272900
  H    -93.088000   42.743900  -88.644400
  H    -93.928400   41.183500  -88.846400
  C    -93.090000   41.917400  -90.648100
  H    -92.188700   41.334300  -90.515300
  H    -93.810900   41.394400  -91.292700
  H    -92.740000   42.862800  -91.132800
  S    -97.148100   47.532600  -92.739100
  C    -97.182400   47.830800  -94.459000
  C    -96.215500   47.075200  -95.128900
  C    -95.442900   46.311400  -94.237200
  C    -95.707400   46.534000  -92.897500
  H    -96.216300   47.095000  -96.219200
  C    -94.371100   45.329900  -94.769900
  H    -93.633700   45.254600  -93.976700
  H    -93.800300   45.893000  -95.512400
  C    -94.813800   44.040200  -95.328800
  H    -95.500300   44.244900  -96.180500
  H    -95.528800   43.624800  -94.585700
  C    -93.658800   43.046400  -95.755000
  H    -93.093000   43.396300  -96.621900
  H    -94.056300   42.046300  -95.857900
  H    -92.865600   43.026700  -94.917400
  H    -94.507900   45.375900  -88.204700
  H    -98.085900   48.239800  -94.806800

 Total Charge           Charge          ....    0
 Multiplicity           Mult            ....    1
 Number of Electrons    NEL             ....  134
 Basis Dimension        Dim             ....  322

ORBITAL ENERGIES
----------------

  NO   OCC          E(Eh)            E(eV)
   0   2.0000     -88.965013     -2420.8611
   1   2.0000     -88.962512     -2420.7930
   2   2.0000     -10.330708      -281.1129
   3   2.0000     -10.329968      -281.0927
   4   2.0000     -10.315364      -280.6953
   5   2.0000     -10.310860      -280.5728
   6   2.0000     -10.305450      -280.4256
   7   2.0000     -10.300232      -280.2835
   8   2.0000     -10.298160      -280.2272
   9   2.0000     -10.294282      -280.1216
  10   2.0000     -10.292936      -280.0850
  11   2.0000     -10.291893      -280.0567
  12   2.0000     -10.288267      -279.9580
  13   2.0000     -10.288246      -279.9574
  14   2.0000     -10.287184      -279.9285
  15   2.0000     -10.279560      -279.7210
  16   2.0000      -8.079291      -219.8487
  17   2.0000      -8.077615      -219.8031
  18   2.0000      -6.037853      -164.2983
  19   2.0000      -6.035884      -164.2447
  20   2.0000      -6.033922      -164.1914
  21   2.0000      -6.032067      -164.1409
  22   2.0000      -6.029973      -164.0839
  23   2.0000      -6.028595      -164.0464
  24   2.0000      -1.005408       -27.3585
  25   2.0000      -0.985366       -26.8132
  26   2.0000      -0.913220       -24.8500
  27   2.0000      -0.910042       -24.7635
  28   2.0000      -0.866858       -23.5884
  29   2.0000      -0.849542       -23.1172
  30   2.0000      -0.844037       -22.9674
  31   2.0000      -0.816108       -22.2074
  32   2.0000      -0.782705       -21.2985
  33   2.0000      -0.771587       -20.9960
  34   2.0000      -0.703777       -19.1507
  35   2.0000      -0.700918       -19.0730
  36   2.0000      -0.692334       -18.8394
  37   2.0000      -0.666885       -18.1469
  38   2.0000      -0.648388       -17.6435
  39   2.0000      -0.617536       -16.8040
  40   2.0000      -0.598716       -16.2919
  41   2.0000      -0.578057       -15.7297
  42   2.0000      -0.561845       -15.2886
  43   2.0000      -0.550438       -14.9782
  44   2.0000      -0.537068       -14.6144
  45   2.0000      -0.527965       -14.3667
  46   2.0000      -0.517526       -14.0826
  47   2.0000      -0.511562       -13.9203
  48   2.0000      -0.507174       -13.8009
  49   2.0000      -0.496851       -13.5200
  50   2.0000      -0.492726       -13.4078
  51   2.0000      -0.475560       -12.9406
  52   2.0000      -0.468496       -12.7484
  53   2.0000      -0.467995       -12.7348
  54   2.0000      -0.459240       -12.4965
  55   2.0000      -0.447231       -12.1698
  56   2.0000      -0.443784       -12.0760
  57   2.0000      -0.441030       -12.0010
  58   2.0000      -0.432159       -11.7597
  59   2.0000      -0.428066       -11.6483
  60   2.0000      -0.420024       -11.4294
  61   2.0000      -0.416170       -11.3246
  62   2.0000      -0.409144       -11.1334
  63   2.0000      -0.349951        -9.5227
  64   2.0000      -0.332883        -9.0582
  65   2.0000      -0.326938        -8.8964
  66   2.0000      -0.292085        -7.9480
  67   0.0000       0.032494         0.8842
  68   0.0000       0.061645         1.6774
  69   0.0000       0.111522         3.0347
  70   0.0000       0.122162         3.3242
  71   0.0000       0.124110         3.3772

MULLIKEN ATOMIC CHARGES
-----------------------
   0 S :    0.106436
   1 C :   -0.104661
   2 C :   -0.078208
   3 C :    0.059721
   4 C :   -0.152853
   5 H :   -0.024364
   6 C :    0.087377
   7 H :    0.029588
   8 H :    0.035552
   9 C :   -0.089572
  10 H :    0.029243
  11 H :    0.031933
  12 C :   -0.080505
  13 H :    0.034944
  14 H :    0.029710
  15 H :    0.047364
  16 S :    0.088472
  17 C :   -0.085873
  18 C :   -0.034321
  19 C :   -0.053111
  20 C :   -0.136771
  21 H :    0.029137
  22 C :    0.061177
  23 H :    0.016260
  24 H :    0.015703
  25 C :   -0.067701
  26 H :    0.024929
  27 H :    0.026248
  28 C :   -0.052935
  29 H :    0.043068
  30 H :    0.046469
  31 H :    0.036683
  32 H :    0.029009
  33 H :    0.051853
Sum of atomic charges:   -0.0000000

LOEWDIN ATOMIC CHARGES
----------------------
   0 S :    0.387465
   1 C :   -0.187525
   2 C :   -0.061759
   3 C :   -0.056554
   4 C :   -0.180856
   5 H :    0.023789
   6 C :   -0.029826
   7 H :    0.034597
   8 H :    0.035780
   9 C :   -0.035241
  10 H :    0.017997
  11 H :    0.024083
  12 C :   -0.070832
  13 H :    0.024081
  14 H :    0.022263
  15 H :    0.028658
  16 S :    0.409456
  17 C :   -0.176627
  18 C :   -0.069254
  19 C :   -0.058694
  20 C :   -0.192225
  21 H :    0.036707
  22 C :   -0.038179
  23 H :    0.026845
  24 H :    0.028587
  25 C :   -0.049321
  26 H :    0.026412
  27 H :    0.023684
  28 C :   -0.065003
  29 H :    0.027837
  30 H :    0.027759
  31 H :    0.033680
  32 H :    0.015851
  33 H :    0.016367

  Mayer bond orders larger than 0.100000
B(  0-S ,  1-C ) :   1.1455 B(  0-S ,  4-C ) :   1.1325 B(  1-C ,  2-C ) :   1.6051
B(  1-C , 32-H ) :   0.9726 B(  2-C ,  3-C ) :   1.2178 B(  2-C ,  6-C ) :   1.0337
B(  3-C ,  4-C ) :   1.6192 B(  3-C ,  5-H ) :   0.9999 B(  4-C , 20-C ) :   0.9941
B(  6-C ,  7-H ) :   0.9405 B(  6-C ,  8-H ) :   0.9364 B(  6-C ,  9-C ) :   1.0716
B(  9-C , 10-H ) :   0.9592 B(  9-C , 11-H ) :   0.9581 B(  9-C , 12-C ) :   1.0741
B( 12-C , 13-H ) :   0.9749 B( 12-C , 14-H ) :   0.9757 B( 12-C , 15-H ) :   0.9730
B( 16-S , 17-C ) :   1.1794 B( 16-S , 20-C ) :   1.1583 B( 17-C , 18-C ) :   1.5658
B( 17-C , 20-C ) :   0.1072 B( 17-C , 33-H ) :   0.9727 B( 18-C , 19-C ) :   1.2591
B( 18-C , 21-H ) :   0.9961 B( 19-C , 20-C ) :   1.6017 B( 19-C , 22-C ) :   1.0300
B( 22-C , 23-H ) :   0.9330 B( 22-C , 24-H ) :   0.9333 B( 22-C , 25-C ) :   1.0677
B( 25-C , 26-H ) :   0.9470 B( 25-C , 27-H ) :   0.9516 B( 25-C , 28-C ) :   1.0655
B( 28-C , 29-H ) :   0.9755 B( 28-C , 30-H ) :   0.9762 B( 28-C , 31-H ) :   0.9763

Dispersion correction           -0.014818390
FINAL SINGLE POINT ENERGY     -1339.881710849748

DIPOLE MOMENT
-------------
                                X             Y             Z
Electronic contribution:    -13.20041      26.84282       7.81490
Nuclear contribution   :     13.24413     -27.55218      -8.05519
                        -----------------------------------------
Total Dipole Moment    :      0.04372      -0.70936      -0.24028
                        -----------------------------------------
Magnitude (a.u.)       :      0.75023
Magnitude (Debye)      :      1.90693

Rotational constants in cm-1:     0.016765     0.010179     0.006843
Rotational constants in MHz :   502.612129   305.160092   205.145167

                             ****ORCA TERMINATED NORMALLY****
TOTAL RUN TIME: 0 days 0 hours 0 minutes 22 seconds 311 msec
