                         Program Version 4.2.1 -  RELEASE  -
|  1> ! wB97X-D3 SP def2-SVP
|  2> %pal
|  3> nprocs 24
|  4> end
|  5>
|  6> * xyz 0 1
|  7> S 	 11.4862 	 -17.0883 	 -117.401
|  8> C 	 10.2826 	 -16.2894 	 -118.357
|  9> C 	 9.04888 	 -16.9244 	 -118.344
| 10> C 	 9.03582 	 -18.072 	 -117.517
| 11> C 	 10.2481 	 -18.2965 	 -116.773
| 12> H 	 8.13483 	 -18.61 	 -117.251
| 13> C 	 7.91227 	 -16.3981 	 -119.148
| 14> H 	 7.8438 	 -16.9592 	 -120.054
| 15> H 	 8.13315 	 -15.3599 	 -119.507
| 16> C 	 6.56532 	 -16.4228 	 -118.363
| 17> H 	 6.23896 	 -17.4552 	 -118.098
| 18> H 	 6.69689 	 -16.0039 	 -117.372
| 19> C 	 5.34863 	 -15.6224 	 -119.051
| 20> H 	 5.22075 	 -15.8143 	 -120.115
| 21> H 	 4.41041 	 -15.6363 	 -118.476
| 22> H 	 5.82399 	 -14.5591 	 -119.111
| 23> S 	 9.62675 	 -20.9023 	 -115.938
| 24> C 	 10.249 	 -21.4412 	 -114.415
| 25> C 	 11.226 	 -20.5586 	 -113.953
| 26> C 	 11.4163 	 -19.3719 	 -114.726
| 27> C 	 10.5455 	 -19.3845 	 -115.824
| 28> H 	 11.8803 	 -20.8339 	 -113.182
| 29> C 	 12.4693 	 -18.3994 	 -114.362
| 30> H 	 12.6368 	 -17.504 	 -114.99
| 31> H 	 13.4701 	 -18.8743 	 -114.426
| 32> C 	 12.2795 	 -17.8505 	 -112.905
| 33> H 	 13.2667 	 -17.4541 	 -112.572
| 34> H 	 12.0462 	 -18.6892 	 -112.215
| 35> C 	 11.0157 	 -16.8275 	 -113.007
| 36> H 	 10.0885 	 -17.337 	 -113.272
| 37> H 	 11.2358 	 -16.0098 	 -113.704
| 38> H 	 10.8011 	 -16.4867 	 -111.941
| 39> H 	 10.4058 	 -15.3945 	 -118.914
| 40> H 	 10.0747 	 -22.3242 	 -113.905
| 41> *
| 42>
| 43>                          ****END OF INPUT****

CARTESIAN COORDINATES (ANGSTROEM)
---------------------------------
  S     11.486200  -17.088300  -117.401000
  C     10.282600  -16.289400  -118.357000
  C      9.048880  -16.924400  -118.344000
  C      9.035820  -18.072000  -117.517000
  C     10.248100  -18.296500  -116.773000
  H      8.134830  -18.610000  -117.251000
  C      7.912270  -16.398100  -119.148000
  H      7.843800  -16.959200  -120.054000
  H      8.133150  -15.359900  -119.507000
  C      6.565320  -16.422800  -118.363000
  H      6.238960  -17.455200  -118.098000
  H      6.696890  -16.003900  -117.372000
  C      5.348630  -15.622400  -119.051000
  H      5.220750  -15.814300  -120.115000
  H      4.410410  -15.636300  -118.476000
  H      5.823990  -14.559100  -119.111000
  S      9.626750  -20.902300  -115.938000
  C     10.249000  -21.441200  -114.415000
  C     11.226000  -20.558600  -113.953000
  C     11.416300  -19.371900  -114.726000
  C     10.545500  -19.384500  -115.824000
  H     11.880300  -20.833900  -113.182000
  C     12.469300  -18.399400  -114.362000
  H     12.636800  -17.504000  -114.990000
  H     13.470100  -18.874300  -114.426000
  C     12.279500  -17.850500  -112.905000
  H     13.266700  -17.454100  -112.572000
  H     12.046200  -18.689200  -112.215000
  C     11.015700  -16.827500  -113.007000
  H     10.088500  -17.337000  -113.272000
  H     11.235800  -16.009800  -113.704000
  H     10.801100  -16.486700  -111.941000
  H     10.405800  -15.394500  -118.914000
  H     10.074700  -22.324200  -113.905000

 Total Charge           Charge          ....    0
 Multiplicity           Mult            ....    1
 Number of Electrons    NEL             ....  134
 Basis Dimension        Dim             ....  322

ORBITAL ENERGIES
----------------

  NO   OCC          E(Eh)            E(eV)
   0   2.0000     -88.971830     -2421.0466
   1   2.0000     -88.970054     -2420.9983
   2   2.0000     -10.343839      -281.4702
   3   2.0000     -10.334202      -281.2079
   4   2.0000     -10.316299      -280.7208
   5   2.0000     -10.309339      -280.5314
   6   2.0000     -10.305231      -280.4196
   7   2.0000     -10.299297      -280.2581
   8   2.0000     -10.298016      -280.2233
   9   2.0000     -10.297505      -280.2093
  10   2.0000     -10.295790      -280.1627
  11   2.0000     -10.295121      -280.1445
  12   2.0000     -10.293788      -280.1082
  13   2.0000     -10.292291      -280.0675
  14   2.0000     -10.291240      -280.0389
  15   2.0000     -10.284699      -279.8609
  16   2.0000      -8.085903      -220.0286
  17   2.0000      -8.082900      -219.9469
  18   2.0000      -6.044494      -164.4790
  19   2.0000      -6.041463      -164.3966
  20   2.0000      -6.040541      -164.3715
  21   2.0000      -6.037656      -164.2930
  22   2.0000      -6.036577      -164.2636
  23   2.0000      -6.033742      -164.1865
  24   2.0000      -1.000307       -27.2197
  25   2.0000      -0.979678       -26.6584
  26   2.0000      -0.906685       -24.6722
  27   2.0000      -0.903343       -24.5812
  28   2.0000      -0.864775       -23.5317
  29   2.0000      -0.842720       -22.9316
  30   2.0000      -0.837528       -22.7903
  31   2.0000      -0.811228       -22.0746
  32   2.0000      -0.777427       -21.1549
  33   2.0000      -0.766827       -20.8664
  34   2.0000      -0.714861       -19.4523
  35   2.0000      -0.700674       -19.0663
  36   2.0000      -0.691262       -18.8102
  37   2.0000      -0.665631       -18.1128
  38   2.0000      -0.632133       -17.2012
  39   2.0000      -0.618811       -16.8387
  40   2.0000      -0.605509       -16.4767
  41   2.0000      -0.569407       -15.4944
  42   2.0000      -0.553321       -15.0566
  43   2.0000      -0.543188       -14.7809
  44   2.0000      -0.532902       -14.5010
  45   2.0000      -0.527613       -14.3571
  46   2.0000      -0.515311       -14.0223
  47   2.0000      -0.500880       -13.6296
  48   2.0000      -0.498936       -13.5767
  49   2.0000      -0.498234       -13.5576
  50   2.0000      -0.488118       -13.2824
  51   2.0000      -0.478497       -13.0206
  52   2.0000      -0.468907       -12.7596
  53   2.0000      -0.464680       -12.6446
  54   2.0000      -0.454900       -12.3785
  55   2.0000      -0.451893       -12.2966
  56   2.0000      -0.443226       -12.0608
  57   2.0000      -0.442565       -12.0428
  58   2.0000      -0.432613       -11.7720
  59   2.0000      -0.426824       -11.6145
  60   2.0000      -0.412701       -11.2302
  61   2.0000      -0.411005       -11.1840
  62   2.0000      -0.410826       -11.1791
  63   2.0000      -0.354747        -9.6532
  64   2.0000      -0.331903        -9.0315
  65   2.0000      -0.330001        -8.9798
  66   2.0000      -0.279200        -7.5974
  67   0.0000       0.015018         0.4087
  68   0.0000       0.079777         2.1708
  69   0.0000       0.097698         2.6585
  70   0.0000       0.120136         3.2691
  71   0.0000       0.125868         3.4250

MULLIKEN ATOMIC CHARGES
-----------------------
   0 S :    0.093333
   1 C :   -0.099157
   2 C :   -0.096189
   3 C :    0.001479
   4 C :   -0.130556
   5 H :    0.020650
   6 C :    0.096342
   7 H :    0.039225
   8 H :    0.016715
   9 C :   -0.123553
  10 H :    0.035754
  11 H :    0.035562
  12 C :   -0.077362
  13 H :    0.035338
  14 H :    0.058515
  15 H :    0.032013
  16 S :    0.117740
  17 C :   -0.055665
  18 C :   -0.031457
  19 C :   -0.014520
  20 C :   -0.140965
  21 H :    0.005681
  22 C :    0.009578
  23 H :    0.031314
  24 H :    0.042335
  25 C :   -0.105850
  26 H :    0.038153
  27 H :    0.035813
  28 C :   -0.072996
  29 H :    0.051134
  30 H :    0.048569
  31 H :    0.039085
  32 H :    0.031988
  33 H :    0.031953
Sum of atomic charges:   -0.0000000

LOEWDIN ATOMIC CHARGES
----------------------
   0 S :    0.389421
   1 C :   -0.199821
   2 C :   -0.066352
   3 C :   -0.068364
   4 C :   -0.159634
   5 H :    0.026911
   6 C :   -0.029005
   7 H :    0.032060
   8 H :    0.032681
   9 C :   -0.044866
  10 H :    0.021423
  11 H :    0.024352
  12 C :   -0.076114
  13 H :    0.022280
  14 H :    0.030986
  15 H :    0.034079
  16 S :    0.412714
  17 C :   -0.180145
  18 C :   -0.059911
  19 C :   -0.053680
  20 C :   -0.191090
  21 H :    0.020869
  22 C :   -0.047825
  23 H :    0.022146
  24 H :    0.037083
  25 C :   -0.037725
  26 H :    0.025576
  27 H :    0.021555
  28 C :   -0.067659
  29 H :    0.029963
  30 H :    0.027222
  31 H :    0.030047
  32 H :    0.022028
  33 H :    0.018797

  Mayer bond orders larger than 0.100000
B(  0-S ,  1-C ) :   1.1396 B(  0-S ,  4-C ) :   1.1317 B(  1-C ,  2-C ) :   1.6024
B(  1-C ,  4-C ) :   0.1018 B(  1-C , 32-H ) :   0.9642 B(  2-C ,  3-C ) :   1.2735
B(  2-C ,  6-C ) :   1.0335 B(  3-C ,  4-C ) :   1.5333 B(  3-C ,  5-H ) :   0.9805
B(  4-C , 20-C ) :   1.0973 B(  6-C ,  7-H ) :   0.9273 B(  6-C ,  8-H ) :   0.9424
B(  6-C ,  9-C ) :   1.0460 B(  9-C , 10-H ) :   0.9532 B(  9-C , 11-H ) :   0.9649
B(  9-C , 12-C ) :   1.0658 B( 12-C , 13-H ) :   0.9780 B( 12-C , 14-H ) :   0.9763
B( 12-C , 15-H ) :   0.9759 B( 16-S , 17-C ) :   1.1505 B( 16-S , 20-C ) :   1.1326
B( 17-C , 18-C ) :   1.5994 B( 17-C , 33-H ) :   0.9751 B( 18-C , 19-C ) :   1.2576
B( 18-C , 21-H ) :   0.9865 B( 19-C , 20-C ) :   1.5374 B( 19-C , 22-C ) :   1.0477
B( 22-C , 23-H ) :   0.9397 B( 22-C , 24-H ) :   0.9320 B( 22-C , 25-C ) :   1.0612
B( 25-C , 26-H ) :   0.9599 B( 25-C , 27-H ) :   0.9612 B( 25-C , 28-C ) :   1.0453
B( 28-C , 29-H ) :   0.9767 B( 28-C , 30-H ) :   0.9779 B( 28-C , 31-H ) :   0.9767

Dispersion correction           -0.014422468
FINAL SINGLE POINT ENERGY     -1339.866953771096

DIPOLE MOMENT
-------------
                                X             Y             Z
Electronic contribution:     10.52747     -15.18083      -4.00129
Nuclear contribution   :    -10.61693      15.28253       4.17767
                        -----------------------------------------
Total Dipole Moment    :     -0.08946       0.10169       0.17638
                        -----------------------------------------
Magnitude (a.u.)       :      0.22239
Magnitude (Debye)      :      0.56526

Rotational constants in cm-1:     0.020441     0.007786     0.006797
Rotational constants in MHz :   612.802385   233.422517   203.755867

                             ****ORCA TERMINATED NORMALLY****
TOTAL RUN TIME: 0 days 0 hours 0 minutes 21 seconds 255 msec
