                         Program Version 4.2.1 -  RELEASE  -
|  1> ! wB97X-D3 SP def2-SVP
|  2> %pal
|  3> nprocs 24
|  4> end
|  5>
|  6> * xyz 0 1
|  7> S 	 -35.9353 	 -5.82923 	 5.07152
|  8> C 	 -35.5042 	 -4.90353 	 6.49671
|  9> C 	 -36.2871 	 -5.23193 	 7.53996
| 10> C 	 -37.4047 	 -6.09027 	 7.20338
| 11> C 	 -37.402 	 -6.36129 	 5.83384
| 12> H 	 -38.1126 	 -6.44461 	 7.83759
| 13> C 	 -35.9857 	 -4.68049 	 8.9563
| 14> H 	 -36.8665 	 -4.90733 	 9.57553
| 15> H 	 -35.7401 	 -3.58431 	 8.98813
| 16> C 	 -34.8911 	 -5.54923 	 9.64434
| 17> H 	 -35.0828 	 -6.57576 	 9.35214
| 18> H 	 -33.8807 	 -5.37252 	 9.20584
| 19> C 	 -34.7464 	 -5.41861 	 11.1296
| 20> H 	 -34.7219 	 -4.4031 	 11.4604
| 21> H 	 -35.6157 	 -5.73941 	 11.633
| 22> H 	 -33.9568 	 -5.96754 	 11.619
| 23> S 	 -37.5629 	 -8.07243 	 3.77036
| 24> C 	 -39.1131 	 -8.59175 	 3.12083
| 25> C 	 -40.1869 	 -8.07406 	 3.81187
| 26> C 	 -39.7269 	 -7.35585 	 4.93421
| 27> C 	 -38.3414 	 -7.18293 	 5.03481
| 28> H 	 -41.1744 	 -8.28058 	 3.4956
| 29> C 	 -40.732 	 -6.6037 	 5.85833
| 30> H 	 -40.3172 	 -6.36347 	 6.8243
| 31> H 	 -41.5171 	 -7.3191 	 6.01719
| 32> C 	 -41.3246 	 -5.27051 	 5.33273
| 33> H 	 -41.6916 	 -5.55304 	 4.31707
| 34> H 	 -40.5756 	 -4.44166 	 5.27081
| 35> C 	 -42.434 	 -4.80166 	 6.27174
| 36> H 	 -42.1246 	 -4.43613 	 7.19401
| 37> H 	 -43.1696 	 -5.63399 	 6.43795
| 38> H 	 -43.103 	 -4.00636 	 5.80629
| 39> H 	 -34.66 	 -4.25943 	 6.53751
| 40> H 	 -39.1955 	 -8.95915 	 2.10933
| 41> *
| 42>
| 43>                          ****END OF INPUT****

CARTESIAN COORDINATES (ANGSTROEM)
---------------------------------
  S    -35.935300   -5.829230    5.071520
  C    -35.504200   -4.903530    6.496710
  C    -36.287100   -5.231930    7.539960
  C    -37.404700   -6.090270    7.203380
  C    -37.402000   -6.361290    5.833840
  H    -38.112600   -6.444610    7.837590
  C    -35.985700   -4.680490    8.956300
  H    -36.866500   -4.907330    9.575530
  H    -35.740100   -3.584310    8.988130
  C    -34.891100   -5.549230    9.644340
  H    -35.082800   -6.575760    9.352140
  H    -33.880700   -5.372520    9.205840
  C    -34.746400   -5.418610   11.129600
  H    -34.721900   -4.403100   11.460400
  H    -35.615700   -5.739410   11.633000
  H    -33.956800   -5.967540   11.619000
  S    -37.562900   -8.072430    3.770360
  C    -39.113100   -8.591750    3.120830
  C    -40.186900   -8.074060    3.811870
  C    -39.726900   -7.355850    4.934210
  C    -38.341400   -7.182930    5.034810
  H    -41.174400   -8.280580    3.495600
  C    -40.732000   -6.603700    5.858330
  H    -40.317200   -6.363470    6.824300
  H    -41.517100   -7.319100    6.017190
  C    -41.324600   -5.270510    5.332730
  H    -41.691600   -5.553040    4.317070
  H    -40.575600   -4.441660    5.270810
  C    -42.434000   -4.801660    6.271740
  H    -42.124600   -4.436130    7.194010
  H    -43.169600   -5.633990    6.437950
  H    -43.103000   -4.006360    5.806290
  H    -34.660000   -4.259430    6.537510
  H    -39.195500   -8.959150    2.109330

 Total Charge           Charge          ....    0
 Multiplicity           Mult            ....    1
 Number of Electrons    NEL             ....  134
 Basis Dimension        Dim             ....  322

ORBITAL ENERGIES
----------------

  NO   OCC          E(Eh)            E(eV)
   0   2.0000     -88.965917     -2420.8857
   1   2.0000     -88.964552     -2420.8485
   2   2.0000     -10.336177      -281.2617
   3   2.0000     -10.329143      -281.0703
   4   2.0000     -10.315836      -280.7082
   5   2.0000     -10.307746      -280.4880
   6   2.0000     -10.306071      -280.4424
   7   2.0000     -10.302517      -280.3457
   8   2.0000     -10.301315      -280.3130
   9   2.0000     -10.294830      -280.1366
  10   2.0000     -10.294213      -280.1198
  11   2.0000     -10.291346      -280.0418
  12   2.0000     -10.288480      -279.9638
  13   2.0000     -10.285557      -279.8842
  14   2.0000     -10.279856      -279.7291
  15   2.0000     -10.268321      -279.4152
  16   2.0000      -8.081104      -219.8980
  17   2.0000      -8.079826      -219.8632
  18   2.0000      -6.039632      -164.3468
  19   2.0000      -6.038228      -164.3085
  20   2.0000      -6.035714      -164.2401
  21   2.0000      -6.034201      -164.1990
  22   2.0000      -6.031638      -164.1292
  23   2.0000      -6.030724      -164.1044
  24   2.0000      -1.011145       -27.5147
  25   2.0000      -0.987392       -26.8683
  26   2.0000      -0.910968       -24.7887
  27   2.0000      -0.904258       -24.6061
  28   2.0000      -0.874091       -23.7852
  29   2.0000      -0.851166       -23.1614
  30   2.0000      -0.845980       -23.0203
  31   2.0000      -0.819769       -22.3070
  32   2.0000      -0.782063       -21.2810
  33   2.0000      -0.770014       -20.9531
  34   2.0000      -0.704568       -19.1723
  35   2.0000      -0.700436       -19.0598
  36   2.0000      -0.690953       -18.8018
  37   2.0000      -0.669747       -18.2247
  38   2.0000      -0.648298       -17.6411
  39   2.0000      -0.622611       -16.9421
  40   2.0000      -0.594670       -16.1818
  41   2.0000      -0.573135       -15.5958
  42   2.0000      -0.566253       -15.4085
  43   2.0000      -0.559215       -15.2170
  44   2.0000      -0.528512       -14.3815
  45   2.0000      -0.523380       -14.2419
  46   2.0000      -0.512942       -13.9579
  47   2.0000      -0.511121       -13.9083
  48   2.0000      -0.507110       -13.7992
  49   2.0000      -0.498811       -13.5733
  50   2.0000      -0.497841       -13.5469
  51   2.0000      -0.482031       -13.1167
  52   2.0000      -0.478572       -13.0226
  53   2.0000      -0.467591       -12.7238
  54   2.0000      -0.460647       -12.5348
  55   2.0000      -0.455563       -12.3965
  56   2.0000      -0.449747       -12.2382
  57   2.0000      -0.432559       -11.7705
  58   2.0000      -0.428442       -11.6585
  59   2.0000      -0.424643       -11.5551
  60   2.0000      -0.418555       -11.3895
  61   2.0000      -0.411960       -11.2100
  62   2.0000      -0.407975       -11.1016
  63   2.0000      -0.355978        -9.6866
  64   2.0000      -0.336652        -9.1608
  65   2.0000      -0.329381        -8.9629
  66   2.0000      -0.287358        -7.8194
  67   0.0000       0.021061         0.5731
  68   0.0000       0.072535         1.9738
  69   0.0000       0.101278         2.7559
  70   0.0000       0.119794         3.2598
  71   0.0000       0.142989         3.8909

MULLIKEN ATOMIC CHARGES
-----------------------
   0 S :    0.094877
   1 C :   -0.101556
   2 C :   -0.083509
   3 C :    0.058878
   4 C :   -0.103319
   5 H :   -0.024721
   6 C :    0.053511
   7 H :    0.014675
   8 H :    0.050817
   9 C :   -0.085382
  10 H :    0.027438
  11 H :    0.024532
  12 C :    0.000886
  13 H :    0.012703
  14 H :    0.002726
  15 H :    0.034730
  16 S :    0.081315
  17 C :   -0.087931
  18 C :   -0.028110
  19 C :   -0.039364
  20 C :   -0.131665
  21 H :    0.013065
  22 C :    0.051733
  23 H :    0.004645
  24 H :    0.016384
  25 C :   -0.064226
  26 H :    0.026919
  27 H :    0.048005
  28 C :   -0.055307
  29 H :    0.025957
  30 H :    0.024485
  31 H :    0.039688
  32 H :    0.035644
  33 H :    0.061479
Sum of atomic charges:   -0.0000000

LOEWDIN ATOMIC CHARGES
----------------------
   0 S :    0.401112
   1 C :   -0.186796
   2 C :   -0.058604
   3 C :   -0.052775
   4 C :   -0.180712
   5 H :    0.013006
   6 C :   -0.029118
   7 H :    0.028043
   8 H :    0.036581
   9 C :   -0.045385
  10 H :    0.024291
  11 H :    0.023067
  12 C :   -0.067484
  13 H :    0.022689
  14 H :    0.017746
  15 H :    0.029626
  16 S :    0.406971
  17 C :   -0.180859
  18 C :   -0.062647
  19 C :   -0.060830
  20 C :   -0.198074
  21 H :    0.030714
  22 C :   -0.029689
  23 H :    0.020570
  24 H :    0.025070
  25 C :   -0.039814
  26 H :    0.024759
  27 H :    0.032086
  28 C :   -0.069278
  29 H :    0.014037
  30 H :    0.027015
  31 H :    0.034222
  32 H :    0.023227
  33 H :    0.027236

  Mayer bond orders larger than 0.100000
B(  0-S ,  1-C ) :   1.1165 B(  0-S ,  4-C ) :   1.1600 B(  1-C ,  2-C ) :   1.6363
B(  1-C , 32-H ) :   0.9779 B(  2-C ,  3-C ) :   1.2169 B(  2-C ,  6-C ) :   1.0244
B(  3-C ,  4-C ) :   1.5566 B(  3-C ,  5-H ) :   1.0156 B(  4-C , 20-C ) :   1.0409
B(  6-C ,  7-H ) :   0.9416 B(  6-C ,  8-H ) :   0.9465 B(  6-C ,  9-C ) :   1.0473
B(  9-C , 10-H ) :   0.9563 B(  9-C , 11-H ) :   0.9552 B(  9-C , 12-C ) :   1.0896
B( 12-C , 13-H ) :   0.9684 B( 12-C , 14-H ) :   0.9669 B( 12-C , 15-H ) :   0.9724
B( 16-S , 17-C ) :   1.1621 B( 16-S , 20-C ) :   1.1473 B( 17-C , 18-C ) :   1.5987
B( 17-C , 33-H ) :   0.9622 B( 18-C , 19-C ) :   1.2536 B( 18-C , 21-H ) :   1.0002
B( 19-C , 20-C ) :   1.5828 B( 19-C , 22-C ) :   1.0378 B( 22-C , 23-H ) :   0.9428
B( 22-C , 24-H ) :   0.9346 B( 22-C , 25-C ) :   1.0623 B( 25-C , 26-H ) :   0.9554
B( 25-C , 27-H ) :   0.9562 B( 25-C , 28-C ) :   1.0756 B( 28-C , 29-H ) :   0.9771
B( 28-C , 30-H ) :   0.9729 B( 28-C , 31-H ) :   0.9730

Dispersion correction           -0.013466859
FINAL SINGLE POINT ENERGY     -1339.869829539426

DIPOLE MOMENT
-------------
                                X             Y             Z
Electronic contribution:      9.98531     -10.64438     -23.07117
Nuclear contribution   :    -10.31693      10.86739      23.46357
                        -----------------------------------------
Total Dipole Moment    :     -0.33163       0.22301       0.39240
                        -----------------------------------------
Magnitude (a.u.)       :      0.56008
Magnitude (Debye)      :      1.42361

Rotational constants in cm-1:     0.018785     0.007867     0.006181
Rotational constants in MHz :   563.167982   235.852802   185.315631

                             ****ORCA TERMINATED NORMALLY****
TOTAL RUN TIME: 0 days 0 hours 0 minutes 20 seconds 856 msec
