                         Program Version 4.2.1 -  RELEASE  -
|  1> ! wB97X-D3 SP def2-SVP
|  2> %pal
|  3> nprocs 24
|  4> end
|  5>
|  6> * xyz 0 1
|  7> S 	 -55.2514 	 2.32415 	 -30.9982
|  8> C 	 -56.4701 	 1.29818 	 -31.638
|  9> C 	 -57.7058 	 1.93635 	 -31.7552
| 10> C 	 -57.6067 	 3.30413 	 -31.3121
| 11> C 	 -56.3251 	 3.66858 	 -30.8743
| 12> H 	 -58.4695 	 4.0312 	 -31.352
| 13> C 	 -59.0527 	 1.32631 	 -32.1196
| 14> H 	 -59.7996 	 1.57323 	 -31.3391
| 15> H 	 -58.9623 	 0.274424 	 -32.0005
| 16> C 	 -59.653 	 1.80731 	 -33.4682
| 17> H 	 -59.6177 	 2.90053 	 -33.6031
| 18> H 	 -59.1076 	 1.32598 	 -34.3079
| 19> C 	 -61.1098 	 1.27683 	 -33.5766
| 20> H 	 -61.2712 	 0.209117 	 -33.6536
| 21> H 	 -61.7584 	 1.58466 	 -32.7145
| 22> H 	 -61.6065 	 1.64216 	 -34.4499
| 23> S 	 -54.9559 	 4.7988 	 -28.778
| 24> C 	 -54.7091 	 6.47251 	 -28.7129
| 25> C 	 -55.2763 	 7.05105 	 -29.8066
| 26> C 	 -56.0999 	 6.19968 	 -30.6359
| 27> C 	 -55.9001 	 4.89995 	 -30.2806
| 28> H 	 -55.2467 	 8.14561 	 -29.722
| 29> C 	 -56.9372 	 6.72515 	 -31.7971
| 30> H 	 -57.813 	 7.21722 	 -31.3053
| 31> H 	 -57.3848 	 5.84447 	 -32.2901
| 32> C 	 -56.2619 	 7.65312 	 -32.8034
| 33> H 	 -55.5167 	 7.18162 	 -33.3653
| 34> H 	 -55.7073 	 8.51333 	 -32.2135
| 35> C 	 -57.3988 	 8.18558 	 -33.7295
| 36> H 	 -58.0428 	 7.41427 	 -34.0981
| 37> H 	 -56.9455 	 8.68532 	 -34.5805
| 38> H 	 -57.9145 	 8.98348 	 -33.2162
| 39> H 	 -56.2474 	 0.269992 	 -31.8548
| 40> H 	 -54.2105 	 7.0559 	 -28.0041
| 41> *
| 42>
| 43>                          ****END OF INPUT****

CARTESIAN COORDINATES (ANGSTROEM)
---------------------------------
  S    -55.251400    2.324150  -30.998200
  C    -56.470100    1.298180  -31.638000
  C    -57.705800    1.936350  -31.755200
  C    -57.606700    3.304130  -31.312100
  C    -56.325100    3.668580  -30.874300
  H    -58.469500    4.031200  -31.352000
  C    -59.052700    1.326310  -32.119600
  H    -59.799600    1.573230  -31.339100
  H    -58.962300    0.274424  -32.000500
  C    -59.653000    1.807310  -33.468200
  H    -59.617700    2.900530  -33.603100
  H    -59.107600    1.325980  -34.307900
  C    -61.109800    1.276830  -33.576600
  H    -61.271200    0.209117  -33.653600
  H    -61.758400    1.584660  -32.714500
  H    -61.606500    1.642160  -34.449900
  S    -54.955900    4.798800  -28.778000
  C    -54.709100    6.472510  -28.712900
  C    -55.276300    7.051050  -29.806600
  C    -56.099900    6.199680  -30.635900
  C    -55.900100    4.899950  -30.280600
  H    -55.246700    8.145610  -29.722000
  C    -56.937200    6.725150  -31.797100
  H    -57.813000    7.217220  -31.305300
  H    -57.384800    5.844470  -32.290100
  C    -56.261900    7.653120  -32.803400
  H    -55.516700    7.181620  -33.365300
  H    -55.707300    8.513330  -32.213500
  C    -57.398800    8.185580  -33.729500
  H    -58.042800    7.414270  -34.098100
  H    -56.945500    8.685320  -34.580500
  H    -57.914500    8.983480  -33.216200
  H    -56.247400    0.269992  -31.854800
  H    -54.210500    7.055900  -28.004100

 Total Charge           Charge          ....    0
 Multiplicity           Mult            ....    1
 Number of Electrons    NEL             ....  134
 Basis Dimension        Dim             ....  322

ORBITAL ENERGIES
----------------

  NO   OCC          E(Eh)            E(eV)
   0   2.0000     -88.966507     -2420.9017
   1   2.0000     -88.960201     -2420.7301
   2   2.0000     -10.326788      -281.0062
   3   2.0000     -10.322701      -280.8950
   4   2.0000     -10.311735      -280.5966
   5   2.0000     -10.305918      -280.4383
   6   2.0000     -10.303141      -280.3627
   7   2.0000     -10.302349      -280.3412
   8   2.0000     -10.299175      -280.2548
   9   2.0000     -10.296774      -280.1895
  10   2.0000     -10.295598      -280.1575
  11   2.0000     -10.293750      -280.1072
  12   2.0000     -10.292623      -280.0765
  13   2.0000     -10.288108      -279.9537
  14   2.0000     -10.279290      -279.7137
  15   2.0000     -10.276556      -279.6393
  16   2.0000      -8.082133      -219.9260
  17   2.0000      -8.075793      -219.7535
  18   2.0000      -6.040551      -164.3717
  19   2.0000      -6.036373      -164.2581
  20   2.0000      -6.034294      -164.2015
  21   2.0000      -6.033091      -164.1687
  22   2.0000      -6.030190      -164.0898
  23   2.0000      -6.026475      -163.9887
  24   2.0000      -1.011541       -27.5254
  25   2.0000      -0.987847       -26.8807
  26   2.0000      -0.909240       -24.7417
  27   2.0000      -0.908755       -24.7285
  28   2.0000      -0.873691       -23.7743
  29   2.0000      -0.852080       -23.1863
  30   2.0000      -0.842727       -22.9318
  31   2.0000      -0.812079       -22.0978
  32   2.0000      -0.781550       -21.2671
  33   2.0000      -0.772855       -21.0305
  34   2.0000      -0.710837       -19.3429
  35   2.0000      -0.702561       -19.1177
  36   2.0000      -0.699415       -19.0320
  37   2.0000      -0.656092       -17.8532
  38   2.0000      -0.639521       -17.4022
  39   2.0000      -0.621475       -16.9112
  40   2.0000      -0.595740       -16.2109
  41   2.0000      -0.568073       -15.4580
  42   2.0000      -0.562964       -15.3190
  43   2.0000      -0.557168       -15.1613
  44   2.0000      -0.529150       -14.3989
  45   2.0000      -0.525842       -14.3089
  46   2.0000      -0.515446       -14.0260
  47   2.0000      -0.510873       -13.9016
  48   2.0000      -0.504278       -13.7221
  49   2.0000      -0.500404       -13.6167
  50   2.0000      -0.487311       -13.2604
  51   2.0000      -0.480765       -13.0823
  52   2.0000      -0.472655       -12.8616
  53   2.0000      -0.462816       -12.5939
  54   2.0000      -0.460890       -12.5415
  55   2.0000      -0.447715       -12.1829
  56   2.0000      -0.444396       -12.0926
  57   2.0000      -0.440461       -11.9855
  58   2.0000      -0.439149       -11.9498
  59   2.0000      -0.424080       -11.5398
  60   2.0000      -0.420843       -11.4517
  61   2.0000      -0.419071       -11.4035
  62   2.0000      -0.410777       -11.1778
  63   2.0000      -0.352916        -9.6033
  64   2.0000      -0.330699        -8.9988
  65   2.0000      -0.325436        -8.8556
  66   2.0000      -0.289307        -7.8724
  67   0.0000       0.034402         0.9361
  68   0.0000       0.076421         2.0795
  69   0.0000       0.119041         3.2393
  70   0.0000       0.123765         3.3678
  71   0.0000       0.127104         3.4587

MULLIKEN ATOMIC CHARGES
-----------------------
   0 S :    0.125664
   1 C :   -0.132984
   2 C :   -0.070666
   3 C :    0.007346
   4 C :   -0.172049
   5 H :    0.034643
   6 C :    0.061730
   7 H :    0.030487
   8 H :    0.011087
   9 C :   -0.065551
  10 H :    0.041837
  11 H :    0.039690
  12 C :   -0.065380
  13 H :    0.029926
  14 H :    0.029758
  15 H :    0.024165
  16 S :    0.103633
  17 C :   -0.064343
  18 C :   -0.061469
  19 C :   -0.018001
  20 C :   -0.146443
  21 H :    0.021134
  22 C :    0.047311
  23 H :    0.039975
  24 H :    0.016988
  25 C :   -0.087367
  26 H :    0.029033
  27 H :    0.046998
  28 C :   -0.028665
  29 H :    0.034822
  30 H :    0.025690
  31 H :    0.032706
  32 H :    0.044013
  33 H :    0.034283
Sum of atomic charges:    0.0000000

LOEWDIN ATOMIC CHARGES
----------------------
   0 S :    0.437582
   1 C :   -0.209077
   2 C :   -0.063979
   3 C :   -0.069909
   4 C :   -0.206423
   5 H :    0.036838
   6 C :   -0.032669
   7 H :    0.035272
   8 H :    0.025865
   9 C :   -0.035315
  10 H :    0.027898
  11 H :    0.030715
  12 C :   -0.074421
  13 H :    0.024486
  14 H :    0.026740
  15 H :    0.021446
  16 S :    0.406937
  17 C :   -0.193134
  18 C :   -0.082584
  19 C :   -0.054460
  20 C :   -0.192137
  21 H :    0.030409
  22 C :   -0.037156
  23 H :    0.038983
  24 H :    0.029027
  25 C :   -0.035261
  26 H :    0.016469
  27 H :    0.035801
  28 C :   -0.059624
  29 H :    0.023317
  30 H :    0.025217
  31 H :    0.025959
  32 H :    0.023549
  33 H :    0.023636

  Mayer bond orders larger than 0.100000
B(  0-S ,  1-C ) :   1.1554 B(  0-S ,  4-C ) :   1.1713 B(  1-C ,  2-C ) :   1.5798
B(  1-C , 32-H ) :   0.9727 B(  2-C ,  3-C ) :   1.2700 B(  2-C ,  6-C ) :   1.0219
B(  3-C ,  4-C ) :   1.5388 B(  3-C ,  5-H ) :   0.9791 B(  4-C , 20-C ) :   1.0604
B(  6-C ,  7-H ) :   0.9479 B(  6-C ,  8-H ) :   0.9409 B(  6-C ,  9-C ) :   1.0499
B(  9-C , 10-H ) :   0.9612 B(  9-C , 11-H ) :   0.9538 B(  9-C , 12-C ) :   1.0744
B( 12-C , 13-H ) :   0.9762 B( 12-C , 14-H ) :   0.9750 B( 12-C , 15-H ) :   0.9745
B( 16-S , 17-C ) :   1.1459 B( 16-S , 20-C ) :   1.1270 B( 17-C , 18-C ) :   1.6534
B( 17-C , 33-H ) :   0.9714 B( 18-C , 19-C ) :   1.2036 B( 18-C , 21-H ) :   0.9780
B( 19-C , 20-C ) :   1.6162 B( 19-C , 22-C ) :   1.0387 B( 22-C , 23-H ) :   0.9337
B( 22-C , 24-H ) :   0.9253 B( 22-C , 25-C ) :   1.0599 B( 25-C , 26-H ) :   0.9603
B( 25-C , 27-H ) :   0.9546 B( 25-C , 28-C ) :   1.0711 B( 28-C , 29-H ) :   0.9748
B( 28-C , 30-H ) :   0.9743 B( 28-C , 31-H ) :   0.9776

Dispersion correction           -0.013314815
FINAL SINGLE POINT ENERGY     -1339.883745773678

DIPOLE MOMENT
-------------
                                X             Y             Z
Electronic contribution:     22.80748      -6.44504      20.33184
Nuclear contribution   :    -23.33791       6.67591     -20.67915
                        -----------------------------------------
Total Dipole Moment    :     -0.53042       0.23086      -0.34732
                        -----------------------------------------
Magnitude (a.u.)       :      0.67474
Magnitude (Debye)      :      1.71506

Rotational constants in cm-1:     0.016763     0.008614     0.006225
Rotational constants in MHz :   502.540010   258.245438   186.629405

                             ****ORCA TERMINATED NORMALLY****
TOTAL RUN TIME: 0 days 0 hours 0 minutes 19 seconds 987 msec
