                         Program Version 4.2.1 -  RELEASE  -
|  1> ! wB97X-D3 SP def2-SVP
|  2> %pal
|  3> nprocs 24
|  4> end
|  5>
|  6> * xyz 0 1
|  7> S 	 -56.2641 	 -3.12697 	 -32.9349
|  8> C 	 -57.4754 	 -4.11288 	 -32.1757
|  9> C 	 -57.8061 	 -3.71978 	 -30.9151
| 10> C 	 -56.9058 	 -2.66087 	 -30.5102
| 11> C 	 -55.9312 	 -2.2294 	 -31.4339
| 12> H 	 -56.9626 	 -2.24492 	 -29.5034
| 13> C 	 -58.8215 	 -4.37441 	 -29.9884
| 14> H 	 -58.828 	 -5.4511 	 -30.0273
| 15> H 	 -59.8211 	 -4.18954 	 -30.4974
| 16> C 	 -58.9012 	 -3.96765 	 -28.5203
| 17> H 	 -57.9964 	 -4.26578 	 -28.0042
| 18> H 	 -58.9306 	 -2.84039 	 -28.4036
| 19> C 	 -60.1179 	 -4.46294 	 -27.7766
| 20> H 	 -60.197 	 -3.80906 	 -26.8763
| 21> H 	 -61.0556 	 -4.17337 	 -28.3027
| 22> H 	 -60.0321 	 -5.55187 	 -27.4687
| 23> S 	 -53.2511 	 -2.03591 	 -30.7717
| 24> C 	 -52.5572 	 -0.550208 	 -30.5171
| 25> C 	 -53.4906 	 0.536884 	 -30.6968
| 26> C 	 -54.7701 	 0.0679942 	 -31.1242
| 27> C 	 -54.7981 	 -1.31517 	 -31.2555
| 28> H 	 -53.1702 	 1.55499 	 -30.476
| 29> C 	 -55.9026 	 0.99081 	 -31.6398
| 30> H 	 -55.8995 	 1.90306 	 -30.9824
| 31> H 	 -56.8488 	 0.48201 	 -31.4835
| 32> C 	 -55.8707 	 1.31975 	 -33.1156
| 33> H 	 -56.726 	 1.91894 	 -33.3472
| 34> H 	 -55.8013 	 0.427123 	 -33.7315
| 35> C 	 -54.6853 	 2.16014 	 -33.6326
| 36> H 	 -54.4245 	 3.00304 	 -33.0607
| 37> H 	 -54.9005 	 2.52282 	 -34.6642
| 38> H 	 -53.7557 	 1.62157 	 -33.6739
| 39> H 	 -57.9221 	 -5.03369 	 -32.522
| 40> H 	 -51.5568 	 -0.31503 	 -30.3081
| 41> *
| 42>
| 43>                          ****END OF INPUT****

CARTESIAN COORDINATES (ANGSTROEM)
---------------------------------
  S    -56.264100   -3.126970  -32.934900
  C    -57.475400   -4.112880  -32.175700
  C    -57.806100   -3.719780  -30.915100
  C    -56.905800   -2.660870  -30.510200
  C    -55.931200   -2.229400  -31.433900
  H    -56.962600   -2.244920  -29.503400
  C    -58.821500   -4.374410  -29.988400
  H    -58.828000   -5.451100  -30.027300
  H    -59.821100   -4.189540  -30.497400
  C    -58.901200   -3.967650  -28.520300
  H    -57.996400   -4.265780  -28.004200
  H    -58.930600   -2.840390  -28.403600
  C    -60.117900   -4.462940  -27.776600
  H    -60.197000   -3.809060  -26.876300
  H    -61.055600   -4.173370  -28.302700
  H    -60.032100   -5.551870  -27.468700
  S    -53.251100   -2.035910  -30.771700
  C    -52.557200   -0.550208  -30.517100
  C    -53.490600    0.536884  -30.696800
  C    -54.770100    0.067994  -31.124200
  C    -54.798100   -1.315170  -31.255500
  H    -53.170200    1.554990  -30.476000
  C    -55.902600    0.990810  -31.639800
  H    -55.899500    1.903060  -30.982400
  H    -56.848800    0.482010  -31.483500
  C    -55.870700    1.319750  -33.115600
  H    -56.726000    1.918940  -33.347200
  H    -55.801300    0.427123  -33.731500
  C    -54.685300    2.160140  -33.632600
  H    -54.424500    3.003040  -33.060700
  H    -54.900500    2.522820  -34.664200
  H    -53.755700    1.621570  -33.673900
  H    -57.922100   -5.033690  -32.522000
  H    -51.556800   -0.315030  -30.308100

 Total Charge           Charge          ....    0
 Multiplicity           Mult            ....    1
 Number of Electrons    NEL             ....  134
 Basis Dimension        Dim             ....  322

ORBITAL ENERGIES
----------------

  NO   OCC          E(Eh)            E(eV)
   0   2.0000     -88.969481     -2420.9827
   1   2.0000     -88.964085     -2420.8358
   2   2.0000     -10.332024      -281.1487
   3   2.0000     -10.325214      -280.9634
   4   2.0000     -10.314693      -280.6771
   5   2.0000     -10.309088      -280.5245
   6   2.0000     -10.307035      -280.4687
   7   2.0000     -10.300172      -280.2819
   8   2.0000     -10.298477      -280.2358
   9   2.0000     -10.297618      -280.2124
  10   2.0000     -10.297483      -280.2087
  11   2.0000     -10.293659      -280.1047
  12   2.0000     -10.292280      -280.0672
  13   2.0000     -10.289757      -279.9985
  14   2.0000     -10.280489      -279.7463
  15   2.0000     -10.266393      -279.3627
  16   2.0000      -8.085154      -220.0082
  17   2.0000      -8.078327      -219.8225
  18   2.0000      -6.043318      -164.4470
  19   2.0000      -6.039331      -164.3385
  20   2.0000      -6.036923      -164.2730
  21   2.0000      -6.036407      -164.2590
  22   2.0000      -6.032786      -164.1605
  23   2.0000      -6.029145      -164.0614
  24   2.0000      -1.003470       -27.3058
  25   2.0000      -0.983463       -26.7614
  26   2.0000      -0.912459       -24.8293
  27   2.0000      -0.907884       -24.7048
  28   2.0000      -0.868789       -23.6410
  29   2.0000      -0.850367       -23.1397
  30   2.0000      -0.842031       -22.9128
  31   2.0000      -0.807309       -21.9680
  32   2.0000      -0.785901       -21.3855
  33   2.0000      -0.774693       -21.0805
  34   2.0000      -0.710386       -19.3306
  35   2.0000      -0.693979       -18.8841
  36   2.0000      -0.685122       -18.6431
  37   2.0000      -0.660031       -17.9604
  38   2.0000      -0.635270       -17.2866
  39   2.0000      -0.617542       -16.8042
  40   2.0000      -0.591548       -16.0968
  41   2.0000      -0.572383       -15.5753
  42   2.0000      -0.567366       -15.4388
  43   2.0000      -0.552505       -15.0344
  44   2.0000      -0.541687       -14.7400
  45   2.0000      -0.520767       -14.1708
  46   2.0000      -0.517501       -14.0819
  47   2.0000      -0.508756       -13.8439
  48   2.0000      -0.503007       -13.6875
  49   2.0000      -0.499003       -13.5786
  50   2.0000      -0.483472       -13.1559
  51   2.0000      -0.479640       -13.0517
  52   2.0000      -0.470795       -12.8110
  53   2.0000      -0.468177       -12.7398
  54   2.0000      -0.456314       -12.4169
  55   2.0000      -0.449862       -12.2414
  56   2.0000      -0.439232       -11.9521
  57   2.0000      -0.436634       -11.8814
  58   2.0000      -0.428417       -11.6578
  59   2.0000      -0.420331       -11.4378
  60   2.0000      -0.418013       -11.3747
  61   2.0000      -0.416170       -11.3246
  62   2.0000      -0.414750       -11.2859
  63   2.0000      -0.336056        -9.1446
  64   2.0000      -0.327544        -8.9129
  65   2.0000      -0.316503        -8.6125
  66   2.0000      -0.307774        -8.3750
  67   0.0000       0.037340         1.0161
  68   0.0000       0.054820         1.4917
  69   0.0000       0.114866         3.1257
  70   0.0000       0.126034         3.4296
  71   0.0000       0.132500         3.6055

MULLIKEN ATOMIC CHARGES
-----------------------
   0 S :    0.111922
   1 C :   -0.114814
   2 C :   -0.073734
   3 C :    0.035979
   4 C :   -0.179854
   5 H :    0.010685
   6 C :    0.049138
   7 H :    0.023913
   8 H :    0.035242
   9 C :   -0.107349
  10 H :    0.036295
  11 H :    0.037904
  12 C :   -0.063737
  13 H :    0.034701
  14 H :    0.036116
  15 H :    0.056523
  16 S :    0.151790
  17 C :   -0.076025
  18 C :   -0.070915
  19 C :   -0.008298
  20 C :   -0.191538
  21 H :    0.021530
  22 C :    0.075971
  23 H :    0.029017
  24 H :    0.029893
  25 C :   -0.035833
  26 H :    0.029590
  27 H :    0.032428
  28 C :   -0.060424
  29 H :    0.006098
  30 H :    0.032346
  31 H :    0.029168
  32 H :    0.035425
  33 H :    0.040846
Sum of atomic charges:    0.0000000

LOEWDIN ATOMIC CHARGES
----------------------
   0 S :    0.397553
   1 C :   -0.198065
   2 C :   -0.069674
   3 C :   -0.054685
   4 C :   -0.202844
   5 H :    0.027996
   6 C :   -0.041936
   7 H :    0.029653
   8 H :    0.041194
   9 C :   -0.052413
  10 H :    0.024787
  11 H :    0.029018
  12 C :   -0.072648
  13 H :    0.033515
  14 H :    0.029581
  15 H :    0.033620
  16 S :    0.457878
  17 C :   -0.207240
  18 C :   -0.078614
  19 C :   -0.044909
  20 C :   -0.215382
  21 H :    0.030167
  22 C :   -0.029123
  23 H :    0.033708
  24 H :    0.032891
  25 C :   -0.034147
  26 H :    0.025290
  27 H :    0.029179
  28 C :   -0.068533
  29 H :    0.011551
  30 H :    0.030685
  31 H :    0.021695
  32 H :    0.029257
  33 H :    0.020996

  Mayer bond orders larger than 0.100000
B(  0-S ,  1-C ) :   1.1515 B(  0-S ,  4-C ) :   1.1305 B(  1-C ,  2-C ) :   1.6250
B(  1-C , 32-H ) :   0.9643 B(  2-C ,  3-C ) :   1.2615 B(  2-C ,  6-C ) :   1.0034
B(  3-C ,  4-C ) :   1.5740 B(  3-C ,  5-H ) :   0.9874 B(  4-C , 20-C ) :   1.0202
B(  6-C ,  7-H ) :   0.9414 B(  6-C ,  8-H ) :   0.9319 B(  6-C ,  9-C ) :   1.0762
B(  9-C , 10-H ) :   0.9488 B(  9-C , 11-H ) :   0.9502 B(  9-C , 12-C ) :   1.0906
B( 12-C , 13-H ) :   0.9733 B( 12-C , 14-H ) :   0.9709 B( 12-C , 15-H ) :   0.9722
B( 16-S , 17-C ) :   1.2156 B( 16-S , 20-C ) :   1.1554 B( 17-C , 18-C ) :   1.5441
B( 17-C , 20-C ) :   0.1078 B( 17-C , 33-H ) :   0.9726 B( 18-C , 19-C ) :   1.2782
B( 18-C , 21-H ) :   0.9915 B( 19-C , 20-C ) :   1.5625 B( 19-C , 22-C ) :   1.0398
B( 22-C , 23-H ) :   0.9352 B( 22-C , 24-H ) :   0.9255 B( 22-C , 25-C ) :   1.0876
B( 25-C , 26-H ) :   0.9549 B( 25-C , 27-H ) :   0.9513 B( 25-C , 28-C ) :   1.0791
B( 28-C , 29-H ) :   0.9745 B( 28-C , 30-H ) :   0.9742 B( 28-C , 31-H ) :   0.9738

Dispersion correction           -0.014217654
FINAL SINGLE POINT ENERGY     -1339.874048743580

DIPOLE MOMENT
-------------
                                X             Y             Z
Electronic contribution:     16.50664      -7.86965      -6.78257
Nuclear contribution   :    -16.81802       8.01366       7.22506
                        -----------------------------------------
Total Dipole Moment    :     -0.31138       0.14401       0.44249
                        -----------------------------------------
Magnitude (a.u.)       :      0.55990
Magnitude (Debye)      :      1.42316

Rotational constants in cm-1:     0.020628     0.007164     0.006840
Rotational constants in MHz :   618.408905   214.765854   205.062956

                             ****ORCA TERMINATED NORMALLY****
TOTAL RUN TIME: 0 days 0 hours 0 minutes 21 seconds 111 msec
