                         Program Version 4.2.1 -  RELEASE  -
|  1> ! wB97X-D3 SP def2-SVP
|  2> %pal
|  3> nprocs 24
|  4> end
|  5>
|  6> * xyz 0 1
|  7> S 	 -61.043 	 -57.3087 	 -79.6994
|  8> C 	 -60.9103 	 -58.2439 	 -78.1897
|  9> C 	 -59.6712 	 -58.0166 	 -77.6564
| 10> C 	 -58.9334 	 -57.0107 	 -78.3438
| 11> C 	 -59.4828 	 -56.5119 	 -79.4688
| 12> H 	 -57.9114 	 -56.5961 	 -78.0449
| 13> C 	 -59.1659 	 -58.695 	 -76.4309
| 14> H 	 -58.1102 	 -58.5338 	 -76.2151
| 15> H 	 -59.1717 	 -59.7637 	 -76.6579
| 16> C 	 -59.9298 	 -58.3383 	 -75.1005
| 17> H 	 -59.7868 	 -57.2966 	 -74.8914
| 18> H 	 -61.0337 	 -58.4837 	 -75.2958
| 19> C 	 -59.5851 	 -59.1456 	 -73.8433
| 20> H 	 -59.6977 	 -60.2067 	 -74.1186
| 21> H 	 -58.6262 	 -58.8759 	 -73.4385
| 22> H 	 -60.3045 	 -58.9834 	 -73.0998
| 23> S 	 -58.2341 	 -56.2032 	 -81.9087
| 24> C 	 -57.3744 	 -54.6825 	 -82.1098
| 25> C 	 -57.5208 	 -53.7826 	 -81.0993
| 26> C 	 -58.3272 	 -54.2682 	 -80.0608
| 27> C 	 -58.7805 	 -55.5485 	 -80.3282
| 28> H 	 -57.0466 	 -52.8405 	 -81.1779
| 29> C 	 -58.7802 	 -53.4137 	 -78.9059
| 30> H 	 -59.6126 	 -53.9588 	 -78.3147
| 31> H 	 -59.1537 	 -52.4104 	 -79.2247
| 32> C 	 -57.6555 	 -53.1389 	 -77.9323
| 33> H 	 -56.6973 	 -52.9557 	 -78.4549
| 34> H 	 -57.4607 	 -54.1427 	 -77.4585
| 35> C 	 -57.9557 	 -52.0355 	 -76.9756
| 36> H 	 -57.4429 	 -52.2248 	 -75.9723
| 37> H 	 -59.0482 	 -51.8449 	 -76.751
| 38> H 	 -57.4855 	 -51.0941 	 -77.3161
| 39> H 	 -61.6157 	 -58.9899 	 -77.8107
| 40> H 	 -56.7507 	 -54.6105 	 -83.0205
| 41> *
| 42>
| 43>                          ****END OF INPUT****

CARTESIAN COORDINATES (ANGSTROEM)
---------------------------------
  S    -61.043000  -57.308700  -79.699400
  C    -60.910300  -58.243900  -78.189700
  C    -59.671200  -58.016600  -77.656400
  C    -58.933400  -57.010700  -78.343800
  C    -59.482800  -56.511900  -79.468800
  H    -57.911400  -56.596100  -78.044900
  C    -59.165900  -58.695000  -76.430900
  H    -58.110200  -58.533800  -76.215100
  H    -59.171700  -59.763700  -76.657900
  C    -59.929800  -58.338300  -75.100500
  H    -59.786800  -57.296600  -74.891400
  H    -61.033700  -58.483700  -75.295800
  C    -59.585100  -59.145600  -73.843300
  H    -59.697700  -60.206700  -74.118600
  H    -58.626200  -58.875900  -73.438500
  H    -60.304500  -58.983400  -73.099800
  S    -58.234100  -56.203200  -81.908700
  C    -57.374400  -54.682500  -82.109800
  C    -57.520800  -53.782600  -81.099300
  C    -58.327200  -54.268200  -80.060800
  C    -58.780500  -55.548500  -80.328200
  H    -57.046600  -52.840500  -81.177900
  C    -58.780200  -53.413700  -78.905900
  H    -59.612600  -53.958800  -78.314700
  H    -59.153700  -52.410400  -79.224700
  C    -57.655500  -53.138900  -77.932300
  H    -56.697300  -52.955700  -78.454900
  H    -57.460700  -54.142700  -77.458500
  C    -57.955700  -52.035500  -76.975600
  H    -57.442900  -52.224800  -75.972300
  H    -59.048200  -51.844900  -76.751000
  H    -57.485500  -51.094100  -77.316100
  H    -61.615700  -58.989900  -77.810700
  H    -56.750700  -54.610500  -83.020500

 Total Charge           Charge          ....    0
 Multiplicity           Mult            ....    1
 Number of Electrons    NEL             ....  134
 Basis Dimension        Dim             ....  322

ORBITAL ENERGIES
----------------

  NO   OCC          E(Eh)            E(eV)
   0   2.0000     -88.965458     -2420.8732
   1   2.0000     -88.963701     -2420.8254
   2   2.0000     -10.329689      -281.0851
   3   2.0000     -10.325070      -280.9594
   4   2.0000     -10.319556      -280.8094
   5   2.0000     -10.316919      -280.7376
   6   2.0000     -10.303806      -280.3808
   7   2.0000     -10.297882      -280.2196
   8   2.0000     -10.297631      -280.2128
   9   2.0000     -10.291652      -280.0501
  10   2.0000     -10.290658      -280.0230
  11   2.0000     -10.290346      -280.0146
  12   2.0000     -10.289844      -280.0009
  13   2.0000     -10.287034      -279.9244
  14   2.0000     -10.286431      -279.9080
  15   2.0000     -10.275025      -279.5977
  16   2.0000      -8.079947      -219.8665
  17   2.0000      -8.077593      -219.8025
  18   2.0000      -6.038207      -164.3080
  19   2.0000      -6.036265      -164.2551
  20   2.0000      -6.034765      -164.2143
  21   2.0000      -6.032216      -164.1449
  22   2.0000      -6.030691      -164.1034
  23   2.0000      -6.028204      -164.0358
  24   2.0000      -1.005785       -27.3688
  25   2.0000      -0.985429       -26.8149
  26   2.0000      -0.914549       -24.8861
  27   2.0000      -0.907415       -24.6920
  28   2.0000      -0.870038       -23.6749
  29   2.0000      -0.854732       -23.2584
  30   2.0000      -0.845944       -23.0193
  31   2.0000      -0.815050       -22.1786
  32   2.0000      -0.781305       -21.2604
  33   2.0000      -0.770104       -20.9556
  34   2.0000      -0.703349       -19.1391
  35   2.0000      -0.698133       -18.9972
  36   2.0000      -0.687941       -18.7198
  37   2.0000      -0.663365       -18.0511
  38   2.0000      -0.638592       -17.3770
  39   2.0000      -0.613774       -16.7016
  40   2.0000      -0.602453       -16.3936
  41   2.0000      -0.573172       -15.5968
  42   2.0000      -0.564426       -15.3588
  43   2.0000      -0.556122       -15.1329
  44   2.0000      -0.525498       -14.2995
  45   2.0000      -0.521090       -14.1796
  46   2.0000      -0.519990       -14.1496
  47   2.0000      -0.517647       -14.0859
  48   2.0000      -0.505803       -13.7636
  49   2.0000      -0.498920       -13.5763
  50   2.0000      -0.488714       -13.2986
  51   2.0000      -0.476542       -12.9674
  52   2.0000      -0.467198       -12.7131
  53   2.0000      -0.463789       -12.6203
  54   2.0000      -0.459797       -12.5117
  55   2.0000      -0.456317       -12.4170
  56   2.0000      -0.442836       -12.0502
  57   2.0000      -0.437049       -11.8927
  58   2.0000      -0.429915       -11.6986
  59   2.0000      -0.426602       -11.6084
  60   2.0000      -0.418555       -11.3895
  61   2.0000      -0.412756       -11.2317
  62   2.0000      -0.404268       -11.0007
  63   2.0000      -0.342366        -9.3163
  64   2.0000      -0.333023        -9.0620
  65   2.0000      -0.326722        -8.8906
  66   2.0000      -0.300662        -8.1814
  67   0.0000       0.037373         1.0170
  68   0.0000       0.060754         1.6532
  69   0.0000       0.108041         2.9399
  70   0.0000       0.122045         3.3210
  71   0.0000       0.126588         3.4446

MULLIKEN ATOMIC CHARGES
-----------------------
   0 S :    0.096034
   1 C :   -0.132835
   2 C :   -0.065705
   3 C :    0.009482
   4 C :   -0.154430
   5 H :    0.036619
   6 C :    0.064540
   7 H :    0.013826
   8 H :    0.028483
   9 C :   -0.107883
  10 H :    0.027413
  11 H :    0.027333
  12 C :   -0.010009
  13 H :    0.029175
  14 H :    0.033371
  15 H :    0.022315
  16 S :    0.101097
  17 C :   -0.104548
  18 C :   -0.013082
  19 C :    0.014815
  20 C :   -0.185600
  21 H :    0.007032
  22 C :    0.028615
  23 H :    0.056880
  24 H :    0.037103
  25 C :   -0.100732
  26 H :    0.030707
  27 H :    0.022608
  28 C :   -0.064654
  29 H :    0.040546
  30 H :    0.047910
  31 H :    0.038214
  32 H :    0.059483
  33 H :    0.065879
Sum of atomic charges:   -0.0000000

LOEWDIN ATOMIC CHARGES
----------------------
   0 S :    0.380818
   1 C :   -0.184756
   2 C :   -0.069998
   3 C :   -0.071137
   4 C :   -0.200833
   5 H :    0.041081
   6 C :   -0.038180
   7 H :    0.027676
   8 H :    0.032147
   9 C :   -0.037826
  10 H :    0.020099
  11 H :    0.024440
  12 C :   -0.060245
  13 H :    0.029050
  14 H :    0.022626
  15 H :    0.021527
  16 S :    0.381646
  17 C :   -0.170030
  18 C :   -0.068661
  19 C :   -0.052219
  20 C :   -0.175402
  21 H :    0.030206
  22 C :   -0.034441
  23 H :    0.044017
  24 H :    0.032603
  25 C :   -0.057747
  26 H :    0.024710
  27 H :    0.024512
  28 C :   -0.079479
  29 H :    0.036182
  30 H :    0.032592
  31 H :    0.029375
  32 H :    0.036137
  33 H :    0.029507

  Mayer bond orders larger than 0.100000
B(  0-S ,  1-C ) :   1.1252 B(  0-S ,  4-C ) :   1.1280 B(  1-C ,  2-C ) :   1.6148
B(  1-C , 32-H ) :   0.9685 B(  2-C ,  3-C ) :   1.2370 B(  2-C ,  6-C ) :   1.0283
B(  3-C ,  4-C ) :   1.6040 B(  3-C ,  5-H ) :   0.9799 B(  4-C , 20-C ) :   1.0198
B(  6-C ,  7-H ) :   0.9434 B(  6-C ,  8-H ) :   0.9352 B(  6-C ,  9-C ) :   1.0523
B(  9-C , 10-H ) :   0.9579 B(  9-C , 11-H ) :   0.9605 B(  9-C , 12-C ) :   1.0850
B( 12-C , 13-H ) :   0.9739 B( 12-C , 14-H ) :   0.9757 B( 12-C , 15-H ) :   0.9718
B( 16-S , 17-C ) :   1.1519 B( 16-S , 20-C ) :   1.1370 B( 17-C , 18-C ) :   1.6244
B( 17-C , 33-H ) :   0.9637 B( 18-C , 19-C ) :   1.2038 B( 18-C , 21-H ) :   1.0011
B( 19-C , 20-C ) :   1.6293 B( 19-C , 22-C ) :   1.0388 B( 22-C , 23-H ) :   0.9309
B( 22-C , 24-H ) :   0.9464 B( 22-C , 25-C ) :   1.0481 B( 25-C , 26-H ) :   0.9627
B( 25-C , 27-H ) :   0.9498 B( 25-C , 28-C ) :   1.0700 B( 28-C , 29-H ) :   0.9722
B( 28-C , 30-H ) :   0.9727 B( 28-C , 31-H ) :   0.9734

Dispersion correction           -0.013963089
FINAL SINGLE POINT ENERGY     -1339.879555541332

DIPOLE MOMENT
-------------
                                X             Y             Z
Electronic contribution:     -5.22963      -5.79220     -29.84207
Nuclear contribution   :      5.62334       6.00360      30.40190
                        -----------------------------------------
Total Dipole Moment    :      0.39371       0.21140       0.55983
                        -----------------------------------------
Magnitude (a.u.)       :      0.71631
Magnitude (Debye)      :      1.82073

Rotational constants in cm-1:     0.017375     0.008447     0.006359
Rotational constants in MHz :   520.883266   253.237116   190.638446

                             ****ORCA TERMINATED NORMALLY****
TOTAL RUN TIME: 0 days 0 hours 0 minutes 21 seconds 264 msec
