                         Program Version 4.2.1 -  RELEASE  -
|  1> ! wB97X-D3 SP def2-SVP
|  2> %pal
|  3> nprocs 24
|  4> end
|  5>
|  6> * xyz 0 1
|  7> S 	 -38.2815 	 -9.62634 	 9.19653
|  8> C 	 -38.2531 	 -9.54089 	 7.42919
|  9> C 	 -38.1239 	 -8.18394 	 7.04445
| 10> C 	 -37.8294 	 -7.30436 	 8.15752
| 11> C 	 -37.8283 	 -7.95134 	 9.36276
| 12> H 	 -37.7024 	 -6.20963 	 8.05227
| 13> C 	 -37.9905 	 -7.71546 	 5.65368
| 14> H 	 -37.3674 	 -8.45128 	 5.11196
| 15> H 	 -37.5676 	 -6.75146 	 5.60995
| 16> C 	 -39.3284 	 -7.74464 	 4.90593
| 17> H 	 -39.0973 	 -7.61676 	 3.83418
| 18> H 	 -39.6424 	 -8.84506 	 4.89138
| 19> C 	 -40.486 	 -6.834 	 5.35011
| 20> H 	 -40.7292 	 -7.10727 	 6.33848
| 21> H 	 -40.0956 	 -5.80213 	 5.45286
| 22> H 	 -41.4134 	 -7.01374 	 4.73795
| 23> S 	 -36.1698 	 -8.16969 	 11.4602
| 24> C 	 -36.0785 	 -6.8929 	 12.6382
| 25> C 	 -37.027 	 -5.92437 	 12.4814
| 26> C 	 -37.8038 	 -6.1981 	 11.308
| 27> C 	 -37.4504 	 -7.40936 	 10.6491
| 28> H 	 -37.0394 	 -5.1135 	 13.3049
| 29> C 	 -38.9021 	 -5.27007 	 10.8321
| 30> H 	 -39.5445 	 -5.12774 	 11.7109
| 31> H 	 -39.5597 	 -5.63445 	 10.06
| 32> C 	 -38.5452 	 -3.82918 	 10.4705
| 33> H 	 -37.726 	 -3.74799 	 9.77833
| 34> H 	 -38.1579 	 -3.32019 	 11.3668
| 35> C 	 -39.8122 	 -2.96255 	 10.0827
| 36> H 	 -39.4561 	 -2.05026 	 9.74711
| 37> H 	 -40.3822 	 -2.73337 	 10.941
| 38> H 	 -40.5096 	 -3.40261 	 9.38114
| 39> H 	 -38.2403 	 -10.3757 	 6.76459
| 40> H 	 -35.4553 	 -6.89914 	 13.4768
| 41> *
| 42>
| 43>                          ****END OF INPUT****

CARTESIAN COORDINATES (ANGSTROEM)
---------------------------------
  S    -38.281500   -9.626340    9.196530
  C    -38.253100   -9.540890    7.429190
  C    -38.123900   -8.183940    7.044450
  C    -37.829400   -7.304360    8.157520
  C    -37.828300   -7.951340    9.362760
  H    -37.702400   -6.209630    8.052270
  C    -37.990500   -7.715460    5.653680
  H    -37.367400   -8.451280    5.111960
  H    -37.567600   -6.751460    5.609950
  C    -39.328400   -7.744640    4.905930
  H    -39.097300   -7.616760    3.834180
  H    -39.642400   -8.845060    4.891380
  C    -40.486000   -6.834000    5.350110
  H    -40.729200   -7.107270    6.338480
  H    -40.095600   -5.802130    5.452860
  H    -41.413400   -7.013740    4.737950
  S    -36.169800   -8.169690   11.460200
  C    -36.078500   -6.892900   12.638200
  C    -37.027000   -5.924370   12.481400
  C    -37.803800   -6.198100   11.308000
  C    -37.450400   -7.409360   10.649100
  H    -37.039400   -5.113500   13.304900
  C    -38.902100   -5.270070   10.832100
  H    -39.544500   -5.127740   11.710900
  H    -39.559700   -5.634450   10.060000
  C    -38.545200   -3.829180   10.470500
  H    -37.726000   -3.747990    9.778330
  H    -38.157900   -3.320190   11.366800
  C    -39.812200   -2.962550   10.082700
  H    -39.456100   -2.050260    9.747110
  H    -40.382200   -2.733370   10.941000
  H    -40.509600   -3.402610    9.381140
  H    -38.240300  -10.375700    6.764590
  H    -35.455300   -6.899140   13.476800

 Total Charge           Charge          ....    0
 Multiplicity           Mult            ....    1
 Number of Electrons    NEL             ....  134
 Basis Dimension        Dim             ....  322

ORBITAL ENERGIES
----------------

  NO   OCC          E(Eh)            E(eV)
   0   2.0000     -88.965763     -2420.8815
   1   2.0000     -88.965719     -2420.8803
   2   2.0000     -10.327661      -281.0300
   3   2.0000     -10.323623      -280.9201
   4   2.0000     -10.316231      -280.7189
   5   2.0000     -10.310621      -280.5663
   6   2.0000     -10.310233      -280.5557
   7   2.0000     -10.302406      -280.3427
   8   2.0000     -10.302084      -280.3339
   9   2.0000     -10.295677      -280.1596
  10   2.0000     -10.289079      -279.9801
  11   2.0000     -10.287588      -279.9395
  12   2.0000     -10.286844      -279.9193
  13   2.0000     -10.286696      -279.9152
  14   2.0000     -10.279418      -279.7172
  15   2.0000     -10.272372      -279.5255
  16   2.0000      -8.081654      -219.9130
  17   2.0000      -8.080209      -219.8737
  18   2.0000      -6.039979      -164.3562
  19   2.0000      -6.038774      -164.3234
  20   2.0000      -6.035857      -164.2440
  21   2.0000      -6.034746      -164.2138
  22   2.0000      -6.032668      -164.1572
  23   2.0000      -6.030937      -164.1101
  24   2.0000      -1.010962       -27.5097
  25   2.0000      -0.984301       -26.7842
  26   2.0000      -0.915031       -24.8993
  27   2.0000      -0.907073       -24.6827
  28   2.0000      -0.870603       -23.6903
  29   2.0000      -0.850157       -23.1340
  30   2.0000      -0.843427       -22.9508
  31   2.0000      -0.818176       -22.2637
  32   2.0000      -0.785216       -21.3668
  33   2.0000      -0.772616       -21.0240
  34   2.0000      -0.707960       -19.2646
  35   2.0000      -0.701625       -19.0922
  36   2.0000      -0.695536       -18.9265
  37   2.0000      -0.656469       -17.8634
  38   2.0000      -0.637122       -17.3370
  39   2.0000      -0.616746       -16.7825
  40   2.0000      -0.598482       -16.2855
  41   2.0000      -0.574365       -15.6293
  42   2.0000      -0.561188       -15.2707
  43   2.0000      -0.549379       -14.9494
  44   2.0000      -0.541351       -14.7309
  45   2.0000      -0.525636       -14.3033
  46   2.0000      -0.515185       -14.0189
  47   2.0000      -0.513238       -13.9659
  48   2.0000      -0.510339       -13.8870
  49   2.0000      -0.498612       -13.5679
  50   2.0000      -0.490289       -13.3414
  51   2.0000      -0.477008       -12.9801
  52   2.0000      -0.474051       -12.8996
  53   2.0000      -0.469099       -12.7648
  54   2.0000      -0.460873       -12.5410
  55   2.0000      -0.450317       -12.2538
  56   2.0000      -0.443396       -12.0654
  57   2.0000      -0.438874       -11.9424
  58   2.0000      -0.432912       -11.7801
  59   2.0000      -0.424071       -11.5396
  60   2.0000      -0.421678       -11.4744
  61   2.0000      -0.414804       -11.2874
  62   2.0000      -0.407930       -11.1003
  63   2.0000      -0.349118        -9.5000
  64   2.0000      -0.328745        -8.9456
  65   2.0000      -0.323875        -8.8131
  66   2.0000      -0.292515        -7.9597
  67   0.0000       0.028724         0.7816
  68   0.0000       0.071455         1.9444
  69   0.0000       0.114439         3.1140
  70   0.0000       0.120063         3.2671
  71   0.0000       0.122690         3.3386

MULLIKEN ATOMIC CHARGES
-----------------------
   0 S :    0.111475
   1 C :   -0.118960
   2 C :   -0.101121
   3 C :    0.026638
   4 C :   -0.153292
   5 H :    0.026263
   6 C :    0.087427
   7 H :    0.036261
   8 H :    0.010358
   9 C :   -0.127054
  10 H :    0.023671
  11 H :    0.020843
  12 C :   -0.019827
  13 H :    0.022740
  14 H :    0.031195
  15 H :    0.053688
  16 S :    0.125555
  17 C :   -0.076266
  18 C :   -0.068991
  19 C :   -0.002094
  20 C :   -0.145477
  21 H :    0.058177
  22 C :    0.053431
  23 H :    0.022245
  24 H :    0.021897
  25 C :   -0.096084
  26 H :    0.024880
  27 H :    0.020093
  28 C :   -0.011079
  29 H :    0.017414
  30 H :    0.018412
  31 H :    0.031326
  32 H :    0.045744
  33 H :    0.030512
Sum of atomic charges:    0.0000000

LOEWDIN ATOMIC CHARGES
----------------------
   0 S :    0.401292
   1 C :   -0.194407
   2 C :   -0.057482
   3 C :   -0.066932
   4 C :   -0.196376
   5 H :    0.038083
   6 C :   -0.032363
   7 H :    0.042362
   8 H :    0.021020
   9 C :   -0.048502
  10 H :    0.018991
  11 H :    0.024301
  12 C :   -0.068568
  13 H :    0.019160
  14 H :    0.028515
  15 H :    0.039234
  16 S :    0.441250
  17 C :   -0.180746
  18 C :   -0.081052
  19 C :   -0.049531
  20 C :   -0.225925
  21 H :    0.054383
  22 C :   -0.040768
  23 H :    0.036243
  24 H :    0.025543
  25 C :   -0.036051
  26 H :    0.014735
  27 H :    0.023340
  28 C :   -0.053789
  29 H :    0.019105
  30 H :    0.021437
  31 H :    0.023700
  32 H :    0.023658
  33 H :    0.016142

  Mayer bond orders larger than 0.100000
B(  0-S ,  1-C ) :   1.1292 B(  0-S ,  4-C ) :   1.1596 B(  1-C ,  2-C ) :   1.5831
B(  1-C , 32-H ) :   0.9739 B(  2-C ,  3-C ) :   1.2343 B(  2-C ,  6-C ) :   1.0408
B(  3-C ,  4-C ) :   1.5739 B(  3-C ,  5-H ) :   0.9906 B(  4-C , 20-C ) :   1.0242
B(  6-C ,  7-H ) :   0.9360 B(  6-C ,  8-H ) :   0.9432 B(  6-C ,  9-C ) :   1.0709
B(  9-C , 10-H ) :   0.9567 B(  9-C , 11-H ) :   0.9554 B(  9-C , 12-C ) :   1.0665
B( 12-C , 13-H ) :   0.9722 B( 12-C , 14-H ) :   0.9729 B( 12-C , 15-H ) :   0.9716
B( 16-S , 17-C ) :   1.1709 B( 16-S , 20-C ) :   1.1613 B( 17-C , 18-C ) :   1.6187
B( 17-C , 33-H ) :   0.9689 B( 18-C , 19-C ) :   1.2348 B( 18-C , 21-H ) :   0.9773
B( 19-C , 20-C ) :   1.5621 B( 19-C , 22-C ) :   1.0483 B( 22-C , 23-H ) :   0.9296
B( 22-C , 24-H ) :   0.9455 B( 22-C , 25-C ) :   1.0571 B( 25-C , 26-H ) :   0.9632
B( 25-C , 27-H ) :   0.9511 B( 25-C , 28-C ) :   1.0740 B( 28-C , 29-H ) :   0.9733
B( 28-C , 30-H ) :   0.9748 B( 28-C , 31-H ) :   0.9788

Dispersion correction           -0.014197398
FINAL SINGLE POINT ENERGY     -1339.870389460287

DIPOLE MOMENT
-------------
                                X             Y             Z
Electronic contribution:     14.19665     -21.52810      15.91317
Nuclear contribution   :    -14.24360      22.09979     -16.05344
                        -----------------------------------------
Total Dipole Moment    :     -0.04695       0.57169      -0.14027
                        -----------------------------------------
Magnitude (a.u.)       :      0.59051
Magnitude (Debye)      :      1.50097

Rotational constants in cm-1:     0.016995     0.009634     0.006637
Rotational constants in MHz :   509.482858   288.819552   198.976793

                             ****ORCA TERMINATED NORMALLY****
TOTAL RUN TIME: 0 days 0 hours 0 minutes 21 seconds 553 msec
