                         Program Version 4.2.1 -  RELEASE  -
|  1> ! wB97X-D3 SP def2-SVP
|  2> %pal
|  3> nprocs 24
|  4> end
|  5>
|  6> * xyz 0 1
|  7> S 	 -143.749 	 7.7183 	 -4.01017
|  8> C 	 -143.85 	 9.05801 	 -2.89311
|  9> C 	 -143.426 	 8.60992 	 -1.65865
| 10> C 	 -143.099 	 7.20751 	 -1.59624
| 11> C 	 -143.189 	 6.53148 	 -2.81254
| 12> H 	 -142.746 	 6.55691 	 -0.777776
| 13> C 	 -143.332 	 9.48678 	 -0.418495
| 14> H 	 -143.151 	 10.4518 	 -0.812945
| 15> H 	 -142.486 	 9.16365 	 0.196088
| 16> C 	 -144.634 	 9.51295 	 0.39455
| 17> H 	 -145.467 	 9.91691 	 -0.249693
| 18> H 	 -144.978 	 8.4602 	 0.493035
| 19> C 	 -144.676 	 10.292 	 1.74747
| 20> H 	 -144.243 	 9.74016 	 2.62824
| 21> H 	 -144.219 	 11.2917 	 1.64968
| 22> H 	 -145.713 	 10.5024 	 1.9717
| 23> S 	 -144.126 	 4.19125 	 -4.02116
| 24> C 	 -143.038 	 2.81436 	 -4.07101
| 25> C 	 -141.808 	 3.08488 	 -3.58833
| 26> C 	 -141.694 	 4.39334 	 -3.05519
| 27> C 	 -142.931 	 5.1109 	 -3.10858
| 28> H 	 -140.983 	 2.39968 	 -3.56485
| 29> C 	 -140.473 	 5.01793 	 -2.41205
| 30> H 	 -139.921 	 4.34243 	 -1.666
| 31> H 	 -140.66 	 5.92096 	 -1.87414
| 32> C 	 -139.331 	 5.3855 	 -3.30692
| 33> H 	 -138.987 	 4.47999 	 -3.87425
| 34> H 	 -138.525 	 5.73516 	 -2.72236
| 35> C 	 -139.622 	 6.45335 	 -4.34496
| 36> H 	 -140.413 	 6.31666 	 -5.07351
| 37> H 	 -138.718 	 6.62419 	 -4.89501
| 38> H 	 -139.864 	 7.50399 	 -4.06623
| 39> H 	 -144.166 	 10.1008 	 -3.11688
| 40> H 	 -143.378 	 1.76658 	 -4.29642
| 41> *
| 42>
| 43>                          ****END OF INPUT****

CARTESIAN COORDINATES (ANGSTROEM)
---------------------------------
  S    -143.749000    7.718300   -4.010170
  C    -143.850000    9.058010   -2.893110
  C    -143.426000    8.609920   -1.658650
  C    -143.099000    7.207510   -1.596240
  C    -143.189000    6.531480   -2.812540
  H    -142.746000    6.556910   -0.777776
  C    -143.332000    9.486780   -0.418495
  H    -143.151000   10.451800   -0.812945
  H    -142.486000    9.163650    0.196088
  C    -144.634000    9.512950    0.394550
  H    -145.467000    9.916910   -0.249693
  H    -144.978000    8.460200    0.493035
  C    -144.676000   10.292000    1.747470
  H    -144.243000    9.740160    2.628240
  H    -144.219000   11.291700    1.649680
  H    -145.713000   10.502400    1.971700
  S    -144.126000    4.191250   -4.021160
  C    -143.038000    2.814360   -4.071010
  C    -141.808000    3.084880   -3.588330
  C    -141.694000    4.393340   -3.055190
  C    -142.931000    5.110900   -3.108580
  H    -140.983000    2.399680   -3.564850
  C    -140.473000    5.017930   -2.412050
  H    -139.921000    4.342430   -1.666000
  H    -140.660000    5.920960   -1.874140
  C    -139.331000    5.385500   -3.306920
  H    -138.987000    4.479990   -3.874250
  H    -138.525000    5.735160   -2.722360
  C    -139.622000    6.453350   -4.344960
  H    -140.413000    6.316660   -5.073510
  H    -138.718000    6.624190   -4.895010
  H    -139.864000    7.503990   -4.066230
  H    -144.166000   10.100800   -3.116880
  H    -143.378000    1.766580   -4.296420

 Total Charge           Charge          ....    0
 Multiplicity           Mult            ....    1
 Number of Electrons    NEL             ....  134
 Basis Dimension        Dim             ....  322

ORBITAL ENERGIES
----------------

  NO   OCC          E(Eh)            E(eV)
   0   2.0000     -88.970402     -2421.0077
   1   2.0000     -88.963938     -2420.8318
   2   2.0000     -10.334737      -281.2225
   3   2.0000     -10.334035      -281.2034
   4   2.0000     -10.323512      -280.9171
   5   2.0000     -10.319491      -280.8076
   6   2.0000     -10.311643      -280.5941
   7   2.0000     -10.303271      -280.3663
   8   2.0000     -10.296961      -280.1946
   9   2.0000     -10.295544      -280.1560
  10   2.0000     -10.291421      -280.0438
  11   2.0000     -10.290617      -280.0219
  12   2.0000     -10.287798      -279.9452
  13   2.0000     -10.284569      -279.8573
  14   2.0000     -10.282787      -279.8089
  15   2.0000     -10.265318      -279.3335
  16   2.0000      -8.084795      -219.9985
  17   2.0000      -8.078086      -219.8159
  18   2.0000      -6.043277      -164.4459
  19   2.0000      -6.039357      -164.3393
  20   2.0000      -6.036761      -164.2686
  21   2.0000      -6.035591      -164.2368
  22   2.0000      -6.032457      -164.1515
  23   2.0000      -6.028894      -164.0545
  24   2.0000      -1.004309       -27.3286
  25   2.0000      -0.984331       -26.7850
  26   2.0000      -0.913621       -24.8609
  27   2.0000      -0.905783       -24.6476
  28   2.0000      -0.869626       -23.6637
  29   2.0000      -0.849643       -23.1200
  30   2.0000      -0.839679       -22.8488
  31   2.0000      -0.817182       -22.2367
  32   2.0000      -0.784860       -21.3571
  33   2.0000      -0.771049       -20.9813
  34   2.0000      -0.705937       -19.2095
  35   2.0000      -0.694620       -18.9016
  36   2.0000      -0.692069       -18.8322
  37   2.0000      -0.656732       -17.8706
  38   2.0000      -0.642744       -17.4900
  39   2.0000      -0.616277       -16.7698
  40   2.0000      -0.601002       -16.3541
  41   2.0000      -0.567234       -15.4352
  42   2.0000      -0.555231       -15.1086
  43   2.0000      -0.549386       -14.9496
  44   2.0000      -0.544569       -14.8185
  45   2.0000      -0.516213       -14.0469
  46   2.0000      -0.515848       -14.0369
  47   2.0000      -0.508606       -13.8399
  48   2.0000      -0.507501       -13.8098
  49   2.0000      -0.499841       -13.6014
  50   2.0000      -0.494808       -13.4644
  51   2.0000      -0.479139       -13.0380
  52   2.0000      -0.471086       -12.8189
  53   2.0000      -0.465866       -12.6769
  54   2.0000      -0.459512       -12.5040
  55   2.0000      -0.449304       -12.2262
  56   2.0000      -0.441272       -12.0076
  57   2.0000      -0.432375       -11.7655
  58   2.0000      -0.426257       -11.5990
  59   2.0000      -0.420572       -11.4443
  60   2.0000      -0.413434       -11.2501
  61   2.0000      -0.410520       -11.1708
  62   2.0000      -0.409628       -11.1465
  63   2.0000      -0.349624        -9.5138
  64   2.0000      -0.335331        -9.1248
  65   2.0000      -0.326641        -8.8884
  66   2.0000      -0.294009        -8.0004
  67   0.0000       0.027727         0.7545
  68   0.0000       0.062167         1.6917
  69   0.0000       0.113066         3.0767
  70   0.0000       0.120386         3.2759
  71   0.0000       0.128168         3.4876

MULLIKEN ATOMIC CHARGES
-----------------------
   0 S :    0.099805
   1 C :   -0.130328
   2 C :   -0.117529
   3 C :    0.030338
   4 C :   -0.160569
   5 H :    0.028061
   6 C :    0.119883
   7 H :    0.004117
   8 H :    0.027753
   9 C :   -0.113429
  10 H :    0.024428
  11 H :    0.029673
  12 C :   -0.039386
  13 H :    0.047444
  14 H :    0.031670
  15 H :    0.030891
  16 S :    0.113162
  17 C :   -0.101335
  18 C :   -0.006032
  19 C :   -0.012321
  20 C :   -0.176737
  21 H :    0.013507
  22 C :    0.063675
  23 H :    0.034939
  24 H :    0.010543
  25 C :   -0.055144
  26 H :    0.027443
  27 H :    0.022230
  28 C :   -0.064884
  29 H :    0.031496
  30 H :    0.017203
  31 H :    0.022013
  32 H :    0.068053
  33 H :    0.079367
Sum of atomic charges:   -0.0000000

LOEWDIN ATOMIC CHARGES
----------------------
   0 S :    0.393331
   1 C :   -0.206863
   2 C :   -0.065500
   3 C :   -0.073468
   4 C :   -0.187711
   5 H :    0.037665
   6 C :   -0.028883
   7 H :    0.021404
   8 H :    0.031281
   9 C :   -0.051126
  10 H :    0.027861
  11 H :    0.026212
  12 C :   -0.072516
  13 H :    0.031116
  14 H :    0.027145
  15 H :    0.027006
  16 S :    0.405794
  17 C :   -0.183345
  18 C :   -0.068984
  19 C :   -0.041757
  20 C :   -0.200339
  21 H :    0.032444
  22 C :   -0.040225
  23 H :    0.039978
  24 H :    0.026515
  25 C :   -0.037778
  26 H :    0.026590
  27 H :    0.022573
  28 C :   -0.080350
  29 H :    0.024242
  30 H :    0.023108
  31 H :    0.028096
  32 H :    0.043288
  33 H :    0.043194

  Mayer bond orders larger than 0.100000
B(  0-S ,  1-C ) :   1.1341 B(  0-S ,  4-C ) :   1.1448 B(  1-C ,  2-C ) :   1.6045
B(  1-C , 32-H ) :   0.9661 B(  2-C ,  3-C ) :   1.2266 B(  2-C ,  6-C ) :   1.0289
B(  3-C ,  4-C ) :   1.5829 B(  3-C ,  5-H ) :   0.9878 B(  4-C , 20-C ) :   1.0478
B(  6-C ,  7-H ) :   0.9311 B(  6-C ,  8-H ) :   0.9427 B(  6-C ,  9-C ) :   1.0630
B(  9-C , 10-H ) :   0.9553 B(  9-C , 11-H ) :   0.9578 B(  9-C , 12-C ) :   1.0720
B( 12-C , 13-H ) :   0.9761 B( 12-C , 14-H ) :   0.9736 B( 12-C , 15-H ) :   0.9752
B( 16-S , 17-C ) :   1.1580 B( 16-S , 20-C ) :   1.1445 B( 17-C , 18-C ) :   1.5971
B( 17-C , 33-H ) :   0.9560 B( 18-C , 19-C ) :   1.2673 B( 18-C , 21-H ) :   0.9912
B( 19-C , 20-C ) :   1.5482 B( 19-C , 22-C ) :   1.0443 B( 22-C , 23-H ) :   0.9369
B( 22-C , 24-H ) :   0.9290 B( 22-C , 25-C ) :   1.0868 B( 25-C , 26-H ) :   0.9531
B( 25-C , 27-H ) :   0.9514 B( 25-C , 28-C ) :   1.0740 B( 28-C , 29-H ) :   0.9754
B( 28-C , 30-H ) :   0.9720 B( 28-C , 31-H ) :   0.9718

Dispersion correction           -0.014740502
FINAL SINGLE POINT ENERGY     -1339.877246596956

DIPOLE MOMENT
-------------
                                X             Y             Z
Electronic contribution:    -11.52253     -13.20051     -16.07457
Nuclear contribution   :     11.91591      13.22453      16.50220
                        -----------------------------------------
Total Dipole Moment    :      0.39338       0.02402       0.42763
                        -----------------------------------------
Magnitude (a.u.)       :      0.58154
Magnitude (Debye)      :      1.47816

Rotational constants in cm-1:     0.021222     0.007592     0.006930
Rotational constants in MHz :   636.221338   227.605742   207.746121

                             ****ORCA TERMINATED NORMALLY****
TOTAL RUN TIME: 0 days 0 hours 0 minutes 21 seconds 591 msec
