                         Program Version 4.2.1 -  RELEASE  -
|  1> ! wB97X-D3 SP def2-SVP
|  2> %pal
|  3> nprocs 24
|  4> end
|  5>
|  6> * xyz 0 1
|  7> S 	 -53.5651 	 -50.5598 	 -80.2447
|  8> C 	 -54.6874 	 -50.6929 	 -81.6329
|  9> C 	 -55.0155 	 -49.4496 	 -82.0617
| 10> C 	 -54.2745 	 -48.391 	 -81.5089
| 11> C 	 -53.4879 	 -48.8429 	 -80.4239
| 12> H 	 -54.4924 	 -47.3793 	 -81.8022
| 13> C 	 -55.9686 	 -49.2778 	 -83.2821
| 14> H 	 -55.7332 	 -50.0588 	 -83.9802
| 15> H 	 -55.5935 	 -48.4245 	 -83.7848
| 16> C 	 -57.4783 	 -49.2367 	 -82.9455
| 17> H 	 -57.9504 	 -48.9592 	 -83.9213
| 18> H 	 -58.0132 	 -50.1581 	 -82.7925
| 19> C 	 -57.8369 	 -48.184 	 -81.9801
| 20> H 	 -57.3606 	 -47.2235 	 -82.2172
| 21> H 	 -58.9518 	 -48.2184 	 -82.0531
| 22> H 	 -57.6369 	 -48.5228 	 -80.9121
| 23> S 	 -51.62 	 -48.2655 	 -78.5746
| 24> C 	 -51.8905 	 -46.9154 	 -77.4685
| 25> C 	 -52.9873 	 -46.1892 	 -77.7952
| 26> C 	 -53.7671 	 -46.7817 	 -78.8329
| 27> C 	 -53.0963 	 -47.9262 	 -79.3682
| 28> H 	 -53.1979 	 -45.194 	 -77.4518
| 29> C 	 -55.0671 	 -46.2184 	 -79.2753
| 30> H 	 -55.743 	 -46.1988 	 -78.3624
| 31> H 	 -55.6301 	 -46.8485 	 -80.0252
| 32> C 	 -54.9664 	 -44.7935 	 -79.9156
| 33> H 	 -54.6111 	 -44.9015 	 -80.9271
| 34> H 	 -54.1968 	 -44.2172 	 -79.4137
| 35> C 	 -56.2034 	 -43.8876 	 -79.799
| 36> H 	 -56.9689 	 -44.3201 	 -80.4249
| 37> H 	 -56.0326 	 -42.856 	 -80.0634
| 38> H 	 -56.6917 	 -44.0192 	 -78.7902
| 39> H 	 -54.9683 	 -51.6625 	 -82.0466
| 40> H 	 -51.2158 	 -46.4347 	 -76.956
| 41> *
| 42>
| 43>                          ****END OF INPUT****

CARTESIAN COORDINATES (ANGSTROEM)
---------------------------------
  S    -53.565100  -50.559800  -80.244700
  C    -54.687400  -50.692900  -81.632900
  C    -55.015500  -49.449600  -82.061700
  C    -54.274500  -48.391000  -81.508900
  C    -53.487900  -48.842900  -80.423900
  H    -54.492400  -47.379300  -81.802200
  C    -55.968600  -49.277800  -83.282100
  H    -55.733200  -50.058800  -83.980200
  H    -55.593500  -48.424500  -83.784800
  C    -57.478300  -49.236700  -82.945500
  H    -57.950400  -48.959200  -83.921300
  H    -58.013200  -50.158100  -82.792500
  C    -57.836900  -48.184000  -81.980100
  H    -57.360600  -47.223500  -82.217200
  H    -58.951800  -48.218400  -82.053100
  H    -57.636900  -48.522800  -80.912100
  S    -51.620000  -48.265500  -78.574600
  C    -51.890500  -46.915400  -77.468500
  C    -52.987300  -46.189200  -77.795200
  C    -53.767100  -46.781700  -78.832900
  C    -53.096300  -47.926200  -79.368200
  H    -53.197900  -45.194000  -77.451800
  C    -55.067100  -46.218400  -79.275300
  H    -55.743000  -46.198800  -78.362400
  H    -55.630100  -46.848500  -80.025200
  C    -54.966400  -44.793500  -79.915600
  H    -54.611100  -44.901500  -80.927100
  H    -54.196800  -44.217200  -79.413700
  C    -56.203400  -43.887600  -79.799000
  H    -56.968900  -44.320100  -80.424900
  H    -56.032600  -42.856000  -80.063400
  H    -56.691700  -44.019200  -78.790200
  H    -54.968300  -51.662500  -82.046600
  H    -51.215800  -46.434700  -76.956000

 Total Charge           Charge          ....    0
 Multiplicity           Mult            ....    1
 Number of Electrons    NEL             ....  134
 Basis Dimension        Dim             ....  322

ORBITAL ENERGIES
----------------

  NO   OCC          E(Eh)            E(eV)
   0   2.0000     -88.966602     -2420.9043
   1   2.0000     -88.966222     -2420.8940
   2   2.0000     -10.329150      -281.0705
   3   2.0000     -10.326722      -281.0044
   4   2.0000     -10.313620      -280.6479
   5   2.0000     -10.304182      -280.3911
   6   2.0000     -10.302517      -280.3457
   7   2.0000     -10.298959      -280.2489
   8   2.0000     -10.295181      -280.1461
   9   2.0000     -10.293163      -280.0912
  10   2.0000     -10.290703      -280.0243
  11   2.0000     -10.288718      -279.9703
  12   2.0000     -10.288138      -279.9545
  13   2.0000     -10.286880      -279.9202
  14   2.0000     -10.284525      -279.8562
  15   2.0000     -10.282017      -279.7879
  16   2.0000      -8.081742      -219.9154
  17   2.0000      -8.080761      -219.8887
  18   2.0000      -6.040193      -164.3620
  19   2.0000      -6.039248      -164.3363
  20   2.0000      -6.036204      -164.2535
  21   2.0000      -6.035250      -164.2275
  22   2.0000      -6.032546      -164.1539
  23   2.0000      -6.031596      -164.1281
  24   2.0000      -1.008670       -27.4473
  25   2.0000      -0.984796       -26.7976
  26   2.0000      -0.915107       -24.9013
  27   2.0000      -0.907725       -24.7005
  28   2.0000      -0.875390       -23.8206
  29   2.0000      -0.853142       -23.2152
  30   2.0000      -0.848975       -23.1018
  31   2.0000      -0.816739       -22.2246
  32   2.0000      -0.784679       -21.3522
  33   2.0000      -0.769666       -20.9437
  34   2.0000      -0.709022       -19.2935
  35   2.0000      -0.700596       -19.0642
  36   2.0000      -0.697385       -18.9768
  37   2.0000      -0.664303       -18.0766
  38   2.0000      -0.637731       -17.3535
  39   2.0000      -0.619005       -16.8440
  40   2.0000      -0.600206       -16.3324
  41   2.0000      -0.571230       -15.5440
  42   2.0000      -0.560194       -15.2437
  43   2.0000      -0.558417       -15.1953
  44   2.0000      -0.540795       -14.7158
  45   2.0000      -0.532312       -14.4850
  46   2.0000      -0.517928       -14.0935
  47   2.0000      -0.513761       -13.9801
  48   2.0000      -0.507800       -13.8179
  49   2.0000      -0.498061       -13.5529
  50   2.0000      -0.492445       -13.4001
  51   2.0000      -0.477629       -12.9969
  52   2.0000      -0.475999       -12.9526
  53   2.0000      -0.466309       -12.6889
  54   2.0000      -0.456586       -12.4243
  55   2.0000      -0.450666       -12.2632
  56   2.0000      -0.443013       -12.0550
  57   2.0000      -0.439265       -11.9530
  58   2.0000      -0.435961       -11.8631
  59   2.0000      -0.432540       -11.7700
  60   2.0000      -0.422117       -11.4864
  61   2.0000      -0.413330       -11.2473
  62   2.0000      -0.394392       -10.7319
  63   2.0000      -0.350058        -9.5256
  64   2.0000      -0.334169        -9.0932
  65   2.0000      -0.328961        -8.9515
  66   2.0000      -0.286225        -7.7886
  67   0.0000       0.021871         0.5951
  68   0.0000       0.073909         2.0112
  69   0.0000       0.103592         2.8189
  70   0.0000       0.118990         3.2379
  71   0.0000       0.123264         3.3542

MULLIKEN ATOMIC CHARGES
-----------------------
   0 S :    0.104380
   1 C :   -0.134593
   2 C :   -0.108819
   3 C :    0.028170
   4 C :   -0.092998
   5 H :    0.002011
   6 C :    0.076721
   7 H :    0.019408
   8 H :    0.008187
   9 C :   -0.059070
  10 H :    0.020140
  11 H :    0.024877
  12 C :   -0.070581
  13 H :    0.041597
  14 H :    0.036976
  15 H :    0.059572
  16 S :    0.104827
  17 C :    0.009049
  18 C :   -0.050851
  19 C :   -0.029212
  20 C :   -0.169085
  21 H :    0.019304
  22 C :    0.006900
  23 H :    0.040096
  24 H :    0.039225
  25 C :   -0.074804
  26 H :    0.025129
  27 H :    0.019230
  28 C :   -0.045939
  29 H :    0.019617
  30 H :    0.047434
  31 H :    0.033283
  32 H :    0.054423
  33 H :   -0.004603
Sum of atomic charges:   -0.0000000

LOEWDIN ATOMIC CHARGES
----------------------
   0 S :    0.401251
   1 C :   -0.184968
   2 C :   -0.067479
   3 C :   -0.062854
   4 C :   -0.203235
   5 H :    0.026881
   6 C :   -0.026090
   7 H :    0.028885
   8 H :    0.023018
   9 C :   -0.048562
  10 H :    0.027714
  11 H :    0.024110
  12 C :   -0.072618
  13 H :    0.024658
  14 H :    0.035641
  15 H :    0.033982
  16 S :    0.418957
  17 C :   -0.163169
  18 C :   -0.052358
  19 C :   -0.056048
  20 C :   -0.205946
  21 H :    0.030562
  22 C :   -0.042564
  23 H :    0.037690
  24 H :    0.035451
  25 C :   -0.040336
  26 H :    0.019698
  27 H :    0.018631
  28 C :   -0.067944
  29 H :    0.021000
  30 H :    0.027234
  31 H :    0.032287
  32 H :    0.030410
  33 H :   -0.003889

  Mayer bond orders larger than 0.100000
B(  0-S ,  1-C ) :   1.1232 B(  0-S ,  4-C ) :   1.1789 B(  1-C ,  2-C ) :   1.5917
B(  1-C ,  4-C ) :   0.1002 B(  1-C , 32-H ) :   0.9743 B(  2-C ,  3-C ) :   1.2865
B(  2-C ,  6-C ) :   0.9977 B(  3-C ,  4-C ) :   1.4935 B(  3-C ,  5-H ) :   0.9942
B(  4-C , 20-C ) :   1.0425 B(  6-C ,  7-H ) :   0.9460 B(  6-C ,  8-H ) :   0.9454
B(  6-C ,  9-C ) :   1.0668 B(  9-C , 10-H ) :   0.9513 B(  9-C , 11-H ) :   0.9554
B(  9-C , 12-C ) :   1.0834 B( 12-C , 13-H ) :   0.9724 B( 12-C , 14-H ) :   0.9675
B( 12-C , 15-H ) :   0.9645 B( 16-S , 17-C ) :   1.1395 B( 16-S , 20-C ) :   1.1574
B( 17-C , 18-C ) :   1.6271 B( 17-C , 33-H ) :   0.9698 B( 18-C , 19-C ) :   1.2583
B( 18-C , 21-H ) :   0.9809 B( 19-C , 20-C ) :   1.5526 B( 19-C , 22-C ) :   1.0520
B( 22-C , 23-H ) :   0.9335 B( 22-C , 24-H ) :   0.9313 B( 22-C , 25-C ) :   1.0412
B( 25-C , 26-H ) :   0.9518 B( 25-C , 27-H ) :   0.9642 B( 25-C , 28-C ) :   1.0741
B( 28-C , 29-H ) :   0.9742 B( 28-C , 30-H ) :   0.9748 B( 28-C , 31-H ) :   0.9728

Dispersion correction           -0.015383961
FINAL SINGLE POINT ENERGY     -1339.850783867644

DIPOLE MOMENT
-------------
                                X             Y             Z
Electronic contribution:     25.57733     -17.52621      10.95380
Nuclear contribution   :    -26.20153      17.97965     -11.36240
                        -----------------------------------------
Total Dipole Moment    :     -0.62420       0.45344      -0.40860
                        -----------------------------------------
Magnitude (a.u.)       :      0.87303
Magnitude (Debye)      :      2.21907

Rotational constants in cm-1:     0.016444     0.011114     0.007001
Rotational constants in MHz :   492.992421   333.196971   209.874473

                             ****ORCA TERMINATED NORMALLY****
TOTAL RUN TIME: 0 days 0 hours 0 minutes 23 seconds 718 msec
