                         Program Version 4.2.1 -  RELEASE  -
|  1> ! wB97X-D3 SP def2-SVP
|  2> %pal
|  3> nprocs 24
|  4> end
|  5>
|  6> * xyz 0 1
|  7> S 	 -138.773 	 2.63589 	 5.05721
|  8> C 	 -138.02 	 1.15931 	 4.47377
|  9> C 	 -136.672 	 1.25005 	 4.65315
| 10> C 	 -136.279 	 2.42811 	 5.36086
| 11> C 	 -137.257 	 3.34632 	 5.584
| 12> H 	 -135.283 	 2.73914 	 5.5741
| 13> C 	 -135.559 	 0.2764 	 4.14203
| 14> H 	 -135.509 	 -0.556266 	 4.80788
| 15> H 	 -134.712 	 0.933306 	 4.34631
| 16> C 	 -135.62 	 -0.223788 	 2.68626
| 17> H 	 -136.629 	 -0.573132 	 2.43129
| 18> H 	 -135.463 	 0.618556 	 1.97138
| 19> C 	 -134.57 	 -1.30138 	 2.44947
| 20> H 	 -133.754 	 -0.736899 	 2.14498
| 21> H 	 -134.363 	 -1.93093 	 3.3682
| 22> H 	 -134.874 	 -1.94013 	 1.66335
| 23> S 	 -137.664 	 6.0248 	 5.47126
| 24> C 	 -137.495 	 6.96538 	 6.91219
| 25> C 	 -137.028 	 6.24593 	 7.92841
| 26> C 	 -136.87 	 4.86733 	 7.6266
| 27> C 	 -137.322 	 4.53764 	 6.36591
| 28> H 	 -136.736 	 6.76091 	 8.83957
| 29> C 	 -136.243 	 3.90574 	 8.61101
| 30> H 	 -136.381 	 2.91775 	 8.27691
| 31> H 	 -136.869 	 3.9691 	 9.50992
| 32> C 	 -134.735 	 4.296 	 8.97588
| 33> H 	 -134.308 	 3.43746 	 9.45177
| 34> H 	 -134.613 	 5.1904 	 9.60072
| 35> C 	 -133.824 	 4.37824 	 7.75928
| 36> H 	 -134.278 	 5.10711 	 7.04126
| 37> H 	 -133.642 	 3.43968 	 7.17877
| 38> H 	 -132.804 	 4.48296 	 8.1566
| 39> H 	 -138.506 	 0.257904 	 4.1349
| 40> H 	 -137.492 	 8.05524 	 6.88443
| 41> *
| 42>
| 43>                          ****END OF INPUT****

CARTESIAN COORDINATES (ANGSTROEM)
---------------------------------
  S    -138.773000    2.635890    5.057210
  C    -138.020000    1.159310    4.473770
  C    -136.672000    1.250050    4.653150
  C    -136.279000    2.428110    5.360860
  C    -137.257000    3.346320    5.584000
  H    -135.283000    2.739140    5.574100
  C    -135.559000    0.276400    4.142030
  H    -135.509000   -0.556266    4.807880
  H    -134.712000    0.933306    4.346310
  C    -135.620000   -0.223788    2.686260
  H    -136.629000   -0.573132    2.431290
  H    -135.463000    0.618556    1.971380
  C    -134.570000   -1.301380    2.449470
  H    -133.754000   -0.736899    2.144980
  H    -134.363000   -1.930930    3.368200
  H    -134.874000   -1.940130    1.663350
  S    -137.664000    6.024800    5.471260
  C    -137.495000    6.965380    6.912190
  C    -137.028000    6.245930    7.928410
  C    -136.870000    4.867330    7.626600
  C    -137.322000    4.537640    6.365910
  H    -136.736000    6.760910    8.839570
  C    -136.243000    3.905740    8.611010
  H    -136.381000    2.917750    8.276910
  H    -136.869000    3.969100    9.509920
  C    -134.735000    4.296000    8.975880
  H    -134.308000    3.437460    9.451770
  H    -134.613000    5.190400    9.600720
  C    -133.824000    4.378240    7.759280
  H    -134.278000    5.107110    7.041260
  H    -133.642000    3.439680    7.178770
  H    -132.804000    4.482960    8.156600
  H    -138.506000    0.257904    4.134900
  H    -137.492000    8.055240    6.884430

 Total Charge           Charge          ....    0
 Multiplicity           Mult            ....    1
 Number of Electrons    NEL             ....  134
 Basis Dimension        Dim             ....  322

ORBITAL ENERGIES
----------------

  NO   OCC          E(Eh)            E(eV)
   0   2.0000     -88.959830     -2420.7201
   1   2.0000     -88.958678     -2420.6887
   2   2.0000     -10.323720      -280.9227
   3   2.0000     -10.323105      -280.9060
   4   2.0000     -10.312217      -280.6097
   5   2.0000     -10.311903      -280.6012
   6   2.0000     -10.302642      -280.3491
   7   2.0000     -10.298530      -280.2373
   8   2.0000     -10.292397      -280.0704
   9   2.0000     -10.291494      -280.0458
  10   2.0000     -10.290578      -280.0209
  11   2.0000     -10.289596      -279.9941
  12   2.0000     -10.288709      -279.9700
  13   2.0000     -10.287931      -279.9488
  14   2.0000     -10.282529      -279.8018
  15   2.0000     -10.273630      -279.5597
  16   2.0000      -8.075287      -219.7397
  17   2.0000      -8.073655      -219.6953
  18   2.0000      -6.033779      -164.1875
  19   2.0000      -6.032218      -164.1450
  20   2.0000      -6.029841      -164.0803
  21   2.0000      -6.027989      -164.0299
  22   2.0000      -6.025857      -163.9719
  23   2.0000      -6.024442      -163.9334
  24   2.0000      -1.011828       -27.5332
  25   2.0000      -0.988368       -26.8949
  26   2.0000      -0.910263       -24.7695
  27   2.0000      -0.906324       -24.6623
  28   2.0000      -0.877690       -23.8832
  29   2.0000      -0.850844       -23.1526
  30   2.0000      -0.846111       -23.0238
  31   2.0000      -0.819468       -22.2988
  32   2.0000      -0.783217       -21.3124
  33   2.0000      -0.772760       -21.0279
  34   2.0000      -0.709310       -19.3013
  35   2.0000      -0.702027       -19.1031
  36   2.0000      -0.693961       -18.8837
  37   2.0000      -0.657855       -17.9011
  38   2.0000      -0.644144       -17.5281
  39   2.0000      -0.618051       -16.8180
  40   2.0000      -0.599165       -16.3041
  41   2.0000      -0.569865       -15.5068
  42   2.0000      -0.566765       -15.4225
  43   2.0000      -0.557927       -15.1820
  44   2.0000      -0.542770       -14.7695
  45   2.0000      -0.525669       -14.3042
  46   2.0000      -0.519902       -14.1473
  47   2.0000      -0.513362       -13.9693
  48   2.0000      -0.508588       -13.8394
  49   2.0000      -0.503781       -13.7086
  50   2.0000      -0.491786       -13.3822
  51   2.0000      -0.481673       -13.1070
  52   2.0000      -0.470261       -12.7964
  53   2.0000      -0.467768       -12.7286
  54   2.0000      -0.457738       -12.4557
  55   2.0000      -0.444688       -12.1006
  56   2.0000      -0.443344       -12.0640
  57   2.0000      -0.438665       -11.9367
  58   2.0000      -0.433979       -11.8092
  59   2.0000      -0.423627       -11.5275
  60   2.0000      -0.419143       -11.4055
  61   2.0000      -0.408211       -11.1080
  62   2.0000      -0.404785       -11.0148
  63   2.0000      -0.345886        -9.4120
  64   2.0000      -0.330710        -8.9991
  65   2.0000      -0.325925        -8.8689
  66   2.0000      -0.300010        -8.1637
  67   0.0000       0.037613         1.0235
  68   0.0000       0.064007         1.7417
  69   0.0000       0.115611         3.1459
  70   0.0000       0.124195         3.3795
  71   0.0000       0.130458         3.5499

MULLIKEN ATOMIC CHARGES
-----------------------
   0 S :    0.095726
   1 C :   -0.121312
   2 C :   -0.101140
   3 C :    0.031575
   4 C :   -0.144418
   5 H :   -0.012305
   6 C :    0.085629
   7 H :    0.029279
   8 H :    0.018640
   9 C :   -0.099488
  10 H :    0.023830
  11 H :    0.036739
  12 C :   -0.017507
  13 H :    0.024807
  14 H :    0.040908
  15 H :    0.026974
  16 S :    0.092763
  17 C :   -0.072601
  18 C :   -0.038650
  19 C :   -0.058654
  20 C :   -0.158025
  21 H :    0.018154
  22 C :    0.112599
  23 H :    0.011312
  24 H :    0.032056
  25 C :   -0.073626
  26 H :    0.026373
  27 H :    0.046788
  28 C :   -0.093271
  29 H :    0.061957
  30 H :    0.032420
  31 H :    0.034461
  32 H :    0.047959
  33 H :    0.060046
Sum of atomic charges:    0.0000000

LOEWDIN ATOMIC CHARGES
----------------------
   0 S :    0.400897
   1 C :   -0.192054
   2 C :   -0.068171
   3 C :   -0.066263
   4 C :   -0.194681
   5 H :    0.023462
   6 C :   -0.026310
   7 H :    0.025519
   8 H :    0.030450
   9 C :   -0.041998
  10 H :    0.018304
  11 H :    0.030328
  12 C :   -0.058731
  13 H :    0.020726
  14 H :    0.032863
  15 H :    0.022616
  16 S :    0.399850
  17 C :   -0.179724
  18 C :   -0.079138
  19 C :   -0.051926
  20 C :   -0.203458
  21 H :    0.034658
  22 C :   -0.024133
  23 H :    0.023977
  24 H :    0.035670
  25 C :   -0.037652
  26 H :    0.025465
  27 H :    0.027712
  28 C :   -0.079162
  29 H :    0.031421
  30 H :    0.024575
  31 H :    0.031407
  32 H :    0.031097
  33 H :    0.032407

  Mayer bond orders larger than 0.100000
B(  0-S ,  1-C ) :   1.1375 B(  0-S ,  4-C ) :   1.1486 B(  1-C ,  2-C ) :   1.6206
B(  1-C , 32-H ) :   0.9727 B(  2-C ,  3-C ) :   1.2424 B(  2-C ,  6-C ) :   0.9873
B(  3-C ,  4-C ) :   1.6076 B(  3-C ,  5-H ) :   0.9972 B(  4-C , 20-C ) :   1.0021
B(  6-C ,  7-H ) :   0.9368 B(  6-C ,  8-H ) :   0.9485 B(  6-C ,  9-C ) :   1.0646
B(  9-C , 10-H ) :   0.9611 B(  9-C , 11-H ) :   0.9596 B(  9-C , 12-C ) :   1.0660
B( 12-C , 13-H ) :   0.9800 B( 12-C , 14-H ) :   0.9765 B( 12-C , 15-H ) :   0.9734
B( 16-S , 17-C ) :   1.1532 B( 16-S , 20-C ) :   1.1366 B( 17-C , 18-C ) :   1.6347
B( 17-C , 33-H ) :   0.9621 B( 18-C , 19-C ) :   1.2132 B( 18-C , 21-H ) :   0.9948
B( 19-C , 20-C ) :   1.6095 B( 19-C , 22-C ) :   1.0481 B( 22-C , 23-H ) :   0.9353
B( 22-C , 24-H ) :   0.9347 B( 22-C , 25-C ) :   1.0608 B( 25-C , 26-H ) :   0.9579
B( 25-C , 27-H ) :   0.9587 B( 25-C , 28-C ) :   1.0722 B( 28-C , 29-H ) :   0.9715
B( 28-C , 30-H ) :   0.9695 B( 28-C , 31-H ) :   0.9679

Dispersion correction           -0.014821472
FINAL SINGLE POINT ENERGY     -1339.863518130078

DIPOLE MOMENT
-------------
                                X             Y             Z
Electronic contribution:    -22.05823      15.92850      -1.01867
Nuclear contribution   :     22.76588     -16.21103       1.31497
                        -----------------------------------------
Total Dipole Moment    :      0.70764      -0.28254       0.29630
                        -----------------------------------------
Magnitude (a.u.)       :      0.81754
Magnitude (Debye)      :      2.07802

Rotational constants in cm-1:     0.021693     0.007832     0.006502
Rotational constants in MHz :   650.352209   234.800541   194.930915

                             ****ORCA TERMINATED NORMALLY****
TOTAL RUN TIME: 0 days 0 hours 0 minutes 21 seconds 875 msec
