                         Program Version 4.2.1 -  RELEASE  -
|  1> ! wB97X-D3 SP def2-SVP
|  2> %pal
|  3> nprocs 24
|  4> end
|  5>
|  6> * xyz 0 1
|  7> S 	 -103.297 	 41.1778 	 -91.41
|  8> C 	 -101.826 	 40.6347 	 -90.6322
|  9> C 	 -100.676 	 40.668 	 -91.362
| 10> C 	 -100.983 	 41.2843 	 -92.6186
| 11> C 	 -102.301 	 41.7006 	 -92.7548
| 12> H 	 -100.29 	 41.5884 	 -93.3834
| 13> C 	 -99.2323 	 40.278 	 -90.9352
| 14> H 	 -99.0769 	 39.2109 	 -91.1136
| 15> H 	 -99.0646 	 40.4268 	 -89.8364
| 16> C 	 -98.1498 	 41.0713 	 -91.6548
| 17> H 	 -98.1816 	 40.8296 	 -92.7549
| 18> H 	 -98.3364 	 42.1318 	 -91.5371
| 19> C 	 -96.8469 	 40.5564 	 -91.1474
| 20> H 	 -96.063 	 41.1983 	 -91.6409
| 21> H 	 -96.6878 	 40.4324 	 -90.0981
| 22> H 	 -96.6856 	 39.628 	 -91.6808
| 23> S 	 -103.35 	 44.2207 	 -93.4782
| 24> C 	 -103.664 	 44.6303 	 -95.082
| 25> C 	 -103.545 	 43.4381 	 -95.8308
| 26> C 	 -102.975 	 42.2537 	 -95.2047
| 27> C 	 -102.879 	 42.5053 	 -93.8357
| 28> H 	 -103.808 	 43.5155 	 -96.89
| 29> C 	 -102.764 	 40.9695 	 -95.9802
| 30> H 	 -101.848 	 40.5645 	 -95.4769
| 31> H 	 -102.331 	 41.1661 	 -96.9385
| 32> C 	 -103.974 	 39.9981 	 -96.1716
| 33> H 	 -104.532 	 39.9323 	 -95.2015
| 34> H 	 -103.711 	 38.9005 	 -96.3612
| 35> C 	 -104.954 	 40.4619 	 -97.1865
| 36> H 	 -105.636 	 41.2113 	 -96.8637
| 37> H 	 -105.655 	 39.7435 	 -97.6371
| 38> H 	 -104.357 	 40.8112 	 -98.0207
| 39> H 	 -101.839 	 40.2063 	 -89.6627
| 40> H 	 -104.163 	 45.5758 	 -95.4648
| 41> *
| 42>
| 43>                          ****END OF INPUT****

CARTESIAN COORDINATES (ANGSTROEM)
---------------------------------
  S    -103.297000   41.177800  -91.410000
  C    -101.826000   40.634700  -90.632200
  C    -100.676000   40.668000  -91.362000
  C    -100.983000   41.284300  -92.618600
  C    -102.301000   41.700600  -92.754800
  H    -100.290000   41.588400  -93.383400
  C    -99.232300   40.278000  -90.935200
  H    -99.076900   39.210900  -91.113600
  H    -99.064600   40.426800  -89.836400
  C    -98.149800   41.071300  -91.654800
  H    -98.181600   40.829600  -92.754900
  H    -98.336400   42.131800  -91.537100
  C    -96.846900   40.556400  -91.147400
  H    -96.063000   41.198300  -91.640900
  H    -96.687800   40.432400  -90.098100
  H    -96.685600   39.628000  -91.680800
  S    -103.350000   44.220700  -93.478200
  C    -103.664000   44.630300  -95.082000
  C    -103.545000   43.438100  -95.830800
  C    -102.975000   42.253700  -95.204700
  C    -102.879000   42.505300  -93.835700
  H    -103.808000   43.515500  -96.890000
  C    -102.764000   40.969500  -95.980200
  H    -101.848000   40.564500  -95.476900
  H    -102.331000   41.166100  -96.938500
  C    -103.974000   39.998100  -96.171600
  H    -104.532000   39.932300  -95.201500
  H    -103.711000   38.900500  -96.361200
  C    -104.954000   40.461900  -97.186500
  H    -105.636000   41.211300  -96.863700
  H    -105.655000   39.743500  -97.637100
  H    -104.357000   40.811200  -98.020700
  H    -101.839000   40.206300  -89.662700
  H    -104.163000   45.575800  -95.464800

 Total Charge           Charge          ....    0
 Multiplicity           Mult            ....    1
 Number of Electrons    NEL             ....  134
 Basis Dimension        Dim             ....  322

ORBITAL ENERGIES
----------------

  NO   OCC          E(Eh)            E(eV)
   0   2.0000     -88.966577     -2420.9036
   1   2.0000     -88.962002     -2420.7792
   2   2.0000     -10.330791      -281.1151
   3   2.0000     -10.326476      -280.9977
   4   2.0000     -10.320390      -280.8321
   5   2.0000     -10.309220      -280.5281
   6   2.0000     -10.307519      -280.4818
   7   2.0000     -10.301262      -280.3116
   8   2.0000     -10.299703      -280.2692
   9   2.0000     -10.297076      -280.1977
  10   2.0000     -10.294095      -280.1166
  11   2.0000     -10.293622      -280.1037
  12   2.0000     -10.293486      -280.1000
  13   2.0000     -10.288251      -279.9575
  14   2.0000     -10.278478      -279.6916
  15   2.0000     -10.269877      -279.4576
  16   2.0000      -8.081404      -219.9062
  17   2.0000      -8.076961      -219.7853
  18   2.0000      -6.039773      -164.3506
  19   2.0000      -6.036104      -164.2507
  20   2.0000      -6.035461      -164.2332
  21   2.0000      -6.032116      -164.1422
  22   2.0000      -6.031249      -164.1186
  23   2.0000      -6.027867      -164.0266
  24   2.0000      -1.002085       -27.2681
  25   2.0000      -0.981616       -26.7111
  26   2.0000      -0.919711       -25.0266
  27   2.0000      -0.908717       -24.7274
  28   2.0000      -0.869746       -23.6670
  29   2.0000      -0.853813       -23.2334
  30   2.0000      -0.843060       -22.9408
  31   2.0000      -0.804251       -21.8848
  32   2.0000      -0.784889       -21.3579
  33   2.0000      -0.773735       -21.0544
  34   2.0000      -0.707476       -19.2514
  35   2.0000      -0.697031       -18.9672
  36   2.0000      -0.684568       -18.6281
  37   2.0000      -0.651827       -17.7371
  38   2.0000      -0.642621       -17.4866
  39   2.0000      -0.618718       -16.8362
  40   2.0000      -0.592052       -16.1106
  41   2.0000      -0.579531       -15.7698
  42   2.0000      -0.562486       -15.3060
  43   2.0000      -0.553429       -15.0596
  44   2.0000      -0.542542       -14.7633
  45   2.0000      -0.522104       -14.2072
  46   2.0000      -0.513440       -13.9714
  47   2.0000      -0.505200       -13.7472
  48   2.0000      -0.499707       -13.5977
  49   2.0000      -0.499095       -13.5811
  50   2.0000      -0.485108       -13.2005
  51   2.0000      -0.480590       -13.0775
  52   2.0000      -0.476946       -12.9784
  53   2.0000      -0.468997       -12.7621
  54   2.0000      -0.456514       -12.4224
  55   2.0000      -0.451555       -12.2874
  56   2.0000      -0.438439       -11.9305
  57   2.0000      -0.434407       -11.8208
  58   2.0000      -0.425153       -11.5690
  59   2.0000      -0.420018       -11.4293
  60   2.0000      -0.417635       -11.3644
  61   2.0000      -0.416091       -11.3224
  62   2.0000      -0.410201       -11.1621
  63   2.0000      -0.336669        -9.1612
  64   2.0000      -0.335101        -9.1186
  65   2.0000      -0.323465        -8.8019
  66   2.0000      -0.297205        -8.0874
  67   0.0000       0.036104         0.9824
  68   0.0000       0.062310         1.6956
  69   0.0000       0.114730         3.1220
  70   0.0000       0.118592         3.2270
  71   0.0000       0.132021         3.5925

MULLIKEN ATOMIC CHARGES
-----------------------
   0 S :    0.122071
   1 C :   -0.117490
   2 C :   -0.046087
   3 C :    0.031223
   4 C :   -0.186498
   5 H :    0.009271
   6 C :    0.044203
   7 H :    0.037453
   8 H :    0.035236
   9 C :   -0.122345
  10 H :    0.041555
  11 H :    0.044160
  12 C :   -0.018610
  13 H :    0.032541
  14 H :    0.038736
  15 H :    0.021968
  16 S :    0.109403
  17 C :   -0.115712
  18 C :   -0.067287
  19 C :   -0.031593
  20 C :   -0.173228
  21 H :    0.018394
  22 C :    0.088951
  23 H :    0.024232
  24 H :    0.013660
  25 C :   -0.065112
  26 H :    0.035115
  27 H :    0.046143
  28 C :   -0.043592
  29 H :    0.033781
  30 H :    0.030014
  31 H :    0.014288
  32 H :    0.023864
  33 H :    0.091293
Sum of atomic charges:   -0.0000000

LOEWDIN ATOMIC CHARGES
----------------------
   0 S :    0.404521
   1 C :   -0.184595
   2 C :   -0.064844
   3 C :   -0.056020
   4 C :   -0.198535
   5 H :    0.028003
   6 C :   -0.030332
   7 H :    0.032543
   8 H :    0.035177
   9 C :   -0.047419
  10 H :    0.031107
  11 H :    0.023282
  12 C :   -0.064240
  13 H :    0.034529
  14 H :    0.021208
  15 H :    0.027978
  16 S :    0.410256
  17 C :   -0.226219
  18 C :   -0.081615
  19 C :   -0.053253
  20 C :   -0.188874
  21 H :    0.024696
  22 C :   -0.035061
  23 H :    0.040606
  24 H :    0.026179
  25 C :   -0.045944
  26 H :    0.030411
  27 H :    0.036334
  28 C :   -0.073100
  29 H :    0.023323
  30 H :    0.030923
  31 H :    0.021322
  32 H :    0.016055
  33 H :    0.051597

  Mayer bond orders larger than 0.100000
B(  0-S ,  1-C ) :   1.1410 B(  0-S ,  4-C ) :   1.1441 B(  1-C ,  2-C ) :   1.6571
B(  1-C , 32-H ) :   0.9665 B(  2-C ,  3-C ) :   1.2262 B(  2-C ,  6-C ) :   0.9906
B(  3-C ,  4-C ) :   1.6084 B(  3-C ,  5-H ) :   0.9866 B(  4-C , 20-C ) :   1.0205
B(  6-C ,  7-H ) :   0.9343 B(  6-C ,  8-H ) :   0.9508 B(  6-C ,  9-C ) :   1.0810
B(  9-C , 10-H ) :   0.9409 B(  9-C , 11-H ) :   0.9608 B(  9-C , 12-C ) :   1.0838
B( 12-C , 13-H ) :   0.9671 B( 12-C , 14-H ) :   0.9758 B( 12-C , 15-H ) :   0.9706
B( 16-S , 17-C ) :   1.1706 B( 16-S , 20-C ) :   1.1493 B( 17-C , 18-C ) :   1.5892
B( 17-C , 20-C ) :   0.1029 B( 17-C , 33-H ) :   0.9570 B( 18-C , 19-C ) :   1.2420
B( 18-C , 21-H ) :   0.9809 B( 19-C , 20-C ) :   1.5791 B( 19-C , 22-C ) :   1.0496
B( 22-C , 23-H ) :   0.9231 B( 22-C , 24-H ) :   0.9339 B( 22-C , 25-C ) :   1.0496
B( 25-C , 26-H ) :   0.9575 B( 25-C , 27-H ) :   0.9575 B( 25-C , 28-C ) :   1.0781
B( 28-C , 29-H ) :   0.9726 B( 28-C , 30-H ) :   0.9695 B( 28-C , 31-H ) :   0.9729

Dispersion correction           -0.013908372
FINAL SINGLE POINT ENERGY     -1339.862957578746

DIPOLE MOMENT
-------------
                                X             Y             Z
Electronic contribution:    -14.71121      13.12374       9.78163
Nuclear contribution   :     15.12720     -13.43403     -10.06642
                        -----------------------------------------
Total Dipole Moment    :      0.41599      -0.31029      -0.28479
                        -----------------------------------------
Magnitude (a.u.)       :      0.59197
Magnitude (Debye)      :      1.50467

Rotational constants in cm-1:     0.019476     0.007326     0.006898
Rotational constants in MHz :   583.870484   219.627505   206.800936

                             ****ORCA TERMINATED NORMALLY****
TOTAL RUN TIME: 0 days 0 hours 0 minutes 21 seconds 175 msec
