                         Program Version 4.2.1 -  RELEASE  -
|  1> ! wB97X-D3 SP def2-SVP
|  2> %pal
|  3> nprocs 24
|  4> end
|  5>
|  6> * xyz 0 1
|  7> S 	 -132.354 	 30.5493 	 -15.1221
|  8> C 	 -130.859 	 29.7577 	 -15.4885
|  9> C 	 -130.791 	 29.3479 	 -16.8217
| 10> C 	 -132.038 	 29.5128 	 -17.5351
| 11> C 	 -132.995 	 30.0864 	 -16.7288
| 12> H 	 -132.244 	 29.2677 	 -18.5996
| 13> C 	 -129.568 	 28.7272 	 -17.5269
| 14> H 	 -128.71 	 29.1496 	 -17.0483
| 15> H 	 -129.475 	 29.1322 	 -18.55
| 16> C 	 -129.525 	 27.1854 	 -17.6497
| 17> H 	 -130.387 	 26.8908 	 -18.2991
| 18> H 	 -128.619 	 26.9017 	 -18.0388
| 19> C 	 -129.784 	 26.5552 	 -16.3036
| 20> H 	 -130.846 	 26.6104 	 -15.8853
| 21> H 	 -129.546 	 25.5452 	 -16.3246
| 22> H 	 -129.087 	 26.8693 	 -15.4978
| 23> S 	 -134.877 	 32.1244 	 -16.409
| 24> C 	 -136.446 	 31.9324 	 -17.1497
| 25> C 	 -136.586 	 30.7044 	 -17.704
| 26> C 	 -135.39 	 29.8865 	 -17.7181
| 27> C 	 -134.37 	 30.5081 	 -17.007
| 28> H 	 -137.534 	 30.4122 	 -18.2076
| 29> C 	 -135.469 	 28.4085 	 -18.2509
| 30> H 	 -134.605 	 28.3943 	 -18.8937
| 31> H 	 -136.388 	 28.3025 	 -18.8352
| 32> C 	 -135.498 	 27.2854 	 -17.1853
| 33> H 	 -136.433 	 27.3683 	 -16.6359
| 34> H 	 -134.68 	 27.3671 	 -16.4829
| 35> C 	 -135.506 	 25.8791 	 -17.8815
| 36> H 	 -134.601 	 25.7709 	 -18.6021
| 37> H 	 -136.343 	 25.9138 	 -18.5106
| 38> H 	 -135.54 	 25.0619 	 -17.2103
| 39> H 	 -130.06 	 29.7344 	 -14.7279
| 40> H 	 -137.15 	 32.7328 	 -17.1008
| 41> *
| 42>
| 43>                          ****END OF INPUT****

CARTESIAN COORDINATES (ANGSTROEM)
---------------------------------
  S    -132.354000   30.549300  -15.122100
  C    -130.859000   29.757700  -15.488500
  C    -130.791000   29.347900  -16.821700
  C    -132.038000   29.512800  -17.535100
  C    -132.995000   30.086400  -16.728800
  H    -132.244000   29.267700  -18.599600
  C    -129.568000   28.727200  -17.526900
  H    -128.710000   29.149600  -17.048300
  H    -129.475000   29.132200  -18.550000
  C    -129.525000   27.185400  -17.649700
  H    -130.387000   26.890800  -18.299100
  H    -128.619000   26.901700  -18.038800
  C    -129.784000   26.555200  -16.303600
  H    -130.846000   26.610400  -15.885300
  H    -129.546000   25.545200  -16.324600
  H    -129.087000   26.869300  -15.497800
  S    -134.877000   32.124400  -16.409000
  C    -136.446000   31.932400  -17.149700
  C    -136.586000   30.704400  -17.704000
  C    -135.390000   29.886500  -17.718100
  C    -134.370000   30.508100  -17.007000
  H    -137.534000   30.412200  -18.207600
  C    -135.469000   28.408500  -18.250900
  H    -134.605000   28.394300  -18.893700
  H    -136.388000   28.302500  -18.835200
  C    -135.498000   27.285400  -17.185300
  H    -136.433000   27.368300  -16.635900
  H    -134.680000   27.367100  -16.482900
  C    -135.506000   25.879100  -17.881500
  H    -134.601000   25.770900  -18.602100
  H    -136.343000   25.913800  -18.510600
  H    -135.540000   25.061900  -17.210300
  H    -130.060000   29.734400  -14.727900
  H    -137.150000   32.732800  -17.100800

 Total Charge           Charge          ....    0
 Multiplicity           Mult            ....    1
 Number of Electrons    NEL             ....  134
 Basis Dimension        Dim             ....  322

ORBITAL ENERGIES
----------------

  NO   OCC          E(Eh)            E(eV)
   0   2.0000     -88.964608     -2420.8501
   1   2.0000     -88.963329     -2420.8153
   2   2.0000     -10.332665      -281.1661
   3   2.0000     -10.330739      -281.1137
   4   2.0000     -10.316831      -280.7352
   5   2.0000     -10.313863      -280.6545
   6   2.0000     -10.307149      -280.4718
   7   2.0000     -10.306311      -280.4490
   8   2.0000     -10.300777      -280.2984
   9   2.0000     -10.298452      -280.2351
  10   2.0000     -10.294928      -280.1392
  11   2.0000     -10.289750      -279.9983
  12   2.0000     -10.287281      -279.9311
  13   2.0000     -10.285087      -279.8714
  14   2.0000     -10.279464      -279.7184
  15   2.0000     -10.272090      -279.5178
  16   2.0000      -8.079346      -219.8502
  17   2.0000      -8.077781      -219.8076
  18   2.0000      -6.037857      -164.2984
  19   2.0000      -6.036387      -164.2584
  20   2.0000      -6.033941      -164.1919
  21   2.0000      -6.032408      -164.1502
  22   2.0000      -6.030027      -164.0854
  23   2.0000      -6.028380      -164.0406
  24   2.0000      -1.001451       -27.2509
  25   2.0000      -0.979057       -26.6415
  26   2.0000      -0.909560       -24.7504
  27   2.0000      -0.902903       -24.5692
  28   2.0000      -0.866127       -23.5685
  29   2.0000      -0.850587       -23.1457
  30   2.0000      -0.842591       -22.9281
  31   2.0000      -0.810972       -22.0677
  32   2.0000      -0.781186       -21.2572
  33   2.0000      -0.770940       -20.9783
  34   2.0000      -0.707815       -19.2606
  35   2.0000      -0.699131       -19.0243
  36   2.0000      -0.689654       -18.7665
  37   2.0000      -0.659928       -17.9575
  38   2.0000      -0.639195       -17.3934
  39   2.0000      -0.617167       -16.7940
  40   2.0000      -0.593177       -16.1412
  41   2.0000      -0.569947       -15.5090
  42   2.0000      -0.566345       -15.4110
  43   2.0000      -0.546401       -14.8683
  44   2.0000      -0.538284       -14.6474
  45   2.0000      -0.524203       -14.2643
  46   2.0000      -0.516065       -14.0428
  47   2.0000      -0.509235       -13.8570
  48   2.0000      -0.497300       -13.5322
  49   2.0000      -0.496170       -13.5015
  50   2.0000      -0.487957       -13.2780
  51   2.0000      -0.485006       -13.1977
  52   2.0000      -0.468305       -12.7432
  53   2.0000      -0.460540       -12.5319
  54   2.0000      -0.455874       -12.4050
  55   2.0000      -0.446790       -12.1578
  56   2.0000      -0.441425       -12.0118
  57   2.0000      -0.439088       -11.9482
  58   2.0000      -0.428285       -11.6542
  59   2.0000      -0.422790       -11.5047
  60   2.0000      -0.421648       -11.4736
  61   2.0000      -0.419989       -11.4285
  62   2.0000      -0.412640       -11.2285
  63   2.0000      -0.355466        -9.6727
  64   2.0000      -0.332386        -9.0447
  65   2.0000      -0.329564        -8.9679
  66   2.0000      -0.285877        -7.7791
  67   0.0000       0.027210         0.7404
  68   0.0000       0.067350         1.8327
  69   0.0000       0.105409         2.8683
  70   0.0000       0.123437         3.3589
  71   0.0000       0.125214         3.4073

MULLIKEN ATOMIC CHARGES
-----------------------
   0 S :    0.093134
   1 C :   -0.125928
   2 C :   -0.099962
   3 C :    0.008830
   4 C :   -0.142759
   5 H :    0.037302
   6 C :    0.052507
   7 H :    0.013196
   8 H :    0.024813
   9 C :   -0.005780
  10 H :    0.033926
  11 H :    0.016678
  12 C :   -0.069905
  13 H :    0.058776
  14 H :    0.008225
  15 H :    0.018249
  16 S :    0.088033
  17 C :   -0.081773
  18 C :   -0.034908
  19 C :   -0.053418
  20 C :   -0.146695
  21 H :    0.029094
  22 C :    0.066695
  23 H :    0.020950
  24 H :    0.018474
  25 C :   -0.055354
  26 H :    0.030548
  27 H :    0.040250
  28 C :   -0.038205
  29 H :    0.034505
  30 H :    0.013162
  31 H :    0.036781
  32 H :    0.059389
  33 H :    0.051170
Sum of atomic charges:    0.0000000

LOEWDIN ATOMIC CHARGES
----------------------
   0 S :    0.391254
   1 C :   -0.203296
   2 C :   -0.059094
   3 C :   -0.067845
   4 C :   -0.172397
   5 H :    0.041599
   6 C :   -0.033199
   7 H :    0.022997
   8 H :    0.031420
   9 C :   -0.028653
  10 H :    0.031921
  11 H :    0.015033
  12 C :   -0.075665
  13 H :    0.038645
  14 H :    0.013847
  15 H :    0.024693
  16 S :    0.378855
  17 C :   -0.177898
  18 C :   -0.077421
  19 C :   -0.056953
  20 C :   -0.185822
  21 H :    0.035787
  22 C :   -0.023611
  23 H :    0.025554
  24 H :    0.029344
  25 C :   -0.031471
  26 H :    0.025738
  27 H :    0.022549
  28 C :   -0.059429
  29 H :    0.032873
  30 H :    0.014545
  31 H :    0.020199
  32 H :    0.031267
  33 H :    0.024632

  Mayer bond orders larger than 0.100000
B(  0-S ,  1-C ) :   1.1356 B(  0-S ,  4-C ) :   1.1411 B(  1-C ,  2-C ) :   1.6165
B(  1-C , 32-H ) :   0.9675 B(  2-C ,  3-C ) :   1.2138 B(  2-C ,  6-C ) :   1.0226
B(  3-C ,  4-C ) :   1.5988 B(  3-C ,  5-H ) :   0.9864 B(  4-C , 20-C ) :   1.0451
B(  6-C ,  7-H ) :   0.9421 B(  6-C ,  8-H ) :   0.9437 B(  6-C ,  9-C ) :   1.0712
B(  9-C , 10-H ) :   0.9524 B(  9-C , 11-H ) :   0.9539 B(  9-C , 12-C ) :   1.0881
B( 12-C , 13-H ) :   0.9692 B( 12-C , 14-H ) :   0.9693 B( 12-C , 15-H ) :   0.9722
B( 16-S , 17-C ) :   1.1373 B( 16-S , 20-C ) :   1.1285 B( 17-C , 18-C ) :   1.6274
B( 17-C , 33-H ) :   0.9733 B( 18-C , 19-C ) :   1.2251 B( 18-C , 21-H ) :   0.9807
B( 19-C , 20-C ) :   1.6221 B( 19-C , 22-C ) :   1.0248 B( 22-C , 23-H ) :   0.9330
B( 22-C , 24-H ) :   0.9397 B( 22-C , 25-C ) :   1.0653 B( 25-C , 26-H ) :   0.9553
B( 25-C , 27-H ) :   0.9607 B( 25-C , 28-C ) :   1.0693 B( 28-C , 29-H ) :   0.9775
B( 28-C , 30-H ) :   0.9761 B( 28-C , 31-H ) :   0.9761

Dispersion correction           -0.014580064
FINAL SINGLE POINT ENERGY     -1339.880090565614

DIPOLE MOMENT
-------------
                                X             Y             Z
Electronic contribution:     -6.44805      27.42685       9.11664
Nuclear contribution   :      6.49326     -27.93427      -9.49422
                        -----------------------------------------
Total Dipole Moment    :      0.04521      -0.50742      -0.37758
                        -----------------------------------------
Magnitude (a.u.)       :      0.63410
Magnitude (Debye)      :      1.61176

Rotational constants in cm-1:     0.018090     0.009543     0.006951
Rotational constants in MHz :   542.310669   286.094927   208.378804

                             ****ORCA TERMINATED NORMALLY****
TOTAL RUN TIME: 0 days 0 hours 0 minutes 22 seconds 26 msec
