                         Program Version 4.2.1 -  RELEASE  -
|  1> ! wB97X-D3 SP def2-SVP
|  2> %pal
|  3> nprocs 24
|  4> end
|  5>
|  6> * xyz 0 1
|  7> S 	 -106.437 	 41.9233 	 -10.6087
|  8> C 	 -105.99 	 43.572 	 -11.2361
|  9> C 	 -106.78 	 43.9679 	 -12.3308
| 10> C 	 -107.605 	 42.8634 	 -12.7079
| 11> C 	 -107.566 	 41.7149 	 -11.878
| 12> H 	 -108.345 	 42.8537 	 -13.4742
| 13> C 	 -106.7 	 45.3388 	 -13.007
| 14> H 	 -106.696 	 46.0556 	 -12.2046
| 15> H 	 -107.619 	 45.5433 	 -13.5651
| 16> C 	 -105.54 	 45.7232 	 -14.0198
| 17> H 	 -105.852 	 46.6464 	 -14.5047
| 18> H 	 -104.629 	 45.8052 	 -13.4027
| 19> C 	 -105.185 	 44.6182 	 -15.0187
| 20> H 	 -104.484 	 44.7696 	 -15.8541
| 21> H 	 -104.631 	 43.936 	 -14.3948
| 22> H 	 -106.099 	 44.048 	 -15.3291
| 23> S 	 -107.259 	 39.0324 	 -12.6104
| 24> C 	 -108.616 	 37.9796 	 -12.5674
| 25> C 	 -109.805 	 38.6206 	 -12.5719
| 26> C 	 -109.612 	 40.0201 	 -12.2796
| 27> C 	 -108.273 	 40.424 	 -12.1364
| 28> H 	 -110.748 	 38.0903 	 -12.6296
| 29> C 	 -110.788 	 40.9579 	 -12.0227
| 30> H 	 -110.819 	 41.7284 	 -12.8108
| 31> H 	 -110.711 	 41.5155 	 -11.0711
| 32> C 	 -112.189 	 40.3949 	 -12.1784
| 33> H 	 -112.318 	 39.6783 	 -11.4238
| 34> H 	 -112.23 	 39.7925 	 -13.1411
| 35> C 	 -113.173 	 41.5205 	 -12.1134
| 36> H 	 -114.169 	 41.3777 	 -12.6249
| 37> H 	 -112.765 	 42.4835 	 -12.5324
| 38> H 	 -113.532 	 41.7183 	 -11.0824
| 39> H 	 -105.402 	 44.3194 	 -10.7006
| 40> H 	 -108.576 	 36.953 	 -12.699
| 41> *
| 42>
| 43>                          ****END OF INPUT****

CARTESIAN COORDINATES (ANGSTROEM)
---------------------------------
  S    -106.437000   41.923300  -10.608700
  C    -105.990000   43.572000  -11.236100
  C    -106.780000   43.967900  -12.330800
  C    -107.605000   42.863400  -12.707900
  C    -107.566000   41.714900  -11.878000
  H    -108.345000   42.853700  -13.474200
  C    -106.700000   45.338800  -13.007000
  H    -106.696000   46.055600  -12.204600
  H    -107.619000   45.543300  -13.565100
  C    -105.540000   45.723200  -14.019800
  H    -105.852000   46.646400  -14.504700
  H    -104.629000   45.805200  -13.402700
  C    -105.185000   44.618200  -15.018700
  H    -104.484000   44.769600  -15.854100
  H    -104.631000   43.936000  -14.394800
  H    -106.099000   44.048000  -15.329100
  S    -107.259000   39.032400  -12.610400
  C    -108.616000   37.979600  -12.567400
  C    -109.805000   38.620600  -12.571900
  C    -109.612000   40.020100  -12.279600
  C    -108.273000   40.424000  -12.136400
  H    -110.748000   38.090300  -12.629600
  C    -110.788000   40.957900  -12.022700
  H    -110.819000   41.728400  -12.810800
  H    -110.711000   41.515500  -11.071100
  C    -112.189000   40.394900  -12.178400
  H    -112.318000   39.678300  -11.423800
  H    -112.230000   39.792500  -13.141100
  C    -113.173000   41.520500  -12.113400
  H    -114.169000   41.377700  -12.624900
  H    -112.765000   42.483500  -12.532400
  H    -113.532000   41.718300  -11.082400
  H    -105.402000   44.319400  -10.700600
  H    -108.576000   36.953000  -12.699000

 Total Charge           Charge          ....    0
 Multiplicity           Mult            ....    1
 Number of Electrons    NEL             ....  134
 Basis Dimension        Dim             ....  322

ORBITAL ENERGIES
----------------

  NO   OCC          E(Eh)            E(eV)
   0   2.0000     -88.972867     -2421.0748
   1   2.0000     -88.961607     -2420.7684
   2   2.0000     -10.334219      -281.2084
   3   2.0000     -10.331162      -281.1252
   4   2.0000     -10.322722      -280.8955
   5   2.0000     -10.311001      -280.5766
   6   2.0000     -10.309161      -280.5265
   7   2.0000     -10.308328      -280.5039
   8   2.0000     -10.300087      -280.2796
   9   2.0000     -10.296448      -280.1806
  10   2.0000     -10.294546      -280.1288
  11   2.0000     -10.292210      -280.0653
  12   2.0000     -10.289866      -280.0015
  13   2.0000     -10.286153      -279.9004
  14   2.0000     -10.284724      -279.8616
  15   2.0000     -10.276123      -279.6275
  16   2.0000      -8.086671      -220.0495
  17   2.0000      -8.076683      -219.7777
  18   2.0000      -6.045117      -164.4960
  19   2.0000      -6.041221      -164.3900
  20   2.0000      -6.037622      -164.2920
  21   2.0000      -6.035177      -164.2255
  22   2.0000      -6.031222      -164.1179
  23   2.0000      -6.027352      -164.0126
  24   2.0000      -1.001911       -27.2634
  25   2.0000      -0.981723       -26.7140
  26   2.0000      -0.915887       -24.9226
  27   2.0000      -0.908154       -24.7121
  28   2.0000      -0.866026       -23.5658
  29   2.0000      -0.848350       -23.0848
  30   2.0000      -0.843617       -22.9560
  31   2.0000      -0.811902       -22.0930
  32   2.0000      -0.785326       -21.3698
  33   2.0000      -0.769032       -20.9264
  34   2.0000      -0.705415       -19.1953
  35   2.0000      -0.698923       -19.0187
  36   2.0000      -0.698450       -19.0058
  37   2.0000      -0.649547       -17.6751
  38   2.0000      -0.637554       -17.3487
  39   2.0000      -0.613751       -16.7010
  40   2.0000      -0.603038       -16.4095
  41   2.0000      -0.578677       -15.7466
  42   2.0000      -0.572495       -15.5784
  43   2.0000      -0.553796       -15.0696
  44   2.0000      -0.541491       -14.7347
  45   2.0000      -0.516780       -14.0623
  46   2.0000      -0.513713       -13.9788
  47   2.0000      -0.506403       -13.7799
  48   2.0000      -0.500050       -13.6070
  49   2.0000      -0.493055       -13.4167
  50   2.0000      -0.482823       -13.1383
  51   2.0000      -0.480671       -13.0797
  52   2.0000      -0.470666       -12.8075
  53   2.0000      -0.464501       -12.6397
  54   2.0000      -0.459984       -12.5168
  55   2.0000      -0.455946       -12.4069
  56   2.0000      -0.443281       -12.0623
  57   2.0000      -0.438271       -11.9260
  58   2.0000      -0.427218       -11.6252
  59   2.0000      -0.422710       -11.5025
  60   2.0000      -0.418188       -11.3795
  61   2.0000      -0.415157       -11.2970
  62   2.0000      -0.413690       -11.2571
  63   2.0000      -0.337872        -9.1940
  64   2.0000      -0.334497        -9.1021
  65   2.0000      -0.324852        -8.8397
  66   2.0000      -0.298499        -8.1226
  67   0.0000       0.027902         0.7593
  68   0.0000       0.060609         1.6493
  69   0.0000       0.105348         2.8667
  70   0.0000       0.115228         3.1355
  71   0.0000       0.130962         3.5637

MULLIKEN ATOMIC CHARGES
-----------------------
   0 S :    0.126260
   1 C :   -0.131432
   2 C :   -0.088350
   3 C :    0.055756
   4 C :   -0.180955
   5 H :   -0.002875
   6 C :    0.050022
   7 H :    0.030468
   8 H :    0.025995
   9 C :   -0.058415
  10 H :    0.040762
  11 H :    0.031024
  12 C :   -0.066824
  13 H :    0.045507
  14 H :    0.025493
  15 H :    0.034340
  16 S :    0.102025
  17 C :   -0.038508
  18 C :   -0.046390
  19 C :   -0.030116
  20 C :   -0.150418
  21 H :    0.025957
  22 C :    0.015234
  23 H :    0.024929
  24 H :    0.049148
  25 C :   -0.069835
  26 H :    0.019716
  27 H :    0.038563
  28 C :   -0.064182
  29 H :    0.036647
  30 H :    0.035486
  31 H :    0.036043
  32 H :    0.053283
  33 H :    0.025644
Sum of atomic charges:   -0.0000000

LOEWDIN ATOMIC CHARGES
----------------------
   0 S :    0.413341
   1 C :   -0.184966
   2 C :   -0.059507
   3 C :   -0.055931
   4 C :   -0.216506
   5 H :    0.022603
   6 C :   -0.030815
   7 H :    0.031954
   8 H :    0.031753
   9 C :   -0.032700
  10 H :    0.023507
  11 H :    0.025251
  12 C :   -0.079437
  13 H :    0.030336
  14 H :    0.026978
  15 H :    0.027572
  16 S :    0.401978
  17 C :   -0.172384
  18 C :   -0.078357
  19 C :   -0.049043
  20 C :   -0.196148
  21 H :    0.035206
  22 C :   -0.037812
  23 H :    0.029871
  24 H :    0.037421
  25 C :   -0.049722
  26 H :    0.015070
  27 H :    0.029438
  28 C :   -0.075180
  29 H :    0.032090
  30 H :    0.029565
  31 H :    0.030770
  32 H :    0.028062
  33 H :    0.015740

  Mayer bond orders larger than 0.100000
B(  0-S ,  1-C ) :   1.1470 B(  0-S ,  4-C ) :   1.1690 B(  1-C ,  2-C ) :   1.5808
B(  1-C ,  4-C ) :   0.1050 B(  1-C , 32-H ) :   0.9633 B(  2-C ,  3-C ) :   1.2600
B(  2-C ,  6-C ) :   1.0174 B(  3-C ,  4-C ) :   1.5559 B(  3-C ,  5-H ) :   0.9929
B(  4-C , 20-C ) :   1.0170 B(  6-C ,  7-H ) :   0.9410 B(  6-C ,  8-H ) :   0.9426
B(  6-C ,  9-C ) :   1.0651 B(  9-C , 10-H ) :   0.9592 B(  9-C , 11-H ) :   0.9636
B(  9-C , 12-C ) :   1.0630 B( 12-C , 13-H ) :   0.9766 B( 12-C , 14-H ) :   0.9695
B( 12-C , 15-H ) :   0.9784 B( 16-S , 17-C ) :   1.1699 B( 16-S , 20-C ) :   1.1272
B( 17-C , 18-C ) :   1.6125 B( 17-C , 33-H ) :   0.9638 B( 18-C , 19-C ) :   1.2403
B( 18-C , 21-H ) :   0.9870 B( 19-C , 20-C ) :   1.6166 B( 19-C , 22-C ) :   1.0253
B( 22-C , 23-H ) :   0.9303 B( 22-C , 24-H ) :   0.9420 B( 22-C , 25-C ) :   1.0828
B( 25-C , 26-H ) :   0.9488 B( 25-C , 27-H ) :   0.9481 B( 25-C , 28-C ) :   1.0747
B( 28-C , 29-H ) :   0.9726 B( 28-C , 30-H ) :   0.9738 B( 28-C , 31-H ) :   0.9714

Dispersion correction           -0.013673187
FINAL SINGLE POINT ENERGY     -1339.859420760585

DIPOLE MOMENT
-------------
                                X             Y             Z
Electronic contribution:     13.45530     -16.37516      10.21175
Nuclear contribution   :    -13.93190      16.72527     -10.37730
                        -----------------------------------------
Total Dipole Moment    :     -0.47660       0.35012      -0.16556
                        -----------------------------------------
Magnitude (a.u.)       :      0.61412
Magnitude (Debye)      :      1.56096

Rotational constants in cm-1:     0.018259     0.007665     0.006473
Rotational constants in MHz :   547.392744   229.796647   194.070635

                             ****ORCA TERMINATED NORMALLY****
TOTAL RUN TIME: 0 days 0 hours 0 minutes 21 seconds 760 msec
