                         Program Version 4.2.1 -  RELEASE  -
|  1> ! wB97X-D3 SP def2-SVP
|  2> %pal
|  3> nprocs 24
|  4> end
|  5>
|  6> * xyz 0 1
|  7> S 	 -49.7033 	 13.8912 	 23.6114
|  8> C 	 -49.5132 	 12.537 	 22.5276
|  9> C 	 -50.6406 	 11.6751 	 22.5487
| 10> C 	 -51.6099 	 12.1338 	 23.5104
| 11> C 	 -51.2556 	 13.2613 	 24.2079
| 12> H 	 -52.5591 	 11.6203 	 23.719
| 13> C 	 -50.8284 	 10.4048 	 21.6943
| 14> H 	 -50.0218 	 10.2288 	 21.0933
| 15> H 	 -51.712 	 10.6107 	 21.0956
| 16> C 	 -51.0246 	 9.06615 	 22.4472
| 17> H 	 -50.0483 	 8.63676 	 22.5973
| 18> H 	 -51.4516 	 9.2172 	 23.4097
| 19> C 	 -51.8655 	 8.16328 	 21.6688
| 20> H 	 -51.4628 	 7.98258 	 20.6776
| 21> H 	 -51.9417 	 7.19611 	 22.1829
| 22> H 	 -52.8878 	 8.39954 	 21.6171
| 23> S 	 -52.2937 	 15.5616 	 25.3175
| 24> C 	 -53.1135 	 15.4598 	 26.845
| 25> C 	 -53.1139 	 14.1791 	 27.3647
| 26> C 	 -52.4742 	 13.2516 	 26.5031
| 27> C 	 -52.0028 	 13.8262 	 25.3255
| 28> H 	 -53.4696 	 14.0642 	 28.4028
| 29> C 	 -52.3533 	 11.8251 	 26.871
| 30> H 	 -52.4134 	 11.2068 	 26.0161
| 31> H 	 -53.2169 	 11.6908 	 27.5737
| 32> C 	 -51.1177 	 11.3618 	 27.6679
| 33> H 	 -51.3021 	 11.6605 	 28.6641
| 34> H 	 -50.2015 	 11.662 	 27.1684
| 35> C 	 -50.9421 	 9.78312 	 27.5682
| 36> H 	 -50.0368 	 9.44085 	 28.101
| 37> H 	 -50.9393 	 9.33093 	 26.63
| 38> H 	 -51.7419 	 9.29005 	 28.1815
| 39> H 	 -48.7441 	 12.4653 	 21.7927
| 40> H 	 -53.4109 	 16.3217 	 27.4626
| 41> *
| 42>
| 43>                          ****END OF INPUT****

CARTESIAN COORDINATES (ANGSTROEM)
---------------------------------
  S    -49.703300   13.891200   23.611400
  C    -49.513200   12.537000   22.527600
  C    -50.640600   11.675100   22.548700
  C    -51.609900   12.133800   23.510400
  C    -51.255600   13.261300   24.207900
  H    -52.559100   11.620300   23.719000
  C    -50.828400   10.404800   21.694300
  H    -50.021800   10.228800   21.093300
  H    -51.712000   10.610700   21.095600
  C    -51.024600    9.066150   22.447200
  H    -50.048300    8.636760   22.597300
  H    -51.451600    9.217200   23.409700
  C    -51.865500    8.163280   21.668800
  H    -51.462800    7.982580   20.677600
  H    -51.941700    7.196110   22.182900
  H    -52.887800    8.399540   21.617100
  S    -52.293700   15.561600   25.317500
  C    -53.113500   15.459800   26.845000
  C    -53.113900   14.179100   27.364700
  C    -52.474200   13.251600   26.503100
  C    -52.002800   13.826200   25.325500
  H    -53.469600   14.064200   28.402800
  C    -52.353300   11.825100   26.871000
  H    -52.413400   11.206800   26.016100
  H    -53.216900   11.690800   27.573700
  C    -51.117700   11.361800   27.667900
  H    -51.302100   11.660500   28.664100
  H    -50.201500   11.662000   27.168400
  C    -50.942100    9.783120   27.568200
  H    -50.036800    9.440850   28.101000
  H    -50.939300    9.330930   26.630000
  H    -51.741900    9.290050   28.181500
  H    -48.744100   12.465300   21.792700
  H    -53.410900   16.321700   27.462600

 Total Charge           Charge          ....    0
 Multiplicity           Mult            ....    1
 Number of Electrons    NEL             ....  134
 Basis Dimension        Dim             ....  322

ORBITAL ENERGIES
----------------

  NO   OCC          E(Eh)            E(eV)
   0   2.0000     -88.968166     -2420.9469
   1   2.0000     -88.965939     -2420.8863
   2   2.0000     -10.330888      -281.1177
   3   2.0000     -10.326014      -280.9851
   4   2.0000     -10.317093      -280.7424
   5   2.0000     -10.316049      -280.7140
   6   2.0000     -10.307543      -280.4825
   7   2.0000     -10.301909      -280.3292
   8   2.0000     -10.295815      -280.1634
   9   2.0000     -10.294493      -280.1274
  10   2.0000     -10.287262      -279.9306
  11   2.0000     -10.285702      -279.8882
  12   2.0000     -10.285076      -279.8711
  13   2.0000     -10.279108      -279.7087
  14   2.0000     -10.277844      -279.6744
  15   2.0000     -10.270525      -279.4752
  16   2.0000      -8.082295      -219.9304
  17   2.0000      -8.080792      -219.8895
  18   2.0000      -6.040852      -164.3799
  19   2.0000      -6.039196      -164.3349
  20   2.0000      -6.036854      -164.2712
  21   2.0000      -6.035290      -164.2286
  22   2.0000      -6.033071      -164.1682
  23   2.0000      -6.031660      -164.1298
  24   2.0000      -1.004873       -27.3440
  25   2.0000      -0.981315       -26.7029
  26   2.0000      -0.919740       -25.0274
  27   2.0000      -0.908882       -24.7319
  28   2.0000      -0.870668       -23.6921
  29   2.0000      -0.852569       -23.1996
  30   2.0000      -0.848021       -23.0758
  31   2.0000      -0.815134       -22.1809
  32   2.0000      -0.782995       -21.3064
  33   2.0000      -0.769954       -20.9515
  34   2.0000      -0.709999       -19.3201
  35   2.0000      -0.701703       -19.0943
  36   2.0000      -0.692765       -18.8511
  37   2.0000      -0.660972       -17.9860
  38   2.0000      -0.642730       -17.4896
  39   2.0000      -0.624979       -17.0066
  40   2.0000      -0.594752       -16.1840
  41   2.0000      -0.575624       -15.6635
  42   2.0000      -0.571322       -15.5465
  43   2.0000      -0.564644       -15.3648
  44   2.0000      -0.534320       -14.5396
  45   2.0000      -0.518896       -14.1199
  46   2.0000      -0.515357       -14.0236
  47   2.0000      -0.510194       -13.8831
  48   2.0000      -0.501264       -13.6401
  49   2.0000      -0.499232       -13.5848
  50   2.0000      -0.497391       -13.5347
  51   2.0000      -0.481978       -13.1153
  52   2.0000      -0.474237       -12.9046
  53   2.0000      -0.467212       -12.7135
  54   2.0000      -0.459349       -12.4995
  55   2.0000      -0.455075       -12.3832
  56   2.0000      -0.443532       -12.0691
  57   2.0000      -0.437149       -11.8954
  58   2.0000      -0.432321       -11.7641
  59   2.0000      -0.428591       -11.6626
  60   2.0000      -0.426693       -11.6109
  61   2.0000      -0.416156       -11.3242
  62   2.0000      -0.407008       -11.0753
  63   2.0000      -0.346689        -9.4339
  64   2.0000      -0.332129        -9.0377
  65   2.0000      -0.327943        -8.9238
  66   2.0000      -0.290447        -7.9035
  67   0.0000       0.027987         0.7616
  68   0.0000       0.069672         1.8959
  69   0.0000       0.112948         3.0735
  70   0.0000       0.118070         3.2129
  71   0.0000       0.129236         3.5167

MULLIKEN ATOMIC CHARGES
-----------------------
   0 S :    0.115163
   1 C :   -0.112816
   2 C :   -0.107020
   3 C :    0.004233
   4 C :   -0.132074
   5 H :    0.029535
   6 C :    0.105165
   7 H :   -0.004687
   8 H :    0.036476
   9 C :   -0.045488
  10 H :    0.025538
  11 H :    0.017531
  12 C :   -0.039349
  13 H :    0.029599
  14 H :    0.021254
  15 H :    0.020372
  16 S :    0.108036
  17 C :   -0.098994
  18 C :   -0.062178
  19 C :   -0.010858
  20 C :   -0.174652
  21 H :    0.031731
  22 C :    0.073345
  23 H :   -0.005375
  24 H :    0.023841
  25 C :   -0.028961
  26 H :    0.024313
  27 H :    0.043463
  28 C :   -0.079637
  29 H :    0.034050
  30 H :    0.031019
  31 H :    0.022357
  32 H :    0.040082
  33 H :    0.064984
Sum of atomic charges:   -0.0000000

LOEWDIN ATOMIC CHARGES
----------------------
   0 S :    0.396829
   1 C :   -0.199902
   2 C :   -0.056621
   3 C :   -0.065813
   4 C :   -0.190185
   5 H :    0.034714
   6 C :   -0.019693
   7 H :    0.016856
   8 H :    0.034692
   9 C :   -0.035004
  10 H :    0.025389
  11 H :    0.017296
  12 C :   -0.062622
  13 H :    0.024870
  14 H :    0.029912
  15 H :    0.019049
  16 S :    0.409263
  17 C :   -0.191625
  18 C :   -0.079800
  19 C :   -0.053652
  20 C :   -0.198656
  21 H :    0.039169
  22 C :   -0.032788
  23 H :    0.019439
  24 H :    0.036979
  25 C :   -0.022222
  26 H :    0.019357
  27 H :    0.029140
  28 C :   -0.069112
  29 H :    0.028633
  30 H :    0.014284
  31 H :    0.024908
  32 H :    0.021881
  33 H :    0.035033

  Mayer bond orders larger than 0.100000
B(  0-S ,  1-C ) :   1.1410 B(  0-S ,  4-C ) :   1.1356 B(  1-C ,  2-C ) :   1.6056
B(  1-C , 32-H ) :   0.9686 B(  2-C ,  3-C ) :   1.2368 B(  2-C ,  6-C ) :   1.0273
B(  3-C ,  4-C ) :   1.5855 B(  3-C ,  5-H ) :   0.9852 B(  4-C , 20-C ) :   1.0511
B(  6-C ,  7-H ) :   0.9365 B(  6-C ,  8-H ) :   0.9463 B(  6-C ,  9-C ) :   1.0470
B(  9-C , 10-H ) :   0.9548 B(  9-C , 11-H ) :   0.9594 B(  9-C , 12-C ) :   1.1015
B( 12-C , 13-H ) :   0.9715 B( 12-C , 14-H ) :   0.9645 B( 12-C , 15-H ) :   0.9716
B( 16-S , 17-C ) :   1.1665 B( 16-S , 20-C ) :   1.1357 B( 17-C , 18-C ) :   1.6143
B( 17-C , 33-H ) :   0.9592 B( 18-C , 19-C ) :   1.2466 B( 18-C , 21-H ) :   0.9845
B( 19-C , 20-C ) :   1.5790 B( 19-C , 22-C ) :   1.0536 B( 22-C , 23-H ) :   0.9286
B( 22-C , 24-H ) :   0.9299 B( 22-C , 25-C ) :   1.0694 B( 25-C , 26-H ) :   0.9574
B( 25-C , 27-H ) :   0.9601 B( 25-C , 28-C ) :   1.0752 B( 28-C , 29-H ) :   0.9761
B( 28-C , 30-H ) :   0.9787 B( 28-C , 31-H ) :   0.9754

Dispersion correction           -0.014194821
FINAL SINGLE POINT ENERGY     -1339.871204151431

DIPOLE MOMENT
-------------
                                X             Y             Z
Electronic contribution:      1.88417      32.12157      -1.66922
Nuclear contribution   :     -1.98852     -32.78016       1.81566
                        -----------------------------------------
Total Dipole Moment    :     -0.10435      -0.65859       0.14643
                        -----------------------------------------
Magnitude (a.u.)       :      0.68270
Magnitude (Debye)      :      1.73529

Rotational constants in cm-1:     0.017621     0.009115     0.007031
Rotational constants in MHz :   528.256856   273.256767   210.770248

                             ****ORCA TERMINATED NORMALLY****
TOTAL RUN TIME: 0 days 0 hours 0 minutes 20 seconds 827 msec
