                         Program Version 4.2.1 -  RELEASE  -
|  1> ! wB97X-D3 SP def2-SVP
|  2> %pal
|  3> nprocs 24
|  4> end
|  5>
|  6> * xyz 0 1
|  7> S 	 -105.806 	 17.7252 	 -108.424
|  8> C 	 -104.079 	 17.5667 	 -108.195
|  9> C 	 -103.368 	 18.4891 	 -108.906
| 10> C 	 -104.258 	 19.2749 	 -109.694
| 11> C 	 -105.597 	 18.9595 	 -109.608
| 12> H 	 -103.917 	 20.06 	 -110.403
| 13> C 	 -101.849 	 18.6435 	 -108.99
| 14> H 	 -101.469 	 18.837 	 -110.007
| 15> H 	 -101.526 	 17.7036 	 -108.692
| 16> C 	 -101.355 	 19.8726 	 -108.18
| 17> H 	 -101.657 	 19.5803 	 -107.179
| 18> H 	 -100.299 	 19.9648 	 -108.363
| 19> C 	 -101.989 	 21.1917 	 -108.392
| 20> H 	 -102.009 	 21.4382 	 -109.412
| 21> H 	 -102.978 	 21.1202 	 -107.985
| 22> H 	 -101.471 	 21.9984 	 -107.863
| 23> S 	 -107.701 	 20.7343 	 -109.392
| 24> C 	 -108.828 	 20.8707 	 -110.701
| 25> C 	 -108.438 	 20.0804 	 -111.766
| 26> C 	 -107.302 	 19.3131 	 -111.532
| 27> C 	 -106.759 	 19.5913 	 -110.318
| 28> H 	 -108.953 	 19.9841 	 -112.703
| 29> C 	 -106.714 	 18.3607 	 -112.565
| 30> H 	 -107.345 	 17.4762 	 -112.578
| 31> H 	 -105.766 	 17.9484 	 -112.18
| 32> C 	 -106.477 	 18.7237 	 -114.003
| 33> H 	 -107.497 	 18.9541 	 -114.352
| 34> H 	 -106.383 	 17.7321 	 -114.393
| 35> C 	 -105.434 	 19.7839 	 -114.25
| 36> H 	 -105.675 	 20.7205 	 -113.72
| 37> H 	 -105.366 	 20.1131 	 -115.27
| 38> H 	 -104.501 	 19.3646 	 -113.937
| 39> H 	 -103.585 	 16.8807 	 -107.497
| 40> H 	 -109.759 	 21.4701 	 -110.746
| 41> *
| 42>
| 43>                          ****END OF INPUT****

CARTESIAN COORDINATES (ANGSTROEM)
---------------------------------
  S    -105.806000   17.725200  -108.424000
  C    -104.079000   17.566700  -108.195000
  C    -103.368000   18.489100  -108.906000
  C    -104.258000   19.274900  -109.694000
  C    -105.597000   18.959500  -109.608000
  H    -103.917000   20.060000  -110.403000
  C    -101.849000   18.643500  -108.990000
  H    -101.469000   18.837000  -110.007000
  H    -101.526000   17.703600  -108.692000
  C    -101.355000   19.872600  -108.180000
  H    -101.657000   19.580300  -107.179000
  H    -100.299000   19.964800  -108.363000
  C    -101.989000   21.191700  -108.392000
  H    -102.009000   21.438200  -109.412000
  H    -102.978000   21.120200  -107.985000
  H    -101.471000   21.998400  -107.863000
  S    -107.701000   20.734300  -109.392000
  C    -108.828000   20.870700  -110.701000
  C    -108.438000   20.080400  -111.766000
  C    -107.302000   19.313100  -111.532000
  C    -106.759000   19.591300  -110.318000
  H    -108.953000   19.984100  -112.703000
  C    -106.714000   18.360700  -112.565000
  H    -107.345000   17.476200  -112.578000
  H    -105.766000   17.948400  -112.180000
  C    -106.477000   18.723700  -114.003000
  H    -107.497000   18.954100  -114.352000
  H    -106.383000   17.732100  -114.393000
  C    -105.434000   19.783900  -114.250000
  H    -105.675000   20.720500  -113.720000
  H    -105.366000   20.113100  -115.270000
  H    -104.501000   19.364600  -113.937000
  H    -103.585000   16.880700  -107.497000
  H    -109.759000   21.470100  -110.746000

 Total Charge           Charge          ....    0
 Multiplicity           Mult            ....    1
 Number of Electrons    NEL             ....  134
 Basis Dimension        Dim             ....  322

ORBITAL ENERGIES
----------------

  NO   OCC          E(Eh)            E(eV)
   0   2.0000     -88.966686     -2420.9066
   1   2.0000     -88.963880     -2420.8302
   2   2.0000     -10.325450      -280.9698
   3   2.0000     -10.322489      -280.8892
   4   2.0000     -10.318242      -280.7736
   5   2.0000     -10.313014      -280.6314
   6   2.0000     -10.296272      -280.1758
   7   2.0000     -10.294035      -280.1149
   8   2.0000     -10.290778      -280.0263
   9   2.0000     -10.290300      -280.0133
  10   2.0000     -10.286272      -279.9037
  11   2.0000     -10.285497      -279.8826
  12   2.0000     -10.282551      -279.8024
  13   2.0000     -10.279455      -279.7182
  14   2.0000     -10.276009      -279.6244
  15   2.0000     -10.266360      -279.3619
  16   2.0000      -8.081682      -219.9138
  17   2.0000      -8.079102      -219.8435
  18   2.0000      -6.040092      -164.3592
  19   2.0000      -6.037557      -164.2903
  20   2.0000      -6.036093      -164.2504
  21   2.0000      -6.033517      -164.1803
  22   2.0000      -6.032596      -164.1553
  23   2.0000      -6.029903      -164.0820
  24   2.0000      -1.009770       -27.4772
  25   2.0000      -0.990225       -26.9454
  26   2.0000      -0.917124       -24.9562
  27   2.0000      -0.916029       -24.9264
  28   2.0000      -0.867237       -23.5987
  29   2.0000      -0.854184       -23.2435
  30   2.0000      -0.844124       -22.9698
  31   2.0000      -0.814041       -22.1512
  32   2.0000      -0.792161       -21.5558
  33   2.0000      -0.781190       -21.2573
  34   2.0000      -0.703323       -19.1384
  35   2.0000      -0.693561       -18.8728
  36   2.0000      -0.692513       -18.8442
  37   2.0000      -0.660555       -17.9746
  38   2.0000      -0.637879       -17.3576
  39   2.0000      -0.614257       -16.7148
  40   2.0000      -0.598571       -16.2879
  41   2.0000      -0.586687       -15.9646
  42   2.0000      -0.559056       -15.2127
  43   2.0000      -0.548962       -14.9380
  44   2.0000      -0.545339       -14.8394
  45   2.0000      -0.543184       -14.7808
  46   2.0000      -0.515322       -14.0226
  47   2.0000      -0.509212       -13.8564
  48   2.0000      -0.498530       -13.5657
  49   2.0000      -0.493212       -13.4210
  50   2.0000      -0.491010       -13.3611
  51   2.0000      -0.477561       -12.9951
  52   2.0000      -0.475776       -12.9465
  53   2.0000      -0.468185       -12.7400
  54   2.0000      -0.464726       -12.6458
  55   2.0000      -0.449935       -12.2433
  56   2.0000      -0.449072       -12.2199
  57   2.0000      -0.440241       -11.9796
  58   2.0000      -0.435891       -11.8612
  59   2.0000      -0.421667       -11.4741
  60   2.0000      -0.419655       -11.4194
  61   2.0000      -0.408622       -11.1192
  62   2.0000      -0.403160       -10.9705
  63   2.0000      -0.336937        -9.1685
  64   2.0000      -0.327510        -8.9120
  65   2.0000      -0.323834        -8.8120
  66   2.0000      -0.311971        -8.4892
  67   0.0000       0.050654         1.3784
  68   0.0000       0.058815         1.6004
  69   0.0000       0.122364         3.3297
  70   0.0000       0.125771         3.4224
  71   0.0000       0.130805         3.5594

MULLIKEN ATOMIC CHARGES
-----------------------
   0 S :    0.123052
   1 C :   -0.134941
   2 C :   -0.122000
   3 C :    0.027843
   4 C :   -0.175671
   5 H :    0.017667
   6 C :    0.116011
   7 H :    0.025786
   8 H :    0.002425
   9 C :   -0.073356
  10 H :    0.017431
  11 H :    0.030776
  12 C :   -0.017851
  13 H :    0.011989
  14 H :    0.039304
  15 H :    0.036648
  16 S :    0.126537
  17 C :   -0.093620
  18 C :   -0.042293
  19 C :    0.016921
  20 C :   -0.210198
  21 H :    0.005577
  22 C :    0.028714
  23 H :    0.026689
  24 H :    0.017650
  25 C :   -0.037037
  26 H :    0.004097
  27 H :    0.016964
  28 C :    0.003750
  29 H :    0.040602
  30 H :    0.029682
  31 H :    0.026442
  32 H :    0.047503
  33 H :    0.066905
Sum of atomic charges:    0.0000000

LOEWDIN ATOMIC CHARGES
----------------------
   0 S :    0.416727
   1 C :   -0.200899
   2 C :   -0.070460
   3 C :   -0.066367
   4 C :   -0.210950
   5 H :    0.034148
   6 C :   -0.019196
   7 H :    0.030256
   8 H :    0.020156
   9 C :   -0.037136
  10 H :    0.023740
  11 H :    0.020486
  12 C :   -0.058145
  13 H :    0.013370
  14 H :    0.027628
  15 H :    0.032697
  16 S :    0.421463
  17 C :   -0.194997
  18 C :   -0.074172
  19 C :   -0.060278
  20 C :   -0.203945
  21 H :    0.027015
  22 C :   -0.032664
  23 H :    0.034590
  24 H :    0.028636
  25 C :   -0.044709
  26 H :    0.018709
  27 H :    0.027564
  28 C :   -0.058857
  29 H :    0.035004
  30 H :    0.025835
  31 H :    0.025136
  32 H :    0.030936
  33 H :    0.038679

  Mayer bond orders larger than 0.100000
B(  0-S ,  1-C ) :   1.1455 B(  0-S ,  4-C ) :   1.1585 B(  1-C ,  2-C ) :   1.6271
B(  1-C , 32-H ) :   0.9596 B(  2-C ,  3-C ) :   1.2418 B(  2-C ,  6-C ) :   1.0080
B(  3-C ,  4-C ) :   1.5990 B(  3-C ,  5-H ) :   0.9889 B(  4-C , 20-C ) :   0.9748
B(  6-C ,  7-H ) :   0.9453 B(  6-C ,  8-H ) :   0.9400 B(  6-C ,  9-C ) :   1.0605
B(  9-C , 10-H ) :   0.9536 B(  9-C , 11-H ) :   0.9582 B(  9-C , 12-C ) :   1.1060
B( 12-C , 13-H ) :   0.9692 B( 12-C , 14-H ) :   0.9646 B( 12-C , 15-H ) :   0.9665
B( 16-S , 17-C ) :   1.1618 B( 16-S , 20-C ) :   1.1605 B( 17-C , 18-C ) :   1.5862
B( 17-C , 33-H ) :   0.9628 B( 18-C , 19-C ) :   1.2700 B( 18-C , 21-H ) :   0.9883
B( 19-C , 20-C ) :   1.6111 B( 19-C , 22-C ) :   1.0302 B( 22-C , 23-H ) :   0.9267
B( 22-C , 24-H ) :   0.9293 B( 22-C , 25-C ) :   1.0879 B( 25-C , 26-H ) :   0.9455
B( 25-C , 27-H ) :   0.9478 B( 25-C , 28-C ) :   1.0621 B( 28-C , 29-H ) :   0.9726
B( 28-C , 30-H ) :   0.9726 B( 28-C , 31-H ) :   0.9735

Dispersion correction           -0.014862591
FINAL SINGLE POINT ENERGY     -1339.876038135926

DIPOLE MOMENT
-------------
                                X             Y             Z
Electronic contribution:    -17.87900      -3.31796      13.62470
Nuclear contribution   :     18.20141       3.32067     -14.07884
                        -----------------------------------------
Total Dipole Moment    :      0.32241       0.00271      -0.45415
                        -----------------------------------------
Magnitude (a.u.)       :      0.55696
Magnitude (Debye)      :      1.41569

Rotational constants in cm-1:     0.018644     0.008695     0.007673
Rotational constants in MHz :   558.937050   260.678570   230.024380

                             ****ORCA TERMINATED NORMALLY****
TOTAL RUN TIME: 0 days 0 hours 0 minutes 22 seconds 103 msec
