                         Program Version 4.2.1 -  RELEASE  -
|  1> ! wB97X-D3 SP def2-SVP
|  2> %pal
|  3> nprocs 24
|  4> end
|  5>
|  6> * xyz 0 1
|  7> S 	 -114.88 	 59.1332 	 -80.5238
|  8> C 	 -114.594 	 59.6066 	 -82.2347
|  9> C 	 -113.425 	 59.189 	 -82.7613
| 10> C 	 -112.67 	 58.4497 	 -81.7921
| 11> C 	 -113.257 	 58.5145 	 -80.4893
| 12> H 	 -111.753 	 57.9721 	 -82.109
| 13> C 	 -112.948 	 59.5814 	 -84.1486
| 14> H 	 -113.46 	 58.9943 	 -84.8966
| 15> H 	 -111.982 	 59.2229 	 -84.1596
| 16> C 	 -112.895 	 61.1279 	 -84.4645
| 17> H 	 -112.612 	 61.3669 	 -85.4626
| 18> H 	 -113.929 	 61.593 	 -84.3977
| 19> C 	 -111.834 	 61.8129 	 -83.5964
| 20> H 	 -111.753 	 61.417 	 -82.5849
| 21> H 	 -110.865 	 61.6242 	 -84.0712
| 22> H 	 -111.808 	 62.9068 	 -83.7009
| 23> S 	 -114.021 	 57.161 	 -78.1622
| 24> C 	 -112.916 	 56.1037 	 -77.3867
| 25> C 	 -111.618 	 56.4617 	 -77.8221
| 26> C 	 -111.544 	 57.3729 	 -78.9286
| 27> C 	 -112.843 	 57.7542 	 -79.3301
| 28> H 	 -110.848 	 56.0164 	 -77.1969
| 29> C 	 -110.234 	 57.8913 	 -79.4667
| 30> H 	 -109.614 	 58.2785 	 -78.651
| 31> H 	 -110.597 	 58.7227 	 -80.078
| 32> C 	 -109.395 	 56.9892 	 -80.3456
| 33> H 	 -109.93 	 56.8008 	 -81.2619
| 34> H 	 -109.214 	 56.043 	 -79.7933
| 35> C 	 -108.006 	 57.5082 	 -80.6956
| 36> H 	 -107.43 	 56.7813 	 -81.3405
| 37> H 	 -107.459 	 57.5728 	 -79.7916
| 38> H 	 -107.868 	 58.401 	 -81.2325
| 39> H 	 -115.388 	 60.1584 	 -82.9
| 40> H 	 -113.192 	 55.4909 	 -76.5591
| 41> *
| 42>
| 43>                          ****END OF INPUT****

CARTESIAN COORDINATES (ANGSTROEM)
---------------------------------
  S    -114.880000   59.133200  -80.523800
  C    -114.594000   59.606600  -82.234700
  C    -113.425000   59.189000  -82.761300
  C    -112.670000   58.449700  -81.792100
  C    -113.257000   58.514500  -80.489300
  H    -111.753000   57.972100  -82.109000
  C    -112.948000   59.581400  -84.148600
  H    -113.460000   58.994300  -84.896600
  H    -111.982000   59.222900  -84.159600
  C    -112.895000   61.127900  -84.464500
  H    -112.612000   61.366900  -85.462600
  H    -113.929000   61.593000  -84.397700
  C    -111.834000   61.812900  -83.596400
  H    -111.753000   61.417000  -82.584900
  H    -110.865000   61.624200  -84.071200
  H    -111.808000   62.906800  -83.700900
  S    -114.021000   57.161000  -78.162200
  C    -112.916000   56.103700  -77.386700
  C    -111.618000   56.461700  -77.822100
  C    -111.544000   57.372900  -78.928600
  C    -112.843000   57.754200  -79.330100
  H    -110.848000   56.016400  -77.196900
  C    -110.234000   57.891300  -79.466700
  H    -109.614000   58.278500  -78.651000
  H    -110.597000   58.722700  -80.078000
  C    -109.395000   56.989200  -80.345600
  H    -109.930000   56.800800  -81.261900
  H    -109.214000   56.043000  -79.793300
  C    -108.006000   57.508200  -80.695600
  H    -107.430000   56.781300  -81.340500
  H    -107.459000   57.572800  -79.791600
  H    -107.868000   58.401000  -81.232500
  H    -115.388000   60.158400  -82.900000
  H    -113.192000   55.490900  -76.559100

 Total Charge           Charge          ....    0
 Multiplicity           Mult            ....    1
 Number of Electrons    NEL             ....  134
 Basis Dimension        Dim             ....  322

ORBITAL ENERGIES
----------------

  NO   OCC          E(Eh)            E(eV)
   0   2.0000     -88.970811     -2421.0188
   1   2.0000     -88.964057     -2420.8351
   2   2.0000     -10.337169      -281.2887
   3   2.0000     -10.329754      -281.0869
   4   2.0000     -10.319509      -280.8081
   5   2.0000     -10.316663      -280.7307
   6   2.0000     -10.306487      -280.4538
   7   2.0000     -10.303191      -280.3641
   8   2.0000     -10.298559      -280.2380
   9   2.0000     -10.296330      -280.1774
  10   2.0000     -10.295518      -280.1553
  11   2.0000     -10.292399      -280.0704
  12   2.0000     -10.289479      -279.9910
  13   2.0000     -10.286973      -279.9228
  14   2.0000     -10.277747      -279.6717
  15   2.0000     -10.274608      -279.5863
  16   2.0000      -8.085099      -220.0067
  17   2.0000      -8.079358      -219.8505
  18   2.0000      -6.043660      -164.4563
  19   2.0000      -6.039956      -164.3556
  20   2.0000      -6.037796      -164.2968
  21   2.0000      -6.035540      -164.2354
  22   2.0000      -6.033805      -164.1882
  23   2.0000      -6.030145      -164.0886
  24   2.0000      -1.006728       -27.3945
  25   2.0000      -0.982331       -26.7306
  26   2.0000      -0.914012       -24.8715
  27   2.0000      -0.912845       -24.8398
  28   2.0000      -0.868449       -23.6317
  29   2.0000      -0.856685       -23.3116
  30   2.0000      -0.841810       -22.9068
  31   2.0000      -0.808545       -22.0016
  32   2.0000      -0.787273       -21.4228
  33   2.0000      -0.776183       -21.1210
  34   2.0000      -0.710645       -19.3376
  35   2.0000      -0.705873       -19.2078
  36   2.0000      -0.697228       -18.9725
  37   2.0000      -0.660890       -17.9837
  38   2.0000      -0.623206       -16.9583
  39   2.0000      -0.617249       -16.7962
  40   2.0000      -0.593324       -16.1452
  41   2.0000      -0.576936       -15.6992
  42   2.0000      -0.569790       -15.5048
  43   2.0000      -0.560769       -15.2593
  44   2.0000      -0.537021       -14.6131
  45   2.0000      -0.525898       -14.3104
  46   2.0000      -0.516684       -14.0597
  47   2.0000      -0.509328       -13.8595
  48   2.0000      -0.505312       -13.7502
  49   2.0000      -0.492993       -13.4150
  50   2.0000      -0.490272       -13.3410
  51   2.0000      -0.482394       -13.1266
  52   2.0000      -0.470715       -12.8088
  53   2.0000      -0.467106       -12.7106
  54   2.0000      -0.453193       -12.3320
  55   2.0000      -0.448988       -12.2176
  56   2.0000      -0.447228       -12.1697
  57   2.0000      -0.440570       -11.9885
  58   2.0000      -0.435593       -11.8531
  59   2.0000      -0.429518       -11.6878
  60   2.0000      -0.418086       -11.3767
  61   2.0000      -0.417314       -11.3557
  62   2.0000      -0.410499       -11.1703
  63   2.0000      -0.357036        -9.7155
  64   2.0000      -0.337324        -9.1791
  65   2.0000      -0.324946        -8.8422
  66   2.0000      -0.278295        -7.5728
  67   0.0000       0.014111         0.3840
  68   0.0000       0.076048         2.0694
  69   0.0000       0.089900         2.4463
  70   0.0000       0.116674         3.1749
  71   0.0000       0.133097         3.6217

MULLIKEN ATOMIC CHARGES
-----------------------
   0 S :    0.099456
   1 C :   -0.154644
   2 C :   -0.128679
   3 C :    0.011210
   4 C :   -0.113499
   5 H :    0.002518
   6 C :    0.136116
   7 H :    0.039126
   8 H :   -0.017707
   9 C :   -0.061266
  10 H :    0.020038
  11 H :    0.035742
  12 C :   -0.064669
  13 H :    0.054147
  14 H :    0.014155
  15 H :    0.035550
  16 S :    0.097074
  17 C :   -0.099322
  18 C :   -0.047312
  19 C :   -0.032403
  20 C :   -0.131354
  21 H :    0.020978
  22 C :    0.068697
  23 H :    0.029385
  24 H :    0.017845
  25 C :   -0.057090
  26 H :    0.023585
  27 H :    0.031310
  28 C :   -0.036672
  29 H :    0.032568
  30 H :    0.017909
  31 H :    0.021743
  32 H :    0.077259
  33 H :    0.058207
Sum of atomic charges:    0.0000000

LOEWDIN ATOMIC CHARGES
----------------------
   0 S :    0.393468
   1 C :   -0.190362
   2 C :   -0.072018
   3 C :   -0.059948
   4 C :   -0.187236
   5 H :    0.027457
   6 C :   -0.020264
   7 H :    0.034480
   8 H :    0.016929
   9 C :   -0.036170
  10 H :    0.020930
  11 H :    0.025282
  12 C :   -0.071580
  13 H :    0.028184
  14 H :    0.025417
  15 H :    0.030417
  16 S :    0.409573
  17 C :   -0.196669
  18 C :   -0.072268
  19 C :   -0.057172
  20 C :   -0.196168
  21 H :    0.030144
  22 C :   -0.035638
  23 H :    0.034118
  24 H :    0.030656
  25 C :   -0.037850
  26 H :    0.017782
  27 H :    0.029791
  28 C :   -0.065025
  29 H :    0.034653
  30 H :    0.019528
  31 H :    0.016432
  32 H :    0.046579
  33 H :    0.026547

  Mayer bond orders larger than 0.100000
B(  0-S ,  1-C ) :   1.1185 B(  0-S ,  4-C ) :   1.1499 B(  1-C ,  2-C ) :   1.6493
B(  1-C , 32-H ) :   0.9487 B(  2-C ,  3-C ) :   1.2635 B(  2-C ,  6-C ) :   1.0063
B(  3-C ,  4-C ) :   1.5145 B(  3-C ,  5-H ) :   0.9831 B(  4-C , 20-C ) :   1.1045
B(  6-C ,  7-H ) :   0.9309 B(  6-C ,  8-H ) :   0.9324 B(  6-C ,  9-C ) :   1.0671
B(  9-C , 10-H ) :   0.9570 B(  9-C , 11-H ) :   0.9603 B(  9-C , 12-C ) :   1.0648
B( 12-C , 13-H ) :   0.9812 B( 12-C , 14-H ) :   0.9709 B( 12-C , 15-H ) :   0.9714
B( 16-S , 17-C ) :   1.1686 B( 16-S , 20-C ) :   1.1488 B( 17-C , 18-C ) :   1.5674
B( 17-C , 20-C ) :   0.1041 B( 17-C , 33-H ) :   0.9747 B( 18-C , 19-C ) :   1.2534
B( 18-C , 21-H ) :   0.9938 B( 19-C , 20-C ) :   1.5368 B( 19-C , 22-C ) :   1.0458
B( 22-C , 23-H ) :   0.9352 B( 22-C , 24-H ) :   0.9203 B( 22-C , 25-C ) :   1.0778
B( 25-C , 26-H ) :   0.9497 B( 25-C , 27-H ) :   0.9522 B( 25-C , 28-C ) :   1.0847
B( 28-C , 29-H ) :   0.9726 B( 28-C , 30-H ) :   0.9728 B( 28-C , 31-H ) :   0.9767

Dispersion correction           -0.014204609
FINAL SINGLE POINT ENERGY     -1339.856580792131

DIPOLE MOMENT
-------------
                                X             Y             Z
Electronic contribution:    -24.45544      -7.57123      17.86785
Nuclear contribution   :     25.03232       7.59373     -18.27850
                        -----------------------------------------
Total Dipole Moment    :      0.57688       0.02250      -0.41065
                        -----------------------------------------
Magnitude (a.u.)       :      0.70847
Magnitude (Debye)      :      1.80079

Rotational constants in cm-1:     0.017254     0.009646     0.006553
Rotational constants in MHz :   517.252505   289.182861   196.443216

                             ****ORCA TERMINATED NORMALLY****
TOTAL RUN TIME: 0 days 0 hours 0 minutes 21 seconds 671 msec
