                         Program Version 4.2.1 -  RELEASE  -
|  1> ! wB97X-D3 SP def2-SVP
|  2> %pal
|  3> nprocs 24
|  4> end
|  5>
|  6> * xyz 0 1
|  7> S 	 -28.994 	 -33.0968 	 -96.7239
|  8> C 	 -27.6746 	 -34.2151 	 -96.446
|  9> C 	 -26.6026 	 -33.57 	 -95.8784
| 10> C 	 -26.8243 	 -32.1629 	 -95.7502
| 11> C 	 -28.03 	 -31.7365 	 -96.303
| 12> H 	 -26.1614 	 -31.3766 	 -95.3621
| 13> C 	 -25.3504 	 -34.2478 	 -95.4246
| 14> H 	 -25.4567 	 -35.221 	 -95.7115
| 15> H 	 -25.3357 	 -34.232 	 -94.3557
| 16> C 	 -24.0052 	 -33.6484 	 -95.9892
| 17> H 	 -23.8235 	 -34.1006 	 -96.9913
| 18> H 	 -23.9694 	 -32.5741 	 -95.943
| 19> C 	 -22.7565 	 -34.0638 	 -95.2832
| 20> H 	 -22.3519 	 -33.4577 	 -94.5161
| 21> H 	 -22.9375 	 -35.08 	 -94.9148
| 22> H 	 -21.9774 	 -34.169 	 -96.084
| 23> S 	 -30.3716 	 -30.404 	 -95.6681
| 24> C 	 -30.4523 	 -28.6759 	 -95.6656
| 25> C 	 -29.3001 	 -28.1141 	 -96.1871
| 26> C 	 -28.2976 	 -29.1386 	 -96.4193
| 27> C 	 -28.6798 	 -30.4408 	 -96.217
| 28> H 	 -29.1466 	 -27.0799 	 -96.3855
| 29> C 	 -26.9529 	 -28.7165 	 -96.8672
| 30> H 	 -27.1294 	 -28.1 	 -97.7174
| 31> H 	 -26.5566 	 -29.6482 	 -97.2925
| 32> C 	 -26.072 	 -28.0789 	 -95.7889
| 33> H 	 -25.8903 	 -28.7688 	 -94.9499
| 34> H 	 -26.5138 	 -27.0815 	 -95.5244
| 35> C 	 -24.6908 	 -27.7128 	 -96.39
| 36> H 	 -24.176 	 -28.6074 	 -96.5955
| 37> H 	 -24.0725 	 -27.0679 	 -95.6927
| 38> H 	 -24.8403 	 -27.2855 	 -97.4011
| 39> H 	 -27.7788 	 -35.3454 	 -96.655
| 40> H 	 -31.3119 	 -28.0884 	 -95.4398
| 41> *
| 42>
| 43>                          ****END OF INPUT****

CARTESIAN COORDINATES (ANGSTROEM)
---------------------------------
  S    -28.994000  -33.096800  -96.723900
  C    -27.674600  -34.215100  -96.446000
  C    -26.602600  -33.570000  -95.878400
  C    -26.824300  -32.162900  -95.750200
  C    -28.030000  -31.736500  -96.303000
  H    -26.161400  -31.376600  -95.362100
  C    -25.350400  -34.247800  -95.424600
  H    -25.456700  -35.221000  -95.711500
  H    -25.335700  -34.232000  -94.355700
  C    -24.005200  -33.648400  -95.989200
  H    -23.823500  -34.100600  -96.991300
  H    -23.969400  -32.574100  -95.943000
  C    -22.756500  -34.063800  -95.283200
  H    -22.351900  -33.457700  -94.516100
  H    -22.937500  -35.080000  -94.914800
  H    -21.977400  -34.169000  -96.084000
  S    -30.371600  -30.404000  -95.668100
  C    -30.452300  -28.675900  -95.665600
  C    -29.300100  -28.114100  -96.187100
  C    -28.297600  -29.138600  -96.419300
  C    -28.679800  -30.440800  -96.217000
  H    -29.146600  -27.079900  -96.385500
  C    -26.952900  -28.716500  -96.867200
  H    -27.129400  -28.100000  -97.717400
  H    -26.556600  -29.648200  -97.292500
  C    -26.072000  -28.078900  -95.788900
  H    -25.890300  -28.768800  -94.949900
  H    -26.513800  -27.081500  -95.524400
  C    -24.690800  -27.712800  -96.390000
  H    -24.176000  -28.607400  -96.595500
  H    -24.072500  -27.067900  -95.692700
  H    -24.840300  -27.285500  -97.401100
  H    -27.778800  -35.345400  -96.655000
  H    -31.311900  -28.088400  -95.439800

 Total Charge           Charge          ....    0
 Multiplicity           Mult            ....    1
 Number of Electrons    NEL             ....  134
 Basis Dimension        Dim             ....  322

ORBITAL ENERGIES
----------------

  NO   OCC          E(Eh)            E(eV)
   0   2.0000     -88.964636     -2420.8508
   1   2.0000     -88.961445     -2420.7640
   2   2.0000     -10.330112      -281.0966
   3   2.0000     -10.325777      -280.9787
   4   2.0000     -10.320735      -280.8415
   5   2.0000     -10.316481      -280.7257
   6   2.0000     -10.302341      -280.3410
   7   2.0000     -10.297696      -280.2145
   8   2.0000     -10.297161      -280.2000
   9   2.0000     -10.294295      -280.1220
  10   2.0000     -10.292272      -280.0670
  11   2.0000     -10.287866      -279.9471
  12   2.0000     -10.285267      -279.8763
  13   2.0000     -10.283185      -279.8197
  14   2.0000     -10.279956      -279.7318
  15   2.0000     -10.275273      -279.6044
  16   2.0000      -8.080128      -219.8715
  17   2.0000      -8.076284      -219.7669
  18   2.0000      -6.038619      -164.3192
  19   2.0000      -6.034969      -164.2198
  20   2.0000      -6.034538      -164.2081
  21   2.0000      -6.030836      -164.1074
  22   2.0000      -6.030750      -164.1051
  23   2.0000      -6.026870      -163.9995
  24   2.0000      -1.010575       -27.4992
  25   2.0000      -0.986057       -26.8320
  26   2.0000      -0.916903       -24.9502
  27   2.0000      -0.912418       -24.8282
  28   2.0000      -0.875723       -23.8296
  29   2.0000      -0.854579       -23.2543
  30   2.0000      -0.846105       -23.0237
  31   2.0000      -0.818969       -22.2853
  32   2.0000      -0.783473       -21.3194
  33   2.0000      -0.768988       -20.9252
  34   2.0000      -0.706841       -19.2341
  35   2.0000      -0.697982       -18.9931
  36   2.0000      -0.690863       -18.7993
  37   2.0000      -0.666471       -18.1356
  38   2.0000      -0.642602       -17.4861
  39   2.0000      -0.620955       -16.8970
  40   2.0000      -0.590970       -16.0811
  41   2.0000      -0.574748       -15.6397
  42   2.0000      -0.570418       -15.5218
  43   2.0000      -0.568015       -15.4565
  44   2.0000      -0.532580       -14.4922
  45   2.0000      -0.531812       -14.4713
  46   2.0000      -0.524407       -14.2698
  47   2.0000      -0.511890       -13.9292
  48   2.0000      -0.510812       -13.8999
  49   2.0000      -0.502838       -13.6829
  50   2.0000      -0.495838       -13.4924
  51   2.0000      -0.481958       -13.1147
  52   2.0000      -0.467541       -12.7224
  53   2.0000      -0.461175       -12.5492
  54   2.0000      -0.458615       -12.4796
  55   2.0000      -0.451545       -12.2872
  56   2.0000      -0.443669       -12.0729
  57   2.0000      -0.440409       -11.9841
  58   2.0000      -0.432234       -11.7617
  59   2.0000      -0.422618       -11.5000
  60   2.0000      -0.417757       -11.3677
  61   2.0000      -0.417475       -11.3601
  62   2.0000      -0.408118       -11.1055
  63   2.0000      -0.354661        -9.6508
  64   2.0000      -0.330309        -8.9882
  65   2.0000      -0.325370        -8.8538
  66   2.0000      -0.290538        -7.9059
  67   0.0000       0.029337         0.7983
  68   0.0000       0.072289         1.9671
  69   0.0000       0.112265         3.0549
  70   0.0000       0.123028         3.3478
  71   0.0000       0.123480         3.3601

MULLIKEN ATOMIC CHARGES
-----------------------
   0 S :    0.096156
   1 C :   -0.158622
   2 C :   -0.091350
   3 C :    0.021454
   4 C :   -0.146627
   5 H :    0.014234
   6 C :    0.153909
   7 H :   -0.017173
   8 H :    0.030330
   9 C :   -0.092965
  10 H :    0.041223
  11 H :    0.030856
  12 C :   -0.057655
  13 H :    0.034622
  14 H :    0.021972
  15 H :    0.031643
  16 S :    0.087481
  17 C :   -0.067620
  18 C :   -0.009857
  19 C :   -0.088227
  20 C :   -0.115607
  21 H :    0.010885
  22 C :    0.041524
  23 H :    0.017698
  24 H :    0.017640
  25 C :   -0.068427
  26 H :    0.042758
  27 H :    0.037439
  28 C :   -0.041082
  29 H :    0.012501
  30 H :    0.050929
  31 H :    0.026787
  32 H :    0.082135
  33 H :    0.051035
Sum of atomic charges:   -0.0000000

LOEWDIN ATOMIC CHARGES
----------------------
   0 S :    0.415903
   1 C :   -0.210667
   2 C :   -0.063354
   3 C :   -0.065169
   4 C :   -0.198084
   5 H :    0.032680
   6 C :   -0.022042
   7 H :    0.016805
   8 H :    0.032342
   9 C :   -0.039945
  10 H :    0.035022
  11 H :    0.021322
  12 C :   -0.067474
  13 H :    0.016456
  14 H :    0.024372
  15 H :    0.032826
  16 S :    0.393142
  17 C :   -0.178469
  18 C :   -0.067660
  19 C :   -0.058179
  20 C :   -0.195247
  21 H :    0.026829
  22 C :   -0.040299
  23 H :    0.028431
  24 H :    0.029911
  25 C :   -0.035556
  26 H :    0.026918
  27 H :    0.029817
  28 C :   -0.068839
  29 H :    0.014147
  30 H :    0.032459
  31 H :    0.026996
  32 H :    0.047946
  33 H :    0.026659

  Mayer bond orders larger than 0.100000
B(  0-S ,  1-C ) :   1.1360 B(  0-S ,  4-C ) :   1.1614 B(  1-C ,  2-C ) :   1.6071
B(  1-C , 32-H ) :   0.9562 B(  2-C ,  3-C ) :   1.2350 B(  2-C ,  6-C ) :   1.0328
B(  3-C ,  4-C ) :   1.5593 B(  3-C ,  5-H ) :   0.9886 B(  4-C , 20-C ) :   1.0451
B(  6-C ,  7-H ) :   0.9212 B(  6-C ,  8-H ) :   0.9326 B(  6-C ,  9-C ) :   1.0656
B(  9-C , 10-H ) :   0.9633 B(  9-C , 11-H ) :   0.9616 B(  9-C , 12-C ) :   1.0766
B( 12-C , 13-H ) :   0.9776 B( 12-C , 14-H ) :   0.9711 B( 12-C , 15-H ) :   0.9796
B( 16-S , 17-C ) :   1.1629 B( 16-S , 20-C ) :   1.1013 B( 17-C , 18-C ) :   1.5989
B( 17-C , 33-H ) :   0.9687 B( 18-C , 19-C ) :   1.2275 B( 18-C , 21-H ) :   0.9955
B( 19-C , 20-C ) :   1.6310 B( 19-C , 22-C ) :   1.0569 B( 22-C , 23-H ) :   0.9247
B( 22-C , 24-H ) :   0.9326 B( 22-C , 25-C ) :   1.0690 B( 25-C , 26-H ) :   0.9551
B( 25-C , 27-H ) :   0.9526 B( 25-C , 28-C ) :   1.0781 B( 28-C , 29-H ) :   0.9744
B( 28-C , 30-H ) :   0.9750 B( 28-C , 31-H ) :   0.9704

Dispersion correction           -0.013696736
FINAL SINGLE POINT ENERGY     -1339.869038866452

DIPOLE MOMENT
-------------
                                X             Y             Z
Electronic contribution:    -32.34458      -4.17605      -1.68815
Nuclear contribution   :     32.97831       4.32171       1.75519
                        -----------------------------------------
Total Dipole Moment    :      0.63373       0.14566       0.06704
                        -----------------------------------------
Magnitude (a.u.)       :      0.65370
Magnitude (Debye)      :      1.66157

Rotational constants in cm-1:     0.016985     0.009361     0.006319
Rotational constants in MHz :   509.199816   280.621256   189.446292

                             ****ORCA TERMINATED NORMALLY****
TOTAL RUN TIME: 0 days 0 hours 0 minutes 21 seconds 549 msec
