                         Program Version 4.2.1 -  RELEASE  -
|  1> ! wB97X-D3 SP def2-SVP
|  2> %pal
|  3> nprocs 24
|  4> end
|  5>
|  6> * xyz 0 1
|  7> S 	 -43.9237 	 -50.7399 	 -74.346
|  8> C 	 -42.5784 	 -50.0798 	 -75.2047
|  9> C 	 -42.5962 	 -50.4882 	 -76.5423
| 10> C 	 -43.5774 	 -51.5205 	 -76.7532
| 11> C 	 -44.3762 	 -51.7351 	 -75.6326
| 12> H 	 -43.8569 	 -52.0979 	 -77.6341
| 13> C 	 -41.7699 	 -49.7992 	 -77.6011
| 14> H 	 -41.5929 	 -48.7687 	 -77.2947
| 15> H 	 -42.2947 	 -49.7587 	 -78.5693
| 16> C 	 -40.3886 	 -50.3938 	 -77.923
| 17> H 	 -39.9485 	 -50.5256 	 -76.8969
| 18> H 	 -40.6062 	 -51.3732 	 -78.3744
| 19> C 	 -39.4203 	 -49.58 	 -78.7797
| 20> H 	 -39.0772 	 -48.6491 	 -78.2296
| 21> H 	 -38.5527 	 -50.1962 	 -78.9752
| 22> H 	 -39.8597 	 -49.2763 	 -79.7419
| 23> S 	 -47.1184 	 -51.6153 	 -75.8935
| 24> C 	 -48.0877 	 -53.0351 	 -75.7077
| 25> C 	 -47.3152 	 -54.0804 	 -75.2316
| 26> C 	 -45.9276 	 -53.7571 	 -75.1101
| 27> C 	 -45.621 	 -52.47 	 -75.5497
| 28> H 	 -47.7035 	 -55.0319 	 -75.0904
| 29> C 	 -44.9445 	 -54.7863 	 -74.5924
| 30> H 	 -45.5224 	 -55.4814 	 -73.9378
| 31> H 	 -44.1704 	 -54.3154 	 -73.9886
| 32> C 	 -44.1708 	 -55.618 	 -75.6675
| 33> H 	 -43.5762 	 -56.5206 	 -75.2447
| 34> H 	 -43.5378 	 -55.021 	 -76.3346
| 35> C 	 -45.1309 	 -56.3627 	 -76.6729
| 36> H 	 -45.8964 	 -57.0727 	 -76.3559
| 37> H 	 -44.5117 	 -57.032 	 -77.1812
| 38> H 	 -45.7617 	 -55.6884 	 -77.3249
| 39> H 	 -41.8503 	 -49.4778 	 -74.8023
| 40> H 	 -49.1262 	 -53.1836 	 -75.9027
| 41> *
| 42>
| 43>                          ****END OF INPUT****

CARTESIAN COORDINATES (ANGSTROEM)
---------------------------------
  S    -43.923700  -50.739900  -74.346000
  C    -42.578400  -50.079800  -75.204700
  C    -42.596200  -50.488200  -76.542300
  C    -43.577400  -51.520500  -76.753200
  C    -44.376200  -51.735100  -75.632600
  H    -43.856900  -52.097900  -77.634100
  C    -41.769900  -49.799200  -77.601100
  H    -41.592900  -48.768700  -77.294700
  H    -42.294700  -49.758700  -78.569300
  C    -40.388600  -50.393800  -77.923000
  H    -39.948500  -50.525600  -76.896900
  H    -40.606200  -51.373200  -78.374400
  C    -39.420300  -49.580000  -78.779700
  H    -39.077200  -48.649100  -78.229600
  H    -38.552700  -50.196200  -78.975200
  H    -39.859700  -49.276300  -79.741900
  S    -47.118400  -51.615300  -75.893500
  C    -48.087700  -53.035100  -75.707700
  C    -47.315200  -54.080400  -75.231600
  C    -45.927600  -53.757100  -75.110100
  C    -45.621000  -52.470000  -75.549700
  H    -47.703500  -55.031900  -75.090400
  C    -44.944500  -54.786300  -74.592400
  H    -45.522400  -55.481400  -73.937800
  H    -44.170400  -54.315400  -73.988600
  C    -44.170800  -55.618000  -75.667500
  H    -43.576200  -56.520600  -75.244700
  H    -43.537800  -55.021000  -76.334600
  C    -45.130900  -56.362700  -76.672900
  H    -45.896400  -57.072700  -76.355900
  H    -44.511700  -57.032000  -77.181200
  H    -45.761700  -55.688400  -77.324900
  H    -41.850300  -49.477800  -74.802300
  H    -49.126200  -53.183600  -75.902700

 Total Charge           Charge          ....    0
 Multiplicity           Mult            ....    1
 Number of Electrons    NEL             ....  134
 Basis Dimension        Dim             ....  322

ORBITAL ENERGIES
----------------

  NO   OCC          E(Eh)            E(eV)
   0   2.0000     -88.967047     -2420.9164
   1   2.0000     -88.965442     -2420.8727
   2   2.0000     -10.324786      -280.9517
   3   2.0000     -10.323085      -280.9054
   4   2.0000     -10.315518      -280.6995
   5   2.0000     -10.309464      -280.5348
   6   2.0000     -10.306541      -280.4552
   7   2.0000     -10.303400      -280.3698
   8   2.0000     -10.299170      -280.2547
   9   2.0000     -10.298512      -280.2368
  10   2.0000     -10.294256      -280.1209
  11   2.0000     -10.291177      -280.0372
  12   2.0000     -10.288741      -279.9709
  13   2.0000     -10.287349      -279.9330
  14   2.0000     -10.285539      -279.8837
  15   2.0000     -10.272336      -279.5245
  16   2.0000      -8.083126      -219.9530
  17   2.0000      -8.080278      -219.8755
  18   2.0000      -6.041373      -164.3941
  19   2.0000      -6.038795      -164.3240
  20   2.0000      -6.037263      -164.2823
  21   2.0000      -6.034654      -164.2113
  22   2.0000      -6.034248      -164.2002
  23   2.0000      -6.031130      -164.1154
  24   2.0000      -1.012659       -27.5558
  25   2.0000      -0.987654       -26.8754
  26   2.0000      -0.912248       -24.8235
  27   2.0000      -0.899543       -24.4778
  28   2.0000      -0.871667       -23.7193
  29   2.0000      -0.849384       -23.1129
  30   2.0000      -0.843111       -22.9422
  31   2.0000      -0.817100       -22.2344
  32   2.0000      -0.784984       -21.3605
  33   2.0000      -0.772977       -21.0338
  34   2.0000      -0.708223       -19.2717
  35   2.0000      -0.692680       -18.8488
  36   2.0000      -0.687327       -18.7031
  37   2.0000      -0.664993       -18.0954
  38   2.0000      -0.651418       -17.7260
  39   2.0000      -0.614613       -16.7245
  40   2.0000      -0.590162       -16.0591
  41   2.0000      -0.577455       -15.7133
  42   2.0000      -0.564669       -15.3654
  43   2.0000      -0.547463       -14.8972
  44   2.0000      -0.542712       -14.7679
  45   2.0000      -0.523609       -14.2481
  46   2.0000      -0.517884       -14.0923
  47   2.0000      -0.513193       -13.9647
  48   2.0000      -0.504981       -13.7412
  49   2.0000      -0.503450       -13.6996
  50   2.0000      -0.485464       -13.2101
  51   2.0000      -0.478376       -13.0173
  52   2.0000      -0.472845       -12.8668
  53   2.0000      -0.468151       -12.7390
  54   2.0000      -0.464406       -12.6371
  55   2.0000      -0.448471       -12.2035
  56   2.0000      -0.438028       -11.9194
  57   2.0000      -0.433333       -11.7916
  58   2.0000      -0.430780       -11.7221
  59   2.0000      -0.423455       -11.5228
  60   2.0000      -0.420177       -11.4336
  61   2.0000      -0.414270       -11.2729
  62   2.0000      -0.405446       -11.0327
  63   2.0000      -0.336317        -9.1516
  64   2.0000      -0.326669        -8.8891
  65   2.0000      -0.320518        -8.7217
  66   2.0000      -0.311693        -8.4816
  67   0.0000       0.044913         1.2222
  68   0.0000       0.050708         1.3798
  69   0.0000       0.107842         2.9345
  70   0.0000       0.118974         3.2374
  71   0.0000       0.137664         3.7460

MULLIKEN ATOMIC CHARGES
-----------------------
   0 S :    0.140040
   1 C :   -0.086923
   2 C :   -0.077993
   3 C :    0.054584
   4 C :   -0.199025
   5 H :    0.015572
   6 C :    0.057212
   7 H :    0.017089
   8 H :    0.027624
   9 C :   -0.109977
  10 H :    0.028514
  11 H :    0.030327
  12 C :   -0.035600
  13 H :    0.038224
  14 H :    0.040724
  15 H :    0.032717
  16 S :    0.124261
  17 C :   -0.073839
  18 C :   -0.021958
  19 C :   -0.022368
  20 C :   -0.188903
  21 H :   -0.008931
  22 C :    0.095875
  23 H :    0.028229
  24 H :    0.032235
  25 C :   -0.088118
  26 H :    0.049176
  27 H :    0.043761
  28 C :   -0.090113
  29 H :    0.015598
  30 H :    0.016254
  31 H :    0.048009
  32 H :    0.018400
  33 H :    0.049325
Sum of atomic charges:    0.0000000

LOEWDIN ATOMIC CHARGES
----------------------
   0 S :    0.454901
   1 C :   -0.190857
   2 C :   -0.057447
   3 C :   -0.057778
   4 C :   -0.228030
   5 H :    0.035264
   6 C :   -0.037493
   7 H :    0.027665
   8 H :    0.031503
   9 C :   -0.048592
  10 H :    0.025889
  11 H :    0.022898
  12 C :   -0.068108
  13 H :    0.031904
  14 H :    0.029260
  15 H :    0.024849
  16 S :    0.418314
  17 C :   -0.186505
  18 C :   -0.066215
  19 C :   -0.051447
  20 C :   -0.210685
  21 H :    0.018495
  22 C :   -0.033947
  23 H :    0.035390
  24 H :    0.031169
  25 C :   -0.036978
  26 H :    0.037471
  27 H :    0.027556
  28 C :   -0.085713
  29 H :    0.020369
  30 H :    0.016878
  31 H :    0.029729
  32 H :    0.010949
  33 H :    0.029342

  Mayer bond orders larger than 0.100000
B(  0-S ,  1-C ) :   1.1630 B(  0-S ,  4-C ) :   1.1927 B(  1-C ,  2-C ) :   1.5714
B(  1-C ,  4-C ) :   0.1027 B(  1-C , 32-H ) :   0.9819 B(  2-C ,  3-C ) :   1.2460
B(  2-C ,  6-C ) :   1.0318 B(  3-C ,  4-C ) :   1.5607 B(  3-C ,  5-H ) :   0.9960
B(  4-C , 20-C ) :   1.0146 B(  6-C ,  7-H ) :   0.9419 B(  6-C ,  8-H ) :   0.9401
B(  6-C ,  9-C ) :   1.0575 B(  9-C , 10-H ) :   0.9570 B(  9-C , 11-H ) :   0.9563
B(  9-C , 12-C ) :   1.0869 B( 12-C , 13-H ) :   0.9714 B( 12-C , 14-H ) :   0.9726
B( 12-C , 15-H ) :   0.9731 B( 16-S , 17-C ) :   1.1660 B( 16-S , 20-C ) :   1.1487
B( 17-C , 18-C ) :   1.5939 B( 17-C , 20-C ) :   0.1009 B( 17-C , 33-H ) :   0.9690
B( 18-C , 19-C ) :   1.2553 B( 18-C , 21-H ) :   0.9980 B( 19-C , 20-C ) :   1.5815
B( 19-C , 22-C ) :   1.0459 B( 22-C , 23-H ) :   0.9380 B( 22-C , 24-H ) :   0.9307
B( 22-C , 25-C ) :   1.0675 B( 25-C , 26-H ) :   0.9609 B( 25-C , 27-H ) :   0.9557
B( 25-C , 28-C ) :   1.0592 B( 28-C , 29-H ) :   0.9753 B( 28-C , 30-H ) :   0.9762
B( 28-C , 31-H ) :   0.9730

Dispersion correction           -0.014367973
FINAL SINGLE POINT ENERGY     -1339.872780484403

DIPOLE MOMENT
-------------
                                X             Y             Z
Electronic contribution:    -18.96849      10.46565      13.26163
Nuclear contribution   :     19.23442     -10.71063     -13.52888
                        -----------------------------------------
Total Dipole Moment    :      0.26593      -0.24498      -0.26724
                        -----------------------------------------
Magnitude (a.u.)       :      0.44961
Magnitude (Debye)      :      1.14283

Rotational constants in cm-1:     0.021191     0.007459     0.006468
Rotational constants in MHz :   635.289490   223.613106   193.899206

                             ****ORCA TERMINATED NORMALLY****
TOTAL RUN TIME: 0 days 0 hours 0 minutes 21 seconds 285 msec
