                         Program Version 4.2.1 -  RELEASE  -
|  1> ! wB97X-D3 SP def2-SVP
|  2> %pal
|  3> nprocs 24
|  4> end
|  5>
|  6> * xyz 0 1
|  7> S 	 -108.48 	 30.4738 	 -16.4074
|  8> C 	 -108.258 	 29.0331 	 -17.4293
|  9> C 	 -108.211 	 29.3317 	 -18.7555
| 10> C 	 -108.523 	 30.7442 	 -18.9704
| 11> C 	 -109.035 	 31.3288 	 -17.8483
| 12> H 	 -108.622 	 31.2524 	 -19.8872
| 13> C 	 -107.95 	 28.3826 	 -19.8585
| 14> H 	 -108.843 	 28.1581 	 -20.3224
| 15> H 	 -107.486 	 27.4736 	 -19.4986
| 16> C 	 -106.967 	 28.8773 	 -20.8127
| 17> H 	 -107.265 	 29.7215 	 -21.3637
| 18> H 	 -106.053 	 29.1483 	 -20.2449
| 19> C 	 -106.716 	 27.9231 	 -21.9987
| 20> H 	 -107.589 	 27.5942 	 -22.4813
| 21> H 	 -106.172 	 28.4097 	 -22.7685
| 22> H 	 -106.022 	 27.1211 	 -21.6719
| 23> S 	 -108.559 	 33.9491 	 -16.9736
| 24> C 	 -109.836 	 35.1599 	 -17.3135
| 25> C 	 -110.886 	 34.597 	 -18.0412
| 26> C 	 -110.691 	 33.203 	 -18.3319
| 27> C 	 -109.502 	 32.7 	 -17.789
| 28> H 	 -111.74 	 35.1245 	 -18.3358
| 29> C 	 -111.661 	 32.327 	 -19.1067
| 30> H 	 -111.538 	 31.2926 	 -18.7964
| 31> H 	 -111.348 	 32.3137 	 -20.122
| 32> C 	 -113.214 	 32.5836 	 -18.9245
| 33> H 	 -113.515 	 33.5374 	 -19.4466
| 34> H 	 -113.408 	 32.8678 	 -17.9233
| 35> C 	 -114.154 	 31.5279 	 -19.6886
| 36> H 	 -113.626 	 31.4824 	 -20.6401
| 37> H 	 -115.124 	 31.9875 	 -19.8589
| 38> H 	 -114.306 	 30.6567 	 -19.0652
| 39> H 	 -108.14 	 28.0797 	 -16.9969
| 40> H 	 -109.875 	 36.1883 	 -16.9085
| 41> *
| 42>
| 43>                          ****END OF INPUT****

CARTESIAN COORDINATES (ANGSTROEM)
---------------------------------
  S    -108.480000   30.473800  -16.407400
  C    -108.258000   29.033100  -17.429300
  C    -108.211000   29.331700  -18.755500
  C    -108.523000   30.744200  -18.970400
  C    -109.035000   31.328800  -17.848300
  H    -108.622000   31.252400  -19.887200
  C    -107.950000   28.382600  -19.858500
  H    -108.843000   28.158100  -20.322400
  H    -107.486000   27.473600  -19.498600
  C    -106.967000   28.877300  -20.812700
  H    -107.265000   29.721500  -21.363700
  H    -106.053000   29.148300  -20.244900
  C    -106.716000   27.923100  -21.998700
  H    -107.589000   27.594200  -22.481300
  H    -106.172000   28.409700  -22.768500
  H    -106.022000   27.121100  -21.671900
  S    -108.559000   33.949100  -16.973600
  C    -109.836000   35.159900  -17.313500
  C    -110.886000   34.597000  -18.041200
  C    -110.691000   33.203000  -18.331900
  C    -109.502000   32.700000  -17.789000
  H    -111.740000   35.124500  -18.335800
  C    -111.661000   32.327000  -19.106700
  H    -111.538000   31.292600  -18.796400
  H    -111.348000   32.313700  -20.122000
  C    -113.214000   32.583600  -18.924500
  H    -113.515000   33.537400  -19.446600
  H    -113.408000   32.867800  -17.923300
  C    -114.154000   31.527900  -19.688600
  H    -113.626000   31.482400  -20.640100
  H    -115.124000   31.987500  -19.858900
  H    -114.306000   30.656700  -19.065200
  H    -108.140000   28.079700  -16.996900
  H    -109.875000   36.188300  -16.908500

 Total Charge           Charge          ....    0
 Multiplicity           Mult            ....    1
 Number of Electrons    NEL             ....  134
 Basis Dimension        Dim             ....  322

ORBITAL ENERGIES
----------------

  NO   OCC          E(Eh)            E(eV)
   0   2.0000     -88.966963     -2420.9141
   1   2.0000     -88.960082     -2420.7269
   2   2.0000     -10.325378      -280.9678
   3   2.0000     -10.323267      -280.9104
   4   2.0000     -10.323153      -280.9073
   5   2.0000     -10.309702      -280.5413
   6   2.0000     -10.303240      -280.3654
   7   2.0000     -10.300055      -280.2787
   8   2.0000     -10.293131      -280.0903
   9   2.0000     -10.292612      -280.0762
  10   2.0000     -10.291428      -280.0440
  11   2.0000     -10.289425      -279.9895
  12   2.0000     -10.285627      -279.8861
  13   2.0000     -10.278940      -279.7042
  14   2.0000     -10.278693      -279.6975
  15   2.0000     -10.273852      -279.5657
  16   2.0000      -8.080533      -219.8825
  17   2.0000      -8.074792      -219.7263
  18   2.0000      -6.039205      -164.3351
  19   2.0000      -6.035201      -164.2262
  20   2.0000      -6.033412      -164.1775
  21   2.0000      -6.031204      -164.1174
  22   2.0000      -6.029760      -164.0781
  23   2.0000      -6.024983      -163.9481
  24   2.0000      -1.003178       -27.2979
  25   2.0000      -0.977498       -26.5991
  26   2.0000      -0.927756       -25.2455
  27   2.0000      -0.896744       -24.4016
  28   2.0000      -0.870517       -23.6880
  29   2.0000      -0.848014       -23.0756
  30   2.0000      -0.842900       -22.9365
  31   2.0000      -0.816109       -22.2075
  32   2.0000      -0.786790       -21.4096
  33   2.0000      -0.770350       -20.9623
  34   2.0000      -0.708940       -19.2912
  35   2.0000      -0.702826       -19.1249
  36   2.0000      -0.692793       -18.8519
  37   2.0000      -0.654444       -17.8083
  38   2.0000      -0.648850       -17.6561
  39   2.0000      -0.622500       -16.9391
  40   2.0000      -0.594782       -16.1849
  41   2.0000      -0.588291       -16.0082
  42   2.0000      -0.564637       -15.3645
  43   2.0000      -0.561052       -15.2670
  44   2.0000      -0.527587       -14.3564
  45   2.0000      -0.526842       -14.3361
  46   2.0000      -0.518923       -14.1206
  47   2.0000      -0.514830       -14.0092
  48   2.0000      -0.512293       -13.9402
  49   2.0000      -0.497786       -13.5454
  50   2.0000      -0.491052       -13.3622
  51   2.0000      -0.474837       -12.9210
  52   2.0000      -0.466723       -12.7002
  53   2.0000      -0.461113       -12.5475
  54   2.0000      -0.456072       -12.4103
  55   2.0000      -0.453470       -12.3395
  56   2.0000      -0.449997       -12.2450
  57   2.0000      -0.439654       -11.9636
  58   2.0000      -0.438090       -11.9210
  59   2.0000      -0.426270       -11.5994
  60   2.0000      -0.420366       -11.4387
  61   2.0000      -0.410553       -11.1717
  62   2.0000      -0.405122       -11.0239
  63   2.0000      -0.339643        -9.2422
  64   2.0000      -0.328605        -8.9418
  65   2.0000      -0.324847        -8.8395
  66   2.0000      -0.295364        -8.0373
  67   0.0000       0.029131         0.7927
  68   0.0000       0.060714         1.6521
  69   0.0000       0.104602         2.8464
  70   0.0000       0.125843         3.4244
  71   0.0000       0.129773         3.5313

MULLIKEN ATOMIC CHARGES
-----------------------
   0 S :    0.087840
   1 C :   -0.107997
   2 C :   -0.074401
   3 C :    0.050298
   4 C :   -0.171373
   5 H :    0.005154
   6 C :    0.178855
   7 H :    0.009038
   8 H :    0.006203
   9 C :   -0.136485
  10 H :    0.017662
  11 H :    0.037891
  12 C :   -0.013068
  13 H :    0.021242
  14 H :    0.016534
  15 H :    0.032222
  16 S :    0.109370
  17 C :   -0.108571
  18 C :   -0.006378
  19 C :   -0.054035
  20 C :   -0.163628
  21 H :   -0.001257
  22 C :    0.091098
  23 H :    0.035321
  24 H :    0.024761
  25 C :   -0.125724
  26 H :    0.023399
  27 H :    0.025670
  28 C :   -0.036663
  29 H :    0.040928
  30 H :    0.034649
  31 H :    0.051925
  32 H :    0.027477
  33 H :    0.072044
Sum of atomic charges:   -0.0000000

LOEWDIN ATOMIC CHARGES
----------------------
   0 S :    0.367473
   1 C :   -0.169372
   2 C :   -0.054575
   3 C :   -0.042776
   4 C :   -0.180909
   5 H :    0.023667
   6 C :   -0.026415
   7 H :    0.022644
   8 H :    0.032295
   9 C :   -0.040608
  10 H :    0.014867
  11 H :    0.031637
  12 C :   -0.056639
  13 H :    0.019331
  14 H :    0.022364
  15 H :    0.027944
  16 S :    0.383502
  17 C :   -0.180392
  18 C :   -0.062648
  19 C :   -0.053379
  20 C :   -0.199764
  21 H :    0.022485
  22 C :   -0.034806
  23 H :    0.033786
  24 H :    0.025586
  25 C :   -0.044503
  26 H :    0.022162
  27 H :    0.014769
  28 C :   -0.057267
  29 H :    0.031777
  30 H :    0.027142
  31 H :    0.026335
  32 H :    0.016825
  33 H :    0.037460

  Mayer bond orders larger than 0.100000
B(  0-S ,  1-C ) :   1.1107 B(  0-S ,  4-C ) :   1.1207 B(  1-C ,  2-C ) :   1.6587
B(  1-C , 32-H ) :   0.9790 B(  2-C ,  3-C ) :   1.1654 B(  2-C ,  6-C ) :   1.0354
B(  3-C ,  4-C ) :   1.6193 B(  3-C ,  5-H ) :   0.9986 B(  4-C , 20-C ) :   1.0508
B(  6-C ,  7-H ) :   0.9180 B(  6-C ,  8-H ) :   0.9333 B(  6-C ,  9-C ) :   1.0768
B(  9-C , 10-H ) :   0.9481 B(  9-C , 11-H ) :   0.9574 B(  9-C , 12-C ) :   1.0909
B( 12-C , 13-H ) :   0.9706 B( 12-C , 14-H ) :   0.9737 B( 12-C , 15-H ) :   0.9733
B( 16-S , 17-C ) :   1.1386 B( 16-S , 20-C ) :   1.1352 B( 17-C , 18-C ) :   1.6063
B( 17-C , 33-H ) :   0.9625 B( 18-C , 19-C ) :   1.2476 B( 18-C , 21-H ) :   0.9958
B( 19-C , 20-C ) :   1.6067 B( 19-C , 22-C ) :   1.0436 B( 22-C , 23-H ) :   0.9316
B( 22-C , 24-H ) :   0.9250 B( 22-C , 25-C ) :   1.0507 B( 25-C , 26-H ) :   0.9555
B( 25-C , 27-H ) :   0.9673 B( 25-C , 28-C ) :   1.0580 B( 28-C , 29-H ) :   0.9749
B( 28-C , 30-H ) :   0.9796 B( 28-C , 31-H ) :   0.9798

Dispersion correction           -0.013634920
FINAL SINGLE POINT ENERGY     -1339.846657764516

DIPOLE MOMENT
-------------
                                X             Y             Z
Electronic contribution:     10.27486      12.92064      22.78834
Nuclear contribution   :    -10.59881     -13.15877     -23.47408
                        -----------------------------------------
Total Dipole Moment    :     -0.32395      -0.23813      -0.68574
                        -----------------------------------------
Magnitude (a.u.)       :      0.79491
Magnitude (Debye)      :      2.02050

Rotational constants in cm-1:     0.016301     0.008284     0.006657
Rotational constants in MHz :   488.705769   248.350512   199.579328

                             ****ORCA TERMINATED NORMALLY****
TOTAL RUN TIME: 0 days 0 hours 0 minutes 20 seconds 100 msec
