                         Program Version 4.2.1 -  RELEASE  -
|  1> ! wB97X-D3 SP def2-SVP
|  2> %pal
|  3> nprocs 24
|  4> end
|  5>
|  6> * xyz 0 1
|  7> S 	 -53.7499 	 -38.7971 	 -75.7384
|  8> C 	 -54.2069 	 -39.2711 	 -74.1007
|  9> C 	 -54.3006 	 -40.5991 	 -73.946
| 10> C 	 -53.7227 	 -41.2742 	 -75.1032
| 11> C 	 -53.2505 	 -40.4275 	 -76.1218
| 12> H 	 -53.7456 	 -42.2936 	 -75.3011
| 13> C 	 -55.0103 	 -41.3055 	 -72.8194
| 14> H 	 -54.7933 	 -40.7279 	 -71.9456
| 15> H 	 -54.5584 	 -42.2692 	 -72.649
| 16> C 	 -56.5172 	 -41.6152 	 -72.9836
| 17> H 	 -56.9377 	 -40.6631 	 -73.421
| 18> H 	 -56.7583 	 -42.278 	 -73.7705
| 19> C 	 -57.1839 	 -42.0195 	 -71.6661
| 20> H 	 -57.304 	 -41.1982 	 -70.9637
| 21> H 	 -58.1953 	 -42.3982 	 -71.9666
| 22> H 	 -56.5638 	 -42.7967 	 -71.2689
| 23> S 	 -53.9169 	 -40.8559 	 -78.7908
| 24> C 	 -52.7222 	 -41.6794 	 -79.7848
| 25> C 	 -51.5097 	 -41.8703 	 -79.1914
| 26> C 	 -51.5394 	 -41.5154 	 -77.7539
| 27> C 	 -52.7491 	 -40.845 	 -77.4234
| 28> H 	 -50.7262 	 -42.3956 	 -79.6669
| 29> C 	 -50.3546 	 -41.6425 	 -76.8341
| 30> H 	 -50.413 	 -40.8185 	 -76.0452
| 31> H 	 -49.5493 	 -41.3563 	 -77.5134
| 32> C 	 -50.21 	 -43.0777 	 -76.2194
| 33> H 	 -51.0915 	 -43.2719 	 -75.6671
| 34> H 	 -49.4395 	 -43.0767 	 -75.4858
| 35> C 	 -50.1416 	 -44.1951 	 -77.2792
| 36> H 	 -50.1726 	 -45.1131 	 -76.6597
| 37> H 	 -49.2367 	 -44.212 	 -77.8537
| 38> H 	 -50.9459 	 -44.2212 	 -77.9434
| 39> H 	 -54.7465 	 -38.64 	 -73.4192
| 40> H 	 -52.935 	 -42.0224 	 -80.7644
| 41> *
| 42>
| 43>                          ****END OF INPUT****

CARTESIAN COORDINATES (ANGSTROEM)
---------------------------------
  S    -53.749900  -38.797100  -75.738400
  C    -54.206900  -39.271100  -74.100700
  C    -54.300600  -40.599100  -73.946000
  C    -53.722700  -41.274200  -75.103200
  C    -53.250500  -40.427500  -76.121800
  H    -53.745600  -42.293600  -75.301100
  C    -55.010300  -41.305500  -72.819400
  H    -54.793300  -40.727900  -71.945600
  H    -54.558400  -42.269200  -72.649000
  C    -56.517200  -41.615200  -72.983600
  H    -56.937700  -40.663100  -73.421000
  H    -56.758300  -42.278000  -73.770500
  C    -57.183900  -42.019500  -71.666100
  H    -57.304000  -41.198200  -70.963700
  H    -58.195300  -42.398200  -71.966600
  H    -56.563800  -42.796700  -71.268900
  S    -53.916900  -40.855900  -78.790800
  C    -52.722200  -41.679400  -79.784800
  C    -51.509700  -41.870300  -79.191400
  C    -51.539400  -41.515400  -77.753900
  C    -52.749100  -40.845000  -77.423400
  H    -50.726200  -42.395600  -79.666900
  C    -50.354600  -41.642500  -76.834100
  H    -50.413000  -40.818500  -76.045200
  H    -49.549300  -41.356300  -77.513400
  C    -50.210000  -43.077700  -76.219400
  H    -51.091500  -43.271900  -75.667100
  H    -49.439500  -43.076700  -75.485800
  C    -50.141600  -44.195100  -77.279200
  H    -50.172600  -45.113100  -76.659700
  H    -49.236700  -44.212000  -77.853700
  H    -50.945900  -44.221200  -77.943400
  H    -54.746500  -38.640000  -73.419200
  H    -52.935000  -42.022400  -80.764400

 Total Charge           Charge          ....    0
 Multiplicity           Mult            ....    1
 Number of Electrons    NEL             ....  134
 Basis Dimension        Dim             ....  322

ORBITAL ENERGIES
----------------

  NO   OCC          E(Eh)            E(eV)
   0   2.0000     -88.964957     -2420.8596
   1   2.0000     -88.963300     -2420.8145
   2   2.0000     -10.329815      -281.0885
   3   2.0000     -10.329448      -281.0786
   4   2.0000     -10.316864      -280.7361
   5   2.0000     -10.311200      -280.5820
   6   2.0000     -10.308345      -280.5043
   7   2.0000     -10.298847      -280.2459
   8   2.0000     -10.295205      -280.1468
   9   2.0000     -10.295001      -280.1412
  10   2.0000     -10.292121      -280.0628
  11   2.0000     -10.290012      -280.0055
  12   2.0000     -10.287418      -279.9349
  13   2.0000     -10.284161      -279.8462
  14   2.0000     -10.283306      -279.8230
  15   2.0000     -10.273483      -279.5557
  16   2.0000      -8.079018      -219.8413
  17   2.0000      -8.077961      -219.8125
  18   2.0000      -6.037608      -164.2917
  19   2.0000      -6.036529      -164.2623
  20   2.0000      -6.033740      -164.1864
  21   2.0000      -6.032646      -164.1566
  22   2.0000      -6.029623      -164.0744
  23   2.0000      -6.028484      -164.0434
  24   2.0000      -1.000037       -27.2124
  25   2.0000      -0.977420       -26.5969
  26   2.0000      -0.913042       -24.8451
  27   2.0000      -0.905712       -24.6457
  28   2.0000      -0.871937       -23.7266
  29   2.0000      -0.846600       -23.0371
  30   2.0000      -0.843848       -22.9623
  31   2.0000      -0.814760       -22.1707
  32   2.0000      -0.784615       -21.3505
  33   2.0000      -0.771929       -21.0052
  34   2.0000      -0.714663       -19.4470
  35   2.0000      -0.703940       -19.1552
  36   2.0000      -0.692572       -18.8458
  37   2.0000      -0.660289       -17.9674
  38   2.0000      -0.642739       -17.4898
  39   2.0000      -0.613457       -16.6930
  40   2.0000      -0.588542       -16.0150
  41   2.0000      -0.576290       -15.6816
  42   2.0000      -0.557522       -15.1710
  43   2.0000      -0.550579       -14.9820
  44   2.0000      -0.541930       -14.7467
  45   2.0000      -0.530086       -14.4244
  46   2.0000      -0.517274       -14.0757
  47   2.0000      -0.514363       -13.9965
  48   2.0000      -0.505323       -13.7506
  49   2.0000      -0.495833       -13.4923
  50   2.0000      -0.488309       -13.2876
  51   2.0000      -0.482571       -13.1314
  52   2.0000      -0.470767       -12.8102
  53   2.0000      -0.466477       -12.6935
  54   2.0000      -0.461160       -12.5488
  55   2.0000      -0.447471       -12.1763
  56   2.0000      -0.443339       -12.0639
  57   2.0000      -0.440488       -11.9863
  58   2.0000      -0.433275       -11.7900
  59   2.0000      -0.428301       -11.6547
  60   2.0000      -0.423643       -11.5279
  61   2.0000      -0.413618       -11.2551
  62   2.0000      -0.411321       -11.1926
  63   2.0000      -0.338433        -9.2092
  64   2.0000      -0.327730        -8.9180
  65   2.0000      -0.322287        -8.7699
  66   2.0000      -0.301918        -8.2156
  67   0.0000       0.036708         0.9989
  68   0.0000       0.055409         1.5078
  69   0.0000       0.110062         2.9949
  70   0.0000       0.117771         3.2047
  71   0.0000       0.121610         3.3092

MULLIKEN ATOMIC CHARGES
-----------------------
   0 S :    0.099399
   1 C :   -0.095911
   2 C :   -0.104918
   3 C :    0.063640
   4 C :   -0.173905
   5 H :   -0.010205
   6 C :    0.080729
   7 H :    0.019068
   8 H :    0.013440
   9 C :   -0.076179
  10 H :    0.019232
  11 H :    0.021039
  12 C :   -0.034403
  13 H :    0.042040
  14 H :    0.043397
  15 H :    0.030938
  16 S :    0.100184
  17 C :   -0.075696
  18 C :   -0.000973
  19 C :   -0.073172
  20 C :   -0.159212
  21 H :    0.010813
  22 C :    0.030625
  23 H :    0.050993
  24 H :    0.031352
  25 C :   -0.020221
  26 H :    0.012884
  27 H :    0.024265
  28 C :   -0.046664
  29 H :    0.032268
  30 H :    0.027247
  31 H :    0.034426
  32 H :    0.039471
  33 H :    0.044008
Sum of atomic charges:   -0.0000000

LOEWDIN ATOMIC CHARGES
----------------------
   0 S :    0.395639
   1 C :   -0.188018
   2 C :   -0.063025
   3 C :   -0.047850
   4 C :   -0.201978
   5 H :    0.016248
   6 C :   -0.031424
   7 H :    0.029625
   8 H :    0.026361
   9 C :   -0.041527
  10 H :    0.024574
  11 H :    0.018722
  12 C :   -0.059433
  13 H :    0.026443
  14 H :    0.035586
  15 H :    0.022677
  16 S :    0.376909
  17 C :   -0.167354
  18 C :   -0.068917
  19 C :   -0.040670
  20 C :   -0.195963
  21 H :    0.025486
  22 C :   -0.038935
  23 H :    0.042082
  24 H :    0.031524
  25 C :   -0.027802
  26 H :    0.020730
  27 H :    0.020845
  28 C :   -0.058261
  29 H :    0.033567
  30 H :    0.019836
  31 H :    0.017569
  32 H :    0.025191
  33 H :    0.021545

  Mayer bond orders larger than 0.100000
B(  0-S ,  1-C ) :   1.1290 B(  0-S ,  4-C ) :   1.1399 B(  1-C ,  2-C ) :   1.6546
B(  1-C , 32-H ) :   0.9597 B(  2-C ,  3-C ) :   1.2185 B(  2-C ,  6-C ) :   1.0345
B(  3-C ,  4-C ) :   1.5832 B(  3-C ,  5-H ) :   1.0024 B(  4-C , 20-C ) :   1.0339
B(  6-C ,  7-H ) :   0.9411 B(  6-C ,  8-H ) :   0.9300 B(  6-C ,  9-C ) :   1.0524
B(  9-C , 10-H ) :   0.9552 B(  9-C , 11-H ) :   0.9572 B(  9-C , 12-C ) :   1.0723
B( 12-C , 13-H ) :   0.9778 B( 12-C , 14-H ) :   0.9740 B( 12-C , 15-H ) :   0.9745
B( 16-S , 17-C ) :   1.1450 B( 16-S , 20-C ) :   1.1181 B( 17-C , 18-C ) :   1.6487
B( 17-C , 33-H ) :   0.9664 B( 18-C , 19-C ) :   1.1961 B( 18-C , 21-H ) :   0.9868
B( 19-C , 20-C ) :   1.6350 B( 19-C , 22-C ) :   1.0251 B( 22-C , 23-H ) :   0.9407
B( 22-C , 24-H ) :   0.9454 B( 22-C , 25-C ) :   1.0530 B( 25-C , 26-H ) :   0.9525
B( 25-C , 27-H ) :   0.9585 B( 25-C , 28-C ) :   1.0765 B( 28-C , 29-H ) :   0.9723
B( 28-C , 30-H ) :   0.9783 B( 28-C , 31-H ) :   0.9700

Dispersion correction           -0.014467351
FINAL SINGLE POINT ENERGY     -1339.866777795373

DIPOLE MOMENT
-------------
                                X             Y             Z
Electronic contribution:     -1.23197      17.47940     -16.66952
Nuclear contribution   :      1.20494     -18.13615      16.94553
                        -----------------------------------------
Total Dipole Moment    :     -0.02703      -0.65675       0.27601
                        -----------------------------------------
Magnitude (a.u.)       :      0.71291
Magnitude (Debye)      :      1.81206

Rotational constants in cm-1:     0.019964     0.007579     0.006678
Rotational constants in MHz :   598.516793   227.214400   200.213252

                             ****ORCA TERMINATED NORMALLY****
TOTAL RUN TIME: 0 days 0 hours 0 minutes 21 seconds 353 msec
