                         Program Version 4.2.1 -  RELEASE  -
|  1> ! wB97X-D3 SP def2-SVP
|  2> %pal
|  3> nprocs 24
|  4> end
|  5>
|  6> * xyz 0 1
|  7> S 	 -115.772 	 18.7363 	 -113.451
|  8> C 	 -117.301 	 19.4826 	 -113.049
|  9> C 	 -118.305 	 18.8812 	 -113.757
| 10> C 	 -117.813 	 18.0226 	 -114.833
| 11> C 	 -116.436 	 17.8072 	 -114.776
| 12> H 	 -118.326 	 17.5483 	 -115.538
| 13> C 	 -119.795 	 18.9499 	 -113.448
| 14> H 	 -119.903 	 19.3276 	 -112.431
| 15> H 	 -120.108 	 17.9302 	 -113.359
| 16> C 	 -120.646 	 19.7282 	 -114.386
| 17> H 	 -121.589 	 20.107 	 -113.921
| 18> H 	 -120.053 	 20.6065 	 -114.583
| 19> C 	 -121.049 	 19.1101 	 -115.678
| 20> H 	 -120.225 	 18.8982 	 -116.355
| 21> H 	 -121.649 	 18.1663 	 -115.434
| 22> H 	 -121.642 	 19.9218 	 -116.151
| 23> S 	 -115.22 	 15.3386 	 -115.266
| 24> C 	 -114.167 	 15.203 	 -116.626
| 25> C 	 -114.321 	 16.2722 	 -117.465
| 26> C 	 -115.045 	 17.3422 	 -116.914
| 27> C 	 -115.73 	 16.9749 	 -115.742
| 28> H 	 -113.789 	 16.2355 	 -118.404
| 29> C 	 -115.338 	 18.5061 	 -117.773
| 30> H 	 -114.433 	 18.7334 	 -118.366
| 31> H 	 -115.711 	 19.396 	 -117.306
| 32> C 	 -116.417 	 18.11 	 -118.805
| 33> H 	 -117.33 	 17.8683 	 -118.327
| 34> H 	 -116.093 	 17.1469 	 -119.242
| 35> C 	 -116.717 	 19.1817 	 -119.891
| 36> H 	 -115.886 	 19.087 	 -120.586
| 37> H 	 -116.887 	 20.1086 	 -119.426
| 38> H 	 -117.7 	 19.076 	 -120.436
| 39> H 	 -117.595 	 20.0817 	 -112.244
| 40> H 	 -113.505 	 14.4017 	 -116.85
| 41> *
| 42>
| 43>                          ****END OF INPUT****

CARTESIAN COORDINATES (ANGSTROEM)
---------------------------------
  S    -115.772000   18.736300  -113.451000
  C    -117.301000   19.482600  -113.049000
  C    -118.305000   18.881200  -113.757000
  C    -117.813000   18.022600  -114.833000
  C    -116.436000   17.807200  -114.776000
  H    -118.326000   17.548300  -115.538000
  C    -119.795000   18.949900  -113.448000
  H    -119.903000   19.327600  -112.431000
  H    -120.108000   17.930200  -113.359000
  C    -120.646000   19.728200  -114.386000
  H    -121.589000   20.107000  -113.921000
  H    -120.053000   20.606500  -114.583000
  C    -121.049000   19.110100  -115.678000
  H    -120.225000   18.898200  -116.355000
  H    -121.649000   18.166300  -115.434000
  H    -121.642000   19.921800  -116.151000
  S    -115.220000   15.338600  -115.266000
  C    -114.167000   15.203000  -116.626000
  C    -114.321000   16.272200  -117.465000
  C    -115.045000   17.342200  -116.914000
  C    -115.730000   16.974900  -115.742000
  H    -113.789000   16.235500  -118.404000
  C    -115.338000   18.506100  -117.773000
  H    -114.433000   18.733400  -118.366000
  H    -115.711000   19.396000  -117.306000
  C    -116.417000   18.110000  -118.805000
  H    -117.330000   17.868300  -118.327000
  H    -116.093000   17.146900  -119.242000
  C    -116.717000   19.181700  -119.891000
  H    -115.886000   19.087000  -120.586000
  H    -116.887000   20.108600  -119.426000
  H    -117.700000   19.076000  -120.436000
  H    -117.595000   20.081700  -112.244000
  H    -113.505000   14.401700  -116.850000

 Total Charge           Charge          ....    0
 Multiplicity           Mult            ....    1
 Number of Electrons    NEL             ....  134
 Basis Dimension        Dim             ....  322

ORBITAL ENERGIES
----------------

  NO   OCC          E(Eh)            E(eV)
   0   2.0000     -88.966091     -2420.8904
   1   2.0000     -88.965401     -2420.8716
   2   2.0000     -10.328704      -281.0583
   3   2.0000     -10.327479      -281.0250
   4   2.0000     -10.314898      -280.6827
   5   2.0000     -10.309510      -280.5360
   6   2.0000     -10.303630      -280.3760
   7   2.0000     -10.299727      -280.2698
   8   2.0000     -10.288725      -279.9705
   9   2.0000     -10.288259      -279.9578
  10   2.0000     -10.286038      -279.8973
  11   2.0000     -10.285487      -279.8823
  12   2.0000     -10.283169      -279.8193
  13   2.0000     -10.282118      -279.7907
  14   2.0000     -10.280071      -279.7350
  15   2.0000     -10.278711      -279.6979
  16   2.0000      -8.080414      -219.8793
  17   2.0000      -8.080157      -219.8723
  18   2.0000      -6.039111      -164.3326
  19   2.0000      -6.038570      -164.3179
  20   2.0000      -6.034879      -164.2174
  21   2.0000      -6.034528      -164.2079
  22   2.0000      -6.031142      -164.1157
  23   2.0000      -6.031064      -164.1136
  24   2.0000      -1.006328       -27.3836
  25   2.0000      -0.986468       -26.8432
  26   2.0000      -0.919430       -25.0190
  27   2.0000      -0.913295       -24.8520
  28   2.0000      -0.874265       -23.7900
  29   2.0000      -0.850002       -23.1297
  30   2.0000      -0.845967       -23.0199
  31   2.0000      -0.818546       -22.2738
  32   2.0000      -0.785914       -21.3858
  33   2.0000      -0.773815       -21.0566
  34   2.0000      -0.708980       -19.2923
  35   2.0000      -0.696561       -18.9544
  36   2.0000      -0.693098       -18.8602
  37   2.0000      -0.660987       -17.9864
  38   2.0000      -0.649215       -17.6660
  39   2.0000      -0.617716       -16.8089
  40   2.0000      -0.602200       -16.3867
  41   2.0000      -0.580975       -15.8091
  42   2.0000      -0.569371       -15.4934
  43   2.0000      -0.552245       -15.0274
  44   2.0000      -0.547230       -14.8909
  45   2.0000      -0.523552       -14.2466
  46   2.0000      -0.520090       -14.1524
  47   2.0000      -0.514079       -13.9888
  48   2.0000      -0.509757       -13.8712
  49   2.0000      -0.504224       -13.7206
  50   2.0000      -0.487731       -13.2718
  51   2.0000      -0.483725       -13.1628
  52   2.0000      -0.478290       -13.0149
  53   2.0000      -0.464978       -12.6527
  54   2.0000      -0.459988       -12.5169
  55   2.0000      -0.449494       -12.2314
  56   2.0000      -0.437212       -11.8971
  57   2.0000      -0.431534       -11.7426
  58   2.0000      -0.429225       -11.6798
  59   2.0000      -0.424149       -11.5417
  60   2.0000      -0.422752       -11.5037
  61   2.0000      -0.415284       -11.3004
  62   2.0000      -0.409676       -11.1479
  63   2.0000      -0.332912        -9.0590
  64   2.0000      -0.327124        -8.9015
  65   2.0000      -0.320921        -8.7327
  66   2.0000      -0.312722        -8.5096
  67   0.0000       0.041057         1.1172
  68   0.0000       0.051636         1.4051
  69   0.0000       0.109813         2.9882
  70   0.0000       0.118852         3.2341
  71   0.0000       0.125851         3.4246

MULLIKEN ATOMIC CHARGES
-----------------------
   0 S :    0.125682
   1 C :   -0.078230
   2 C :   -0.122899
   3 C :    0.076835
   4 C :   -0.131736
   5 H :   -0.048159
   6 C :    0.101709
   7 H :    0.008986
   8 H :    0.020520
   9 C :   -0.069917
  10 H :    0.030613
  11 H :    0.016654
  12 C :   -0.066703
  13 H :    0.037106
  14 H :    0.044388
  15 H :    0.041476
  16 S :    0.111444
  17 C :   -0.075815
  18 C :   -0.053674
  19 C :    0.013659
  20 C :   -0.209434
  21 H :    0.019639
  22 C :    0.080398
  23 H :    0.021097
  24 H :    0.025962
  25 C :   -0.093024
  26 H :    0.010441
  27 H :    0.018181
  28 C :   -0.022786
  29 H :    0.039458
  30 H :    0.021042
  31 H :    0.036400
  32 H :    0.023833
  33 H :    0.046854
Sum of atomic charges:    0.0000000

LOEWDIN ATOMIC CHARGES
----------------------
   0 S :    0.409482
   1 C :   -0.194549
   2 C :   -0.056270
   3 C :   -0.042808
   4 C :   -0.198588
   5 H :    0.002961
   6 C :   -0.033177
   7 H :    0.030625
   8 H :    0.027426
   9 C :   -0.053051
  10 H :    0.029622
  11 H :    0.023370
  12 C :   -0.069273
  13 H :    0.020718
  14 H :    0.033290
  15 H :    0.034947
  16 S :    0.409841
  17 C :   -0.179445
  18 C :   -0.077195
  19 C :   -0.043316
  20 C :   -0.203908
  21 H :    0.031730
  22 C :   -0.027138
  23 H :    0.032736
  24 H :    0.027518
  25 C :   -0.034510
  26 H :    0.013809
  27 H :    0.021504
  28 C :   -0.065574
  29 H :    0.026717
  30 H :    0.018120
  31 H :    0.034810
  32 H :    0.022504
  33 H :    0.027068

  Mayer bond orders larger than 0.100000
B(  0-S ,  1-C ) :   1.1281 B(  0-S ,  4-C ) :   1.1358 B(  1-C ,  2-C ) :   1.6467
B(  1-C , 32-H ) :   0.9650 B(  2-C ,  3-C ) :   1.2002 B(  2-C ,  6-C ) :   1.0252
B(  3-C ,  4-C ) :   1.5903 B(  3-C ,  5-H ) :   1.0100 B(  4-C , 20-C ) :   1.0461
B(  6-C ,  7-H ) :   0.9303 B(  6-C ,  8-H ) :   0.9408 B(  6-C ,  9-C ) :   1.0679
B(  9-C , 10-H ) :   0.9538 B(  9-C , 11-H ) :   0.9463 B(  9-C , 12-C ) :   1.0943
B( 12-C , 13-H ) :   0.9700 B( 12-C , 14-H ) :   0.9721 B( 12-C , 15-H ) :   0.9700
B( 16-S , 17-C ) :   1.1747 B( 16-S , 20-C ) :   1.1373 B( 17-C , 18-C ) :   1.6002
B( 17-C , 20-C ) :   0.1022 B( 17-C , 33-H ) :   0.9690 B( 18-C , 19-C ) :   1.2417
B( 18-C , 21-H ) :   0.9870 B( 19-C , 20-C ) :   1.5599 B( 19-C , 22-C ) :   1.0789
B( 22-C , 23-H ) :   0.9274 B( 22-C , 24-H ) :   0.9341 B( 22-C , 25-C ) :   1.0511
B( 25-C , 26-H ) :   0.9543 B( 25-C , 27-H ) :   0.9588 B( 25-C , 28-C ) :   1.0700
B( 28-C , 29-H ) :   0.9793 B( 28-C , 30-H ) :   0.9724 B( 28-C , 31-H ) :   0.9740

Dispersion correction           -0.014556505
FINAL SINGLE POINT ENERGY     -1339.857122834206

DIPOLE MOMENT
-------------
                                X             Y             Z
Electronic contribution:     19.63100     -12.05738      17.01940
Nuclear contribution   :    -19.99230      12.19698     -17.39939
                        -----------------------------------------
Total Dipole Moment    :     -0.36130       0.13960      -0.38000
                        -----------------------------------------
Magnitude (a.u.)       :      0.54261
Magnitude (Debye)      :      1.37920

Rotational constants in cm-1:     0.016916     0.009387     0.007204
Rotational constants in MHz :   507.123632   281.406683   215.964941

                             ****ORCA TERMINATED NORMALLY****
TOTAL RUN TIME: 0 days 0 hours 0 minutes 21 seconds 978 msec
