                         Program Version 4.2.1 -  RELEASE  -
|  1> ! wB97X-D3 SP def2-SVP
|  2> %pal
|  3> nprocs 24
|  4> end
|  5>
|  6> * xyz 0 1
|  7> S 	 -145.184 	 30.2774 	 -14.8185
|  8> C 	 -144.429 	 29.3281 	 -16.0025
|  9> C 	 -144.282 	 27.955 	 -15.6853
| 10> C 	 -144.915 	 27.6476 	 -14.4128
| 11> C 	 -145.393 	 28.7734 	 -13.7801
| 12> H 	 -145.087 	 26.7002 	 -14.0179
| 13> C 	 -143.54 	 26.8542 	 -16.4884
| 14> H 	 -143.003 	 26.2857 	 -15.6962
| 15> H 	 -142.697 	 27.2518 	 -17.0746
| 16> C 	 -144.444 	 25.955 	 -17.3337
| 17> H 	 -145.315 	 25.6581 	 -16.8435
| 18> H 	 -144.888 	 26.4316 	 -18.1598
| 19> C 	 -143.697 	 24.7241 	 -17.8461
| 20> H 	 -144.424 	 24.1084 	 -18.3613
| 21> H 	 -142.922 	 24.9208 	 -18.5109
| 22> H 	 -143.332 	 24.0259 	 -17.0427
| 23> S 	 -147.728 	 29.1369 	 -12.7346
| 24> C 	 -148.028 	 28.7058 	 -11.0592
| 25> C 	 -146.974 	 28.0625 	 -10.4889
| 26> C 	 -145.815 	 28.1053 	 -11.3474
| 27> C 	 -146.086 	 28.7679 	 -12.5024
| 28> H 	 -147 	 27.6773 	 -9.49999
| 29> C 	 -144.455 	 27.6249 	 -10.8318
| 30> H 	 -143.867 	 26.9935 	 -11.5567
| 31> H 	 -144.611 	 26.9484 	 -9.95261
| 32> C 	 -143.44 	 28.7432 	 -10.3656
| 33> H 	 -142.547 	 28.3354 	 -9.8174
| 34> H 	 -143.953 	 29.2432 	 -9.63694
| 35> C 	 -142.975 	 29.8548 	 -11.3828
| 36> H 	 -142.175 	 29.3935 	 -11.9482
| 37> H 	 -142.416 	 30.5742 	 -10.7983
| 38> H 	 -143.787 	 30.3154 	 -11.9233
| 39> H 	 -144.026 	 29.7582 	 -16.9085
| 40> H 	 -148.958 	 28.9014 	 -10.4962
| 41> *
| 42>
| 43>                          ****END OF INPUT****

CARTESIAN COORDINATES (ANGSTROEM)
---------------------------------
  S    -145.184000   30.277400  -14.818500
  C    -144.429000   29.328100  -16.002500
  C    -144.282000   27.955000  -15.685300
  C    -144.915000   27.647600  -14.412800
  C    -145.393000   28.773400  -13.780100
  H    -145.087000   26.700200  -14.017900
  C    -143.540000   26.854200  -16.488400
  H    -143.003000   26.285700  -15.696200
  H    -142.697000   27.251800  -17.074600
  C    -144.444000   25.955000  -17.333700
  H    -145.315000   25.658100  -16.843500
  H    -144.888000   26.431600  -18.159800
  C    -143.697000   24.724100  -17.846100
  H    -144.424000   24.108400  -18.361300
  H    -142.922000   24.920800  -18.510900
  H    -143.332000   24.025900  -17.042700
  S    -147.728000   29.136900  -12.734600
  C    -148.028000   28.705800  -11.059200
  C    -146.974000   28.062500  -10.488900
  C    -145.815000   28.105300  -11.347400
  C    -146.086000   28.767900  -12.502400
  H    -147.000000   27.677300   -9.499990
  C    -144.455000   27.624900  -10.831800
  H    -143.867000   26.993500  -11.556700
  H    -144.611000   26.948400   -9.952610
  C    -143.440000   28.743200  -10.365600
  H    -142.547000   28.335400   -9.817400
  H    -143.953000   29.243200   -9.636940
  C    -142.975000   29.854800  -11.382800
  H    -142.175000   29.393500  -11.948200
  H    -142.416000   30.574200  -10.798300
  H    -143.787000   30.315400  -11.923300
  H    -144.026000   29.758200  -16.908500
  H    -148.958000   28.901400  -10.496200

 Total Charge           Charge          ....    0
 Multiplicity           Mult            ....    1
 Number of Electrons    NEL             ....  134
 Basis Dimension        Dim             ....  322

ORBITAL ENERGIES
----------------

  NO   OCC          E(Eh)            E(eV)
   0   2.0000     -88.968202     -2420.9479
   1   2.0000     -88.962977     -2420.8057
   2   2.0000     -10.329642      -281.0838
   3   2.0000     -10.316951      -280.7385
   4   2.0000     -10.315101      -280.6882
   5   2.0000     -10.312927      -280.6290
   6   2.0000     -10.305559      -280.4285
   7   2.0000     -10.303357      -280.3686
   8   2.0000     -10.300482      -280.2904
   9   2.0000     -10.297380      -280.2060
  10   2.0000     -10.291927      -280.0576
  11   2.0000     -10.290991      -280.0321
  12   2.0000     -10.280978      -279.7596
  13   2.0000     -10.277369      -279.6614
  14   2.0000     -10.273947      -279.5683
  15   2.0000     -10.269058      -279.4353
  16   2.0000      -8.082290      -219.9303
  17   2.0000      -8.079037      -219.8418
  18   2.0000      -6.040750      -164.3772
  19   2.0000      -6.037533      -164.2896
  20   2.0000      -6.036962      -164.2741
  21   2.0000      -6.033471      -164.1791
  22   2.0000      -6.033080      -164.1685
  23   2.0000      -6.029583      -164.0733
  24   2.0000      -1.011765       -27.5315
  25   2.0000      -0.979300       -26.6481
  26   2.0000      -0.907969       -24.7071
  27   2.0000      -0.895801       -24.3760
  28   2.0000      -0.874530       -23.7972
  29   2.0000      -0.852767       -23.2050
  30   2.0000      -0.842883       -22.9360
  31   2.0000      -0.812102       -22.0984
  32   2.0000      -0.779653       -21.2154
  33   2.0000      -0.766436       -20.8558
  34   2.0000      -0.710358       -19.3298
  35   2.0000      -0.699452       -19.0331
  36   2.0000      -0.685346       -18.6492
  37   2.0000      -0.668447       -18.1894
  38   2.0000      -0.645791       -17.5729
  39   2.0000      -0.618914       -16.8415
  40   2.0000      -0.592863       -16.1326
  41   2.0000      -0.560409       -15.2495
  42   2.0000      -0.557682       -15.1753
  43   2.0000      -0.547270       -14.8920
  44   2.0000      -0.535708       -14.5774
  45   2.0000      -0.523899       -14.2560
  46   2.0000      -0.512403       -13.9432
  47   2.0000      -0.505621       -13.7586
  48   2.0000      -0.499668       -13.5966
  49   2.0000      -0.499125       -13.5819
  50   2.0000      -0.487265       -13.2591
  51   2.0000      -0.481206       -13.0943
  52   2.0000      -0.468231       -12.7412
  53   2.0000      -0.461594       -12.5606
  54   2.0000      -0.459470       -12.5028
  55   2.0000      -0.449928       -12.2432
  56   2.0000      -0.447546       -12.1784
  57   2.0000      -0.440847       -11.9961
  58   2.0000      -0.431270       -11.7354
  59   2.0000      -0.421661       -11.4740
  60   2.0000      -0.420513       -11.4427
  61   2.0000      -0.415425       -11.3043
  62   2.0000      -0.406843       -11.0708
  63   2.0000      -0.349788        -9.5182
  64   2.0000      -0.330089        -8.9822
  65   2.0000      -0.322713        -8.7815
  66   2.0000      -0.293931        -7.9983
  67   0.0000       0.033699         0.9170
  68   0.0000       0.068110         1.8534
  69   0.0000       0.106107         2.8873
  70   0.0000       0.109963         2.9922
  71   0.0000       0.135765         3.6943

MULLIKEN ATOMIC CHARGES
-----------------------
   0 S :    0.112208
   1 C :   -0.107517
   2 C :   -0.099659
   3 C :    0.066584
   4 C :   -0.171777
   5 H :   -0.000232
   6 C :    0.047245
   7 H :    0.028181
   8 H :    0.025128
   9 C :   -0.008854
  10 H :    0.005640
  11 H :    0.011577
  12 C :   -0.046110
  13 H :    0.022643
  14 H :    0.024081
  15 H :    0.032135
  16 S :    0.113421
  17 C :   -0.091947
  18 C :   -0.022153
  19 C :   -0.037992
  20 C :   -0.145885
  21 H :    0.009070
  22 C :    0.046847
  23 H :    0.029814
  24 H :    0.025574
  25 C :   -0.073976
  26 H :    0.030216
  27 H :   -0.001818
  28 C :   -0.022902
  29 H :    0.026575
  30 H :    0.020047
  31 H :    0.048159
  32 H :    0.045204
  33 H :    0.060473
Sum of atomic charges:    0.0000000

LOEWDIN ATOMIC CHARGES
----------------------
   0 S :    0.389764
   1 C :   -0.212507
   2 C :   -0.061628
   3 C :   -0.041552
   4 C :   -0.176176
   5 H :    0.024417
   6 C :   -0.033055
   7 H :    0.034643
   8 H :    0.030855
   9 C :   -0.035643
  10 H :    0.018713
  11 H :    0.022627
  12 C :   -0.060884
  13 H :    0.026471
  14 H :    0.014429
  15 H :    0.029461
  16 S :    0.428200
  17 C :   -0.183571
  18 C :   -0.063243
  19 C :   -0.058944
  20 C :   -0.216178
  21 H :    0.028158
  22 C :   -0.036611
  23 H :    0.029152
  24 H :    0.034130
  25 C :   -0.037476
  26 H :    0.029462
  27 H :    0.005184
  28 C :   -0.059656
  29 H :    0.024411
  30 H :    0.025816
  31 H :    0.022253
  32 H :    0.025391
  33 H :    0.033590

  Mayer bond orders larger than 0.100000
B(  0-S ,  1-C ) :   1.1514 B(  0-S ,  4-C ) :   1.1171 B(  1-C ,  2-C ) :   1.6206
B(  1-C , 32-H ) :   0.9657 B(  2-C ,  3-C ) :   1.2167 B(  2-C ,  6-C ) :   1.0146
B(  3-C ,  4-C ) :   1.6152 B(  3-C ,  5-H ) :   0.9984 B(  4-C , 20-C ) :   1.0075
B(  6-C ,  7-H ) :   0.9476 B(  6-C ,  8-H ) :   0.9455 B(  6-C ,  9-C ) :   1.0574
B(  9-C , 10-H ) :   0.9539 B(  9-C , 11-H ) :   0.9472 B(  9-C , 12-C ) :   1.0888
B( 12-C , 13-H ) :   0.9718 B( 12-C , 14-H ) :   0.9770 B( 12-C , 15-H ) :   0.9751
B( 16-S , 17-C ) :   1.1430 B( 16-S , 20-C ) :   1.1604 B( 17-C , 18-C ) :   1.6353
B( 17-C , 33-H ) :   0.9639 B( 18-C , 19-C ) :   1.2192 B( 18-C , 21-H ) :   0.9964
B( 19-C , 20-C ) :   1.6267 B( 19-C , 22-C ) :   1.0437 B( 22-C , 23-H ) :   0.9399
B( 22-C , 24-H ) :   0.9370 B( 22-C , 25-C ) :   1.0572 B( 25-C , 26-H ) :   0.9567
B( 25-C , 27-H ) :   0.9544 B( 25-C , 28-C ) :   1.0837 B( 28-C , 29-H ) :   0.9783
B( 28-C , 30-H ) :   0.9703 B( 28-C , 31-H ) :   0.9698

Dispersion correction           -0.014879941
FINAL SINGLE POINT ENERGY     -1339.861336694993

DIPOLE MOMENT
-------------
                                X             Y             Z
Electronic contribution:    -17.93745      15.33921       3.02074
Nuclear contribution   :     18.17541     -15.84975      -2.93236
                        -----------------------------------------
Total Dipole Moment    :      0.23796      -0.51054       0.08839
                        -----------------------------------------
Magnitude (a.u.)       :      0.57016
Magnitude (Debye)      :      1.44924

Rotational constants in cm-1:     0.019177     0.008043     0.007651
Rotational constants in MHz :   574.913561   241.122895   229.367458

                             ****ORCA TERMINATED NORMALLY****
TOTAL RUN TIME: 0 days 0 hours 0 minutes 20 seconds 510 msec
