                         Program Version 4.2.1 -  RELEASE  -
|  1> ! wB97X-D3 SP def2-SVP
|  2> %pal
|  3> nprocs 24
|  4> end
|  5>
|  6> * xyz 0 1
|  7> S 	 -97.3773 	 48.4105 	 -100.138
|  8> C 	 -96.2676 	 47.4889 	 -99.0802
|  9> C 	 -95.0297 	 48.1513 	 -98.9157
| 10> C 	 -95.0826 	 49.494 	 -99.5519
| 11> C 	 -96.2188 	 49.7199 	 -100.32
| 12> H 	 -94.2719 	 50.1689 	 -99.644
| 13> C 	 -93.8006 	 47.7006 	 -98.1188
| 14> H 	 -92.8743 	 47.9279 	 -98.6586
| 15> H 	 -93.8221 	 46.6018 	 -98.0168
| 16> C 	 -93.9236 	 48.2998 	 -96.7391
| 17> H 	 -94.1215 	 49.4003 	 -96.8018
| 18> H 	 -94.817 	 47.8575 	 -96.2074
| 19> C 	 -92.665 	 47.9998 	 -95.9326
| 20> H 	 -92.6767 	 48.444 	 -94.9602
| 21> H 	 -92.522 	 47.0301 	 -95.6248
| 22> H 	 -91.7149 	 48.3131 	 -96.3546
| 23> S 	 -96.2725 	 51.2166 	 -102.584
| 24> C 	 -97.1905 	 52.7067 	 -102.536
| 25> C 	 -97.5593 	 53.0843 	 -101.267
| 26> C 	 -97.2525 	 52.0429 	 -100.306
| 27> C 	 -96.5956 	 50.9646 	 -100.906
| 28> H 	 -98.0001 	 54.0508 	 -101.046
| 29> C 	 -97.5119 	 52.181 	 -98.8082
| 30> H 	 -97.2136 	 51.2456 	 -98.308
| 31> H 	 -98.5056 	 52.3499 	 -98.6522
| 32> C 	 -96.8564 	 53.2776 	 -98.025
| 33> H 	 -97.2664 	 54.2543 	 -98.4262
| 34> H 	 -95.7564 	 53.3176 	 -98.2757
| 35> C 	 -97.0949 	 53.2606 	 -96.4738
| 36> H 	 -96.5872 	 54.1837 	 -95.9454
| 37> H 	 -96.6868 	 52.3589 	 -96.0186
| 38> H 	 -98.1553 	 53.308 	 -96.2124
| 39> H 	 -96.492 	 46.5128 	 -98.7785
| 40> H 	 -97.2187 	 53.3815 	 -103.363
| 41> *
| 42>
| 43>                          ****END OF INPUT****

CARTESIAN COORDINATES (ANGSTROEM)
---------------------------------
  S    -97.377300   48.410500  -100.138000
  C    -96.267600   47.488900  -99.080200
  C    -95.029700   48.151300  -98.915700
  C    -95.082600   49.494000  -99.551900
  C    -96.218800   49.719900  -100.320000
  H    -94.271900   50.168900  -99.644000
  C    -93.800600   47.700600  -98.118800
  H    -92.874300   47.927900  -98.658600
  H    -93.822100   46.601800  -98.016800
  C    -93.923600   48.299800  -96.739100
  H    -94.121500   49.400300  -96.801800
  H    -94.817000   47.857500  -96.207400
  C    -92.665000   47.999800  -95.932600
  H    -92.676700   48.444000  -94.960200
  H    -92.522000   47.030100  -95.624800
  H    -91.714900   48.313100  -96.354600
  S    -96.272500   51.216600  -102.584000
  C    -97.190500   52.706700  -102.536000
  C    -97.559300   53.084300  -101.267000
  C    -97.252500   52.042900  -100.306000
  C    -96.595600   50.964600  -100.906000
  H    -98.000100   54.050800  -101.046000
  C    -97.511900   52.181000  -98.808200
  H    -97.213600   51.245600  -98.308000
  H    -98.505600   52.349900  -98.652200
  C    -96.856400   53.277600  -98.025000
  H    -97.266400   54.254300  -98.426200
  H    -95.756400   53.317600  -98.275700
  C    -97.094900   53.260600  -96.473800
  H    -96.587200   54.183700  -95.945400
  H    -96.686800   52.358900  -96.018600
  H    -98.155300   53.308000  -96.212400
  H    -96.492000   46.512800  -98.778500
  H    -97.218700   53.381500  -103.363000

 Total Charge           Charge          ....    0
 Multiplicity           Mult            ....    1
 Number of Electrons    NEL             ....  134
 Basis Dimension        Dim             ....  322

ORBITAL ENERGIES
----------------

  NO   OCC          E(Eh)            E(eV)
   0   2.0000     -88.965562     -2420.8760
   1   2.0000     -88.963572     -2420.8219
   2   2.0000     -10.325084      -280.9598
   3   2.0000     -10.320554      -280.8365
   4   2.0000     -10.317967      -280.7661
   5   2.0000     -10.314825      -280.6807
   6   2.0000     -10.311992      -280.6036
   7   2.0000     -10.306131      -280.4441
   8   2.0000     -10.296887      -280.1925
   9   2.0000     -10.296471      -280.1812
  10   2.0000     -10.296417      -280.1798
  11   2.0000     -10.294550      -280.1289
  12   2.0000     -10.293040      -280.0879
  13   2.0000     -10.291027      -280.0331
  14   2.0000     -10.279779      -279.7270
  15   2.0000     -10.267599      -279.3956
  16   2.0000      -8.080897      -219.8924
  17   2.0000      -8.077547      -219.8012
  18   2.0000      -6.039264      -164.3367
  19   2.0000      -6.036135      -164.2516
  20   2.0000      -6.035427      -164.2323
  21   2.0000      -6.032104      -164.1419
  22   2.0000      -6.031660      -164.1298
  23   2.0000      -6.028321      -164.0389
  24   2.0000      -1.004254       -27.3271
  25   2.0000      -0.974529       -26.5183
  26   2.0000      -0.915558       -24.9136
  27   2.0000      -0.908375       -24.7181
  28   2.0000      -0.870247       -23.6806
  29   2.0000      -0.845395       -23.0044
  30   2.0000      -0.842438       -22.9239
  31   2.0000      -0.812644       -22.1132
  32   2.0000      -0.784898       -21.3581
  33   2.0000      -0.771377       -20.9902
  34   2.0000      -0.704462       -19.1694
  35   2.0000      -0.700164       -19.0524
  36   2.0000      -0.690494       -18.7893
  37   2.0000      -0.659165       -17.9368
  38   2.0000      -0.648693       -17.6518
  39   2.0000      -0.615393       -16.7457
  40   2.0000      -0.597476       -16.2581
  41   2.0000      -0.571511       -15.5516
  42   2.0000      -0.567595       -15.4451
  43   2.0000      -0.556819       -15.1518
  44   2.0000      -0.522802       -14.2262
  45   2.0000      -0.520522       -14.1641
  46   2.0000      -0.516087       -14.0434
  47   2.0000      -0.508645       -13.8409
  48   2.0000      -0.506704       -13.7881
  49   2.0000      -0.499109       -13.5814
  50   2.0000      -0.493045       -13.4164
  51   2.0000      -0.472711       -12.8631
  52   2.0000      -0.471119       -12.8198
  53   2.0000      -0.462145       -12.5756
  54   2.0000      -0.456370       -12.4185
  55   2.0000      -0.454052       -12.3554
  56   2.0000      -0.448026       -12.1914
  57   2.0000      -0.438739       -11.9387
  58   2.0000      -0.431966       -11.7544
  59   2.0000      -0.423411       -11.5216
  60   2.0000      -0.420460       -11.4413
  61   2.0000      -0.415953       -11.3187
  62   2.0000      -0.410754       -11.1772
  63   2.0000      -0.334780        -9.1098
  64   2.0000      -0.328689        -8.9441
  65   2.0000      -0.315889        -8.5958
  66   2.0000      -0.311482        -8.4759
  67   0.0000       0.048001         1.3062
  68   0.0000       0.050690         1.3793
  69   0.0000       0.109860         2.9894
  70   0.0000       0.116352         3.1661
  71   0.0000       0.119170         3.2428

MULLIKEN ATOMIC CHARGES
-----------------------
   0 S :    0.107150
   1 C :   -0.112826
   2 C :   -0.087701
   3 C :    0.042339
   4 C :   -0.161160
   5 H :    0.005790
   6 C :    0.068879
   7 H :    0.038089
   8 H :    0.024513
   9 C :   -0.102781
  10 H :    0.041609
  11 H :    0.039779
  12 C :    0.012632
  13 H :    0.012577
  14 H :    0.003423
  15 H :    0.021991
  16 S :    0.119878
  17 C :   -0.081972
  18 C :   -0.034313
  19 C :   -0.013501
  20 C :   -0.201735
  21 H :    0.025123
  22 C :    0.133280
  23 H :    0.027381
  24 H :   -0.001104
  25 C :   -0.113779
  26 H :    0.022861
  27 H :    0.035371
  28 C :   -0.079746
  29 H :    0.053296
  30 H :    0.038080
  31 H :    0.035624
  32 H :    0.032293
  33 H :    0.048662
Sum of atomic charges:    0.0000000

LOEWDIN ATOMIC CHARGES
----------------------
   0 S :    0.388515
   1 C :   -0.181235
   2 C :   -0.048697
   3 C :   -0.054596
   4 C :   -0.200490
   5 H :    0.024416
   6 C :   -0.033342
   7 H :    0.032705
   8 H :    0.032590
   9 C :   -0.040531
  10 H :    0.028723
  11 H :    0.034919
  12 C :   -0.068851
  13 H :    0.025888
  14 H :    0.015264
  15 H :    0.025071
  16 S :    0.418997
  17 C :   -0.179356
  18 C :   -0.066514
  19 C :   -0.041543
  20 C :   -0.218846
  21 H :    0.033630
  22 C :   -0.032342
  23 H :    0.033735
  24 H :    0.018589
  25 C :   -0.046361
  26 H :    0.021443
  27 H :    0.025870
  28 C :   -0.072443
  29 H :    0.041578
  30 H :    0.023065
  31 H :    0.024146
  32 H :    0.014021
  33 H :    0.021980

  Mayer bond orders larger than 0.100000
B(  0-S ,  1-C ) :   1.1350 B(  0-S ,  4-C ) :   1.1351 B(  1-C ,  2-C ) :   1.6209
B(  1-C , 32-H ) :   0.9760 B(  2-C ,  3-C ) :   1.2023 B(  2-C ,  6-C ) :   1.0304
B(  3-C ,  4-C ) :   1.6176 B(  3-C ,  5-H ) :   0.9907 B(  4-C , 20-C ) :   1.0158
B(  6-C ,  7-H ) :   0.9461 B(  6-C ,  8-H ) :   0.9387 B(  6-C ,  9-C ) :   1.0567
B(  9-C , 10-H ) :   0.9615 B(  9-C , 11-H ) :   0.9508 B(  9-C , 12-C ) :   1.0807
B( 12-C , 13-H ) :   0.9656 B( 12-C , 14-H ) :   0.9677 B( 12-C , 15-H ) :   0.9732
B( 16-S , 17-C ) :   1.1569 B( 16-S , 20-C ) :   1.1503 B( 17-C , 18-C ) :   1.6184
B( 17-C , 33-H ) :   0.9675 B( 18-C , 19-C ) :   1.2255 B( 18-C , 21-H ) :   0.9899
B( 19-C , 20-C ) :   1.6041 B( 19-C , 22-C ) :   1.0510 B( 22-C , 23-H ) :   0.9297
B( 22-C , 24-H ) :   0.9188 B( 22-C , 25-C ) :   1.0652 B( 25-C , 26-H ) :   0.9509
B( 25-C , 27-H ) :   0.9565 B( 25-C , 28-C ) :   1.0734 B( 28-C , 29-H ) :   0.9748
B( 28-C , 30-H ) :   0.9761 B( 28-C , 31-H ) :   0.9748

Dispersion correction           -0.014305521
FINAL SINGLE POINT ENERGY     -1339.873748811562

DIPOLE MOMENT
-------------
                                X             Y             Z
Electronic contribution:    -10.60851      -4.80861     -28.54610
Nuclear contribution   :     10.92761       4.99026      29.12497
                        -----------------------------------------
Total Dipole Moment    :      0.31910       0.18165       0.57887
                        -----------------------------------------
Magnitude (a.u.)       :      0.68550
Magnitude (Debye)      :      1.74241

Rotational constants in cm-1:     0.017119     0.008834     0.006873
Rotational constants in MHz :   513.205870   264.827745   206.033612

                             ****ORCA TERMINATED NORMALLY****
TOTAL RUN TIME: 0 days 0 hours 0 minutes 21 seconds 455 msec
