                         Program Version 4.2.1 -  RELEASE  -
|  1> ! wB97X-D3 SP def2-SVP
|  2> %pal
|  3> nprocs 24
|  4> end
|  5>
|  6> * xyz 0 1
|  7> S 	 -2.97656 	 -28.5968 	 -108.419
|  8> C 	 -2.3932 	 -27.0784 	 -109.062
|  9> C 	 -3.25666 	 -26.0525 	 -108.807
| 10> C 	 -4.34608 	 -26.4889 	 -107.978
| 11> C 	 -4.34199 	 -27.8436 	 -107.571
| 12> H 	 -5.23441 	 -25.8782 	 -107.73
| 13> C 	 -3.01517 	 -24.5246 	 -109.204
| 14> H 	 -2.20498 	 -24.3577 	 -109.872
| 15> H 	 -2.61002 	 -24.108 	 -108.323
| 16> C 	 -4.31625 	 -23.7905 	 -109.561
| 17> H 	 -4.99499 	 -23.9693 	 -108.774
| 18> H 	 -4.14811 	 -22.6632 	 -109.639
| 19> C 	 -4.93293 	 -24.3363 	 -110.832
| 20> H 	 -5.99691 	 -23.9043 	 -111.057
| 21> H 	 -4.30416 	 -24.2288 	 -111.8
| 22> H 	 -4.83583 	 -25.4216 	 -110.717
| 23> S 	 -4.70274 	 -30.0475 	 -105.989
| 24> C 	 -6.06496 	 -30.3063 	 -105.008
| 25> C 	 -6.74154 	 -29.128 	 -104.863
| 26> C 	 -6.31756 	 -28.0756 	 -105.763
| 27> C 	 -5.23353 	 -28.4926 	 -106.59
| 28> H 	 -7.47715 	 -29.0593 	 -104.099
| 29> C 	 -6.93408 	 -26.7101 	 -105.832
| 30> H 	 -6.10653 	 -26.0251 	 -105.928
| 31> H 	 -7.25504 	 -26.5107 	 -104.855
| 32> C 	 -8.06423 	 -26.484 	 -106.857
| 33> H 	 -7.90356 	 -26.8286 	 -107.861
| 34> H 	 -8.36051 	 -25.4396 	 -107.03
| 35> C 	 -9.42453 	 -27.1274 	 -106.558
| 36> H 	 -9.83926 	 -26.4669 	 -105.745
| 37> H 	 -9.37758 	 -28.1746 	 -106.266
| 38> H 	 -10.2004 	 -27.1225 	 -107.335
| 39> H 	 -1.51133 	 -27.0217 	 -109.688
| 40> H 	 -6.21951 	 -31.1896 	 -104.347
| 41> *
| 42>
| 43>                          ****END OF INPUT****

CARTESIAN COORDINATES (ANGSTROEM)
---------------------------------
  S     -2.976560  -28.596800  -108.419000
  C     -2.393200  -27.078400  -109.062000
  C     -3.256660  -26.052500  -108.807000
  C     -4.346080  -26.488900  -107.978000
  C     -4.341990  -27.843600  -107.571000
  H     -5.234410  -25.878200  -107.730000
  C     -3.015170  -24.524600  -109.204000
  H     -2.204980  -24.357700  -109.872000
  H     -2.610020  -24.108000  -108.323000
  C     -4.316250  -23.790500  -109.561000
  H     -4.994990  -23.969300  -108.774000
  H     -4.148110  -22.663200  -109.639000
  C     -4.932930  -24.336300  -110.832000
  H     -5.996910  -23.904300  -111.057000
  H     -4.304160  -24.228800  -111.800000
  H     -4.835830  -25.421600  -110.717000
  S     -4.702740  -30.047500  -105.989000
  C     -6.064960  -30.306300  -105.008000
  C     -6.741540  -29.128000  -104.863000
  C     -6.317560  -28.075600  -105.763000
  C     -5.233530  -28.492600  -106.590000
  H     -7.477150  -29.059300  -104.099000
  C     -6.934080  -26.710100  -105.832000
  H     -6.106530  -26.025100  -105.928000
  H     -7.255040  -26.510700  -104.855000
  C     -8.064230  -26.484000  -106.857000
  H     -7.903560  -26.828600  -107.861000
  H     -8.360510  -25.439600  -107.030000
  C     -9.424530  -27.127400  -106.558000
  H     -9.839260  -26.466900  -105.745000
  H     -9.377580  -28.174600  -106.266000
  H    -10.200400  -27.122500  -107.335000
  H     -1.511330  -27.021700  -109.688000
  H     -6.219510  -31.189600  -104.347000

 Total Charge           Charge          ....    0
 Multiplicity           Mult            ....    1
 Number of Electrons    NEL             ....  134
 Basis Dimension        Dim             ....  322

ORBITAL ENERGIES
----------------

  NO   OCC          E(Eh)            E(eV)
   0   2.0000     -88.968302     -2420.9506
   1   2.0000     -88.963987     -2420.8332
   2   2.0000     -10.342745      -281.4404
   3   2.0000     -10.337457      -281.2965
   4   2.0000     -10.317379      -280.7501
   5   2.0000     -10.316522      -280.7268
   6   2.0000     -10.312027      -280.6045
   7   2.0000     -10.309694      -280.5410
   8   2.0000     -10.301369      -280.3145
   9   2.0000     -10.295629      -280.1583
  10   2.0000     -10.294619      -280.1308
  11   2.0000     -10.292716      -280.0790
  12   2.0000     -10.290454      -280.0175
  13   2.0000     -10.288355      -279.9604
  14   2.0000     -10.287430      -279.9352
  15   2.0000     -10.279078      -279.7079
  16   2.0000      -8.082462      -219.9350
  17   2.0000      -8.079871      -219.8645
  18   2.0000      -6.041163      -164.3884
  19   2.0000      -6.038315      -164.3109
  20   2.0000      -6.036996      -164.2750
  21   2.0000      -6.034147      -164.1975
  22   2.0000      -6.033086      -164.1686
  23   2.0000      -6.030684      -164.1033
  24   2.0000      -1.008568       -27.4445
  25   2.0000      -0.987165       -26.8621
  26   2.0000      -0.912825       -24.8392
  27   2.0000      -0.911939       -24.8151
  28   2.0000      -0.872782       -23.7496
  29   2.0000      -0.852658       -23.2020
  30   2.0000      -0.837969       -22.8023
  31   2.0000      -0.816834       -22.2272
  32   2.0000      -0.786076       -21.3902
  33   2.0000      -0.776414       -21.1273
  34   2.0000      -0.710925       -19.3453
  35   2.0000      -0.698025       -18.9942
  36   2.0000      -0.689588       -18.7646
  37   2.0000      -0.664361       -18.0782
  38   2.0000      -0.636771       -17.3274
  39   2.0000      -0.625653       -17.0249
  40   2.0000      -0.595553       -16.2058
  41   2.0000      -0.572059       -15.5665
  42   2.0000      -0.553751       -15.0683
  43   2.0000      -0.552996       -15.0478
  44   2.0000      -0.552537       -15.0353
  45   2.0000      -0.532570       -14.4920
  46   2.0000      -0.521103       -14.1799
  47   2.0000      -0.509462       -13.8632
  48   2.0000      -0.503817       -13.7096
  49   2.0000      -0.501098       -13.6356
  50   2.0000      -0.487253       -13.2588
  51   2.0000      -0.483613       -13.1598
  52   2.0000      -0.479690       -13.0530
  53   2.0000      -0.468584       -12.7508
  54   2.0000      -0.456830       -12.4310
  55   2.0000      -0.450662       -12.2631
  56   2.0000      -0.441128       -12.0037
  57   2.0000      -0.438256       -11.9256
  58   2.0000      -0.428203       -11.6520
  59   2.0000      -0.423516       -11.5244
  60   2.0000      -0.417294       -11.3551
  61   2.0000      -0.409817       -11.1517
  62   2.0000      -0.405129       -11.0241
  63   2.0000      -0.366679        -9.9778
  64   2.0000      -0.331894        -9.0313
  65   2.0000      -0.327874        -8.9219
  66   2.0000      -0.284354        -7.7377
  67   0.0000       0.013615         0.3705
  68   0.0000       0.090452         2.4613
  69   0.0000       0.100323         2.7299
  70   0.0000       0.114970         3.1285
  71   0.0000       0.130077         3.5396

MULLIKEN ATOMIC CHARGES
-----------------------
   0 S :    0.105122
   1 C :   -0.136044
   2 C :   -0.082006
   3 C :   -0.045305
   4 C :   -0.107662
   5 H :    0.033746
   6 C :    0.104130
   7 H :    0.011082
   8 H :    0.029142
   9 C :   -0.065010
  10 H :    0.021512
  11 H :    0.041666
  12 C :   -0.102853
  13 H :    0.059034
  14 H :    0.032849
  15 H :    0.041943
  16 S :    0.092135
  17 C :   -0.091234
  18 C :   -0.025263
  19 C :   -0.091967
  20 C :   -0.120859
  21 H :    0.006574
  22 C :    0.126810
  23 H :    0.021221
  24 H :   -0.004031
  25 C :   -0.042673
  26 H :    0.026630
  27 H :    0.026442
  28 C :   -0.094532
  29 H :    0.026424
  30 H :    0.037978
  31 H :    0.035574
  32 H :    0.053015
  33 H :    0.076410
Sum of atomic charges:   -0.0000000

LOEWDIN ATOMIC CHARGES
----------------------
   0 S :    0.393676
   1 C :   -0.193497
   2 C :   -0.065373
   3 C :   -0.077259
   4 C :   -0.183733
   5 H :    0.031477
   6 C :   -0.018097
   7 H :    0.024277
   8 H :    0.030936
   9 C :   -0.044813
  10 H :    0.017029
  11 H :    0.032042
  12 C :   -0.086538
  13 H :    0.037648
  14 H :    0.030786
  15 H :    0.028358
  16 S :    0.427014
  17 C :   -0.206895
  18 C :   -0.073578
  19 C :   -0.052831
  20 C :   -0.189664
  21 H :    0.026141
  22 C :   -0.029013
  23 H :    0.031962
  24 H :    0.026729
  25 C :   -0.044922
  26 H :    0.023310
  27 H :    0.028055
  28 C :   -0.071896
  29 H :    0.025493
  30 H :    0.021899
  31 H :    0.027474
  32 H :    0.030636
  33 H :    0.043165

  Mayer bond orders larger than 0.100000
B(  0-S ,  1-C ) :   1.1385 B(  0-S ,  4-C ) :   1.1418 B(  1-C ,  2-C ) :   1.6149
B(  1-C , 32-H ) :   0.9669 B(  2-C ,  3-C ) :   1.2475 B(  2-C ,  6-C ) :   0.9932
B(  3-C ,  4-C ) :   1.5678 B(  3-C ,  5-H ) :   0.9728 B(  4-C , 20-C ) :   1.1021
B(  6-C ,  7-H ) :   0.9489 B(  6-C ,  8-H ) :   0.9393 B(  6-C ,  9-C ) :   1.0716
B(  9-C , 10-H ) :   0.9513 B(  9-C , 11-H ) :   0.9523 B(  9-C , 12-C ) :   1.0711
B( 12-C , 13-H ) :   0.9720 B( 12-C , 14-H ) :   0.9714 B( 12-C , 15-H ) :   0.9704
B( 16-S , 17-C ) :   1.1719 B( 16-S , 20-C ) :   1.1593 B( 17-C , 18-C ) :   1.5780
B( 17-C , 33-H ) :   0.9621 B( 18-C , 19-C ) :   1.2705 B( 18-C , 21-H ) :   0.9969
B( 19-C , 20-C ) :   1.5220 B( 19-C , 22-C ) :   1.0440 B( 22-C , 23-H ) :   0.9286
B( 22-C , 24-H ) :   0.9227 B( 22-C , 25-C ) :   1.0472 B( 25-C , 26-H ) :   0.9606
B( 25-C , 27-H ) :   0.9600 B( 25-C , 28-C ) :   1.0705 B( 28-C , 29-H ) :   0.9795
B( 28-C , 30-H ) :   0.9760 B( 28-C , 31-H ) :   0.9757

Dispersion correction           -0.014540470
FINAL SINGLE POINT ENERGY     -1339.856633515835

DIPOLE MOMENT
-------------
                                X             Y             Z
Electronic contribution:     16.66801     -23.62758       7.17643
Nuclear contribution   :    -16.89533      24.22680      -6.98760
                        -----------------------------------------
Total Dipole Moment    :     -0.22733       0.59923       0.18883
                        -----------------------------------------
Magnitude (a.u.)       :      0.66814
Magnitude (Debye)      :      1.69826

Rotational constants in cm-1:     0.017952     0.009720     0.006733
Rotational constants in MHz :   538.194049   291.385470   201.843124

                             ****ORCA TERMINATED NORMALLY****
TOTAL RUN TIME: 0 days 0 hours 0 minutes 22 seconds 21 msec
