                         Program Version 4.2.1 -  RELEASE  -
|  1> ! wB97X-D3 SP def2-SVP
|  2> %pal
|  3> nprocs 24
|  4> end
|  5>
|  6> * xyz 0 1
|  7> S 	 -106.64 	 50.1375 	 -71.6938
|  8> C 	 -107.606 	 49.8334 	 -73.137
|  9> C 	 -108.682 	 50.6691 	 -73.1638
| 10> C 	 -108.693 	 51.7131 	 -72.1397
| 11> C 	 -107.683 	 51.5406 	 -71.2907
| 12> H 	 -109.409 	 52.5279 	 -72.0502
| 13> C 	 -109.671 	 50.7278 	 -74.3189
| 14> H 	 -110.669 	 50.893 	 -74.0448
| 15> H 	 -109.785 	 49.783 	 -74.8676
| 16> C 	 -109.422 	 51.8047 	 -75.38
| 17> H 	 -109.326 	 52.7918 	 -74.9862
| 18> H 	 -108.545 	 51.6069 	 -75.8991
| 19> C 	 -110.513 	 51.8717 	 -76.4259
| 20> H 	 -111.394 	 52.3928 	 -75.9726
| 21> H 	 -110.321 	 52.5148 	 -77.2894
| 22> H 	 -110.918 	 50.93 	 -76.7398
| 23> S 	 -106.637 	 51.4731 	 -68.7465
| 24> C 	 -106.522 	 53.0635 	 -67.9219
| 25> C 	 -106.943 	 54.1529 	 -68.6494
| 26> C 	 -107.465 	 53.7149 	 -69.8985
| 27> C 	 -107.264 	 52.3627 	 -70.1562
| 28> H 	 -106.911 	 55.2229 	 -68.3493
| 29> C 	 -108.04 	 54.7966 	 -70.8464
| 30> H 	 -108.3 	 55.7221 	 -70.3017
| 31> H 	 -108.907 	 54.4846 	 -71.3312
| 32> C 	 -107.05 	 55.1846 	 -71.9546
| 33> H 	 -106.792 	 54.268 	 -72.5575
| 34> H 	 -106.128 	 55.6054 	 -71.5513
| 35> C 	 -107.708 	 56.178 	 -72.8109
| 36> H 	 -108.704 	 55.8692 	 -73.0358
| 37> H 	 -107.165 	 56.3321 	 -73.687
| 38> H 	 -107.635 	 57.0726 	 -72.3199
| 39> H 	 -107.426 	 48.984 	 -73.7986
| 40> H 	 -106.187 	 53.1878 	 -66.9472
| 41> *
| 42>
| 43>                          ****END OF INPUT****

CARTESIAN COORDINATES (ANGSTROEM)
---------------------------------
  S    -106.640000   50.137500  -71.693800
  C    -107.606000   49.833400  -73.137000
  C    -108.682000   50.669100  -73.163800
  C    -108.693000   51.713100  -72.139700
  C    -107.683000   51.540600  -71.290700
  H    -109.409000   52.527900  -72.050200
  C    -109.671000   50.727800  -74.318900
  H    -110.669000   50.893000  -74.044800
  H    -109.785000   49.783000  -74.867600
  C    -109.422000   51.804700  -75.380000
  H    -109.326000   52.791800  -74.986200
  H    -108.545000   51.606900  -75.899100
  C    -110.513000   51.871700  -76.425900
  H    -111.394000   52.392800  -75.972600
  H    -110.321000   52.514800  -77.289400
  H    -110.918000   50.930000  -76.739800
  S    -106.637000   51.473100  -68.746500
  C    -106.522000   53.063500  -67.921900
  C    -106.943000   54.152900  -68.649400
  C    -107.465000   53.714900  -69.898500
  C    -107.264000   52.362700  -70.156200
  H    -106.911000   55.222900  -68.349300
  C    -108.040000   54.796600  -70.846400
  H    -108.300000   55.722100  -70.301700
  H    -108.907000   54.484600  -71.331200
  C    -107.050000   55.184600  -71.954600
  H    -106.792000   54.268000  -72.557500
  H    -106.128000   55.605400  -71.551300
  C    -107.708000   56.178000  -72.810900
  H    -108.704000   55.869200  -73.035800
  H    -107.165000   56.332100  -73.687000
  H    -107.635000   57.072600  -72.319900
  H    -107.426000   48.984000  -73.798600
  H    -106.187000   53.187800  -66.947200

 Total Charge           Charge          ....    0
 Multiplicity           Mult            ....    1
 Number of Electrons    NEL             ....  134
 Basis Dimension        Dim             ....  322

ORBITAL ENERGIES
----------------

  NO   OCC          E(Eh)            E(eV)
   0   2.0000     -88.970458     -2421.0092
   1   2.0000     -88.961289     -2420.7598
   2   2.0000     -10.329174      -281.0711
   3   2.0000     -10.328001      -281.0392
   4   2.0000     -10.316858      -280.7360
   5   2.0000     -10.314964      -280.6844
   6   2.0000     -10.304560      -280.4013
   7   2.0000     -10.304517      -280.4002
   8   2.0000     -10.298116      -280.2260
   9   2.0000     -10.294354      -280.1236
  10   2.0000     -10.291541      -280.0471
  11   2.0000     -10.287051      -279.9249
  12   2.0000     -10.280411      -279.7442
  13   2.0000     -10.276987      -279.6510
  14   2.0000     -10.275873      -279.6207
  15   2.0000     -10.258455      -279.1468
  16   2.0000      -8.083924      -219.9748
  17   2.0000      -8.075769      -219.7528
  18   2.0000      -6.042499      -164.4248
  19   2.0000      -6.038916      -164.3273
  20   2.0000      -6.034511      -164.2074
  21   2.0000      -6.034378      -164.2038
  22   2.0000      -6.030485      -164.0978
  23   2.0000      -6.026131      -163.9794
  24   2.0000      -1.004064       -27.3220
  25   2.0000      -0.979776       -26.6611
  26   2.0000      -0.920287       -25.0423
  27   2.0000      -0.913959       -24.8701
  28   2.0000      -0.871764       -23.7219
  29   2.0000      -0.858505       -23.3611
  30   2.0000      -0.845077       -22.9957
  31   2.0000      -0.818629       -22.2760
  32   2.0000      -0.783556       -21.3216
  33   2.0000      -0.770270       -20.9601
  34   2.0000      -0.706817       -19.2335
  35   2.0000      -0.702395       -19.1131
  36   2.0000      -0.691116       -18.8062
  37   2.0000      -0.667776       -18.1711
  38   2.0000      -0.645896       -17.5757
  39   2.0000      -0.624179       -16.9848
  40   2.0000      -0.603507       -16.4223
  41   2.0000      -0.578578       -15.7439
  42   2.0000      -0.569910       -15.5080
  43   2.0000      -0.558106       -15.1868
  44   2.0000      -0.531437       -14.4611
  45   2.0000      -0.524708       -14.2780
  46   2.0000      -0.517796       -14.0899
  47   2.0000      -0.513252       -13.9663
  48   2.0000      -0.508032       -13.8242
  49   2.0000      -0.496326       -13.5057
  50   2.0000      -0.489895       -13.3307
  51   2.0000      -0.486995       -13.2518
  52   2.0000      -0.475229       -12.9317
  53   2.0000      -0.462907       -12.5963
  54   2.0000      -0.456599       -12.4247
  55   2.0000      -0.453314       -12.3353
  56   2.0000      -0.443884       -12.0787
  57   2.0000      -0.438937       -11.9441
  58   2.0000      -0.437596       -11.9076
  59   2.0000      -0.424301       -11.5458
  60   2.0000      -0.421746       -11.4763
  61   2.0000      -0.416258       -11.3269
  62   2.0000      -0.414240       -11.2721
  63   2.0000      -0.358483        -9.7548
  64   2.0000      -0.336800        -9.1648
  65   2.0000      -0.328154        -8.9295
  66   2.0000      -0.287041        -7.8108
  67   0.0000       0.026432         0.7193
  68   0.0000       0.069466         1.8903
  69   0.0000       0.096818         2.6345
  70   0.0000       0.115755         3.1498
  71   0.0000       0.130656         3.5553

MULLIKEN ATOMIC CHARGES
-----------------------
   0 S :    0.075212
   1 C :   -0.120578
   2 C :   -0.046985
   3 C :   -0.019724
   4 C :   -0.084862
   5 H :    0.016607
   6 C :    0.060466
   7 H :   -0.001592
   8 H :    0.013217
   9 C :   -0.016910
  10 H :    0.014008
  11 H :    0.009484
  12 C :   -0.067807
  13 H :    0.018551
  14 H :    0.036995
  15 H :    0.022253
  16 S :    0.101184
  17 C :   -0.054793
  18 C :   -0.030447
  19 C :   -0.047021
  20 C :   -0.117910
  21 H :    0.036082
  22 C :    0.059648
  23 H :    0.017663
  24 H :   -0.007502
  25 C :   -0.106457
  26 H :    0.044645
  27 H :    0.023073
  28 C :    0.058460
  29 H :    0.014253
  30 H :    0.011765
  31 H :    0.003370
  32 H :    0.057519
  33 H :    0.028132
Sum of atomic charges:    0.0000000

LOEWDIN ATOMIC CHARGES
----------------------
   0 S :    0.361140
   1 C :   -0.187444
   2 C :   -0.055471
   3 C :   -0.066689
   4 C :   -0.161652
   5 H :    0.035042
   6 C :   -0.031530
   7 H :    0.019925
   8 H :    0.030679
   9 C :   -0.032217
  10 H :    0.019720
  11 H :    0.013807
  12 C :   -0.067869
  13 H :    0.025924
  14 H :    0.029018
  15 H :    0.018259
  16 S :    0.377265
  17 C :   -0.154423
  18 C :   -0.066978
  19 C :   -0.049255
  20 C :   -0.190233
  21 H :    0.042713
  22 C :   -0.023327
  23 H :    0.030964
  24 H :    0.012419
  25 C :   -0.035984
  26 H :    0.029600
  27 H :    0.022469
  28 C :   -0.050165
  29 H :    0.020636
  30 H :    0.021336
  31 H :    0.016204
  32 H :    0.033651
  33 H :    0.012466

  Mayer bond orders larger than 0.100000
B(  0-S ,  1-C ) :   1.1006 B(  0-S ,  4-C ) :   1.1162 B(  1-C ,  2-C ) :   1.6702
B(  1-C , 32-H ) :   0.9683 B(  2-C ,  3-C ) :   1.1582 B(  2-C ,  6-C ) :   1.0386
B(  3-C ,  4-C ) :   1.6533 B(  3-C ,  5-H ) :   0.9971 B(  4-C , 20-C ) :   1.0305
B(  6-C ,  7-H ) :   0.9388 B(  6-C ,  8-H ) :   0.9416 B(  6-C ,  9-C ) :   1.0598
B(  9-C , 10-H ) :   0.9537 B(  9-C , 11-H ) :   0.9540 B(  9-C , 12-C ) :   1.0830
B( 12-C , 13-H ) :   0.9721 B( 12-C , 14-H ) :   0.9734 B( 12-C , 15-H ) :   0.9753
B( 16-S , 17-C ) :   1.1375 B( 16-S , 20-C ) :   1.1156 B( 17-C , 18-C ) :   1.6308
B( 17-C , 20-C ) :   0.1010 B( 17-C , 33-H ) :   0.9707 B( 18-C , 19-C ) :   1.2326
B( 18-C , 21-H ) :   0.9812 B( 19-C , 20-C ) :   1.6348 B( 19-C , 22-C ) :   1.0357
B( 22-C , 23-H ) :   0.9367 B( 22-C , 24-H ) :   0.9332 B( 22-C , 25-C ) :   1.0710
B( 25-C , 26-H ) :   0.9538 B( 25-C , 27-H ) :   0.9533 B( 25-C , 28-C ) :   1.0938
B( 28-C , 29-H ) :   0.9681 B( 28-C , 30-H ) :   0.9630 B( 28-C , 31-H ) :   0.9671

Dispersion correction           -0.014243728
FINAL SINGLE POINT ENERGY     -1339.866403297742

DIPOLE MOMENT
-------------
                                X             Y             Z
Electronic contribution:     13.74470     -17.86989      24.52152
Nuclear contribution   :    -14.08579      18.51212     -24.86989
                        -----------------------------------------
Total Dipole Moment    :     -0.34108       0.64222      -0.34837
                        -----------------------------------------
Magnitude (a.u.)       :      0.80632
Magnitude (Debye)      :      2.04950

Rotational constants in cm-1:     0.018542     0.009336     0.006676
Rotational constants in MHz :   555.866866   279.894983   200.127513

                             ****ORCA TERMINATED NORMALLY****
TOTAL RUN TIME: 0 days 0 hours 0 minutes 22 seconds 142 msec
