                         Program Version 4.2.1 -  RELEASE  -
|  1> ! wB97X-D3 SP def2-SVP
|  2> %pal
|  3> nprocs 24
|  4> end
|  5>
|  6> * xyz 0 1
|  7> S 	 -43.6802 	 -1.97715 	 -11.1828
|  8> C 	 -44.9368 	 -0.968066 	 -10.4419
|  9> C 	 -45.9269 	 -1.82887 	 -9.96769
| 10> C 	 -45.5711 	 -3.21359 	 -9.91074
| 11> C 	 -44.2951 	 -3.45327 	 -10.4801
| 12> H 	 -46.1405 	 -3.99083 	 -9.44196
| 13> C 	 -47.3194 	 -1.40544 	 -9.42001
| 14> H 	 -48.0542 	 -2.20603 	 -9.48871
| 15> H 	 -47.6548 	 -0.606308 	 -10.1178
| 16> C 	 -47.3343 	 -0.846566 	 -7.99905
| 17> H 	 -47.0672 	 -1.57911 	 -7.31114
| 18> H 	 -46.5329 	 -0.140482 	 -7.91847
| 19> C 	 -48.6284 	 -0.125115 	 -7.71117
| 20> H 	 -48.8843 	 0.720872 	 -8.43242
| 21> H 	 -49.4777 	 -0.793993 	 -7.62598
| 22> H 	 -48.5396 	 0.301829 	 -6.64875
| 23> S 	 -43.271 	 -5.04175 	 -12.416
| 24> C 	 -42.8696 	 -6.67604 	 -12.0703
| 25> C 	 -43.1221 	 -6.98403 	 -10.8036
| 26> C 	 -43.5906 	 -5.92389 	 -9.95419
| 27> C 	 -43.7243 	 -4.79275 	 -10.7254
| 28> H 	 -42.7191 	 -7.98254 	 -10.5153
| 29> C 	 -43.8599 	 -5.97198 	 -8.48304
| 30> H 	 -44.8648 	 -6.29544 	 -8.37242
| 31> H 	 -43.8707 	 -4.9234 	 -8.13182
| 32> C 	 -43.0486 	 -6.83557 	 -7.59046
| 33> H 	 -41.9567 	 -6.48634 	 -7.56396
| 34> H 	 -42.9812 	 -7.82719 	 -8.04037
| 35> C 	 -43.5914 	 -6.92718 	 -6.13589
| 36> H 	 -42.8419 	 -7.35297 	 -5.45567
| 37> H 	 -44.6069 	 -7.43137 	 -6.22258
| 38> H 	 -43.7542 	 -5.97224 	 -5.65154
| 39> H 	 -45.059 	 0.106272 	 -10.5383
| 40> H 	 -42.7537 	 -7.42082 	 -12.8208
| 41> *
| 42>
| 43>                          ****END OF INPUT****

CARTESIAN COORDINATES (ANGSTROEM)
---------------------------------
  S    -43.680200   -1.977150  -11.182800
  C    -44.936800   -0.968066  -10.441900
  C    -45.926900   -1.828870   -9.967690
  C    -45.571100   -3.213590   -9.910740
  C    -44.295100   -3.453270  -10.480100
  H    -46.140500   -3.990830   -9.441960
  C    -47.319400   -1.405440   -9.420010
  H    -48.054200   -2.206030   -9.488710
  H    -47.654800   -0.606308  -10.117800
  C    -47.334300   -0.846566   -7.999050
  H    -47.067200   -1.579110   -7.311140
  H    -46.532900   -0.140482   -7.918470
  C    -48.628400   -0.125115   -7.711170
  H    -48.884300    0.720872   -8.432420
  H    -49.477700   -0.793993   -7.625980
  H    -48.539600    0.301829   -6.648750
  S    -43.271000   -5.041750  -12.416000
  C    -42.869600   -6.676040  -12.070300
  C    -43.122100   -6.984030  -10.803600
  C    -43.590600   -5.923890   -9.954190
  C    -43.724300   -4.792750  -10.725400
  H    -42.719100   -7.982540  -10.515300
  C    -43.859900   -5.971980   -8.483040
  H    -44.864800   -6.295440   -8.372420
  H    -43.870700   -4.923400   -8.131820
  C    -43.048600   -6.835570   -7.590460
  H    -41.956700   -6.486340   -7.563960
  H    -42.981200   -7.827190   -8.040370
  C    -43.591400   -6.927180   -6.135890
  H    -42.841900   -7.352970   -5.455670
  H    -44.606900   -7.431370   -6.222580
  H    -43.754200   -5.972240   -5.651540
  H    -45.059000    0.106272  -10.538300
  H    -42.753700   -7.420820  -12.820800

 Total Charge           Charge          ....    0
 Multiplicity           Mult            ....    1
 Number of Electrons    NEL             ....  134
 Basis Dimension        Dim             ....  322

ORBITAL ENERGIES
----------------

  NO   OCC          E(Eh)            E(eV)
   0   2.0000     -88.969000     -2420.9696
   1   2.0000     -88.960406     -2420.7357
   2   2.0000     -10.334882      -281.2264
   3   2.0000     -10.328490      -281.0525
   4   2.0000     -10.318728      -280.7869
   5   2.0000     -10.305731      -280.4332
   6   2.0000     -10.305423      -280.4248
   7   2.0000     -10.304914      -280.4110
   8   2.0000     -10.295536      -280.1558
   9   2.0000     -10.292781      -280.0808
  10   2.0000     -10.291752      -280.0528
  11   2.0000     -10.290886      -280.0292
  12   2.0000     -10.288281      -279.9584
  13   2.0000     -10.287849      -279.9466
  14   2.0000     -10.287753      -279.9440
  15   2.0000     -10.277799      -279.6731
  16   2.0000      -8.082993      -219.9494
  17   2.0000      -8.076139      -219.7629
  18   2.0000      -6.041665      -164.4021
  19   2.0000      -6.037517      -164.2892
  20   2.0000      -6.034571      -164.2090
  21   2.0000      -6.033696      -164.1852
  22   2.0000      -6.030613      -164.1013
  23   2.0000      -6.026802      -163.9976
  24   2.0000      -1.009159       -27.4606
  25   2.0000      -0.984046       -26.7773
  26   2.0000      -0.917362       -24.9627
  27   2.0000      -0.912011       -24.8171
  28   2.0000      -0.871153       -23.7053
  29   2.0000      -0.853438       -23.2232
  30   2.0000      -0.843067       -22.9410
  31   2.0000      -0.813940       -22.1484
  32   2.0000      -0.783235       -21.3129
  33   2.0000      -0.770900       -20.9772
  34   2.0000      -0.705902       -19.2086
  35   2.0000      -0.703177       -19.1344
  36   2.0000      -0.700714       -19.0674
  37   2.0000      -0.652306       -17.7501
  38   2.0000      -0.637818       -17.3559
  39   2.0000      -0.618890       -16.8408
  40   2.0000      -0.601751       -16.3745
  41   2.0000      -0.572722       -15.5846
  42   2.0000      -0.571711       -15.5570
  43   2.0000      -0.558755       -15.2045
  44   2.0000      -0.526915       -14.3381
  45   2.0000      -0.521791       -14.1987
  46   2.0000      -0.516951       -14.0669
  47   2.0000      -0.512409       -13.9434
  48   2.0000      -0.507100       -13.7989
  49   2.0000      -0.500378       -13.6160
  50   2.0000      -0.490380       -13.3439
  51   2.0000      -0.481205       -13.0943
  52   2.0000      -0.474438       -12.9101
  53   2.0000      -0.466961       -12.7067
  54   2.0000      -0.464672       -12.6444
  55   2.0000      -0.448454       -12.2030
  56   2.0000      -0.443172       -12.0593
  57   2.0000      -0.437649       -11.9090
  58   2.0000      -0.431561       -11.7434
  59   2.0000      -0.424487       -11.5509
  60   2.0000      -0.417366       -11.3571
  61   2.0000      -0.414005       -11.2657
  62   2.0000      -0.412312       -11.2196
  63   2.0000      -0.352086        -9.5808
  64   2.0000      -0.330788        -9.0012
  65   2.0000      -0.329078        -8.9547
  66   2.0000      -0.289814        -7.8862
  67   0.0000       0.027206         0.7403
  68   0.0000       0.070238         1.9113
  69   0.0000       0.106333         2.8935
  70   0.0000       0.128399         3.4939
  71   0.0000       0.129652         3.5280

MULLIKEN ATOMIC CHARGES
-----------------------
   0 S :    0.107880
   1 C :   -0.115176
   2 C :   -0.091189
   3 C :    0.032101
   4 C :   -0.140412
   5 H :    0.010920
   6 C :    0.027842
   7 H :    0.023856
   8 H :    0.024247
   9 C :   -0.007108
  10 H :    0.010928
  11 H :    0.011824
  12 C :   -0.083128
  13 H :    0.049029
  14 H :    0.030025
  15 H :    0.039960
  16 S :    0.090331
  17 C :   -0.071054
  18 C :   -0.072243
  19 C :   -0.012668
  20 C :   -0.166080
  21 H :    0.033282
  22 C :    0.090696
  23 H :    0.016294
  24 H :    0.032593
  25 C :   -0.104272
  26 H :    0.037596
  27 H :    0.031380
  28 C :   -0.058297
  29 H :    0.043171
  30 H :    0.045008
  31 H :    0.027113
  32 H :    0.054976
  33 H :    0.050576
Sum of atomic charges:   -0.0000000

LOEWDIN ATOMIC CHARGES
----------------------
   0 S :    0.404452
   1 C :   -0.200962
   2 C :   -0.058433
   3 C :   -0.064509
   4 C :   -0.195468
   5 H :    0.028334
   6 C :   -0.030962
   7 H :    0.026486
   8 H :    0.030999
   9 C :   -0.039805
  10 H :    0.017388
  11 H :    0.021599
  12 C :   -0.072296
  13 H :    0.033790
  14 H :    0.020359
  15 H :    0.035033
  16 S :    0.399546
  17 C :   -0.190625
  18 C :   -0.081263
  19 C :   -0.055320
  20 C :   -0.180002
  21 H :    0.038116
  22 C :   -0.037912
  23 H :    0.028189
  24 H :    0.037580
  25 C :   -0.047210
  26 H :    0.030372
  27 H :    0.022254
  28 C :   -0.069732
  29 H :    0.032173
  30 H :    0.034295
  31 H :    0.023128
  32 H :    0.032703
  33 H :    0.027703

  Mayer bond orders larger than 0.100000
B(  0-S ,  1-C ) :   1.1257 B(  0-S ,  4-C ) :   1.1698 B(  1-C ,  2-C ) :   1.5918
B(  1-C ,  4-C ) :   0.1052 B(  1-C , 32-H ) :   0.9719 B(  2-C ,  3-C ) :   1.2650
B(  2-C ,  6-C ) :   1.0189 B(  3-C ,  4-C ) :   1.5167 B(  3-C ,  5-H ) :   0.9971
B(  4-C , 20-C ) :   1.0348 B(  6-C ,  7-H ) :   0.9483 B(  6-C ,  8-H ) :   0.9427
B(  6-C ,  9-C ) :   1.0662 B(  9-C , 10-H ) :   0.9496 B(  9-C , 11-H ) :   0.9514
B(  9-C , 12-C ) :   1.0835 B( 12-C , 13-H ) :   0.9734 B( 12-C , 14-H ) :   0.9751
B( 12-C , 15-H ) :   0.9713 B( 16-S , 17-C ) :   1.1374 B( 16-S , 20-C ) :   1.1437
B( 17-C , 18-C ) :   1.6789 B( 17-C , 33-H ) :   0.9601 B( 18-C , 19-C ) :   1.1965
B( 18-C , 21-H ) :   0.9744 B( 19-C , 20-C ) :   1.6323 B( 19-C , 22-C ) :   1.0398
B( 22-C , 23-H ) :   0.9168 B( 22-C , 24-H ) :   0.9273 B( 22-C , 25-C ) :   1.0721
B( 25-C , 26-H ) :   0.9530 B( 25-C , 27-H ) :   0.9503 B( 25-C , 28-C ) :   1.0805
B( 28-C , 29-H ) :   0.9733 B( 28-C , 30-H ) :   0.9725 B( 28-C , 31-H ) :   0.9754

Dispersion correction           -0.013271166
FINAL SINGLE POINT ENERGY     -1339.871404385026

DIPOLE MOMENT
-------------
                                X             Y             Z
Electronic contribution:     14.73462       0.11558     -26.48246
Nuclear contribution   :    -15.17210      -0.33548      27.00680
                        -----------------------------------------
Total Dipole Moment    :     -0.43748      -0.21990       0.52434
                        -----------------------------------------
Magnitude (a.u.)       :      0.71741
Magnitude (Debye)      :      1.82352

Rotational constants in cm-1:     0.017134     0.008128     0.005984
Rotational constants in MHz :   513.657739   243.665262   179.386280

                             ****ORCA TERMINATED NORMALLY****
TOTAL RUN TIME: 0 days 0 hours 0 minutes 20 seconds 810 msec
