                         Program Version 4.2.1 -  RELEASE  -
|  1> ! wB97X-D3 SP def2-SVP
|  2> %pal
|  3> nprocs 24
|  4> end
|  5>
|  6> * xyz 0 1
|  7> S 	 -48.7176 	 13.668 	 25.18
|  8> C 	 -50.109 	 12.6496 	 25.0144
|  9> C 	 -50.3142 	 12.3625 	 23.6843
| 10> C 	 -49.4235 	 13.0735 	 22.826
| 11> C 	 -48.5125 	 13.9654 	 23.4791
| 12> H 	 -49.4113 	 12.9682 	 21.7776
| 13> C 	 -51.3752 	 11.4107 	 23.265
| 14> H 	 -51.9147 	 10.9476 	 24.1046
| 15> H 	 -50.8631 	 10.5287 	 23.0058
| 16> C 	 -52.2984 	 11.8673 	 22.1605
| 17> H 	 -53.0496 	 12.5138 	 22.5791
| 18> H 	 -51.6874 	 12.4727 	 21.4497
| 19> C 	 -52.9321 	 10.6615 	 21.3908
| 20> H 	 -53.7725 	 10.3236 	 22.0526
| 21> H 	 -53.2429 	 10.8306 	 20.3205
| 22> H 	 -52.2236 	 9.9177 	 21.2945
| 23> S 	 -47.6369 	 16.0461 	 21.8344
| 24> C 	 -45.9912 	 16.2432 	 21.5522
| 25> C 	 -45.1773 	 15.327 	 22.2463
| 26> C 	 -45.9511 	 14.4222 	 23.0574
| 27> C 	 -47.3458 	 14.6532 	 22.8852
| 28> H 	 -44.1251 	 15.2923 	 22.1753
| 29> C 	 -45.2708 	 13.247 	 23.7457
| 30> H 	 -44.4698 	 12.9301 	 23.131
| 31> H 	 -45.9093 	 12.4097 	 23.5758
| 32> C 	 -45.0296 	 13.4047 	 25.2732
| 33> H 	 -44.8438 	 12.3763 	 25.5207
| 34> H 	 -45.9823 	 13.6115 	 25.85
| 35> C 	 -43.7782 	 14.2092 	 25.7096
| 36> H 	 -43.7331 	 15.1349 	 25.1462
| 37> H 	 -42.967 	 13.5699 	 25.4379
| 38> H 	 -43.6562 	 14.4368 	 26.8052
| 39> H 	 -50.5627 	 12.0029 	 25.7035
| 40> H 	 -45.4982 	 16.8843 	 20.7926
| 41> *
| 42>
| 43>                          ****END OF INPUT****

CARTESIAN COORDINATES (ANGSTROEM)
---------------------------------
  S    -48.717600   13.668000   25.180000
  C    -50.109000   12.649600   25.014400
  C    -50.314200   12.362500   23.684300
  C    -49.423500   13.073500   22.826000
  C    -48.512500   13.965400   23.479100
  H    -49.411300   12.968200   21.777600
  C    -51.375200   11.410700   23.265000
  H    -51.914700   10.947600   24.104600
  H    -50.863100   10.528700   23.005800
  C    -52.298400   11.867300   22.160500
  H    -53.049600   12.513800   22.579100
  H    -51.687400   12.472700   21.449700
  C    -52.932100   10.661500   21.390800
  H    -53.772500   10.323600   22.052600
  H    -53.242900   10.830600   20.320500
  H    -52.223600    9.917700   21.294500
  S    -47.636900   16.046100   21.834400
  C    -45.991200   16.243200   21.552200
  C    -45.177300   15.327000   22.246300
  C    -45.951100   14.422200   23.057400
  C    -47.345800   14.653200   22.885200
  H    -44.125100   15.292300   22.175300
  C    -45.270800   13.247000   23.745700
  H    -44.469800   12.930100   23.131000
  H    -45.909300   12.409700   23.575800
  C    -45.029600   13.404700   25.273200
  H    -44.843800   12.376300   25.520700
  H    -45.982300   13.611500   25.850000
  C    -43.778200   14.209200   25.709600
  H    -43.733100   15.134900   25.146200
  H    -42.967000   13.569900   25.437900
  H    -43.656200   14.436800   26.805200
  H    -50.562700   12.002900   25.703500
  H    -45.498200   16.884300   20.792600

 Total Charge           Charge          ....    0
 Multiplicity           Mult            ....    1
 Number of Electrons    NEL             ....  134
 Basis Dimension        Dim             ....  322

ORBITAL ENERGIES
----------------

  NO   OCC          E(Eh)            E(eV)
   0   2.0000     -88.970942     -2421.0224
   1   2.0000     -88.966483     -2420.9011
   2   2.0000     -10.335139      -281.2334
   3   2.0000     -10.331727      -281.1406
   4   2.0000     -10.317032      -280.7407
   5   2.0000     -10.306644      -280.4580
   6   2.0000     -10.306391      -280.4511
   7   2.0000     -10.297368      -280.2056
   8   2.0000     -10.295929      -280.1665
   9   2.0000     -10.291347      -280.0418
  10   2.0000     -10.288064      -279.9524
  11   2.0000     -10.287971      -279.9499
  12   2.0000     -10.287322      -279.9322
  13   2.0000     -10.285465      -279.8817
  14   2.0000     -10.281686      -279.7789
  15   2.0000     -10.277020      -279.6519
  16   2.0000      -8.086119      -220.0345
  17   2.0000      -8.080847      -219.8910
  18   2.0000      -6.044400      -164.4765
  19   2.0000      -6.040469      -164.3695
  20   2.0000      -6.039227      -164.3357
  21   2.0000      -6.037189      -164.2803
  22   2.0000      -6.035234      -164.2271
  23   2.0000      -6.031898      -164.1363
  24   2.0000      -1.004086       -27.3226
  25   2.0000      -0.986384       -26.8409
  26   2.0000      -0.916941       -24.9512
  27   2.0000      -0.905687       -24.6450
  28   2.0000      -0.866684       -23.5837
  29   2.0000      -0.849343       -23.1118
  30   2.0000      -0.843266       -22.9464
  31   2.0000      -0.811898       -22.0929
  32   2.0000      -0.787237       -21.4218
  33   2.0000      -0.773118       -21.0376
  34   2.0000      -0.713840       -19.4246
  35   2.0000      -0.700619       -19.0648
  36   2.0000      -0.689135       -18.7523
  37   2.0000      -0.661521       -18.0009
  38   2.0000      -0.639741       -17.4082
  39   2.0000      -0.620514       -16.8851
  40   2.0000      -0.597367       -16.2552
  41   2.0000      -0.573174       -15.5969
  42   2.0000      -0.561069       -15.2675
  43   2.0000      -0.542759       -14.7692
  44   2.0000      -0.540767       -14.7150
  45   2.0000      -0.522894       -14.2287
  46   2.0000      -0.518835       -14.1182
  47   2.0000      -0.512694       -13.9511
  48   2.0000      -0.499163       -13.5829
  49   2.0000      -0.497504       -13.5378
  50   2.0000      -0.492032       -13.3889
  51   2.0000      -0.483049       -13.1444
  52   2.0000      -0.474501       -12.9118
  53   2.0000      -0.467130       -12.7113
  54   2.0000      -0.462857       -12.5950
  55   2.0000      -0.449949       -12.2437
  56   2.0000      -0.443350       -12.0642
  57   2.0000      -0.440919       -11.9980
  58   2.0000      -0.435505       -11.8507
  59   2.0000      -0.421591       -11.4721
  60   2.0000      -0.417780       -11.3684
  61   2.0000      -0.409471       -11.1423
  62   2.0000      -0.405249       -11.0274
  63   2.0000      -0.336359        -9.1528
  64   2.0000      -0.332707        -9.0534
  65   2.0000      -0.324815        -8.8387
  66   2.0000      -0.297083        -8.0840
  67   0.0000       0.029720         0.8087
  68   0.0000       0.064911         1.7663
  69   0.0000       0.112900         3.0722
  70   0.0000       0.120475         3.2783
  71   0.0000       0.132638         3.6093

MULLIKEN ATOMIC CHARGES
-----------------------
   0 S :    0.109184
   1 C :   -0.078646
   2 C :   -0.114226
   3 C :    0.039780
   4 C :   -0.137979
   5 H :   -0.003486
   6 C :    0.092855
   7 H :    0.005175
   8 H :    0.011497
   9 C :   -0.079867
  10 H :    0.037519
  11 H :    0.034171
  12 C :   -0.051766
  13 H :    0.043410
  14 H :    0.045896
  15 H :    0.009570
  16 S :    0.142199
  17 C :   -0.090824
  18 C :   -0.046469
  19 C :   -0.021408
  20 C :   -0.204379
  21 H :    0.003231
  22 C :    0.073224
  23 H :    0.009359
  24 H :    0.015885
  25 C :   -0.068821
  26 H :    0.016709
  27 H :    0.043562
  28 C :   -0.036702
  29 H :    0.034670
  30 H :    0.019948
  31 H :    0.047667
  32 H :    0.030184
  33 H :    0.068879
Sum of atomic charges:   -0.0000000

LOEWDIN ATOMIC CHARGES
----------------------
   0 S :    0.438391
   1 C :   -0.202718
   2 C :   -0.062496
   3 C :   -0.056121
   4 C :   -0.206753
   5 H :    0.019407
   6 C :   -0.039788
   7 H :    0.031346
   8 H :    0.027807
   9 C :   -0.036786
  10 H :    0.024633
  11 H :    0.026190
  12 C :   -0.065374
  13 H :    0.033242
  14 H :    0.034527
  15 H :    0.009886
  16 S :    0.444282
  17 C :   -0.217028
  18 C :   -0.073341
  19 C :   -0.044466
  20 C :   -0.210538
  21 H :    0.022061
  22 C :   -0.030687
  23 H :    0.028130
  24 H :    0.033610
  25 C :   -0.043812
  26 H :    0.021149
  27 H :    0.021851
  28 C :   -0.068028
  29 H :    0.023213
  30 H :    0.021592
  31 H :    0.034935
  32 H :    0.022759
  33 H :    0.038925

  Mayer bond orders larger than 0.100000
B(  0-S ,  1-C ) :   1.1553 B(  0-S ,  4-C ) :   1.1693 B(  1-C ,  2-C ) :   1.5807
B(  1-C , 32-H ) :   0.9671 B(  2-C ,  3-C ) :   1.2877 B(  2-C ,  6-C ) :   1.0310
B(  3-C ,  4-C ) :   1.5184 B(  3-C ,  5-H ) :   0.9960 B(  4-C , 20-C ) :   1.0251
B(  6-C ,  7-H ) :   0.9300 B(  6-C ,  8-H ) :   0.9238 B(  6-C ,  9-C ) :   1.0474
B(  9-C , 10-H ) :   0.9612 B(  9-C , 11-H ) :   0.9626 B(  9-C , 12-C ) :   1.0643
B( 12-C , 13-H ) :   0.9781 B( 12-C , 14-H ) :   0.9762 B( 12-C , 15-H ) :   0.9790
B( 16-S , 17-C ) :   1.1873 B( 16-S , 20-C ) :   1.1596 B( 17-C , 18-C ) :   1.5657
B( 17-C , 20-C ) :   0.1008 B( 17-C , 33-H ) :   0.9596 B( 18-C , 19-C ) :   1.2782
B( 18-C , 21-H ) :   0.9942 B( 19-C , 20-C ) :   1.5553 B( 19-C , 22-C ) :   1.0267
B( 22-C , 23-H ) :   0.9409 B( 22-C , 24-H ) :   0.9282 B( 22-C , 25-C ) :   1.0620
B( 25-C , 26-H ) :   0.9574 B( 25-C , 27-H ) :   0.9518 B( 25-C , 28-C ) :   1.0565
B( 28-C , 29-H ) :   0.9808 B( 28-C , 30-H ) :   0.9769 B( 28-C , 31-H ) :   0.9755

Dispersion correction           -0.014243409
FINAL SINGLE POINT ENERGY     -1339.857107123329

DIPOLE MOMENT
-------------
                                X             Y             Z
Electronic contribution:      1.58806      16.07841      -0.42726
Nuclear contribution   :     -1.41362     -16.76723       0.17397
                        -----------------------------------------
Total Dipole Moment    :      0.17444      -0.68882      -0.25329
                        -----------------------------------------
Magnitude (a.u.)       :      0.75436
Magnitude (Debye)      :      1.91743

Rotational constants in cm-1:     0.021627     0.007578     0.006254
Rotational constants in MHz :   648.366231   227.177293   187.499276

                             ****ORCA TERMINATED NORMALLY****
TOTAL RUN TIME: 0 days 0 hours 0 minutes 21 seconds 30 msec
