                         Program Version 4.2.1 -  RELEASE  -
|  1> ! wB97X-D3 SP def2-SVP
|  2> %pal
|  3> nprocs 24
|  4> end
|  5>
|  6> * xyz 0 1
|  7> S 	 -44.6016 	 18.786 	 24.9424
|  8> C 	 -44.5838 	 20.5886 	 25.1721
|  9> C 	 -45.3554 	 21.1745 	 24.2022
| 10> C 	 -45.9939 	 20.2112 	 23.3928
| 11> C 	 -45.6521 	 18.9319 	 23.5892
| 12> H 	 -46.7061 	 20.4717 	 22.6072
| 13> C 	 -45.4307 	 22.6599 	 23.9531
| 14> H 	 -44.6249 	 23.1365 	 24.5268
| 15> H 	 -46.3597 	 22.8891 	 24.3797
| 16> C 	 -45.4933 	 23.2814 	 22.5044
| 17> H 	 -46.3311 	 22.7833 	 21.8965
| 18> H 	 -45.6753 	 24.3126 	 22.5713
| 19> C 	 -44.1901 	 23.102 	 21.8484
| 20> H 	 -43.2848 	 23.6146 	 22.326
| 21> H 	 -43.9499 	 22.0455 	 21.6717
| 22> H 	 -44.4007 	 23.6516 	 20.9436
| 23> S 	 -46.8053 	 16.4472 	 23.8768
| 24> C 	 -47.7571 	 15.7844 	 22.5526
| 25> C 	 -47.3949 	 16.406 	 21.3633
| 26> C 	 -46.5221 	 17.5889 	 21.5291
| 27> C 	 -46.1969 	 17.7883 	 22.8843
| 28> H 	 -47.765 	 16.0689 	 20.4185
| 29> C 	 -45.9536 	 18.403 	 20.367
| 30> H 	 -45.6501 	 19.4429 	 20.6399
| 31> H 	 -46.8002 	 18.7059 	 19.6976
| 32> C 	 -44.731 	 17.7368 	 19.6964
| 33> H 	 -45.0919 	 16.7262 	 19.3001
| 34> H 	 -43.9566 	 17.5858 	 20.4802
| 35> C 	 -44.0065 	 18.5809 	 18.5693
| 36> H 	 -43.5997 	 19.5365 	 18.9515
| 37> H 	 -44.5553 	 18.779 	 17.6272
| 38> H 	 -43.0917 	 17.9905 	 18.2474
| 39> H 	 -44.0528 	 21.1341 	 25.878
| 40> H 	 -48.2388 	 14.8069 	 22.4657
| 41> *
| 42>
| 43>                          ****END OF INPUT****

CARTESIAN COORDINATES (ANGSTROEM)
---------------------------------
  S    -44.601600   18.786000   24.942400
  C    -44.583800   20.588600   25.172100
  C    -45.355400   21.174500   24.202200
  C    -45.993900   20.211200   23.392800
  C    -45.652100   18.931900   23.589200
  H    -46.706100   20.471700   22.607200
  C    -45.430700   22.659900   23.953100
  H    -44.624900   23.136500   24.526800
  H    -46.359700   22.889100   24.379700
  C    -45.493300   23.281400   22.504400
  H    -46.331100   22.783300   21.896500
  H    -45.675300   24.312600   22.571300
  C    -44.190100   23.102000   21.848400
  H    -43.284800   23.614600   22.326000
  H    -43.949900   22.045500   21.671700
  H    -44.400700   23.651600   20.943600
  S    -46.805300   16.447200   23.876800
  C    -47.757100   15.784400   22.552600
  C    -47.394900   16.406000   21.363300
  C    -46.522100   17.588900   21.529100
  C    -46.196900   17.788300   22.884300
  H    -47.765000   16.068900   20.418500
  C    -45.953600   18.403000   20.367000
  H    -45.650100   19.442900   20.639900
  H    -46.800200   18.705900   19.697600
  C    -44.731000   17.736800   19.696400
  H    -45.091900   16.726200   19.300100
  H    -43.956600   17.585800   20.480200
  C    -44.006500   18.580900   18.569300
  H    -43.599700   19.536500   18.951500
  H    -44.555300   18.779000   17.627200
  H    -43.091700   17.990500   18.247400
  H    -44.052800   21.134100   25.878000
  H    -48.238800   14.806900   22.465700

 Total Charge           Charge          ....    0
 Multiplicity           Mult            ....    1
 Number of Electrons    NEL             ....  134
 Basis Dimension        Dim             ....  322

ORBITAL ENERGIES
----------------

  NO   OCC          E(Eh)            E(eV)
   0   2.0000     -88.965342     -2420.8700
   1   2.0000     -88.964311     -2420.8420
   2   2.0000     -10.332459      -281.1605
   3   2.0000     -10.324758      -280.9509
   4   2.0000     -10.321230      -280.8549
   5   2.0000     -10.313632      -280.6482
   6   2.0000     -10.311802      -280.5984
   7   2.0000     -10.301182      -280.3094
   8   2.0000     -10.300512      -280.2912
   9   2.0000     -10.300052      -280.2787
  10   2.0000     -10.299180      -280.2549
  11   2.0000     -10.292965      -280.0858
  12   2.0000     -10.290376      -280.0154
  13   2.0000     -10.288697      -279.9697
  14   2.0000     -10.286164      -279.9008
  15   2.0000     -10.277745      -279.6717
  16   2.0000      -8.079546      -219.8556
  17   2.0000      -8.078768      -219.8345
  18   2.0000      -6.038264      -164.3095
  19   2.0000      -6.037412      -164.2863
  20   2.0000      -6.034136      -164.1972
  21   2.0000      -6.033417      -164.1776
  22   2.0000      -6.030079      -164.0868
  23   2.0000      -6.029290      -164.0653
  24   2.0000      -1.008173       -27.4338
  25   2.0000      -0.979485       -26.6531
  26   2.0000      -0.918009       -24.9803
  27   2.0000      -0.899226       -24.4692
  28   2.0000      -0.876283       -23.8449
  29   2.0000      -0.848884       -23.0993
  30   2.0000      -0.838685       -22.8218
  31   2.0000      -0.818360       -22.2687
  32   2.0000      -0.783862       -21.3300
  33   2.0000      -0.771538       -20.9946
  34   2.0000      -0.709466       -19.3055
  35   2.0000      -0.695246       -18.9186
  36   2.0000      -0.692268       -18.8376
  37   2.0000      -0.657374       -17.8881
  38   2.0000      -0.640046       -17.4165
  39   2.0000      -0.624086       -16.9823
  40   2.0000      -0.592000       -16.1091
  41   2.0000      -0.567139       -15.4327
  42   2.0000      -0.561688       -15.2843
  43   2.0000      -0.553394       -15.0586
  44   2.0000      -0.548349       -14.9213
  45   2.0000      -0.524794       -14.2804
  46   2.0000      -0.519274       -14.1302
  47   2.0000      -0.508689       -13.8421
  48   2.0000      -0.505917       -13.7667
  49   2.0000      -0.500973       -13.6322
  50   2.0000      -0.488623       -13.2961
  51   2.0000      -0.482735       -13.1359
  52   2.0000      -0.467470       -12.7205
  53   2.0000      -0.462108       -12.5746
  54   2.0000      -0.457932       -12.4610
  55   2.0000      -0.448040       -12.1918
  56   2.0000      -0.446690       -12.1551
  57   2.0000      -0.439116       -11.9489
  58   2.0000      -0.431599       -11.7444
  59   2.0000      -0.424724       -11.5573
  60   2.0000      -0.420395       -11.4395
  61   2.0000      -0.409971       -11.1559
  62   2.0000      -0.406646       -11.0654
  63   2.0000      -0.349499        -9.5104
  64   2.0000      -0.329576        -8.9682
  65   2.0000      -0.326110        -8.8739
  66   2.0000      -0.293124        -7.9763
  67   0.0000       0.025573         0.6959
  68   0.0000       0.072333         1.9683
  69   0.0000       0.097933         2.6649
  70   0.0000       0.119596         3.2544
  71   0.0000       0.125792         3.4230

MULLIKEN ATOMIC CHARGES
-----------------------
   0 S :    0.091850
   1 C :   -0.107743
   2 C :   -0.082662
   3 C :    0.000412
   4 C :   -0.106407
   5 H :    0.010994
   6 C :    0.082781
   7 H :    0.018512
   8 H :    0.026000
   9 C :   -0.069735
  10 H :    0.041228
  11 H :    0.022940
  12 C :   -0.064189
  13 H :    0.041518
  14 H :    0.048298
  15 H :    0.027630
  16 S :    0.097229
  17 C :   -0.083628
  18 C :   -0.038346
  19 C :   -0.052969
  20 C :   -0.136411
  21 H :    0.013973
  22 C :    0.042385
  23 H :    0.010420
  24 H :    0.030697
  25 C :   -0.083721
  26 H :    0.040984
  27 H :    0.048357
  28 C :   -0.081670
  29 H :    0.039034
  30 H :    0.042774
  31 H :    0.042657
  32 H :    0.015890
  33 H :    0.070917
Sum of atomic charges:    0.0000000

LOEWDIN ATOMIC CHARGES
----------------------
   0 S :    0.383977
   1 C :   -0.169095
   2 C :   -0.056897
   3 C :   -0.070658
   4 C :   -0.197789
   5 H :    0.030794
   6 C :   -0.030839
   7 H :    0.030602
   8 H :    0.028025
   9 C :   -0.036310
  10 H :    0.033167
  11 H :    0.021401
  12 C :   -0.072266
  13 H :    0.033165
  14 H :    0.026852
  15 H :    0.025854
  16 S :    0.389969
  17 C :   -0.192669
  18 C :   -0.062875
  19 C :   -0.053459
  20 C :   -0.183017
  21 H :    0.025125
  22 C :   -0.049658
  23 H :    0.028577
  24 H :    0.033287
  25 C :   -0.041303
  26 H :    0.029581
  27 H :    0.034435
  28 C :   -0.078801
  29 H :    0.026421
  30 H :    0.025744
  31 H :    0.035131
  32 H :    0.014494
  33 H :    0.039036

  Mayer bond orders larger than 0.100000
B(  0-S ,  1-C ) :   1.1077 B(  0-S ,  4-C ) :   1.1368 B(  1-C ,  2-C ) :   1.6337
B(  1-C , 32-H ) :   0.9777 B(  2-C ,  3-C ) :   1.2235 B(  2-C ,  6-C ) :   1.0088
B(  3-C ,  4-C ) :   1.6064 B(  3-C ,  5-H ) :   0.9902 B(  4-C , 20-C ) :   1.0307
B(  6-C ,  7-H ) :   0.9441 B(  6-C ,  8-H ) :   0.9236 B(  6-C ,  9-C ) :   1.0828
B(  9-C , 10-H ) :   0.9468 B(  9-C , 11-H ) :   0.9504 B(  9-C , 12-C ) :   1.0823
B( 12-C , 13-H ) :   0.9708 B( 12-C , 14-H ) :   0.9743 B( 12-C , 15-H ) :   0.9732
B( 16-S , 17-C ) :   1.1386 B( 16-S , 20-C ) :   1.1290 B( 17-C , 18-C ) :   1.6305
B( 17-C , 33-H ) :   0.9597 B( 18-C , 19-C ) :   1.2241 B( 18-C , 21-H ) :   0.9876
B( 19-C , 20-C ) :   1.5980 B( 19-C , 22-C ) :   1.0509 B( 22-C , 23-H ) :   0.9344
B( 22-C , 24-H ) :   0.9335 B( 22-C , 25-C ) :   1.0496 B( 25-C , 26-H ) :   0.9585
B( 25-C , 27-H ) :   0.9549 B( 25-C , 28-C ) :   1.0726 B( 28-C , 29-H ) :   0.9736
B( 28-C , 30-H ) :   0.9775 B( 28-C , 31-H ) :   0.9751

Dispersion correction           -0.014462731
FINAL SINGLE POINT ENERGY     -1339.861840122827

DIPOLE MOMENT
-------------
                                X             Y             Z
Electronic contribution:     -6.99138     -19.30893      22.69061
Nuclear contribution   :      6.94888      19.87867     -23.34612
                        -----------------------------------------
Total Dipole Moment    :     -0.04250       0.56975      -0.65551
                        -----------------------------------------
Magnitude (a.u.)       :      0.86954
Magnitude (Debye)      :      2.21020

Rotational constants in cm-1:     0.016232     0.010058     0.007164
Rotational constants in MHz :   486.636758   301.536259   214.781051

                             ****ORCA TERMINATED NORMALLY****
TOTAL RUN TIME: 0 days 0 hours 0 minutes 22 seconds 3 msec
