                         Program Version 4.2.1 -  RELEASE  -
|  1> ! wB97X-D3 SP def2-SVP
|  2> %pal
|  3> nprocs 24
|  4> end
|  5>
|  6> * xyz 0 1
|  7> S 	 -100.412 	 -24.7955 	 -65.767
|  8> C 	 -100.262 	 -23.0529 	 -66.1283
|  9> C 	 -99.5053 	 -22.4111 	 -65.152
| 10> C 	 -99.1444 	 -23.2906 	 -64.0636
| 11> C 	 -99.4578 	 -24.624 	 -64.3041
| 12> H 	 -98.6757 	 -22.9724 	 -63.1488
| 13> C 	 -99.2412 	 -20.9225 	 -65.1666
| 14> H 	 -98.8656 	 -20.5812 	 -64.1914
| 15> H 	 -100.132 	 -20.2998 	 -65.453
| 16> C 	 -98.2862 	 -20.6516 	 -66.3302
| 17> H 	 -98.5659 	 -21.1115 	 -67.2986
| 18> H 	 -98.3086 	 -19.5593 	 -66.5439
| 19> C 	 -96.8911 	 -21.1392 	 -65.9971
| 20> H 	 -96.2447 	 -20.5471 	 -66.6764
| 21> H 	 -96.6013 	 -20.8719 	 -64.9712
| 22> H 	 -96.6815 	 -22.2033 	 -66.0947
| 23> S 	 -100.349 	 -26.9356 	 -63.0779
| 24> C 	 -99.3862 	 -27.6378 	 -61.8609
| 25> C 	 -98.1319 	 -27.1543 	 -61.9969
| 26> C 	 -97.9948 	 -25.9748 	 -62.6716
| 27> C 	 -99.1366 	 -25.7427 	 -63.4678
| 28> H 	 -97.2767 	 -27.6239 	 -61.5694
| 29> C 	 -96.7274 	 -25.1186 	 -62.7221
| 30> H 	 -96.0811 	 -25.3923 	 -61.9402
| 31> H 	 -96.9546 	 -24.0818 	 -62.5974
| 32> C 	 -95.9104 	 -25.1987 	 -64.0211
| 33> H 	 -96.5092 	 -24.9512 	 -64.9022
| 34> H 	 -95.5998 	 -26.2561 	 -64.1878
| 35> C 	 -94.5419 	 -24.5432 	 -63.9929
| 36> H 	 -94.5656 	 -23.5038 	 -63.5628
| 37> H 	 -93.9744 	 -24.6124 	 -64.9064
| 38> H 	 -93.9129 	 -25.1161 	 -63.2997
| 39> H 	 -100.594 	 -22.5027 	 -67.0474
| 40> H 	 -99.6314 	 -28.5449 	 -61.3352
| 41> *
| 42>
| 43>                          ****END OF INPUT****

CARTESIAN COORDINATES (ANGSTROEM)
---------------------------------
  S    -100.412000  -24.795500  -65.767000
  C    -100.262000  -23.052900  -66.128300
  C    -99.505300  -22.411100  -65.152000
  C    -99.144400  -23.290600  -64.063600
  C    -99.457800  -24.624000  -64.304100
  H    -98.675700  -22.972400  -63.148800
  C    -99.241200  -20.922500  -65.166600
  H    -98.865600  -20.581200  -64.191400
  H    -100.132000  -20.299800  -65.453000
  C    -98.286200  -20.651600  -66.330200
  H    -98.565900  -21.111500  -67.298600
  H    -98.308600  -19.559300  -66.543900
  C    -96.891100  -21.139200  -65.997100
  H    -96.244700  -20.547100  -66.676400
  H    -96.601300  -20.871900  -64.971200
  H    -96.681500  -22.203300  -66.094700
  S    -100.349000  -26.935600  -63.077900
  C    -99.386200  -27.637800  -61.860900
  C    -98.131900  -27.154300  -61.996900
  C    -97.994800  -25.974800  -62.671600
  C    -99.136600  -25.742700  -63.467800
  H    -97.276700  -27.623900  -61.569400
  C    -96.727400  -25.118600  -62.722100
  H    -96.081100  -25.392300  -61.940200
  H    -96.954600  -24.081800  -62.597400
  C    -95.910400  -25.198700  -64.021100
  H    -96.509200  -24.951200  -64.902200
  H    -95.599800  -26.256100  -64.187800
  C    -94.541900  -24.543200  -63.992900
  H    -94.565600  -23.503800  -63.562800
  H    -93.974400  -24.612400  -64.906400
  H    -93.912900  -25.116100  -63.299700
  H    -100.594000  -22.502700  -67.047400
  H    -99.631400  -28.544900  -61.335200

 Total Charge           Charge          ....    0
 Multiplicity           Mult            ....    1
 Number of Electrons    NEL             ....  134
 Basis Dimension        Dim             ....  322

ORBITAL ENERGIES
----------------

  NO   OCC          E(Eh)            E(eV)
   0   2.0000     -88.968662     -2420.9604
   1   2.0000     -88.966114     -2420.8910
   2   2.0000     -10.330657      -281.1115
   3   2.0000     -10.325614      -280.9742
   4   2.0000     -10.317833      -280.7625
   5   2.0000     -10.310472      -280.5622
   6   2.0000     -10.302657      -280.3495
   7   2.0000     -10.300435      -280.2891
   8   2.0000     -10.295597      -280.1574
   9   2.0000     -10.294834      -280.1367
  10   2.0000     -10.289384      -279.9884
  11   2.0000     -10.288319      -279.9594
  12   2.0000     -10.284070      -279.8438
  13   2.0000     -10.283838      -279.8375
  14   2.0000     -10.279882      -279.7298
  15   2.0000     -10.274948      -279.5956
  16   2.0000      -8.082440      -219.9344
  17   2.0000      -8.081836      -219.9179
  18   2.0000      -6.041104      -164.3868
  19   2.0000      -6.040179      -164.3616
  20   2.0000      -6.037088      -164.2775
  21   2.0000      -6.036164      -164.2524
  22   2.0000      -6.033099      -164.1690
  23   2.0000      -6.032735      -164.1591
  24   2.0000      -1.015714       -27.6390
  25   2.0000      -0.985023       -26.8038
  26   2.0000      -0.917024       -24.9535
  27   2.0000      -0.911946       -24.8153
  28   2.0000      -0.870265       -23.6811
  29   2.0000      -0.857531       -23.3346
  30   2.0000      -0.841879       -22.9087
  31   2.0000      -0.812551       -22.1106
  32   2.0000      -0.786920       -21.4132
  33   2.0000      -0.771856       -21.0033
  34   2.0000      -0.708343       -19.2750
  35   2.0000      -0.698026       -18.9943
  36   2.0000      -0.690961       -18.8020
  37   2.0000      -0.665244       -18.1022
  38   2.0000      -0.632463       -17.2102
  39   2.0000      -0.618272       -16.8240
  40   2.0000      -0.604574       -16.4513
  41   2.0000      -0.575634       -15.6638
  42   2.0000      -0.565742       -15.3946
  43   2.0000      -0.547787       -14.9060
  44   2.0000      -0.535874       -14.5819
  45   2.0000      -0.529756       -14.4154
  46   2.0000      -0.520103       -14.1527
  47   2.0000      -0.513568       -13.9749
  48   2.0000      -0.508047       -13.8247
  49   2.0000      -0.498230       -13.5575
  50   2.0000      -0.493107       -13.4181
  51   2.0000      -0.482211       -13.1216
  52   2.0000      -0.479255       -13.0412
  53   2.0000      -0.465231       -12.6596
  54   2.0000      -0.459782       -12.5113
  55   2.0000      -0.450274       -12.2526
  56   2.0000      -0.440846       -11.9960
  57   2.0000      -0.437769       -11.9123
  58   2.0000      -0.432687       -11.7740
  59   2.0000      -0.427266       -11.6265
  60   2.0000      -0.420797       -11.4505
  61   2.0000      -0.408496       -11.1157
  62   2.0000      -0.406781       -11.0691
  63   2.0000      -0.352354        -9.5880
  64   2.0000      -0.333812        -9.0835
  65   2.0000      -0.328254        -8.9322
  66   2.0000      -0.282093        -7.6761
  67   0.0000       0.020338         0.5534
  68   0.0000       0.071967         1.9583
  69   0.0000       0.106900         2.9089
  70   0.0000       0.121359         3.3023
  71   0.0000       0.128447         3.4952

MULLIKEN ATOMIC CHARGES
-----------------------
   0 S :    0.106095
   1 C :   -0.138467
   2 C :   -0.085936
   3 C :    0.011253
   4 C :   -0.132952
   5 H :    0.013362
   6 C :    0.058129
   7 H :    0.029531
   8 H :    0.041487
   9 C :   -0.104811
  10 H :    0.035280
  11 H :    0.028780
  12 C :   -0.052396
  13 H :    0.031703
  14 H :    0.017019
  15 H :    0.052317
  16 S :    0.114208
  17 C :   -0.078242
  18 C :   -0.026334
  19 C :   -0.051731
  20 C :   -0.138849
  21 H :    0.002347
  22 C :    0.126102
  23 H :   -0.004974
  24 H :    0.007503
  25 C :   -0.089372
  26 H :    0.044370
  27 H :    0.020627
  28 C :   -0.049076
  29 H :    0.032167
  30 H :    0.038873
  31 H :    0.017416
  32 H :    0.065777
  33 H :    0.058793
Sum of atomic charges:   -0.0000000

LOEWDIN ATOMIC CHARGES
----------------------
   0 S :    0.390472
   1 C :   -0.202417
   2 C :   -0.058166
   3 C :   -0.066234
   4 C :   -0.186940
   5 H :    0.027806
   6 C :   -0.034197
   7 H :    0.029199
   8 H :    0.037833
   9 C :   -0.045788
  10 H :    0.027206
  11 H :    0.022761
  12 C :   -0.069007
  13 H :    0.030257
  14 H :    0.020098
  15 H :    0.027795
  16 S :    0.434783
  17 C :   -0.199368
  18 C :   -0.070149
  19 C :   -0.050957
  20 C :   -0.201915
  21 H :    0.026605
  22 C :   -0.020814
  23 H :    0.022547
  24 H :    0.024902
  25 C :   -0.044418
  26 H :    0.023845
  27 H :    0.027206
  28 C :   -0.070231
  29 H :    0.024832
  30 H :    0.028314
  31 H :    0.023770
  32 H :    0.039676
  33 H :    0.030692

  Mayer bond orders larger than 0.100000
B(  0-S ,  1-C ) :   1.1195 B(  0-S ,  4-C ) :   1.1446 B(  1-C ,  2-C ) :   1.6220
B(  1-C , 32-H ) :   0.9576 B(  2-C ,  3-C ) :   1.2346 B(  2-C ,  6-C ) :   1.0198
B(  3-C ,  4-C ) :   1.5578 B(  3-C ,  5-H ) :   0.9907 B(  4-C , 20-C ) :   1.0708
B(  6-C ,  7-H ) :   0.9504 B(  6-C ,  8-H ) :   0.9440 B(  6-C ,  9-C ) :   1.0635
B(  9-C , 10-H ) :   0.9558 B(  9-C , 11-H ) :   0.9587 B(  9-C , 12-C ) :   1.0658
B( 12-C , 13-H ) :   0.9736 B( 12-C , 14-H ) :   0.9764 B( 12-C , 15-H ) :   0.9744
B( 16-S , 17-C ) :   1.1764 B( 16-S , 20-C ) :   1.1630 B( 17-C , 18-C ) :   1.5524
B( 17-C , 20-C ) :   0.1146 B( 17-C , 33-H ) :   0.9670 B( 18-C , 19-C ) :   1.3191
B( 18-C , 21-H ) :   0.9848 B( 19-C , 20-C ) :   1.5181 B( 19-C , 22-C ) :   1.0523
B( 22-C , 23-H ) :   0.9248 B( 22-C , 24-H ) :   0.9261 B( 22-C , 25-C ) :   1.0642
B( 25-C , 26-H ) :   0.9562 B( 25-C , 27-H ) :   0.9538 B( 25-C , 28-C ) :   1.0791
B( 28-C , 29-H ) :   0.9734 B( 28-C , 30-H ) :   0.9723 B( 28-C , 31-H ) :   0.9732

Dispersion correction           -0.015452019
FINAL SINGLE POINT ENERGY     -1339.873521527752

DIPOLE MOMENT
-------------
                                X             Y             Z
Electronic contribution:    -24.82703     -18.82771       3.47959
Nuclear contribution   :     25.41258      19.13541      -3.36689
                        -----------------------------------------
Total Dipole Moment    :      0.58555       0.30770       0.11270
                        -----------------------------------------
Magnitude (a.u.)       :      0.67101
Magnitude (Debye)      :      1.70556

Rotational constants in cm-1:     0.018931     0.010193     0.007273
Rotational constants in MHz :   567.536726   305.568339   218.045032

                             ****ORCA TERMINATED NORMALLY****
TOTAL RUN TIME: 0 days 0 hours 0 minutes 21 seconds 804 msec
