                         Program Version 4.2.1 -  RELEASE  -
|  1> ! wB97X-D3 SP def2-SVP
|  2> %pal
|  3> nprocs 24
|  4> end
|  5>
|  6> * xyz 0 1
|  7> S 	 -30.4611 	 -5.77166 	 -1.81773
|  8> C 	 -30.2375 	 -5.31018 	 -0.159833
|  9> C 	 -30.8705 	 -6.20502 	 0.66678
| 10> C 	 -31.459 	 -7.29132 	 -0.0262835
| 11> C 	 -31.343 	 -7.21432 	 -1.3763
| 12> H 	 -31.931 	 -8.11619 	 0.505102
| 13> C 	 -30.8609 	 -5.95263 	 2.1848
| 14> H 	 -31.6924 	 -6.54415 	 2.62847
| 15> H 	 -31.1577 	 -4.87544 	 2.35819
| 16> C 	 -29.5705 	 -6.38253 	 2.8922
| 17> H 	 -28.7389 	 -5.75255 	 2.6588
| 18> H 	 -29.845 	 -6.29613 	 4.01397
| 19> C 	 -29.1833 	 -7.82294 	 2.72797
| 20> H 	 -28.8411 	 -8.05846 	 1.70341
| 21> H 	 -28.4432 	 -8.1228 	 3.45154
| 22> H 	 -29.965 	 -8.5307 	 2.8463
| 23> S 	 -30.7363 	 -8.57412 	 -3.77503
| 24> C 	 -31.9481 	 -9.50264 	 -4.56283
| 25> C 	 -33.1757 	 -9.37901 	 -3.89454
| 26> C 	 -33.06 	 -8.58323 	 -2.73324
| 27> C 	 -31.7905 	 -8.18764 	 -2.43892
| 28> H 	 -34.1521 	 -9.73904 	 -4.21589
| 29> C 	 -34.2998 	 -8.30323 	 -1.9314
| 30> H 	 -35.064 	 -8.27815 	 -2.72834
| 31> H 	 -34.3091 	 -7.33466 	 -1.42327
| 32> C 	 -34.637 	 -9.43435 	 -0.931829
| 33> H 	 -33.7549 	 -9.56091 	 -0.359931
| 34> H 	 -34.7318 	 -10.3361 	 -1.47326
| 35> C 	 -35.9235 	 -9.13803 	 -0.119584
| 36> H 	 -36.76 	 -8.8914 	 -0.801761
| 37> H 	 -35.8338 	 -8.31953 	 0.526745
| 38> H 	 -36.2632 	 -10.0772 	 0.30449
| 39> H 	 -29.7058 	 -4.41172 	 0.0812074
| 40> H 	 -31.8164 	 -10.137 	 -5.3605
| 41> *
| 42>
| 43>                          ****END OF INPUT****

CARTESIAN COORDINATES (ANGSTROEM)
---------------------------------
  S    -30.461100   -5.771660   -1.817730
  C    -30.237500   -5.310180   -0.159833
  C    -30.870500   -6.205020    0.666780
  C    -31.459000   -7.291320   -0.026284
  C    -31.343000   -7.214320   -1.376300
  H    -31.931000   -8.116190    0.505102
  C    -30.860900   -5.952630    2.184800
  H    -31.692400   -6.544150    2.628470
  H    -31.157700   -4.875440    2.358190
  C    -29.570500   -6.382530    2.892200
  H    -28.738900   -5.752550    2.658800
  H    -29.845000   -6.296130    4.013970
  C    -29.183300   -7.822940    2.727970
  H    -28.841100   -8.058460    1.703410
  H    -28.443200   -8.122800    3.451540
  H    -29.965000   -8.530700    2.846300
  S    -30.736300   -8.574120   -3.775030
  C    -31.948100   -9.502640   -4.562830
  C    -33.175700   -9.379010   -3.894540
  C    -33.060000   -8.583230   -2.733240
  C    -31.790500   -8.187640   -2.438920
  H    -34.152100   -9.739040   -4.215890
  C    -34.299800   -8.303230   -1.931400
  H    -35.064000   -8.278150   -2.728340
  H    -34.309100   -7.334660   -1.423270
  C    -34.637000   -9.434350   -0.931829
  H    -33.754900   -9.560910   -0.359931
  H    -34.731800  -10.336100   -1.473260
  C    -35.923500   -9.138030   -0.119584
  H    -36.760000   -8.891400   -0.801761
  H    -35.833800   -8.319530    0.526745
  H    -36.263200  -10.077200    0.304490
  H    -29.705800   -4.411720    0.081207
  H    -31.816400  -10.137000   -5.360500

 Total Charge           Charge          ....    0
 Multiplicity           Mult            ....    1
 Number of Electrons    NEL             ....  134
 Basis Dimension        Dim             ....  322

ORBITAL ENERGIES
----------------

  NO   OCC          E(Eh)            E(eV)
   0   2.0000     -88.967350     -2420.9247
   1   2.0000     -88.962364     -2420.7890
   2   2.0000     -10.330967      -281.1199
   3   2.0000     -10.324790      -280.9518
   4   2.0000     -10.315231      -280.6917
   5   2.0000     -10.309229      -280.5284
   6   2.0000     -10.298492      -280.2362
   7   2.0000     -10.297590      -280.2117
   8   2.0000     -10.294730      -280.1338
   9   2.0000     -10.294138      -280.1177
  10   2.0000     -10.292512      -280.0735
  11   2.0000     -10.289722      -279.9976
  12   2.0000     -10.287879      -279.9474
  13   2.0000     -10.280507      -279.7468
  14   2.0000     -10.277131      -279.6550
  15   2.0000     -10.270002      -279.4610
  16   2.0000      -8.082582      -219.9382
  17   2.0000      -8.077667      -219.8045
  18   2.0000      -6.041047      -164.3853
  19   2.0000      -6.036938      -164.2734
  20   2.0000      -6.036083      -164.2502
  21   2.0000      -6.033435      -164.1781
  22   2.0000      -6.032019      -164.1396
  23   2.0000      -6.028571      -164.0458
  24   2.0000      -1.010900       -27.5080
  25   2.0000      -0.991414       -26.9777
  26   2.0000      -0.911121       -24.7929
  27   2.0000      -0.910018       -24.7629
  28   2.0000      -0.865900       -23.5623
  29   2.0000      -0.854123       -23.2419
  30   2.0000      -0.845789       -23.0151
  31   2.0000      -0.818159       -22.2632
  32   2.0000      -0.782089       -21.2817
  33   2.0000      -0.772793       -21.0288
  34   2.0000      -0.707968       -19.2648
  35   2.0000      -0.698193       -18.9988
  36   2.0000      -0.696233       -18.9455
  37   2.0000      -0.667832       -18.1726
  38   2.0000      -0.644725       -17.5439
  39   2.0000      -0.617945       -16.8151
  40   2.0000      -0.599524       -16.3139
  41   2.0000      -0.574174       -15.6241
  42   2.0000      -0.564900       -15.3717
  43   2.0000      -0.548269       -14.9192
  44   2.0000      -0.541144       -14.7253
  45   2.0000      -0.527777       -14.3615
  46   2.0000      -0.514629       -14.0038
  47   2.0000      -0.511296       -13.9131
  48   2.0000      -0.507252       -13.8030
  49   2.0000      -0.496242       -13.5034
  50   2.0000      -0.493013       -13.4156
  51   2.0000      -0.480062       -13.0632
  52   2.0000      -0.474395       -12.9089
  53   2.0000      -0.471654       -12.8344
  54   2.0000      -0.458213       -12.4686
  55   2.0000      -0.450014       -12.2455
  56   2.0000      -0.442258       -12.0344
  57   2.0000      -0.439452       -11.9581
  58   2.0000      -0.433559       -11.7977
  59   2.0000      -0.428055       -11.6480
  60   2.0000      -0.422671       -11.5015
  61   2.0000      -0.416038       -11.3210
  62   2.0000      -0.403559       -10.9814
  63   2.0000      -0.348032        -9.4704
  64   2.0000      -0.332502        -9.0479
  65   2.0000      -0.330111        -8.9828
  66   2.0000      -0.296043        -8.0557
  67   0.0000       0.035483         0.9655
  68   0.0000       0.067735         1.8431
  69   0.0000       0.112894         3.0720
  70   0.0000       0.125303         3.4097
  71   0.0000       0.134118         3.6495

MULLIKEN ATOMIC CHARGES
-----------------------
   0 S :    0.103113
   1 C :   -0.132909
   2 C :   -0.090572
   3 C :    0.015532
   4 C :   -0.129514
   5 H :    0.011170
   6 C :    0.044397
   7 H :    0.018361
   8 H :    0.046201
   9 C :   -0.068905
  10 H :    0.032254
  11 H :    0.038518
  12 C :   -0.041155
  13 H :    0.040755
  14 H :    0.033525
  15 H :    0.007606
  16 S :    0.113261
  17 C :   -0.051740
  18 C :   -0.027056
  19 C :   -0.058226
  20 C :   -0.151174
  21 H :    0.018488
  22 C :    0.042491
  23 H :    0.015935
  24 H :    0.033189
  25 C :   -0.034975
  26 H :    0.011570
  27 H :    0.005800
  28 C :   -0.005539
  29 H :    0.020159
  30 H :    0.029852
  31 H :    0.032782
  32 H :    0.046697
  33 H :    0.030104
Sum of atomic charges:    0.0000000

LOEWDIN ATOMIC CHARGES
----------------------
   0 S :    0.407612
   1 C :   -0.194823
   2 C :   -0.070401
   3 C :   -0.073560
   4 C :   -0.183846
   5 H :    0.032591
   6 C :   -0.036677
   7 H :    0.028938
   8 H :    0.038829
   9 C :   -0.042160
  10 H :    0.020112
  11 H :    0.034840
  12 C :   -0.068386
  13 H :    0.029883
  14 H :    0.027841
  15 H :    0.017451
  16 S :    0.426640
  17 C :   -0.177672
  18 C :   -0.069200
  19 C :   -0.059368
  20 C :   -0.208212
  21 H :    0.031284
  22 C :   -0.029572
  23 H :    0.028496
  24 H :    0.029306
  25 C :   -0.029455
  26 H :    0.015368
  27 H :    0.017840
  28 C :   -0.058586
  29 H :    0.029233
  30 H :    0.018167
  31 H :    0.028502
  32 H :    0.024560
  33 H :    0.014427

  Mayer bond orders larger than 0.100000
B(  0-S ,  1-C ) :   1.1458 B(  0-S ,  4-C ) :   1.1662 B(  1-C ,  2-C ) :   1.5892
B(  1-C , 32-H ) :   0.9787 B(  2-C ,  3-C ) :   1.2611 B(  2-C ,  6-C ) :   1.0085
B(  3-C ,  4-C ) :   1.5751 B(  3-C ,  5-H ) :   0.9973 B(  4-C , 20-C ) :   1.0029
B(  6-C ,  7-H ) :   0.9400 B(  6-C ,  8-H ) :   0.9473 B(  6-C ,  9-C ) :   1.0719
B(  9-C , 10-H ) :   0.9576 B(  9-C , 11-H ) :   0.9554 B(  9-C , 12-C ) :   1.0827
B( 12-C , 13-H ) :   0.9679 B( 12-C , 14-H ) :   0.9720 B( 12-C , 15-H ) :   0.9718
B( 16-S , 17-C ) :   1.1819 B( 16-S , 20-C ) :   1.1370 B( 17-C , 18-C ) :   1.5557
B( 17-C , 33-H ) :   0.9789 B( 18-C , 19-C ) :   1.2897 B( 18-C , 21-H ) :   0.9847
B( 19-C , 20-C ) :   1.5842 B( 19-C , 22-C ) :   1.0446 B( 22-C , 23-H ) :   0.9302
B( 22-C , 24-H ) :   0.9351 B( 22-C , 25-C ) :   1.0631 B( 25-C , 26-H ) :   0.9545
B( 25-C , 27-H ) :   0.9504 B( 25-C , 28-C ) :   1.0792 B( 28-C , 29-H ) :   0.9713
B( 28-C , 30-H ) :   0.9771 B( 28-C , 31-H ) :   0.9739

Dispersion correction           -0.014547088
FINAL SINGLE POINT ENERGY     -1339.888401381882

DIPOLE MOMENT
-------------
                                X             Y             Z
Electronic contribution:     11.50973       5.57400     -23.75982
Nuclear contribution   :    -11.92728      -5.73227      24.14854
                        -----------------------------------------
Total Dipole Moment    :     -0.41756      -0.15827       0.38873
                        -----------------------------------------
Magnitude (a.u.)       :      0.59204
Magnitude (Debye)      :      1.50484

Rotational constants in cm-1:     0.017869     0.009015     0.006961
Rotational constants in MHz :   535.708005   270.271967   208.672423

                             ****ORCA TERMINATED NORMALLY****
TOTAL RUN TIME: 0 days 0 hours 0 minutes 21 seconds 731 msec
