                         Program Version 4.2.1 -  RELEASE  -
|  1> ! wB97X-D3 SP def2-SVP
|  2> %pal
|  3> nprocs 24
|  4> end
|  5>
|  6> * xyz 0 1
|  7> S 	 -65.8893 	 9.24388 	 -76.0003
|  8> C 	 -66.2229 	 7.65465 	 -75.3781
|  9> C 	 -66.231 	 6.6909 	 -76.4084
| 10> C 	 -66.3141 	 7.31743 	 -77.6598
| 11> C 	 -66.0724 	 8.69158 	 -77.5971
| 12> H 	 -66.3846 	 6.88071 	 -78.6012
| 13> C 	 -66.3257 	 5.19128 	 -76.224
| 14> H 	 -67.4546 	 5.00111 	 -76.3694
| 15> H 	 -65.9782 	 4.97526 	 -75.2731
| 16> C 	 -65.3849 	 4.36998 	 -77.1777
| 17> H 	 -65.5963 	 3.3297 	 -77.0107
| 18> H 	 -65.5937 	 4.57295 	 -78.2367
| 19> C 	 -63.9058 	 4.57275 	 -77.0719
| 20> H 	 -63.5488 	 4.54017 	 -76.0132
| 21> H 	 -63.4275 	 3.83065 	 -77.7569
| 22> H 	 -63.5579 	 5.60718 	 -77.3296
| 23> S 	 -66.3044 	 11.3589 	 -78.3592
| 24> C 	 -65.899 	 11.8625 	 -80.0149
| 25> C 	 -65.513 	 10.7188 	 -80.7313
| 26> C 	 -65.2934 	 9.49554 	 -79.9306
| 27> C 	 -65.9031 	 9.63521 	 -78.6784
| 28> H 	 -65.2991 	 10.7542 	 -81.7982
| 29> C 	 -64.7405 	 8.23058 	 -80.5132
| 30> H 	 -64.6363 	 7.49613 	 -79.709
| 31> H 	 -63.7539 	 8.42374 	 -80.9493
| 32> C 	 -65.6679 	 7.57202 	 -81.5518
| 33> H 	 -65.7728 	 8.31889 	 -82.3832
| 34> H 	 -66.6476 	 7.44557 	 -81.1457
| 35> C 	 -65.0842 	 6.29656 	 -82.1321
| 36> H 	 -64.9102 	 5.55561 	 -81.3853
| 37> H 	 -64.1795 	 6.57872 	 -82.759
| 38> H 	 -65.7545 	 5.88758 	 -82.8931
| 39> H 	 -66.2249 	 7.52523 	 -74.2732
| 40> H 	 -65.9474 	 12.9106 	 -80.4339
| 41> *
| 42>
| 43>                          ****END OF INPUT****

CARTESIAN COORDINATES (ANGSTROEM)
---------------------------------
  S    -65.889300    9.243880  -76.000300
  C    -66.222900    7.654650  -75.378100
  C    -66.231000    6.690900  -76.408400
  C    -66.314100    7.317430  -77.659800
  C    -66.072400    8.691580  -77.597100
  H    -66.384600    6.880710  -78.601200
  C    -66.325700    5.191280  -76.224000
  H    -67.454600    5.001110  -76.369400
  H    -65.978200    4.975260  -75.273100
  C    -65.384900    4.369980  -77.177700
  H    -65.596300    3.329700  -77.010700
  H    -65.593700    4.572950  -78.236700
  C    -63.905800    4.572750  -77.071900
  H    -63.548800    4.540170  -76.013200
  H    -63.427500    3.830650  -77.756900
  H    -63.557900    5.607180  -77.329600
  S    -66.304400   11.358900  -78.359200
  C    -65.899000   11.862500  -80.014900
  C    -65.513000   10.718800  -80.731300
  C    -65.293400    9.495540  -79.930600
  C    -65.903100    9.635210  -78.678400
  H    -65.299100   10.754200  -81.798200
  C    -64.740500    8.230580  -80.513200
  H    -64.636300    7.496130  -79.709000
  H    -63.753900    8.423740  -80.949300
  C    -65.667900    7.572020  -81.551800
  H    -65.772800    8.318890  -82.383200
  H    -66.647600    7.445570  -81.145700
  C    -65.084200    6.296560  -82.132100
  H    -64.910200    5.555610  -81.385300
  H    -64.179500    6.578720  -82.759000
  H    -65.754500    5.887580  -82.893100
  H    -66.224900    7.525230  -74.273200
  H    -65.947400   12.910600  -80.433900

 Total Charge           Charge          ....    0
 Multiplicity           Mult            ....    1
 Number of Electrons    NEL             ....  134
 Basis Dimension        Dim             ....  322

ORBITAL ENERGIES
----------------

  NO   OCC          E(Eh)            E(eV)
   0   2.0000     -88.966122     -2420.8913
   1   2.0000     -88.963307     -2420.8147
   2   2.0000     -10.330880      -281.1175
   3   2.0000     -10.328464      -281.0518
   4   2.0000     -10.325039      -280.9586
   5   2.0000     -10.316193      -280.7179
   6   2.0000     -10.308052      -280.4963
   7   2.0000     -10.304157      -280.3904
   8   2.0000     -10.301248      -280.3112
   9   2.0000     -10.297719      -280.2152
  10   2.0000     -10.292890      -280.0838
  11   2.0000     -10.289366      -279.9879
  12   2.0000     -10.288855      -279.9740
  13   2.0000     -10.288651      -279.9684
  14   2.0000     -10.285461      -279.8816
  15   2.0000     -10.283485      -279.8278
  16   2.0000      -8.082004      -219.9225
  17   2.0000      -8.076911      -219.7839
  18   2.0000      -6.040261      -164.3639
  19   2.0000      -6.036324      -164.2567
  20   2.0000      -6.035737      -164.2408
  21   2.0000      -6.032999      -164.1663
  22   2.0000      -6.031575      -164.1275
  23   2.0000      -6.027397      -164.0138
  24   2.0000      -1.009602       -27.4727
  25   2.0000      -0.976360       -26.5681
  26   2.0000      -0.915549       -24.9134
  27   2.0000      -0.911893       -24.8139
  28   2.0000      -0.868295       -23.6275
  29   2.0000      -0.856379       -23.3033
  30   2.0000      -0.843427       -22.9508
  31   2.0000      -0.812935       -22.1211
  32   2.0000      -0.783032       -21.3074
  33   2.0000      -0.769607       -20.9421
  34   2.0000      -0.706549       -19.2262
  35   2.0000      -0.697375       -18.9765
  36   2.0000      -0.689769       -18.7696
  37   2.0000      -0.658951       -17.9310
  38   2.0000      -0.641406       -17.4536
  39   2.0000      -0.627083       -17.0638
  40   2.0000      -0.594042       -16.1647
  41   2.0000      -0.573811       -15.6142
  42   2.0000      -0.559776       -15.2323
  43   2.0000      -0.553137       -15.0516
  44   2.0000      -0.540063       -14.6959
  45   2.0000      -0.525859       -14.3093
  46   2.0000      -0.524646       -14.2764
  47   2.0000      -0.510964       -13.9040
  48   2.0000      -0.505914       -13.7666
  49   2.0000      -0.495209       -13.4753
  50   2.0000      -0.494800       -13.4642
  51   2.0000      -0.487427       -13.2636
  52   2.0000      -0.469050       -12.7635
  53   2.0000      -0.465665       -12.6714
  54   2.0000      -0.457957       -12.4616
  55   2.0000      -0.453532       -12.3412
  56   2.0000      -0.445096       -12.1117
  57   2.0000      -0.441658       -12.0181
  58   2.0000      -0.432067       -11.7571
  59   2.0000      -0.423819       -11.5327
  60   2.0000      -0.419818       -11.4238
  61   2.0000      -0.416098       -11.3226
  62   2.0000      -0.412752       -11.2315
  63   2.0000      -0.348938        -9.4951
  64   2.0000      -0.333261        -9.0685
  65   2.0000      -0.324193        -8.8217
  66   2.0000      -0.282798        -7.6953
  67   0.0000       0.020457         0.5567
  68   0.0000       0.080949         2.2027
  69   0.0000       0.097827         2.6620
  70   0.0000       0.112247         3.0544
  71   0.0000       0.118030         3.2118

MULLIKEN ATOMIC CHARGES
-----------------------
   0 S :    0.119222
   1 C :   -0.147811
   2 C :   -0.106360
   3 C :    0.042271
   4 C :   -0.135884
   5 H :   -0.028496
   6 C :    0.102824
   7 H :    0.068247
   8 H :   -0.000030
   9 C :   -0.079651
  10 H :    0.029711
  11 H :    0.024151
  12 C :   -0.082592
  13 H :    0.030690
  14 H :    0.051269
  15 H :    0.044352
  16 S :    0.079510
  17 C :   -0.106957
  18 C :   -0.039704
  19 C :   -0.048745
  20 C :   -0.126210
  21 H :    0.025449
  22 C :    0.053158
  23 H :    0.016710
  24 H :    0.030446
  25 C :   -0.099916
  26 H :    0.025752
  27 H :    0.031073
  28 C :   -0.029339
  29 H :    0.033128
  30 H :    0.037651
  31 H :    0.034097
  32 H :    0.063370
  33 H :    0.088614
Sum of atomic charges:   -0.0000000

LOEWDIN ATOMIC CHARGES
----------------------
   0 S :    0.437712
   1 C :   -0.213865
   2 C :   -0.061317
   3 C :   -0.062606
   4 C :   -0.201813
   5 H :    0.017241
   6 C :   -0.025727
   7 H :    0.052330
   8 H :    0.017475
   9 C :   -0.044744
  10 H :    0.024270
  11 H :    0.021557
  12 C :   -0.074136
  13 H :    0.026227
  14 H :    0.036173
  15 H :    0.029333
  16 S :    0.362791
  17 C :   -0.189573
  18 C :   -0.071157
  19 C :   -0.051838
  20 C :   -0.181592
  21 H :    0.027124
  22 C :   -0.035186
  23 H :    0.026505
  24 H :    0.033554
  25 C :   -0.040659
  26 H :    0.026020
  27 H :    0.018558
  28 C :   -0.065918
  29 H :    0.019137
  30 H :    0.035438
  31 H :    0.028941
  32 H :    0.031022
  33 H :    0.048725

  Mayer bond orders larger than 0.100000
B(  0-S ,  1-C ) :   1.1588 B(  0-S ,  4-C ) :   1.1854 B(  1-C ,  2-C ) :   1.5522
B(  1-C ,  4-C ) :   0.1029 B(  1-C , 32-H ) :   0.9691 B(  2-C ,  3-C ) :   1.2628
B(  2-C ,  6-C ) :   1.0195 B(  3-C ,  4-C ) :   1.5262 B(  3-C ,  5-H ) :   1.0036
B(  4-C , 20-C ) :   1.0744 B(  6-C ,  7-H ) :   0.9421 B(  6-C ,  8-H ) :   0.9353
B(  6-C ,  9-C ) :   1.0665 B(  9-C , 10-H ) :   0.9568 B(  9-C , 11-H ) :   0.9545
B(  9-C , 12-C ) :   1.0785 B( 12-C , 13-H ) :   0.9722 B( 12-C , 14-H ) :   0.9706
B( 12-C , 15-H ) :   0.9701 B( 16-S , 17-C ) :   1.1283 B( 16-S , 20-C ) :   1.1154
B( 17-C , 18-C ) :   1.6337 B( 17-C , 33-H ) :   0.9618 B( 18-C , 19-C ) :   1.2016
B( 18-C , 21-H ) :   0.9804 B( 19-C , 20-C ) :   1.5921 B( 19-C , 22-C ) :   1.0690
B( 22-C , 23-H ) :   0.9316 B( 22-C , 24-H ) :   0.9237 B( 22-C , 25-C ) :   1.0603
B( 25-C , 26-H ) :   0.9516 B( 25-C , 27-H ) :   0.9536 B( 25-C , 28-C ) :   1.0881
B( 28-C , 29-H ) :   0.9746 B( 28-C , 30-H ) :   0.9708 B( 28-C , 31-H ) :   0.9711

Dispersion correction           -0.015017405
FINAL SINGLE POINT ENERGY     -1339.876411719058

DIPOLE MOMENT
-------------
                                X             Y             Z
Electronic contribution:     -7.43518      27.64681      13.53324
Nuclear contribution   :      7.63491     -28.27252     -13.94921
                        -----------------------------------------
Total Dipole Moment    :      0.19972      -0.62571      -0.41597
                        -----------------------------------------
Magnitude (a.u.)       :      0.77745
Magnitude (Debye)      :      1.97613

Rotational constants in cm-1:     0.016833     0.010834     0.007002
Rotational constants in MHz :   504.651501   324.782140   209.901143

                             ****ORCA TERMINATED NORMALLY****
TOTAL RUN TIME: 0 days 0 hours 0 minutes 21 seconds 585 msec
