                         Program Version 4.2.1 -  RELEASE  -
|  1> ! wB97X-D3 SP def2-SVP
|  2> %pal
|  3> nprocs 24
|  4> end
|  5>
|  6> * xyz 0 1
|  7> S 	 -89.2705 	 -0.870025 	 1.3594
|  8> C 	 -88.5954 	 -1.21635 	 2.94944
|  9> C 	 -88.4454 	 -0.103397 	 3.79739
| 10> C 	 -88.8329 	 1.06254 	 3.09155
| 11> C 	 -89.5567 	 0.795163 	 1.89594
| 12> H 	 -88.7626 	 2.09011 	 3.4426
| 13> C 	 -87.7885 	 -0.0862846 	 5.16192
| 14> H 	 -86.9743 	 0.572301 	 5.01515
| 15> H 	 -87.3509 	 -1.0538 	 5.48444
| 16> C 	 -88.5829 	 0.524106 	 6.29396
| 17> H 	 -87.9133 	 0.854751 	 7.06204
| 18> H 	 -88.9643 	 1.55735 	 5.93389
| 19> C 	 -89.7721 	 -0.218107 	 6.81502
| 20> H 	 -89.6873 	 -1.1835 	 7.25238
| 21> H 	 -90.2342 	 0.407967 	 7.58875
| 22> H 	 -90.398 	 -0.240325 	 5.96584
| 23> S 	 -92.0789 	 1.43088 	 1.17124
| 24> C 	 -92.4469 	 2.61983 	 -0.023783
| 25> C 	 -91.3063 	 3.37214 	 -0.322944
| 26> C 	 -90.1264 	 2.92706 	 0.392275
| 27> C 	 -90.3584 	 1.73354 	 1.08218
| 28> H 	 -91.4273 	 4.24646 	 -0.920799
| 29> C 	 -88.8485 	 3.6682 	 0.502378
| 30> H 	 -88.3446 	 3.25773 	 1.36416
| 31> H 	 -89.1499 	 4.69886 	 0.84454
| 32> C 	 -87.9997 	 3.62314 	 -0.724753
| 33> H 	 -88.6386 	 3.96487 	 -1.53145
| 34> H 	 -87.7196 	 2.60302 	 -1.07491
| 35> C 	 -86.7548 	 4.52435 	 -0.718089
| 36> H 	 -86.8958 	 5.58912 	 -0.933915
| 37> H 	 -86.013 	 4.16871 	 -1.37535
| 38> H 	 -86.2661 	 4.53962 	 0.264044
| 39> H 	 -88.2733 	 -2.15541 	 3.2997
| 40> H 	 -93.4442 	 2.93884 	 -0.339042
| 41> *
| 42>
| 43>                          ****END OF INPUT****

CARTESIAN COORDINATES (ANGSTROEM)
---------------------------------
  S    -89.270500   -0.870025    1.359400
  C    -88.595400   -1.216350    2.949440
  C    -88.445400   -0.103397    3.797390
  C    -88.832900    1.062540    3.091550
  C    -89.556700    0.795163    1.895940
  H    -88.762600    2.090110    3.442600
  C    -87.788500   -0.086285    5.161920
  H    -86.974300    0.572301    5.015150
  H    -87.350900   -1.053800    5.484440
  C    -88.582900    0.524106    6.293960
  H    -87.913300    0.854751    7.062040
  H    -88.964300    1.557350    5.933890
  C    -89.772100   -0.218107    6.815020
  H    -89.687300   -1.183500    7.252380
  H    -90.234200    0.407967    7.588750
  H    -90.398000   -0.240325    5.965840
  S    -92.078900    1.430880    1.171240
  C    -92.446900    2.619830   -0.023783
  C    -91.306300    3.372140   -0.322944
  C    -90.126400    2.927060    0.392275
  C    -90.358400    1.733540    1.082180
  H    -91.427300    4.246460   -0.920799
  C    -88.848500    3.668200    0.502378
  H    -88.344600    3.257730    1.364160
  H    -89.149900    4.698860    0.844540
  C    -87.999700    3.623140   -0.724753
  H    -88.638600    3.964870   -1.531450
  H    -87.719600    2.603020   -1.074910
  C    -86.754800    4.524350   -0.718089
  H    -86.895800    5.589120   -0.933915
  H    -86.013000    4.168710   -1.375350
  H    -86.266100    4.539620    0.264044
  H    -88.273300   -2.155410    3.299700
  H    -93.444200    2.938840   -0.339042

 Total Charge           Charge          ....    0
 Multiplicity           Mult            ....    1
 Number of Electrons    NEL             ....  134
 Basis Dimension        Dim             ....  322

ORBITAL ENERGIES
----------------

  NO   OCC          E(Eh)            E(eV)
   0   2.0000     -88.971811     -2421.0461
   1   2.0000     -88.961195     -2420.7572
   2   2.0000     -10.335521      -281.2438
   3   2.0000     -10.325170      -280.9622
   4   2.0000     -10.317277      -280.7474
   5   2.0000     -10.313123      -280.6343
   6   2.0000     -10.304770      -280.4071
   7   2.0000     -10.304368      -280.3961
   8   2.0000     -10.300760      -280.2979
   9   2.0000     -10.294245      -280.1207
  10   2.0000     -10.292748      -280.0799
  11   2.0000     -10.288897      -279.9751
  12   2.0000     -10.287799      -279.9452
  13   2.0000     -10.284535      -279.8564
  14   2.0000     -10.272620      -279.5322
  15   2.0000     -10.267434      -279.3911
  16   2.0000      -8.085532      -220.0185
  17   2.0000      -8.076471      -219.7720
  18   2.0000      -6.043916      -164.4633
  19   2.0000      -6.040366      -164.3667
  20   2.0000      -6.036295      -164.2559
  21   2.0000      -6.034950      -164.2193
  22   2.0000      -6.030855      -164.1079
  23   2.0000      -6.027261      -164.0101
  24   2.0000      -1.002284       -27.2735
  25   2.0000      -0.980809       -26.6892
  26   2.0000      -0.917298       -24.9610
  27   2.0000      -0.913756       -24.8646
  28   2.0000      -0.865764       -23.5586
  29   2.0000      -0.851200       -23.1623
  30   2.0000      -0.847027       -23.0488
  31   2.0000      -0.812424       -22.1072
  32   2.0000      -0.789336       -21.4789
  33   2.0000      -0.773803       -21.0562
  34   2.0000      -0.708721       -19.2853
  35   2.0000      -0.698354       -19.0032
  36   2.0000      -0.691768       -18.8240
  37   2.0000      -0.657793       -17.8994
  38   2.0000      -0.637903       -17.3582
  39   2.0000      -0.621407       -16.9094
  40   2.0000      -0.594174       -16.1683
  41   2.0000      -0.572381       -15.5753
  42   2.0000      -0.561770       -15.2865
  43   2.0000      -0.555845       -15.1253
  44   2.0000      -0.539705       -14.6861
  45   2.0000      -0.528926       -14.3928
  46   2.0000      -0.521526       -14.1914
  47   2.0000      -0.510990       -13.9047
  48   2.0000      -0.506212       -13.7747
  49   2.0000      -0.492291       -13.3959
  50   2.0000      -0.488952       -13.3050
  51   2.0000      -0.478975       -13.0336
  52   2.0000      -0.470429       -12.8010
  53   2.0000      -0.466139       -12.6843
  54   2.0000      -0.459614       -12.5067
  55   2.0000      -0.448985       -12.2175
  56   2.0000      -0.444967       -12.1082
  57   2.0000      -0.442033       -12.0283
  58   2.0000      -0.438210       -11.9243
  59   2.0000      -0.425007       -11.5650
  60   2.0000      -0.420338       -11.4380
  61   2.0000      -0.410676       -11.1751
  62   2.0000      -0.407510       -11.0889
  63   2.0000      -0.337211        -9.1760
  64   2.0000      -0.326498        -8.8845
  65   2.0000      -0.323212        -8.7950
  66   2.0000      -0.295770        -8.0483
  67   0.0000       0.031410         0.8547
  68   0.0000       0.058335         1.5874
  69   0.0000       0.105913         2.8820
  70   0.0000       0.108267         2.9461
  71   0.0000       0.131402         3.5756

MULLIKEN ATOMIC CHARGES
-----------------------
   0 S :    0.137264
   1 C :   -0.089216
   2 C :   -0.098398
   3 C :    0.039411
   4 C :   -0.186255
   5 H :    0.024626
   6 C :    0.107408
   7 H :    0.022785
   8 H :    0.023935
   9 C :   -0.117813
  10 H :    0.017853
  11 H :    0.022149
  12 C :   -0.000552
  13 H :    0.027043
  14 H :    0.029251
  15 H :    0.028723
  16 S :    0.111839
  17 C :   -0.089067
  18 C :   -0.043358
  19 C :   -0.037471
  20 C :   -0.190358
  21 H :    0.012347
  22 C :    0.094505
  23 H :    0.001115
  24 H :    0.036874
  25 C :   -0.074324
  26 H :    0.019732
  27 H :    0.037826
  28 C :   -0.022787
  29 H :    0.031075
  30 H :    0.022464
  31 H :    0.018132
  32 H :    0.020416
  33 H :    0.062825
Sum of atomic charges:    0.0000000

LOEWDIN ATOMIC CHARGES
----------------------
   0 S :    0.406904
   1 C :   -0.187733
   2 C :   -0.061903
   3 C :   -0.055667
   4 C :   -0.198034
   5 H :    0.028650
   6 C :   -0.030144
   7 H :    0.034313
   8 H :    0.032555
   9 C :   -0.046748
  10 H :    0.017262
  11 H :    0.031008
  12 C :   -0.061435
  13 H :    0.019701
  14 H :    0.031872
  15 H :    0.025625
  16 S :    0.421493
  17 C :   -0.196215
  18 C :   -0.073925
  19 C :   -0.051149
  20 C :   -0.210139
  21 H :    0.026186
  22 C :   -0.036263
  23 H :    0.025481
  24 H :    0.041455
  25 C :   -0.043757
  26 H :    0.023962
  27 H :    0.033859
  28 C :   -0.067750
  29 H :    0.026115
  30 H :    0.021413
  31 H :    0.024684
  32 H :    0.014699
  33 H :    0.033625

  Mayer bond orders larger than 0.100000
B(  0-S ,  1-C ) :   1.1442 B(  0-S ,  4-C ) :   1.1566 B(  1-C ,  2-C ) :   1.5986
B(  1-C ,  4-C ) :   0.1094 B(  1-C , 32-H ) :   0.9680 B(  2-C ,  3-C ) :   1.2512
B(  2-C ,  6-C ) :   1.0214 B(  3-C ,  4-C ) :   1.5655 B(  3-C ,  5-H ) :   0.9786
B(  4-C , 20-C ) :   1.0222 B(  6-C ,  7-H ) :   0.9273 B(  6-C ,  8-H ) :   0.9422
B(  6-C ,  9-C ) :   1.0847 B(  9-C , 10-H ) :   0.9526 B(  9-C , 11-H ) :   0.9507
B(  9-C , 12-C ) :   1.0724 B( 12-C , 13-H ) :   0.9763 B( 12-C , 14-H ) :   0.9691
B( 12-C , 15-H ) :   0.9738 B( 16-S , 17-C ) :   1.1674 B( 16-S , 20-C ) :   1.1580
B( 17-C , 18-C ) :   1.5946 B( 17-C , 20-C ) :   0.1011 B( 17-C , 33-H ) :   0.9657
B( 18-C , 19-C ) :   1.2344 B( 18-C , 21-H ) :   0.9947 B( 19-C , 20-C ) :   1.5799
B( 19-C , 22-C ) :   1.0495 B( 22-C , 23-H ) :   0.9183 B( 22-C , 24-H ) :   0.9311
B( 22-C , 25-C ) :   1.0665 B( 25-C , 26-H ) :   0.9573 B( 25-C , 27-H ) :   0.9541
B( 25-C , 28-C ) :   1.0775 B( 28-C , 29-H ) :   0.9753 B( 28-C , 30-H ) :   0.9746
B( 28-C , 31-H ) :   0.9734

Dispersion correction           -0.013963543
FINAL SINGLE POINT ENERGY     -1339.862820743824

DIPOLE MOMENT
-------------
                                X             Y             Z
Electronic contribution:    -14.54767     -11.62824     -10.97268
Nuclear contribution   :     14.89458      12.10878      11.31115
                        -----------------------------------------
Total Dipole Moment    :      0.34690       0.48054       0.33847
                        -----------------------------------------
Magnitude (a.u.)       :      0.68251
Magnitude (Debye)      :      1.73481

Rotational constants in cm-1:     0.017829     0.008170     0.007051
Rotational constants in MHz :   534.492092   244.943778   211.377370

                             ****ORCA TERMINATED NORMALLY****
TOTAL RUN TIME: 0 days 0 hours 0 minutes 21 seconds 208 msec
