                         Program Version 4.2.1 -  RELEASE  -
|  1> ! wB97X-D3 SP def2-SVP
|  2> %pal
|  3> nprocs 24
|  4> end
|  5>
|  6> * xyz 0 1
|  7> S 	 -104.878 	 40.6538 	 -91.9309
|  8> C 	 -103.787 	 39.3199 	 -91.9182
|  9> C 	 -102.838 	 39.334 	 -92.9262
| 10> C 	 -103.074 	 40.5174 	 -93.6605
| 11> C 	 -104.105 	 41.3461 	 -93.2794
| 12> H 	 -102.486 	 40.8306 	 -94.4308
| 13> C 	 -101.694 	 38.4309 	 -93.1728
| 14> H 	 -100.887 	 38.5128 	 -92.4061
| 15> H 	 -101.193 	 38.8273 	 -94.0796
| 16> C 	 -102.115 	 36.942 	 -93.3596
| 17> H 	 -102.561 	 36.4531 	 -92.4863
| 18> H 	 -102.879 	 36.8234 	 -94.1686
| 19> C 	 -100.924 	 36.1193 	 -93.7722
| 20> H 	 -100.176 	 36.0635 	 -92.999
| 21> H 	 -101.11 	 35.0397 	 -93.9796
| 22> H 	 -100.386 	 36.4932 	 -94.6974
| 23> S 	 -105.228 	 43.7817 	 -92.764
| 24> C 	 -105.396 	 45.023 	 -94.0237
| 25> C 	 -104.999 	 44.5452 	 -95.25
| 26> C 	 -104.525 	 43.1787 	 -95.1761
| 27> C 	 -104.589 	 42.6305 	 -93.8974
| 28> H 	 -105.039 	 45.2351 	 -96.0626
| 29> C 	 -104.164 	 42.3894 	 -96.3581
| 30> H 	 -104.165 	 41.3731 	 -96.0575
| 31> H 	 -103.064 	 42.5538 	 -96.5613
| 32> C 	 -104.976 	 42.5606 	 -97.5673
| 33> H 	 -105.114 	 43.5947 	 -97.808
| 34> H 	 -105.983 	 42.298 	 -97.3584
| 35> C 	 -104.567 	 41.646 	 -98.7394
| 36> H 	 -103.573 	 41.7323 	 -99.134
| 37> H 	 -105.246 	 41.7208 	 -99.5902
| 38> H 	 -104.604 	 40.5844 	 -98.477
| 39> H 	 -103.798 	 38.4562 	 -91.2544
| 40> H 	 -106.009 	 45.9462 	 -93.8635
| 41> *
| 42>
| 43>                          ****END OF INPUT****

CARTESIAN COORDINATES (ANGSTROEM)
---------------------------------
  S    -104.878000   40.653800  -91.930900
  C    -103.787000   39.319900  -91.918200
  C    -102.838000   39.334000  -92.926200
  C    -103.074000   40.517400  -93.660500
  C    -104.105000   41.346100  -93.279400
  H    -102.486000   40.830600  -94.430800
  C    -101.694000   38.430900  -93.172800
  H    -100.887000   38.512800  -92.406100
  H    -101.193000   38.827300  -94.079600
  C    -102.115000   36.942000  -93.359600
  H    -102.561000   36.453100  -92.486300
  H    -102.879000   36.823400  -94.168600
  C    -100.924000   36.119300  -93.772200
  H    -100.176000   36.063500  -92.999000
  H    -101.110000   35.039700  -93.979600
  H    -100.386000   36.493200  -94.697400
  S    -105.228000   43.781700  -92.764000
  C    -105.396000   45.023000  -94.023700
  C    -104.999000   44.545200  -95.250000
  C    -104.525000   43.178700  -95.176100
  C    -104.589000   42.630500  -93.897400
  H    -105.039000   45.235100  -96.062600
  C    -104.164000   42.389400  -96.358100
  H    -104.165000   41.373100  -96.057500
  H    -103.064000   42.553800  -96.561300
  C    -104.976000   42.560600  -97.567300
  H    -105.114000   43.594700  -97.808000
  H    -105.983000   42.298000  -97.358400
  C    -104.567000   41.646000  -98.739400
  H    -103.573000   41.732300  -99.134000
  H    -105.246000   41.720800  -99.590200
  H    -104.604000   40.584400  -98.477000
  H    -103.798000   38.456200  -91.254400
  H    -106.009000   45.946200  -93.863500

 Total Charge           Charge          ....    0
 Multiplicity           Mult            ....    1
 Number of Electrons    NEL             ....  134
 Basis Dimension        Dim             ....  322

ORBITAL ENERGIES
----------------

  NO   OCC          E(Eh)            E(eV)
   0   2.0000     -88.969345     -2420.9790
   1   2.0000     -88.961998     -2420.7790
   2   2.0000     -10.330996      -281.1207
   3   2.0000     -10.328268      -281.0465
   4   2.0000     -10.321530      -280.8631
   5   2.0000     -10.311614      -280.5933
   6   2.0000     -10.303736      -280.3789
   7   2.0000     -10.302359      -280.3414
   8   2.0000     -10.297019      -280.1961
   9   2.0000     -10.296636      -280.1857
  10   2.0000     -10.295447      -280.1534
  11   2.0000     -10.282550      -279.8024
  12   2.0000     -10.282223      -279.7935
  13   2.0000     -10.281627      -279.7773
  14   2.0000     -10.278831      -279.7012
  15   2.0000     -10.277410      -279.6626
  16   2.0000      -8.085084      -220.0063
  17   2.0000      -8.076906      -219.7838
  18   2.0000      -6.043478      -164.4514
  19   2.0000      -6.039343      -164.3389
  20   2.0000      -6.036027      -164.2487
  21   2.0000      -6.035478      -164.2337
  22   2.0000      -6.031347      -164.1213
  23   2.0000      -6.027644      -164.0205
  24   2.0000      -1.013401       -27.5760
  25   2.0000      -0.988395       -26.8956
  26   2.0000      -0.920498       -25.0480
  27   2.0000      -0.916386       -24.9361
  28   2.0000      -0.870573       -23.6895
  29   2.0000      -0.856348       -23.3024
  30   2.0000      -0.847704       -23.0672
  31   2.0000      -0.818728       -22.2787
  32   2.0000      -0.783188       -21.3116
  33   2.0000      -0.773404       -21.0454
  34   2.0000      -0.714286       -19.4367
  35   2.0000      -0.708089       -19.2681
  36   2.0000      -0.692895       -18.8546
  37   2.0000      -0.660889       -17.9837
  38   2.0000      -0.641449       -17.4547
  39   2.0000      -0.625900       -17.0316
  40   2.0000      -0.600796       -16.3485
  41   2.0000      -0.576675       -15.6921
  42   2.0000      -0.564932       -15.3726
  43   2.0000      -0.562339       -15.3020
  44   2.0000      -0.533468       -14.5164
  45   2.0000      -0.524250       -14.2656
  46   2.0000      -0.522649       -14.2220
  47   2.0000      -0.510064       -13.8796
  48   2.0000      -0.502492       -13.6735
  49   2.0000      -0.500671       -13.6239
  50   2.0000      -0.492898       -13.4124
  51   2.0000      -0.482664       -13.1340
  52   2.0000      -0.469834       -12.7848
  53   2.0000      -0.460475       -12.5302
  54   2.0000      -0.456486       -12.4216
  55   2.0000      -0.452887       -12.3237
  56   2.0000      -0.451639       -12.2897
  57   2.0000      -0.443328       -12.0636
  58   2.0000      -0.436056       -11.8657
  59   2.0000      -0.430161       -11.7053
  60   2.0000      -0.423194       -11.5157
  61   2.0000      -0.418497       -11.3879
  62   2.0000      -0.410319       -11.1654
  63   2.0000      -0.355172        -9.6647
  64   2.0000      -0.334620        -9.1055
  65   2.0000      -0.326606        -8.8874
  66   2.0000      -0.288308        -7.8453
  67   0.0000       0.028048         0.7632
  68   0.0000       0.078866         2.1461
  69   0.0000       0.106895         2.9088
  70   0.0000       0.121361         3.3024
  71   0.0000       0.137849         3.7511

MULLIKEN ATOMIC CHARGES
-----------------------
   0 S :    0.127472
   1 C :   -0.115321
   2 C :   -0.060354
   3 C :    0.020705
   4 C :   -0.116492
   5 H :   -0.041280
   6 C :    0.053894
   7 H :    0.050654
   8 H :    0.022907
   9 C :   -0.081007
  10 H :    0.037583
  11 H :    0.041817
  12 C :   -0.071121
  13 H :    0.020000
  14 H :    0.035717
  15 H :    0.033323
  16 S :    0.078303
  17 C :   -0.112782
  18 C :   -0.031218
  19 C :   -0.057689
  20 C :   -0.115003
  21 H :    0.019169
  22 C :    0.070967
  23 H :    0.006169
  24 H :    0.035223
  25 C :   -0.033296
  26 H :    0.017224
  27 H :    0.014503
  28 C :   -0.042979
  29 H :    0.021984
  30 H :    0.030610
  31 H :    0.023041
  32 H :    0.037819
  33 H :    0.079459
Sum of atomic charges:   -0.0000000

LOEWDIN ATOMIC CHARGES
----------------------
   0 S :    0.442602
   1 C :   -0.202488
   2 C :   -0.066429
   3 C :   -0.060426
   4 C :   -0.210222
   5 H :    0.009598
   6 C :   -0.032288
   7 H :    0.040555
   8 H :    0.036130
   9 C :   -0.042896
  10 H :    0.026648
  11 H :    0.031909
  12 C :   -0.077315
  13 H :    0.018607
  14 H :    0.029135
  15 H :    0.028880
  16 S :    0.389415
  17 C :   -0.181997
  18 C :   -0.068103
  19 C :   -0.057949
  20 C :   -0.193113
  21 H :    0.031011
  22 C :   -0.041316
  23 H :    0.026067
  24 H :    0.036878
  25 C :   -0.038255
  26 H :    0.019726
  27 H :    0.026504
  28 C :   -0.063349
  29 H :    0.019813
  30 H :    0.027889
  31 H :    0.027489
  32 H :    0.027012
  33 H :    0.040277

  Mayer bond orders larger than 0.100000
B(  0-S ,  1-C ) :   1.1662 B(  0-S ,  4-C ) :   1.1640 B(  1-C ,  2-C ) :   1.5807
B(  1-C , 32-H ) :   0.9627 B(  2-C ,  3-C ) :   1.2815 B(  2-C ,  6-C ) :   1.0210
B(  3-C ,  4-C ) :   1.5555 B(  3-C ,  5-H ) :   1.0086 B(  4-C , 20-C ) :   1.0053
B(  6-C ,  7-H ) :   0.9354 B(  6-C ,  8-H ) :   0.9417 B(  6-C ,  9-C ) :   1.0479
B(  9-C , 10-H ) :   0.9542 B(  9-C , 11-H ) :   0.9590 B(  9-C , 12-C ) :   1.0889
B( 12-C , 13-H ) :   0.9715 B( 12-C , 14-H ) :   0.9728 B( 12-C , 15-H ) :   0.9733
B( 16-S , 17-C ) :   1.1479 B( 16-S , 20-C ) :   1.1381 B( 17-C , 18-C ) :   1.6273
B( 17-C , 33-H ) :   0.9577 B( 18-C , 19-C ) :   1.2089 B( 18-C , 21-H ) :   0.9960
B( 19-C , 20-C ) :   1.6086 B( 19-C , 22-C ) :   1.0558 B( 22-C , 23-H ) :   0.9319
B( 22-C , 24-H ) :   0.9111 B( 22-C , 25-C ) :   1.0768 B( 25-C , 26-H ) :   0.9488
B( 25-C , 27-H ) :   0.9441 B( 25-C , 28-C ) :   1.0817 B( 28-C , 29-H ) :   0.9770
B( 28-C , 30-H ) :   0.9747 B( 28-C , 31-H ) :   0.9722

Dispersion correction           -0.013238585
FINAL SINGLE POINT ENERGY     -1339.879138026916

DIPOLE MOMENT
-------------
                                X             Y             Z
Electronic contribution:    -12.83590      18.44438      21.35339
Nuclear contribution   :     13.11881     -18.76275     -21.86558
                        -----------------------------------------
Total Dipole Moment    :      0.28290      -0.31837      -0.51219
                        -----------------------------------------
Magnitude (a.u.)       :      0.66613
Magnitude (Debye)      :      1.69317

Rotational constants in cm-1:     0.018368     0.008024     0.005897
Rotational constants in MHz :   550.645131   240.547745   176.776077

                             ****ORCA TERMINATED NORMALLY****
TOTAL RUN TIME: 0 days 0 hours 0 minutes 20 seconds 978 msec
