                         Program Version 4.2.1 -  RELEASE  -
|  1> ! wB97X-D3 SP def2-SVP
|  2> %pal
|  3> nprocs 24
|  4> end
|  5>
|  6> * xyz 0 1
|  7> S 	 -39.4438 	 -49.6946 	 -74.1365
|  8> C 	 -40.2577 	 -48.2329 	 -73.7582
|  9> C 	 -39.6057 	 -47.6366 	 -72.7023
| 10> C 	 -38.7308 	 -48.5215 	 -72.0228
| 11> C 	 -38.3749 	 -49.6721 	 -72.7169
| 12> H 	 -38.2711 	 -48.2565 	 -71.1279
| 13> C 	 -40.0085 	 -46.2471 	 -72.1402
| 14> H 	 -40.6102 	 -45.9322 	 -72.9714
| 15> H 	 -39.2744 	 -45.4368 	 -72.0111
| 16> C 	 -40.7945 	 -46.2084 	 -70.8631
| 17> H 	 -40.2467 	 -46.6088 	 -70.0554
| 18> H 	 -41.0652 	 -45.1753 	 -70.619
| 19> C 	 -42.1116 	 -46.9669 	 -70.994
| 20> H 	 -41.8711 	 -47.8841 	 -71.6295
| 21> H 	 -42.3164 	 -47.5229 	 -70.0251
| 22> H 	 -42.9953 	 -46.4147 	 -71.3502
| 23> S 	 -37.9763 	 -52.5165 	 -72.5075
| 24> C 	 -36.4202 	 -53.1475 	 -71.9217
| 25> C 	 -35.5302 	 -52.0927 	 -71.741
| 26> C 	 -36.0218 	 -50.7802 	 -72.0122
| 27> C 	 -37.3947 	 -50.7818 	 -72.3951
| 28> H 	 -34.5464 	 -52.1917 	 -71.2573
| 29> C 	 -35.1058 	 -49.4967 	 -71.9374
| 30> H 	 -34.5664 	 -49.4716 	 -71.0488
| 31> H 	 -35.7753 	 -48.6107 	 -71.8471
| 32> C 	 -34.1181 	 -49.397 	 -73.1304
| 33> H 	 -33.6732 	 -50.3668 	 -73.2909
| 34> H 	 -33.3176 	 -48.6874 	 -72.9414
| 35> C 	 -34.7268 	 -49.0913 	 -74.4995
| 36> H 	 -33.9869 	 -49.169 	 -75.2202
| 37> H 	 -35.1077 	 -48.0929 	 -74.546
| 38> H 	 -35.5929 	 -49.715 	 -74.7389
| 39> H 	 -40.923 	 -47.685 	 -74.3774
| 40> H 	 -36.2706 	 -54.1728 	 -71.7049
| 41> *
| 42>
| 43>                          ****END OF INPUT****

CARTESIAN COORDINATES (ANGSTROEM)
---------------------------------
  S    -39.443800  -49.694600  -74.136500
  C    -40.257700  -48.232900  -73.758200
  C    -39.605700  -47.636600  -72.702300
  C    -38.730800  -48.521500  -72.022800
  C    -38.374900  -49.672100  -72.716900
  H    -38.271100  -48.256500  -71.127900
  C    -40.008500  -46.247100  -72.140200
  H    -40.610200  -45.932200  -72.971400
  H    -39.274400  -45.436800  -72.011100
  C    -40.794500  -46.208400  -70.863100
  H    -40.246700  -46.608800  -70.055400
  H    -41.065200  -45.175300  -70.619000
  C    -42.111600  -46.966900  -70.994000
  H    -41.871100  -47.884100  -71.629500
  H    -42.316400  -47.522900  -70.025100
  H    -42.995300  -46.414700  -71.350200
  S    -37.976300  -52.516500  -72.507500
  C    -36.420200  -53.147500  -71.921700
  C    -35.530200  -52.092700  -71.741000
  C    -36.021800  -50.780200  -72.012200
  C    -37.394700  -50.781800  -72.395100
  H    -34.546400  -52.191700  -71.257300
  C    -35.105800  -49.496700  -71.937400
  H    -34.566400  -49.471600  -71.048800
  H    -35.775300  -48.610700  -71.847100
  C    -34.118100  -49.397000  -73.130400
  H    -33.673200  -50.366800  -73.290900
  H    -33.317600  -48.687400  -72.941400
  C    -34.726800  -49.091300  -74.499500
  H    -33.986900  -49.169000  -75.220200
  H    -35.107700  -48.092900  -74.546000
  H    -35.592900  -49.715000  -74.738900
  H    -40.923000  -47.685000  -74.377400
  H    -36.270600  -54.172800  -71.704900

 Total Charge           Charge          ....    0
 Multiplicity           Mult            ....    1
 Number of Electrons    NEL             ....  134
 Basis Dimension        Dim             ....  322

ORBITAL ENERGIES
----------------

  NO   OCC          E(Eh)            E(eV)
   0   2.0000     -88.968967     -2420.9687
   1   2.0000     -88.967150     -2420.9192
   2   2.0000     -10.347266      -281.5634
   3   2.0000     -10.342245      -281.4268
   4   2.0000     -10.326949      -281.0106
   5   2.0000     -10.317444      -280.7519
   6   2.0000     -10.314420      -280.6696
   7   2.0000     -10.302373      -280.3418
   8   2.0000     -10.302074      -280.3337
   9   2.0000     -10.297272      -280.2030
  10   2.0000     -10.292322      -280.0683
  11   2.0000     -10.290102      -280.0079
  12   2.0000     -10.284532      -279.8564
  13   2.0000     -10.279566      -279.7212
  14   2.0000     -10.277126      -279.6548
  15   2.0000     -10.261999      -279.2432
  16   2.0000      -8.082004      -219.9225
  17   2.0000      -8.081911      -219.9200
  18   2.0000      -6.040664      -164.3748
  19   2.0000      -6.040451      -164.3690
  20   2.0000      -6.036683      -164.2665
  21   2.0000      -6.036219      -164.2539
  22   2.0000      -6.032790      -164.1606
  23   2.0000      -6.032744      -164.1593
  24   2.0000      -1.003917       -27.3180
  25   2.0000      -0.978866       -26.6363
  26   2.0000      -0.914640       -24.8886
  27   2.0000      -0.903070       -24.5738
  28   2.0000      -0.865752       -23.5583
  29   2.0000      -0.847183       -23.0530
  30   2.0000      -0.841988       -22.9117
  31   2.0000      -0.814926       -22.1753
  32   2.0000      -0.785390       -21.3715
  33   2.0000      -0.773604       -21.0508
  34   2.0000      -0.709409       -19.3040
  35   2.0000      -0.696482       -18.9522
  36   2.0000      -0.689949       -18.7745
  37   2.0000      -0.658126       -17.9085
  38   2.0000      -0.645920       -17.5764
  39   2.0000      -0.624436       -16.9918
  40   2.0000      -0.600363       -16.3367
  41   2.0000      -0.572322       -15.5737
  42   2.0000      -0.555723       -15.1220
  43   2.0000      -0.548590       -14.9279
  44   2.0000      -0.544305       -14.8113
  45   2.0000      -0.539401       -14.6778
  46   2.0000      -0.523136       -14.2352
  47   2.0000      -0.512426       -13.9438
  48   2.0000      -0.507576       -13.8119
  49   2.0000      -0.495901       -13.4942
  50   2.0000      -0.485098       -13.2002
  51   2.0000      -0.477518       -12.9939
  52   2.0000      -0.470524       -12.8036
  53   2.0000      -0.465280       -12.6609
  54   2.0000      -0.458859       -12.4862
  55   2.0000      -0.443431       -12.0664
  56   2.0000      -0.438263       -11.9257
  57   2.0000      -0.433519       -11.7966
  58   2.0000      -0.422716       -11.5027
  59   2.0000      -0.420129       -11.4323
  60   2.0000      -0.416962       -11.3461
  61   2.0000      -0.414182       -11.2705
  62   2.0000      -0.410570       -11.1722
  63   2.0000      -0.350440        -9.5360
  64   2.0000      -0.334724        -9.1083
  65   2.0000      -0.330500        -8.9933
  66   2.0000      -0.296949        -8.0804
  67   0.0000       0.021687         0.5901
  68   0.0000       0.061684         1.6785
  69   0.0000       0.107722         2.9313
  70   0.0000       0.115575         3.1450
  71   0.0000       0.133049         3.6205

MULLIKEN ATOMIC CHARGES
-----------------------
   0 S :    0.106729
   1 C :   -0.079450
   2 C :   -0.151754
   3 C :    0.071152
   4 C :   -0.138255
   5 H :   -0.011875
   6 C :    0.070529
   7 H :   -0.000456
   8 H :    0.035280
   9 C :   -0.035369
  10 H :    0.021645
  11 H :    0.029477
  12 C :   -0.111796
  13 H :    0.043545
  14 H :    0.030735
  15 H :    0.049026
  16 S :    0.088997
  17 C :   -0.078894
  18 C :   -0.027973
  19 C :   -0.062461
  20 C :   -0.158617
  21 H :    0.032305
  22 C :    0.110072
  23 H :    0.010537
  24 H :    0.023086
  25 C :   -0.081431
  26 H :    0.023878
  27 H :    0.031241
  28 C :   -0.015728
  29 H :    0.016793
  30 H :    0.015713
  31 H :    0.037219
  32 H :    0.048195
  33 H :    0.057906
Sum of atomic charges:    0.0000000

LOEWDIN ATOMIC CHARGES
----------------------
   0 S :    0.414292
   1 C :   -0.199661
   2 C :   -0.067111
   3 C :   -0.058026
   4 C :   -0.183682
   5 H :    0.018179
   6 C :   -0.034408
   7 H :    0.024797
   8 H :    0.033813
   9 C :   -0.042482
  10 H :    0.018299
  11 H :    0.028289
  12 C :   -0.085718
  13 H :    0.034036
  14 H :    0.032051
  15 H :    0.026049
  16 S :    0.367333
  17 C :   -0.163717
  18 C :   -0.077066
  19 C :   -0.047794
  20 C :   -0.177896
  21 H :    0.036186
  22 C :   -0.021906
  23 H :    0.020684
  24 H :    0.032698
  25 C :   -0.036776
  26 H :    0.023104
  27 H :    0.024302
  28 C :   -0.056223
  29 H :    0.016396
  30 H :    0.019838
  31 H :    0.029037
  32 H :    0.027216
  33 H :    0.025865

  Mayer bond orders larger than 0.100000
B(  0-S ,  1-C ) :   1.1587 B(  0-S ,  4-C ) :   1.1536 B(  1-C ,  2-C ) :   1.5844
B(  1-C ,  4-C ) :   0.1001 B(  1-C , 32-H ) :   0.9624 B(  2-C ,  3-C ) :   1.2566
B(  2-C ,  6-C ) :   1.0190 B(  3-C ,  4-C ) :   1.5631 B(  3-C ,  5-H ) :   0.9997
B(  4-C , 20-C ) :   1.0278 B(  6-C ,  7-H ) :   0.9377 B(  6-C ,  8-H ) :   0.9458
B(  6-C ,  9-C ) :   1.0779 B(  9-C , 10-H ) :   0.9576 B(  9-C , 11-H ) :   0.9528
B(  9-C , 12-C ) :   1.0684 B( 12-C , 13-H ) :   0.9736 B( 12-C , 14-H ) :   0.9731
B( 12-C , 15-H ) :   0.9772 B( 16-S , 17-C ) :   1.1518 B( 16-S , 20-C ) :   1.1329
B( 17-C , 18-C ) :   1.5853 B( 17-C , 20-C ) :   0.1080 B( 17-C , 33-H ) :   0.9762
B( 18-C , 19-C ) :   1.2662 B( 18-C , 21-H ) :   0.9766 B( 19-C , 20-C ) :   1.5830
B( 19-C , 22-C ) :   1.0279 B( 22-C , 23-H ) :   0.9344 B( 22-C , 24-H ) :   0.9397
B( 22-C , 25-C ) :   1.0647 B( 25-C , 26-H ) :   0.9596 B( 25-C , 27-H ) :   0.9567
B( 25-C , 28-C ) :   1.0812 B( 28-C , 29-H ) :   0.9729 B( 28-C , 30-H ) :   0.9734
B( 28-C , 31-H ) :   0.9747

Dispersion correction           -0.014736901
FINAL SINGLE POINT ENERGY     -1339.860463454454

DIPOLE MOMENT
-------------
                                X             Y             Z
Electronic contribution:     -3.53290     -19.81005      -5.19661
Nuclear contribution   :      3.96625      20.26124       5.53045
                        -----------------------------------------
Total Dipole Moment    :      0.43335       0.45119       0.33384
                        -----------------------------------------
Magnitude (a.u.)       :      0.70909
Magnitude (Debye)      :      1.80237

Rotational constants in cm-1:     0.020645     0.008022     0.007098
Rotational constants in MHz :   618.926133   240.507412   212.798074

                             ****ORCA TERMINATED NORMALLY****
TOTAL RUN TIME: 0 days 0 hours 0 minutes 21 seconds 678 msec
