                         Program Version 4.2.1 -  RELEASE  -
|  1> ! wB97X-D3 SP def2-SVP
|  2> %pal
|  3> nprocs 24
|  4> end
|  5>
|  6> * xyz 0 1
|  7> S 	 -91.1758 	 -29.5352 	 -71.4338
|  8> C 	 -91.65 	 -30.6523 	 -72.5868
|  9> C 	 -90.77 	 -30.724 	 -73.6396
| 10> C 	 -89.8849 	 -29.586 	 -73.6175
| 11> C 	 -90.0889 	 -28.7605 	 -72.5391
| 12> H 	 -89.1857 	 -29.2006 	 -74.3237
| 13> C 	 -90.9696 	 -31.5612 	 -74.8803
| 14> H 	 -91.3697 	 -32.533 	 -74.6208
| 15> H 	 -90.0234 	 -31.6937 	 -75.2949
| 16> C 	 -91.96 	 -30.8935 	 -75.846
| 17> H 	 -91.8774 	 -31.4021 	 -76.8097
| 18> H 	 -93.0267 	 -30.9773 	 -75.6258
| 19> C 	 -91.6772 	 -29.4793 	 -76.3785
| 20> H 	 -91.4773 	 -28.7947 	 -75.5478
| 21> H 	 -90.8892 	 -29.3389 	 -77.1285
| 22> H 	 -92.6619 	 -29.1972 	 -76.8228
| 23> S 	 -88.5056 	 -27.2634 	 -70.7933
| 24> C 	 -88.119 	 -25.5904 	 -71.1579
| 25> C 	 -88.3026 	 -25.3185 	 -72.4663
| 26> C 	 -89.1267 	 -26.3595 	 -73.1086
| 27> C 	 -89.4062 	 -27.4492 	 -72.2998
| 28> H 	 -87.8795 	 -24.3848 	 -72.9358
| 29> C 	 -89.6514 	 -26.0698 	 -74.5012
| 30> H 	 -89.685 	 -27.0264 	 -75.024
| 31> H 	 -88.9704 	 -25.3917 	 -75.161
| 32> C 	 -90.993 	 -25.3383 	 -74.4504
| 33> H 	 -90.9846 	 -24.481 	 -73.8347
| 34> H 	 -91.6995 	 -26.0461 	 -74.0257
| 35> C 	 -91.4676 	 -24.8648 	 -75.8708
| 36> H 	 -92.4031 	 -24.3722 	 -75.8146
| 37> H 	 -91.6 	 -25.701 	 -76.5208
| 38> H 	 -90.8027 	 -24.1208 	 -76.3956
| 39> H 	 -92.5547 	 -31.1983 	 -72.6313
| 40> H 	 -87.5485 	 -24.9164 	 -70.5442
| 41> *
| 42>
| 43>                          ****END OF INPUT****

CARTESIAN COORDINATES (ANGSTROEM)
---------------------------------
  S    -91.175800  -29.535200  -71.433800
  C    -91.650000  -30.652300  -72.586800
  C    -90.770000  -30.724000  -73.639600
  C    -89.884900  -29.586000  -73.617500
  C    -90.088900  -28.760500  -72.539100
  H    -89.185700  -29.200600  -74.323700
  C    -90.969600  -31.561200  -74.880300
  H    -91.369700  -32.533000  -74.620800
  H    -90.023400  -31.693700  -75.294900
  C    -91.960000  -30.893500  -75.846000
  H    -91.877400  -31.402100  -76.809700
  H    -93.026700  -30.977300  -75.625800
  C    -91.677200  -29.479300  -76.378500
  H    -91.477300  -28.794700  -75.547800
  H    -90.889200  -29.338900  -77.128500
  H    -92.661900  -29.197200  -76.822800
  S    -88.505600  -27.263400  -70.793300
  C    -88.119000  -25.590400  -71.157900
  C    -88.302600  -25.318500  -72.466300
  C    -89.126700  -26.359500  -73.108600
  C    -89.406200  -27.449200  -72.299800
  H    -87.879500  -24.384800  -72.935800
  C    -89.651400  -26.069800  -74.501200
  H    -89.685000  -27.026400  -75.024000
  H    -88.970400  -25.391700  -75.161000
  C    -90.993000  -25.338300  -74.450400
  H    -90.984600  -24.481000  -73.834700
  H    -91.699500  -26.046100  -74.025700
  C    -91.467600  -24.864800  -75.870800
  H    -92.403100  -24.372200  -75.814600
  H    -91.600000  -25.701000  -76.520800
  H    -90.802700  -24.120800  -76.395600
  H    -92.554700  -31.198300  -72.631300
  H    -87.548500  -24.916400  -70.544200

 Total Charge           Charge          ....    0
 Multiplicity           Mult            ....    1
 Number of Electrons    NEL             ....  134
 Basis Dimension        Dim             ....  322

ORBITAL ENERGIES
----------------

  NO   OCC          E(Eh)            E(eV)
   0   2.0000     -88.965073     -2420.8627
   1   2.0000     -88.960232     -2420.7310
   2   2.0000     -10.332304      -281.1563
   3   2.0000     -10.328838      -281.0620
   4   2.0000     -10.313020      -280.6315
   5   2.0000     -10.307160      -280.4721
   6   2.0000     -10.306062      -280.4422
   7   2.0000     -10.299874      -280.2738
   8   2.0000     -10.297468      -280.2083
   9   2.0000     -10.296125      -280.1718
  10   2.0000     -10.293671      -280.1050
  11   2.0000     -10.289836      -280.0007
  12   2.0000     -10.288576      -279.9664
  13   2.0000     -10.281975      -279.7868
  14   2.0000     -10.280558      -279.7482
  15   2.0000     -10.275126      -279.6004
  16   2.0000      -8.081646      -219.9128
  17   2.0000      -8.075076      -219.7340
  18   2.0000      -6.039992      -164.3565
  19   2.0000      -6.035946      -164.2465
  20   2.0000      -6.033820      -164.1886
  21   2.0000      -6.032395      -164.1498
  22   2.0000      -6.029742      -164.0776
  23   2.0000      -6.025395      -163.9593
  24   2.0000      -1.013454       -27.5775
  25   2.0000      -0.988464       -26.8975
  26   2.0000      -0.915185       -24.9035
  27   2.0000      -0.904553       -24.6141
  28   2.0000      -0.871774       -23.7222
  29   2.0000      -0.850801       -23.1515
  30   2.0000      -0.840078       -22.8597
  31   2.0000      -0.822002       -22.3678
  32   2.0000      -0.785605       -21.3774
  33   2.0000      -0.769976       -20.9521
  34   2.0000      -0.704952       -19.1827
  35   2.0000      -0.700241       -19.0545
  36   2.0000      -0.691818       -18.8253
  37   2.0000      -0.660575       -17.9752
  38   2.0000      -0.647017       -17.6062
  39   2.0000      -0.613394       -16.6913
  40   2.0000      -0.591446       -16.0941
  41   2.0000      -0.578112       -15.7312
  42   2.0000      -0.561391       -15.2762
  43   2.0000      -0.553286       -15.0557
  44   2.0000      -0.545975       -14.8567
  45   2.0000      -0.524277       -14.2663
  46   2.0000      -0.520235       -14.1563
  47   2.0000      -0.510323       -13.8866
  48   2.0000      -0.507759       -13.8168
  49   2.0000      -0.502334       -13.6692
  50   2.0000      -0.492085       -13.3903
  51   2.0000      -0.481234       -13.0950
  52   2.0000      -0.470605       -12.8058
  53   2.0000      -0.463021       -12.5994
  54   2.0000      -0.454515       -12.3680
  55   2.0000      -0.448192       -12.1959
  56   2.0000      -0.443728       -12.0744
  57   2.0000      -0.439993       -11.9728
  58   2.0000      -0.438948       -11.9444
  59   2.0000      -0.431242       -11.7347
  60   2.0000      -0.416539       -11.3346
  61   2.0000      -0.409939       -11.1550
  62   2.0000      -0.403036       -10.9672
  63   2.0000      -0.349879        -9.5207
  64   2.0000      -0.329679        -8.9710
  65   2.0000      -0.323789        -8.8107
  66   2.0000      -0.294853        -8.0234
  67   0.0000       0.032345         0.8801
  68   0.0000       0.065705         1.7879
  69   0.0000       0.099323         2.7027
  70   0.0000       0.125992         3.4284
  71   0.0000       0.134959         3.6724

MULLIKEN ATOMIC CHARGES
-----------------------
   0 S :    0.137746
   1 C :   -0.096586
   2 C :   -0.100253
   3 C :    0.022076
   4 C :   -0.173975
   5 H :    0.007545
   6 C :    0.146753
   7 H :    0.021945
   8 H :    0.009926
   9 C :   -0.094647
  10 H :    0.025282
  11 H :    0.033381
  12 C :   -0.089990
  13 H :    0.047065
  14 H :    0.040126
  15 H :    0.035554
  16 S :    0.085058
  17 C :   -0.071996
  18 C :   -0.049432
  19 C :   -0.064412
  20 C :   -0.122700
  21 H :    0.045266
  22 C :    0.029859
  23 H :    0.009849
  24 H :    0.031103
  25 C :   -0.038884
  26 H :    0.020942
  27 H :    0.032725
  28 C :   -0.046298
  29 H :    0.024450
  30 H :    0.023925
  31 H :    0.033919
  32 H :    0.035097
  33 H :    0.049579
Sum of atomic charges:    0.0000000

LOEWDIN ATOMIC CHARGES
----------------------
   0 S :    0.440999
   1 C :   -0.208133
   2 C :   -0.063675
   3 C :   -0.056795
   4 C :   -0.205122
   5 H :    0.027537
   6 C :   -0.023508
   7 H :    0.032711
   8 H :    0.025015
   9 C :   -0.046026
  10 H :    0.029007
  11 H :    0.026222
  12 C :   -0.072201
  13 H :    0.020077
  14 H :    0.023230
  15 H :    0.034796
  16 S :    0.381926
  17 C :   -0.178266
  18 C :   -0.074149
  19 C :   -0.058679
  20 C :   -0.190801
  21 H :    0.043992
  22 C :   -0.039722
  23 H :    0.022593
  24 H :    0.036768
  25 C :   -0.029914
  26 H :    0.019169
  27 H :    0.026934
  28 C :   -0.066665
  29 H :    0.020860
  30 H :    0.019766
  31 H :    0.028860
  32 H :    0.025226
  33 H :    0.027971

  Mayer bond orders larger than 0.100000
B(  0-S ,  1-C ) :   1.1630 B(  0-S ,  4-C ) :   1.1537 B(  1-C ,  2-C ) :   1.5940
B(  1-C , 32-H ) :   0.9740 B(  2-C ,  3-C ) :   1.2055 B(  2-C ,  6-C ) :   1.0472
B(  3-C ,  4-C ) :   1.5901 B(  3-C ,  5-H ) :   1.0032 B(  4-C , 20-C ) :   1.0131
B(  6-C ,  7-H ) :   0.9329 B(  6-C ,  8-H ) :   0.9329 B(  6-C ,  9-C ) :   1.0695
B(  9-C , 10-H ) :   0.9521 B(  9-C , 11-H ) :   0.9630 B(  9-C , 12-C ) :   1.0717
B( 12-C , 13-H ) :   0.9681 B( 12-C , 14-H ) :   0.9795 B( 12-C , 15-H ) :   0.9699
B( 16-S , 17-C ) :   1.1320 B( 16-S , 20-C ) :   1.1213 B( 17-C , 18-C ) :   1.6649
B( 17-C , 33-H ) :   0.9645 B( 18-C , 19-C ) :   1.1955 B( 18-C , 21-H ) :   0.9806
B( 19-C , 20-C ) :   1.6494 B( 19-C , 22-C ) :   1.0484 B( 22-C , 23-H ) :   0.9291
B( 22-C , 24-H ) :   0.9424 B( 22-C , 25-C ) :   1.0630 B( 25-C , 26-H ) :   0.9572
B( 25-C , 27-H ) :   0.9519 B( 25-C , 28-C ) :   1.0817 B( 28-C , 29-H ) :   0.9742
B( 28-C , 30-H ) :   0.9756 B( 28-C , 31-H ) :   0.9744

Dispersion correction           -0.015673498
FINAL SINGLE POINT ENERGY     -1339.857499889541

DIPOLE MOMENT
-------------
                                X             Y             Z
Electronic contribution:     10.00079      -4.99113      28.81529
Nuclear contribution   :    -10.15527       5.07237     -29.60129
                        -----------------------------------------
Total Dipole Moment    :     -0.15448       0.08125      -0.78599
                        -----------------------------------------
Magnitude (a.u.)       :      0.80514
Magnitude (Debye)      :      2.04650

Rotational constants in cm-1:     0.017211     0.010650     0.007346
Rotational constants in MHz :   515.960039   319.291167   220.222225

                             ****ORCA TERMINATED NORMALLY****
TOTAL RUN TIME: 0 days 0 hours 0 minutes 22 seconds 968 msec
