                         Program Version 4.2.1 -  RELEASE  -
|  1> ! wB97X-D3 SP def2-SVP
|  2> %pal
|  3> nprocs 24
|  4> end
|  5>
|  6> * xyz 0 1
|  7> S 	 -108.155 	 59.2851 	 -91.8952
|  8> C 	 -107.684 	 60.2347 	 -90.5381
|  9> C 	 -106.46 	 60.866 	 -90.797
| 10> C 	 -106.02 	 60.6197 	 -92.137
| 11> C 	 -106.739 	 59.6423 	 -92.8393
| 12> H 	 -105.16 	 61.1029 	 -92.6464
| 13> C 	 -105.945 	 61.8035 	 -89.7891
| 14> H 	 -104.933 	 61.3803 	 -89.6726
| 15> H 	 -106.441 	 61.7045 	 -88.8219
| 16> C 	 -105.845 	 63.2616 	 -90.2329
| 17> H 	 -105.341 	 63.7358 	 -89.4479
| 18> H 	 -105.301 	 63.3465 	 -91.1767
| 19> C 	 -107.153 	 64.0181 	 -90.4281
| 20> H 	 -107.829 	 63.6538 	 -91.125
| 21> H 	 -107.604 	 64.0359 	 -89.43
| 22> H 	 -106.921 	 65.0335 	 -90.6161
| 23> S 	 -106.279 	 60.489 	 -95.427
| 24> C 	 -106.271 	 59.298 	 -96.7722
| 25> C 	 -106.407 	 58.0077 	 -96.2449
| 26> C 	 -106.641 	 57.9546 	 -94.8356
| 27> C 	 -106.49 	 59.1636 	 -94.2422
| 28> H 	 -106.53 	 57.1454 	 -96.8643
| 29> C 	 -106.888 	 56.5939 	 -94.1193
| 30> H 	 -106.522 	 56.6837 	 -93.0714
| 31> H 	 -106.205 	 55.8192 	 -94.512
| 32> C 	 -108.31 	 56.0654 	 -94.2561
| 33> H 	 -108.575 	 55.9663 	 -95.3167
| 34> H 	 -108.983 	 56.8317 	 -93.7726
| 35> C 	 -108.54 	 54.6627 	 -93.6492
| 36> H 	 -107.757 	 53.9527 	 -93.9537
| 37> H 	 -109.539 	 54.2645 	 -93.8582
| 38> H 	 -108.412 	 54.6815 	 -92.491
| 39> H 	 -108.008 	 60.327 	 -89.5665
| 40> H 	 -106.129 	 59.4916 	 -97.8172
| 41> *
| 42>
| 43>                          ****END OF INPUT****

CARTESIAN COORDINATES (ANGSTROEM)
---------------------------------
  S    -108.155000   59.285100  -91.895200
  C    -107.684000   60.234700  -90.538100
  C    -106.460000   60.866000  -90.797000
  C    -106.020000   60.619700  -92.137000
  C    -106.739000   59.642300  -92.839300
  H    -105.160000   61.102900  -92.646400
  C    -105.945000   61.803500  -89.789100
  H    -104.933000   61.380300  -89.672600
  H    -106.441000   61.704500  -88.821900
  C    -105.845000   63.261600  -90.232900
  H    -105.341000   63.735800  -89.447900
  H    -105.301000   63.346500  -91.176700
  C    -107.153000   64.018100  -90.428100
  H    -107.829000   63.653800  -91.125000
  H    -107.604000   64.035900  -89.430000
  H    -106.921000   65.033500  -90.616100
  S    -106.279000   60.489000  -95.427000
  C    -106.271000   59.298000  -96.772200
  C    -106.407000   58.007700  -96.244900
  C    -106.641000   57.954600  -94.835600
  C    -106.490000   59.163600  -94.242200
  H    -106.530000   57.145400  -96.864300
  C    -106.888000   56.593900  -94.119300
  H    -106.522000   56.683700  -93.071400
  H    -106.205000   55.819200  -94.512000
  C    -108.310000   56.065400  -94.256100
  H    -108.575000   55.966300  -95.316700
  H    -108.983000   56.831700  -93.772600
  C    -108.540000   54.662700  -93.649200
  H    -107.757000   53.952700  -93.953700
  H    -109.539000   54.264500  -93.858200
  H    -108.412000   54.681500  -92.491000
  H    -108.008000   60.327000  -89.566500
  H    -106.129000   59.491600  -97.817200

 Total Charge           Charge          ....    0
 Multiplicity           Mult            ....    1
 Number of Electrons    NEL             ....  134
 Basis Dimension        Dim             ....  322

ORBITAL ENERGIES
----------------

  NO   OCC          E(Eh)            E(eV)
   0   2.0000     -88.968483     -2420.9555
   1   2.0000     -88.968435     -2420.9542
   2   2.0000     -10.334645      -281.2200
   3   2.0000     -10.334226      -281.2086
   4   2.0000     -10.325927      -280.9827
   5   2.0000     -10.305775      -280.4344
   6   2.0000     -10.304465      -280.3987
   7   2.0000     -10.298565      -280.2382
   8   2.0000     -10.297991      -280.2226
   9   2.0000     -10.297060      -280.1973
  10   2.0000     -10.296937      -280.1939
  11   2.0000     -10.291204      -280.0379
  12   2.0000     -10.289473      -279.9908
  13   2.0000     -10.287119      -279.9267
  14   2.0000     -10.280818      -279.7553
  15   2.0000     -10.265288      -279.3327
  16   2.0000      -8.082801      -219.9442
  17   2.0000      -8.081697      -219.9142
  18   2.0000      -6.041328      -164.3929
  19   2.0000      -6.040470      -164.3696
  20   2.0000      -6.037176      -164.2799
  21   2.0000      -6.036450      -164.2601
  22   2.0000      -6.033758      -164.1869
  23   2.0000      -6.032215      -164.1449
  24   2.0000      -1.004138       -27.3240
  25   2.0000      -0.982919       -26.7466
  26   2.0000      -0.917906       -24.9775
  27   2.0000      -0.903250       -24.5787
  28   2.0000      -0.867633       -23.6095
  29   2.0000      -0.849443       -23.1145
  30   2.0000      -0.844629       -22.9835
  31   2.0000      -0.815998       -22.2044
  32   2.0000      -0.783123       -21.3099
  33   2.0000      -0.773245       -21.0411
  34   2.0000      -0.710190       -19.3253
  35   2.0000      -0.693829       -18.8801
  36   2.0000      -0.690075       -18.7779
  37   2.0000      -0.672400       -18.2969
  38   2.0000      -0.630504       -17.1569
  39   2.0000      -0.617661       -16.8074
  40   2.0000      -0.595786       -16.2122
  41   2.0000      -0.574629       -15.6364
  42   2.0000      -0.560504       -15.2521
  43   2.0000      -0.553773       -15.0689
  44   2.0000      -0.547409       -14.8958
  45   2.0000      -0.524404       -14.2697
  46   2.0000      -0.516851       -14.0642
  47   2.0000      -0.515128       -14.0174
  48   2.0000      -0.505170       -13.7464
  49   2.0000      -0.500142       -13.6096
  50   2.0000      -0.486883       -13.2488
  51   2.0000      -0.478337       -13.0162
  52   2.0000      -0.471827       -12.8391
  53   2.0000      -0.465683       -12.6719
  54   2.0000      -0.456223       -12.4145
  55   2.0000      -0.448208       -12.1964
  56   2.0000      -0.443092       -12.0571
  57   2.0000      -0.439021       -11.9464
  58   2.0000      -0.435027       -11.8377
  59   2.0000      -0.423963       -11.5366
  60   2.0000      -0.420047       -11.4301
  61   2.0000      -0.412186       -11.2162
  62   2.0000      -0.404433       -11.0052
  63   2.0000      -0.345881        -9.4119
  64   2.0000      -0.334644        -9.1061
  65   2.0000      -0.325747        -8.8640
  66   2.0000      -0.295817        -8.0496
  67   0.0000       0.028129         0.7654
  68   0.0000       0.069865         1.9011
  69   0.0000       0.101228         2.7546
  70   0.0000       0.117716         3.2032
  71   0.0000       0.129537         3.5249

MULLIKEN ATOMIC CHARGES
-----------------------
   0 S :    0.121465
   1 C :   -0.068891
   2 C :   -0.120810
   3 C :   -0.010548
   4 C :   -0.134222
   5 H :    0.024908
   6 C :    0.063962
   7 H :    0.034087
   8 H :    0.015061
   9 C :   -0.058957
  10 H :    0.018001
  11 H :    0.030977
  12 C :   -0.012066
  13 H :    0.036855
  14 H :    0.010951
  15 H :    0.022617
  16 S :    0.092884
  17 C :   -0.084424
  18 C :   -0.012672
  19 C :   -0.038971
  20 C :   -0.140054
  21 H :    0.013776
  22 C :    0.026835
  23 H :    0.036243
  24 H :    0.023536
  25 C :   -0.075313
  26 H :    0.032424
  27 H :    0.041623
  28 C :   -0.073128
  29 H :    0.030743
  30 H :    0.047203
  31 H :    0.038608
  32 H :    0.009865
  33 H :    0.057430
Sum of atomic charges:   -0.0000000

LOEWDIN ATOMIC CHARGES
----------------------
   0 S :    0.432042
   1 C :   -0.207187
   2 C :   -0.061856
   3 C :   -0.077334
   4 C :   -0.201951
   5 H :    0.031665
   6 C :   -0.035162
   7 H :    0.039411
   8 H :    0.028908
   9 C :   -0.031680
  10 H :    0.019756
  11 H :    0.024442
  12 C :   -0.053982
  13 H :    0.017436
  14 H :    0.024905
  15 H :    0.024012
  16 S :    0.375892
  17 C :   -0.165333
  18 C :   -0.062642
  19 C :   -0.057839
  20 C :   -0.177428
  21 H :    0.026895
  22 C :   -0.035613
  23 H :    0.032821
  24 H :    0.030290
  25 C :   -0.047255
  26 H :    0.024842
  27 H :    0.027547
  28 C :   -0.075062
  29 H :    0.023727
  30 H :    0.027879
  31 H :    0.033450
  32 H :    0.015250
  33 H :    0.029155

  Mayer bond orders larger than 0.100000
B(  0-S ,  1-C ) :   1.1463 B(  0-S ,  4-C ) :   1.1630 B(  1-C ,  2-C ) :   1.5736
B(  1-C , 32-H ) :   0.9739 B(  2-C ,  3-C ) :   1.2638 B(  2-C ,  6-C ) :   1.0368
B(  3-C ,  4-C ) :   1.5358 B(  3-C ,  5-H ) :   0.9886 B(  4-C , 20-C ) :   1.0198
B(  6-C ,  7-H ) :   0.9219 B(  6-C ,  8-H ) :   0.9408 B(  6-C ,  9-C ) :   1.0834
B(  9-C , 10-H ) :   0.9527 B(  9-C , 11-H ) :   0.9551 B(  9-C , 12-C ) :   1.0795
B( 12-C , 13-H ) :   0.9789 B( 12-C , 14-H ) :   0.9719 B( 12-C , 15-H ) :   0.9707
B( 16-S , 17-C ) :   1.1351 B( 16-S , 20-C ) :   1.1196 B( 17-C , 18-C ) :   1.6259
B( 17-C , 33-H ) :   0.9701 B( 18-C , 19-C ) :   1.2278 B( 18-C , 21-H ) :   0.9828
B( 19-C , 20-C ) :   1.6495 B( 19-C , 22-C ) :   1.0304 B( 22-C , 23-H ) :   0.9413
B( 22-C , 24-H ) :   0.9402 B( 22-C , 25-C ) :   1.0553 B( 25-C , 26-H ) :   0.9566
B( 25-C , 27-H ) :   0.9497 B( 25-C , 28-C ) :   1.0801 B( 28-C , 29-H ) :   0.9723
B( 28-C , 30-H ) :   0.9757 B( 28-C , 31-H ) :   0.9741

Dispersion correction           -0.014313334
FINAL SINGLE POINT ENERGY     -1339.873030795930

DIPOLE MOMENT
-------------
                                X             Y             Z
Electronic contribution:      1.46717       2.57119     -10.44859
Nuclear contribution   :     -1.32209      -2.64228      10.54871
                        -----------------------------------------
Total Dipole Moment    :      0.14508      -0.07109       0.10012
                        -----------------------------------------
Magnitude (a.u.)       :      0.19007
Magnitude (Debye)      :      0.48313

Rotational constants in cm-1:     0.021688     0.008080     0.006290
Rotational constants in MHz :   650.180113   242.246082   188.568569

                             ****ORCA TERMINATED NORMALLY****
TOTAL RUN TIME: 0 days 0 hours 0 minutes 21 seconds 266 msec
