                         Program Version 4.2.1 -  RELEASE  -
|  1> ! wB97X-D3 SP def2-SVP
|  2> %pal
|  3> nprocs 24
|  4> end
|  5>
|  6> * xyz 0 1
|  7> S 	 -131.967 	 25.1772 	 -18.3379
|  8> C 	 -133.251 	 23.9381 	 -18.1916
|  9> C 	 -134.48 	 24.4764 	 -18.2319
| 10> C 	 -134.418 	 25.8906 	 -18.2761
| 11> C 	 -133.215 	 26.4395 	 -18.4693
| 12> H 	 -135.31 	 26.5491 	 -18.285
| 13> C 	 -135.82 	 23.7549 	 -18.0757
| 14> H 	 -136.43 	 24.4208 	 -17.4312
| 15> H 	 -135.727 	 22.8936 	 -17.4281
| 16> C 	 -136.431 	 23.1624 	 -19.4153
| 17> H 	 -136.757 	 24.0087 	 -20.0397
| 18> H 	 -135.695 	 22.6419 	 -20.0109
| 19> C 	 -137.791 	 22.2911 	 -19.1649
| 20> H 	 -137.557 	 21.3159 	 -18.7274
| 21> H 	 -138.539 	 22.7196 	 -18.5069
| 22> H 	 -138.165 	 22.1343 	 -20.1762
| 23> S 	 -131.748 	 28.616 	 -17.6084
| 24> C 	 -132.015 	 30.1871 	 -18.2883
| 25> C 	 -132.83 	 30.0804 	 -19.3971
| 26> C 	 -133.319 	 28.7518 	 -19.6607
| 27> C 	 -132.952 	 27.8694 	 -18.6886
| 28> H 	 -133.015 	 30.927 	 -19.9779
| 29> C 	 -134.207 	 28.4115 	 -20.8011
| 30> H 	 -134.273 	 27.2833 	 -21.0093
| 31> H 	 -133.598 	 28.8343 	 -21.5256
| 32> C 	 -135.532 	 29.0735 	 -20.9225
| 33> H 	 -135.579 	 30.1295 	 -20.7233
| 34> H 	 -136.122 	 28.5486 	 -20.228
| 35> C 	 -136.203 	 28.7858 	 -22.2593
| 36> H 	 -135.837 	 27.9614 	 -22.8488
| 37> H 	 -136.058 	 29.5681 	 -22.9946
| 38> H 	 -137.258 	 28.6973 	 -22.0939
| 39> H 	 -133.034 	 22.9175 	 -18.1037
| 40> H 	 -131.552 	 31.1498 	 -18.0116
| 41> *
| 42>
| 43>                          ****END OF INPUT****

CARTESIAN COORDINATES (ANGSTROEM)
---------------------------------
  S    -131.967000   25.177200  -18.337900
  C    -133.251000   23.938100  -18.191600
  C    -134.480000   24.476400  -18.231900
  C    -134.418000   25.890600  -18.276100
  C    -133.215000   26.439500  -18.469300
  H    -135.310000   26.549100  -18.285000
  C    -135.820000   23.754900  -18.075700
  H    -136.430000   24.420800  -17.431200
  H    -135.727000   22.893600  -17.428100
  C    -136.431000   23.162400  -19.415300
  H    -136.757000   24.008700  -20.039700
  H    -135.695000   22.641900  -20.010900
  C    -137.791000   22.291100  -19.164900
  H    -137.557000   21.315900  -18.727400
  H    -138.539000   22.719600  -18.506900
  H    -138.165000   22.134300  -20.176200
  S    -131.748000   28.616000  -17.608400
  C    -132.015000   30.187100  -18.288300
  C    -132.830000   30.080400  -19.397100
  C    -133.319000   28.751800  -19.660700
  C    -132.952000   27.869400  -18.688600
  H    -133.015000   30.927000  -19.977900
  C    -134.207000   28.411500  -20.801100
  H    -134.273000   27.283300  -21.009300
  H    -133.598000   28.834300  -21.525600
  C    -135.532000   29.073500  -20.922500
  H    -135.579000   30.129500  -20.723300
  H    -136.122000   28.548600  -20.228000
  C    -136.203000   28.785800  -22.259300
  H    -135.837000   27.961400  -22.848800
  H    -136.058000   29.568100  -22.994600
  H    -137.258000   28.697300  -22.093900
  H    -133.034000   22.917500  -18.103700
  H    -131.552000   31.149800  -18.011600

 Total Charge           Charge          ....    0
 Multiplicity           Mult            ....    1
 Number of Electrons    NEL             ....  134
 Basis Dimension        Dim             ....  322

ORBITAL ENERGIES
----------------

  NO   OCC          E(Eh)            E(eV)
   0   2.0000     -88.962481     -2420.7922
   1   2.0000     -88.959640     -2420.7149
   2   2.0000     -10.326135      -280.9884
   3   2.0000     -10.323697      -280.9221
   4   2.0000     -10.319225      -280.8004
   5   2.0000     -10.310252      -280.5562
   6   2.0000     -10.301585      -280.3204
   7   2.0000     -10.300338      -280.2864
   8   2.0000     -10.298082      -280.2251
   9   2.0000     -10.296205      -280.1740
  10   2.0000     -10.289644      -279.9954
  11   2.0000     -10.287921      -279.9486
  12   2.0000     -10.287059      -279.9251
  13   2.0000     -10.284833      -279.8645
  14   2.0000     -10.278888      -279.7028
  15   2.0000     -10.271926      -279.5133
  16   2.0000      -8.076497      -219.7726
  17   2.0000      -8.074536      -219.7193
  18   2.0000      -6.035225      -164.2268
  19   2.0000      -6.033136      -164.1700
  20   2.0000      -6.031234      -164.1182
  21   2.0000      -6.029020      -164.0580
  22   2.0000      -6.026938      -164.0013
  23   2.0000      -6.025187      -163.9537
  24   2.0000      -1.006273       -27.3821
  25   2.0000      -0.985748       -26.8236
  26   2.0000      -0.921344       -25.0711
  27   2.0000      -0.899043       -24.4642
  28   2.0000      -0.867304       -23.6006
  29   2.0000      -0.854777       -23.2597
  30   2.0000      -0.841035       -22.8857
  31   2.0000      -0.816677       -22.2229
  32   2.0000      -0.783432       -21.3183
  33   2.0000      -0.774817       -21.0838
  34   2.0000      -0.711677       -19.3657
  35   2.0000      -0.707997       -19.2656
  36   2.0000      -0.698311       -19.0020
  37   2.0000      -0.663951       -18.0670
  38   2.0000      -0.644456       -17.5365
  39   2.0000      -0.619556       -16.8590
  40   2.0000      -0.597746       -16.2655
  41   2.0000      -0.573830       -15.6147
  42   2.0000      -0.562714       -15.3122
  43   2.0000      -0.548261       -14.9189
  44   2.0000      -0.533278       -14.5112
  45   2.0000      -0.526445       -14.3253
  46   2.0000      -0.519245       -14.1294
  47   2.0000      -0.514994       -14.0137
  48   2.0000      -0.504472       -13.7274
  49   2.0000      -0.497930       -13.5494
  50   2.0000      -0.494082       -13.4447
  51   2.0000      -0.479472       -13.0471
  52   2.0000      -0.468565       -12.7503
  53   2.0000      -0.463333       -12.6079
  54   2.0000      -0.458940       -12.4884
  55   2.0000      -0.453864       -12.3503
  56   2.0000      -0.445285       -12.1168
  57   2.0000      -0.443723       -12.0743
  58   2.0000      -0.436990       -11.8911
  59   2.0000      -0.424077       -11.5397
  60   2.0000      -0.418765       -11.3952
  61   2.0000      -0.413597       -11.2545
  62   2.0000      -0.406949       -11.0736
  63   2.0000      -0.344639        -9.3781
  64   2.0000      -0.331674        -9.0253
  65   2.0000      -0.325353        -8.8533
  66   2.0000      -0.299997        -8.1633
  67   0.0000       0.037789         1.0283
  68   0.0000       0.068195         1.8557
  69   0.0000       0.110929         3.0185
  70   0.0000       0.121746         3.3129
  71   0.0000       0.137073         3.7299

MULLIKEN ATOMIC CHARGES
-----------------------
   0 S :    0.093278
   1 C :   -0.110173
   2 C :   -0.050536
   3 C :    0.005567
   4 C :   -0.129475
   5 H :    0.020324
   6 C :    0.053318
   7 H :    0.032201
   8 H :    0.013921
   9 C :   -0.075850
  10 H :    0.031733
  11 H :    0.038015
  12 C :   -0.067177
  13 H :    0.034991
  14 H :    0.041807
  15 H :    0.040882
  16 S :    0.089842
  17 C :   -0.080961
  18 C :   -0.033786
  19 C :   -0.006024
  20 C :   -0.184508
  21 H :   -0.008303
  22 C :    0.051687
  23 H :    0.052265
  24 H :    0.005310
  25 C :   -0.014138
  26 H :    0.029299
  27 H :    0.008306
  28 C :   -0.049151
  29 H :    0.022901
  30 H :    0.021939
  31 H :    0.030979
  32 H :    0.024776
  33 H :    0.066739
Sum of atomic charges:   -0.0000000

LOEWDIN ATOMIC CHARGES
----------------------
   0 S :    0.363922
   1 C :   -0.162235
   2 C :   -0.069575
   3 C :   -0.065951
   4 C :   -0.183497
   5 H :    0.035462
   6 C :   -0.035301
   7 H :    0.035404
   8 H :    0.025946
   9 C :   -0.031268
  10 H :    0.023039
  11 H :    0.025137
  12 C :   -0.066933
  13 H :    0.023201
  14 H :    0.025827
  15 H :    0.028536
  16 S :    0.389517
  17 C :   -0.186015
  18 C :   -0.070903
  19 C :   -0.048818
  20 C :   -0.186614
  21 H :    0.019006
  22 C :   -0.036814
  23 H :    0.045351
  24 H :    0.025296
  25 C :   -0.033216
  26 H :    0.026136
  27 H :    0.018238
  28 C :   -0.064591
  29 H :    0.024818
  30 H :    0.024092
  31 H :    0.025728
  32 H :    0.017240
  33 H :    0.039833

  Mayer bond orders larger than 0.100000
B(  0-S ,  1-C ) :   1.1170 B(  0-S ,  4-C ) :   1.1143 B(  1-C ,  2-C ) :   1.6516
B(  1-C , 32-H ) :   0.9750 B(  2-C ,  3-C ) :   1.2096 B(  2-C ,  6-C ) :   1.0107
B(  3-C ,  4-C ) :   1.6357 B(  3-C ,  5-H ) :   0.9883 B(  4-C , 20-C ) :   1.0293
B(  6-C ,  7-H ) :   0.9484 B(  6-C ,  8-H ) :   0.9458 B(  6-C ,  9-C ) :   1.0395
B(  9-C , 10-H ) :   0.9634 B(  9-C , 11-H ) :   0.9612 B(  9-C , 12-C ) :   1.0607
B( 12-C , 13-H ) :   0.9792 B( 12-C , 14-H ) :   0.9799 B( 12-C , 15-H ) :   0.9787
B( 16-S , 17-C ) :   1.1540 B( 16-S , 20-C ) :   1.1136 B( 17-C , 18-C ) :   1.6226
B( 17-C , 33-H ) :   0.9637 B( 18-C , 19-C ) :   1.2099 B( 18-C , 21-H ) :   0.9995
B( 19-C , 20-C ) :   1.6271 B( 19-C , 22-C ) :   1.0337 B( 22-C , 23-H ) :   0.9319
B( 22-C , 24-H ) :   0.9147 B( 22-C , 25-C ) :   1.0803 B( 25-C , 26-H ) :   0.9514
B( 25-C , 27-H ) :   0.9554 B( 25-C , 28-C ) :   1.0736 B( 28-C , 29-H ) :   0.9736
B( 28-C , 30-H ) :   0.9736 B( 28-C , 31-H ) :   0.9778

Dispersion correction           -0.013710212
FINAL SINGLE POINT ENERGY     -1339.861250216177

DIPOLE MOMENT
-------------
                                X             Y             Z
Electronic contribution:     28.25622       7.21197      14.98302
Nuclear contribution   :    -28.95132      -7.17944     -15.41598
                        -----------------------------------------
Total Dipole Moment    :     -0.69510       0.03253      -0.43295
                        -----------------------------------------
Magnitude (a.u.)       :      0.81955
Magnitude (Debye)      :      2.08314

Rotational constants in cm-1:     0.017126     0.008722     0.006204
Rotational constants in MHz :   513.431024   261.493353   185.997353

                             ****ORCA TERMINATED NORMALLY****
TOTAL RUN TIME: 0 days 0 hours 0 minutes 21 seconds 179 msec
