                         Program Version 4.2.1 -  RELEASE  -
|  1> ! wB97X-D3 SP def2-SVP
|  2> %pal
|  3> nprocs 24
|  4> end
|  5>
|  6> * xyz 0 1
|  7> S 	 31.2786 	 -7.74143 	 -114.448
|  8> C 	 32.9777 	 -7.58639 	 -114.294
|  9> C 	 33.4629 	 -8.36785 	 -113.27
| 10> C 	 32.3888 	 -9.07264 	 -112.69
| 11> C 	 31.1241 	 -8.83085 	 -113.103
| 12> H 	 32.5396 	 -9.737 	 -111.852
| 13> C 	 34.9122 	 -8.46749 	 -112.788
| 14> H 	 35.1017 	 -9.05204 	 -111.862
| 15> H 	 35.234 	 -7.42634 	 -112.668
| 16> C 	 35.9785 	 -8.93636 	 -113.935
| 17> H 	 36.9398 	 -8.56204 	 -113.575
| 18> H 	 35.836 	 -10.0335 	 -114.074
| 19> C 	 35.765 	 -8.26435 	 -115.27
| 20> H 	 36.6601 	 -8.45084 	 -115.778
| 21> H 	 34.9504 	 -8.73914 	 -115.748
| 22> H 	 35.7685 	 -7.21612 	 -115.17
| 23> S 	 29.1339 	 -10.4678 	 -113.89
| 24> C 	 28.0117 	 -11.1451 	 -112.711
| 25> C 	 28.2772 	 -10.5947 	 -111.469
| 26> C 	 29.4207 	 -9.77867 	 -111.451
| 27> C 	 29.9417 	 -9.55935 	 -112.678
| 28> H 	 27.6748 	 -10.9144 	 -110.631
| 29> C 	 29.8808 	 -9.1475 	 -110.183
| 30> H 	 28.9521 	 -8.99277 	 -109.618
| 31> H 	 30.2983 	 -8.12525 	 -110.403
| 32> C 	 30.8841 	 -9.94978 	 -109.34
| 33> H 	 31.8854 	 -9.93245 	 -109.716
| 34> H 	 30.6259 	 -11.0316 	 -109.263
| 35> C 	 30.8379 	 -9.51172 	 -107.904
| 36> H 	 29.8637 	 -9.42966 	 -107.44
| 37> H 	 31.3499 	 -8.57118 	 -107.723
| 38> H 	 31.5084 	 -10.139 	 -107.257
| 39> H 	 33.5524 	 -6.96441 	 -115.011
| 40> H 	 27.123 	 -11.8074 	 -112.891
| 41> *
| 42>
| 43>                          ****END OF INPUT****

CARTESIAN COORDINATES (ANGSTROEM)
---------------------------------
  S     31.278600   -7.741430  -114.448000
  C     32.977700   -7.586390  -114.294000
  C     33.462900   -8.367850  -113.270000
  C     32.388800   -9.072640  -112.690000
  C     31.124100   -8.830850  -113.103000
  H     32.539600   -9.737000  -111.852000
  C     34.912200   -8.467490  -112.788000
  H     35.101700   -9.052040  -111.862000
  H     35.234000   -7.426340  -112.668000
  C     35.978500   -8.936360  -113.935000
  H     36.939800   -8.562040  -113.575000
  H     35.836000  -10.033500  -114.074000
  C     35.765000   -8.264350  -115.270000
  H     36.660100   -8.450840  -115.778000
  H     34.950400   -8.739140  -115.748000
  H     35.768500   -7.216120  -115.170000
  S     29.133900  -10.467800  -113.890000
  C     28.011700  -11.145100  -112.711000
  C     28.277200  -10.594700  -111.469000
  C     29.420700   -9.778670  -111.451000
  C     29.941700   -9.559350  -112.678000
  H     27.674800  -10.914400  -110.631000
  C     29.880800   -9.147500  -110.183000
  H     28.952100   -8.992770  -109.618000
  H     30.298300   -8.125250  -110.403000
  C     30.884100   -9.949780  -109.340000
  H     31.885400   -9.932450  -109.716000
  H     30.625900  -11.031600  -109.263000
  C     30.837900   -9.511720  -107.904000
  H     29.863700   -9.429660  -107.440000
  H     31.349900   -8.571180  -107.723000
  H     31.508400  -10.139000  -107.257000
  H     33.552400   -6.964410  -115.011000
  H     27.123000  -11.807400  -112.891000

 Total Charge           Charge          ....    0
 Multiplicity           Mult            ....    1
 Number of Electrons    NEL             ....  134
 Basis Dimension        Dim             ....  322

ORBITAL ENERGIES
----------------

  NO   OCC          E(Eh)            E(eV)
   0   2.0000     -88.963263     -2420.8135
   1   2.0000     -88.962913     -2420.8039
   2   2.0000     -10.321571      -280.8642
   3   2.0000     -10.319427      -280.8059
   4   2.0000     -10.318963      -280.7933
   5   2.0000     -10.313923      -280.6561
   6   2.0000     -10.300451      -280.2895
   7   2.0000     -10.299375      -280.2602
   8   2.0000     -10.293463      -280.0994
   9   2.0000     -10.292314      -280.0681
  10   2.0000     -10.291051      -280.0337
  11   2.0000     -10.289505      -279.9917
  12   2.0000     -10.285888      -279.8932
  13   2.0000     -10.284728      -279.8617
  14   2.0000     -10.275691      -279.6158
  15   2.0000     -10.266217      -279.3580
  16   2.0000      -8.078899      -219.8380
  17   2.0000      -8.078142      -219.8174
  18   2.0000      -6.037310      -164.2836
  19   2.0000      -6.036612      -164.2646
  20   2.0000      -6.033115      -164.1694
  21   2.0000      -6.032535      -164.1536
  22   2.0000      -6.029867      -164.0810
  23   2.0000      -6.028940      -164.0558
  24   2.0000      -1.016164       -27.6512
  25   2.0000      -0.993333       -27.0300
  26   2.0000      -0.911848       -24.8126
  27   2.0000      -0.908556       -24.7231
  28   2.0000      -0.872843       -23.7513
  29   2.0000      -0.856282       -23.3006
  30   2.0000      -0.851316       -23.1655
  31   2.0000      -0.815355       -22.1869
  32   2.0000      -0.783975       -21.3331
  33   2.0000      -0.771553       -20.9950
  34   2.0000      -0.706117       -19.2144
  35   2.0000      -0.696078       -18.9412
  36   2.0000      -0.689040       -18.7497
  37   2.0000      -0.665971       -18.1220
  38   2.0000      -0.643556       -17.5120
  39   2.0000      -0.620244       -16.8777
  40   2.0000      -0.592781       -16.1304
  41   2.0000      -0.581545       -15.8246
  42   2.0000      -0.565886       -15.3985
  43   2.0000      -0.559475       -15.2241
  44   2.0000      -0.535701       -14.5772
  45   2.0000      -0.525244       -14.2926
  46   2.0000      -0.521468       -14.1899
  47   2.0000      -0.511727       -13.9248
  48   2.0000      -0.510450       -13.8900
  49   2.0000      -0.496565       -13.5122
  50   2.0000      -0.493626       -13.4322
  51   2.0000      -0.480794       -13.0831
  52   2.0000      -0.473562       -12.8863
  53   2.0000      -0.470092       -12.7919
  54   2.0000      -0.458387       -12.4733
  55   2.0000      -0.450590       -12.2612
  56   2.0000      -0.440082       -11.9752
  57   2.0000      -0.437002       -11.8914
  58   2.0000      -0.434558       -11.8249
  59   2.0000      -0.422445       -11.4953
  60   2.0000      -0.418195       -11.3797
  61   2.0000      -0.410850       -11.1798
  62   2.0000      -0.409701       -11.1485
  63   2.0000      -0.348241        -9.4761
  64   2.0000      -0.329553        -8.9676
  65   2.0000      -0.325779        -8.8649
  66   2.0000      -0.297176        -8.0866
  67   0.0000       0.037532         1.0213
  68   0.0000       0.071164         1.9365
  69   0.0000       0.122936         3.3453
  70   0.0000       0.123940         3.3726
  71   0.0000       0.132745         3.6122

MULLIKEN ATOMIC CHARGES
-----------------------
   0 S :    0.116324
   1 C :   -0.162829
   2 C :   -0.054212
   3 C :    0.017775
   4 C :   -0.149958
   5 H :   -0.010250
   6 C :    0.050381
   7 H :    0.040583
   8 H :    0.031024
   9 C :   -0.116735
  10 H :    0.030666
  11 H :    0.047492
  12 C :   -0.009486
  13 H :    0.017892
  14 H :    0.050353
  15 H :    0.016878
  16 S :    0.110543
  17 C :   -0.115040
  18 C :   -0.042087
  19 C :   -0.015970
  20 C :   -0.146987
  21 H :    0.016501
  22 C :    0.040940
  23 H :    0.019707
  24 H :    0.043989
  25 C :   -0.043723
  26 H :    0.026546
  27 H :    0.031154
  28 C :   -0.061107
  29 H :    0.034723
  30 H :    0.017460
  31 H :    0.025590
  32 H :    0.068279
  33 H :    0.073584
Sum of atomic charges:   -0.0000000

LOEWDIN ATOMIC CHARGES
----------------------
   0 S :    0.425858
   1 C :   -0.205596
   2 C :   -0.074287
   3 C :   -0.061762
   4 C :   -0.211036
   5 H :    0.024065
   6 C :   -0.035787
   7 H :    0.033562
   8 H :    0.032661
   9 C :   -0.030128
  10 H :    0.022594
  11 H :    0.028603
  12 C :   -0.060005
  13 H :    0.024458
  14 H :    0.025716
  15 H :    0.017420
  16 S :    0.416761
  17 C :   -0.192396
  18 C :   -0.071500
  19 C :   -0.067623
  20 C :   -0.202420
  21 H :    0.031399
  22 C :   -0.031390
  23 H :    0.032453
  24 H :    0.039590
  25 C :   -0.041338
  26 H :    0.020199
  27 H :    0.029917
  28 C :   -0.072103
  29 H :    0.022969
  30 H :    0.021609
  31 H :    0.029589
  32 H :    0.035269
  33 H :    0.042680

  Mayer bond orders larger than 0.100000
B(  0-S ,  1-C ) :   1.1714 B(  0-S ,  4-C ) :   1.1437 B(  1-C ,  2-C ) :   1.5602
B(  1-C , 32-H ) :   0.9579 B(  2-C ,  3-C ) :   1.2890 B(  2-C ,  6-C ) :   1.0132
B(  3-C ,  4-C ) :   1.5605 B(  3-C ,  5-H ) :   0.9972 B(  4-C , 20-C ) :   1.0195
B(  6-C ,  7-H ) :   0.9527 B(  6-C ,  8-H ) :   0.9398 B(  6-C ,  9-C ) :   1.0561
B(  9-C , 10-H ) :   0.9618 B(  9-C , 11-H ) :   0.9582 B(  9-C , 12-C ) :   1.0994
B( 12-C , 13-H ) :   0.9619 B( 12-C , 14-H ) :   0.9660 B( 12-C , 15-H ) :   0.9671
B( 16-S , 17-C ) :   1.1533 B( 16-S , 20-C ) :   1.1477 B( 17-C , 18-C ) :   1.6114
B( 17-C , 33-H ) :   0.9606 B( 18-C , 19-C ) :   1.2421 B( 18-C , 21-H ) :   0.9896
B( 19-C , 20-C ) :   1.6173 B( 19-C , 22-C ) :   1.0462 B( 22-C , 23-H ) :   0.9422
B( 22-C , 24-H ) :   0.9283 B( 22-C , 25-C ) :   1.0575 B( 25-C , 26-H ) :   0.9450
B( 25-C , 27-H ) :   0.9589 B( 25-C , 28-C ) :   1.0905 B( 28-C , 29-H ) :   0.9759
B( 28-C , 30-H ) :   0.9697 B( 28-C , 31-H ) :   0.9704

Dispersion correction           -0.014248676
FINAL SINGLE POINT ENERGY     -1339.871121323422

DIPOLE MOMENT
-------------
                                X             Y             Z
Electronic contribution:    -19.27178      -0.40915     -16.15756
Nuclear contribution   :     19.75852       0.32995      16.59388
                        -----------------------------------------
Total Dipole Moment    :      0.48674      -0.07920       0.43633
                        -----------------------------------------
Magnitude (a.u.)       :      0.65846
Magnitude (Debye)      :      1.67367

Rotational constants in cm-1:     0.019396     0.008597     0.006613
Rotational constants in MHz :   581.475218   257.737396   198.246357

                             ****ORCA TERMINATED NORMALLY****
TOTAL RUN TIME: 0 days 0 hours 0 minutes 21 seconds 639 msec
