                         Program Version 4.2.1 -  RELEASE  -
|  1> ! wB97X-D3 SP def2-SVP
|  2> %pal
|  3> nprocs 24
|  4> end
|  5>
|  6> * xyz 0 1
|  7> S 	 -85.5169 	 2.82274 	 -115.746
|  8> C 	 -84.9857 	 4.20444 	 -116.649
|  9> C 	 -85.9188 	 5.26139 	 -116.558
| 10> C 	 -87.0644 	 4.96963 	 -115.727
| 11> C 	 -86.978 	 3.67846 	 -115.195
| 12> H 	 -87.9527 	 5.5779 	 -115.667
| 13> C 	 -85.7245 	 6.51265 	 -117.468
| 14> H 	 -84.7136 	 6.93018 	 -117.435
| 15> H 	 -86.3345 	 7.28877 	 -117.124
| 16> C 	 -86.1195 	 6.34854 	 -118.969
| 17> H 	 -85.8368 	 7.16888 	 -119.582
| 18> H 	 -85.6396 	 5.38265 	 -119.266
| 19> C 	 -87.6946 	 6.20002 	 -119.152
| 20> H 	 -88.1084 	 5.37548 	 -118.615
| 21> H 	 -88.1264 	 7.11578 	 -118.805
| 22> H 	 -88.1858 	 6.18584 	 -120.116
| 23> S 	 -87.422 	 1.37378 	 -113.872
| 24> C 	 -89.0145 	 0.772754 	 -113.626
| 25> C 	 -89.9414 	 1.76013 	 -113.715
| 26> C 	 -89.3857 	 3.00598 	 -114.147
| 27> C 	 -88.0216 	 2.89719 	 -114.523
| 28> H 	 -90.9941 	 1.56499 	 -113.5
| 29> C 	 -90.1951 	 4.23706 	 -114.383
| 30> H 	 -89.5715 	 5.13521 	 -114.226
| 31> H 	 -91.149 	 4.09637 	 -113.76
| 32> C 	 -90.8626 	 4.32194 	 -115.791
| 33> H 	 -91.2921 	 3.36675 	 -115.995
| 34> H 	 -90.0443 	 4.48837 	 -116.589
| 35> C 	 -91.9723 	 5.35852 	 -115.952
| 36> H 	 -92.8559 	 5.11038 	 -115.253
| 37> H 	 -92.2243 	 5.36194 	 -116.986
| 38> H 	 -91.7235 	 6.37186 	 -115.719
| 39> H 	 -84.1088 	 4.07315 	 -117.232
| 40> H 	 -89.1439 	 -0.19392 	 -113.333
| 41> *
| 42>
| 43>                          ****END OF INPUT****

CARTESIAN COORDINATES (ANGSTROEM)
---------------------------------
  S    -85.516900    2.822740  -115.746000
  C    -84.985700    4.204440  -116.649000
  C    -85.918800    5.261390  -116.558000
  C    -87.064400    4.969630  -115.727000
  C    -86.978000    3.678460  -115.195000
  H    -87.952700    5.577900  -115.667000
  C    -85.724500    6.512650  -117.468000
  H    -84.713600    6.930180  -117.435000
  H    -86.334500    7.288770  -117.124000
  C    -86.119500    6.348540  -118.969000
  H    -85.836800    7.168880  -119.582000
  H    -85.639600    5.382650  -119.266000
  C    -87.694600    6.200020  -119.152000
  H    -88.108400    5.375480  -118.615000
  H    -88.126400    7.115780  -118.805000
  H    -88.185800    6.185840  -120.116000
  S    -87.422000    1.373780  -113.872000
  C    -89.014500    0.772754  -113.626000
  C    -89.941400    1.760130  -113.715000
  C    -89.385700    3.005980  -114.147000
  C    -88.021600    2.897190  -114.523000
  H    -90.994100    1.564990  -113.500000
  C    -90.195100    4.237060  -114.383000
  H    -89.571500    5.135210  -114.226000
  H    -91.149000    4.096370  -113.760000
  C    -90.862600    4.321940  -115.791000
  H    -91.292100    3.366750  -115.995000
  H    -90.044300    4.488370  -116.589000
  C    -91.972300    5.358520  -115.952000
  H    -92.855900    5.110380  -115.253000
  H    -92.224300    5.361940  -116.986000
  H    -91.723500    6.371860  -115.719000
  H    -84.108800    4.073150  -117.232000
  H    -89.143900   -0.193920  -113.333000

 Total Charge           Charge          ....    0
 Multiplicity           Mult            ....    1
 Number of Electrons    NEL             ....  134
 Basis Dimension        Dim             ....  322

ORBITAL ENERGIES
----------------

  NO   OCC          E(Eh)            E(eV)
   0   2.0000     -88.968989     -2420.9693
   1   2.0000     -88.958997     -2420.6974
   2   2.0000     -10.339530      -281.3529
   3   2.0000     -10.331304      -281.1291
   4   2.0000     -10.316824      -280.7351
   5   2.0000     -10.313500      -280.6446
   6   2.0000     -10.307991      -280.4947
   7   2.0000     -10.307702      -280.4868
   8   2.0000     -10.303953      -280.3848
   9   2.0000     -10.300065      -280.2790
  10   2.0000     -10.295734      -280.1612
  11   2.0000     -10.293337      -280.0959
  12   2.0000     -10.292368      -280.0696
  13   2.0000     -10.291937      -280.0578
  14   2.0000     -10.281822      -279.7826
  15   2.0000     -10.272690      -279.5341
  16   2.0000      -8.083480      -219.9627
  17   2.0000      -8.074910      -219.7295
  18   2.0000      -6.041980      -164.4106
  19   2.0000      -6.037960      -164.3012
  20   2.0000      -6.034299      -164.2016
  21   2.0000      -6.033328      -164.1752
  22   2.0000      -6.029354      -164.0671
  23   2.0000      -6.025603      -163.9650
  24   2.0000      -1.007860       -27.4253
  25   2.0000      -0.983309       -26.7572
  26   2.0000      -0.910278       -24.7699
  27   2.0000      -0.903343       -24.5812
  28   2.0000      -0.869173       -23.6514
  29   2.0000      -0.854988       -23.2654
  30   2.0000      -0.844061       -22.9681
  31   2.0000      -0.815863       -22.2008
  32   2.0000      -0.783062       -21.3082
  33   2.0000      -0.771532       -20.9945
  34   2.0000      -0.705047       -19.1853
  35   2.0000      -0.703999       -19.1568
  36   2.0000      -0.691856       -18.8264
  37   2.0000      -0.668890       -18.2014
  38   2.0000      -0.646173       -17.5832
  39   2.0000      -0.620286       -16.8789
  40   2.0000      -0.600683       -16.3454
  41   2.0000      -0.573643       -15.6096
  42   2.0000      -0.569754       -15.5038
  43   2.0000      -0.545406       -14.8413
  44   2.0000      -0.540922       -14.7192
  45   2.0000      -0.526379       -14.3235
  46   2.0000      -0.515604       -14.0303
  47   2.0000      -0.509518       -13.8647
  48   2.0000      -0.507568       -13.8116
  49   2.0000      -0.497565       -13.5394
  50   2.0000      -0.492404       -13.3990
  51   2.0000      -0.482375       -13.1261
  52   2.0000      -0.474795       -12.9198
  53   2.0000      -0.463939       -12.6244
  54   2.0000      -0.461300       -12.5526
  55   2.0000      -0.453000       -12.3268
  56   2.0000      -0.446885       -12.1604
  57   2.0000      -0.437556       -11.9065
  58   2.0000      -0.431661       -11.7461
  59   2.0000      -0.426533       -11.6066
  60   2.0000      -0.420078       -11.4309
  61   2.0000      -0.413355       -11.2480
  62   2.0000      -0.405486       -11.0338
  63   2.0000      -0.363116        -9.8809
  64   2.0000      -0.337318        -9.1789
  65   2.0000      -0.324646        -8.8341
  66   2.0000      -0.277814        -7.5597
  67   0.0000       0.011333         0.3084
  68   0.0000       0.080490         2.1902
  69   0.0000       0.092843         2.5264
  70   0.0000       0.109767         2.9869
  71   0.0000       0.129532         3.5247

MULLIKEN ATOMIC CHARGES
-----------------------
   0 S :    0.099628
   1 C :   -0.110214
   2 C :   -0.092739
   3 C :   -0.000615
   4 C :   -0.081348
   5 H :    0.011767
   6 C :    0.075368
   7 H :    0.037685
   8 H :   -0.002851
   9 C :   -0.055143
  10 H :    0.034512
  11 H :    0.035482
  12 C :   -0.070612
  13 H :    0.039714
  14 H :    0.006951
  15 H :    0.027618
  16 S :    0.067703
  17 C :   -0.038628
  18 C :   -0.028358
  19 C :   -0.035409
  20 C :   -0.130997
  21 H :    0.023545
  22 C :    0.010710
  23 H :    0.046625
  24 H :    0.029281
  25 C :   -0.093379
  26 H :    0.019255
  27 H :    0.037999
  28 C :   -0.028823
  29 H :    0.038886
  30 H :    0.034458
  31 H :    0.020554
  32 H :    0.050679
  33 H :    0.020695
Sum of atomic charges:    0.0000000

LOEWDIN ATOMIC CHARGES
----------------------
   0 S :    0.405159
   1 C :   -0.192878
   2 C :   -0.055327
   3 C :   -0.066316
   4 C :   -0.178542
   5 H :    0.030997
   6 C :   -0.029495
   7 H :    0.034989
   8 H :    0.016284
   9 C :   -0.028214
  10 H :    0.020608
  11 H :    0.025077
  12 C :   -0.074690
  13 H :    0.020988
  14 H :    0.018324
  15 H :    0.026746
  16 S :    0.400062
  17 C :   -0.168730
  18 C :   -0.072011
  19 C :   -0.060803
  20 C :   -0.183566
  21 H :    0.035780
  22 C :   -0.042475
  23 H :    0.031610
  24 H :    0.041996
  25 C :   -0.044393
  26 H :    0.019969
  27 H :    0.026994
  28 C :   -0.066699
  29 H :    0.033425
  30 H :    0.026727
  31 H :    0.018213
  32 H :    0.021652
  33 H :    0.008539

  Mayer bond orders larger than 0.100000
B(  0-S ,  1-C ) :   1.1501 B(  0-S ,  4-C ) :   1.1548 B(  1-C ,  2-C ) :   1.5700
B(  1-C , 32-H ) :   0.9801 B(  2-C ,  3-C ) :   1.2621 B(  2-C ,  6-C ) :   1.0257
B(  3-C ,  4-C ) :   1.5414 B(  3-C ,  5-H ) :   0.9930 B(  4-C , 20-C ) :   1.0843
B(  6-C ,  7-H ) :   0.9457 B(  6-C ,  8-H ) :   0.9409 B(  6-C ,  9-C ) :   1.0581
B(  9-C , 10-H ) :   0.9603 B(  9-C , 11-H ) :   0.9612 B(  9-C , 12-C ) :   1.0591
B( 12-C , 13-H ) :   0.9816 B( 12-C , 14-H ) :   0.9737 B( 12-C , 15-H ) :   0.9757
B( 16-S , 17-C ) :   1.1616 B( 16-S , 20-C ) :   1.1419 B( 17-C , 18-C ) :   1.5931
B( 17-C , 33-H ) :   0.9838 B( 18-C , 19-C ) :   1.2393 B( 18-C , 21-H ) :   0.9929
B( 19-C , 20-C ) :   1.5406 B( 19-C , 22-C ) :   1.0711 B( 22-C , 23-H ) :   0.9318
B( 22-C , 24-H ) :   0.9253 B( 22-C , 25-C ) :   1.0670 B( 25-C , 26-H ) :   0.9513
B( 25-C , 27-H ) :   0.9493 B( 25-C , 28-C ) :   1.0822 B( 28-C , 29-H ) :   0.9707
B( 28-C , 30-H ) :   0.9715 B( 28-C , 31-H ) :   0.9749

Dispersion correction           -0.014736253
FINAL SINGLE POINT ENERGY     -1339.858189743007

DIPOLE MOMENT
-------------
                                X             Y             Z
Electronic contribution:     16.88343     -21.13503      16.31184
Nuclear contribution   :    -17.35814      21.47316     -16.68408
                        -----------------------------------------
Total Dipole Moment    :     -0.47471       0.33813      -0.37225
                        -----------------------------------------
Magnitude (a.u.)       :      0.69156
Magnitude (Debye)      :      1.75779

Rotational constants in cm-1:     0.016992     0.010342     0.006837
Rotational constants in MHz :   509.396811   310.058485   204.970824

                             ****ORCA TERMINATED NORMALLY****
TOTAL RUN TIME: 0 days 0 hours 0 minutes 22 seconds 170 msec
