                         Program Version 4.2.1 -  RELEASE  -
|  1> ! wB97X-D3 SP def2-SVP
|  2> %pal
|  3> nprocs 24
|  4> end
|  5>
|  6> * xyz 0 1
|  7> S 	 -117.957 	 18.4365 	 -114.526
|  8> C 	 -119.684 	 18.8089 	 -114.319
|  9> C 	 -120.479 	 18.2432 	 -115.353
| 10> C 	 -119.654 	 17.5301 	 -116.221
| 11> C 	 -118.306 	 17.5746 	 -115.963
| 12> H 	 -119.894 	 17.0703 	 -117.231
| 13> C 	 -121.962 	 18.4339 	 -115.57
| 14> H 	 -122.313 	 18.6595 	 -114.584
| 15> H 	 -122.382 	 17.5111 	 -115.901
| 16> C 	 -122.388 	 19.5579 	 -116.463
| 17> H 	 -123.404 	 19.6559 	 -116.364
| 18> H 	 -122.082 	 20.5418 	 -115.962
| 19> C 	 -121.92 	 19.3385 	 -117.95
| 20> H 	 -120.874 	 19.1895 	 -118.191
| 21> H 	 -122.423 	 18.4958 	 -118.427
| 22> H 	 -122.216 	 20.1686 	 -118.565
| 23> S 	 -116.106 	 16.0383 	 -116.044
| 24> C 	 -115.115 	 16.0384 	 -117.481
| 25> C 	 -115.612 	 16.8155 	 -118.486
| 26> C 	 -116.766 	 17.4132 	 -118.051
| 27> C 	 -117.228 	 17.063 	 -116.779
| 28> H 	 -115.109 	 16.7815 	 -119.434
| 29> C 	 -117.514 	 18.2459 	 -119.039
| 30> H 	 -116.747 	 18.8489 	 -119.574
| 31> H 	 -118.19 	 19.0356 	 -118.594
| 32> C 	 -118.369 	 17.4454 	 -120.077
| 33> H 	 -119.233 	 16.9959 	 -119.488
| 34> H 	 -117.844 	 16.6192 	 -120.614
| 35> C 	 -119.097 	 18.3646 	 -121.048
| 36> H 	 -118.419 	 19.1657 	 -121.363
| 37> H 	 -119.956 	 18.9249 	 -120.641
| 38> H 	 -119.5 	 17.8304 	 -121.865
| 39> H 	 -120.08 	 19.4256 	 -113.475
| 40> H 	 -114.436 	 15.2994 	 -117.82
| 41> *
| 42>
| 43>                          ****END OF INPUT****

CARTESIAN COORDINATES (ANGSTROEM)
---------------------------------
  S    -117.957000   18.436500  -114.526000
  C    -119.684000   18.808900  -114.319000
  C    -120.479000   18.243200  -115.353000
  C    -119.654000   17.530100  -116.221000
  C    -118.306000   17.574600  -115.963000
  H    -119.894000   17.070300  -117.231000
  C    -121.962000   18.433900  -115.570000
  H    -122.313000   18.659500  -114.584000
  H    -122.382000   17.511100  -115.901000
  C    -122.388000   19.557900  -116.463000
  H    -123.404000   19.655900  -116.364000
  H    -122.082000   20.541800  -115.962000
  C    -121.920000   19.338500  -117.950000
  H    -120.874000   19.189500  -118.191000
  H    -122.423000   18.495800  -118.427000
  H    -122.216000   20.168600  -118.565000
  S    -116.106000   16.038300  -116.044000
  C    -115.115000   16.038400  -117.481000
  C    -115.612000   16.815500  -118.486000
  C    -116.766000   17.413200  -118.051000
  C    -117.228000   17.063000  -116.779000
  H    -115.109000   16.781500  -119.434000
  C    -117.514000   18.245900  -119.039000
  H    -116.747000   18.848900  -119.574000
  H    -118.190000   19.035600  -118.594000
  C    -118.369000   17.445400  -120.077000
  H    -119.233000   16.995900  -119.488000
  H    -117.844000   16.619200  -120.614000
  C    -119.097000   18.364600  -121.048000
  H    -118.419000   19.165700  -121.363000
  H    -119.956000   18.924900  -120.641000
  H    -119.500000   17.830400  -121.865000
  H    -120.080000   19.425600  -113.475000
  H    -114.436000   15.299400  -117.820000

 Total Charge           Charge          ....    0
 Multiplicity           Mult            ....    1
 Number of Electrons    NEL             ....  134
 Basis Dimension        Dim             ....  322

ORBITAL ENERGIES
----------------

  NO   OCC          E(Eh)            E(eV)
   0   2.0000     -88.968249     -2420.9491
   1   2.0000     -88.967162     -2420.9196
   2   2.0000     -10.321295      -280.8567
   3   2.0000     -10.321246      -280.8554
   4   2.0000     -10.319587      -280.8102
   5   2.0000     -10.307492      -280.4811
   6   2.0000     -10.302284      -280.3394
   7   2.0000     -10.295575      -280.1568
   8   2.0000     -10.295370      -280.1513
   9   2.0000     -10.293107      -280.0897
  10   2.0000     -10.290860      -280.0285
  11   2.0000     -10.290523      -280.0194
  12   2.0000     -10.286136      -279.9000
  13   2.0000     -10.285861      -279.8925
  14   2.0000     -10.280179      -279.7379
  15   2.0000     -10.275158      -279.6013
  16   2.0000      -8.082995      -219.9495
  17   2.0000      -8.082964      -219.9486
  18   2.0000      -6.041333      -164.3930
  19   2.0000      -6.041295      -164.3920
  20   2.0000      -6.037501      -164.2887
  21   2.0000      -6.037162      -164.2795
  22   2.0000      -6.033990      -164.1932
  23   2.0000      -6.033945      -164.1920
  24   2.0000      -1.018248       -27.7079
  25   2.0000      -0.990344       -26.9486
  26   2.0000      -0.918931       -25.0054
  27   2.0000      -0.906955       -24.6795
  28   2.0000      -0.875314       -23.8185
  29   2.0000      -0.853520       -23.2255
  30   2.0000      -0.846258       -23.0278
  31   2.0000      -0.816763       -22.2252
  32   2.0000      -0.789265       -21.4770
  33   2.0000      -0.766625       -20.8609
  34   2.0000      -0.714842       -19.4518
  35   2.0000      -0.703014       -19.1300
  36   2.0000      -0.690617       -18.7927
  37   2.0000      -0.665688       -18.1143
  38   2.0000      -0.640503       -17.4290
  39   2.0000      -0.616058       -16.7638
  40   2.0000      -0.595627       -16.2078
  41   2.0000      -0.576623       -15.6907
  42   2.0000      -0.561251       -15.2724
  43   2.0000      -0.550442       -14.9783
  44   2.0000      -0.544688       -14.8217
  45   2.0000      -0.528997       -14.3947
  46   2.0000      -0.520070       -14.1518
  47   2.0000      -0.508929       -13.8487
  48   2.0000      -0.501347       -13.6424
  49   2.0000      -0.495413       -13.4809
  50   2.0000      -0.490651       -13.3513
  51   2.0000      -0.475611       -12.9420
  52   2.0000      -0.471869       -12.8402
  53   2.0000      -0.467845       -12.7307
  54   2.0000      -0.466078       -12.6826
  55   2.0000      -0.446152       -12.1404
  56   2.0000      -0.442031       -12.0283
  57   2.0000      -0.437222       -11.8974
  58   2.0000      -0.432072       -11.7573
  59   2.0000      -0.430123       -11.7042
  60   2.0000      -0.426569       -11.6075
  61   2.0000      -0.418128       -11.3778
  62   2.0000      -0.406343       -11.0572
  63   2.0000      -0.346673        -9.4335
  64   2.0000      -0.335693        -9.1347
  65   2.0000      -0.328777        -8.9465
  66   2.0000      -0.291102        -7.9213
  67   0.0000       0.036668         0.9978
  68   0.0000       0.061163         1.6643
  69   0.0000       0.114350         3.1116
  70   0.0000       0.118191         3.2161
  71   0.0000       0.128082         3.4853

MULLIKEN ATOMIC CHARGES
-----------------------
   0 S :    0.131203
   1 C :   -0.156537
   2 C :   -0.086915
   3 C :    0.009820
   4 C :   -0.160027
   5 H :    0.021734
   6 C :    0.103092
   7 H :    0.006698
   8 H :    0.019728
   9 C :   -0.009528
  10 H :    0.010513
  11 H :    0.025056
  12 C :   -0.062007
  13 H :    0.038942
  14 H :    0.023258
  15 H :    0.026487
  16 S :    0.117502
  17 C :   -0.064701
  18 C :   -0.063399
  19 C :    0.013554
  20 C :   -0.169807
  21 H :    0.021816
  22 C :    0.009843
  23 H :    0.023141
  24 H :    0.039383
  25 C :   -0.089138
  26 H :    0.030445
  27 H :    0.040360
  28 C :   -0.030599
  29 H :    0.023433
  30 H :    0.024897
  31 H :    0.027996
  32 H :    0.062055
  33 H :    0.041701
Sum of atomic charges:   -0.0000000

LOEWDIN ATOMIC CHARGES
----------------------
   0 S :    0.420735
   1 C :   -0.201598
   2 C :   -0.058750
   3 C :   -0.075609
   4 C :   -0.213343
   5 H :    0.038792
   6 C :   -0.026115
   7 H :    0.029000
   8 H :    0.027398
   9 C :   -0.029604
  10 H :    0.015137
  11 H :    0.032988
  12 C :   -0.070069
  13 H :    0.023852
  14 H :    0.026742
  15 H :    0.025315
  16 S :    0.443526
  17 C :   -0.186736
  18 C :   -0.064560
  19 C :   -0.062714
  20 C :   -0.224637
  21 H :    0.037396
  22 C :   -0.041352
  23 H :    0.029301
  24 H :    0.034051
  25 C :   -0.044368
  26 H :    0.027395
  27 H :    0.027294
  28 C :   -0.068725
  29 H :    0.023604
  30 H :    0.026200
  31 H :    0.021572
  32 H :    0.033558
  33 H :    0.024324

  Mayer bond orders larger than 0.100000
B(  0-S ,  1-C ) :   1.1510 B(  0-S ,  4-C ) :   1.1675 B(  1-C ,  2-C ) :   1.5771
B(  1-C ,  4-C ) :   0.1099 B(  1-C , 32-H ) :   0.9628 B(  2-C ,  3-C ) :   1.2570
B(  2-C ,  6-C ) :   1.0234 B(  3-C ,  4-C ) :   1.5803 B(  3-C ,  5-H ) :   0.9808
B(  4-C , 20-C ) :   1.0171 B(  6-C ,  7-H ) :   0.9250 B(  6-C ,  8-H ) :   0.9379
B(  6-C ,  9-C ) :   1.0953 B(  9-C , 10-H ) :   0.9498 B(  9-C , 11-H ) :   0.9495
B(  9-C , 12-C ) :   1.0612 B( 12-C , 13-H ) :   0.9749 B( 12-C , 14-H ) :   0.9724
B( 12-C , 15-H ) :   0.9731 B( 16-S , 17-C ) :   1.1735 B( 16-S , 20-C ) :   1.1622
B( 17-C , 18-C ) :   1.5934 B( 17-C , 20-C ) :   0.1069 B( 17-C , 33-H ) :   0.9579
B( 18-C , 19-C ) :   1.2694 B( 18-C , 21-H ) :   0.9983 B( 19-C , 20-C ) :   1.5516
B( 19-C , 22-C ) :   1.0551 B( 22-C , 23-H ) :   0.9297 B( 22-C , 24-H ) :   0.9363
B( 22-C , 25-C ) :   1.0564 B( 25-C , 26-H ) :   0.9508 B( 25-C , 27-H ) :   0.9584
B( 25-C , 28-C ) :   1.0764 B( 28-C , 29-H ) :   0.9722 B( 28-C , 30-H ) :   0.9736
B( 28-C , 31-H ) :   0.9718

Dispersion correction           -0.015862722
FINAL SINGLE POINT ENERGY     -1339.861897321933

DIPOLE MOMENT
-------------
                                X             Y             Z
Electronic contribution:     21.06154      -9.51272      22.25331
Nuclear contribution   :    -21.53951       9.65371     -22.84548
                        -----------------------------------------
Total Dipole Moment    :     -0.47798       0.14098      -0.59217
                        -----------------------------------------
Magnitude (a.u.)       :      0.77395
Magnitude (Debye)      :      1.96724

Rotational constants in cm-1:     0.017342     0.011046     0.007228
Rotational constants in MHz :   519.885839   331.159608   216.686856

                             ****ORCA TERMINATED NORMALLY****
TOTAL RUN TIME: 0 days 0 hours 0 minutes 23 seconds 113 msec
