                         Program Version 4.2.1 -  RELEASE  -
|  1> ! wB97X-D3 SP def2-SVP
|  2> %pal
|  3> nprocs 24
|  4> end
|  5>
|  6> * xyz 0 1
|  7> S 	 -56.7317 	 3.41912 	 -22.0283
|  8> C 	 -58.0757 	 3.55718 	 -23.136
|  9> C 	 -59.1888 	 3.94071 	 -22.4225
| 10> C 	 -59.0052 	 3.90808 	 -20.9718
| 11> C 	 -57.6679 	 3.60591 	 -20.5991
| 12> H 	 -59.6979 	 4.18373 	 -20.1752
| 13> C 	 -60.6322 	 4.14179 	 -22.9126
| 14> H 	 -60.6835 	 4.31888 	 -24.0096
| 15> H 	 -60.9759 	 5.06285 	 -22.3845
| 16> C 	 -61.6456 	 2.98452 	 -22.6296
| 17> H 	 -61.1722 	 2.08833 	 -22.8903
| 18> H 	 -61.8469 	 2.87746 	 -21.5703
| 19> C 	 -63.0034 	 3.16538 	 -23.4062
| 20> H 	 -63.5636 	 3.95212 	 -22.9022
| 21> H 	 -62.8338 	 3.34477 	 -24.4123
| 22> H 	 -63.5526 	 2.23846 	 -23.3625
| 23> S 	 -56.9472 	 2.03853 	 -18.356
| 24> C 	 -56.1838 	 2.80695 	 -17.0562
| 25> C 	 -56.0272 	 4.14834 	 -17.3021
| 26> C 	 -56.6178 	 4.6338 	 -18.487
| 27> C 	 -57.0859 	 3.56357 	 -19.2391
| 28> H 	 -55.4867 	 4.76552 	 -16.6265
| 29> C 	 -56.6771 	 6.04584 	 -18.8231
| 30> H 	 -57.0322 	 6.67422 	 -17.9989
| 31> H 	 -57.5252 	 6.1985 	 -19.5416
| 32> C 	 -55.3704 	 6.74771 	 -19.2003
| 33> H 	 -54.9562 	 6.13307 	 -20.0074
| 34> H 	 -54.8426 	 6.62224 	 -18.3528
| 35> C 	 -55.5385 	 8.26027 	 -19.6324
| 36> H 	 -56.057 	 8.43435 	 -20.5778
| 37> H 	 -54.5661 	 8.73778 	 -19.832
| 38> H 	 -56.2738 	 8.77029 	 -18.9848
| 39> H 	 -58.3571 	 2.96905 	 -24.0229
| 40> H 	 -55.8482 	 2.28834 	 -16.1544
| 41> *
| 42>
| 43>                          ****END OF INPUT****

CARTESIAN COORDINATES (ANGSTROEM)
---------------------------------
  S    -56.731700    3.419120  -22.028300
  C    -58.075700    3.557180  -23.136000
  C    -59.188800    3.940710  -22.422500
  C    -59.005200    3.908080  -20.971800
  C    -57.667900    3.605910  -20.599100
  H    -59.697900    4.183730  -20.175200
  C    -60.632200    4.141790  -22.912600
  H    -60.683500    4.318880  -24.009600
  H    -60.975900    5.062850  -22.384500
  C    -61.645600    2.984520  -22.629600
  H    -61.172200    2.088330  -22.890300
  H    -61.846900    2.877460  -21.570300
  C    -63.003400    3.165380  -23.406200
  H    -63.563600    3.952120  -22.902200
  H    -62.833800    3.344770  -24.412300
  H    -63.552600    2.238460  -23.362500
  S    -56.947200    2.038530  -18.356000
  C    -56.183800    2.806950  -17.056200
  C    -56.027200    4.148340  -17.302100
  C    -56.617800    4.633800  -18.487000
  C    -57.085900    3.563570  -19.239100
  H    -55.486700    4.765520  -16.626500
  C    -56.677100    6.045840  -18.823100
  H    -57.032200    6.674220  -17.998900
  H    -57.525200    6.198500  -19.541600
  C    -55.370400    6.747710  -19.200300
  H    -54.956200    6.133070  -20.007400
  H    -54.842600    6.622240  -18.352800
  C    -55.538500    8.260270  -19.632400
  H    -56.057000    8.434350  -20.577800
  H    -54.566100    8.737780  -19.832000
  H    -56.273800    8.770290  -18.984800
  H    -58.357100    2.969050  -24.022900
  H    -55.848200    2.288340  -16.154400

 Total Charge           Charge          ....    0
 Multiplicity           Mult            ....    1
 Number of Electrons    NEL             ....  134
 Basis Dimension        Dim             ....  322

ORBITAL ENERGIES
----------------

  NO   OCC          E(Eh)            E(eV)
   0   2.0000     -88.968407     -2420.9534
   1   2.0000     -88.964579     -2420.8493
   2   2.0000     -10.332878      -281.1719
   3   2.0000     -10.328653      -281.0569
   4   2.0000     -10.316256      -280.7196
   5   2.0000     -10.310720      -280.5690
   6   2.0000     -10.306142      -280.4444
   7   2.0000     -10.300850      -280.3004
   8   2.0000     -10.298856      -280.2461
   9   2.0000     -10.298436      -280.2347
  10   2.0000     -10.287673      -279.9418
  11   2.0000     -10.286928      -279.9215
  12   2.0000     -10.284871      -279.8656
  13   2.0000     -10.284268      -279.8492
  14   2.0000     -10.281791      -279.7818
  15   2.0000     -10.275681      -279.6155
  16   2.0000      -8.083918      -219.9746
  17   2.0000      -8.079504      -219.8545
  18   2.0000      -6.042267      -164.4184
  19   2.0000      -6.038264      -164.3095
  20   2.0000      -6.038155      -164.3065
  21   2.0000      -6.034840      -164.2163
  22   2.0000      -6.033705      -164.1855
  23   2.0000      -6.030344      -164.0940
  24   2.0000      -1.010121       -27.4868
  25   2.0000      -0.988072       -26.8868
  26   2.0000      -0.916261       -24.9327
  27   2.0000      -0.904622       -24.6160
  28   2.0000      -0.868250       -23.6263
  29   2.0000      -0.852575       -23.1998
  30   2.0000      -0.842318       -22.9206
  31   2.0000      -0.810428       -22.0529
  32   2.0000      -0.783518       -21.3206
  33   2.0000      -0.774420       -21.0730
  34   2.0000      -0.712825       -19.3970
  35   2.0000      -0.704705       -19.1760
  36   2.0000      -0.697270       -18.9737
  37   2.0000      -0.660738       -17.9796
  38   2.0000      -0.633775       -17.2459
  39   2.0000      -0.616616       -16.7790
  40   2.0000      -0.603595       -16.4246
  41   2.0000      -0.571294       -15.5457
  42   2.0000      -0.565405       -15.3855
  43   2.0000      -0.560850       -15.2615
  44   2.0000      -0.527818       -14.3627
  45   2.0000      -0.523595       -14.2478
  46   2.0000      -0.514658       -14.0046
  47   2.0000      -0.511998       -13.9322
  48   2.0000      -0.506751       -13.7894
  49   2.0000      -0.501135       -13.6366
  50   2.0000      -0.494511       -13.4563
  51   2.0000      -0.479308       -13.0426
  52   2.0000      -0.470424       -12.8009
  53   2.0000      -0.467411       -12.7189
  54   2.0000      -0.457668       -12.4538
  55   2.0000      -0.442785       -12.0488
  56   2.0000      -0.437882       -11.9154
  57   2.0000      -0.436675       -11.8825
  58   2.0000      -0.434586       -11.8257
  59   2.0000      -0.429796       -11.6954
  60   2.0000      -0.427136       -11.6230
  61   2.0000      -0.414100       -11.2682
  62   2.0000      -0.412471       -11.2239
  63   2.0000      -0.334155        -9.0928
  64   2.0000      -0.324669        -8.8347
  65   2.0000      -0.319439        -8.6924
  66   2.0000      -0.316630        -8.6159
  67   0.0000       0.036129         0.9831
  68   0.0000       0.054050         1.4708
  69   0.0000       0.108778         2.9600
  70   0.0000       0.123222         3.3530
  71   0.0000       0.132336         3.6011

MULLIKEN ATOMIC CHARGES
-----------------------
   0 S :    0.116219
   1 C :   -0.103529
   2 C :   -0.117746
   3 C :    0.029997
   4 C :   -0.179489
   5 H :    0.020814
   6 C :    0.017896
   7 H :    0.024723
   8 H :    0.038201
   9 C :   -0.061139
  10 H :    0.012534
  11 H :    0.026062
  12 C :   -0.025205
  13 H :    0.038210
  14 H :    0.019127
  15 H :    0.032666
  16 S :    0.132590
  17 C :   -0.091808
  18 C :   -0.030276
  19 C :    0.023827
  20 C :   -0.201876
  21 H :    0.002992
  22 C :    0.026418
  23 H :    0.016098
  24 H :    0.024134
  25 C :   -0.019725
  26 H :    0.034031
  27 H :    0.002282
  28 C :   -0.048168
  29 H :    0.025162
  30 H :    0.048437
  31 H :    0.027161
  32 H :    0.074112
  33 H :    0.065269
Sum of atomic charges:   -0.0000000

LOEWDIN ATOMIC CHARGES
----------------------
   0 S :    0.424095
   1 C :   -0.232503
   2 C :   -0.058491
   3 C :   -0.069080
   4 C :   -0.202410
   5 H :    0.032156
   6 C :   -0.037641
   7 H :    0.028290
   8 H :    0.036251
   9 C :   -0.033293
  10 H :    0.013316
  11 H :    0.021694
  12 C :   -0.053738
  13 H :    0.028399
  14 H :    0.013685
  15 H :    0.028218
  16 S :    0.432281
  17 C :   -0.200335
  18 C :   -0.071410
  19 C :   -0.049826
  20 C :   -0.206367
  21 H :    0.023348
  22 C :   -0.043741
  23 H :    0.031223
  24 H :    0.033348
  25 C :   -0.022572
  26 H :    0.027318
  27 H :    0.006737
  28 C :   -0.072822
  29 H :    0.028733
  30 H :    0.032977
  31 H :    0.027931
  32 H :    0.048653
  33 H :    0.035579

  Mayer bond orders larger than 0.100000
B(  0-S ,  1-C ) :   1.1340 B(  0-S ,  4-C ) :   1.1767 B(  1-C ,  2-C ) :   1.6193
B(  1-C , 32-H ) :   0.9504 B(  2-C ,  3-C ) :   1.2248 B(  2-C ,  6-C ) :   1.0356
B(  3-C ,  4-C ) :   1.5653 B(  3-C ,  5-H ) :   0.9913 B(  4-C , 20-C ) :   1.0056
B(  6-C ,  7-H ) :   0.9503 B(  6-C ,  8-H ) :   0.9375 B(  6-C ,  9-C ) :   1.0536
B(  9-C , 10-H ) :   0.9589 B(  9-C , 11-H ) :   0.9542 B(  9-C , 12-C ) :   1.0807
B( 12-C , 13-H ) :   0.9790 B( 12-C , 14-H ) :   0.9772 B( 12-C , 15-H ) :   0.9747
B( 16-S , 17-C ) :   1.1752 B( 16-S , 20-C ) :   1.1577 B( 17-C , 18-C ) :   1.5835
B( 17-C , 33-H ) :   0.9657 B( 18-C , 19-C ) :   1.2546 B( 18-C , 21-H ) :   0.9945
B( 19-C , 20-C ) :   1.5672 B( 19-C , 22-C ) :   1.0772 B( 22-C , 23-H ) :   0.9238
B( 22-C , 24-H ) :   0.9223 B( 22-C , 25-C ) :   1.0424 B( 25-C , 26-H ) :   0.9562
B( 25-C , 27-H ) :   0.9590 B( 25-C , 28-C ) :   1.0735 B( 28-C , 29-H ) :   0.9736
B( 28-C , 30-H ) :   0.9754 B( 28-C , 31-H ) :   0.9720

Dispersion correction           -0.014004138
FINAL SINGLE POINT ENERGY     -1339.854204323447

DIPOLE MOMENT
-------------
                                X             Y             Z
Electronic contribution:     13.89162     -16.25561       6.71159
Nuclear contribution   :    -14.29852      16.47544      -6.48181
                        -----------------------------------------
Total Dipole Moment    :     -0.40689       0.21983       0.22977
                        -----------------------------------------
Magnitude (a.u.)       :      0.51641
Magnitude (Debye)      :      1.31262

Rotational constants in cm-1:     0.018600     0.007629     0.006484
Rotational constants in MHz :   557.604495   228.720122   194.400415

                             ****ORCA TERMINATED NORMALLY****
TOTAL RUN TIME: 0 days 0 hours 0 minutes 21 seconds 69 msec
