                         Program Version 4.2.1 -  RELEASE  -
|  1> ! wB97X-D3 SP def2-SVP
|  2> %pal
|  3> nprocs 24
|  4> end
|  5>
|  6> * xyz 0 1
|  7> S 	 -34.9949 	 -10.2168 	 12.4407
|  8> C 	 -34.238 	 -9.36722 	 13.7818
|  9> C 	 -33.6905 	 -10.2421 	 14.6969
| 10> C 	 -34.3354 	 -11.5442 	 14.5851
| 11> C 	 -35.0532 	 -11.7254 	 13.4306
| 12> H 	 -34.2886 	 -12.307 	 15.4519
| 13> C 	 -32.9103 	 -9.81068 	 15.8586
| 14> H 	 -32.034 	 -9.3937 	 15.4203
| 15> H 	 -32.5826 	 -10.6957 	 16.3365
| 16> C 	 -33.4274 	 -8.68649 	 16.7355
| 17> H 	 -32.7433 	 -8.60236 	 17.5976
| 18> H 	 -33.3223 	 -7.72179 	 16.2633
| 19> C 	 -34.8306 	 -8.94401 	 17.2439
| 20> H 	 -34.8245 	 -9.95931 	 17.6955
| 21> H 	 -34.9351 	 -8.19281 	 17.986
| 22> H 	 -35.6515 	 -8.96141 	 16.4537
| 23> S 	 -34.9345 	 -14.4509 	 13.1685
| 24> C 	 -36.3352 	 -15.3328 	 12.4237
| 25> C 	 -37.4336 	 -14.5067 	 12.3532
| 26> C 	 -37.0487 	 -13.1477 	 12.6936
| 27> C 	 -35.771 	 -12.9207 	 13.0913
| 28> H 	 -38.41 	 -14.9711 	 12.0421
| 29> C 	 -38.0707 	 -11.9887 	 12.5548
| 30> H 	 -37.6292 	 -11.1252 	 12.9757
| 31> H 	 -38.8338 	 -12.3088 	 13.294
| 32> C 	 -38.5412 	 -11.9205 	 11.0316
| 33> H 	 -38.997 	 -12.8134 	 10.6133
| 34> H 	 -37.6819 	 -11.5269 	 10.4772
| 35> C 	 -39.6473 	 -10.8745 	 10.9009
| 36> H 	 -39.0291 	 -9.93126 	 11.1139
| 37> H 	 -40.4548 	 -11.0021 	 11.5892
| 38> H 	 -40.0888 	 -10.8644 	 9.91018
| 39> H 	 -33.9599 	 -8.31461 	 13.832
| 40> H 	 -36.339 	 -16.4014 	 12.2185
| 41> *
| 42>
| 43>                          ****END OF INPUT****

CARTESIAN COORDINATES (ANGSTROEM)
---------------------------------
  S    -34.994900  -10.216800   12.440700
  C    -34.238000   -9.367220   13.781800
  C    -33.690500  -10.242100   14.696900
  C    -34.335400  -11.544200   14.585100
  C    -35.053200  -11.725400   13.430600
  H    -34.288600  -12.307000   15.451900
  C    -32.910300   -9.810680   15.858600
  H    -32.034000   -9.393700   15.420300
  H    -32.582600  -10.695700   16.336500
  C    -33.427400   -8.686490   16.735500
  H    -32.743300   -8.602360   17.597600
  H    -33.322300   -7.721790   16.263300
  C    -34.830600   -8.944010   17.243900
  H    -34.824500   -9.959310   17.695500
  H    -34.935100   -8.192810   17.986000
  H    -35.651500   -8.961410   16.453700
  S    -34.934500  -14.450900   13.168500
  C    -36.335200  -15.332800   12.423700
  C    -37.433600  -14.506700   12.353200
  C    -37.048700  -13.147700   12.693600
  C    -35.771000  -12.920700   13.091300
  H    -38.410000  -14.971100   12.042100
  C    -38.070700  -11.988700   12.554800
  H    -37.629200  -11.125200   12.975700
  H    -38.833800  -12.308800   13.294000
  C    -38.541200  -11.920500   11.031600
  H    -38.997000  -12.813400   10.613300
  H    -37.681900  -11.526900   10.477200
  C    -39.647300  -10.874500   10.900900
  H    -39.029100   -9.931260   11.113900
  H    -40.454800  -11.002100   11.589200
  H    -40.088800  -10.864400    9.910180
  H    -33.959900   -8.314610   13.832000
  H    -36.339000  -16.401400   12.218500

 Total Charge           Charge          ....    0
 Multiplicity           Mult            ....    1
 Number of Electrons    NEL             ....  134
 Basis Dimension        Dim             ....  322

ORBITAL ENERGIES
----------------

  NO   OCC          E(Eh)            E(eV)
   0   2.0000     -88.969457     -2420.9820
   1   2.0000     -88.958222     -2420.6763
   2   2.0000     -10.332266      -281.1553
   3   2.0000     -10.322985      -280.9027
   4   2.0000     -10.319560      -280.8095
   5   2.0000     -10.313567      -280.6464
   6   2.0000     -10.303263      -280.3660
   7   2.0000     -10.302567      -280.3471
   8   2.0000     -10.301817      -280.3267
   9   2.0000     -10.298253      -280.2297
  10   2.0000     -10.289075      -279.9800
  11   2.0000     -10.288005      -279.9509
  12   2.0000     -10.287548      -279.9384
  13   2.0000     -10.279685      -279.7245
  14   2.0000     -10.278247      -279.6853
  15   2.0000     -10.273022      -279.5432
  16   2.0000      -8.082611      -219.9390
  17   2.0000      -8.072481      -219.6634
  18   2.0000      -6.041397      -164.3948
  19   2.0000      -6.037517      -164.2892
  20   2.0000      -6.032994      -164.1661
  21   2.0000      -6.031254      -164.1188
  22   2.0000      -6.027145      -164.0070
  23   2.0000      -6.022874      -163.8907
  24   2.0000      -1.003122       -27.2963
  25   2.0000      -0.980190       -26.6723
  26   2.0000      -0.921049       -25.0630
  27   2.0000      -0.898435       -24.4477
  28   2.0000      -0.873087       -23.7579
  29   2.0000      -0.849207       -23.1081
  30   2.0000      -0.841237       -22.8912
  31   2.0000      -0.816878       -22.2284
  32   2.0000      -0.782507       -21.2931
  33   2.0000      -0.761857       -20.7312
  34   2.0000      -0.707965       -19.2647
  35   2.0000      -0.701975       -19.1017
  36   2.0000      -0.692339       -18.8395
  37   2.0000      -0.659566       -17.9477
  38   2.0000      -0.627651       -17.0792
  39   2.0000      -0.607830       -16.5399
  40   2.0000      -0.586394       -15.9566
  41   2.0000      -0.575920       -15.6716
  42   2.0000      -0.561763       -15.2864
  43   2.0000      -0.560616       -15.2551
  44   2.0000      -0.548703       -14.9310
  45   2.0000      -0.529503       -14.4085
  46   2.0000      -0.516049       -14.0424
  47   2.0000      -0.510975       -13.9043
  48   2.0000      -0.506974       -13.7955
  49   2.0000      -0.501573       -13.6485
  50   2.0000      -0.492772       -13.4090
  51   2.0000      -0.469676       -12.7805
  52   2.0000      -0.465066       -12.6551
  53   2.0000      -0.460035       -12.5182
  54   2.0000      -0.458332       -12.4718
  55   2.0000      -0.442030       -12.0283
  56   2.0000      -0.441328       -12.0092
  57   2.0000      -0.439035       -11.9467
  58   2.0000      -0.428429       -11.6582
  59   2.0000      -0.421724       -11.4757
  60   2.0000      -0.419234       -11.4079
  61   2.0000      -0.415896       -11.3171
  62   2.0000      -0.397585       -10.8188
  63   2.0000      -0.349735        -9.5168
  64   2.0000      -0.328467        -8.9380
  65   2.0000      -0.320765        -8.7285
  66   2.0000      -0.292992        -7.9727
  67   0.0000       0.026716         0.7270
  68   0.0000       0.069528         1.8920
  69   0.0000       0.099983         2.7207
  70   0.0000       0.106878         2.9083
  71   0.0000       0.133219         3.6251

MULLIKEN ATOMIC CHARGES
-----------------------
   0 S :    0.110567
   1 C :   -0.126686
   2 C :   -0.120058
   3 C :   -0.026255
   4 C :   -0.140600
   5 H :    0.053360
   6 C :    0.111817
   7 H :    0.019014
   8 H :    0.006621
   9 C :   -0.077481
  10 H :    0.030258
  11 H :    0.020394
  12 C :   -0.044121
  13 H :    0.028493
  14 H :    0.030820
  15 H :    0.057597
  16 S :    0.080125
  17 C :   -0.107251
  18 C :   -0.031135
  19 C :   -0.080945
  20 C :   -0.120565
  21 H :    0.048004
  22 C :    0.071344
  23 H :    0.015744
  24 H :    0.033902
  25 C :   -0.078036
  26 H :    0.035339
  27 H :    0.041164
  28 C :   -0.050298
  29 H :    0.036544
  30 H :    0.026508
  31 H :    0.032747
  32 H :    0.050170
  33 H :    0.062900
Sum of atomic charges:   -0.0000000

LOEWDIN ATOMIC CHARGES
----------------------
   0 S :    0.380287
   1 C :   -0.193119
   2 C :   -0.061706
   3 C :   -0.068004
   4 C :   -0.178721
   5 H :    0.046119
   6 C :   -0.040314
   7 H :    0.037131
   8 H :    0.025553
   9 C :   -0.038841
  10 H :    0.031204
  11 H :    0.019493
  12 C :   -0.067284
  13 H :    0.028092
  14 H :    0.021587
  15 H :    0.035623
  16 S :    0.370267
  17 C :   -0.158073
  18 C :   -0.076221
  19 C :   -0.052620
  20 C :   -0.208525
  21 H :    0.046237
  22 C :   -0.026556
  23 H :    0.013974
  24 H :    0.034971
  25 C :   -0.034338
  26 H :    0.021756
  27 H :    0.029040
  28 C :   -0.069790
  29 H :    0.035021
  30 H :    0.016516
  31 H :    0.021218
  32 H :    0.029506
  33 H :    0.030517

  Mayer bond orders larger than 0.100000
B(  0-S ,  1-C ) :   1.1210 B(  0-S ,  4-C ) :   1.1026 B(  1-C ,  2-C ) :   1.6359
B(  1-C , 32-H ) :   0.9640 B(  2-C ,  3-C ) :   1.1978 B(  2-C ,  6-C ) :   1.0483
B(  3-C ,  4-C ) :   1.6133 B(  3-C ,  5-H ) :   0.9720 B(  4-C , 20-C ) :   1.0693
B(  6-C ,  7-H ) :   0.9103 B(  6-C ,  8-H ) :   0.9354 B(  6-C ,  9-C ) :   1.0887
B(  9-C , 10-H ) :   0.9494 B(  9-C , 11-H ) :   0.9463 B(  9-C , 12-C ) :   1.0790
B( 12-C , 13-H ) :   0.9757 B( 12-C , 14-H ) :   0.9745 B( 12-C , 15-H ) :   0.9695
B( 16-S , 17-C ) :   1.1395 B( 16-S , 20-C ) :   1.0960 B( 17-C , 18-C ) :   1.6438
B( 17-C , 33-H ) :   0.9656 B( 18-C , 19-C ) :   1.1884 B( 18-C , 21-H ) :   0.9840
B( 19-C , 20-C ) :   1.6360 B( 19-C , 22-C ) :   1.0360 B( 22-C , 23-H ) :   0.9358
B( 22-C , 24-H ) :   0.9356 B( 22-C , 25-C ) :   1.0470 B( 25-C , 26-H ) :   0.9613
B( 25-C , 27-H ) :   0.9596 B( 25-C , 28-C ) :   1.0782 B( 28-C , 29-H ) :   0.9785
B( 28-C , 30-H ) :   0.9772 B( 28-C , 31-H ) :   0.9757

Dispersion correction           -0.014728686
FINAL SINGLE POINT ENERGY     -1339.850241923927

DIPOLE MOMENT
-------------
                                X             Y             Z
Electronic contribution:      9.82434     -13.85612      -7.95073
Nuclear contribution   :     -9.98629      14.01496       8.31378
                        -----------------------------------------
Total Dipole Moment    :     -0.16195       0.15885       0.36304
                        -----------------------------------------
Magnitude (a.u.)       :      0.42809
Magnitude (Debye)      :      1.08811

Rotational constants in cm-1:     0.020096     0.008340     0.006766
Rotational constants in MHz :   602.466132   250.015185   202.842221

                             ****ORCA TERMINATED NORMALLY****
TOTAL RUN TIME: 0 days 0 hours 0 minutes 20 seconds 440 msec
