                         Program Version 4.2.1 -  RELEASE  -
|  1> ! wB97X-D3 SP def2-SVP
|  2> %pal
|  3> nprocs 24
|  4> end
|  5>
|  6> * xyz 0 1
|  7> S 	 -60.535 	 18.3771 	 20.1212
|  8> C 	 -60.9519 	 17.9749 	 21.7393
|  9> C 	 -59.8286 	 18.2077 	 22.5717
| 10> C 	 -58.6617 	 18.7495 	 21.8794
| 11> C 	 -58.9258 	 19.0151 	 20.5361
| 12> H 	 -57.6438 	 18.9738 	 22.3758
| 13> C 	 -59.821 	 17.8843 	 24.0466
| 14> H 	 -58.9097 	 17.4033 	 24.0893
| 15> H 	 -60.6425 	 17.2032 	 24.36
| 16> C 	 -59.8219 	 19.1571 	 24.9467
| 17> H 	 -59.0087 	 19.9248 	 24.6525
| 18> H 	 -60.7883 	 19.6711 	 24.7909
| 19> C 	 -59.7436 	 18.8392 	 26.4438
| 20> H 	 -58.8351 	 18.2977 	 26.6825
| 21> H 	 -59.6932 	 19.7853 	 26.9977
| 22> H 	 -60.5401 	 18.225 	 26.8561
| 23> S 	 -57.944 	 21.1534 	 19.1843
| 24> C 	 -56.9116 	 20.9915 	 17.7755
| 25> C 	 -56.6024 	 19.6766 	 17.5258
| 26> C 	 -57.2247 	 18.8192 	 18.5085
| 27> C 	 -57.9816 	 19.4806 	 19.4888
| 28> H 	 -56.0617 	 19.4037 	 16.681
| 29> C 	 -57.0749 	 17.2937 	 18.437
| 30> H 	 -57.1982 	 16.8819 	 17.4057
| 31> H 	 -57.9392 	 16.9078 	 18.8178
| 32> C 	 -55.8457 	 16.7555 	 19.3164
| 33> H 	 -55.5535 	 17.5787 	 20.0515
| 34> H 	 -54.9808 	 16.6421 	 18.5511
| 35> C 	 -56.0676 	 15.4057 	 20.0393
| 36> H 	 -57.0293 	 15.543 	 20.6202
| 37> H 	 -55.2507 	 15.0952 	 20.6871
| 38> H 	 -56.2844 	 14.6295 	 19.3349
| 39> H 	 -61.75 	 17.4575 	 22.2155
| 40> H 	 -56.7113 	 21.8303 	 17.1493
| 41> *
| 42>
| 43>                          ****END OF INPUT****

CARTESIAN COORDINATES (ANGSTROEM)
---------------------------------
  S    -60.535000   18.377100   20.121200
  C    -60.951900   17.974900   21.739300
  C    -59.828600   18.207700   22.571700
  C    -58.661700   18.749500   21.879400
  C    -58.925800   19.015100   20.536100
  H    -57.643800   18.973800   22.375800
  C    -59.821000   17.884300   24.046600
  H    -58.909700   17.403300   24.089300
  H    -60.642500   17.203200   24.360000
  C    -59.821900   19.157100   24.946700
  H    -59.008700   19.924800   24.652500
  H    -60.788300   19.671100   24.790900
  C    -59.743600   18.839200   26.443800
  H    -58.835100   18.297700   26.682500
  H    -59.693200   19.785300   26.997700
  H    -60.540100   18.225000   26.856100
  S    -57.944000   21.153400   19.184300
  C    -56.911600   20.991500   17.775500
  C    -56.602400   19.676600   17.525800
  C    -57.224700   18.819200   18.508500
  C    -57.981600   19.480600   19.488800
  H    -56.061700   19.403700   16.681000
  C    -57.074900   17.293700   18.437000
  H    -57.198200   16.881900   17.405700
  H    -57.939200   16.907800   18.817800
  C    -55.845700   16.755500   19.316400
  H    -55.553500   17.578700   20.051500
  H    -54.980800   16.642100   18.551100
  C    -56.067600   15.405700   20.039300
  H    -57.029300   15.543000   20.620200
  H    -55.250700   15.095200   20.687100
  H    -56.284400   14.629500   19.334900
  H    -61.750000   17.457500   22.215500
  H    -56.711300   21.830300   17.149300

 Total Charge           Charge          ....    0
 Multiplicity           Mult            ....    1
 Number of Electrons    NEL             ....  134
 Basis Dimension        Dim             ....  322

ORBITAL ENERGIES
----------------

  NO   OCC          E(Eh)            E(eV)
   0   2.0000     -88.969479     -2420.9826
   1   2.0000     -88.962740     -2420.7992
   2   2.0000     -10.337925      -281.3092
   3   2.0000     -10.325995      -280.9846
   4   2.0000     -10.316080      -280.7148
   5   2.0000     -10.314185      -280.6633
   6   2.0000     -10.309373      -280.5323
   7   2.0000     -10.308042      -280.4961
   8   2.0000     -10.304686      -280.4048
   9   2.0000     -10.299666      -280.2682
  10   2.0000     -10.295741      -280.1613
  11   2.0000     -10.292207      -280.0652
  12   2.0000     -10.289835      -280.0007
  13   2.0000     -10.286191      -279.9015
  14   2.0000     -10.279341      -279.7151
  15   2.0000     -10.277502      -279.6650
  16   2.0000      -8.083394      -219.9603
  17   2.0000      -8.078500      -219.8272
  18   2.0000      -6.042015      -164.4116
  19   2.0000      -6.037825      -164.2976
  20   2.0000      -6.036852      -164.2711
  21   2.0000      -6.034238      -164.2000
  22   2.0000      -6.032669      -164.1573
  23   2.0000      -6.029545      -164.0723
  24   2.0000      -1.005353       -27.3570
  25   2.0000      -0.983452       -26.7611
  26   2.0000      -0.908422       -24.7194
  27   2.0000      -0.894221       -24.3330
  28   2.0000      -0.870408       -23.6850
  29   2.0000      -0.846485       -23.0340
  30   2.0000      -0.842713       -22.9314
  31   2.0000      -0.819906       -22.3108
  32   2.0000      -0.778032       -21.1713
  33   2.0000      -0.766231       -20.8502
  34   2.0000      -0.703217       -19.1355
  35   2.0000      -0.696048       -18.9404
  36   2.0000      -0.689817       -18.7709
  37   2.0000      -0.665122       -18.0989
  38   2.0000      -0.635346       -17.2886
  39   2.0000      -0.618292       -16.8246
  40   2.0000      -0.595218       -16.1967
  41   2.0000      -0.571099       -15.5404
  42   2.0000      -0.559250       -15.2180
  43   2.0000      -0.547970       -14.9110
  44   2.0000      -0.525520       -14.3001
  45   2.0000      -0.522948       -14.2301
  46   2.0000      -0.520932       -14.1753
  47   2.0000      -0.506627       -13.7860
  48   2.0000      -0.506232       -13.7753
  49   2.0000      -0.502339       -13.6693
  50   2.0000      -0.495207       -13.4753
  51   2.0000      -0.479585       -13.0502
  52   2.0000      -0.464151       -12.6302
  53   2.0000      -0.463328       -12.6078
  54   2.0000      -0.460737       -12.5373
  55   2.0000      -0.446600       -12.1526
  56   2.0000      -0.439102       -11.9486
  57   2.0000      -0.435254       -11.8439
  58   2.0000      -0.431096       -11.7307
  59   2.0000      -0.424968       -11.5640
  60   2.0000      -0.420829       -11.4513
  61   2.0000      -0.409525       -11.1437
  62   2.0000      -0.405210       -11.0263
  63   2.0000      -0.337221        -9.1763
  64   2.0000      -0.335274        -9.1233
  65   2.0000      -0.313482        -8.5303
  66   2.0000      -0.311167        -8.4673
  67   0.0000       0.044874         1.2211
  68   0.0000       0.050419         1.3720
  69   0.0000       0.110552         3.0083
  70   0.0000       0.124956         3.4002
  71   0.0000       0.132398         3.6027

MULLIKEN ATOMIC CHARGES
-----------------------
   0 S :    0.127346
   1 C :   -0.072480
   2 C :   -0.156618
   3 C :    0.028491
   4 C :   -0.156021
   5 H :    0.054703
   6 C :    0.092989
   7 H :    0.011759
   8 H :    0.026399
   9 C :   -0.116091
  10 H :    0.046707
  11 H :    0.033365
  12 C :   -0.036055
  13 H :    0.021124
  14 H :    0.037884
  15 H :    0.030850
  16 S :    0.110411
  17 C :   -0.093599
  18 C :    0.012265
  19 C :   -0.078850
  20 C :   -0.171689
  21 H :   -0.000244
  22 C :    0.120082
  23 H :    0.030048
  24 H :   -0.026902
  25 C :   -0.118047
  26 H :    0.052602
  27 H :    0.039795
  28 C :   -0.055463
  29 H :    0.041876
  30 H :    0.045929
  31 H :    0.028803
  32 H :    0.034517
  33 H :    0.054115
Sum of atomic charges:    0.0000000

LOEWDIN ATOMIC CHARGES
----------------------
   0 S :    0.417136
   1 C :   -0.215295
   2 C :   -0.060786
   3 C :   -0.067360
   4 C :   -0.195763
   5 H :    0.049813
   6 C :   -0.032306
   7 H :    0.021377
   8 H :    0.033287
   9 C :   -0.045101
  10 H :    0.034129
  11 H :    0.026074
  12 C :   -0.071103
  13 H :    0.021298
  14 H :    0.030378
  15 H :    0.023860
  16 S :    0.433086
  17 C :   -0.174569
  18 C :   -0.062137
  19 C :   -0.047265
  20 C :   -0.230589
  21 H :    0.024710
  22 C :   -0.035877
  23 H :    0.036522
  24 H :    0.008503
  25 C :   -0.045354
  26 H :    0.031530
  27 H :    0.027651
  28 C :   -0.071482
  29 H :    0.033021
  30 H :    0.027987
  31 H :    0.021081
  32 H :    0.029959
  33 H :    0.023584

  Mayer bond orders larger than 0.100000
B(  0-S ,  1-C ) :   1.1376 B(  0-S ,  4-C ) :   1.1508 B(  1-C ,  2-C ) :   1.6007
B(  1-C , 32-H ) :   0.9686 B(  2-C ,  3-C ) :   1.2437 B(  2-C ,  6-C ) :   1.0281
B(  3-C ,  4-C ) :   1.5853 B(  3-C ,  5-H ) :   0.9727 B(  4-C , 20-C ) :   0.9967
B(  6-C ,  7-H ) :   0.9304 B(  6-C ,  8-H ) :   0.9454 B(  6-C ,  9-C ) :   1.0568
B(  9-C , 10-H ) :   0.9569 B(  9-C , 11-H ) :   0.9555 B(  9-C , 12-C ) :   1.0819
B( 12-C , 13-H ) :   0.9743 B( 12-C , 14-H ) :   0.9733 B( 12-C , 15-H ) :   0.9739
B( 16-S , 17-C ) :   1.1789 B( 16-S , 20-C ) :   1.1668 B( 17-C , 18-C ) :   1.5730
B( 17-C , 33-H ) :   0.9722 B( 18-C , 19-C ) :   1.2523 B( 18-C , 21-H ) :   1.0096
B( 19-C , 20-C ) :   1.5800 B( 19-C , 22-C ) :   1.0497 B( 22-C , 23-H ) :   0.9383
B( 22-C , 24-H ) :   0.9239 B( 22-C , 25-C ) :   1.0196 B( 25-C , 26-H ) :   0.9638
B( 25-C , 27-H ) :   0.9579 B( 25-C , 28-C ) :   1.0736 B( 28-C , 29-H ) :   0.9746
B( 28-C , 30-H ) :   0.9753 B( 28-C , 31-H ) :   0.9755

Dispersion correction           -0.014414977
FINAL SINGLE POINT ENERGY     -1339.864192649549

DIPOLE MOMENT
-------------
                                X             Y             Z
Electronic contribution:     -7.29935      14.60337     -18.71743
Nuclear contribution   :      7.49411     -14.97064      18.94863
                        -----------------------------------------
Total Dipole Moment    :      0.19476      -0.36727       0.23120
                        -----------------------------------------
Magnitude (a.u.)       :      0.47568
Magnitude (Debye)      :      1.20909

Rotational constants in cm-1:     0.018803     0.007879     0.006876
Rotational constants in MHz :   563.711160   236.204627   206.149726

                             ****ORCA TERMINATED NORMALLY****
TOTAL RUN TIME: 0 days 0 hours 0 minutes 21 seconds 214 msec
