                         Program Version 4.2.1 -  RELEASE  -
|  1> ! wB97X-D3 SP def2-SVP
|  2> %pal
|  3> nprocs 24
|  4> end
|  5>
|  6> * xyz 0 1
|  7> S 	 -76.5821 	 0.816493 	 -59.3573
|  8> C 	 -77.8905 	 1.68741 	 -58.5037
|  9> C 	 -79.1288 	 1.01664 	 -58.6834
| 10> C 	 -78.8808 	 -0.265857 	 -59.2803
| 11> C 	 -77.6026 	 -0.524551 	 -59.7809
| 12> H 	 -79.6579 	 -0.992817 	 -59.4966
| 13> C 	 -80.4507 	 1.43858 	 -58.1762
| 14> H 	 -81.0999 	 1.77802 	 -58.9928
| 15> H 	 -80.1766 	 2.40599 	 -57.6677
| 16> C 	 -81.2461 	 0.451777 	 -57.2228
| 17> H 	 -81.6127 	 -0.373894 	 -57.8286
| 18> H 	 -80.5009 	 -0.0306168 	 -56.6364
| 19> C 	 -82.2384 	 1.12763 	 -56.2635
| 20> H 	 -82.9047 	 1.73604 	 -56.7956
| 21> H 	 -82.8182 	 0.494375 	 -55.6461
| 22> H 	 -81.6085 	 1.89143 	 -55.7056
| 23> S 	 -76.2272 	 -1.74396 	 -61.8365
| 24> C 	 -76.0922 	 -3.46768 	 -61.8
| 25> C 	 -76.7722 	 -4.04293 	 -60.7683
| 26> C 	 -77.2568 	 -3.01929 	 -59.8814
| 27> C 	 -77.0908 	 -1.73821 	 -60.3171
| 28> H 	 -76.8066 	 -5.10347 	 -60.7037
| 29> C 	 -78.1239 	 -3.44636 	 -58.7582
| 30> H 	 -78.6037 	 -4.37381 	 -59.0738
| 31> H 	 -78.8434 	 -2.72116 	 -58.5351
| 32> C 	 -77.3541 	 -3.90475 	 -57.4443
| 33> H 	 -76.6701 	 -3.09328 	 -57.2205
| 34> H 	 -76.7652 	 -4.7854 	 -57.707
| 35> C 	 -78.2541 	 -4.31693 	 -56.2802
| 36> H 	 -78.9415 	 -3.53735 	 -56.0989
| 37> H 	 -77.6747 	 -4.42564 	 -55.3367
| 38> H 	 -78.9291 	 -5.18164 	 -56.5128
| 39> H 	 -77.7911 	 2.75743 	 -58.1643
| 40> H 	 -75.5851 	 -4.03827 	 -62.592
| 41> *
| 42>
| 43>                          ****END OF INPUT****

CARTESIAN COORDINATES (ANGSTROEM)
---------------------------------
  S    -76.582100    0.816493  -59.357300
  C    -77.890500    1.687410  -58.503700
  C    -79.128800    1.016640  -58.683400
  C    -78.880800   -0.265857  -59.280300
  C    -77.602600   -0.524551  -59.780900
  H    -79.657900   -0.992817  -59.496600
  C    -80.450700    1.438580  -58.176200
  H    -81.099900    1.778020  -58.992800
  H    -80.176600    2.405990  -57.667700
  C    -81.246100    0.451777  -57.222800
  H    -81.612700   -0.373894  -57.828600
  H    -80.500900   -0.030617  -56.636400
  C    -82.238400    1.127630  -56.263500
  H    -82.904700    1.736040  -56.795600
  H    -82.818200    0.494375  -55.646100
  H    -81.608500    1.891430  -55.705600
  S    -76.227200   -1.743960  -61.836500
  C    -76.092200   -3.467680  -61.800000
  C    -76.772200   -4.042930  -60.768300
  C    -77.256800   -3.019290  -59.881400
  C    -77.090800   -1.738210  -60.317100
  H    -76.806600   -5.103470  -60.703700
  C    -78.123900   -3.446360  -58.758200
  H    -78.603700   -4.373810  -59.073800
  H    -78.843400   -2.721160  -58.535100
  C    -77.354100   -3.904750  -57.444300
  H    -76.670100   -3.093280  -57.220500
  H    -76.765200   -4.785400  -57.707000
  C    -78.254100   -4.316930  -56.280200
  H    -78.941500   -3.537350  -56.098900
  H    -77.674700   -4.425640  -55.336700
  H    -78.929100   -5.181640  -56.512800
  H    -77.791100    2.757430  -58.164300
  H    -75.585100   -4.038270  -62.592000

 Total Charge           Charge          ....    0
 Multiplicity           Mult            ....    1
 Number of Electrons    NEL             ....  134
 Basis Dimension        Dim             ....  322

ORBITAL ENERGIES
----------------

  NO   OCC          E(Eh)            E(eV)
   0   2.0000     -88.966344     -2420.8973
   1   2.0000     -88.963698     -2420.8253
   2   2.0000     -10.328530      -281.0536
   3   2.0000     -10.326128      -280.9882
   4   2.0000     -10.321496      -280.8622
   5   2.0000     -10.316962      -280.7388
   6   2.0000     -10.308422      -280.5064
   7   2.0000     -10.299882      -280.2740
   8   2.0000     -10.299382      -280.2604
   9   2.0000     -10.294985      -280.1408
  10   2.0000     -10.291456      -280.0448
  11   2.0000     -10.291250      -280.0392
  12   2.0000     -10.283987      -279.8415
  13   2.0000     -10.281713      -279.7796
  14   2.0000     -10.281267      -279.7675
  15   2.0000     -10.278193      -279.6839
  16   2.0000      -8.080650      -219.8857
  17   2.0000      -8.079275      -219.8483
  18   2.0000      -6.039219      -164.3355
  19   2.0000      -6.037766      -164.2960
  20   2.0000      -6.035066      -164.2225
  21   2.0000      -6.033721      -164.1859
  22   2.0000      -6.031505      -164.1256
  23   2.0000      -6.029944      -164.0831
  24   2.0000      -1.011351       -27.5203
  25   2.0000      -0.983585       -26.7647
  26   2.0000      -0.912096       -24.8194
  27   2.0000      -0.906014       -24.6539
  28   2.0000      -0.874249       -23.7895
  29   2.0000      -0.853042       -23.2125
  30   2.0000      -0.847375       -23.0582
  31   2.0000      -0.814606       -22.1666
  32   2.0000      -0.784142       -21.3376
  33   2.0000      -0.770434       -20.9646
  34   2.0000      -0.717749       -19.5309
  35   2.0000      -0.699854       -19.0440
  36   2.0000      -0.693190       -18.8627
  37   2.0000      -0.665788       -18.1170
  38   2.0000      -0.639517       -17.4021
  39   2.0000      -0.620999       -16.8982
  40   2.0000      -0.595160       -16.1951
  41   2.0000      -0.572949       -15.5907
  42   2.0000      -0.566364       -15.4115
  43   2.0000      -0.557931       -15.1821
  44   2.0000      -0.535678       -14.5765
  45   2.0000      -0.522072       -14.2063
  46   2.0000      -0.517596       -14.0845
  47   2.0000      -0.505696       -13.7607
  48   2.0000      -0.502808       -13.6821
  49   2.0000      -0.501378       -13.6432
  50   2.0000      -0.493229       -13.4214
  51   2.0000      -0.488937       -13.3046
  52   2.0000      -0.471954       -12.8425
  53   2.0000      -0.467457       -12.7202
  54   2.0000      -0.458499       -12.4764
  55   2.0000      -0.449991       -12.2449
  56   2.0000      -0.446857       -12.1596
  57   2.0000      -0.433591       -11.7986
  58   2.0000      -0.427567       -11.6347
  59   2.0000      -0.425297       -11.5729
  60   2.0000      -0.422170       -11.4878
  61   2.0000      -0.418362       -11.3842
  62   2.0000      -0.416927       -11.3452
  63   2.0000      -0.346403        -9.4261
  64   2.0000      -0.330017        -8.9802
  65   2.0000      -0.328510        -8.9392
  66   2.0000      -0.294322        -8.0089
  67   0.0000       0.028859         0.7853
  68   0.0000       0.069770         1.8985
  69   0.0000       0.107949         2.9374
  70   0.0000       0.120052         3.2668
  71   0.0000       0.122061         3.3214

MULLIKEN ATOMIC CHARGES
-----------------------
   0 S :    0.107793
   1 C :   -0.147263
   2 C :   -0.097289
   3 C :   -0.003108
   4 C :   -0.142306
   5 H :    0.024641
   6 C :    0.042039
   7 H :    0.046893
   8 H :    0.013632
   9 C :   -0.068303
  10 H :    0.031135
  11 H :    0.024449
  12 C :   -0.013160
  13 H :    0.013711
  14 H :    0.037631
  15 H :    0.034629
  16 S :    0.107505
  17 C :   -0.096629
  18 C :   -0.022250
  19 C :   -0.027114
  20 C :   -0.138909
  21 H :    0.014628
  22 C :    0.077119
  23 H :    0.015417
  24 H :   -0.008621
  25 C :   -0.089394
  26 H :    0.036509
  27 H :    0.023825
  28 C :   -0.028281
  29 H :    0.010818
  30 H :    0.047475
  31 H :    0.032842
  32 H :    0.076665
  33 H :    0.063270
Sum of atomic charges:    0.0000000

LOEWDIN ATOMIC CHARGES
----------------------
   0 S :    0.403094
   1 C :   -0.200756
   2 C :   -0.063622
   3 C :   -0.066242
   4 C :   -0.200342
   5 H :    0.028006
   6 C :   -0.039509
   7 H :    0.035868
   8 H :    0.034265
   9 C :   -0.037375
  10 H :    0.021698
  11 H :    0.020483
  12 C :   -0.055822
  13 H :    0.016391
  14 H :    0.023692
  15 H :    0.036897
  16 S :    0.408940
  17 C :   -0.181813
  18 C :   -0.067615
  19 C :   -0.048639
  20 C :   -0.209496
  21 H :    0.030722
  22 C :   -0.026424
  23 H :    0.030524
  24 H :    0.014285
  25 C :   -0.035060
  26 H :    0.024037
  27 H :    0.020277
  28 C :   -0.070488
  29 H :    0.015969
  30 H :    0.034885
  31 H :    0.030536
  32 H :    0.039464
  33 H :    0.033170

  Mayer bond orders larger than 0.100000
B(  0-S ,  1-C ) :   1.1479 B(  0-S ,  4-C ) :   1.1527 B(  1-C ,  2-C ) :   1.5798
B(  1-C ,  4-C ) :   0.1115 B(  1-C , 32-H ) :   0.9527 B(  2-C ,  3-C ) :   1.2498
B(  2-C ,  6-C ) :   1.0477 B(  3-C ,  4-C ) :   1.5733 B(  3-C ,  5-H ) :   0.9837
B(  4-C , 20-C ) :   1.0455 B(  6-C ,  7-H ) :   0.9266 B(  6-C ,  8-H ) :   0.9393
B(  6-C ,  9-C ) :   1.0416 B(  9-C , 10-H ) :   0.9506 B(  9-C , 11-H ) :   0.9634
B(  9-C , 12-C ) :   1.0766 B( 12-C , 13-H ) :   0.9771 B( 12-C , 14-H ) :   0.9757
B( 12-C , 15-H ) :   0.9740 B( 16-S , 17-C ) :   1.1628 B( 16-S , 20-C ) :   1.1160
B( 17-C , 18-C ) :   1.6261 B( 17-C , 33-H ) :   0.9618 B( 18-C , 19-C ) :   1.2112
B( 18-C , 21-H ) :   0.9979 B( 19-C , 20-C ) :   1.6128 B( 19-C , 22-C ) :   1.0639
B( 22-C , 23-H ) :   0.9321 B( 22-C , 24-H ) :   0.9340 B( 22-C , 25-C ) :   1.0490
B( 25-C , 26-H ) :   0.9589 B( 25-C , 27-H ) :   0.9586 B( 25-C , 28-C ) :   1.0845
B( 28-C , 29-H ) :   0.9726 B( 28-C , 30-H ) :   0.9723 B( 28-C , 31-H ) :   0.9712

Dispersion correction           -0.014016782
FINAL SINGLE POINT ENERGY     -1339.873196308240

DIPOLE MOMENT
-------------
                                X             Y             Z
Electronic contribution:     21.21014       6.37066     -22.93084
Nuclear contribution   :    -21.82667      -6.65328      23.20946
                        -----------------------------------------
Total Dipole Moment    :     -0.61653      -0.28262       0.27862
                        -----------------------------------------
Magnitude (a.u.)       :      0.73322
Magnitude (Debye)      :      1.86368

Rotational constants in cm-1:     0.017395     0.008969     0.006720
Rotational constants in MHz :   521.487625   268.874789   201.448891

                             ****ORCA TERMINATED NORMALLY****
TOTAL RUN TIME: 0 days 0 hours 0 minutes 21 seconds 549 msec
