                         Program Version 4.2.1 -  RELEASE  -
|  1> ! wB97X-D3 SP def2-SVP
|  2> %pal
|  3> nprocs 24
|  4> end
|  5>
|  6> * xyz 0 1
|  7> S 	 -97.3827 	 48.2232 	 -93.7442
|  8> C 	 -98.1044 	 46.6951 	 -93.2412
|  9> C 	 -98.4724 	 45.918 	 -94.3102
| 10> C 	 -98.2327 	 46.5762 	 -95.4993
| 11> C 	 -97.5292 	 47.8275 	 -95.4618
| 12> H 	 -98.4559 	 46.0031 	 -96.4118
| 13> C 	 -99.2429 	 44.5749 	 -94.1697
| 14> H 	 -99.8272 	 44.3478 	 -95.0939
| 15> H 	 -99.8979 	 44.6835 	 -93.2963
| 16> C 	 -98.2586 	 43.3976 	 -93.9395
| 17> H 	 -97.5779 	 43.303 	 -94.7897
| 18> H 	 -97.4598 	 43.7023 	 -93.2449
| 19> C 	 -98.8716 	 42.0392 	 -93.6623
| 20> H 	 -99.6643 	 41.7587 	 -94.419
| 21> H 	 -98.0923 	 41.1913 	 -93.7305
| 22> H 	 -99.3409 	 42.0036 	 -92.6832
| 23> S 	 -96.6464 	 50.3263 	 -96.148
| 24> C 	 -96.3986 	 50.6522 	 -97.884
| 25> C 	 -96.3488 	 49.4858 	 -98.6737
| 26> C 	 -96.7153 	 48.3286 	 -97.8893
| 27> C 	 -97.0813 	 48.662 	 -96.5537
| 28> H 	 -96.2432 	 49.3271 	 -99.7369
| 29> C 	 -96.3792 	 46.9189 	 -98.5319
| 30> H 	 -96.5747 	 46.2052 	 -97.7846
| 31> H 	 -95.3103 	 46.9164 	 -98.6883
| 32> C 	 -97.2159 	 46.5845 	 -99.8431
| 33> H 	 -96.9296 	 47.1681 	 -100.736
| 34> H 	 -98.2286 	 46.9026 	 -99.6515
| 35> C 	 -97.3837 	 45.1631 	 -100.212
| 36> H 	 -97.9467 	 45.0569 	 -101.153
| 37> H 	 -98.0737 	 44.7177 	 -99.4372
| 38> H 	 -96.4221 	 44.7164 	 -100.091
| 39> H 	 -98.4423 	 46.5512 	 -92.2114
| 40> H 	 -96.169 	 51.6764 	 -98.2158
| 41> *
| 42>
| 43>                          ****END OF INPUT****

CARTESIAN COORDINATES (ANGSTROEM)
---------------------------------
  S    -97.382700   48.223200  -93.744200
  C    -98.104400   46.695100  -93.241200
  C    -98.472400   45.918000  -94.310200
  C    -98.232700   46.576200  -95.499300
  C    -97.529200   47.827500  -95.461800
  H    -98.455900   46.003100  -96.411800
  C    -99.242900   44.574900  -94.169700
  H    -99.827200   44.347800  -95.093900
  H    -99.897900   44.683500  -93.296300
  C    -98.258600   43.397600  -93.939500
  H    -97.577900   43.303000  -94.789700
  H    -97.459800   43.702300  -93.244900
  C    -98.871600   42.039200  -93.662300
  H    -99.664300   41.758700  -94.419000
  H    -98.092300   41.191300  -93.730500
  H    -99.340900   42.003600  -92.683200
  S    -96.646400   50.326300  -96.148000
  C    -96.398600   50.652200  -97.884000
  C    -96.348800   49.485800  -98.673700
  C    -96.715300   48.328600  -97.889300
  C    -97.081300   48.662000  -96.553700
  H    -96.243200   49.327100  -99.736900
  C    -96.379200   46.918900  -98.531900
  H    -96.574700   46.205200  -97.784600
  H    -95.310300   46.916400  -98.688300
  C    -97.215900   46.584500  -99.843100
  H    -96.929600   47.168100  -100.736000
  H    -98.228600   46.902600  -99.651500
  C    -97.383700   45.163100  -100.212000
  H    -97.946700   45.056900  -101.153000
  H    -98.073700   44.717700  -99.437200
  H    -96.422100   44.716400  -100.091000
  H    -98.442300   46.551200  -92.211400
  H    -96.169000   51.676400  -98.215800

 Total Charge           Charge          ....    0
 Multiplicity           Mult            ....    1
 Number of Electrons    NEL             ....  134
 Basis Dimension        Dim             ....  322

ORBITAL ENERGIES
----------------

  NO   OCC          E(Eh)            E(eV)
   0   2.0000     -88.970885     -2421.0209
   1   2.0000     -88.968916     -2420.9673
   2   2.0000     -10.338142      -281.3152
   3   2.0000     -10.336466      -281.2695
   4   2.0000     -10.330452      -281.1059
   5   2.0000     -10.314112      -280.6612
   6   2.0000     -10.312942      -280.6294
   7   2.0000     -10.303465      -280.3715
   8   2.0000     -10.302119      -280.3349
   9   2.0000     -10.300222      -280.2833
  10   2.0000     -10.298398      -280.2336
  11   2.0000     -10.294512      -280.1279
  12   2.0000     -10.289609      -279.9945
  13   2.0000     -10.287395      -279.9343
  14   2.0000     -10.287147      -279.9275
  15   2.0000     -10.280837      -279.7558
  16   2.0000      -8.084978      -220.0034
  17   2.0000      -8.082904      -219.9470
  18   2.0000      -6.043528      -164.4528
  19   2.0000      -6.041469      -164.3967
  20   2.0000      -6.039906      -164.3542
  21   2.0000      -6.037455      -164.2875
  22   2.0000      -6.035410      -164.2319
  23   2.0000      -6.033735      -164.1863
  24   2.0000      -1.001718       -27.2581
  25   2.0000      -0.978861       -26.6361
  26   2.0000      -0.909823       -24.7575
  27   2.0000      -0.906488       -24.6668
  28   2.0000      -0.868431       -23.6312
  29   2.0000      -0.855826       -23.2882
  30   2.0000      -0.845045       -22.9948
  31   2.0000      -0.807628       -21.9767
  32   2.0000      -0.783345       -21.3159
  33   2.0000      -0.769532       -20.9400
  34   2.0000      -0.702782       -19.1237
  35   2.0000      -0.698795       -19.0152
  36   2.0000      -0.695962       -18.9381
  37   2.0000      -0.665412       -18.1068
  38   2.0000      -0.632845       -17.2206
  39   2.0000      -0.621910       -16.9230
  40   2.0000      -0.594910       -16.1883
  41   2.0000      -0.568050       -15.4574
  42   2.0000      -0.565248       -15.3812
  43   2.0000      -0.550643       -14.9838
  44   2.0000      -0.544914       -14.8279
  45   2.0000      -0.521850       -14.2003
  46   2.0000      -0.518098       -14.0982
  47   2.0000      -0.503306       -13.6956
  48   2.0000      -0.499467       -13.5912
  49   2.0000      -0.496080       -13.4990
  50   2.0000      -0.494267       -13.4497
  51   2.0000      -0.483542       -13.1579
  52   2.0000      -0.470703       -12.8085
  53   2.0000      -0.468388       -12.7455
  54   2.0000      -0.464296       -12.6341
  55   2.0000      -0.453084       -12.3290
  56   2.0000      -0.439595       -11.9620
  57   2.0000      -0.438512       -11.9325
  58   2.0000      -0.429982       -11.7004
  59   2.0000      -0.424773       -11.5587
  60   2.0000      -0.421381       -11.4664
  61   2.0000      -0.411655       -11.2017
  62   2.0000      -0.409449       -11.1417
  63   2.0000      -0.358293        -9.7496
  64   2.0000      -0.338589        -9.2135
  65   2.0000      -0.330585        -8.9957
  66   2.0000      -0.274658        -7.4738
  67   0.0000       0.008524         0.2320
  68   0.0000       0.073248         1.9932
  69   0.0000       0.089039         2.4229
  70   0.0000       0.110880         3.0172
  71   0.0000       0.131253         3.5716

MULLIKEN ATOMIC CHARGES
-----------------------
   0 S :    0.096088
   1 C :   -0.137826
   2 C :   -0.091417
   3 C :    0.010837
   4 C :   -0.126865
   5 H :    0.004181
   6 C :    0.068480
   7 H :    0.034859
   8 H :    0.033385
   9 C :   -0.086494
  10 H :    0.013847
  11 H :    0.026089
  12 C :   -0.057779
  13 H :    0.036024
  14 H :    0.047213
  15 H :    0.036283
  16 S :    0.093298
  17 C :   -0.092210
  18 C :    0.000244
  19 C :   -0.095036
  20 C :   -0.123188
  21 H :    0.026571
  22 C :    0.091976
  23 H :   -0.003066
  24 H :    0.047741
  25 C :   -0.107464
  26 H :    0.032790
  27 H :    0.023418
  28 C :   -0.036575
  29 H :    0.046865
  30 H :    0.026347
  31 H :    0.032687
  32 H :    0.057962
  33 H :    0.070735
Sum of atomic charges:    0.0000000

LOEWDIN ATOMIC CHARGES
----------------------
   0 S :    0.395020
   1 C :   -0.196105
   2 C :   -0.069915
   3 C :   -0.074839
   4 C :   -0.188838
   5 H :    0.027461
   6 C :   -0.020795
   7 H :    0.033688
   8 H :    0.031142
   9 C :   -0.058472
  10 H :    0.023929
  11 H :    0.027212
  12 C :   -0.074817
  13 H :    0.029961
  14 H :    0.037582
  15 H :    0.022346
  16 S :    0.384997
  17 C :   -0.168779
  18 C :   -0.064113
  19 C :   -0.046844
  20 C :   -0.193480
  21 H :    0.033984
  22 C :   -0.016552
  23 H :    0.018627
  24 H :    0.034590
  25 C :   -0.051572
  26 H :    0.021413
  27 H :    0.023659
  28 C :   -0.065183
  29 H :    0.034676
  30 H :    0.028588
  31 H :    0.021174
  32 H :    0.030083
  33 H :    0.030174

  Mayer bond orders larger than 0.100000
B(  0-S ,  1-C ) :   1.1507 B(  0-S ,  4-C ) :   1.1540 B(  1-C ,  2-C ) :   1.5626
B(  1-C ,  4-C ) :   0.1130 B(  1-C , 32-H ) :   0.9624 B(  2-C ,  3-C ) :   1.3535
B(  2-C ,  6-C ) :   1.0061 B(  3-C ,  4-C ) :   1.4827 B(  3-C ,  5-H ) :   0.9771
B(  4-C , 20-C ) :   1.1237 B(  6-C ,  7-H ) :   0.9453 B(  6-C ,  8-H ) :   0.9469
B(  6-C ,  9-C ) :   1.0523 B(  9-C , 10-H ) :   0.9504 B(  9-C , 11-H ) :   0.9542
B(  9-C , 12-C ) :   1.0785 B( 12-C , 13-H ) :   0.9715 B( 12-C , 14-H ) :   0.9731
B( 12-C , 15-H ) :   0.9754 B( 16-S , 17-C ) :   1.1479 B( 16-S , 20-C ) :   1.1264
B( 17-C , 18-C ) :   1.5842 B( 17-C , 33-H ) :   0.9680 B( 18-C , 19-C ) :   1.2512
B( 18-C , 21-H ) :   0.9866 B( 19-C , 20-C ) :   1.5722 B( 19-C , 22-C ) :   1.0307
B( 22-C , 23-H ) :   0.9364 B( 22-C , 24-H ) :   0.9419 B( 22-C , 25-C ) :   1.0375
B( 25-C , 26-H ) :   0.9537 B( 25-C , 27-H ) :   0.9613 B( 25-C , 28-C ) :   1.0993
B( 28-C , 29-H ) :   0.9694 B( 28-C , 30-H ) :   0.9751 B( 28-C , 31-H ) :   0.9733

Dispersion correction           -0.013413680
FINAL SINGLE POINT ENERGY     -1339.856302062532

DIPOLE MOMENT
-------------
                                X             Y             Z
Electronic contribution:      5.97050      31.11993      11.06135
Nuclear contribution   :     -6.04695     -31.66730     -11.50489
                        -----------------------------------------
Total Dipole Moment    :     -0.07645      -0.54738      -0.44355
                        -----------------------------------------
Magnitude (a.u.)       :      0.70866
Magnitude (Debye)      :      1.80127

Rotational constants in cm-1:     0.016748     0.008694     0.005884
Rotational constants in MHz :   502.092947   260.640999   176.387939

                             ****ORCA TERMINATED NORMALLY****
TOTAL RUN TIME: 0 days 0 hours 0 minutes 20 seconds 892 msec
