                         Program Version 4.2.1 -  RELEASE  -
|  1> ! wB97X-D3 SP def2-SVP
|  2> %pal
|  3> nprocs 24
|  4> end
|  5>
|  6> * xyz 0 1
|  7> S 	 -71.4779 	 17.8113 	 -77.0434
|  8> C 	 -71.5963 	 18.9226 	 -75.7135
|  9> C 	 -70.3807 	 19.4892 	 -75.3511
| 10> C 	 -69.3778 	 19.2046 	 -76.2781
| 11> C 	 -69.8448 	 18.423 	 -77.2921
| 12> H 	 -68.3499 	 19.598 	 -76.1455
| 13> C 	 -69.9913 	 20.4015 	 -74.1201
| 14> H 	 -69.2413 	 19.8413 	 -73.573
| 15> H 	 -70.7856 	 20.38 	 -73.3909
| 16> C 	 -69.6948 	 21.8799 	 -74.408
| 17> H 	 -68.9824 	 22.031 	 -75.2052
| 18> H 	 -70.5586 	 22.304 	 -74.9057
| 19> C 	 -69.3742 	 22.5232 	 -73.0258
| 20> H 	 -70.2726 	 22.4136 	 -72.4522
| 21> H 	 -68.575 	 22.0064 	 -72.4394
| 22> H 	 -69.2927 	 23.6316 	 -73.09
| 23> S 	 -68.3374 	 16.2389 	 -78.1679
| 24> C 	 -67.1937 	 16.557 	 -79.4558
| 25> C 	 -67.163 	 17.8472 	 -79.9002
| 26> C 	 -68.103 	 18.6623 	 -79.2083
| 27> C 	 -68.8652 	 17.9461 	 -78.2621
| 28> H 	 -66.5417 	 18.0701 	 -80.724
| 29> C 	 -68.2715 	 20.1278 	 -79.4842
| 30> H 	 -68.8905 	 20.5212 	 -78.7705
| 31> H 	 -68.9908 	 20.171 	 -80.2762
| 32> C 	 -67.1471 	 20.9233 	 -79.9289
| 33> H 	 -67.5732 	 21.7479 	 -80.4307
| 34> H 	 -66.5508 	 20.3807 	 -80.617
| 35> C 	 -66.3183 	 21.4497 	 -78.7996
| 36> H 	 -65.3607 	 21.9413 	 -79.0981
| 37> H 	 -66.2397 	 20.571 	 -78.2347
| 38> H 	 -66.829 	 22.1855 	 -78.2244
| 39> H 	 -72.484 	 19.0938 	 -75.0877
| 40> H 	 -66.6451 	 15.7573 	 -79.893
| 41> *
| 42>
| 43>                          ****END OF INPUT****

CARTESIAN COORDINATES (ANGSTROEM)
---------------------------------
  S    -71.477900   17.811300  -77.043400
  C    -71.596300   18.922600  -75.713500
  C    -70.380700   19.489200  -75.351100
  C    -69.377800   19.204600  -76.278100
  C    -69.844800   18.423000  -77.292100
  H    -68.349900   19.598000  -76.145500
  C    -69.991300   20.401500  -74.120100
  H    -69.241300   19.841300  -73.573000
  H    -70.785600   20.380000  -73.390900
  C    -69.694800   21.879900  -74.408000
  H    -68.982400   22.031000  -75.205200
  H    -70.558600   22.304000  -74.905700
  C    -69.374200   22.523200  -73.025800
  H    -70.272600   22.413600  -72.452200
  H    -68.575000   22.006400  -72.439400
  H    -69.292700   23.631600  -73.090000
  S    -68.337400   16.238900  -78.167900
  C    -67.193700   16.557000  -79.455800
  C    -67.163000   17.847200  -79.900200
  C    -68.103000   18.662300  -79.208300
  C    -68.865200   17.946100  -78.262100
  H    -66.541700   18.070100  -80.724000
  C    -68.271500   20.127800  -79.484200
  H    -68.890500   20.521200  -78.770500
  H    -68.990800   20.171000  -80.276200
  C    -67.147100   20.923300  -79.928900
  H    -67.573200   21.747900  -80.430700
  H    -66.550800   20.380700  -80.617000
  C    -66.318300   21.449700  -78.799600
  H    -65.360700   21.941300  -79.098100
  H    -66.239700   20.571000  -78.234700
  H    -66.829000   22.185500  -78.224400
  H    -72.484000   19.093800  -75.087700
  H    -66.645100   15.757300  -79.893000

 Total Charge           Charge          ....    0
 Multiplicity           Mult            ....    1
 Number of Electrons    NEL             ....  134
 Basis Dimension        Dim             ....  322

ORBITAL ENERGIES
----------------

  NO   OCC          E(Eh)            E(eV)
   0   2.0000     -88.974085     -2421.1080
   1   2.0000     -88.960751     -2420.7451
   2   2.0000     -10.323726      -280.9229
   3   2.0000     -10.322680      -280.8944
   4   2.0000     -10.315343      -280.6948
   5   2.0000     -10.310340      -280.5586
   6   2.0000     -10.301197      -280.3098
   7   2.0000     -10.297776      -280.2167
   8   2.0000     -10.295281      -280.1488
   9   2.0000     -10.290787      -280.0265
  10   2.0000     -10.288823      -279.9731
  11   2.0000     -10.287264      -279.9307
  12   2.0000     -10.287153      -279.9277
  13   2.0000     -10.270036      -279.4619
  14   2.0000     -10.269444      -279.4458
  15   2.0000     -10.266037      -279.3531
  16   2.0000      -8.088435      -220.0975
  17   2.0000      -8.075170      -219.7365
  18   2.0000      -6.046848      -164.5431
  19   2.0000      -6.043273      -164.4458
  20   2.0000      -6.039054      -164.3310
  21   2.0000      -6.033568      -164.1817
  22   2.0000      -6.029873      -164.0812
  23   2.0000      -6.025944      -163.9743
  24   2.0000      -1.006180       -27.3796
  25   2.0000      -0.981706       -26.7136
  26   2.0000      -0.927785       -25.2463
  27   2.0000      -0.909126       -24.7386
  28   2.0000      -0.868345       -23.6289
  29   2.0000      -0.854906       -23.2632
  30   2.0000      -0.849325       -23.1113
  31   2.0000      -0.810598       -22.0575
  32   2.0000      -0.784499       -21.3473
  33   2.0000      -0.770830       -20.9753
  34   2.0000      -0.713293       -19.4097
  35   2.0000      -0.706715       -19.2307
  36   2.0000      -0.698122       -18.9969
  37   2.0000      -0.651770       -17.7356
  38   2.0000      -0.635876       -17.3031
  39   2.0000      -0.625619       -17.0240
  40   2.0000      -0.609025       -16.5724
  41   2.0000      -0.569135       -15.4869
  42   2.0000      -0.563797       -15.3417
  43   2.0000      -0.555755       -15.1229
  44   2.0000      -0.536876       -14.6091
  45   2.0000      -0.528241       -14.3742
  46   2.0000      -0.526515       -14.3272
  47   2.0000      -0.503226       -13.6935
  48   2.0000      -0.499664       -13.5965
  49   2.0000      -0.491678       -13.3792
  50   2.0000      -0.486556       -13.2399
  51   2.0000      -0.474454       -12.9105
  52   2.0000      -0.470707       -12.8086
  53   2.0000      -0.466564       -12.6958
  54   2.0000      -0.464364       -12.6360
  55   2.0000      -0.453484       -12.3399
  56   2.0000      -0.449161       -12.2223
  57   2.0000      -0.447109       -12.1665
  58   2.0000      -0.435577       -11.8527
  59   2.0000      -0.427916       -11.6442
  60   2.0000      -0.422193       -11.4885
  61   2.0000      -0.417228       -11.3533
  62   2.0000      -0.408468       -11.1150
  63   2.0000      -0.343885        -9.3576
  64   2.0000      -0.331301        -9.0152
  65   2.0000      -0.323834        -8.8120
  66   2.0000      -0.290743        -7.9115
  67   0.0000       0.036341         0.9889
  68   0.0000       0.062568         1.7026
  69   0.0000       0.110121         2.9965
  70   0.0000       0.121844         3.3155
  71   0.0000       0.127942         3.4815

MULLIKEN ATOMIC CHARGES
-----------------------
   0 S :    0.133763
   1 C :   -0.127575
   2 C :   -0.079598
   3 C :    0.018046
   4 C :   -0.166026
   5 H :    0.035585
   6 C :    0.043171
   7 H :    0.031877
   8 H :   -0.002093
   9 C :   -0.040516
  10 H :    0.022372
  11 H :    0.024097
  12 C :   -0.048874
  13 H :    0.019897
  14 H :    0.047864
  15 H :    0.041429
  16 S :    0.094435
  17 C :   -0.084585
  18 C :   -0.026019
  19 C :   -0.050948
  20 C :   -0.164657
  21 H :    0.007656
  22 C :    0.119227
  23 H :   -0.022718
  24 H :    0.017156
  25 C :   -0.001194
  26 H :    0.005724
  27 H :    0.013011
  28 C :   -0.021379
  29 H :    0.038260
  30 H :    0.018456
  31 H :    0.014034
  32 H :    0.047141
  33 H :    0.042982
Sum of atomic charges:    0.0000000

LOEWDIN ATOMIC CHARGES
----------------------
   0 S :    0.413347
   1 C :   -0.207162
   2 C :   -0.065075
   3 C :   -0.053187
   4 C :   -0.202264
   5 H :    0.042331
   6 C :   -0.029696
   7 H :    0.031127
   8 H :    0.022546
   9 C :   -0.039550
  10 H :    0.017759
  11 H :    0.027910
  12 C :   -0.067670
  13 H :    0.022969
  14 H :    0.033536
  15 H :    0.030899
  16 S :    0.379284
  17 C :   -0.170279
  18 C :   -0.074316
  19 C :   -0.047586
  20 C :   -0.189382
  21 H :    0.027969
  22 C :   -0.034997
  23 H :    0.019615
  24 H :    0.042375
  25 C :   -0.032934
  26 H :    0.021310
  27 H :    0.019957
  28 C :   -0.057590
  29 H :    0.029967
  30 H :    0.019636
  31 H :    0.018625
  32 H :    0.030857
  33 H :    0.019670

  Mayer bond orders larger than 0.100000
B(  0-S ,  1-C ) :   1.1361 B(  0-S ,  4-C ) :   1.1428 B(  1-C ,  2-C ) :   1.6226
B(  1-C , 32-H ) :   0.9611 B(  2-C ,  3-C ) :   1.2613 B(  2-C ,  6-C ) :   1.0048
B(  3-C ,  4-C ) :   1.5557 B(  3-C ,  5-H ) :   0.9923 B(  4-C , 20-C ) :   1.0374
B(  6-C ,  7-H ) :   0.9466 B(  6-C ,  8-H ) :   0.9415 B(  6-C ,  9-C ) :   1.0481
B(  9-C , 10-H ) :   0.9614 B(  9-C , 11-H ) :   0.9504 B(  9-C , 12-C ) :   1.0648
B( 12-C , 13-H ) :   0.9731 B( 12-C , 14-H ) :   0.9767 B( 12-C , 15-H ) :   0.9729
B( 16-S , 17-C ) :   1.1558 B( 16-S , 20-C ) :   1.1288 B( 17-C , 18-C ) :   1.6311
B( 17-C , 33-H ) :   0.9651 B( 18-C , 19-C ) :   1.2104 B( 18-C , 21-H ) :   0.9984
B( 19-C , 20-C ) :   1.6079 B( 19-C , 22-C ) :   1.0469 B( 22-C , 23-H ) :   0.9132
B( 22-C , 24-H ) :   0.9035 B( 22-C , 25-C ) :   1.0873 B( 25-C , 26-H ) :   0.9391
B( 25-C , 27-H ) :   0.9460 B( 25-C , 28-C ) :   1.0795 B( 28-C , 29-H ) :   0.9728
B( 28-C , 30-H ) :   0.9784 B( 28-C , 31-H ) :   0.9726

Dispersion correction           -0.014408447
FINAL SINGLE POINT ENERGY     -1339.850800800710

DIPOLE MOMENT
-------------
                                X             Y             Z
Electronic contribution:    -10.23541     -27.94993      -8.10260
Nuclear contribution   :     10.36379      28.55352       8.24624
                        -----------------------------------------
Total Dipole Moment    :      0.12838       0.60359       0.14364
                        -----------------------------------------
Magnitude (a.u.)       :      0.63359
Magnitude (Debye)      :      1.61045

Rotational constants in cm-1:     0.016796     0.009392     0.006847
Rotational constants in MHz :   503.528968   281.566107   205.267364

                             ****ORCA TERMINATED NORMALLY****
TOTAL RUN TIME: 0 days 0 hours 0 minutes 21 seconds 994 msec
