                         Program Version 4.2.1 -  RELEASE  -
|  1> ! wB97X-D3 SP def2-SVP
|  2> %pal
|  3> nprocs 24
|  4> end
|  5>
|  6> * xyz 0 1
|  7> S 	 -95.7998 	 51.9482 	 -99.8668
|  8> C 	 -94.9993 	 53.3097 	 -99.0822
|  9> C 	 -95.7855 	 53.8436 	 -98.0602
| 10> C 	 -96.9434 	 53.0368 	 -97.7661
| 11> C 	 -97.1504 	 52.0209 	 -98.7397
| 12> H 	 -97.575 	 53.2195 	 -96.821
| 13> C 	 -95.4316 	 54.9959 	 -97.3017
| 14> H 	 -96.2563 	 55.2881 	 -96.7864
| 15> H 	 -94.9953 	 55.807 	 -97.9788
| 16> C 	 -94.3133 	 54.5845 	 -96.3215
| 17> H 	 -94.7077 	 53.7942 	 -95.6327
| 18> H 	 -93.442 	 54.1161 	 -96.8632
| 19> C 	 -93.7116 	 55.6986 	 -95.4947
| 20> H 	 -94.4027 	 56.2461 	 -94.8087
| 21> H 	 -92.9568 	 55.2057 	 -94.9279
| 22> H 	 -93.2325 	 56.32 	 -96.2078
| 23> S 	 -97.674 	 49.3969 	 -98.7932
| 24> C 	 -99.3324 	 48.9058 	 -98.8844
| 25> C 	 -100.188 	 49.9452 	 -99.0777
| 26> C 	 -99.5524 	 51.1785 	 -98.8148
| 27> C 	 -98.1611 	 51.0615 	 -98.7951
| 28> H 	 -101.253 	 49.8207 	 -99.2907
| 29> C 	 -100.329 	 52.5211 	 -98.7481
| 30> H 	 -99.8343 	 53.1651 	 -98.0129
| 31> H 	 -101.359 	 52.3474 	 -98.5206
| 32> C 	 -100.195 	 53.1667 	 -100.092
| 33> H 	 -100.797 	 52.6621 	 -100.852
| 34> H 	 -99.1399 	 53.1899 	 -100.313
| 35> C 	 -100.819 	 54.6729 	 -100.013
| 36> H 	 -100.988 	 55.2003 	 -100.957
| 37> H 	 -100.152 	 55.3853 	 -99.4391
| 38> H 	 -101.797 	 54.5867 	 -99.5312
| 39> H 	 -94.1054 	 53.7515 	 -99.5143
| 40> H 	 -99.6172 	 47.8409 	 -98.8235
| 41> *
| 42>
| 43>                          ****END OF INPUT****

CARTESIAN COORDINATES (ANGSTROEM)
---------------------------------
  S    -95.799800   51.948200  -99.866800
  C    -94.999300   53.309700  -99.082200
  C    -95.785500   53.843600  -98.060200
  C    -96.943400   53.036800  -97.766100
  C    -97.150400   52.020900  -98.739700
  H    -97.575000   53.219500  -96.821000
  C    -95.431600   54.995900  -97.301700
  H    -96.256300   55.288100  -96.786400
  H    -94.995300   55.807000  -97.978800
  C    -94.313300   54.584500  -96.321500
  H    -94.707700   53.794200  -95.632700
  H    -93.442000   54.116100  -96.863200
  C    -93.711600   55.698600  -95.494700
  H    -94.402700   56.246100  -94.808700
  H    -92.956800   55.205700  -94.927900
  H    -93.232500   56.320000  -96.207800
  S    -97.674000   49.396900  -98.793200
  C    -99.332400   48.905800  -98.884400
  C    -100.188000   49.945200  -99.077700
  C    -99.552400   51.178500  -98.814800
  C    -98.161100   51.061500  -98.795100
  H    -101.253000   49.820700  -99.290700
  C    -100.329000   52.521100  -98.748100
  H    -99.834300   53.165100  -98.012900
  H    -101.359000   52.347400  -98.520600
  C    -100.195000   53.166700  -100.092000
  H    -100.797000   52.662100  -100.852000
  H    -99.139900   53.189900  -100.313000
  C    -100.819000   54.672900  -100.013000
  H    -100.988000   55.200300  -100.957000
  H    -100.152000   55.385300  -99.439100
  H    -101.797000   54.586700  -99.531200
  H    -94.105400   53.751500  -99.514300
  H    -99.617200   47.840900  -98.823500

 Total Charge           Charge          ....    0
 Multiplicity           Mult            ....    1
 Number of Electrons    NEL             ....  134
 Basis Dimension        Dim             ....  322

ORBITAL ENERGIES
----------------

  NO   OCC          E(Eh)            E(eV)
   0   2.0000     -88.966648     -2420.9056
   1   2.0000     -88.964492     -2420.8469
   2   2.0000     -10.330273      -281.1010
   3   2.0000     -10.316777      -280.7338
   4   2.0000     -10.315036      -280.6864
   5   2.0000     -10.311241      -280.5831
   6   2.0000     -10.304230      -280.3924
   7   2.0000     -10.302742      -280.3519
   8   2.0000     -10.296639      -280.1858
   9   2.0000     -10.292077      -280.0617
  10   2.0000     -10.289146      -279.9819
  11   2.0000     -10.288365      -279.9607
  12   2.0000     -10.284465      -279.8545
  13   2.0000     -10.283137      -279.8184
  14   2.0000     -10.281851      -279.7834
  15   2.0000     -10.272819      -279.5376
  16   2.0000      -8.080794      -219.8896
  17   2.0000      -8.080007      -219.8682
  18   2.0000      -6.039314      -164.3381
  19   2.0000      -6.038409      -164.3135
  20   2.0000      -6.035279      -164.2283
  21   2.0000      -6.034466      -164.2062
  22   2.0000      -6.031690      -164.1306
  23   2.0000      -6.030758      -164.1053
  24   2.0000      -1.011478       -27.5237
  25   2.0000      -0.983397       -26.7596
  26   2.0000      -0.923490       -25.1294
  27   2.0000      -0.908568       -24.7234
  28   2.0000      -0.874098       -23.7854
  29   2.0000      -0.851413       -23.1681
  30   2.0000      -0.841685       -22.9034
  31   2.0000      -0.808959       -22.0129
  32   2.0000      -0.780832       -21.2475
  33   2.0000      -0.765927       -20.8419
  34   2.0000      -0.707247       -19.2452
  35   2.0000      -0.694163       -18.8891
  36   2.0000      -0.689122       -18.7520
  37   2.0000      -0.665193       -18.1008
  38   2.0000      -0.635186       -17.2843
  39   2.0000      -0.618210       -16.8223
  40   2.0000      -0.596724       -16.2377
  41   2.0000      -0.574154       -15.6235
  42   2.0000      -0.572855       -15.5882
  43   2.0000      -0.557092       -15.1592
  44   2.0000      -0.529937       -14.4203
  45   2.0000      -0.523968       -14.2579
  46   2.0000      -0.515375       -14.0241
  47   2.0000      -0.506703       -13.7881
  48   2.0000      -0.502314       -13.6687
  49   2.0000      -0.497226       -13.5302
  50   2.0000      -0.492264       -13.3952
  51   2.0000      -0.485254       -13.2044
  52   2.0000      -0.474368       -12.9082
  53   2.0000      -0.458622       -12.4797
  54   2.0000      -0.451693       -12.2912
  55   2.0000      -0.448935       -12.2161
  56   2.0000      -0.444299       -12.0900
  57   2.0000      -0.437101       -11.8941
  58   2.0000      -0.431988       -11.7550
  59   2.0000      -0.430010       -11.7012
  60   2.0000      -0.423768       -11.5313
  61   2.0000      -0.420418       -11.4402
  62   2.0000      -0.408707       -11.1215
  63   2.0000      -0.346240        -9.4217
  64   2.0000      -0.329305        -8.9609
  65   2.0000      -0.324141        -8.8203
  66   2.0000      -0.282383        -7.6840
  67   0.0000       0.028155         0.7661
  68   0.0000       0.064587         1.7575
  69   0.0000       0.109398         2.9769
  70   0.0000       0.121465         3.3052
  71   0.0000       0.133787         3.6405

MULLIKEN ATOMIC CHARGES
-----------------------
   0 S :    0.110395
   1 C :   -0.140478
   2 C :   -0.096973
   3 C :    0.004046
   4 C :   -0.172390
   5 H :    0.052835
   6 C :    0.135416
   7 H :   -0.013305
   8 H :    0.038163
   9 C :   -0.165841
  10 H :    0.029913
  11 H :    0.035875
  12 C :    0.014457
  13 H :    0.040125
  14 H :    0.025946
  15 H :    0.017025
  16 S :    0.122776
  17 C :   -0.101447
  18 C :   -0.028679
  19 C :   -0.056002
  20 C :   -0.164223
  21 H :    0.025532
  22 C :    0.114920
  23 H :    0.019319
  24 H :    0.012555
  25 C :   -0.078781
  26 H :    0.032339
  27 H :    0.046554
  28 C :   -0.079477
  29 H :    0.035282
  30 H :    0.038914
  31 H :    0.027430
  32 H :    0.052468
  33 H :    0.065312
Sum of atomic charges:   -0.0000000

LOEWDIN ATOMIC CHARGES
----------------------
   0 S :    0.400892
   1 C :   -0.204013
   2 C :   -0.059474
   3 C :   -0.074233
   4 C :   -0.194416
   5 H :    0.045996
   6 C :   -0.032762
   7 H :    0.015727
   8 H :    0.042615
   9 C :   -0.039557
  10 H :    0.024899
  11 H :    0.029532
  12 C :   -0.063701
  13 H :    0.028174
  14 H :    0.025522
  15 H :    0.019010
  16 S :    0.423716
  17 C :   -0.188814
  18 C :   -0.074983
  19 C :   -0.041863
  20 C :   -0.221840
  21 H :    0.036014
  22 C :   -0.024174
  23 H :    0.030720
  24 H :    0.023414
  25 C :   -0.028677
  26 H :    0.024324
  27 H :    0.025016
  28 C :   -0.077937
  29 H :    0.022604
  30 H :    0.028225
  31 H :    0.021362
  32 H :    0.025927
  33 H :    0.032753

  Mayer bond orders larger than 0.100000
B(  0-S ,  1-C ) :   1.1283 B(  0-S ,  4-C ) :   1.1577 B(  1-C ,  2-C ) :   1.5755
B(  1-C ,  4-C ) :   0.1051 B(  1-C , 32-H ) :   0.9690 B(  2-C ,  3-C ) :   1.2609
B(  2-C ,  6-C ) :   1.0621 B(  3-C ,  4-C ) :   1.5409 B(  3-C ,  5-H ) :   0.9678
B(  4-C , 20-C ) :   1.0837 B(  6-C ,  7-H ) :   0.9172 B(  6-C ,  8-H ) :   0.9285
B(  6-C ,  9-C ) :   1.0616 B(  9-C , 10-H ) :   0.9538 B(  9-C , 11-H ) :   0.9595
B(  9-C , 12-C ) :   1.0808 B( 12-C , 13-H ) :   0.9729 B( 12-C , 14-H ) :   0.9709
B( 12-C , 15-H ) :   0.9711 B( 16-S , 17-C ) :   1.1656 B( 16-S , 20-C ) :   1.1468
B( 17-C , 18-C ) :   1.5929 B( 17-C , 20-C ) :   0.1075 B( 17-C , 33-H ) :   0.9650
B( 18-C , 19-C ) :   1.2590 B( 18-C , 21-H ) :   0.9863 B( 19-C , 20-C ) :   1.5609
B( 19-C , 22-C ) :   1.0469 B( 22-C , 23-H ) :   0.9312 B( 22-C , 24-H ) :   0.9274
B( 22-C , 25-C ) :   1.0716 B( 25-C , 26-H ) :   0.9564 B( 25-C , 27-H ) :   0.9614
B( 25-C , 28-C ) :   1.0616 B( 28-C , 29-H ) :   0.9793 B( 28-C , 30-H ) :   0.9782
B( 28-C , 31-H ) :   0.9747

Dispersion correction           -0.014322090
FINAL SINGLE POINT ENERGY     -1339.865499974665

DIPOLE MOMENT
-------------
                                X             Y             Z
Electronic contribution:      2.95737     -24.40770      -8.60722
Nuclear contribution   :     -3.19151      24.77237       8.88366
                        -----------------------------------------
Total Dipole Moment    :     -0.23414       0.36468       0.27644
                        -----------------------------------------
Magnitude (a.u.)       :      0.51403
Magnitude (Debye)      :      1.30657

Rotational constants in cm-1:     0.019638     0.008320     0.006839
Rotational constants in MHz :   588.746098   249.424961   205.018858

                             ****ORCA TERMINATED NORMALLY****
TOTAL RUN TIME: 0 days 0 hours 0 minutes 20 seconds 816 msec
