                         Program Version 4.2.1 -  RELEASE  -
|  1> ! wB97X-D3 SP def2-SVP
|  2> %pal
|  3> nprocs 24
|  4> end
|  5>
|  6> * xyz 0 1
|  7> S 	 -127.202 	 67.7521 	 -52.478
|  8> C 	 -127.616 	 68.0955 	 -54.1297
|  9> C 	 -126.947 	 69.2064 	 -54.6026
| 10> C 	 -126.005 	 69.6672 	 -53.6493
| 11> C 	 -126.202 	 69.1442 	 -52.3928
| 12> H 	 -125.311 	 70.554 	 -53.7889
| 13> C 	 -127.184 	 69.8158 	 -55.9762
| 14> H 	 -127.694 	 69.04 	 -56.6071
| 15> H 	 -126.215 	 70.0147 	 -56.3942
| 16> C 	 -127.89 	 71.1798 	 -55.9229
| 17> H 	 -127.255 	 71.9865 	 -55.4722
| 18> H 	 -128.032 	 71.4225 	 -57.0151
| 19> C 	 -129.265 	 71.1401 	 -55.2472
| 20> H 	 -129.644 	 72.1684 	 -55.4088
| 21> H 	 -129.981 	 70.4553 	 -55.6863
| 22> H 	 -129.078 	 70.9614 	 -54.1994
| 23> S 	 -126.631 	 70.1676 	 -49.8664
| 24> C 	 -125.346 	 70.6388 	 -48.8541
| 25> C 	 -124.156 	 70.5368 	 -49.5745
| 26> C 	 -124.229 	 69.9571 	 -50.8487
| 27> C 	 -125.562 	 69.6322 	 -51.1625
| 28> H 	 -123.218 	 70.7901 	 -49.1787
| 29> C 	 -123.028 	 69.6812 	 -51.6921
| 30> H 	 -123.224 	 69.4694 	 -52.7367
| 31> H 	 -122.656 	 68.7151 	 -51.3822
| 32> C 	 -121.914 	 70.7357 	 -51.5433
| 33> H 	 -121.664 	 71.0132 	 -50.5202
| 34> H 	 -122.241 	 71.7194 	 -51.8938
| 35> C 	 -120.606 	 70.3861 	 -52.2951
| 36> H 	 -120.702 	 70.2616 	 -53.3211
| 37> H 	 -120.085 	 69.5027 	 -51.9387
| 38> H 	 -119.888 	 71.165 	 -52.0549
| 39> H 	 -128.4 	 67.5884 	 -54.5873
| 40> H 	 -125.446 	 70.9361 	 -47.8067
| 41> *
| 42>
| 43>                          ****END OF INPUT****

CARTESIAN COORDINATES (ANGSTROEM)
---------------------------------
  S    -127.202000   67.752100  -52.478000
  C    -127.616000   68.095500  -54.129700
  C    -126.947000   69.206400  -54.602600
  C    -126.005000   69.667200  -53.649300
  C    -126.202000   69.144200  -52.392800
  H    -125.311000   70.554000  -53.788900
  C    -127.184000   69.815800  -55.976200
  H    -127.694000   69.040000  -56.607100
  H    -126.215000   70.014700  -56.394200
  C    -127.890000   71.179800  -55.922900
  H    -127.255000   71.986500  -55.472200
  H    -128.032000   71.422500  -57.015100
  C    -129.265000   71.140100  -55.247200
  H    -129.644000   72.168400  -55.408800
  H    -129.981000   70.455300  -55.686300
  H    -129.078000   70.961400  -54.199400
  S    -126.631000   70.167600  -49.866400
  C    -125.346000   70.638800  -48.854100
  C    -124.156000   70.536800  -49.574500
  C    -124.229000   69.957100  -50.848700
  C    -125.562000   69.632200  -51.162500
  H    -123.218000   70.790100  -49.178700
  C    -123.028000   69.681200  -51.692100
  H    -123.224000   69.469400  -52.736700
  H    -122.656000   68.715100  -51.382200
  C    -121.914000   70.735700  -51.543300
  H    -121.664000   71.013200  -50.520200
  H    -122.241000   71.719400  -51.893800
  C    -120.606000   70.386100  -52.295100
  H    -120.702000   70.261600  -53.321100
  H    -120.085000   69.502700  -51.938700
  H    -119.888000   71.165000  -52.054900
  H    -128.400000   67.588400  -54.587300
  H    -125.446000   70.936100  -47.806700

 Total Charge           Charge          ....    0
 Multiplicity           Mult            ....    1
 Number of Electrons    NEL             ....  134
 Basis Dimension        Dim             ....  322

ORBITAL ENERGIES
----------------

  NO   OCC          E(Eh)            E(eV)
   0   2.0000     -88.964088     -2420.8359
   1   2.0000     -88.963267     -2420.8136
   2   2.0000     -10.325416      -280.9689
   3   2.0000     -10.325251      -280.9644
   4   2.0000     -10.316305      -280.7209
   5   2.0000     -10.305318      -280.4220
   6   2.0000     -10.301027      -280.3052
   7   2.0000     -10.298305      -280.2311
   8   2.0000     -10.294615      -280.1307
   9   2.0000     -10.293069      -280.0886
  10   2.0000     -10.292313      -280.0681
  11   2.0000     -10.290703      -280.0243
  12   2.0000     -10.290626      -280.0222
  13   2.0000     -10.286082      -279.8985
  14   2.0000     -10.273784      -279.5639
  15   2.0000     -10.273509      -279.5564
  16   2.0000      -8.079379      -219.8511
  17   2.0000      -8.079020      -219.8413
  18   2.0000      -6.037739      -164.2952
  19   2.0000      -6.037363      -164.2850
  20   2.0000      -6.033609      -164.1828
  21   2.0000      -6.033357      -164.1760
  22   2.0000      -6.030457      -164.0971
  23   2.0000      -6.029927      -164.0827
  24   2.0000      -1.010171       -27.4881
  25   2.0000      -0.989691       -26.9309
  26   2.0000      -0.912047       -24.8181
  27   2.0000      -0.910490       -24.7757
  28   2.0000      -0.866151       -23.5692
  29   2.0000      -0.853878       -23.2352
  30   2.0000      -0.845091       -22.9961
  31   2.0000      -0.810917       -22.0662
  32   2.0000      -0.786549       -21.4031
  33   2.0000      -0.775772       -21.1098
  34   2.0000      -0.714122       -19.4322
  35   2.0000      -0.699344       -19.0301
  36   2.0000      -0.688308       -18.7298
  37   2.0000      -0.655869       -17.8471
  38   2.0000      -0.639879       -17.4120
  39   2.0000      -0.619493       -16.8573
  40   2.0000      -0.604881       -16.4597
  41   2.0000      -0.566774       -15.4227
  42   2.0000      -0.558671       -15.2022
  43   2.0000      -0.546054       -14.8589
  44   2.0000      -0.543845       -14.7988
  45   2.0000      -0.533443       -14.5157
  46   2.0000      -0.519878       -14.1466
  47   2.0000      -0.513590       -13.9755
  48   2.0000      -0.503597       -13.7036
  49   2.0000      -0.495531       -13.4841
  50   2.0000      -0.488224       -13.2853
  51   2.0000      -0.484900       -13.1948
  52   2.0000      -0.472142       -12.8476
  53   2.0000      -0.466879       -12.7044
  54   2.0000      -0.462233       -12.5780
  55   2.0000      -0.456366       -12.4184
  56   2.0000      -0.442904       -12.0520
  57   2.0000      -0.438495       -11.9321
  58   2.0000      -0.433679       -11.8010
  59   2.0000      -0.423324       -11.5192
  60   2.0000      -0.418126       -11.3778
  61   2.0000      -0.416218       -11.3259
  62   2.0000      -0.410413       -11.1679
  63   2.0000      -0.339720        -9.2443
  64   2.0000      -0.330797        -9.0015
  65   2.0000      -0.327812        -8.9202
  66   2.0000      -0.292548        -7.9606
  67   0.0000       0.031565         0.8589
  68   0.0000       0.072754         1.9797
  69   0.0000       0.117757         3.2043
  70   0.0000       0.125322         3.4102
  71   0.0000       0.135827         3.6960

MULLIKEN ATOMIC CHARGES
-----------------------
   0 S :    0.118194
   1 C :   -0.107761
   2 C :   -0.106656
   3 C :    0.012659
   4 C :   -0.172767
   5 H :    0.036361
   6 C :    0.090590
   7 H :    0.032931
   8 H :    0.021383
   9 C :   -0.123247
  10 H :    0.043878
  11 H :    0.034980
  12 C :   -0.043284
  13 H :    0.035023
  14 H :    0.032351
  15 H :    0.052338
  16 S :    0.117385
  17 C :   -0.091184
  18 C :   -0.035220
  19 C :   -0.003350
  20 C :   -0.180898
  21 H :   -0.011941
  22 C :    0.119546
  23 H :    0.014667
  24 H :    0.028130
  25 C :   -0.111818
  26 H :    0.025909
  27 H :    0.024424
  28 C :   -0.018868
  29 H :    0.022842
  30 H :    0.022186
  31 H :    0.026985
  32 H :    0.025777
  33 H :    0.068457
Sum of atomic charges:    0.0000000

LOEWDIN ATOMIC CHARGES
----------------------
   0 S :    0.424229
   1 C :   -0.195365
   2 C :   -0.064046
   3 C :   -0.072107
   4 C :   -0.210823
   5 H :    0.040033
   6 C :   -0.032936
   7 H :    0.035380
   8 H :    0.029322
   9 C :   -0.046130
  10 H :    0.029905
  11 H :    0.027509
  12 C :   -0.065802
  13 H :    0.030985
  14 H :    0.023120
  15 H :    0.027718
  16 S :    0.430471
  17 C :   -0.204822
  18 C :   -0.071723
  19 C :   -0.053470
  20 C :   -0.201912
  21 H :    0.017263
  22 C :   -0.030928
  23 H :    0.030995
  24 H :    0.036858
  25 C :   -0.038578
  26 H :    0.022082
  27 H :    0.025221
  28 C :   -0.060258
  29 H :    0.015047
  30 H :    0.024429
  31 H :    0.029809
  32 H :    0.012046
  33 H :    0.036479

  Mayer bond orders larger than 0.100000
B(  0-S ,  1-C ) :   1.1407 B(  0-S ,  4-C ) :   1.1760 B(  1-C ,  2-C ) :   1.5920
B(  1-C , 32-H ) :   0.9793 B(  2-C ,  3-C ) :   1.2557 B(  2-C ,  6-C ) :   1.0201
B(  3-C ,  4-C ) :   1.5671 B(  3-C ,  5-H ) :   0.9795 B(  4-C , 20-C ) :   1.0183
B(  6-C ,  7-H ) :   0.9456 B(  6-C ,  8-H ) :   0.9330 B(  6-C ,  9-C ) :   1.0692
B(  9-C , 10-H ) :   0.9554 B(  9-C , 11-H ) :   0.9565 B(  9-C , 12-C ) :   1.0740
B( 12-C , 13-H ) :   0.9735 B( 12-C , 14-H ) :   0.9763 B( 12-C , 15-H ) :   0.9730
B( 16-S , 17-C ) :   1.1822 B( 16-S , 20-C ) :   1.1717 B( 17-C , 18-C ) :   1.5354
B( 17-C , 20-C ) :   0.1128 B( 17-C , 33-H ) :   0.9692 B( 18-C , 19-C ) :   1.3030
B( 18-C , 21-H ) :   0.9942 B( 19-C , 20-C ) :   1.5361 B( 19-C , 22-C ) :   1.0430
B( 22-C , 23-H ) :   0.9324 B( 22-C , 24-H ) :   0.9225 B( 22-C , 25-C ) :   1.0529
B( 25-C , 26-H ) :   0.9530 B( 25-C , 27-H ) :   0.9560 B( 25-C , 28-C ) :   1.0894
B( 28-C , 29-H ) :   0.9762 B( 28-C , 30-H ) :   0.9738 B( 28-C , 31-H ) :   0.9721

Dispersion correction           -0.014185516
FINAL SINGLE POINT ENERGY     -1339.885424971478

DIPOLE MOMENT
-------------
                                X             Y             Z
Electronic contribution:    -12.12793     -11.12682      16.18306
Nuclear contribution   :     12.53340      11.44808     -16.51480
                        -----------------------------------------
Total Dipole Moment    :      0.40547       0.32125      -0.33173
                        -----------------------------------------
Magnitude (a.u.)       :      0.61454
Magnitude (Debye)      :      1.56203

Rotational constants in cm-1:     0.017952     0.008376     0.006971
Rotational constants in MHz :   538.182245   251.097745   208.979322

                             ****ORCA TERMINATED NORMALLY****
TOTAL RUN TIME: 0 days 0 hours 0 minutes 21 seconds 393 msec
