                         Program Version 4.2.1 -  RELEASE  -
|  1> ! wB97X-D3 SP def2-SVP
|  2> %pal
|  3> nprocs 24
|  4> end
|  5>
|  6> * xyz 0 1
|  7> S 	 -123.753 	 67.1799 	 -40.1138
|  8> C 	 -123.74 	 68.9586 	 -39.8439
|  9> C 	 -122.741 	 69.5093 	 -40.6345
| 10> C 	 -122.015 	 68.5218 	 -41.3944
| 11> C 	 -122.554 	 67.2665 	 -41.323
| 12> H 	 -121.093 	 68.6731 	 -41.9625
| 13> C 	 -122.356 	 70.9737 	 -40.549
| 14> H 	 -121.348 	 70.9448 	 -40.8097
| 15> H 	 -122.536 	 71.2937 	 -39.5519
| 16> C 	 -123.083 	 72.0113 	 -41.51
| 17> H 	 -122.503 	 72.943 	 -41.4099
| 18> H 	 -122.832 	 71.62 	 -42.5129
| 19> C 	 -124.593 	 72.1284 	 -41.2766
| 20> H 	 -124.97 	 73.1656 	 -41.3595
| 21> H 	 -125.065 	 71.5188 	 -42.0632
| 22> H 	 -124.925 	 71.6439 	 -40.3889
| 23> S 	 -120.975 	 65.0089 	 -41.1675
| 24> C 	 -120.476 	 64.1231 	 -42.6233
| 25> C 	 -121.399 	 64.4757 	 -43.6272
| 26> C 	 -122.186 	 65.6272 	 -43.3419
| 27> C 	 -122.034 	 66.0303 	 -42.039
| 28> H 	 -121.348 	 63.8472 	 -44.4992
| 29> C 	 -123.156 	 66.2219 	 -44.2922
| 30> H 	 -123.743 	 67.0337 	 -43.7831
| 31> H 	 -124.041 	 65.5685 	 -44.4962
| 32> C 	 -122.654 	 66.8546 	 -45.5929
| 33> H 	 -123.47 	 67.0685 	 -46.265
| 34> H 	 -122.05 	 66.0946 	 -46.1054
| 35> C 	 -121.765 	 68.0796 	 -45.3269
| 36> H 	 -120.882 	 67.8733 	 -44.6996
| 37> H 	 -122.307 	 68.9281 	 -44.9675
| 38> H 	 -121.366 	 68.2327 	 -46.2364
| 39> H 	 -124.39 	 69.5989 	 -39.2453
| 40> H 	 -119.813 	 63.302 	 -42.6087
| 41> *
| 42>
| 43>                          ****END OF INPUT****

CARTESIAN COORDINATES (ANGSTROEM)
---------------------------------
  S    -123.753000   67.179900  -40.113800
  C    -123.740000   68.958600  -39.843900
  C    -122.741000   69.509300  -40.634500
  C    -122.015000   68.521800  -41.394400
  C    -122.554000   67.266500  -41.323000
  H    -121.093000   68.673100  -41.962500
  C    -122.356000   70.973700  -40.549000
  H    -121.348000   70.944800  -40.809700
  H    -122.536000   71.293700  -39.551900
  C    -123.083000   72.011300  -41.510000
  H    -122.503000   72.943000  -41.409900
  H    -122.832000   71.620000  -42.512900
  C    -124.593000   72.128400  -41.276600
  H    -124.970000   73.165600  -41.359500
  H    -125.065000   71.518800  -42.063200
  H    -124.925000   71.643900  -40.388900
  S    -120.975000   65.008900  -41.167500
  C    -120.476000   64.123100  -42.623300
  C    -121.399000   64.475700  -43.627200
  C    -122.186000   65.627200  -43.341900
  C    -122.034000   66.030300  -42.039000
  H    -121.348000   63.847200  -44.499200
  C    -123.156000   66.221900  -44.292200
  H    -123.743000   67.033700  -43.783100
  H    -124.041000   65.568500  -44.496200
  C    -122.654000   66.854600  -45.592900
  H    -123.470000   67.068500  -46.265000
  H    -122.050000   66.094600  -46.105400
  C    -121.765000   68.079600  -45.326900
  H    -120.882000   67.873300  -44.699600
  H    -122.307000   68.928100  -44.967500
  H    -121.366000   68.232700  -46.236400
  H    -124.390000   69.598900  -39.245300
  H    -119.813000   63.302000  -42.608700

 Total Charge           Charge          ....    0
 Multiplicity           Mult            ....    1
 Number of Electrons    NEL             ....  134
 Basis Dimension        Dim             ....  322

ORBITAL ENERGIES
----------------

  NO   OCC          E(Eh)            E(eV)
   0   2.0000     -88.966262     -2420.8951
   1   2.0000     -88.963263     -2420.8135
   2   2.0000     -10.330224      -281.0997
   3   2.0000     -10.327858      -281.0353
   4   2.0000     -10.320127      -280.8249
   5   2.0000     -10.317312      -280.7483
   6   2.0000     -10.302955      -280.3577
   7   2.0000     -10.301345      -280.3138
   8   2.0000     -10.297953      -280.2215
   9   2.0000     -10.293910      -280.1115
  10   2.0000     -10.292104      -280.0624
  11   2.0000     -10.288136      -279.9544
  12   2.0000     -10.285535      -279.8836
  13   2.0000     -10.283637      -279.8320
  14   2.0000     -10.279647      -279.7234
  15   2.0000     -10.263884      -279.2945
  16   2.0000      -8.080829      -219.8905
  17   2.0000      -8.078513      -219.8275
  18   2.0000      -6.039403      -164.3405
  19   2.0000      -6.036967      -164.2742
  20   2.0000      -6.035257      -164.2277
  21   2.0000      -6.032817      -164.1613
  22   2.0000      -6.031618      -164.1287
  23   2.0000      -6.029423      -164.0689
  24   2.0000      -1.008430       -27.4408
  25   2.0000      -0.985933       -26.8286
  26   2.0000      -0.908969       -24.7343
  27   2.0000      -0.908048       -24.7092
  28   2.0000      -0.863186       -23.4885
  29   2.0000      -0.850320       -23.1384
  30   2.0000      -0.844017       -22.9669
  31   2.0000      -0.816585       -22.2204
  32   2.0000      -0.784887       -21.3579
  33   2.0000      -0.778181       -21.1754
  34   2.0000      -0.705177       -19.1888
  35   2.0000      -0.699120       -19.0240
  36   2.0000      -0.695025       -18.9126
  37   2.0000      -0.658807       -17.9270
  38   2.0000      -0.637166       -17.3382
  39   2.0000      -0.617759       -16.8101
  40   2.0000      -0.599782       -16.3209
  41   2.0000      -0.567607       -15.4454
  42   2.0000      -0.552279       -15.0283
  43   2.0000      -0.548899       -14.9363
  44   2.0000      -0.544474       -14.8159
  45   2.0000      -0.539749       -14.6873
  46   2.0000      -0.527791       -14.3619
  47   2.0000      -0.517857       -14.0916
  48   2.0000      -0.502392       -13.6708
  49   2.0000      -0.493907       -13.4399
  50   2.0000      -0.486914       -13.2496
  51   2.0000      -0.478927       -13.0323
  52   2.0000      -0.472469       -12.8565
  53   2.0000      -0.468345       -12.7443
  54   2.0000      -0.463299       -12.6070
  55   2.0000      -0.449575       -12.2335
  56   2.0000      -0.442839       -12.0503
  57   2.0000      -0.433993       -11.8095
  58   2.0000      -0.426962       -11.6182
  59   2.0000      -0.422500       -11.4968
  60   2.0000      -0.420897       -11.4532
  61   2.0000      -0.410763       -11.1774
  62   2.0000      -0.407959       -11.1011
  63   2.0000      -0.335532        -9.1303
  64   2.0000      -0.327520        -8.9123
  65   2.0000      -0.322640        -8.7795
  66   2.0000      -0.310767        -8.4564
  67   0.0000       0.044918         1.2223
  68   0.0000       0.052191         1.4202
  69   0.0000       0.106709         2.9037
  70   0.0000       0.116723         3.1762
  71   0.0000       0.136729         3.7206

MULLIKEN ATOMIC CHARGES
-----------------------
   0 S :    0.110247
   1 C :   -0.128153
   2 C :   -0.110199
   3 C :    0.046363
   4 C :   -0.164193
   5 H :    0.020874
   6 C :    0.079545
   7 H :    0.008533
   8 H :    0.023053
   9 C :   -0.083516
  10 H :    0.038501
  11 H :    0.027170
  12 C :   -0.031801
  13 H :    0.047803
  14 H :    0.038074
  15 H :    0.011718
  16 S :    0.106536
  17 C :   -0.101338
  18 C :   -0.038744
  19 C :    0.019360
  20 C :   -0.164976
  21 H :    0.021784
  22 C :    0.020165
  23 H :    0.023319
  24 H :    0.038390
  25 C :   -0.077967
  26 H :    0.026831
  27 H :    0.019962
  28 C :    0.003079
  29 H :    0.035133
  30 H :    0.032578
  31 H :   -0.001005
  32 H :    0.052443
  33 H :    0.050431
Sum of atomic charges:    0.0000000

LOEWDIN ATOMIC CHARGES
----------------------
   0 S :    0.407351
   1 C :   -0.194542
   2 C :   -0.061258
   3 C :   -0.068271
   4 C :   -0.206126
   5 H :    0.035063
   6 C :   -0.021254
   7 H :    0.023405
   8 H :    0.023968
   9 C :   -0.038263
  10 H :    0.025260
  11 H :    0.023517
  12 C :   -0.070222
  13 H :    0.033584
  14 H :    0.036226
  15 H :    0.016298
  16 S :    0.414953
  17 C :   -0.173728
  18 C :   -0.062567
  19 C :   -0.064008
  20 C :   -0.205998
  21 H :    0.030146
  22 C :   -0.047979
  23 H :    0.034835
  24 H :    0.037876
  25 C :   -0.035062
  26 H :    0.024456
  27 H :    0.020294
  28 C :   -0.054174
  29 H :    0.030488
  30 H :    0.022591
  31 H :    0.011320
  32 H :    0.031019
  33 H :    0.020802

  Mayer bond orders larger than 0.100000
B(  0-S ,  1-C ) :   1.1229 B(  0-S ,  4-C ) :   1.1691 B(  1-C ,  2-C ) :   1.6167
B(  1-C , 32-H ) :   0.9672 B(  2-C ,  3-C ) :   1.2306 B(  2-C ,  6-C ) :   1.0170
B(  3-C ,  4-C ) :   1.6037 B(  3-C ,  5-H ) :   0.9879 B(  4-C , 20-C ) :   0.9534
B(  6-C ,  7-H ) :   0.9363 B(  6-C ,  8-H ) :   0.9486 B(  6-C ,  9-C ) :   1.0732
B(  9-C , 10-H ) :   0.9628 B(  9-C , 11-H ) :   0.9635 B(  9-C , 12-C ) :   1.0510
B( 12-C , 13-H ) :   0.9758 B( 12-C , 14-H ) :   0.9733 B( 12-C , 15-H ) :   0.9812
B( 16-S , 17-C ) :   1.1594 B( 16-S , 20-C ) :   1.1740 B( 17-C , 18-C ) :   1.5883
B( 17-C , 20-C ) :   0.1038 B( 17-C , 33-H ) :   0.9758 B( 18-C , 19-C ) :   1.2251
B( 18-C , 21-H ) :   0.9943 B( 19-C , 20-C ) :   1.5986 B( 19-C , 22-C ) :   1.0520
B( 22-C , 23-H ) :   0.9299 B( 22-C , 24-H ) :   0.9349 B( 22-C , 25-C ) :   1.0717
B( 25-C , 26-H ) :   0.9527 B( 25-C , 27-H ) :   0.9594 B( 25-C , 28-C ) :   1.0763
B( 28-C , 29-H ) :   0.9708 B( 28-C , 30-H ) :   0.9753 B( 28-C , 31-H ) :   0.9670

Dispersion correction           -0.015190920
FINAL SINGLE POINT ENERGY     -1339.862173301681

DIPOLE MOMENT
-------------
                                X             Y             Z
Electronic contribution:      4.05726     -22.32559      15.87727
Nuclear contribution   :     -3.99904      22.66656     -16.36468
                        -----------------------------------------
Total Dipole Moment    :      0.05821       0.34096      -0.48741
                        -----------------------------------------
Magnitude (a.u.)       :      0.59767
Magnitude (Debye)      :      1.51916

Rotational constants in cm-1:     0.020495     0.008798     0.007055
Rotational constants in MHz :   614.433403   263.763196   211.492316

                             ****ORCA TERMINATED NORMALLY****
TOTAL RUN TIME: 0 days 0 hours 0 minutes 22 seconds 127 msec
