                         Program Version 4.2.1 -  RELEASE  -
|  1> ! wB97X-D3 SP def2-SVP
|  2> %pal
|  3> nprocs 24
|  4> end
|  5>
|  6> * xyz 0 1
|  7> S 	 46.8702 	 -11.1859 	 -127.092
|  8> C 	 45.9132 	 -9.98464 	 -126.179
|  9> C 	 44.8577 	 -10.6128 	 -125.572
| 10> C 	 44.6476 	 -11.9575 	 -125.978
| 11> C 	 45.6674 	 -12.3192 	 -126.84
| 12> H 	 43.9117 	 -12.6298 	 -125.686
| 13> C 	 43.9254 	 -9.93165 	 -124.582
| 14> H 	 44.5019 	 -9.23659 	 -123.907
| 15> H 	 43.513 	 -10.7581 	 -123.96
| 16> C 	 42.7249 	 -9.10924 	 -125.12
| 17> H 	 42.1611 	 -9.76684 	 -125.78
| 18> H 	 42.0898 	 -8.77493 	 -124.277
| 19> C 	 43.113 	 -7.93077 	 -125.979
| 20> H 	 43.561 	 -8.23802 	 -126.917
| 21> H 	 42.2796 	 -7.18135 	 -126.055
| 22> H 	 43.963 	 -7.50862 	 -125.465
| 23> S 	 47.0432 	 -14.6006 	 -126.395
| 24> C 	 46.8796 	 -15.9234 	 -127.491
| 25> C 	 45.7772 	 -15.7423 	 -128.311
| 26> C 	 45.131 	 -14.4777 	 -128.144
| 27> C 	 45.8489 	 -13.6672 	 -127.286
| 28> H 	 45.545 	 -16.6203 	 -128.891
| 29> C 	 43.9137 	 -14.0561 	 -128.942
| 30> H 	 43.4543 	 -13.2343 	 -128.348
| 31> H 	 43.1735 	 -14.8279 	 -128.922
| 32> C 	 44.1573 	 -13.4471 	 -130.339
| 33> H 	 44.796 	 -12.5844 	 -130.162
| 34> H 	 43.2042 	 -13.0542 	 -130.896
| 35> C 	 44.8309 	 -14.4071 	 -131.375
| 36> H 	 44.8103 	 -14.0798 	 -132.417
| 37> H 	 44.554 	 -15.4646 	 -131.306
| 38> H 	 45.9171 	 -14.3927 	 -131.074
| 39> H 	 46.2934 	 -9.11774 	 -125.689
| 40> H 	 47.3324 	 -16.9138 	 -127.388
| 41> *
| 42>
| 43>                          ****END OF INPUT****

CARTESIAN COORDINATES (ANGSTROEM)
---------------------------------
  S     46.870200  -11.185900  -127.092000
  C     45.913200   -9.984640  -126.179000
  C     44.857700  -10.612800  -125.572000
  C     44.647600  -11.957500  -125.978000
  C     45.667400  -12.319200  -126.840000
  H     43.911700  -12.629800  -125.686000
  C     43.925400   -9.931650  -124.582000
  H     44.501900   -9.236590  -123.907000
  H     43.513000  -10.758100  -123.960000
  C     42.724900   -9.109240  -125.120000
  H     42.161100   -9.766840  -125.780000
  H     42.089800   -8.774930  -124.277000
  C     43.113000   -7.930770  -125.979000
  H     43.561000   -8.238020  -126.917000
  H     42.279600   -7.181350  -126.055000
  H     43.963000   -7.508620  -125.465000
  S     47.043200  -14.600600  -126.395000
  C     46.879600  -15.923400  -127.491000
  C     45.777200  -15.742300  -128.311000
  C     45.131000  -14.477700  -128.144000
  C     45.848900  -13.667200  -127.286000
  H     45.545000  -16.620300  -128.891000
  C     43.913700  -14.056100  -128.942000
  H     43.454300  -13.234300  -128.348000
  H     43.173500  -14.827900  -128.922000
  C     44.157300  -13.447100  -130.339000
  H     44.796000  -12.584400  -130.162000
  H     43.204200  -13.054200  -130.896000
  C     44.830900  -14.407100  -131.375000
  H     44.810300  -14.079800  -132.417000
  H     44.554000  -15.464600  -131.306000
  H     45.917100  -14.392700  -131.074000
  H     46.293400   -9.117740  -125.689000
  H     47.332400  -16.913800  -127.388000

 Total Charge           Charge          ....    0
 Multiplicity           Mult            ....    1
 Number of Electrons    NEL             ....  134
 Basis Dimension        Dim             ....  322

ORBITAL ENERGIES
----------------

  NO   OCC          E(Eh)            E(eV)
   0   2.0000     -88.971775     -2421.0451
   1   2.0000     -88.964357     -2420.8432
   2   2.0000     -10.324567      -280.9458
   3   2.0000     -10.323209      -280.9088
   4   2.0000     -10.313753      -280.6515
   5   2.0000     -10.309612      -280.5388
   6   2.0000     -10.306118      -280.4437
   7   2.0000     -10.302473      -280.3445
   8   2.0000     -10.298557      -280.2380
   9   2.0000     -10.295028      -280.1420
  10   2.0000     -10.292468      -280.0723
  11   2.0000     -10.292163      -280.0640
  12   2.0000     -10.290916      -280.0301
  13   2.0000     -10.286263      -279.9035
  14   2.0000     -10.277540      -279.6661
  15   2.0000     -10.273629      -279.5597
  16   2.0000      -8.087342      -220.0678
  17   2.0000      -8.079572      -219.8563
  18   2.0000      -6.045692      -164.5117
  19   2.0000      -6.041751      -164.4044
  20   2.0000      -6.038166      -164.3069
  21   2.0000      -6.038007      -164.3025
  22   2.0000      -6.034039      -164.1945
  23   2.0000      -6.030344      -164.0940
  24   2.0000      -1.018677       -27.7196
  25   2.0000      -0.989469       -26.9248
  26   2.0000      -0.914535       -24.8858
  27   2.0000      -0.903348       -24.5813
  28   2.0000      -0.873257       -23.7625
  29   2.0000      -0.855554       -23.2808
  30   2.0000      -0.842229       -22.9182
  31   2.0000      -0.813868       -22.1465
  32   2.0000      -0.784830       -21.3563
  33   2.0000      -0.775371       -21.0989
  34   2.0000      -0.711499       -19.3609
  35   2.0000      -0.693210       -18.8632
  36   2.0000      -0.688245       -18.7281
  37   2.0000      -0.659066       -17.9341
  38   2.0000      -0.645691       -17.5701
  39   2.0000      -0.619606       -16.8603
  40   2.0000      -0.590115       -16.0578
  41   2.0000      -0.571194       -15.5430
  42   2.0000      -0.555369       -15.1124
  43   2.0000      -0.547661       -14.9026
  44   2.0000      -0.543785       -14.7971
  45   2.0000      -0.537170       -14.6171
  46   2.0000      -0.517017       -14.0688
  47   2.0000      -0.511755       -13.9256
  48   2.0000      -0.504496       -13.7280
  49   2.0000      -0.495497       -13.4832
  50   2.0000      -0.484120       -13.1736
  51   2.0000      -0.479137       -13.0380
  52   2.0000      -0.475700       -12.9445
  53   2.0000      -0.465452       -12.6656
  54   2.0000      -0.457141       -12.4394
  55   2.0000      -0.455647       -12.3988
  56   2.0000      -0.441806       -12.0221
  57   2.0000      -0.437345       -11.9008
  58   2.0000      -0.433201       -11.7880
  59   2.0000      -0.422889       -11.5074
  60   2.0000      -0.419758       -11.4222
  61   2.0000      -0.413924       -11.2634
  62   2.0000      -0.400615       -10.9013
  63   2.0000      -0.340460        -9.2644
  64   2.0000      -0.332013        -9.0345
  65   2.0000      -0.328296        -8.9334
  66   2.0000      -0.305975        -8.3260
  67   0.0000       0.032536         0.8854
  68   0.0000       0.057765         1.5719
  69   0.0000       0.102004         2.7757
  70   0.0000       0.112727         3.0674
  71   0.0000       0.131164         3.5692

MULLIKEN ATOMIC CHARGES
-----------------------
   0 S :    0.128362
   1 C :   -0.087349
   2 C :   -0.111473
   3 C :    0.073971
   4 C :   -0.170764
   5 H :   -0.005954
   6 C :    0.013013
   7 H :    0.033033
   8 H :    0.031691
   9 C :   -0.057022
  10 H :    0.019796
  11 H :    0.040049
  12 C :   -0.044494
  13 H :    0.040370
  14 H :    0.049851
  15 H :    0.002443
  16 S :    0.116885
  17 C :   -0.095643
  18 C :   -0.058419
  19 C :   -0.006934
  20 C :   -0.193618
  21 H :    0.016254
  22 C :    0.090784
  23 H :    0.021899
  24 H :    0.022928
  25 C :   -0.084750
  26 H :    0.033913
  27 H :    0.045137
  28 C :   -0.085723
  29 H :    0.041905
  30 H :    0.033227
  31 H :    0.040681
  32 H :    0.044678
  33 H :    0.061273
Sum of atomic charges:   -0.0000000

LOEWDIN ATOMIC CHARGES
----------------------
   0 S :    0.441123
   1 C :   -0.204080
   2 C :   -0.054491
   3 C :   -0.052870
   4 C :   -0.216599
   5 H :    0.024234
   6 C :   -0.037131
   7 H :    0.030620
   8 H :    0.034549
   9 C :   -0.041911
  10 H :    0.020361
  11 H :    0.028889
  12 C :   -0.070263
  13 H :    0.026748
  14 H :    0.034670
  15 H :    0.016661
  16 S :    0.412422
  17 C :   -0.199904
  18 C :   -0.072848
  19 C :   -0.054816
  20 C :   -0.198288
  21 H :    0.031023
  22 C :   -0.033376
  23 H :    0.036444
  24 H :    0.025865
  25 C :   -0.042232
  26 H :    0.025057
  27 H :    0.033342
  28 C :   -0.082383
  29 H :    0.026290
  30 H :    0.021933
  31 H :    0.032477
  32 H :    0.024834
  33 H :    0.033650

  Mayer bond orders larger than 0.100000
B(  0-S ,  1-C ) :   1.1127 B(  0-S ,  4-C ) :   1.1981 B(  1-C ,  2-C ) :   1.6325
B(  1-C , 32-H ) :   0.9601 B(  2-C ,  3-C ) :   1.2323 B(  2-C ,  6-C ) :   1.0248
B(  3-C ,  4-C ) :   1.5414 B(  3-C ,  5-H ) :   1.0091 B(  4-C , 20-C ) :   1.0178
B(  6-C ,  7-H ) :   0.9407 B(  6-C ,  8-H ) :   0.9403 B(  6-C ,  9-C ) :   1.0768
B(  9-C , 10-H ) :   0.9525 B(  9-C , 11-H ) :   0.9550 B(  9-C , 12-C ) :   1.0810
B( 12-C , 13-H ) :   0.9689 B( 12-C , 14-H ) :   0.9718 B( 12-C , 15-H ) :   0.9722
B( 16-S , 17-C ) :   1.1495 B( 16-S , 20-C ) :   1.1634 B( 17-C , 18-C ) :   1.6287
B( 17-C , 20-C ) :   0.1032 B( 17-C , 33-H ) :   0.9623 B( 18-C , 19-C ) :   1.2120
B( 18-C , 21-H ) :   0.9940 B( 19-C , 20-C ) :   1.5925 B( 19-C , 22-C ) :   1.0495
B( 22-C , 23-H ) :   0.9239 B( 22-C , 24-H ) :   0.9358 B( 22-C , 25-C ) :   1.0685
B( 25-C , 26-H ) :   0.9575 B( 25-C , 27-H ) :   0.9598 B( 25-C , 28-C ) :   1.0651
B( 28-C , 29-H ) :   0.9766 B( 28-C , 30-H ) :   0.9776 B( 28-C , 31-H ) :   0.9733

Dispersion correction           -0.014936607
FINAL SINGLE POINT ENERGY     -1339.867289860812

DIPOLE MOMENT
-------------
                                X             Y             Z
Electronic contribution:     18.99135      -9.92546       7.65914
Nuclear contribution   :    -19.43963       9.80093      -7.47661
                        -----------------------------------------
Total Dipole Moment    :     -0.44828      -0.12453       0.18253
                        -----------------------------------------
Magnitude (a.u.)       :      0.49978
Magnitude (Debye)      :      1.27034

Rotational constants in cm-1:     0.021469     0.008228     0.006984
Rotational constants in MHz :   643.624248   246.662427   209.370369

                             ****ORCA TERMINATED NORMALLY****
TOTAL RUN TIME: 0 days 0 hours 0 minutes 20 seconds 852 msec
