                         Program Version 4.2.1 -  RELEASE  -
|  1> ! wB97X-D3 SP def2-SVP
|  2> %pal
|  3> nprocs 24
|  4> end
|  5>
|  6> * xyz 0 1
|  7> S 	 -38.6205 	 -0.262777 	 -5.72733
|  8> C 	 -37.9048 	 0.256552 	 -4.17307
|  9> C 	 -38.6936 	 1.2576 	 -3.63913
| 10> C 	 -39.6933 	 1.76332 	 -4.53056
| 11> C 	 -39.8353 	 1.07762 	 -5.68955
| 12> H 	 -40.3364 	 2.60283 	 -4.34631
| 13> C 	 -38.4993 	 1.89425 	 -2.296
| 14> H 	 -37.8677 	 1.16353 	 -1.81572
| 15> H 	 -39.5107 	 1.91738 	 -1.90626
| 16> C 	 -37.9206 	 3.34248 	 -2.28963
| 17> H 	 -36.9924 	 3.26329 	 -2.79891
| 18> H 	 -38.6071 	 3.9225 	 -2.86713
| 19> C 	 -37.7324 	 3.97944 	 -0.935567
| 20> H 	 -38.4722 	 3.72127 	 -0.198249
| 21> H 	 -36.7034 	 3.77678 	 -0.585606
| 22> H 	 -37.7483 	 5.04403 	 -1.10222
| 23> S 	 -39.7581 	 1.5179 	 -8.35099
| 24> C 	 -41.1903 	 2.12225 	 -9.20161
| 25> C 	 -42.2051 	 2.30105 	 -8.37036
| 26> C 	 -41.9311 	 1.9461 	 -7.01314
| 27> C 	 -40.6626 	 1.38851 	 -6.82792
| 28> H 	 -43.1278 	 2.78758 	 -8.79507
| 29> C 	 -42.9332 	 2.1505 	 -5.94229
| 30> H 	 -43.4588 	 3.11884 	 -6.17201
| 31> H 	 -42.3919 	 2.44075 	 -5.08809
| 32> C 	 -43.9115 	 0.956451 	 -5.80557
| 33> H 	 -43.4174 	 -0.0803233 	 -5.68803
| 34> H 	 -44.6128 	 0.808646 	 -6.6219
| 35> C 	 -44.9167 	 1.20052 	 -4.60388
| 36> H 	 -45.5465 	 0.361707 	 -4.3745
| 37> H 	 -45.6226 	 1.96886 	 -4.77832
| 38> H 	 -44.4761 	 1.41854 	 -3.67536
| 39> H 	 -37.0846 	 -0.213961 	 -3.64805
| 40> H 	 -41.3405 	 2.32672 	 -10.2166
| 41> *
| 42>
| 43>                          ****END OF INPUT****

CARTESIAN COORDINATES (ANGSTROEM)
---------------------------------
  S    -38.620500   -0.262777   -5.727330
  C    -37.904800    0.256552   -4.173070
  C    -38.693600    1.257600   -3.639130
  C    -39.693300    1.763320   -4.530560
  C    -39.835300    1.077620   -5.689550
  H    -40.336400    2.602830   -4.346310
  C    -38.499300    1.894250   -2.296000
  H    -37.867700    1.163530   -1.815720
  H    -39.510700    1.917380   -1.906260
  C    -37.920600    3.342480   -2.289630
  H    -36.992400    3.263290   -2.798910
  H    -38.607100    3.922500   -2.867130
  C    -37.732400    3.979440   -0.935567
  H    -38.472200    3.721270   -0.198249
  H    -36.703400    3.776780   -0.585606
  H    -37.748300    5.044030   -1.102220
  S    -39.758100    1.517900   -8.350990
  C    -41.190300    2.122250   -9.201610
  C    -42.205100    2.301050   -8.370360
  C    -41.931100    1.946100   -7.013140
  C    -40.662600    1.388510   -6.827920
  H    -43.127800    2.787580   -8.795070
  C    -42.933200    2.150500   -5.942290
  H    -43.458800    3.118840   -6.172010
  H    -42.391900    2.440750   -5.088090
  C    -43.911500    0.956451   -5.805570
  H    -43.417400   -0.080323   -5.688030
  H    -44.612800    0.808646   -6.621900
  C    -44.916700    1.200520   -4.603880
  H    -45.546500    0.361707   -4.374500
  H    -45.622600    1.968860   -4.778320
  H    -44.476100    1.418540   -3.675360
  H    -37.084600   -0.213961   -3.648050
  H    -41.340500    2.326720  -10.216600

 Total Charge           Charge          ....    0
 Multiplicity           Mult            ....    1
 Number of Electrons    NEL             ....  134
 Basis Dimension        Dim             ....  322

ORBITAL ENERGIES
----------------

  NO   OCC          E(Eh)            E(eV)
   0   2.0000     -88.962797     -2420.8008
   1   2.0000     -88.961182     -2420.7568
   2   2.0000     -10.332301      -281.1562
   3   2.0000     -10.328516      -281.0532
   4   2.0000     -10.317862      -280.7633
   5   2.0000     -10.308622      -280.5119
   6   2.0000     -10.304075      -280.3881
   7   2.0000     -10.299568      -280.2655
   8   2.0000     -10.299146      -280.2540
   9   2.0000     -10.293186      -280.0918
  10   2.0000     -10.291031      -280.0332
  11   2.0000     -10.290472      -280.0180
  12   2.0000     -10.287590      -279.9395
  13   2.0000     -10.281859      -279.7836
  14   2.0000     -10.276805      -279.6461
  15   2.0000     -10.268629      -279.4236
  16   2.0000      -8.076174      -219.7639
  17   2.0000      -8.075441      -219.7439
  18   2.0000      -6.034970      -164.2199
  19   2.0000      -6.034210      -164.1992
  20   2.0000      -6.030877      -164.1085
  21   2.0000      -6.030030      -164.0855
  22   2.0000      -6.026680      -163.9943
  23   2.0000      -6.025892      -163.9729
  24   2.0000      -1.004886       -27.3444
  25   2.0000      -0.981438       -26.7063
  26   2.0000      -0.913096       -24.8466
  27   2.0000      -0.905942       -24.6519
  28   2.0000      -0.876818       -23.8594
  29   2.0000      -0.849741       -23.1226
  30   2.0000      -0.844069       -22.9683
  31   2.0000      -0.824359       -22.4319
  32   2.0000      -0.780609       -21.2414
  33   2.0000      -0.770257       -20.9598
  34   2.0000      -0.716254       -19.4903
  35   2.0000      -0.705425       -19.1956
  36   2.0000      -0.700259       -19.0550
  37   2.0000      -0.658863       -17.9286
  38   2.0000      -0.641884       -17.4665
  39   2.0000      -0.622278       -16.9330
  40   2.0000      -0.594411       -16.1747
  41   2.0000      -0.576007       -15.6739
  42   2.0000      -0.561146       -15.2696
  43   2.0000      -0.552166       -15.0252
  44   2.0000      -0.533459       -14.5162
  45   2.0000      -0.527288       -14.3482
  46   2.0000      -0.518079       -14.0977
  47   2.0000      -0.512076       -13.9343
  48   2.0000      -0.508479       -13.8364
  49   2.0000      -0.502955       -13.6861
  50   2.0000      -0.498888       -13.5754
  51   2.0000      -0.478477       -13.0200
  52   2.0000      -0.472853       -12.8670
  53   2.0000      -0.463410       -12.6100
  54   2.0000      -0.455941       -12.4068
  55   2.0000      -0.448824       -12.2131
  56   2.0000      -0.443639       -12.0720
  57   2.0000      -0.441495       -12.0137
  58   2.0000      -0.431069       -11.7300
  59   2.0000      -0.424892       -11.5619
  60   2.0000      -0.417741       -11.3673
  61   2.0000      -0.415801       -11.3145
  62   2.0000      -0.411774       -11.2049
  63   2.0000      -0.355103        -9.6628
  64   2.0000      -0.327879        -8.9220
  65   2.0000      -0.325112        -8.8468
  66   2.0000      -0.293283        -7.9806
  67   0.0000       0.025423         0.6918
  68   0.0000       0.075325         2.0497
  69   0.0000       0.106084         2.8867
  70   0.0000       0.114322         3.1109
  71   0.0000       0.141228         3.8430

MULLIKEN ATOMIC CHARGES
-----------------------
   0 S :    0.086087
   1 C :   -0.120948
   2 C :   -0.105014
   3 C :    0.016515
   4 C :   -0.130861
   5 H :    0.013864
   6 C :    0.078535
   7 H :    0.010830
   8 H :    0.024480
   9 C :   -0.062804
  10 H :    0.024700
  11 H :    0.017325
  12 C :   -0.017755
  13 H :    0.033147
  14 H :    0.033059
  15 H :    0.028219
  16 S :    0.087938
  17 C :   -0.046110
  18 C :   -0.057093
  19 C :   -0.071322
  20 C :   -0.118473
  21 H :    0.035629
  22 C :    0.112936
  23 H :    0.024330
  24 H :   -0.011276
  25 C :   -0.078626
  26 H :    0.056607
  27 H :    0.033482
  28 C :   -0.026309
  29 H :    0.020225
  30 H :    0.015895
  31 H :    0.013566
  32 H :    0.050901
  33 H :    0.028322
Sum of atomic charges:   -0.0000000

LOEWDIN ATOMIC CHARGES
----------------------
   0 S :    0.357172
   1 C :   -0.185760
   2 C :   -0.062433
   3 C :   -0.062085
   4 C :   -0.170987
   5 H :    0.027344
   6 C :   -0.029776
   7 H :    0.025103
   8 H :    0.030548
   9 C :   -0.033416
  10 H :    0.023481
  11 H :    0.018211
  12 C :   -0.062976
  13 H :    0.023818
  14 H :    0.030262
  15 H :    0.028260
  16 S :    0.384828
  17 C :   -0.167065
  18 C :   -0.080293
  19 C :   -0.053895
  20 C :   -0.188328
  21 H :    0.043630
  22 C :   -0.034413
  23 H :    0.040084
  24 H :    0.020582
  25 C :   -0.033986
  26 H :    0.039361
  27 H :    0.026478
  28 C :   -0.066790
  29 H :    0.024517
  30 H :    0.018700
  31 H :    0.015121
  32 H :    0.031218
  33 H :    0.023486

  Mayer bond orders larger than 0.100000
B(  0-S ,  1-C ) :   1.1101 B(  0-S ,  4-C ) :   1.1172 B(  1-C ,  2-C ) :   1.6344
B(  1-C , 32-H ) :   0.9678 B(  2-C ,  3-C ) :   1.2024 B(  2-C ,  6-C ) :   1.0300
B(  3-C ,  4-C ) :   1.6262 B(  3-C ,  5-H ) :   0.9860 B(  4-C , 20-C ) :   1.0449
B(  6-C ,  7-H ) :   0.9396 B(  6-C ,  8-H ) :   0.9290 B(  6-C ,  9-C ) :   1.0683
B(  9-C , 10-H ) :   0.9555 B(  9-C , 11-H ) :   0.9577 B(  9-C , 12-C ) :   1.0853
B( 12-C , 13-H ) :   0.9749 B( 12-C , 14-H ) :   0.9762 B( 12-C , 15-H ) :   0.9730
B( 16-S , 17-C ) :   1.1274 B( 16-S , 20-C ) :   1.1220 B( 17-C , 18-C ) :   1.6709
B( 17-C , 33-H ) :   0.9644 B( 18-C , 19-C ) :   1.2157 B( 18-C , 21-H ) :   0.9801
B( 19-C , 20-C ) :   1.6043 B( 19-C , 22-C ) :   1.0552 B( 22-C , 23-H ) :   0.9257
B( 22-C , 24-H ) :   0.9292 B( 22-C , 25-C ) :   1.0485 B( 25-C , 26-H ) :   0.9612
B( 25-C , 27-H ) :   0.9586 B( 25-C , 28-C ) :   1.0695 B( 28-C , 29-H ) :   0.9743
B( 28-C , 30-H ) :   0.9761 B( 28-C , 31-H ) :   0.9779

Dispersion correction           -0.013495958
FINAL SINGLE POINT ENERGY     -1339.863779361595

DIPOLE MOMENT
-------------
                                X             Y             Z
Electronic contribution:     11.69164     -11.12107     -22.85826
Nuclear contribution   :    -12.13224      11.68671      23.30575
                        -----------------------------------------
Total Dipole Moment    :     -0.44060       0.56564       0.44750
                        -----------------------------------------
Magnitude (a.u.)       :      0.84518
Magnitude (Debye)      :      2.14828

Rotational constants in cm-1:     0.016676     0.008273     0.006704
Rotational constants in MHz :   499.945417   248.029169   200.979631

                             ****ORCA TERMINATED NORMALLY****
TOTAL RUN TIME: 0 days 0 hours 0 minutes 21 seconds 150 msec
