                         Program Version 4.2.1 -  RELEASE  -
|  1> ! wB97X-D3 SP def2-SVP
|  2> %pal
|  3> nprocs 24
|  4> end
|  5>
|  6> * xyz 0 1
|  7> S 	 -111.624 	 46.3454 	 -75.406
|  8> C 	 -111.357 	 46.0429 	 -77.1043
|  9> C 	 -110.439 	 46.8904 	 -77.6396
| 10> C 	 -109.931 	 47.8138 	 -76.6789
| 11> C 	 -110.531 	 47.6851 	 -75.4509
| 12> H 	 -109.264 	 48.5863 	 -76.8344
| 13> C 	 -110.166 	 47.006 	 -79.1255
| 14> H 	 -110.082 	 45.9952 	 -79.5037
| 15> H 	 -109.142 	 47.3917 	 -79.354
| 16> C 	 -111.236 	 47.7786 	 -79.8901
| 17> H 	 -111.117 	 47.6538 	 -80.8769
| 18> H 	 -112.16 	 47.1814 	 -79.7565
| 19> C 	 -111.455 	 49.195 	 -79.3501
| 20> H 	 -110.62 	 49.8605 	 -79.6787
| 21> H 	 -112.365 	 49.674 	 -79.7643
| 22> H 	 -111.634 	 49.2735 	 -78.2724
| 23> S 	 -109.253 	 47.749 	 -72.9855
| 24> C 	 -109.329 	 49.2734 	 -72.0903
| 25> C 	 -110.002 	 50.2733 	 -72.7646
| 26> C 	 -110.497 	 49.8015 	 -73.987
| 27> C 	 -110.274 	 48.4805 	 -74.2674
| 28> H 	 -110.024 	 51.3242 	 -72.4369
| 29> C 	 -111.257 	 50.763 	 -74.9035
| 30> H 	 -111.988 	 51.2303 	 -74.2759
| 31> H 	 -111.776 	 50.2228 	 -75.7038
| 32> C 	 -110.378 	 51.8885 	 -75.48
| 33> H 	 -109.448 	 51.4244 	 -75.8782
| 34> H 	 -110.195 	 52.4947 	 -74.6526
| 35> C 	 -110.986 	 52.8635 	 -76.4618
| 36> H 	 -110.361 	 53.7487 	 -76.5119
| 37> H 	 -112.028 	 53.0838 	 -76.2396
| 38> H 	 -110.883 	 52.3776 	 -77.5013
| 39> H 	 -111.96 	 45.2887 	 -77.6573
| 40> H 	 -108.886 	 49.4504 	 -71.2096
| 41> *
| 42>
| 43>                          ****END OF INPUT****

CARTESIAN COORDINATES (ANGSTROEM)
---------------------------------
  S    -111.624000   46.345400  -75.406000
  C    -111.357000   46.042900  -77.104300
  C    -110.439000   46.890400  -77.639600
  C    -109.931000   47.813800  -76.678900
  C    -110.531000   47.685100  -75.450900
  H    -109.264000   48.586300  -76.834400
  C    -110.166000   47.006000  -79.125500
  H    -110.082000   45.995200  -79.503700
  H    -109.142000   47.391700  -79.354000
  C    -111.236000   47.778600  -79.890100
  H    -111.117000   47.653800  -80.876900
  H    -112.160000   47.181400  -79.756500
  C    -111.455000   49.195000  -79.350100
  H    -110.620000   49.860500  -79.678700
  H    -112.365000   49.674000  -79.764300
  H    -111.634000   49.273500  -78.272400
  S    -109.253000   47.749000  -72.985500
  C    -109.329000   49.273400  -72.090300
  C    -110.002000   50.273300  -72.764600
  C    -110.497000   49.801500  -73.987000
  C    -110.274000   48.480500  -74.267400
  H    -110.024000   51.324200  -72.436900
  C    -111.257000   50.763000  -74.903500
  H    -111.988000   51.230300  -74.275900
  H    -111.776000   50.222800  -75.703800
  C    -110.378000   51.888500  -75.480000
  H    -109.448000   51.424400  -75.878200
  H    -110.195000   52.494700  -74.652600
  C    -110.986000   52.863500  -76.461800
  H    -110.361000   53.748700  -76.511900
  H    -112.028000   53.083800  -76.239600
  H    -110.883000   52.377600  -77.501300
  H    -111.960000   45.288700  -77.657300
  H    -108.886000   49.450400  -71.209600

 Total Charge           Charge          ....    0
 Multiplicity           Mult            ....    1
 Number of Electrons    NEL             ....  134
 Basis Dimension        Dim             ....  322

ORBITAL ENERGIES
----------------

  NO   OCC          E(Eh)            E(eV)
   0   2.0000     -88.964332     -2420.8425
   1   2.0000     -88.963574     -2420.8219
   2   2.0000     -10.323122      -280.9064
   3   2.0000     -10.322798      -280.8976
   4   2.0000     -10.313507      -280.6448
   5   2.0000     -10.312344      -280.6131
   6   2.0000     -10.298487      -280.2361
   7   2.0000     -10.297292      -280.2036
   8   2.0000     -10.292731      -280.0795
   9   2.0000     -10.291424      -280.0439
  10   2.0000     -10.287218      -279.9294
  11   2.0000     -10.286857      -279.9196
  12   2.0000     -10.282747      -279.8078
  13   2.0000     -10.282030      -279.7883
  14   2.0000     -10.280525      -279.7473
  15   2.0000     -10.280482      -279.7461
  16   2.0000      -8.079055      -219.8423
  17   2.0000      -8.078270      -219.8209
  18   2.0000      -6.037423      -164.2866
  19   2.0000      -6.036792      -164.2695
  20   2.0000      -6.033433      -164.1781
  21   2.0000      -6.033013      -164.1666
  22   2.0000      -6.029946      -164.0832
  23   2.0000      -6.028942      -164.0558
  24   2.0000      -1.008311       -27.4375
  25   2.0000      -0.985259       -26.8103
  26   2.0000      -0.914726       -24.8910
  27   2.0000      -0.909482       -24.7483
  28   2.0000      -0.869771       -23.6677
  29   2.0000      -0.852292       -23.1920
  30   2.0000      -0.846241       -23.0274
  31   2.0000      -0.815597       -22.1935
  32   2.0000      -0.784525       -21.3480
  33   2.0000      -0.772872       -21.0309
  34   2.0000      -0.709812       -19.3150
  35   2.0000      -0.703521       -19.1438
  36   2.0000      -0.692726       -18.8500
  37   2.0000      -0.664244       -18.0750
  38   2.0000      -0.647201       -17.6112
  39   2.0000      -0.612847       -16.6764
  40   2.0000      -0.596477       -16.2310
  41   2.0000      -0.575524       -15.6608
  42   2.0000      -0.573721       -15.6117
  43   2.0000      -0.553041       -15.0490
  44   2.0000      -0.542895       -14.7729
  45   2.0000      -0.527012       -14.3407
  46   2.0000      -0.517359       -14.0780
  47   2.0000      -0.509879       -13.8745
  48   2.0000      -0.506202       -13.7744
  49   2.0000      -0.496543       -13.5116
  50   2.0000      -0.489378       -13.3167
  51   2.0000      -0.480173       -13.0662
  52   2.0000      -0.470739       -12.8095
  53   2.0000      -0.465692       -12.6721
  54   2.0000      -0.462181       -12.5766
  55   2.0000      -0.450915       -12.2700
  56   2.0000      -0.443897       -12.0791
  57   2.0000      -0.436119       -11.8674
  58   2.0000      -0.431037       -11.7291
  59   2.0000      -0.429712       -11.6931
  60   2.0000      -0.419738       -11.4216
  61   2.0000      -0.410799       -11.1784
  62   2.0000      -0.410086       -11.1590
  63   2.0000      -0.338757        -9.2180
  64   2.0000      -0.329581        -8.9683
  65   2.0000      -0.328349        -8.9348
  66   2.0000      -0.304585        -8.2882
  67   0.0000       0.041771         1.1366
  68   0.0000       0.058451         1.5905
  69   0.0000       0.113986         3.1017
  70   0.0000       0.121202         3.2981
  71   0.0000       0.125016         3.4019

MULLIKEN ATOMIC CHARGES
-----------------------
   0 S :    0.119059
   1 C :   -0.145879
   2 C :   -0.070817
   3 C :    0.079786
   4 C :   -0.194410
   5 H :   -0.024504
   6 C :    0.047031
   7 H :    0.017564
   8 H :    0.024325
   9 C :    0.009373
  10 H :   -0.001999
  11 H :    0.011533
  12 C :   -0.078335
  13 H :    0.036530
  14 H :    0.030598
  15 H :    0.054620
  16 S :    0.101302
  17 C :   -0.031711
  18 C :   -0.047510
  19 C :   -0.020403
  20 C :   -0.167105
  21 H :    0.032380
  22 C :    0.093947
  23 H :    0.013587
  24 H :    0.027745
  25 C :   -0.096679
  26 H :    0.037958
  27 H :    0.007586
  28 C :   -0.043634
  29 H :    0.037634
  30 H :    0.035809
  31 H :    0.037433
  32 H :    0.061758
  33 H :    0.005429
Sum of atomic charges:   -0.0000000

LOEWDIN ATOMIC CHARGES
----------------------
   0 S :    0.416409
   1 C :   -0.197345
   2 C :   -0.066415
   3 C :   -0.045820
   4 C :   -0.203929
   5 H :    0.019207
   6 C :   -0.032700
   7 H :    0.029222
   8 H :    0.029647
   9 C :   -0.032512
  10 H :    0.008480
  11 H :    0.027363
  12 C :   -0.071449
  13 H :    0.028013
  14 H :    0.029451
  15 H :    0.029533
  16 S :    0.380556
  17 C :   -0.147570
  18 C :   -0.071788
  19 C :   -0.052387
  20 C :   -0.193931
  21 H :    0.038708
  22 C :   -0.025137
  23 H :    0.025935
  24 H :    0.025630
  25 C :   -0.043719
  26 H :    0.027324
  27 H :    0.012166
  28 C :   -0.065465
  29 H :    0.027413
  30 H :    0.025284
  31 H :    0.032982
  32 H :    0.034657
  33 H :    0.002185

  Mayer bond orders larger than 0.100000
B(  0-S ,  1-C ) :   1.1418 B(  0-S ,  4-C ) :   1.1633 B(  1-C ,  2-C ) :   1.6194
B(  1-C , 32-H ) :   0.9644 B(  2-C ,  3-C ) :   1.2230 B(  2-C ,  6-C ) :   1.0236
B(  3-C ,  4-C ) :   1.5834 B(  3-C ,  5-H ) :   1.0156 B(  4-C , 20-C ) :   1.0076
B(  6-C ,  7-H ) :   0.9336 B(  6-C ,  8-H ) :   0.9438 B(  6-C ,  9-C ) :   1.0777
B(  9-C , 10-H ) :   0.9530 B(  9-C , 11-H ) :   0.9471 B(  9-C , 12-C ) :   1.0710
B( 12-C , 13-H ) :   0.9747 B( 12-C , 14-H ) :   0.9707 B( 12-C , 15-H ) :   0.9705
B( 16-S , 17-C ) :   1.1583 B( 16-S , 20-C ) :   1.1183 B( 17-C , 18-C ) :   1.6144
B( 17-C , 20-C ) :   0.1008 B( 17-C , 33-H ) :   0.9771 B( 18-C , 19-C ) :   1.2343
B( 18-C , 21-H ) :   0.9854 B( 19-C , 20-C ) :   1.6419 B( 19-C , 22-C ) :   1.0424
B( 22-C , 23-H ) :   0.9265 B( 22-C , 24-H ) :   0.9386 B( 22-C , 25-C ) :   1.0613
B( 25-C , 26-H ) :   0.9586 B( 25-C , 27-H ) :   0.9524 B( 25-C , 28-C ) :   1.0916
B( 28-C , 29-H ) :   0.9741 B( 28-C , 30-H ) :   0.9701 B( 28-C , 31-H ) :   0.9756

Dispersion correction           -0.015716133
FINAL SINGLE POINT ENERGY     -1339.875591590284

DIPOLE MOMENT
-------------
                                X             Y             Z
Electronic contribution:      3.86535     -20.58130      22.19782
Nuclear contribution   :     -3.88600      21.13950     -22.67731
                        -----------------------------------------
Total Dipole Moment    :     -0.02065       0.55819      -0.47949
                        -----------------------------------------
Magnitude (a.u.)       :      0.73615
Magnitude (Debye)      :      1.87114

Rotational constants in cm-1:     0.017148     0.010670     0.007242
Rotational constants in MHz :   514.076029   319.867921   217.113973

                             ****ORCA TERMINATED NORMALLY****
TOTAL RUN TIME: 0 days 0 hours 0 minutes 22 seconds 784 msec
