                         Program Version 4.2.1 -  RELEASE  -
|  1> ! wB97X-D3 SP def2-SVP
|  2> %pal
|  3> nprocs 24
|  4> end
|  5>
|  6> * xyz 0 1
|  7> S 	 -31.6527 	 -34.4642 	 -95.1374
|  8> C 	 -31.7723 	 -34.8634 	 -93.3977
|  9> C 	 -30.67 	 -35.5605 	 -92.9575
| 10> C 	 -29.6007 	 -35.4662 	 -93.9143
| 11> C 	 -29.9499 	 -34.9811 	 -95.151
| 12> H 	 -28.5459 	 -35.7956 	 -93.7372
| 13> C 	 -30.4993 	 -36.0063 	 -91.5083
| 14> H 	 -30.393 	 -35.1679 	 -90.9164
| 15> H 	 -29.5939 	 -36.4958 	 -91.4563
| 16> C 	 -31.5261 	 -37.0549 	 -91.0727
| 17> H 	 -32.5323 	 -36.5771 	 -91.199
| 18> H 	 -31.5464 	 -37.9998 	 -91.6454
| 19> C 	 -31.4333 	 -37.4588 	 -89.5525
| 20> H 	 -31.403 	 -38.5407 	 -89.4777
| 21> H 	 -30.4851 	 -37.0341 	 -89.1457
| 22> H 	 -32.2595 	 -37.089 	 -88.9456
| 23> S 	 -29.3385 	 -35.3937 	 -97.872
| 24> C 	 -27.8018 	 -34.8111 	 -98.4721
| 25> C 	 -27.197 	 -34.0057 	 -97.5155
| 26> C 	 -27.8758 	 -33.9834 	 -96.2574
| 27> C 	 -29.0287 	 -34.7304 	 -96.2761
| 28> H 	 -26.3854 	 -33.3449 	 -97.7549
| 29> C 	 -27.3934 	 -33.0639 	 -95.1875
| 30> H 	 -26.9504 	 -33.5571 	 -94.3139
| 31> H 	 -28.3143 	 -32.647 	 -94.8428
| 32> C 	 -26.543 	 -31.8606 	 -95.4504
| 33> H 	 -26.978 	 -31.3436 	 -96.2385
| 34> H 	 -25.5969 	 -32.3755 	 -95.7325
| 35> C 	 -26.3414 	 -30.9862 	 -94.2407
| 36> H 	 -27.2106 	 -30.4416 	 -94.0111
| 37> H 	 -25.5955 	 -30.2396 	 -94.4364
| 38> H 	 -26.0988 	 -31.4484 	 -93.2367
| 39> H 	 -32.6634 	 -34.6729 	 -92.8237
| 40> H 	 -27.4234 	 -34.8757 	 -99.4698
| 41> *
| 42>
| 43>                          ****END OF INPUT****

CARTESIAN COORDINATES (ANGSTROEM)
---------------------------------
  S    -31.652700  -34.464200  -95.137400
  C    -31.772300  -34.863400  -93.397700
  C    -30.670000  -35.560500  -92.957500
  C    -29.600700  -35.466200  -93.914300
  C    -29.949900  -34.981100  -95.151000
  H    -28.545900  -35.795600  -93.737200
  C    -30.499300  -36.006300  -91.508300
  H    -30.393000  -35.167900  -90.916400
  H    -29.593900  -36.495800  -91.456300
  C    -31.526100  -37.054900  -91.072700
  H    -32.532300  -36.577100  -91.199000
  H    -31.546400  -37.999800  -91.645400
  C    -31.433300  -37.458800  -89.552500
  H    -31.403000  -38.540700  -89.477700
  H    -30.485100  -37.034100  -89.145700
  H    -32.259500  -37.089000  -88.945600
  S    -29.338500  -35.393700  -97.872000
  C    -27.801800  -34.811100  -98.472100
  C    -27.197000  -34.005700  -97.515500
  C    -27.875800  -33.983400  -96.257400
  C    -29.028700  -34.730400  -96.276100
  H    -26.385400  -33.344900  -97.754900
  C    -27.393400  -33.063900  -95.187500
  H    -26.950400  -33.557100  -94.313900
  H    -28.314300  -32.647000  -94.842800
  C    -26.543000  -31.860600  -95.450400
  H    -26.978000  -31.343600  -96.238500
  H    -25.596900  -32.375500  -95.732500
  C    -26.341400  -30.986200  -94.240700
  H    -27.210600  -30.441600  -94.011100
  H    -25.595500  -30.239600  -94.436400
  H    -26.098800  -31.448400  -93.236700
  H    -32.663400  -34.672900  -92.823700
  H    -27.423400  -34.875700  -99.469800

 Total Charge           Charge          ....    0
 Multiplicity           Mult            ....    1
 Number of Electrons    NEL             ....  134
 Basis Dimension        Dim             ....  322

ORBITAL ENERGIES
----------------

  NO   OCC          E(Eh)            E(eV)
   0   2.0000     -88.966616     -2420.9047
   1   2.0000     -88.964813     -2420.8556
   2   2.0000     -10.330185      -281.0986
   3   2.0000     -10.325686      -280.9762
   4   2.0000     -10.316600      -280.7290
   5   2.0000     -10.316435      -280.7245
   6   2.0000     -10.302131      -280.3352
   7   2.0000     -10.299190      -280.2552
   8   2.0000     -10.298236      -280.2292
   9   2.0000     -10.292574      -280.0752
  10   2.0000     -10.289902      -280.0025
  11   2.0000     -10.283534      -279.8292
  12   2.0000     -10.282078      -279.7896
  13   2.0000     -10.281774      -279.7813
  14   2.0000     -10.279324      -279.7146
  15   2.0000     -10.277373      -279.6615
  16   2.0000      -8.081095      -219.8978
  17   2.0000      -8.078601      -219.8299
  18   2.0000      -6.039697      -164.3485
  19   2.0000      -6.037211      -164.2809
  20   2.0000      -6.035614      -164.2374
  21   2.0000      -6.033368      -164.1763
  22   2.0000      -6.031815      -164.1340
  23   2.0000      -6.029190      -164.0626
  24   2.0000      -1.003056       -27.2945
  25   2.0000      -0.981272       -26.7018
  26   2.0000      -0.920773       -25.0555
  27   2.0000      -0.910542       -24.7771
  28   2.0000      -0.865874       -23.5616
  29   2.0000      -0.853724       -23.2310
  30   2.0000      -0.842048       -22.9133
  31   2.0000      -0.813489       -22.1362
  32   2.0000      -0.785614       -21.3776
  33   2.0000      -0.775677       -21.1072
  34   2.0000      -0.707684       -19.2570
  35   2.0000      -0.704693       -19.1757
  36   2.0000      -0.695188       -18.9170
  37   2.0000      -0.653421       -17.7805
  38   2.0000      -0.641602       -17.4589
  39   2.0000      -0.614191       -16.7130
  40   2.0000      -0.601803       -16.3759
  41   2.0000      -0.582733       -15.8570
  42   2.0000      -0.571094       -15.5403
  43   2.0000      -0.560096       -15.2410
  44   2.0000      -0.528011       -14.3679
  45   2.0000      -0.523106       -14.2344
  46   2.0000      -0.516295       -14.0491
  47   2.0000      -0.512969       -13.9586
  48   2.0000      -0.509783       -13.8719
  49   2.0000      -0.499006       -13.5786
  50   2.0000      -0.496650       -13.5145
  51   2.0000      -0.481805       -13.1106
  52   2.0000      -0.470652       -12.8071
  53   2.0000      -0.461309       -12.5529
  54   2.0000      -0.458887       -12.4870
  55   2.0000      -0.454481       -12.3671
  56   2.0000      -0.444954       -12.1078
  57   2.0000      -0.437895       -11.9157
  58   2.0000      -0.433824       -11.8049
  59   2.0000      -0.427257       -11.6262
  60   2.0000      -0.420650       -11.4465
  61   2.0000      -0.411378       -11.1942
  62   2.0000      -0.401931       -10.9371
  63   2.0000      -0.342205        -9.3119
  64   2.0000      -0.332109        -9.0372
  65   2.0000      -0.328658        -8.9432
  66   2.0000      -0.294698        -8.0191
  67   0.0000       0.033776         0.9191
  68   0.0000       0.061843         1.6828
  69   0.0000       0.111692         3.0393
  70   0.0000       0.123707         3.3662
  71   0.0000       0.127826         3.4783

MULLIKEN ATOMIC CHARGES
-----------------------
   0 S :    0.096309
   1 C :   -0.132937
   2 C :   -0.089462
   3 C :    0.004066
   4 C :   -0.141726
   5 H :    0.031971
   6 C :    0.146394
   7 H :    0.029310
   8 H :   -0.007878
   9 C :   -0.130287
  10 H :    0.029072
  11 H :    0.046193
  12 C :   -0.052459
  13 H :    0.035025
  14 H :    0.029832
  15 H :    0.041319
  16 S :    0.113453
  17 C :   -0.077510
  18 C :   -0.050203
  19 C :   -0.009528
  20 C :   -0.170842
  21 H :    0.018305
  22 C :    0.042177
  23 H :    0.026553
  24 H :    0.014042
  25 C :   -0.055103
  26 H :    0.021334
  27 H :    0.032578
  28 C :   -0.021993
  29 H :    0.015467
  30 H :    0.029811
  31 H :    0.033285
  32 H :    0.053023
  33 H :    0.050406
Sum of atomic charges:    0.0000000

LOEWDIN ATOMIC CHARGES
----------------------
   0 S :    0.371005
   1 C :   -0.172560
   2 C :   -0.060620
   3 C :   -0.061817
   4 C :   -0.186222
   5 H :    0.039692
   6 C :   -0.021529
   7 H :    0.026376
   8 H :    0.019548
   9 C :   -0.041732
  10 H :    0.022779
  11 H :    0.031419
  12 C :   -0.069267
  13 H :    0.025397
  14 H :    0.026651
  15 H :    0.026533
  16 S :    0.407155
  17 C :   -0.183575
  18 C :   -0.071001
  19 C :   -0.055177
  20 C :   -0.201524
  21 H :    0.028013
  22 C :   -0.040044
  23 H :    0.030421
  24 H :    0.028832
  25 C :   -0.035982
  26 H :    0.018280
  27 H :    0.026722
  28 C :   -0.061659
  29 H :    0.020187
  30 H :    0.027487
  31 H :    0.033930
  32 H :    0.024466
  33 H :    0.027818

  Mayer bond orders larger than 0.100000
B(  0-S ,  1-C ) :   1.1330 B(  0-S ,  4-C ) :   1.1256 B(  1-C ,  2-C ) :   1.6206
B(  1-C , 32-H ) :   0.9699 B(  2-C ,  3-C ) :   1.2199 B(  2-C ,  6-C ) :   1.0163
B(  3-C ,  4-C ) :   1.6182 B(  3-C ,  5-H ) :   0.9846 B(  4-C , 20-C ) :   1.0255
B(  6-C ,  7-H ) :   0.9422 B(  6-C ,  8-H ) :   0.9261 B(  6-C ,  9-C ) :   1.0600
B(  9-C , 10-H ) :   0.9679 B(  9-C , 11-H ) :   0.9659 B(  9-C , 12-C ) :   1.0548
B( 12-C , 13-H ) :   0.9815 B( 12-C , 14-H ) :   0.9789 B( 12-C , 15-H ) :   0.9800
B( 16-S , 17-C ) :   1.1586 B( 16-S , 20-C ) :   1.1349 B( 17-C , 18-C ) :   1.5952
B( 17-C , 33-H ) :   0.9674 B( 18-C , 19-C ) :   1.2605 B( 18-C , 21-H ) :   0.9821
B( 19-C , 20-C ) :   1.6045 B( 19-C , 22-C ) :   1.0218 B( 22-C , 23-H ) :   0.9243
B( 22-C , 24-H ) :   0.9276 B( 22-C , 25-C ) :   1.0869 B( 25-C , 26-H ) :   0.9504
B( 25-C , 27-H ) :   0.9437 B( 25-C , 28-C ) :   1.0913 B( 28-C , 29-H ) :   0.9691
B( 28-C , 30-H ) :   0.9703 B( 28-C , 31-H ) :   0.9722

Dispersion correction           -0.013410019
FINAL SINGLE POINT ENERGY     -1339.861940228889

DIPOLE MOMENT
-------------
                                X             Y             Z
Electronic contribution:     -9.24648      -4.25121     -25.32483
Nuclear contribution   :      9.61123       4.53075      25.91854
                        -----------------------------------------
Total Dipole Moment    :      0.36475       0.27954       0.59371
                        -----------------------------------------
Magnitude (a.u.)       :      0.75078
Magnitude (Debye)      :      1.90834

Rotational constants in cm-1:     0.018984     0.007295     0.005984
Rotational constants in MHz :   569.130230   218.692920   179.391444

                             ****ORCA TERMINATED NORMALLY****
TOTAL RUN TIME: 0 days 0 hours 0 minutes 20 seconds 871 msec
