                         Program Version 4.2.1 -  RELEASE  -
|  1> ! wB97X-D3 SP def2-SVP
|  2> %pal
|  3> nprocs 24
|  4> end
|  5>
|  6> * xyz 0 1
|  7> S 	 -112.417 	 60.6229 	 -67.344
|  8> C 	 -112.825 	 59.4795 	 -66.0333
|  9> C 	 -113.531 	 60.0651 	 -64.9811
| 10> C 	 -113.596 	 61.4484 	 -65.1703
| 11> C 	 -113.088 	 61.9132 	 -66.3619
| 12> H 	 -114.126 	 62.1372 	 -64.5958
| 13> C 	 -114.129 	 59.2976 	 -63.833
| 14> H 	 -114.25 	 60.0086 	 -63.034
| 15> H 	 -113.383 	 58.6274 	 -63.4024
| 16> C 	 -115.542 	 58.6577 	 -64.1263
| 17> H 	 -116.228 	 59.3924 	 -64.512
| 18> H 	 -115.382 	 57.9669 	 -64.9548
| 19> C 	 -116.195 	 58.0264 	 -62.8479
| 20> H 	 -116.895 	 57.3777 	 -63.2583
| 21> H 	 -115.447 	 57.4542 	 -62.2905
| 22> H 	 -116.584 	 58.7515 	 -62.1363
| 23> S 	 -111.483 	 63.9399 	 -67.0261
| 24> C 	 -112.121 	 65.5435 	 -67.3211
| 25> C 	 -113.491 	 65.5317 	 -67.2923
| 26> C 	 -114.001 	 64.1956 	 -67.0542
| 27> C 	 -113.01 	 63.2704 	 -66.8019
| 28> H 	 -114.011 	 66.4182 	 -67.5088
| 29> C 	 -115.464 	 63.8688 	 -66.9985
| 30> H 	 -115.792 	 64.2477 	 -66.0432
| 31> H 	 -115.618 	 62.7648 	 -67.0089
| 32> C 	 -116.304 	 64.397 	 -68.2141
| 33> H 	 -116.015 	 65.4048 	 -68.3752
| 34> H 	 -117.379 	 64.2279 	 -67.9715
| 35> C 	 -116.017 	 63.5383 	 -69.4861
| 36> H 	 -116.35 	 62.5281 	 -69.3195
| 37> H 	 -114.915 	 63.5946 	 -69.6972
| 38> H 	 -116.587 	 63.8708 	 -70.4025
| 39> H 	 -112.785 	 58.4128 	 -66.0755
| 40> H 	 -111.554 	 66.4533 	 -67.6055
| 41> *
| 42>
| 43>                          ****END OF INPUT****

CARTESIAN COORDINATES (ANGSTROEM)
---------------------------------
  S    -112.417000   60.622900  -67.344000
  C    -112.825000   59.479500  -66.033300
  C    -113.531000   60.065100  -64.981100
  C    -113.596000   61.448400  -65.170300
  C    -113.088000   61.913200  -66.361900
  H    -114.126000   62.137200  -64.595800
  C    -114.129000   59.297600  -63.833000
  H    -114.250000   60.008600  -63.034000
  H    -113.383000   58.627400  -63.402400
  C    -115.542000   58.657700  -64.126300
  H    -116.228000   59.392400  -64.512000
  H    -115.382000   57.966900  -64.954800
  C    -116.195000   58.026400  -62.847900
  H    -116.895000   57.377700  -63.258300
  H    -115.447000   57.454200  -62.290500
  H    -116.584000   58.751500  -62.136300
  S    -111.483000   63.939900  -67.026100
  C    -112.121000   65.543500  -67.321100
  C    -113.491000   65.531700  -67.292300
  C    -114.001000   64.195600  -67.054200
  C    -113.010000   63.270400  -66.801900
  H    -114.011000   66.418200  -67.508800
  C    -115.464000   63.868800  -66.998500
  H    -115.792000   64.247700  -66.043200
  H    -115.618000   62.764800  -67.008900
  C    -116.304000   64.397000  -68.214100
  H    -116.015000   65.404800  -68.375200
  H    -117.379000   64.227900  -67.971500
  C    -116.017000   63.538300  -69.486100
  H    -116.350000   62.528100  -69.319500
  H    -114.915000   63.594600  -69.697200
  H    -116.587000   63.870800  -70.402500
  H    -112.785000   58.412800  -66.075500
  H    -111.554000   66.453300  -67.605500

 Total Charge           Charge          ....    0
 Multiplicity           Mult            ....    1
 Number of Electrons    NEL             ....  134
 Basis Dimension        Dim             ....  322

ORBITAL ENERGIES
----------------

  NO   OCC          E(Eh)            E(eV)
   0   2.0000     -88.969400     -2420.9805
   1   2.0000     -88.961640     -2420.7693
   2   2.0000     -10.324146      -280.9343
   3   2.0000     -10.317343      -280.7492
   4   2.0000     -10.314622      -280.6751
   5   2.0000     -10.312780      -280.6250
   6   2.0000     -10.299843      -280.2730
   7   2.0000     -10.298420      -280.2342
   8   2.0000     -10.292792      -280.0811
   9   2.0000     -10.292593      -280.0757
  10   2.0000     -10.291478      -280.0454
  11   2.0000     -10.288308      -279.9591
  12   2.0000     -10.288143      -279.9546
  13   2.0000     -10.285876      -279.8929
  14   2.0000     -10.279859      -279.7292
  15   2.0000     -10.278872      -279.7023
  16   2.0000      -8.083259      -219.9566
  17   2.0000      -8.077789      -219.8078
  18   2.0000      -6.041711      -164.4033
  19   2.0000      -6.037989      -164.3020
  20   2.0000      -6.036268      -164.2552
  21   2.0000      -6.034038      -164.1945
  22   2.0000      -6.031984      -164.1386
  23   2.0000      -6.028593      -164.0463
  24   2.0000      -1.013232       -27.5714
  25   2.0000      -0.984704       -26.7952
  26   2.0000      -0.908574       -24.7235
  27   2.0000      -0.904304       -24.6074
  28   2.0000      -0.872384       -23.7388
  29   2.0000      -0.851389       -23.1675
  30   2.0000      -0.842464       -22.9246
  31   2.0000      -0.817552       -22.2467
  32   2.0000      -0.782679       -21.2978
  33   2.0000      -0.765902       -20.8413
  34   2.0000      -0.709183       -19.2979
  35   2.0000      -0.705498       -19.1976
  36   2.0000      -0.694044       -18.8859
  37   2.0000      -0.657627       -17.8949
  38   2.0000      -0.643475       -17.5098
  39   2.0000      -0.620578       -16.8868
  40   2.0000      -0.597285       -16.2530
  41   2.0000      -0.571218       -15.5436
  42   2.0000      -0.557411       -15.1679
  43   2.0000      -0.550927       -14.9915
  44   2.0000      -0.542818       -14.7708
  45   2.0000      -0.532357       -14.4862
  46   2.0000      -0.520866       -14.1735
  47   2.0000      -0.509106       -13.8535
  48   2.0000      -0.502093       -13.6626
  49   2.0000      -0.499562       -13.5938
  50   2.0000      -0.482361       -13.1257
  51   2.0000      -0.474385       -12.9087
  52   2.0000      -0.470893       -12.8137
  53   2.0000      -0.463051       -12.6002
  54   2.0000      -0.460513       -12.5312
  55   2.0000      -0.451174       -12.2771
  56   2.0000      -0.446107       -12.1392
  57   2.0000      -0.440550       -11.9880
  58   2.0000      -0.433414       -11.7938
  59   2.0000      -0.426813       -11.6142
  60   2.0000      -0.425101       -11.5676
  61   2.0000      -0.418681       -11.3929
  62   2.0000      -0.407625       -11.0920
  63   2.0000      -0.343972        -9.3599
  64   2.0000      -0.334678        -9.1070
  65   2.0000      -0.322872        -8.7858
  66   2.0000      -0.295963        -8.0536
  67   0.0000       0.036397         0.9904
  68   0.0000       0.066879         1.8199
  69   0.0000       0.110299         3.0014
  70   0.0000       0.127759         3.4765
  71   0.0000       0.130384         3.5479

MULLIKEN ATOMIC CHARGES
-----------------------
   0 S :    0.120797
   1 C :   -0.100424
   2 C :   -0.100668
   3 C :    0.081591
   4 C :   -0.192529
   5 H :   -0.018839
   6 C :    0.068078
   7 H :    0.005603
   8 H :    0.033450
   9 C :   -0.080713
  10 H :    0.029046
  11 H :    0.026593
  12 C :   -0.014694
  13 H :    0.029905
  14 H :    0.025073
  15 H :    0.041922
  16 S :    0.118975
  17 C :   -0.106093
  18 C :   -0.025637
  19 C :   -0.048642
  20 C :   -0.155821
  21 H :    0.005593
  22 C :    0.053514
  23 H :    0.035091
  24 H :    0.032006
  25 C :   -0.065869
  26 H :    0.025442
  27 H :    0.039926
  28 C :   -0.085944
  29 H :    0.029146
  30 H :    0.052044
  31 H :    0.042331
  32 H :    0.032398
  33 H :    0.067347
Sum of atomic charges:    0.0000000

LOEWDIN ATOMIC CHARGES
----------------------
   0 S :    0.395988
   1 C :   -0.184001
   2 C :   -0.060825
   3 C :   -0.050581
   4 C :   -0.192268
   5 H :    0.021727
   6 C :   -0.035294
   7 H :    0.025795
   8 H :    0.033461
   9 C :   -0.030230
  10 H :    0.023680
  11 H :    0.021663
  12 C :   -0.057342
  13 H :    0.021227
  14 H :    0.025272
  15 H :    0.028357
  16 S :    0.434331
  17 C :   -0.189785
  18 C :   -0.069651
  19 C :   -0.059211
  20 C :   -0.231905
  21 H :    0.024159
  22 C :   -0.034624
  23 H :    0.028654
  24 H :    0.032886
  25 C :   -0.034770
  26 H :    0.013509
  27 H :    0.029613
  28 C :   -0.071104
  29 H :    0.020223
  30 H :    0.032107
  31 H :    0.030127
  32 H :    0.019930
  33 H :    0.038883

  Mayer bond orders larger than 0.100000
B(  0-S ,  1-C ) :   1.1351 B(  0-S ,  4-C ) :   1.1491 B(  1-C ,  2-C ) :   1.6096
B(  1-C ,  4-C ) :   0.1069 B(  1-C , 32-H ) :   0.9650 B(  2-C ,  3-C ) :   1.2533
B(  2-C ,  6-C ) :   1.0247 B(  3-C ,  4-C ) :   1.5809 B(  3-C ,  5-H ) :   1.0003
B(  4-C , 20-C ) :   1.0261 B(  6-C ,  7-H ) :   0.9370 B(  6-C ,  8-H ) :   0.9385
B(  6-C ,  9-C ) :   1.0489 B(  9-C , 10-H ) :   0.9569 B(  9-C , 11-H ) :   0.9625
B(  9-C , 12-C ) :   1.0682 B( 12-C , 13-H ) :   0.9752 B( 12-C , 14-H ) :   0.9769
B( 12-C , 15-H ) :   0.9770 B( 16-S , 17-C ) :   1.1574 B( 16-S , 20-C ) :   1.1572
B( 17-C , 18-C ) :   1.6180 B( 17-C , 33-H ) :   0.9625 B( 18-C , 19-C ) :   1.2200
B( 18-C , 21-H ) :   0.9989 B( 19-C , 20-C ) :   1.5916 B( 19-C , 22-C ) :   1.0450
B( 22-C , 23-H ) :   0.9331 B( 22-C , 24-H ) :   0.9364 B( 22-C , 25-C ) :   1.0607
B( 25-C , 26-H ) :   0.9614 B( 25-C , 27-H ) :   0.9573 B( 25-C , 28-C ) :   1.0712
B( 28-C , 29-H ) :   0.9740 B( 28-C , 30-H ) :   0.9773 B( 28-C , 31-H ) :   0.9754

Dispersion correction           -0.014369455
FINAL SINGLE POINT ENERGY     -1339.880288020868

DIPOLE MOMENT
-------------
                                X             Y             Z
Electronic contribution:     24.16008       7.74991      -6.76379
Nuclear contribution   :    -24.81855      -7.76124       7.04390
                        -----------------------------------------
Total Dipole Moment    :     -0.65847      -0.01133       0.28011
                        -----------------------------------------
Magnitude (a.u.)       :      0.71566
Magnitude (Debye)      :      1.81907

Rotational constants in cm-1:     0.020199     0.007912     0.006742
Rotational constants in MHz :   605.549643   237.207861   202.130828

                             ****ORCA TERMINATED NORMALLY****
TOTAL RUN TIME: 0 days 0 hours 0 minutes 22 seconds 1 msec
