                         Program Version 4.2.1 -  RELEASE  -
|  1> ! wB97X-D3 SP def2-SVP
|  2> %pal
|  3> nprocs 24
|  4> end
|  5>
|  6> * xyz 0 1
|  7> S 	 -41.6397 	 15.6419 	 22.7296
|  8> C 	 -43.3882 	 15.626 	 22.9386
|  9> C 	 -43.9419 	 14.6692 	 22.1528
| 10> C 	 -43.1295 	 14.1214 	 21.1751
| 11> C 	 -41.8404 	 14.552 	 21.3861
| 12> H 	 -43.3342 	 13.4649 	 20.4016
| 13> C 	 -45.476 	 14.4135 	 22.1321
| 14> H 	 -45.7135 	 14.3432 	 23.1882
| 15> H 	 -45.738 	 13.5184 	 21.5714
| 16> C 	 -46.2706 	 15.6794 	 21.505
| 17> H 	 -45.765 	 16.6614 	 21.5089
| 18> H 	 -46.429 	 15.5106 	 20.508
| 19> C 	 -47.518 	 15.8663 	 22.3428
| 20> H 	 -47.2038 	 16.1932 	 23.3716
| 21> H 	 -48.1284 	 16.6462 	 21.9051
| 22> H 	 -48.0348 	 14.877 	 22.4792
| 23> S 	 -39.3948 	 13.269 	 21.5423
| 24> C 	 -38.544 	 12.7302 	 20.116
| 25> C 	 -39.2893 	 13.095 	 18.9963
| 26> C 	 -40.4972 	 13.761 	 19.2622
| 27> C 	 -40.6796 	 14.0892 	 20.6333
| 28> H 	 -38.8871 	 13.0613 	 17.9931
| 29> C 	 -41.4487 	 14.199 	 18.1172
| 30> H 	 -42.3234 	 13.619 	 18.1878
| 31> H 	 -40.9798 	 13.9425 	 17.2676
| 32> C 	 -41.812 	 15.6869 	 18.0099
| 33> H 	 -40.9723 	 16.3287 	 17.8124
| 34> H 	 -42.4107 	 15.9999 	 18.9276
| 35> C 	 -42.8094 	 15.9998 	 16.8411
| 36> H 	 -43.5748 	 15.256 	 16.6557
| 37> H 	 -42.2079 	 15.9714 	 15.8852
| 38> H 	 -43.4069 	 16.9446 	 16.9228
| 39> H 	 -43.8395 	 16.1487 	 23.7057
| 40> H 	 -37.5104 	 12.3145 	 20.1151
| 41> *
| 42>
| 43>                          ****END OF INPUT****

CARTESIAN COORDINATES (ANGSTROEM)
---------------------------------
  S    -41.639700   15.641900   22.729600
  C    -43.388200   15.626000   22.938600
  C    -43.941900   14.669200   22.152800
  C    -43.129500   14.121400   21.175100
  C    -41.840400   14.552000   21.386100
  H    -43.334200   13.464900   20.401600
  C    -45.476000   14.413500   22.132100
  H    -45.713500   14.343200   23.188200
  H    -45.738000   13.518400   21.571400
  C    -46.270600   15.679400   21.505000
  H    -45.765000   16.661400   21.508900
  H    -46.429000   15.510600   20.508000
  C    -47.518000   15.866300   22.342800
  H    -47.203800   16.193200   23.371600
  H    -48.128400   16.646200   21.905100
  H    -48.034800   14.877000   22.479200
  S    -39.394800   13.269000   21.542300
  C    -38.544000   12.730200   20.116000
  C    -39.289300   13.095000   18.996300
  C    -40.497200   13.761000   19.262200
  C    -40.679600   14.089200   20.633300
  H    -38.887100   13.061300   17.993100
  C    -41.448700   14.199000   18.117200
  H    -42.323400   13.619000   18.187800
  H    -40.979800   13.942500   17.267600
  C    -41.812000   15.686900   18.009900
  H    -40.972300   16.328700   17.812400
  H    -42.410700   15.999900   18.927600
  C    -42.809400   15.999800   16.841100
  H    -43.574800   15.256000   16.655700
  H    -42.207900   15.971400   15.885200
  H    -43.406900   16.944600   16.922800
  H    -43.839500   16.148700   23.705700
  H    -37.510400   12.314500   20.115100

 Total Charge           Charge          ....    0
 Multiplicity           Mult            ....    1
 Number of Electrons    NEL             ....  134
 Basis Dimension        Dim             ....  322

ORBITAL ENERGIES
----------------

  NO   OCC          E(Eh)            E(eV)
   0   2.0000     -88.967774     -2420.9362
   1   2.0000     -88.963725     -2420.8260
   2   2.0000     -10.328033      -281.0401
   3   2.0000     -10.327746      -281.0322
   4   2.0000     -10.321521      -280.8629
   5   2.0000     -10.305259      -280.4204
   6   2.0000     -10.304224      -280.3922
   7   2.0000     -10.296636      -280.1857
   8   2.0000     -10.296492      -280.1818
   9   2.0000     -10.292715      -280.0790
  10   2.0000     -10.289269      -279.9853
  11   2.0000     -10.286277      -279.9038
  12   2.0000     -10.283470      -279.8274
  13   2.0000     -10.283227      -279.8208
  14   2.0000     -10.282949      -279.8133
  15   2.0000     -10.282886      -279.8115
  16   2.0000      -8.082615      -219.9391
  17   2.0000      -8.078052      -219.8150
  18   2.0000      -6.040922      -164.3819
  19   2.0000      -6.037230      -164.2814
  20   2.0000      -6.036551      -164.2629
  21   2.0000      -6.033462      -164.1788
  22   2.0000      -6.032364      -164.1490
  23   2.0000      -6.029093      -164.0600
  24   2.0000      -1.009887       -27.4804
  25   2.0000      -0.984059       -26.7776
  26   2.0000      -0.906083       -24.6558
  27   2.0000      -0.904785       -24.6204
  28   2.0000      -0.868616       -23.6362
  29   2.0000      -0.856774       -23.3140
  30   2.0000      -0.844458       -22.9789
  31   2.0000      -0.811646       -22.0860
  32   2.0000      -0.780045       -21.2261
  33   2.0000      -0.766714       -20.8633
  34   2.0000      -0.706682       -19.2298
  35   2.0000      -0.703872       -19.1533
  36   2.0000      -0.691066       -18.8049
  37   2.0000      -0.664990       -18.0953
  38   2.0000      -0.649255       -17.6671
  39   2.0000      -0.618795       -16.8383
  40   2.0000      -0.592539       -16.1238
  41   2.0000      -0.572532       -15.5794
  42   2.0000      -0.569966       -15.5096
  43   2.0000      -0.551735       -15.0135
  44   2.0000      -0.529751       -14.4153
  45   2.0000      -0.525090       -14.2884
  46   2.0000      -0.517762       -14.0890
  47   2.0000      -0.510882       -13.9018
  48   2.0000      -0.503855       -13.7106
  49   2.0000      -0.500017       -13.6062
  50   2.0000      -0.491461       -13.3733
  51   2.0000      -0.486901       -13.2492
  52   2.0000      -0.480547       -13.0763
  53   2.0000      -0.466019       -12.6810
  54   2.0000      -0.455419       -12.3926
  55   2.0000      -0.449196       -12.2232
  56   2.0000      -0.439121       -11.9491
  57   2.0000      -0.434686       -11.8284
  58   2.0000      -0.432492       -11.7687
  59   2.0000      -0.428379       -11.6568
  60   2.0000      -0.423171       -11.5151
  61   2.0000      -0.410909       -11.1814
  62   2.0000      -0.404443       -11.0055
  63   2.0000      -0.346269        -9.4225
  64   2.0000      -0.335178        -9.1207
  65   2.0000      -0.329172        -8.9572
  66   2.0000      -0.287892        -7.8340
  67   0.0000       0.024084         0.6554
  68   0.0000       0.068012         1.8507
  69   0.0000       0.110773         3.0143
  70   0.0000       0.124683         3.3928
  71   0.0000       0.134749         3.6667

MULLIKEN ATOMIC CHARGES
-----------------------
   0 S :    0.115109
   1 C :   -0.105018
   2 C :   -0.052536
   3 C :    0.045414
   4 C :   -0.153158
   5 H :   -0.018099
   6 C :    0.044120
   7 H :    0.030835
   8 H :    0.032712
   9 C :   -0.037229
  10 H :    0.035527
  11 H :    0.009226
  12 C :   -0.083430
  13 H :    0.034346
  14 H :    0.037196
  15 H :    0.043975
  16 S :    0.093865
  17 C :   -0.115225
  18 C :   -0.028729
  19 C :   -0.081347
  20 C :   -0.124615
  21 H :    0.019980
  22 C :    0.160233
  23 H :    0.013958
  24 H :   -0.029795
  25 C :   -0.083619
  26 H :    0.039406
  27 H :    0.054584
  28 C :   -0.092581
  29 H :    0.017392
  30 H :    0.030717
  31 H :    0.048105
  32 H :    0.018144
  33 H :    0.080537
Sum of atomic charges:   -0.0000000

LOEWDIN ATOMIC CHARGES
----------------------
   0 S :    0.410396
   1 C :   -0.184640
   2 C :   -0.057399
   3 C :   -0.053802
   4 C :   -0.186126
   5 H :    0.023766
   6 C :   -0.018702
   7 H :    0.028106
   8 H :    0.029400
   9 C :   -0.033490
  10 H :    0.028376
  11 H :    0.008121
  12 C :   -0.067897
  13 H :    0.026628
  14 H :    0.022579
  15 H :    0.028239
  16 S :    0.404736
  17 C :   -0.198593
  18 C :   -0.078864
  19 C :   -0.057313
  20 C :   -0.194957
  21 H :    0.030824
  22 C :   -0.016360
  23 H :    0.024996
  24 H :    0.011320
  25 C :   -0.037594
  26 H :    0.024995
  27 H :    0.033920
  28 C :   -0.079312
  29 H :    0.016922
  30 H :    0.026276
  31 H :    0.032516
  32 H :    0.010884
  33 H :    0.042050

  Mayer bond orders larger than 0.100000
B(  0-S ,  1-C ) :   1.1247 B(  0-S ,  4-C ) :   1.1725 B(  1-C ,  2-C ) :   1.6055
B(  1-C ,  4-C ) :   0.1021 B(  1-C , 32-H ) :   0.9847 B(  2-C ,  3-C ) :   1.2347
B(  2-C ,  6-C ) :   1.0213 B(  3-C ,  4-C ) :   1.5482 B(  3-C ,  5-H ) :   1.0147
B(  4-C , 20-C ) :   1.0276 B(  6-C ,  7-H ) :   0.9498 B(  6-C ,  8-H ) :   0.9462
B(  6-C ,  9-C ) :   1.0322 B(  9-C , 10-H ) :   0.9658 B(  9-C , 11-H ) :   0.9602
B(  9-C , 12-C ) :   1.0728 B( 12-C , 13-H ) :   0.9770 B( 12-C , 14-H ) :   0.9723
B( 12-C , 15-H ) :   0.9763 B( 16-S , 17-C ) :   1.1754 B( 16-S , 20-C ) :   1.1530
B( 17-C , 18-C ) :   1.5515 B( 17-C , 20-C ) :   0.1169 B( 17-C , 33-H ) :   0.9620
B( 18-C , 19-C ) :   1.3089 B( 18-C , 21-H ) :   0.9823 B( 19-C , 20-C ) :   1.5459
B( 19-C , 22-C ) :   1.0326 B( 22-C , 23-H ) :   0.9235 B( 22-C , 24-H ) :   0.9239
B( 22-C , 25-C ) :   1.0717 B( 25-C , 26-H ) :   0.9619 B( 25-C , 27-H ) :   0.9534
B( 25-C , 28-C ) :   1.0663 B( 28-C , 29-H ) :   0.9757 B( 28-C , 30-H ) :   0.9779
B( 28-C , 31-H ) :   0.9770

Dispersion correction           -0.014372116
FINAL SINGLE POINT ENERGY     -1339.852769622937

DIPOLE MOMENT
-------------
                                X             Y             Z
Electronic contribution:     25.53541      -7.52871      14.80080
Nuclear contribution   :    -26.01020       7.52428     -15.24160
                        -----------------------------------------
Total Dipole Moment    :     -0.47479      -0.00443      -0.44079
                        -----------------------------------------
Magnitude (a.u.)       :      0.64788
Magnitude (Debye)      :      1.64678

Rotational constants in cm-1:     0.019363     0.008679     0.006680
Rotational constants in MHz :   580.492056   260.194061   200.268973

                             ****ORCA TERMINATED NORMALLY****
TOTAL RUN TIME: 0 days 0 hours 0 minutes 21 seconds 857 msec
