                         Program Version 4.2.1 -  RELEASE  -
|  1> ! wB97X-D3 SP def2-SVP
|  2> %pal
|  3> nprocs 24
|  4> end
|  5>
|  6> * xyz 0 1
|  7> S 	 -46.3338 	 11.4685 	 30.7336
|  8> C 	 -45.2592 	 12.7112 	 30.1247
|  9> C 	 -45.8183 	 13.9622 	 30.2227
| 10> C 	 -46.992 	 13.9281 	 31.0651
| 11> C 	 -47.2989 	 12.6861 	 31.5573
| 12> H 	 -47.5662 	 14.8017 	 31.352
| 13> C 	 -45.3917 	 15.3005 	 29.5887
| 14> H 	 -44.3393 	 15.343 	 29.467
| 15> H 	 -45.7256 	 16.0672 	 30.2958
| 16> C 	 -46.0875 	 15.7465 	 28.2771
| 17> H 	 -47.1687 	 15.6358 	 28.4029
| 18> H 	 -45.9099 	 16.8519 	 28.1258
| 19> C 	 -45.5444 	 14.921 	 27.0689
| 20> H 	 -46.2531 	 14.9811 	 26.2089
| 21> H 	 -44.5254 	 15.2022 	 26.7326
| 22> H 	 -45.6382 	 13.8282 	 27.3575
| 23> S 	 -49.7406 	 11.3866 	 31.5059
| 24> C 	 -50.4758 	 11.079 	 32.9746
| 25> C 	 -50.1112 	 12.0458 	 33.8473
| 26> C 	 -48.9301 	 12.739 	 33.5106
| 27> C 	 -48.5255 	 12.3297 	 32.2569
| 28> H 	 -50.53 	 12.1019 	 34.8187
| 29> C 	 -48.11 	 13.6074 	 34.5151
| 30> H 	 -47.8089 	 14.4679 	 33.8686
| 31> H 	 -47.2585 	 13.1451 	 34.944
| 32> C 	 -48.9517 	 14.2617 	 35.5889
| 33> H 	 -48.2981 	 14.7018 	 36.3608
| 34> H 	 -49.6002 	 13.5649 	 36.1531
| 35> C 	 -49.6992 	 15.4437 	 35.0186
| 36> H 	 -49.0468 	 16.2658 	 34.9402
| 37> H 	 -50.4093 	 15.7712 	 35.7542
| 38> H 	 -50.0579 	 15.344 	 34.0267
| 39> H 	 -44.4614 	 12.5207 	 29.4747
| 40> H 	 -51.3567 	 10.4911 	 33.1129
| 41> *
| 42>
| 43>                          ****END OF INPUT****

CARTESIAN COORDINATES (ANGSTROEM)
---------------------------------
  S    -46.333800   11.468500   30.733600
  C    -45.259200   12.711200   30.124700
  C    -45.818300   13.962200   30.222700
  C    -46.992000   13.928100   31.065100
  C    -47.298900   12.686100   31.557300
  H    -47.566200   14.801700   31.352000
  C    -45.391700   15.300500   29.588700
  H    -44.339300   15.343000   29.467000
  H    -45.725600   16.067200   30.295800
  C    -46.087500   15.746500   28.277100
  H    -47.168700   15.635800   28.402900
  H    -45.909900   16.851900   28.125800
  C    -45.544400   14.921000   27.068900
  H    -46.253100   14.981100   26.208900
  H    -44.525400   15.202200   26.732600
  H    -45.638200   13.828200   27.357500
  S    -49.740600   11.386600   31.505900
  C    -50.475800   11.079000   32.974600
  C    -50.111200   12.045800   33.847300
  C    -48.930100   12.739000   33.510600
  C    -48.525500   12.329700   32.256900
  H    -50.530000   12.101900   34.818700
  C    -48.110000   13.607400   34.515100
  H    -47.808900   14.467900   33.868600
  H    -47.258500   13.145100   34.944000
  C    -48.951700   14.261700   35.588900
  H    -48.298100   14.701800   36.360800
  H    -49.600200   13.564900   36.153100
  C    -49.699200   15.443700   35.018600
  H    -49.046800   16.265800   34.940200
  H    -50.409300   15.771200   35.754200
  H    -50.057900   15.344000   34.026700
  H    -44.461400   12.520700   29.474700
  H    -51.356700   10.491100   33.112900

 Total Charge           Charge          ....    0
 Multiplicity           Mult            ....    1
 Number of Electrons    NEL             ....  134
 Basis Dimension        Dim             ....  322

ORBITAL ENERGIES
----------------

  NO   OCC          E(Eh)            E(eV)
   0   2.0000     -88.964877     -2420.8574
   1   2.0000     -88.961085     -2420.7542
   2   2.0000     -10.325805      -280.9794
   3   2.0000     -10.317220      -280.7458
   4   2.0000     -10.311249      -280.5834
   5   2.0000     -10.303592      -280.3750
   6   2.0000     -10.302880      -280.3556
   7   2.0000     -10.297514      -280.2096
   8   2.0000     -10.296071      -280.1703
   9   2.0000     -10.294066      -280.1158
  10   2.0000     -10.293321      -280.0955
  11   2.0000     -10.291608      -280.0489
  12   2.0000     -10.287191      -279.9287
  13   2.0000     -10.285256      -279.8760
  14   2.0000     -10.280855      -279.7563
  15   2.0000     -10.265335      -279.3340
  16   2.0000      -8.079584      -219.8567
  17   2.0000      -8.078305      -219.8219
  18   2.0000      -6.038087      -164.3047
  19   2.0000      -6.036560      -164.2632
  20   2.0000      -6.034319      -164.2022
  21   2.0000      -6.032625      -164.1561
  22   2.0000      -6.030111      -164.0877
  23   2.0000      -6.029014      -164.0578
  24   2.0000      -1.018966       -27.7275
  25   2.0000      -0.991183       -26.9715
  26   2.0000      -0.916610       -24.9422
  27   2.0000      -0.907387       -24.6913
  28   2.0000      -0.871333       -23.7102
  29   2.0000      -0.851844       -23.1799
  30   2.0000      -0.842302       -22.9202
  31   2.0000      -0.812585       -22.1116
  32   2.0000      -0.785259       -21.3680
  33   2.0000      -0.777090       -21.1457
  34   2.0000      -0.705762       -19.2048
  35   2.0000      -0.700142       -19.0518
  36   2.0000      -0.694500       -18.8983
  37   2.0000      -0.653483       -17.7822
  38   2.0000      -0.642739       -17.4898
  39   2.0000      -0.621361       -16.9081
  40   2.0000      -0.604980       -16.4623
  41   2.0000      -0.568041       -15.4572
  42   2.0000      -0.565337       -15.3836
  43   2.0000      -0.544984       -14.8298
  44   2.0000      -0.540920       -14.7192
  45   2.0000      -0.536003       -14.5854
  46   2.0000      -0.520589       -14.1659
  47   2.0000      -0.511216       -13.9109
  48   2.0000      -0.504803       -13.7364
  49   2.0000      -0.497441       -13.5360
  50   2.0000      -0.493948       -13.4410
  51   2.0000      -0.478579       -13.0228
  52   2.0000      -0.472104       -12.8466
  53   2.0000      -0.465762       -12.6740
  54   2.0000      -0.460684       -12.5358
  55   2.0000      -0.446161       -12.1407
  56   2.0000      -0.443612       -12.0713
  57   2.0000      -0.437284       -11.8991
  58   2.0000      -0.435229       -11.8432
  59   2.0000      -0.426373       -11.6022
  60   2.0000      -0.421588       -11.4720
  61   2.0000      -0.417748       -11.3675
  62   2.0000      -0.407934       -11.1005
  63   2.0000      -0.343854        -9.3568
  64   2.0000      -0.330648        -8.9974
  65   2.0000      -0.323868        -8.8129
  66   2.0000      -0.297507        -8.0956
  67   0.0000       0.029822         0.8115
  68   0.0000       0.066236         1.8024
  69   0.0000       0.113815         3.0971
  70   0.0000       0.119921         3.2632
  71   0.0000       0.125892         3.4257

MULLIKEN ATOMIC CHARGES
-----------------------
   0 S :    0.103320
   1 C :   -0.084643
   2 C :   -0.098150
   3 C :    0.028144
   4 C :   -0.159417
   5 H :    0.016981
   6 C :    0.074398
   7 H :    0.019776
   8 H :    0.023502
   9 C :   -0.078001
  10 H :    0.031283
  11 H :    0.042885
  12 C :   -0.092188
  13 H :    0.037629
  14 H :    0.047749
  15 H :    0.042212
  16 S :    0.128079
  17 C :   -0.067976
  18 C :   -0.035747
  19 C :   -0.054265
  20 C :   -0.179650
  21 H :   -0.002332
  22 C :    0.115815
  23 H :    0.016551
  24 H :    0.043155
  25 C :   -0.105714
  26 H :    0.026710
  27 H :    0.033389
  28 C :   -0.012734
  29 H :    0.006801
  30 H :    0.026205
  31 H :    0.030328
  32 H :    0.028374
  33 H :    0.047530
Sum of atomic charges:    0.0000000

LOEWDIN ATOMIC CHARGES
----------------------
   0 S :    0.401164
   1 C :   -0.185121
   2 C :   -0.061610
   3 C :   -0.054284
   4 C :   -0.191645
   5 H :    0.029096
   6 C :   -0.028839
   7 H :    0.023625
   8 H :    0.032651
   9 C :   -0.041549
  10 H :    0.024433
  11 H :    0.029917
  12 C :   -0.080598
  13 H :    0.028476
  14 H :    0.027667
  15 H :    0.032628
  16 S :    0.446835
  17 C :   -0.205394
  18 C :   -0.071205
  19 C :   -0.059943
  20 C :   -0.213446
  21 H :    0.020637
  22 C :   -0.021541
  23 H :    0.035972
  24 H :    0.029228
  25 C :   -0.045721
  26 H :    0.029926
  27 H :    0.019800
  28 C :   -0.060678
  29 H :    0.019954
  30 H :    0.026821
  31 H :    0.020358
  32 H :    0.015919
  33 H :    0.026466

  Mayer bond orders larger than 0.100000
B(  0-S ,  1-C ) :   1.1373 B(  0-S ,  4-C ) :   1.1381 B(  1-C ,  2-C ) :   1.6258
B(  1-C , 32-H ) :   0.9710 B(  2-C ,  3-C ) :   1.2313 B(  2-C ,  6-C ) :   1.0234
B(  3-C ,  4-C ) :   1.5942 B(  3-C ,  5-H ) :   0.9864 B(  4-C , 20-C ) :   1.0384
B(  6-C ,  7-H ) :   0.9444 B(  6-C ,  8-H ) :   0.9382 B(  6-C ,  9-C ) :   1.0674
B(  9-C , 10-H ) :   0.9556 B(  9-C , 11-H ) :   0.9572 B(  9-C , 12-C ) :   1.0671
B( 12-C , 13-H ) :   0.9750 B( 12-C , 14-H ) :   0.9762 B( 12-C , 15-H ) :   0.9745
B( 16-S , 17-C ) :   1.1637 B( 16-S , 20-C ) :   1.1803 B( 17-C , 18-C ) :   1.5935
B( 17-C , 33-H ) :   0.9666 B( 18-C , 19-C ) :   1.2732 B( 18-C , 21-H ) :   0.9916
B( 19-C , 20-C ) :   1.5866 B( 19-C , 22-C ) :   1.0075 B( 22-C , 23-H ) :   0.9321
B( 22-C , 24-H ) :   0.9393 B( 22-C , 25-C ) :   1.0844 B( 25-C , 26-H ) :   0.9502
B( 25-C , 27-H ) :   0.9551 B( 25-C , 28-C ) :   1.0794 B( 28-C , 29-H ) :   0.9665
B( 28-C , 30-H ) :   0.9705 B( 28-C , 31-H ) :   0.9790

Dispersion correction           -0.014224390
FINAL SINGLE POINT ENERGY     -1339.859261437101

DIPOLE MOMENT
-------------
                                X             Y             Z
Electronic contribution:     -3.29689     -22.74128      -1.63526
Nuclear contribution   :      3.28762      23.37056       1.76093
                        -----------------------------------------
Total Dipole Moment    :     -0.00927       0.62928       0.12568
                        -----------------------------------------
Magnitude (a.u.)       :      0.64177
Magnitude (Debye)      :      1.63125

Rotational constants in cm-1:     0.020688     0.008007     0.006730
Rotational constants in MHz :   620.214371   240.049882   201.769167

                             ****ORCA TERMINATED NORMALLY****
TOTAL RUN TIME: 0 days 0 hours 0 minutes 21 seconds 615 msec
