                         Program Version 4.2.1 -  RELEASE  -
|  1> ! wB97X-D3 SP def2-SVP
|  2> %pal
|  3> nprocs 24
|  4> end
|  5>
|  6> * xyz 0 1
|  7> S 	 -55.3896 	 -49.8376 	 -85.059
|  8> C 	 -56.1472 	 -48.9255 	 -86.3182
|  9> C 	 -57.2718 	 -49.5657 	 -86.8531
| 10> C 	 -57.3995 	 -50.9013 	 -86.3128
| 11> C 	 -56.4791 	 -51.1839 	 -85.2968
| 12> H 	 -58.1925 	 -51.5897 	 -86.5715
| 13> C 	 -58.2039 	 -49.0934 	 -87.8645
| 14> H 	 -58.2005 	 -48.044 	 -87.7068
| 15> H 	 -59.1558 	 -49.563 	 -87.749
| 16> C 	 -57.8433 	 -49.1923 	 -89.3332
| 17> H 	 -56.7382 	 -49.2072 	 -89.5241
| 18> H 	 -58.0955 	 -50.1822 	 -89.7666
| 19> C 	 -58.4992 	 -48.0795 	 -90.1611
| 20> H 	 -58.1708 	 -47.0656 	 -89.8775
| 21> H 	 -58.2689 	 -48.2304 	 -91.211
| 22> H 	 -59.6117 	 -48.1562 	 -90.1705
| 23> S 	 -56.646 	 -52.253 	 -82.7345
| 24> C 	 -56.3014 	 -53.9202 	 -82.4139
| 25> C 	 -56.4778 	 -54.6282 	 -83.6257
| 26> C 	 -56.4714 	 -53.7297 	 -84.7598
| 27> C 	 -56.4479 	 -52.4153 	 -84.4879
| 28> H 	 -56.4727 	 -55.7292 	 -83.5664
| 29> C 	 -56.4004 	 -54.429 	 -86.1476
| 30> H 	 -56.3162 	 -53.7091 	 -86.9779
| 31> H 	 -57.3109 	 -55.0135 	 -86.2859
| 32> C 	 -55.3602 	 -55.4826 	 -86.4975
| 33> H 	 -55.5569 	 -55.7557 	 -87.5332
| 34> H 	 -55.6074 	 -56.3024 	 -85.8822
| 35> C 	 -53.9323 	 -54.9942 	 -86.2887
| 36> H 	 -53.8044 	 -53.8837 	 -86.3295
| 37> H 	 -53.2243 	 -55.6763 	 -86.6994
| 38> H 	 -53.9751 	 -55.127 	 -85.1945
| 39> H 	 -55.7815 	 -47.9418 	 -86.6261
| 40> H 	 -56.3079 	 -54.4139 	 -81.4505
| 41> *
| 42>
| 43>                          ****END OF INPUT****

CARTESIAN COORDINATES (ANGSTROEM)
---------------------------------
  S    -55.389600  -49.837600  -85.059000
  C    -56.147200  -48.925500  -86.318200
  C    -57.271800  -49.565700  -86.853100
  C    -57.399500  -50.901300  -86.312800
  C    -56.479100  -51.183900  -85.296800
  H    -58.192500  -51.589700  -86.571500
  C    -58.203900  -49.093400  -87.864500
  H    -58.200500  -48.044000  -87.706800
  H    -59.155800  -49.563000  -87.749000
  C    -57.843300  -49.192300  -89.333200
  H    -56.738200  -49.207200  -89.524100
  H    -58.095500  -50.182200  -89.766600
  C    -58.499200  -48.079500  -90.161100
  H    -58.170800  -47.065600  -89.877500
  H    -58.268900  -48.230400  -91.211000
  H    -59.611700  -48.156200  -90.170500
  S    -56.646000  -52.253000  -82.734500
  C    -56.301400  -53.920200  -82.413900
  C    -56.477800  -54.628200  -83.625700
  C    -56.471400  -53.729700  -84.759800
  C    -56.447900  -52.415300  -84.487900
  H    -56.472700  -55.729200  -83.566400
  C    -56.400400  -54.429000  -86.147600
  H    -56.316200  -53.709100  -86.977900
  H    -57.310900  -55.013500  -86.285900
  C    -55.360200  -55.482600  -86.497500
  H    -55.556900  -55.755700  -87.533200
  H    -55.607400  -56.302400  -85.882200
  C    -53.932300  -54.994200  -86.288700
  H    -53.804400  -53.883700  -86.329500
  H    -53.224300  -55.676300  -86.699400
  H    -53.975100  -55.127000  -85.194500
  H    -55.781500  -47.941800  -86.626100
  H    -56.307900  -54.413900  -81.450500

 Total Charge           Charge          ....    0
 Multiplicity           Mult            ....    1
 Number of Electrons    NEL             ....  134
 Basis Dimension        Dim             ....  322

ORBITAL ENERGIES
----------------

  NO   OCC          E(Eh)            E(eV)
   0   2.0000     -88.971117     -2421.0272
   1   2.0000     -88.959816     -2420.7197
   2   2.0000     -10.333410      -281.1864
   3   2.0000     -10.328016      -281.0396
   4   2.0000     -10.320897      -280.8459
   5   2.0000     -10.318418      -280.7784
   6   2.0000     -10.306178      -280.4454
   7   2.0000     -10.302002      -280.3317
   8   2.0000     -10.300693      -280.2961
   9   2.0000     -10.297247      -280.2023
  10   2.0000     -10.290871      -280.0288
  11   2.0000     -10.287456      -279.9359
  12   2.0000     -10.284281      -279.8495
  13   2.0000     -10.282962      -279.8136
  14   2.0000     -10.276664      -279.6422
  15   2.0000     -10.269976      -279.4602
  16   2.0000      -8.085871      -220.0277
  17   2.0000      -8.074973      -219.7312
  18   2.0000      -6.044370      -164.4757
  19   2.0000      -6.040215      -164.3626
  20   2.0000      -6.036793      -164.2695
  21   2.0000      -6.033555      -164.1814
  22   2.0000      -6.029509      -164.0713
  23   2.0000      -6.025498      -163.9621
  24   2.0000      -1.006842       -27.3976
  25   2.0000      -0.986543       -26.8452
  26   2.0000      -0.920944       -25.0602
  27   2.0000      -0.910300       -24.7705
  28   2.0000      -0.868965       -23.6457
  29   2.0000      -0.854292       -23.2465
  30   2.0000      -0.841365       -22.8947
  31   2.0000      -0.813289       -22.1307
  32   2.0000      -0.781846       -21.2751
  33   2.0000      -0.776398       -21.1269
  34   2.0000      -0.705023       -19.1847
  35   2.0000      -0.700911       -19.0728
  36   2.0000      -0.686880       -18.6910
  37   2.0000      -0.660291       -17.9674
  38   2.0000      -0.644007       -17.5243
  39   2.0000      -0.621961       -16.9244
  40   2.0000      -0.593950       -16.1622
  41   2.0000      -0.579276       -15.7629
  42   2.0000      -0.564275       -15.3547
  43   2.0000      -0.553501       -15.0615
  44   2.0000      -0.543721       -14.7954
  45   2.0000      -0.524471       -14.2716
  46   2.0000      -0.519427       -14.1343
  47   2.0000      -0.515012       -14.0142
  48   2.0000      -0.506148       -13.7730
  49   2.0000      -0.501395       -13.6436
  50   2.0000      -0.492263       -13.3952
  51   2.0000      -0.481089       -13.0911
  52   2.0000      -0.476430       -12.9643
  53   2.0000      -0.466686       -12.6992
  54   2.0000      -0.450353       -12.2547
  55   2.0000      -0.443968       -12.0810
  56   2.0000      -0.439480       -11.9588
  57   2.0000      -0.436664       -11.8822
  58   2.0000      -0.431822       -11.7505
  59   2.0000      -0.427270       -11.6266
  60   2.0000      -0.418154       -11.3785
  61   2.0000      -0.416105       -11.3228
  62   2.0000      -0.393260       -10.7011
  63   2.0000      -0.346091        -9.4176
  64   2.0000      -0.330946        -9.0055
  65   2.0000      -0.321554        -8.7499
  66   2.0000      -0.298251        -8.1158
  67   0.0000       0.029086         0.7915
  68   0.0000       0.065257         1.7757
  69   0.0000       0.107597         2.9279
  70   0.0000       0.119103         3.2410
  71   0.0000       0.128549         3.4980

MULLIKEN ATOMIC CHARGES
-----------------------
   0 S :    0.135278
   1 C :   -0.127714
   2 C :   -0.102980
   3 C :    0.039885
   4 C :   -0.166367
   5 H :    0.015471
   6 C :    0.129504
   7 H :    0.007294
   8 H :    0.023576
   9 C :   -0.088949
  10 H :    0.031646
  11 H :    0.021378
  12 C :   -0.068051
  13 H :    0.041767
  14 H :    0.029528
  15 H :    0.036117
  16 S :    0.089106
  17 C :   -0.091603
  18 C :   -0.067278
  19 C :   -0.019351
  20 C :   -0.139801
  21 H :    0.037547
  22 C :    0.022031
  23 H :    0.025599
  24 H :    0.027539
  25 C :   -0.064152
  26 H :    0.022920
  27 H :    0.008682
  28 C :   -0.034581
  29 H :    0.048192
  30 H :    0.039897
  31 H :    0.021095
  32 H :    0.051776
  33 H :    0.064998
Sum of atomic charges:   -0.0000000

LOEWDIN ATOMIC CHARGES
----------------------
   0 S :    0.428872
   1 C :   -0.205017
   2 C :   -0.060540
   3 C :   -0.050587
   4 C :   -0.203310
   5 H :    0.031881
   6 C :   -0.035264
   7 H :    0.032066
   8 H :    0.033587
   9 C :   -0.044669
  10 H :    0.027634
  11 H :    0.023206
  12 C :   -0.069715
  13 H :    0.025669
  14 H :    0.026656
  15 H :    0.028929
  16 S :    0.394873
  17 C :   -0.185141
  18 C :   -0.076819
  19 C :   -0.064136
  20 C :   -0.191277
  21 H :    0.035126
  22 C :   -0.034090
  23 H :    0.025968
  24 H :    0.033135
  25 C :   -0.037267
  26 H :    0.020375
  27 H :    0.009917
  28 C :   -0.075397
  29 H :    0.036687
  30 H :    0.022678
  31 H :    0.034528
  32 H :    0.029592
  33 H :    0.031850

  Mayer bond orders larger than 0.100000
B(  0-S ,  1-C ) :   1.1538 B(  0-S ,  4-C ) :   1.1628 B(  1-C ,  2-C ) :   1.5745
B(  1-C , 32-H ) :   0.9673 B(  2-C ,  3-C ) :   1.2510 B(  2-C ,  6-C ) :   1.0521
B(  3-C ,  4-C ) :   1.5527 B(  3-C ,  5-H ) :   0.9944 B(  4-C , 20-C ) :   1.0251
B(  6-C ,  7-H ) :   0.9285 B(  6-C ,  8-H ) :   0.9288 B(  6-C ,  9-C ) :   1.0535
B(  9-C , 10-H ) :   0.9580 B(  9-C , 11-H ) :   0.9505 B(  9-C , 12-C ) :   1.0845
B( 12-C , 13-H ) :   0.9745 B( 12-C , 14-H ) :   0.9718 B( 12-C , 15-H ) :   0.9746
B( 16-S , 17-C ) :   1.1617 B( 16-S , 20-C ) :   1.1235 B( 17-C , 18-C ) :   1.6075
B( 17-C , 33-H ) :   0.9674 B( 18-C , 19-C ) :   1.2052 B( 18-C , 21-H ) :   0.9874
B( 19-C , 20-C ) :   1.6508 B( 19-C , 22-C ) :   1.0264 B( 22-C , 23-H ) :   0.9452
B( 22-C , 24-H ) :   0.9379 B( 22-C , 25-C ) :   1.0852 B( 25-C , 26-H ) :   0.9508
B( 25-C , 27-H ) :   0.9580 B( 25-C , 28-C ) :   1.0594 B( 28-C , 29-H ) :   0.9753
B( 28-C , 30-H ) :   0.9742 B( 28-C , 31-H ) :   0.9687

Dispersion correction           -0.013973111
FINAL SINGLE POINT ENERGY     -1339.856269049784

DIPOLE MOMENT
-------------
                                X             Y             Z
Electronic contribution:      3.27600       4.76905      25.13449
Nuclear contribution   :     -3.60138      -4.99100     -25.66523
                        -----------------------------------------
Total Dipole Moment    :     -0.32538      -0.22196      -0.53074
                        -----------------------------------------
Magnitude (a.u.)       :      0.66093
Magnitude (Debye)      :      1.67994

Rotational constants in cm-1:     0.020794     0.007505     0.006348
Rotational constants in MHz :   623.385464   224.997091   190.317741

                             ****ORCA TERMINATED NORMALLY****
TOTAL RUN TIME: 0 days 0 hours 0 minutes 21 seconds 339 msec
