                         Program Version 4.2.1 -  RELEASE  -
|  1> ! wB97X-D3 SP def2-SVP
|  2> %pal
|  3> nprocs 24
|  4> end
|  5>
|  6> * xyz 0 1
|  7> S 	 27.2379 	 -5.76694 	 -117.512
|  8> C 	 26.2211 	 -7.21014 	 -117.251
|  9> C 	 26.7198 	 -8.27636 	 -118.034
| 10> C 	 28.035 	 -8.02235 	 -118.575
| 11> C 	 28.4956 	 -6.74922 	 -118.319
| 12> H 	 28.6575 	 -8.80469 	 -118.862
| 13> C 	 26.1407 	 -9.6942 	 -118.075
| 14> H 	 25.034 	 -9.48364 	 -117.808
| 15> H 	 26.695 	 -10.2246 	 -117.251
| 16> C 	 26.2317 	 -10.3967 	 -119.446
| 17> H 	 27.2847 	 -10.4984 	 -119.709
| 18> H 	 25.8075 	 -11.4337 	 -119.381
| 19> C 	 25.434 	 -9.62879 	 -120.48
| 20> H 	 25.812 	 -8.60176 	 -120.756
| 21> H 	 25.5402 	 -10.0822 	 -121.493
| 22> H 	 24.3881 	 -9.52102 	 -120.318
| 23> S 	 29.637 	 -4.73642 	 -119.773
| 24> C 	 31.382 	 -4.66483 	 -119.946
| 25> C 	 31.9617 	 -5.6445 	 -119.155
| 26> C 	 31.0654 	 -6.45941 	 -118.437
| 27> C 	 29.7335 	 -6.09472 	 -118.65
| 28> H 	 33.0176 	 -5.52915 	 -118.937
| 29> C 	 31.4788 	 -7.68177 	 -117.595
| 30> H 	 30.5257 	 -8.1171 	 -117.159
| 31> H 	 32.0351 	 -7.33618 	 -116.749
| 32> C 	 32.1001 	 -8.80953 	 -118.437
| 33> H 	 32.9448 	 -8.36991 	 -119.002
| 34> H 	 31.3514 	 -9.13221 	 -119.182
| 35> C 	 32.508 	 -9.99181 	 -117.492
| 36> H 	 32.4831 	 -10.884 	 -118.057
| 37> H 	 31.7929 	 -10.1508 	 -116.649
| 38> H 	 33.4339 	 -9.59297 	 -117.006
| 39> H 	 25.3151 	 -7.2832 	 -116.806
| 40> H 	 31.9376 	 -4.10692 	 -120.686
| 41> *
| 42>
| 43>                          ****END OF INPUT****

CARTESIAN COORDINATES (ANGSTROEM)
---------------------------------
  S     27.237900   -5.766940  -117.512000
  C     26.221100   -7.210140  -117.251000
  C     26.719800   -8.276360  -118.034000
  C     28.035000   -8.022350  -118.575000
  C     28.495600   -6.749220  -118.319000
  H     28.657500   -8.804690  -118.862000
  C     26.140700   -9.694200  -118.075000
  H     25.034000   -9.483640  -117.808000
  H     26.695000  -10.224600  -117.251000
  C     26.231700  -10.396700  -119.446000
  H     27.284700  -10.498400  -119.709000
  H     25.807500  -11.433700  -119.381000
  C     25.434000   -9.628790  -120.480000
  H     25.812000   -8.601760  -120.756000
  H     25.540200  -10.082200  -121.493000
  H     24.388100   -9.521020  -120.318000
  S     29.637000   -4.736420  -119.773000
  C     31.382000   -4.664830  -119.946000
  C     31.961700   -5.644500  -119.155000
  C     31.065400   -6.459410  -118.437000
  C     29.733500   -6.094720  -118.650000
  H     33.017600   -5.529150  -118.937000
  C     31.478800   -7.681770  -117.595000
  H     30.525700   -8.117100  -117.159000
  H     32.035100   -7.336180  -116.749000
  C     32.100100   -8.809530  -118.437000
  H     32.944800   -8.369910  -119.002000
  H     31.351400   -9.132210  -119.182000
  C     32.508000   -9.991810  -117.492000
  H     32.483100  -10.884000  -118.057000
  H     31.792900  -10.150800  -116.649000
  H     33.433900   -9.592970  -117.006000
  H     25.315100   -7.283200  -116.806000
  H     31.937600   -4.106920  -120.686000

 Total Charge           Charge          ....    0
 Multiplicity           Mult            ....    1
 Number of Electrons    NEL             ....  134
 Basis Dimension        Dim             ....  322

ORBITAL ENERGIES
----------------

  NO   OCC          E(Eh)            E(eV)
   0   2.0000     -88.966015     -2420.8883
   1   2.0000     -88.964607     -2420.8500
   2   2.0000     -10.333163      -281.1797
   3   2.0000     -10.326282      -280.9924
   4   2.0000     -10.319700      -280.8133
   5   2.0000     -10.311748      -280.5969
   6   2.0000     -10.304380      -280.3964
   7   2.0000     -10.304102      -280.3889
   8   2.0000     -10.303557      -280.3740
   9   2.0000     -10.296291      -280.1763
  10   2.0000     -10.293831      -280.1094
  11   2.0000     -10.292977      -280.0861
  12   2.0000     -10.292459      -280.0720
  13   2.0000     -10.291965      -280.0586
  14   2.0000     -10.285197      -279.8745
  15   2.0000     -10.278269      -279.6859
  16   2.0000      -8.080470      -219.8808
  17   2.0000      -8.078221      -219.8196
  18   2.0000      -6.038940      -164.3279
  19   2.0000      -6.036920      -164.2729
  20   2.0000      -6.034894      -164.2178
  21   2.0000      -6.032920      -164.1641
  22   2.0000      -6.031389      -164.1225
  23   2.0000      -6.028803      -164.0521
  24   2.0000      -1.003211       -27.2988
  25   2.0000      -0.977160       -26.5899
  26   2.0000      -0.910360       -24.7721
  27   2.0000      -0.906163       -24.6580
  28   2.0000      -0.869401       -23.6576
  29   2.0000      -0.848621       -23.0922
  30   2.0000      -0.840870       -22.8812
  31   2.0000      -0.815148       -22.1813
  32   2.0000      -0.778870       -21.1941
  33   2.0000      -0.768312       -20.9068
  34   2.0000      -0.712360       -19.3843
  35   2.0000      -0.697989       -18.9932
  36   2.0000      -0.697728       -18.9861
  37   2.0000      -0.658459       -17.9176
  38   2.0000      -0.639282       -17.3958
  39   2.0000      -0.623999       -16.9799
  40   2.0000      -0.593140       -16.1402
  41   2.0000      -0.568821       -15.4784
  42   2.0000      -0.559682       -15.2297
  43   2.0000      -0.555135       -15.1060
  44   2.0000      -0.538717       -14.6592
  45   2.0000      -0.529159       -14.3991
  46   2.0000      -0.520877       -14.1738
  47   2.0000      -0.514154       -13.9909
  48   2.0000      -0.510040       -13.8789
  49   2.0000      -0.497953       -13.5500
  50   2.0000      -0.484205       -13.1759
  51   2.0000      -0.477394       -12.9906
  52   2.0000      -0.469613       -12.7788
  53   2.0000      -0.466310       -12.6889
  54   2.0000      -0.453299       -12.3349
  55   2.0000      -0.445694       -12.1280
  56   2.0000      -0.440202       -11.9785
  57   2.0000      -0.437588       -11.9074
  58   2.0000      -0.433414       -11.7938
  59   2.0000      -0.426304       -11.6003
  60   2.0000      -0.420058       -11.4303
  61   2.0000      -0.410131       -11.1602
  62   2.0000      -0.406213       -11.0536
  63   2.0000      -0.344304        -9.3690
  64   2.0000      -0.331172        -9.0117
  65   2.0000      -0.327271        -8.9055
  66   2.0000      -0.291181        -7.9234
  67   0.0000       0.030588         0.8323
  68   0.0000       0.055009         1.4969
  69   0.0000       0.109625         2.9831
  70   0.0000       0.116765         3.1773
  71   0.0000       0.125571         3.4170

MULLIKEN ATOMIC CHARGES
-----------------------
   0 S :    0.096808
   1 C :   -0.058900
   2 C :   -0.135908
   3 C :    0.080367
   4 C :   -0.167698
   5 H :   -0.010053
   6 C :    0.003299
   7 H :    0.034940
   8 H :    0.062713
   9 C :   -0.048116
  10 H :    0.032138
  11 H :    0.044866
  12 C :   -0.080668
  13 H :    0.045640
  14 H :    0.028954
  15 H :    0.031783
  16 S :    0.107608
  17 C :   -0.097146
  18 C :   -0.053475
  19 C :   -0.022514
  20 C :   -0.147873
  21 H :    0.031833
  22 C :    0.039996
  23 H :    0.031394
  24 H :    0.030016
  25 C :   -0.109495
  26 H :    0.040432
  27 H :    0.034353
  28 C :   -0.027015
  29 H :    0.037823
  30 H :    0.029898
  31 H :    0.044704
  32 H :    0.004781
  33 H :    0.064518
Sum of atomic charges:    0.0000000

LOEWDIN ATOMIC CHARGES
----------------------
   0 S :    0.376275
   1 C :   -0.177825
   2 C :   -0.057098
   3 C :   -0.059168
   4 C :   -0.171655
   5 H :    0.019214
   6 C :   -0.041962
   7 H :    0.036963
   8 H :    0.040325
   9 C :   -0.045361
  10 H :    0.023889
  11 H :    0.034758
  12 C :   -0.076100
  13 H :    0.035035
  14 H :    0.030287
  15 H :    0.020998
  16 S :    0.404601
  17 C :   -0.182638
  18 C :   -0.080546
  19 C :   -0.054768
  20 C :   -0.202230
  21 H :    0.033732
  22 C :   -0.032645
  23 H :    0.034839
  24 H :    0.025761
  25 C :   -0.041164
  26 H :    0.024751
  27 H :    0.022852
  28 C :   -0.065425
  29 H :    0.021543
  30 H :    0.028012
  31 H :    0.036197
  32 H :    0.005393
  33 H :    0.033161

  Mayer bond orders larger than 0.100000
B(  0-S ,  1-C ) :   1.1164 B(  0-S ,  4-C ) :   1.1376 B(  1-C ,  2-C ) :   1.6362
B(  1-C ,  4-C ) :   0.1047 B(  1-C , 32-H ) :   0.9771 B(  2-C ,  3-C ) :   1.2064
B(  2-C ,  6-C ) :   1.0049 B(  3-C ,  4-C ) :   1.6019 B(  3-C ,  5-H ) :   0.9961
B(  4-C , 20-C ) :   1.0210 B(  6-C ,  7-H ) :   0.9453 B(  6-C ,  8-H ) :   0.9450
B(  6-C ,  9-C ) :   1.0675 B(  9-C , 10-H ) :   0.9507 B(  9-C , 11-H ) :   0.9542
B(  9-C , 12-C ) :   1.0778 B( 12-C , 13-H ) :   0.9695 B( 12-C , 14-H ) :   0.9714
B( 12-C , 15-H ) :   0.9772 B( 16-S , 17-C ) :   1.1612 B( 16-S , 20-C ) :   1.1456
B( 17-C , 18-C ) :   1.6035 B( 17-C , 20-C ) :   0.1073 B( 17-C , 33-H ) :   0.9659
B( 18-C , 19-C ) :   1.2583 B( 18-C , 21-H ) :   0.9791 B( 19-C , 20-C ) :   1.5931
B( 19-C , 22-C ) :   1.0348 B( 22-C , 23-H ) :   0.9341 B( 22-C , 24-H ) :   0.9403
B( 22-C , 25-C ) :   1.0516 B( 25-C , 26-H ) :   0.9610 B( 25-C , 27-H ) :   0.9563
B( 25-C , 28-C ) :   1.0627 B( 28-C , 29-H ) :   0.9768 B( 28-C , 30-H ) :   0.9756
B( 28-C , 31-H ) :   0.9761

Dispersion correction           -0.014519020
FINAL SINGLE POINT ENERGY     -1339.861372657827

DIPOLE MOMENT
-------------
                                X             Y             Z
Electronic contribution:     -2.75030      26.66153       1.04505
Nuclear contribution   :      3.02971     -27.35110      -1.10446
                        -----------------------------------------
Total Dipole Moment    :      0.27941      -0.68957      -0.05942
                        -----------------------------------------
Magnitude (a.u.)       :      0.74639
Magnitude (Debye)      :      1.89718

Rotational constants in cm-1:     0.016436     0.009485     0.007303
Rotational constants in MHz :   492.741318   284.339570   218.938822

                             ****ORCA TERMINATED NORMALLY****
TOTAL RUN TIME: 0 days 0 hours 0 minutes 21 seconds 953 msec
