                         Program Version 4.2.1 -  RELEASE  -
|  1> ! wB97X-D3 SP def2-SVP
|  2> %pal
|  3> nprocs 24
|  4> end
|  5>
|  6> * xyz 0 1
|  7> S 	 31.1729 	 -28.7967 	 -129.092
|  8> C 	 30.095 	 -27.7524 	 -129.951
|  9> C 	 29.1116 	 -28.4081 	 -130.593
| 10> C 	 29.2694 	 -29.7633 	 -130.482
| 11> C 	 30.2705 	 -30.2401 	 -129.643
| 12> H 	 28.6349 	 -30.4492 	 -131.014
| 13> C 	 28.0783 	 -27.6209 	 -131.388
| 14> H 	 28.4623 	 -26.5959 	 -131.354
| 15> H 	 27.045 	 -27.5837 	 -131.062
| 16> C 	 27.9951 	 -28.0277 	 -132.868
| 17> H 	 28.9466 	 -27.9907 	 -133.437
| 18> H 	 27.6412 	 -29.0497 	 -132.884
| 19> C 	 26.8911 	 -27.2106 	 -133.578
| 20> H 	 27.345 	 -26.2065 	 -133.736
| 21> H 	 26.5192 	 -27.622 	 -134.568
| 22> H 	 25.9655 	 -27.0468 	 -133.02
| 23> S 	 32.0361 	 -32.3511 	 -130.144
| 24> C 	 31.6161 	 -33.9855 	 -129.632
| 25> C 	 30.5675 	 -33.9154 	 -128.725
| 26> C 	 29.972 	 -32.603 	 -128.639
| 27> C 	 30.6435 	 -31.5876 	 -129.357
| 28> H 	 30.2574 	 -34.7883 	 -128.137
| 29> C 	 28.8677 	 -32.2924 	 -127.723
| 30> H 	 28.3815 	 -33.2853 	 -127.447
| 31> H 	 28.1229 	 -31.7289 	 -128.262
| 32> C 	 29.3536 	 -31.4512 	 -126.512
| 33> H 	 28.4782 	 -31.1243 	 -125.944
| 34> H 	 29.8158 	 -30.5302 	 -126.806
| 35> C 	 30.1139 	 -32.403 	 -125.659
| 36> H 	 29.4662 	 -33.2321 	 -125.323
| 37> H 	 30.6668 	 -31.8302 	 -124.893
| 38> H 	 30.9393 	 -32.8463 	 -126.205
| 39> H 	 30.1413 	 -26.694 	 -129.851
| 40> H 	 32.1858 	 -34.8694 	 -129.672
| 41> *
| 42>
| 43>                          ****END OF INPUT****

CARTESIAN COORDINATES (ANGSTROEM)
---------------------------------
  S     31.172900  -28.796700  -129.092000
  C     30.095000  -27.752400  -129.951000
  C     29.111600  -28.408100  -130.593000
  C     29.269400  -29.763300  -130.482000
  C     30.270500  -30.240100  -129.643000
  H     28.634900  -30.449200  -131.014000
  C     28.078300  -27.620900  -131.388000
  H     28.462300  -26.595900  -131.354000
  H     27.045000  -27.583700  -131.062000
  C     27.995100  -28.027700  -132.868000
  H     28.946600  -27.990700  -133.437000
  H     27.641200  -29.049700  -132.884000
  C     26.891100  -27.210600  -133.578000
  H     27.345000  -26.206500  -133.736000
  H     26.519200  -27.622000  -134.568000
  H     25.965500  -27.046800  -133.020000
  S     32.036100  -32.351100  -130.144000
  C     31.616100  -33.985500  -129.632000
  C     30.567500  -33.915400  -128.725000
  C     29.972000  -32.603000  -128.639000
  C     30.643500  -31.587600  -129.357000
  H     30.257400  -34.788300  -128.137000
  C     28.867700  -32.292400  -127.723000
  H     28.381500  -33.285300  -127.447000
  H     28.122900  -31.728900  -128.262000
  C     29.353600  -31.451200  -126.512000
  H     28.478200  -31.124300  -125.944000
  H     29.815800  -30.530200  -126.806000
  C     30.113900  -32.403000  -125.659000
  H     29.466200  -33.232100  -125.323000
  H     30.666800  -31.830200  -124.893000
  H     30.939300  -32.846300  -126.205000
  H     30.141300  -26.694000  -129.851000
  H     32.185800  -34.869400  -129.672000

 Total Charge           Charge          ....    0
 Multiplicity           Mult            ....    1
 Number of Electrons    NEL             ....  134
 Basis Dimension        Dim             ....  322

ORBITAL ENERGIES
----------------

  NO   OCC          E(Eh)            E(eV)
   0   2.0000     -88.967481     -2420.9282
   1   2.0000     -88.964302     -2420.8417
   2   2.0000     -10.332609      -281.1646
   3   2.0000     -10.326466      -280.9974
   4   2.0000     -10.318455      -280.7794
   5   2.0000     -10.310571      -280.5649
   6   2.0000     -10.302606      -280.3482
   7   2.0000     -10.297265      -280.2028
   8   2.0000     -10.296112      -280.1715
   9   2.0000     -10.293587      -280.1027
  10   2.0000     -10.292712      -280.0789
  11   2.0000     -10.289618      -279.9948
  12   2.0000     -10.286328      -279.9052
  13   2.0000     -10.285498      -279.8826
  14   2.0000     -10.276885      -279.6482
  15   2.0000     -10.269589      -279.4497
  16   2.0000      -8.081960      -219.9213
  17   2.0000      -8.078267      -219.8208
  18   2.0000      -6.040330      -164.3657
  19   2.0000      -6.036972      -164.2743
  20   2.0000      -6.036405      -164.2589
  21   2.0000      -6.032970      -164.1655
  22   2.0000      -6.032672      -164.1574
  23   2.0000      -6.029047      -164.0587
  24   2.0000      -1.009970       -27.4827
  25   2.0000      -0.985981       -26.8299
  26   2.0000      -0.914179       -24.8761
  27   2.0000      -0.913763       -24.8648
  28   2.0000      -0.875441       -23.8220
  29   2.0000      -0.851149       -23.1609
  30   2.0000      -0.843271       -22.9466
  31   2.0000      -0.819272       -22.2935
  32   2.0000      -0.779456       -21.2101
  33   2.0000      -0.764506       -20.8033
  34   2.0000      -0.720159       -19.5965
  35   2.0000      -0.696176       -18.9439
  36   2.0000      -0.689647       -18.7662
  37   2.0000      -0.660076       -17.9616
  38   2.0000      -0.648477       -17.6460
  39   2.0000      -0.626598       -17.0506
  40   2.0000      -0.589514       -16.0415
  41   2.0000      -0.581399       -15.8207
  42   2.0000      -0.564581       -15.3630
  43   2.0000      -0.556408       -15.1406
  44   2.0000      -0.543134       -14.7794
  45   2.0000      -0.525092       -14.2885
  46   2.0000      -0.520309       -14.1583
  47   2.0000      -0.510352       -13.8874
  48   2.0000      -0.507160       -13.8005
  49   2.0000      -0.498266       -13.5585
  50   2.0000      -0.480299       -13.0696
  51   2.0000      -0.478784       -13.0284
  52   2.0000      -0.474647       -12.9158
  53   2.0000      -0.464860       -12.6495
  54   2.0000      -0.463142       -12.6027
  55   2.0000      -0.447673       -12.1818
  56   2.0000      -0.444122       -12.0852
  57   2.0000      -0.439497       -11.9593
  58   2.0000      -0.424919       -11.5626
  59   2.0000      -0.420308       -11.4372
  60   2.0000      -0.419458       -11.4140
  61   2.0000      -0.415997       -11.3198
  62   2.0000      -0.408110       -11.1052
  63   2.0000      -0.341949        -9.3049
  64   2.0000      -0.332838        -9.0570
  65   2.0000      -0.322636        -8.7794
  66   2.0000      -0.302345        -8.2272
  67   0.0000       0.030683         0.8349
  68   0.0000       0.050889         1.3848
  69   0.0000       0.119107         3.2411
  70   0.0000       0.123145         3.3509
  71   0.0000       0.131307         3.5730

MULLIKEN ATOMIC CHARGES
-----------------------
   0 S :    0.110591
   1 C :   -0.121561
   2 C :   -0.044786
   3 C :    0.057694
   4 C :   -0.197095
   5 H :    0.002415
   6 C :    0.085117
   7 H :    0.010289
   8 H :    0.033696
   9 C :   -0.099217
  10 H :    0.048036
  11 H :    0.029081
  12 C :   -0.081047
  13 H :    0.033740
  14 H :    0.045067
  15 H :    0.029294
  16 S :    0.106079
  17 C :   -0.065448
  18 C :   -0.051004
  19 C :   -0.059423
  20 C :   -0.146022
  21 H :    0.029907
  22 C :    0.045104
  23 H :    0.024568
  24 H :    0.020838
  25 C :   -0.028891
  26 H :    0.022170
  27 H :    0.026414
  28 C :   -0.041504
  29 H :    0.031976
  30 H :    0.029088
  31 H :    0.028488
  32 H :    0.039975
  33 H :    0.046371
Sum of atomic charges:   -0.0000000

LOEWDIN ATOMIC CHARGES
----------------------
   0 S :    0.401912
   1 C :   -0.181825
   2 C :   -0.077367
   3 C :   -0.045314
   4 C :   -0.191401
   5 H :    0.029355
   6 C :   -0.023049
   7 H :    0.029077
   8 H :    0.030773
   9 C :   -0.042861
  10 H :    0.031125
  11 H :    0.019027
  12 C :   -0.075705
  13 H :    0.027269
  14 H :    0.032282
  15 H :    0.022323
  16 S :    0.399600
  17 C :   -0.177110
  18 C :   -0.076546
  19 C :   -0.049316
  20 C :   -0.208931
  21 H :    0.034443
  22 C :   -0.037737
  23 H :    0.033321
  24 H :    0.027616
  25 C :   -0.033088
  26 H :    0.023915
  27 H :    0.018917
  28 C :   -0.067743
  29 H :    0.028667
  30 H :    0.027538
  31 H :    0.023116
  32 H :    0.022219
  33 H :    0.025496

  Mayer bond orders larger than 0.100000
B(  0-S ,  1-C ) :   1.1637 B(  0-S ,  4-C ) :   1.1349 B(  1-C ,  2-C ) :   1.6025
B(  1-C ,  4-C ) :   0.1046 B(  1-C , 32-H ) :   0.9622 B(  2-C ,  3-C ) :   1.2791
B(  2-C ,  6-C ) :   1.0049 B(  3-C ,  4-C ) :   1.5614 B(  3-C ,  5-H ) :   0.9964
B(  4-C , 20-C ) :   1.0582 B(  6-C ,  7-H ) :   0.9416 B(  6-C ,  8-H ) :   0.9393
B(  6-C ,  9-C ) :   1.0604 B(  9-C , 10-H ) :   0.9587 B(  9-C , 11-H ) :   0.9552
B(  9-C , 12-C ) :   1.0747 B( 12-C , 13-H ) :   0.9771 B( 12-C , 14-H ) :   0.9747
B( 12-C , 15-H ) :   0.9735 B( 16-S , 17-C ) :   1.1682 B( 16-S , 20-C ) :   1.1266
B( 17-C , 18-C ) :   1.5900 B( 17-C , 20-C ) :   0.1059 B( 17-C , 33-H ) :   0.9662
B( 18-C , 19-C ) :   1.2637 B( 18-C , 21-H ) :   0.9805 B( 19-C , 20-C ) :   1.5517
B( 19-C , 22-C ) :   1.0679 B( 22-C , 23-H ) :   0.9383 B( 22-C , 24-H ) :   0.9147
B( 22-C , 25-C ) :   1.0697 B( 25-C , 26-H ) :   0.9512 B( 25-C , 27-H ) :   0.9539
B( 25-C , 28-C ) :   1.0721 B( 28-C , 29-H ) :   0.9717 B( 28-C , 30-H ) :   0.9671
B( 28-C , 31-H ) :   0.9752

Dispersion correction           -0.014731501
FINAL SINGLE POINT ENERGY     -1339.873333913706

DIPOLE MOMENT
-------------
                                X             Y             Z
Electronic contribution:     18.93123      -5.29029       0.34291
Nuclear contribution   :    -19.49786       5.34402      -0.34828
                        -----------------------------------------
Total Dipole Moment    :     -0.56663       0.05373      -0.00537
                        -----------------------------------------
Magnitude (a.u.)       :      0.56919
Magnitude (Debye)      :      1.44678

Rotational constants in cm-1:     0.022229     0.007447     0.006996
Rotational constants in MHz :   666.403400   223.262876   209.748555

                             ****ORCA TERMINATED NORMALLY****
TOTAL RUN TIME: 0 days 0 hours 0 minutes 22 seconds 38 msec
