                         Program Version 4.2.1 -  RELEASE  -
|  1> ! wB97X-D3 SP def2-SVP
|  2> %pal
|  3> nprocs 24
|  4> end
|  5>
|  6> * xyz 0 1
|  7> S 	 -72.5319 	 -0.340135 	 13.5417
|  8> C 	 -73.1452 	 1.15477 	 12.9124
|  9> C 	 -74.0176 	 1.74871 	 13.7894
| 10> C 	 -74.3256 	 0.953724 	 14.9029
| 11> C 	 -73.7268 	 -0.280418 	 14.8805
| 12> H 	 -74.9259 	 1.24237 	 15.7798
| 13> C 	 -74.5664 	 3.1302 	 13.5966
| 14> H 	 -73.8742 	 3.60129 	 12.9264
| 15> H 	 -74.3381 	 3.71934 	 14.4607
| 16> C 	 -76.0104 	 3.43176 	 13.1481
| 17> H 	 -76.0741 	 4.49294 	 12.9645
| 18> H 	 -76.1794 	 2.7781 	 12.273
| 19> C 	 -77.0411 	 3.14885 	 14.2736
| 20> H 	 -76.9637 	 2.16067 	 14.7321
| 21> H 	 -76.833 	 3.73461 	 15.083
| 22> H 	 -78.026 	 3.32503 	 13.8477
| 23> S 	 -74.9938 	 -2.51175 	 16.0475
| 24> C 	 -74.3232 	 -3.18997 	 17.4715
| 25> C 	 -73.3462 	 -2.418 	 17.9998
| 26> C 	 -72.9377 	 -1.35912 	 17.0947
| 27> C 	 -73.7462 	 -1.26482 	 15.9514
| 28> H 	 -72.916 	 -2.48766 	 19.0367
| 29> C 	 -71.7589 	 -0.4609 	 17.5008
| 30> H 	 -71.9519 	 -0.203014 	 18.5522
| 31> H 	 -71.774 	 0.42539 	 16.919
| 32> C 	 -70.3371 	 -1.06467 	 17.5419
| 33> H 	 -70.2381 	 -1.89858 	 16.7862
| 34> H 	 -70.1079 	 -1.54551 	 18.474
| 35> C 	 -69.1367 	 -0.102969 	 17.2354
| 36> H 	 -69.1148 	 0.700134 	 18.0085
| 37> H 	 -69.182 	 0.346676 	 16.2692
| 38> H 	 -68.1138 	 -0.557367 	 17.2533
| 39> H 	 -72.8247 	 1.58833 	 11.9588
| 40> H 	 -74.761 	 -4.0082 	 17.9732
| 41> *
| 42>
| 43>                          ****END OF INPUT****

CARTESIAN COORDINATES (ANGSTROEM)
---------------------------------
  S    -72.531900   -0.340135   13.541700
  C    -73.145200    1.154770   12.912400
  C    -74.017600    1.748710   13.789400
  C    -74.325600    0.953724   14.902900
  C    -73.726800   -0.280418   14.880500
  H    -74.925900    1.242370   15.779800
  C    -74.566400    3.130200   13.596600
  H    -73.874200    3.601290   12.926400
  H    -74.338100    3.719340   14.460700
  C    -76.010400    3.431760   13.148100
  H    -76.074100    4.492940   12.964500
  H    -76.179400    2.778100   12.273000
  C    -77.041100    3.148850   14.273600
  H    -76.963700    2.160670   14.732100
  H    -76.833000    3.734610   15.083000
  H    -78.026000    3.325030   13.847700
  S    -74.993800   -2.511750   16.047500
  C    -74.323200   -3.189970   17.471500
  C    -73.346200   -2.418000   17.999800
  C    -72.937700   -1.359120   17.094700
  C    -73.746200   -1.264820   15.951400
  H    -72.916000   -2.487660   19.036700
  C    -71.758900   -0.460900   17.500800
  H    -71.951900   -0.203014   18.552200
  H    -71.774000    0.425390   16.919000
  C    -70.337100   -1.064670   17.541900
  H    -70.238100   -1.898580   16.786200
  H    -70.107900   -1.545510   18.474000
  C    -69.136700   -0.102969   17.235400
  H    -69.114800    0.700134   18.008500
  H    -69.182000    0.346676   16.269200
  H    -68.113800   -0.557367   17.253300
  H    -72.824700    1.588330   11.958800
  H    -74.761000   -4.008200   17.973200

 Total Charge           Charge          ....    0
 Multiplicity           Mult            ....    1
 Number of Electrons    NEL             ....  134
 Basis Dimension        Dim             ....  322

ORBITAL ENERGIES
----------------

  NO   OCC          E(Eh)            E(eV)
   0   2.0000     -88.965707     -2420.8800
   1   2.0000     -88.962913     -2420.8039
   2   2.0000     -10.329263      -281.0735
   3   2.0000     -10.326755      -281.0053
   4   2.0000     -10.315649      -280.7031
   5   2.0000     -10.312153      -280.6079
   6   2.0000     -10.306886      -280.4646
   7   2.0000     -10.296509      -280.1823
   8   2.0000     -10.295249      -280.1480
   9   2.0000     -10.294656      -280.1318
  10   2.0000     -10.290964      -280.0314
  11   2.0000     -10.289120      -279.9812
  12   2.0000     -10.288861      -279.9741
  13   2.0000     -10.282519      -279.8016
  14   2.0000     -10.280675      -279.7514
  15   2.0000     -10.269328      -279.4426
  16   2.0000      -8.080091      -219.8705
  17   2.0000      -8.078292      -219.8215
  18   2.0000      -6.038522      -164.3165
  19   2.0000      -6.036790      -164.2694
  20   2.0000      -6.034700      -164.2125
  21   2.0000      -6.032681      -164.1576
  22   2.0000      -6.030895      -164.1090
  23   2.0000      -6.029053      -164.0589
  24   2.0000      -1.006067       -27.3765
  25   2.0000      -0.987574       -26.8732
  26   2.0000      -0.910282       -24.7700
  27   2.0000      -0.900632       -24.5075
  28   2.0000      -0.871805       -23.7230
  29   2.0000      -0.849222       -23.1085
  30   2.0000      -0.843934       -22.9646
  31   2.0000      -0.818018       -22.2594
  32   2.0000      -0.784686       -21.3524
  33   2.0000      -0.770934       -20.9782
  34   2.0000      -0.706197       -19.2166
  35   2.0000      -0.701044       -19.0764
  36   2.0000      -0.694852       -18.9079
  37   2.0000      -0.656785       -17.8720
  38   2.0000      -0.642801       -17.4915
  39   2.0000      -0.616948       -16.7880
  40   2.0000      -0.598285       -16.2801
  41   2.0000      -0.576174       -15.6785
  42   2.0000      -0.557931       -15.1821
  43   2.0000      -0.547190       -14.8898
  44   2.0000      -0.542410       -14.7597
  45   2.0000      -0.520409       -14.1611
  46   2.0000      -0.516068       -14.0429
  47   2.0000      -0.513981       -13.9861
  48   2.0000      -0.502843       -13.6830
  49   2.0000      -0.498084       -13.5536
  50   2.0000      -0.485882       -13.2215
  51   2.0000      -0.480194       -13.0667
  52   2.0000      -0.476857       -12.9759
  53   2.0000      -0.466090       -12.6830
  54   2.0000      -0.462578       -12.5874
  55   2.0000      -0.447345       -12.1729
  56   2.0000      -0.439751       -11.9662
  57   2.0000      -0.435311       -11.8454
  58   2.0000      -0.429709       -11.6930
  59   2.0000      -0.426519       -11.6062
  60   2.0000      -0.423044       -11.5116
  61   2.0000      -0.415524       -11.3070
  62   2.0000      -0.405895       -11.0450
  63   2.0000      -0.338571        -9.2130
  64   2.0000      -0.329851        -8.9757
  65   2.0000      -0.320028        -8.7084
  66   2.0000      -0.310688        -8.4542
  67   0.0000       0.044195         1.2026
  68   0.0000       0.051538         1.4024
  69   0.0000       0.103229         2.8090
  70   0.0000       0.119333         3.2472
  71   0.0000       0.133886         3.6432

MULLIKEN ATOMIC CHARGES
-----------------------
   0 S :    0.108618
   1 C :   -0.124090
   2 C :   -0.077951
   3 C :    0.038649
   4 C :   -0.175377
   5 H :    0.029482
   6 C :    0.059868
   7 H :   -0.003272
   8 H :    0.009756
   9 C :   -0.034963
  10 H :    0.032475
  11 H :    0.037080
  12 C :   -0.027140
  13 H :    0.027157
  14 H :   -0.000261
  15 H :    0.040546
  16 S :    0.109215
  17 C :   -0.066162
  18 C :   -0.039448
  19 C :   -0.049365
  20 C :   -0.189368
  21 H :    0.040000
  22 C :    0.110296
  23 H :    0.026707
  24 H :    0.016722
  25 C :   -0.081994
  26 H :    0.037723
  27 H :    0.022903
  28 C :   -0.078954
  29 H :    0.029774
  30 H :    0.033192
  31 H :    0.038457
  32 H :    0.053929
  33 H :    0.045796
Sum of atomic charges:    0.0000000

LOEWDIN ATOMIC CHARGES
----------------------
   0 S :    0.394652
   1 C :   -0.192801
   2 C :   -0.072411
   3 C :   -0.054193
   4 C :   -0.186156
   5 H :    0.039733
   6 C :   -0.040590
   7 H :    0.026224
   8 H :    0.027365
   9 C :   -0.028406
  10 H :    0.026816
  11 H :    0.027840
  12 C :   -0.061069
  13 H :    0.025677
  14 H :    0.010070
  15 H :    0.028861
  16 S :    0.413344
  17 C :   -0.183559
  18 C :   -0.079853
  19 C :   -0.045562
  20 C :   -0.212138
  21 H :    0.041372
  22 C :   -0.029738
  23 H :    0.036832
  24 H :    0.024264
  25 C :   -0.043968
  26 H :    0.028752
  27 H :    0.018327
  28 C :   -0.070651
  29 H :    0.023560
  30 H :    0.019571
  31 H :    0.032309
  32 H :    0.032615
  33 H :    0.022910

  Mayer bond orders larger than 0.100000
B(  0-S ,  1-C ) :   1.1493 B(  0-S ,  4-C ) :   1.1359 B(  1-C ,  2-C ) :   1.6057
B(  1-C , 32-H ) :   0.9646 B(  2-C ,  3-C ) :   1.2410 B(  2-C ,  6-C ) :   1.0264
B(  3-C ,  4-C ) :   1.5938 B(  3-C ,  5-H ) :   0.9891 B(  4-C , 20-C ) :   1.0212
B(  6-C ,  7-H ) :   0.9287 B(  6-C ,  8-H ) :   0.9311 B(  6-C ,  9-C ) :   1.0720
B(  9-C , 10-H ) :   0.9504 B(  9-C , 11-H ) :   0.9561 B(  9-C , 12-C ) :   1.0795
B( 12-C , 13-H ) :   0.9730 B( 12-C , 14-H ) :   0.9729 B( 12-C , 15-H ) :   0.9749
B( 16-S , 17-C ) :   1.1676 B( 16-S , 20-C ) :   1.1310 B( 17-C , 18-C ) :   1.6052
B( 17-C , 33-H ) :   0.9708 B( 18-C , 19-C ) :   1.2407 B( 18-C , 21-H ) :   0.9808
B( 19-C , 20-C ) :   1.6057 B( 19-C , 22-C ) :   1.0566 B( 22-C , 23-H ) :   0.9316
B( 22-C , 24-H ) :   0.9376 B( 22-C , 25-C ) :   1.0388 B( 25-C , 26-H ) :   0.9636
B( 25-C , 27-H ) :   0.9573 B( 25-C , 28-C ) :   1.0815 B( 28-C , 29-H ) :   0.9772
B( 28-C , 30-H ) :   0.9772 B( 28-C , 31-H ) :   0.9757

Dispersion correction           -0.014336917
FINAL SINGLE POINT ENERGY     -1339.875306626348

DIPOLE MOMENT
-------------
                                X             Y             Z
Electronic contribution:     -4.76036     -18.07611      -5.39542
Nuclear contribution   :      4.85829      18.61902       5.77337
                        -----------------------------------------
Total Dipole Moment    :      0.09793       0.54291       0.37795
                        -----------------------------------------
Magnitude (a.u.)       :      0.66872
Magnitude (Debye)      :      1.69975

Rotational constants in cm-1:     0.017805     0.008463     0.006915
Rotational constants in MHz :   533.784299   253.723811   207.294380

                             ****ORCA TERMINATED NORMALLY****
TOTAL RUN TIME: 0 days 0 hours 0 minutes 21 seconds 113 msec
