                         Program Version 4.2.1 -  RELEASE  -
|  1> ! wB97X-D3 SP def2-SVP
|  2> %pal
|  3> nprocs 24
|  4> end
|  5>
|  6> * xyz 0 1
|  7> S 	 -45.2579 	 -3.4181 	 -12.1093
|  8> C 	 -46.5001 	 -2.6669 	 -11.1041
|  9> C 	 -47.1229 	 -1.57994 	 -11.7595
| 10> C 	 -46.7343 	 -1.50062 	 -13.143
| 11> C 	 -45.8394 	 -2.45824 	 -13.5598
| 12> H 	 -47.0137 	 -0.731349 	 -13.8458
| 13> C 	 -48.1024 	 -0.574318 	 -11.1557
| 14> H 	 -48.209 	 0.337802 	 -11.7618
| 15> H 	 -47.5391 	 -0.0740352 	 -10.3562
| 16> C 	 -49.4237 	 -1.04918 	 -10.5403
| 17> H 	 -49.3812 	 -2.07942 	 -10.2388
| 18> H 	 -49.8557 	 -0.385435 	 -9.74784
| 19> C 	 -50.4848 	 -1.02291 	 -11.6434
| 20> H 	 -50.2113 	 -1.58524 	 -12.5152
| 21> H 	 -51.3365 	 -1.4472 	 -11.2728
| 22> H 	 -50.8178 	 -0.0672416 	 -11.969
| 23> S 	 -43.8359 	 -2.4071 	 -15.4225
| 24> C 	 -44.2258 	 -2.46037 	 -17.1093
| 25> C 	 -45.4713 	 -3.06722 	 -17.3318
| 26> C 	 -46.1518 	 -3.12356 	 -16.0741
| 27> C 	 -45.4535 	 -2.70333 	 -14.9304
| 28> H 	 -45.8112 	 -3.35588 	 -18.3239
| 29> C 	 -47.5773 	 -3.68891 	 -16.132
| 30> H 	 -47.5114 	 -4.36574 	 -15.3386
| 31> H 	 -47.7382 	 -4.17901 	 -17.0392
| 32> C 	 -48.724 	 -2.695 	 -15.895
| 33> H 	 -48.6078 	 -2.37465 	 -14.9109
| 34> H 	 -49.8182 	 -2.98733 	 -15.6794
| 35> C 	 -48.7078 	 -1.39778 	 -16.7566
| 36> H 	 -49.4241 	 -0.647368 	 -16.5405
| 37> H 	 -48.8442 	 -1.79358 	 -17.8492
| 38> H 	 -47.689 	 -0.955844 	 -16.7412
| 39> H 	 -46.7437 	 -2.95367 	 -10.0888
| 40> H 	 -43.5183 	 -2.25805 	 -17.9376
| 41> *
| 42>
| 43>                          ****END OF INPUT****

CARTESIAN COORDINATES (ANGSTROEM)
---------------------------------
  S    -45.257900   -3.418100  -12.109300
  C    -46.500100   -2.666900  -11.104100
  C    -47.122900   -1.579940  -11.759500
  C    -46.734300   -1.500620  -13.143000
  C    -45.839400   -2.458240  -13.559800
  H    -47.013700   -0.731349  -13.845800
  C    -48.102400   -0.574318  -11.155700
  H    -48.209000    0.337802  -11.761800
  H    -47.539100   -0.074035  -10.356200
  C    -49.423700   -1.049180  -10.540300
  H    -49.381200   -2.079420  -10.238800
  H    -49.855700   -0.385435   -9.747840
  C    -50.484800   -1.022910  -11.643400
  H    -50.211300   -1.585240  -12.515200
  H    -51.336500   -1.447200  -11.272800
  H    -50.817800   -0.067242  -11.969000
  S    -43.835900   -2.407100  -15.422500
  C    -44.225800   -2.460370  -17.109300
  C    -45.471300   -3.067220  -17.331800
  C    -46.151800   -3.123560  -16.074100
  C    -45.453500   -2.703330  -14.930400
  H    -45.811200   -3.355880  -18.323900
  C    -47.577300   -3.688910  -16.132000
  H    -47.511400   -4.365740  -15.338600
  H    -47.738200   -4.179010  -17.039200
  C    -48.724000   -2.695000  -15.895000
  H    -48.607800   -2.374650  -14.910900
  H    -49.818200   -2.987330  -15.679400
  C    -48.707800   -1.397780  -16.756600
  H    -49.424100   -0.647368  -16.540500
  H    -48.844200   -1.793580  -17.849200
  H    -47.689000   -0.955844  -16.741200
  H    -46.743700   -2.953670  -10.088800
  H    -43.518300   -2.258050  -17.937600

 Total Charge           Charge          ....    0
 Multiplicity           Mult            ....    1
 Number of Electrons    NEL             ....  134
 Basis Dimension        Dim             ....  322

ORBITAL ENERGIES
----------------

  NO   OCC          E(Eh)            E(eV)
   0   2.0000     -88.970017     -2420.9972
   1   2.0000     -88.966001     -2420.8880
   2   2.0000     -10.335695      -281.2486
   3   2.0000     -10.325944      -280.9832
   4   2.0000     -10.323285      -280.9109
   5   2.0000     -10.322814      -280.8980
   6   2.0000     -10.310849      -280.5725
   7   2.0000     -10.308681      -280.5135
   8   2.0000     -10.299040      -280.2511
   9   2.0000     -10.297945      -280.2213
  10   2.0000     -10.295028      -280.1419
  11   2.0000     -10.291458      -280.0448
  12   2.0000     -10.282249      -279.7942
  13   2.0000     -10.281534      -279.7748
  14   2.0000     -10.280641      -279.7505
  15   2.0000     -10.261536      -279.2306
  16   2.0000      -8.083147      -219.9536
  17   2.0000      -8.081757      -219.9158
  18   2.0000      -6.041846      -164.4070
  19   2.0000      -6.040189      -164.3619
  20   2.0000      -6.037960      -164.3012
  21   2.0000      -6.036067      -164.2497
  22   2.0000      -6.033717      -164.1858
  23   2.0000      -6.032581      -164.1549
  24   2.0000      -1.007444       -27.4139
  25   2.0000      -0.979394       -26.6507
  26   2.0000      -0.911288       -24.7974
  27   2.0000      -0.905732       -24.6462
  28   2.0000      -0.872344       -23.7377
  29   2.0000      -0.849020       -23.1030
  30   2.0000      -0.843219       -22.9452
  31   2.0000      -0.816413       -22.2157
  32   2.0000      -0.783060       -21.3082
  33   2.0000      -0.770635       -20.9701
  34   2.0000      -0.709847       -19.3159
  35   2.0000      -0.704689       -19.1756
  36   2.0000      -0.689989       -18.7756
  37   2.0000      -0.665153       -18.0997
  38   2.0000      -0.644105       -17.5270
  39   2.0000      -0.614499       -16.7214
  40   2.0000      -0.586413       -15.9571
  41   2.0000      -0.578215       -15.7340
  42   2.0000      -0.561716       -15.2851
  43   2.0000      -0.554928       -15.1004
  44   2.0000      -0.543031       -14.7766
  45   2.0000      -0.536702       -14.6044
  46   2.0000      -0.516982       -14.0678
  47   2.0000      -0.513282       -13.9671
  48   2.0000      -0.506784       -13.7903
  49   2.0000      -0.491451       -13.3731
  50   2.0000      -0.485026       -13.1982
  51   2.0000      -0.478571       -13.0226
  52   2.0000      -0.469846       -12.7852
  53   2.0000      -0.464101       -12.6288
  54   2.0000      -0.461388       -12.5550
  55   2.0000      -0.450109       -12.2481
  56   2.0000      -0.445691       -12.1279
  57   2.0000      -0.439091       -11.9483
  58   2.0000      -0.433270       -11.7899
  59   2.0000      -0.428030       -11.6473
  60   2.0000      -0.412936       -11.2366
  61   2.0000      -0.411651       -11.2016
  62   2.0000      -0.393851       -10.7172
  63   2.0000      -0.344107        -9.3636
  64   2.0000      -0.330508        -8.9936
  65   2.0000      -0.324212        -8.8223
  66   2.0000      -0.294533        -8.0146
  67   0.0000       0.029966         0.8154
  68   0.0000       0.044648         1.2149
  69   0.0000       0.105705         2.8764
  70   0.0000       0.108128         2.9423
  71   0.0000       0.131792         3.5863

MULLIKEN ATOMIC CHARGES
-----------------------
   0 S :    0.106048
   1 C :   -0.114682
   2 C :   -0.087527
   3 C :    0.060009
   4 C :   -0.159950
   5 H :    0.022131
   6 C :    0.050625
   7 H :    0.017776
   8 H :    0.029042
   9 C :   -0.051128
  10 H :    0.029131
  11 H :    0.040240
  12 C :   -0.019208
  13 H :    0.026354
  14 H :   -0.001439
  15 H :    0.013693
  16 S :    0.117990
  17 C :   -0.111242
  18 C :   -0.033966
  19 C :   -0.096709
  20 C :   -0.163155
  21 H :    0.031287
  22 C :    0.172402
  23 H :    0.024473
  24 H :    0.004896
  25 C :   -0.074275
  26 H :   -0.008480
  27 H :    0.028612
  28 C :   -0.084998
  29 H :    0.036386
  30 H :    0.029995
  31 H :    0.044895
  32 H :    0.050821
  33 H :    0.069954
Sum of atomic charges:   -0.0000000

LOEWDIN ATOMIC CHARGES
----------------------
   0 S :    0.365388
   1 C :   -0.186525
   2 C :   -0.061112
   3 C :   -0.048415
   4 C :   -0.176865
   5 H :    0.035402
   6 C :   -0.044388
   7 H :    0.033261
   8 H :    0.036691
   9 C :   -0.033846
  10 H :    0.024741
  11 H :    0.033820
  12 C :   -0.057729
  13 H :    0.022132
  14 H :    0.011223
  15 H :    0.017870
  16 S :    0.434575
  17 C :   -0.189505
  18 C :   -0.074086
  19 C :   -0.043144
  20 C :   -0.227804
  21 H :    0.036623
  22 C :   -0.012166
  23 H :    0.031729
  24 H :    0.018816
  25 C :   -0.059157
  26 H :    0.009499
  27 H :    0.036718
  28 C :   -0.071821
  29 H :    0.019067
  30 H :    0.029501
  31 H :    0.026243
  32 H :    0.028513
  33 H :    0.034751

  Mayer bond orders larger than 0.100000
B(  0-S ,  1-C ) :   1.1391 B(  0-S ,  4-C ) :   1.1086 B(  1-C ,  2-C ) :   1.6104
B(  1-C ,  4-C ) :   0.1024 B(  1-C , 32-H ) :   0.9678 B(  2-C ,  3-C ) :   1.2239
B(  2-C ,  6-C ) :   1.0177 B(  3-C ,  4-C ) :   1.6124 B(  3-C ,  5-H ) :   0.9853
B(  4-C , 20-C ) :   1.0483 B(  6-C ,  7-H ) :   0.9468 B(  6-C ,  8-H ) :   0.9306
B(  6-C ,  9-C ) :   1.0604 B(  9-C , 10-H ) :   0.9601 B(  9-C , 11-H ) :   0.9551
B(  9-C , 12-C ) :   1.0840 B( 12-C , 13-H ) :   0.9772 B( 12-C , 14-H ) :   0.9681
B( 12-C , 15-H ) :   0.9735 B( 16-S , 17-C ) :   1.1992 B( 16-S , 20-C ) :   1.1369
B( 17-C , 18-C ) :   1.5580 B( 17-C , 20-C ) :   0.1033 B( 17-C , 33-H ) :   0.9627
B( 18-C , 19-C ) :   1.2627 B( 18-C , 21-H ) :   0.9952 B( 19-C , 20-C ) :   1.5670
B( 19-C , 22-C ) :   1.0154 B( 22-C , 23-H ) :   0.9298 B( 22-C , 24-H ) :   0.9446
B( 22-C , 25-C ) :   1.0573 B( 25-C , 26-H ) :   0.9450 B( 25-C , 27-H ) :   0.9514
B( 25-C , 28-C ) :   1.0744 B( 28-C , 29-H ) :   0.9763 B( 28-C , 30-H ) :   0.9776
B( 28-C , 31-H ) :   0.9701

Dispersion correction           -0.015805961
FINAL SINGLE POINT ENERGY     -1339.832114202744

DIPOLE MOMENT
-------------
                                X             Y             Z
Electronic contribution:     29.09547      -8.90872       0.23051
Nuclear contribution   :    -29.63114       9.15627      -0.24259
                        -----------------------------------------
Total Dipole Moment    :     -0.53567       0.24756      -0.01209
                        -----------------------------------------
Magnitude (a.u.)       :      0.59023
Magnitude (Debye)      :      1.50025

Rotational constants in cm-1:     0.019614     0.009512     0.007149
Rotational constants in MHz :   588.000363   285.165948   214.323583

                             ****ORCA TERMINATED NORMALLY****
TOTAL RUN TIME: 0 days 0 hours 0 minutes 22 seconds 783 msec
