                         Program Version 4.2.1 -  RELEASE  -
|  1> ! wB97X-D3 SP def2-SVP
|  2> %pal
|  3> nprocs 24
|  4> end
|  5>
|  6> * xyz 0 1
|  7> S 	 -81.2 	 -15.7933 	 -53.2192
|  8> C 	 -82.8316 	 -16.3086 	 -52.7674
|  9> C 	 -83.6512 	 -15.2301 	 -52.4505
| 10> C 	 -82.9659 	 -13.9668 	 -52.4606
| 11> C 	 -81.6062 	 -14.1183 	 -52.7205
| 12> H 	 -83.4607 	 -13.0145 	 -52.3118
| 13> C 	 -85.2098 	 -15.3025 	 -52.306
| 14> H 	 -85.3813 	 -14.981 	 -51.309
| 15> H 	 -85.6036 	 -16.3411 	 -52.427
| 16> C 	 -85.9906 	 -14.3025 	 -53.1937
| 17> H 	 -87.0013 	 -14.2479 	 -52.8344
| 18> H 	 -85.6839 	 -13.2884 	 -53.2698
| 19> C 	 -85.9709 	 -14.6438 	 -54.7098
| 20> H 	 -86.4265 	 -15.5836 	 -55.0573
| 21> H 	 -86.3302 	 -13.8173 	 -55.3686
| 22> H 	 -84.9685 	 -14.7026 	 -55.015
| 23> S 	 -79.5391 	 -13.0804 	 -54.1028
| 24> C 	 -78.2373 	 -12.1588 	 -53.254
| 25> C 	 -78.6895 	 -11.8606 	 -51.9405
| 26> C 	 -79.9434 	 -12.4452 	 -51.6201
| 27> C 	 -80.5133 	 -13.1736 	 -52.6915
| 28> H 	 -78.0649 	 -11.3248 	 -51.2305
| 29> C 	 -80.4984 	 -12.3336 	 -50.2629
| 30> H 	 -81.5571 	 -12.581 	 -50.2688
| 31> H 	 -80.3982 	 -11.2197 	 -50.0437
| 32> C 	 -80.007 	 -13.2594 	 -49.1958
| 33> H 	 -78.8831 	 -13.3988 	 -49.0826
| 34> H 	 -80.2159 	 -14.3226 	 -49.3175
| 35> C 	 -80.5763 	 -12.8969 	 -47.7694
| 36> H 	 -80.4027 	 -13.7406 	 -47.0916
| 37> H 	 -81.6296 	 -12.842 	 -47.7919
| 38> H 	 -80.1592 	 -12.083 	 -47.3107
| 39> H 	 -83.215 	 -17.3255 	 -52.6426
| 40> H 	 -77.3048 	 -12.0098 	 -53.6419
| 41> *
| 42>
| 43>                          ****END OF INPUT****

CARTESIAN COORDINATES (ANGSTROEM)
---------------------------------
  S    -81.200000  -15.793300  -53.219200
  C    -82.831600  -16.308600  -52.767400
  C    -83.651200  -15.230100  -52.450500
  C    -82.965900  -13.966800  -52.460600
  C    -81.606200  -14.118300  -52.720500
  H    -83.460700  -13.014500  -52.311800
  C    -85.209800  -15.302500  -52.306000
  H    -85.381300  -14.981000  -51.309000
  H    -85.603600  -16.341100  -52.427000
  C    -85.990600  -14.302500  -53.193700
  H    -87.001300  -14.247900  -52.834400
  H    -85.683900  -13.288400  -53.269800
  C    -85.970900  -14.643800  -54.709800
  H    -86.426500  -15.583600  -55.057300
  H    -86.330200  -13.817300  -55.368600
  H    -84.968500  -14.702600  -55.015000
  S    -79.539100  -13.080400  -54.102800
  C    -78.237300  -12.158800  -53.254000
  C    -78.689500  -11.860600  -51.940500
  C    -79.943400  -12.445200  -51.620100
  C    -80.513300  -13.173600  -52.691500
  H    -78.064900  -11.324800  -51.230500
  C    -80.498400  -12.333600  -50.262900
  H    -81.557100  -12.581000  -50.268800
  H    -80.398200  -11.219700  -50.043700
  C    -80.007000  -13.259400  -49.195800
  H    -78.883100  -13.398800  -49.082600
  H    -80.215900  -14.322600  -49.317500
  C    -80.576300  -12.896900  -47.769400
  H    -80.402700  -13.740600  -47.091600
  H    -81.629600  -12.842000  -47.791900
  H    -80.159200  -12.083000  -47.310700
  H    -83.215000  -17.325500  -52.642600
  H    -77.304800  -12.009800  -53.641900

 Total Charge           Charge          ....    0
 Multiplicity           Mult            ....    1
 Number of Electrons    NEL             ....  134
 Basis Dimension        Dim             ....  322

ORBITAL ENERGIES
----------------

  NO   OCC          E(Eh)            E(eV)
   0   2.0000     -88.968738     -2420.9624
   1   2.0000     -88.966164     -2420.8924
   2   2.0000     -10.335973      -281.2561
   3   2.0000     -10.325275      -280.9650
   4   2.0000     -10.320363      -280.8314
   5   2.0000     -10.317072      -280.7418
   6   2.0000     -10.305345      -280.4227
   7   2.0000     -10.301921      -280.3295
   8   2.0000     -10.300813      -280.2994
   9   2.0000     -10.300547      -280.2921
  10   2.0000     -10.300201      -280.2827
  11   2.0000     -10.290932      -280.0305
  12   2.0000     -10.288980      -279.9774
  13   2.0000     -10.287831      -279.9461
  14   2.0000     -10.272138      -279.5191
  15   2.0000     -10.268171      -279.4111
  16   2.0000      -8.082330      -219.9314
  17   2.0000      -8.080528      -219.8824
  18   2.0000      -6.040976      -164.3833
  19   2.0000      -6.039027      -164.3303
  20   2.0000      -6.037095      -164.2777
  21   2.0000      -6.034906      -164.2181
  22   2.0000      -6.032885      -164.1631
  23   2.0000      -6.031498      -164.1254
  24   2.0000      -1.003012       -27.2934
  25   2.0000      -0.976229       -26.5645
  26   2.0000      -0.911075       -24.7916
  27   2.0000      -0.905537       -24.6409
  28   2.0000      -0.867574       -23.6079
  29   2.0000      -0.850137       -23.1334
  30   2.0000      -0.842755       -22.9325
  31   2.0000      -0.813694       -22.1417
  32   2.0000      -0.783159       -21.3108
  33   2.0000      -0.771577       -20.9957
  34   2.0000      -0.712712       -19.3939
  35   2.0000      -0.700621       -19.0649
  36   2.0000      -0.697032       -18.9672
  37   2.0000      -0.666289       -18.1306
  38   2.0000      -0.637133       -17.3373
  39   2.0000      -0.623117       -16.9559
  40   2.0000      -0.602059       -16.3829
  41   2.0000      -0.563101       -15.3228
  42   2.0000      -0.555912       -15.1271
  43   2.0000      -0.550075       -14.9683
  44   2.0000      -0.537126       -14.6159
  45   2.0000      -0.525712       -14.3053
  46   2.0000      -0.522852       -14.2275
  47   2.0000      -0.517264       -14.0755
  48   2.0000      -0.502805       -13.6820
  49   2.0000      -0.498528       -13.5656
  50   2.0000      -0.485822       -13.2199
  51   2.0000      -0.481569       -13.1042
  52   2.0000      -0.466348       -12.6900
  53   2.0000      -0.460694       -12.5361
  54   2.0000      -0.459722       -12.5097
  55   2.0000      -0.448260       -12.1978
  56   2.0000      -0.442969       -12.0538
  57   2.0000      -0.441119       -12.0035
  58   2.0000      -0.434495       -11.8232
  59   2.0000      -0.427456       -11.6317
  60   2.0000      -0.417501       -11.3608
  61   2.0000      -0.415150       -11.2968
  62   2.0000      -0.404341       -11.0027
  63   2.0000      -0.342469        -9.3191
  64   2.0000      -0.331493        -9.0204
  65   2.0000      -0.329892        -8.9768
  66   2.0000      -0.287476        -7.8226
  67   0.0000       0.023432         0.6376
  68   0.0000       0.058683         1.5968
  69   0.0000       0.104190         2.8351
  70   0.0000       0.119542         3.2529
  71   0.0000       0.132810         3.6139

MULLIKEN ATOMIC CHARGES
-----------------------
   0 S :    0.115086
   1 C :   -0.119280
   2 C :   -0.116878
   3 C :    0.044271
   4 C :   -0.154749
   5 H :    0.022760
   6 C :    0.094833
   7 H :    0.025418
   8 H :    0.035315
   9 C :   -0.064391
  10 H :    0.027477
  11 H :    0.023844
  12 C :   -0.072630
  13 H :    0.030342
  14 H :    0.033032
  15 H :    0.022355
  16 S :    0.094675
  17 C :   -0.076168
  18 C :   -0.025551
  19 C :   -0.019540
  20 C :   -0.160728
  21 H :    0.025180
  22 C :    0.072242
  23 H :    0.013642
  24 H :    0.045296
  25 C :   -0.095332
  26 H :    0.023257
  27 H :    0.030113
  28 C :   -0.014315
  29 H :    0.022306
  30 H :    0.015811
  31 H :    0.019860
  32 H :    0.051009
  33 H :    0.031437
Sum of atomic charges:    0.0000000

LOEWDIN ATOMIC CHARGES
----------------------
   0 S :    0.384823
   1 C :   -0.200498
   2 C :   -0.063494
   3 C :   -0.060297
   4 C :   -0.174187
   5 H :    0.034125
   6 C :   -0.023017
   7 H :    0.027466
   8 H :    0.035985
   9 C :   -0.038487
  10 H :    0.023164
  11 H :    0.024032
  12 C :   -0.071913
  13 H :    0.021872
  14 H :    0.030437
  15 H :    0.019651
  16 S :    0.403112
  17 C :   -0.158424
  18 C :   -0.058850
  19 C :   -0.059457
  20 C :   -0.217752
  21 H :    0.033370
  22 C :   -0.044503
  23 H :    0.033359
  24 H :    0.044387
  25 C :   -0.044894
  26 H :    0.024660
  27 H :    0.028954
  28 C :   -0.054401
  29 H :    0.030082
  30 H :    0.018037
  31 H :    0.010788
  32 H :    0.032798
  33 H :    0.009072

  Mayer bond orders larger than 0.100000
B(  0-S ,  1-C ) :   1.1218 B(  0-S ,  4-C ) :   1.1353 B(  1-C ,  2-C ) :   1.6431
B(  1-C , 32-H ) :   0.9618 B(  2-C ,  3-C ) :   1.2163 B(  2-C ,  6-C ) :   1.0099
B(  3-C ,  4-C ) :   1.5875 B(  3-C ,  5-H ) :   0.9917 B(  4-C , 20-C ) :   1.0438
B(  6-C ,  7-H ) :   0.9319 B(  6-C ,  8-H ) :   0.9522 B(  6-C ,  9-C ) :   1.0702
B(  9-C , 10-H ) :   0.9570 B(  9-C , 11-H ) :   0.9573 B(  9-C , 12-C ) :   1.0601
B( 12-C , 13-H ) :   0.9777 B( 12-C , 14-H ) :   0.9767 B( 12-C , 15-H ) :   0.9755
B( 16-S , 17-C ) :   1.1521 B( 16-S , 20-C ) :   1.1559 B( 17-C , 18-C ) :   1.5612
B( 17-C , 20-C ) :   0.1070 B( 17-C , 33-H ) :   0.9855 B( 18-C , 19-C ) :   1.2741
B( 18-C , 21-H ) :   0.9878 B( 19-C , 20-C ) :   1.5408 B( 19-C , 22-C ) :   1.0575
B( 22-C , 23-H ) :   0.9199 B( 22-C , 24-H ) :   0.9360 B( 22-C , 25-C ) :   1.0551
B( 25-C , 26-H ) :   0.9564 B( 25-C , 27-H ) :   0.9534 B( 25-C , 28-C ) :   1.0777
B( 28-C , 29-H ) :   0.9732 B( 28-C , 30-H ) :   0.9742 B( 28-C , 31-H ) :   0.9803

Dispersion correction           -0.014272861
FINAL SINGLE POINT ENERGY     -1339.854740497150

DIPOLE MOMENT
-------------
                                X             Y             Z
Electronic contribution:     17.17672      -3.07250     -14.92232
Nuclear contribution   :    -17.47847       3.18473      15.41467
                        -----------------------------------------
Total Dipole Moment    :     -0.30175       0.11223       0.49236
                        -----------------------------------------
Magnitude (a.u.)       :      0.58827
Magnitude (Debye)      :      1.49527

Rotational constants in cm-1:     0.018165     0.008685     0.007053
Rotational constants in MHz :   544.567443   260.373013   211.449023

                             ****ORCA TERMINATED NORMALLY****
TOTAL RUN TIME: 0 days 0 hours 0 minutes 21 seconds 474 msec
