                         Program Version 4.2.1 -  RELEASE  -
|  1> ! wB97X-D3 SP def2-SVP
|  2> %pal
|  3> nprocs 24
|  4> end
|  5>
|  6> * xyz 0 1
|  7> S 	 -107.446 	 59.1944 	 -94.4565
|  8> C 	 -106.13 	 59.5955 	 -93.3335
|  9> C 	 -104.912 	 59.5805 	 -94.0394
| 10> C 	 -105.059 	 59.2524 	 -95.45
| 11> C 	 -106.361 	 59.1123 	 -95.8476
| 12> H 	 -104.224 	 59.2187 	 -96.1396
| 13> C 	 -103.608 	 59.9022 	 -93.4728
| 14> H 	 -103.894 	 60.4728 	 -92.5435
| 15> H 	 -103.041 	 60.5326 	 -94.1164
| 16> C 	 -102.839 	 58.5667 	 -93.2574
| 17> H 	 -103.437 	 57.8034 	 -92.7618
| 18> H 	 -102.713 	 58.178 	 -94.3002
| 19> C 	 -101.455 	 58.71 	 -92.5911
| 20> H 	 -100.761 	 59.3119 	 -93.1861
| 21> H 	 -101.592 	 59.1753 	 -91.6159
| 22> H 	 -101.011 	 57.75 	 -92.5142
| 23> S 	 -108.1 	 57.693 	 -97.4558
| 24> C 	 -108.142 	 57.9281 	 -99.1681
| 25> C 	 -107.244 	 58.9168 	 -99.5153
| 26> C 	 -106.462 	 59.4711 	 -98.4546
| 27> C 	 -106.792 	 58.8909 	 -97.2367
| 28> H 	 -107.151 	 59.2151 	 -100.529
| 29> C 	 -105.501 	 60.6563 	 -98.6645
| 30> H 	 -105.109 	 61.0289 	 -97.7327
| 31> H 	 -106.032 	 61.4515 	 -99.1415
| 32> C 	 -104.266 	 60.3086 	 -99.4427
| 33> H 	 -104.486 	 59.9789 	 -100.47
| 34> H 	 -103.613 	 59.5684 	 -98.9167
| 35> C 	 -103.378 	 61.5239 	 -99.6371
| 36> H 	 -103.885 	 62.2973 	 -100.129
| 37> H 	 -102.533 	 61.2539 	 -100.214
| 38> H 	 -103.022 	 61.7945 	 -98.6849
| 39> H 	 -106.112 	 60.1453 	 -92.3798
| 40> H 	 -108.842 	 57.5011 	 -99.7961
| 41> *
| 42>
| 43>                          ****END OF INPUT****

CARTESIAN COORDINATES (ANGSTROEM)
---------------------------------
  S    -107.446000   59.194400  -94.456500
  C    -106.130000   59.595500  -93.333500
  C    -104.912000   59.580500  -94.039400
  C    -105.059000   59.252400  -95.450000
  C    -106.361000   59.112300  -95.847600
  H    -104.224000   59.218700  -96.139600
  C    -103.608000   59.902200  -93.472800
  H    -103.894000   60.472800  -92.543500
  H    -103.041000   60.532600  -94.116400
  C    -102.839000   58.566700  -93.257400
  H    -103.437000   57.803400  -92.761800
  H    -102.713000   58.178000  -94.300200
  C    -101.455000   58.710000  -92.591100
  H    -100.761000   59.311900  -93.186100
  H    -101.592000   59.175300  -91.615900
  H    -101.011000   57.750000  -92.514200
  S    -108.100000   57.693000  -97.455800
  C    -108.142000   57.928100  -99.168100
  C    -107.244000   58.916800  -99.515300
  C    -106.462000   59.471100  -98.454600
  C    -106.792000   58.890900  -97.236700
  H    -107.151000   59.215100  -100.529000
  C    -105.501000   60.656300  -98.664500
  H    -105.109000   61.028900  -97.732700
  H    -106.032000   61.451500  -99.141500
  C    -104.266000   60.308600  -99.442700
  H    -104.486000   59.978900  -100.470000
  H    -103.613000   59.568400  -98.916700
  C    -103.378000   61.523900  -99.637100
  H    -103.885000   62.297300  -100.129000
  H    -102.533000   61.253900  -100.214000
  H    -103.022000   61.794500  -98.684900
  H    -106.112000   60.145300  -92.379800
  H    -108.842000   57.501100  -99.796100

 Total Charge           Charge          ....    0
 Multiplicity           Mult            ....    1
 Number of Electrons    NEL             ....  134
 Basis Dimension        Dim             ....  322

ORBITAL ENERGIES
----------------

  NO   OCC          E(Eh)            E(eV)
   0   2.0000     -88.968621     -2420.9592
   1   2.0000     -88.962915     -2420.8040
   2   2.0000     -10.334124      -281.2058
   3   2.0000     -10.332439      -281.1600
   4   2.0000     -10.317096      -280.7425
   5   2.0000     -10.312950      -280.6296
   6   2.0000     -10.307565      -280.4831
   7   2.0000     -10.301009      -280.3047
   8   2.0000     -10.294046      -280.1152
   9   2.0000     -10.291846      -280.0554
  10   2.0000     -10.291667      -280.0505
  11   2.0000     -10.291644      -280.0499
  12   2.0000     -10.290554      -280.0202
  13   2.0000     -10.286277      -279.9038
  14   2.0000     -10.277121      -279.6547
  15   2.0000     -10.265518      -279.3390
  16   2.0000      -8.082190      -219.9276
  17   2.0000      -8.077698      -219.8053
  18   2.0000      -6.041068      -164.3858
  19   2.0000      -6.036837      -164.2707
  20   2.0000      -6.036182      -164.2529
  21   2.0000      -6.032629      -164.1562
  22   2.0000      -6.032151      -164.1432
  23   2.0000      -6.028532      -164.0447
  24   2.0000      -1.003221       -27.2990
  25   2.0000      -0.981697       -26.7133
  26   2.0000      -0.919438       -25.0192
  27   2.0000      -0.915517       -24.9125
  28   2.0000      -0.868330       -23.6285
  29   2.0000      -0.855330       -23.2747
  30   2.0000      -0.844945       -22.9921
  31   2.0000      -0.817023       -22.2323
  32   2.0000      -0.786761       -21.4089
  33   2.0000      -0.772072       -21.0091
  34   2.0000      -0.708478       -19.2787
  35   2.0000      -0.697550       -18.9813
  36   2.0000      -0.695420       -18.9233
  37   2.0000      -0.664337       -18.0775
  38   2.0000      -0.635435       -17.2911
  39   2.0000      -0.621503       -16.9120
  40   2.0000      -0.604165       -16.4402
  41   2.0000      -0.581466       -15.8225
  42   2.0000      -0.574122       -15.6226
  43   2.0000      -0.554566       -15.0905
  44   2.0000      -0.531427       -14.4609
  45   2.0000      -0.528402       -14.3785
  46   2.0000      -0.523305       -14.2398
  47   2.0000      -0.513314       -13.9680
  48   2.0000      -0.511116       -13.9082
  49   2.0000      -0.504133       -13.7181
  50   2.0000      -0.499710       -13.5978
  51   2.0000      -0.477600       -12.9962
  52   2.0000      -0.473915       -12.8959
  53   2.0000      -0.463821       -12.6212
  54   2.0000      -0.455131       -12.3847
  55   2.0000      -0.449542       -12.2327
  56   2.0000      -0.445255       -12.1160
  57   2.0000      -0.439382       -11.9562
  58   2.0000      -0.438182       -11.9235
  59   2.0000      -0.424515       -11.5516
  60   2.0000      -0.423149       -11.5145
  61   2.0000      -0.418132       -11.3779
  62   2.0000      -0.412611       -11.2277
  63   2.0000      -0.352303        -9.5866
  64   2.0000      -0.331314        -9.0155
  65   2.0000      -0.326185        -8.8759
  66   2.0000      -0.290598        -7.9076
  67   0.0000       0.026932         0.7329
  68   0.0000       0.069078         1.8797
  69   0.0000       0.106666         2.9025
  70   0.0000       0.121519         3.3067
  71   0.0000       0.122139         3.3236

MULLIKEN ATOMIC CHARGES
-----------------------
   0 S :    0.108683
   1 C :   -0.108473
   2 C :   -0.149306
   3 C :    0.022462
   4 C :   -0.107282
   5 H :    0.010417
   6 C :    0.087687
   7 H :    0.019988
   8 H :    0.018949
   9 C :   -0.122797
  10 H :    0.037646
  11 H :    0.027982
  12 C :    0.000771
  13 H :    0.024686
  14 H :    0.034211
  15 H :    0.030687
  16 S :    0.089596
  17 C :   -0.054500
  18 C :   -0.031685
  19 C :   -0.008756
  20 C :   -0.170625
  21 H :    0.003921
  22 C :    0.105065
  23 H :    0.006767
  24 H :    0.024376
  25 C :   -0.129630
  26 H :    0.026623
  27 H :    0.035683
  28 C :    0.020535
  29 H :    0.017288
  30 H :    0.021714
  31 H :    0.008381
  32 H :    0.063588
  33 H :    0.035349
Sum of atomic charges:   -0.0000000

LOEWDIN ATOMIC CHARGES
----------------------
   0 S :    0.389194
   1 C :   -0.215228
   2 C :   -0.054148
   3 C :   -0.067182
   4 C :   -0.182672
   5 H :    0.028298
   6 C :   -0.034888
   7 H :    0.032804
   8 H :    0.025259
   9 C :   -0.036692
  10 H :    0.026235
  11 H :    0.027100
  12 C :   -0.062143
  13 H :    0.024498
  14 H :    0.026229
  15 H :    0.023543
  16 S :    0.395686
  17 C :   -0.176096
  18 C :   -0.066405
  19 C :   -0.051715
  20 C :   -0.179945
  21 H :    0.023768
  22 C :   -0.023682
  23 H :    0.026884
  24 H :    0.030350
  25 C :   -0.040663
  26 H :    0.020341
  27 H :    0.027119
  28 C :   -0.049618
  29 H :    0.016811
  30 H :    0.023317
  31 H :    0.016037
  32 H :    0.040459
  33 H :    0.017146

  Mayer bond orders larger than 0.100000
B(  0-S ,  1-C ) :   1.1077 B(  0-S ,  4-C ) :   1.1397 B(  1-C ,  2-C ) :   1.6334
B(  1-C , 32-H ) :   0.9542 B(  2-C ,  3-C ) :   1.2115 B(  2-C ,  6-C ) :   1.0520
B(  3-C ,  4-C ) :   1.5839 B(  3-C ,  5-H ) :   0.9914 B(  4-C , 20-C ) :   1.0396
B(  6-C ,  7-H ) :   0.9345 B(  6-C ,  8-H ) :   0.9363 B(  6-C ,  9-C ) :   1.0426
B(  9-C , 10-H ) :   0.9592 B(  9-C , 11-H ) :   0.9551 B(  9-C , 12-C ) :   1.0833
B( 12-C , 13-H ) :   0.9722 B( 12-C , 14-H ) :   0.9748 B( 12-C , 15-H ) :   0.9731
B( 16-S , 17-C ) :   1.1549 B( 16-S , 20-C ) :   1.1376 B( 17-C , 18-C ) :   1.5986
B( 17-C , 33-H ) :   0.9796 B( 18-C , 19-C ) :   1.2399 B( 18-C , 21-H ) :   0.9938
B( 19-C , 20-C ) :   1.5989 B( 19-C , 22-C ) :   1.0357 B( 22-C , 23-H ) :   0.9308
B( 22-C , 24-H ) :   0.9347 B( 22-C , 25-C ) :   1.0728 B( 25-C , 26-H ) :   0.9545
B( 25-C , 27-H ) :   0.9536 B( 25-C , 28-C ) :   1.0949 B( 28-C , 29-H ) :   0.9719
B( 28-C , 30-H ) :   0.9713 B( 28-C , 31-H ) :   0.9710

Dispersion correction           -0.013640187
FINAL SINGLE POINT ENERGY     -1339.879532826313

DIPOLE MOMENT
-------------
                                X             Y             Z
Electronic contribution:    -29.30729      -9.59908       1.19356
Nuclear contribution   :     29.98413      10.02688      -1.50111
                        -----------------------------------------
Total Dipole Moment    :      0.67683       0.42780      -0.30755
                        -----------------------------------------
Magnitude (a.u.)       :      0.85773
Magnitude (Debye)      :      2.18018

Rotational constants in cm-1:     0.016655     0.008798     0.006405
Rotational constants in MHz :   499.307299   263.756738   192.028632

                             ****ORCA TERMINATED NORMALLY****
TOTAL RUN TIME: 0 days 0 hours 0 minutes 20 seconds 333 msec
