                         Program Version 4.2.1 -  RELEASE  -
|  1> ! wB97X-D3 SP def2-SVP
|  2> %pal
|  3> nprocs 24
|  4> end
|  5>
|  6> * xyz 0 1
|  7> S 	 20.2003 	 -23.7612 	 -121.677
|  8> C 	 21.9055 	 -24.2205 	 -121.64
|  9> C 	 22.4859 	 -24.0401 	 -120.355
| 10> C 	 21.5737 	 -23.263 	 -119.581
| 11> C 	 20.3135 	 -23.0114 	 -120.131
| 12> H 	 21.7215 	 -22.8571 	 -118.604
| 13> C 	 23.8088 	 -24.6001 	 -119.871
| 14> H 	 24.1834 	 -23.8794 	 -119.144
| 15> H 	 24.5915 	 -24.6415 	 -120.641
| 16> C 	 23.6342 	 -25.9788 	 -119.243
| 17> H 	 22.824 	 -25.9417 	 -118.487
| 18> H 	 23.3847 	 -26.7033 	 -120.011
| 19> C 	 24.9073 	 -26.4956 	 -118.538
| 20> H 	 24.808 	 -27.5597 	 -118.403
| 21> H 	 25.8612 	 -26.3567 	 -119.073
| 22> H 	 25.0933 	 -25.967 	 -117.561
| 23> S 	 17.8475 	 -23.3506 	 -118.848
| 24> C 	 17.0637 	 -21.9825 	 -118.273
| 25> C 	 17.7743 	 -20.8591 	 -118.464
| 26> C 	 19.0739 	 -21.0994 	 -118.974
| 27> C 	 19.1924 	 -22.3961 	 -119.477
| 28> H 	 17.3562 	 -19.9439 	 -118.104
| 29> C 	 20.0973 	 -19.9534 	 -119.083
| 30> H 	 20.7952 	 -20.0356 	 -119.915
| 31> H 	 20.7066 	 -20.1582 	 -118.213
| 32> C 	 19.468 	 -18.4979 	 -119.151
| 33> H 	 19.1829 	 -18.3751 	 -118.155
| 34> H 	 18.4895 	 -18.4412 	 -119.844
| 35> C 	 20.5468 	 -17.3847 	 -119.532
| 36> H 	 20.8782 	 -17.537 	 -120.587
| 37> H 	 21.4591 	 -17.3517 	 -118.861
| 38> H 	 20.1305 	 -16.4219 	 -119.49
| 39> H 	 22.3149 	 -24.8019 	 -122.471
| 40> H 	 16.0493 	 -21.9877 	 -117.861
| 41> *
| 42>
| 43>                          ****END OF INPUT****

CARTESIAN COORDINATES (ANGSTROEM)
---------------------------------
  S     20.200300  -23.761200  -121.677000
  C     21.905500  -24.220500  -121.640000
  C     22.485900  -24.040100  -120.355000
  C     21.573700  -23.263000  -119.581000
  C     20.313500  -23.011400  -120.131000
  H     21.721500  -22.857100  -118.604000
  C     23.808800  -24.600100  -119.871000
  H     24.183400  -23.879400  -119.144000
  H     24.591500  -24.641500  -120.641000
  C     23.634200  -25.978800  -119.243000
  H     22.824000  -25.941700  -118.487000
  H     23.384700  -26.703300  -120.011000
  C     24.907300  -26.495600  -118.538000
  H     24.808000  -27.559700  -118.403000
  H     25.861200  -26.356700  -119.073000
  H     25.093300  -25.967000  -117.561000
  S     17.847500  -23.350600  -118.848000
  C     17.063700  -21.982500  -118.273000
  C     17.774300  -20.859100  -118.464000
  C     19.073900  -21.099400  -118.974000
  C     19.192400  -22.396100  -119.477000
  H     17.356200  -19.943900  -118.104000
  C     20.097300  -19.953400  -119.083000
  H     20.795200  -20.035600  -119.915000
  H     20.706600  -20.158200  -118.213000
  C     19.468000  -18.497900  -119.151000
  H     19.182900  -18.375100  -118.155000
  H     18.489500  -18.441200  -119.844000
  C     20.546800  -17.384700  -119.532000
  H     20.878200  -17.537000  -120.587000
  H     21.459100  -17.351700  -118.861000
  H     20.130500  -16.421900  -119.490000
  H     22.314900  -24.801900  -122.471000
  H     16.049300  -21.987700  -117.861000

 Total Charge           Charge          ....    0
 Multiplicity           Mult            ....    1
 Number of Electrons    NEL             ....  134
 Basis Dimension        Dim             ....  322

ORBITAL ENERGIES
----------------

  NO   OCC          E(Eh)            E(eV)
   0   2.0000     -88.964731     -2420.8534
   1   2.0000     -88.960352     -2420.7342
   2   2.0000     -10.322358      -280.8856
   3   2.0000     -10.320489      -280.8348
   4   2.0000     -10.317878      -280.7637
   5   2.0000     -10.308064      -280.4967
   6   2.0000     -10.306708      -280.4598
   7   2.0000     -10.303290      -280.3668
   8   2.0000     -10.301180      -280.3093
   9   2.0000     -10.295679      -280.1597
  10   2.0000     -10.293370      -280.0968
  11   2.0000     -10.292012      -280.0599
  12   2.0000     -10.289510      -279.9918
  13   2.0000     -10.286751      -279.9167
  14   2.0000     -10.281970      -279.7866
  15   2.0000     -10.281700      -279.7793
  16   2.0000      -8.079633      -219.8580
  17   2.0000      -8.076532      -219.7736
  18   2.0000      -6.037940      -164.3007
  19   2.0000      -6.034909      -164.2182
  20   2.0000      -6.034109      -164.1965
  21   2.0000      -6.030839      -164.1075
  22   2.0000      -6.030615      -164.1014
  23   2.0000      -6.027342      -164.0123
  24   2.0000      -1.009706       -27.4755
  25   2.0000      -0.985853       -26.8264
  26   2.0000      -0.913183       -24.8490
  27   2.0000      -0.898649       -24.4535
  28   2.0000      -0.868917       -23.6444
  29   2.0000      -0.847537       -23.0626
  30   2.0000      -0.842925       -22.9371
  31   2.0000      -0.809890       -22.0382
  32   2.0000      -0.784072       -21.3357
  33   2.0000      -0.770722       -20.9724
  34   2.0000      -0.705483       -19.1972
  35   2.0000      -0.699039       -19.0218
  36   2.0000      -0.695933       -18.9373
  37   2.0000      -0.649228       -17.6664
  38   2.0000      -0.642249       -17.4765
  39   2.0000      -0.617676       -16.8078
  40   2.0000      -0.598734       -16.2924
  41   2.0000      -0.568935       -15.4815
  42   2.0000      -0.562196       -15.2981
  43   2.0000      -0.560335       -15.2475
  44   2.0000      -0.524923       -14.2839
  45   2.0000      -0.521434       -14.1889
  46   2.0000      -0.515640       -14.0313
  47   2.0000      -0.510313       -13.8863
  48   2.0000      -0.501813       -13.6550
  49   2.0000      -0.497367       -13.5340
  50   2.0000      -0.487953       -13.2779
  51   2.0000      -0.471881       -12.8405
  52   2.0000      -0.468030       -12.7357
  53   2.0000      -0.460924       -12.5424
  54   2.0000      -0.459534       -12.5045
  55   2.0000      -0.451756       -12.2929
  56   2.0000      -0.444281       -12.0895
  57   2.0000      -0.440472       -11.9858
  58   2.0000      -0.435872       -11.8607
  59   2.0000      -0.428578       -11.6622
  60   2.0000      -0.422989       -11.5101
  61   2.0000      -0.416310       -11.3284
  62   2.0000      -0.409343       -11.1388
  63   2.0000      -0.336516        -9.1571
  64   2.0000      -0.329341        -8.9618
  65   2.0000      -0.326415        -8.8822
  66   2.0000      -0.295139        -8.0311
  67   0.0000       0.037539         1.0215
  68   0.0000       0.064250         1.7483
  69   0.0000       0.116305         3.1648
  70   0.0000       0.129039         3.5113
  71   0.0000       0.132847         3.6150

MULLIKEN ATOMIC CHARGES
-----------------------
   0 S :    0.115984
   1 C :   -0.136785
   2 C :   -0.075383
   3 C :    0.042244
   4 C :   -0.187802
   5 H :   -0.005739
   6 C :    0.075777
   7 H :    0.020436
   8 H :    0.027099
   9 C :   -0.074500
  10 H :    0.040571
  11 H :    0.031230
  12 C :   -0.060786
  13 H :    0.036053
  14 H :    0.027167
  15 H :    0.038152
  16 S :    0.116797
  17 C :   -0.081744
  18 C :   -0.043299
  19 C :   -0.038634
  20 C :   -0.162832
  21 H :    0.006461
  22 C :    0.067985
  23 H :    0.030921
  24 H :    0.035638
  25 C :   -0.118679
  26 H :    0.027546
  27 H :    0.066946
  28 C :   -0.049552
  29 H :    0.043490
  30 H :    0.042493
  31 H :    0.026888
  32 H :    0.056682
  33 H :    0.059174
Sum of atomic charges:    0.0000000

LOEWDIN ATOMIC CHARGES
----------------------
   0 S :    0.419985
   1 C :   -0.196124
   2 C :   -0.056836
   3 C :   -0.058379
   4 C :   -0.213765
   5 H :    0.024071
   6 C :   -0.032345
   7 H :    0.030181
   8 H :    0.032017
   9 C :   -0.037306
  10 H :    0.030755
  11 H :    0.024762
  12 C :   -0.072634
  13 H :    0.025413
  14 H :    0.024002
  15 H :    0.029653
  16 S :    0.425282
  17 C :   -0.203798
  18 C :   -0.083934
  19 C :   -0.044483
  20 C :   -0.212153
  21 H :    0.028020
  22 C :   -0.031357
  23 H :    0.027905
  24 H :    0.034950
  25 C :   -0.043077
  26 H :    0.011837
  27 H :    0.043948
  28 C :   -0.069064
  29 H :    0.030413
  30 H :    0.033448
  31 H :    0.018043
  32 H :    0.025773
  33 H :    0.034799

  Mayer bond orders larger than 0.100000
B(  0-S ,  1-C ) :   1.1666 B(  0-S ,  4-C ) :   1.1622 B(  1-C ,  2-C ) :   1.5615
B(  1-C ,  4-C ) :   0.1076 B(  1-C , 32-H ) :   0.9692 B(  2-C ,  3-C ) :   1.2625
B(  2-C ,  6-C ) :   1.0279 B(  3-C ,  4-C ) :   1.5600 B(  3-C ,  5-H ) :   0.9967
B(  4-C , 20-C ) :   1.0444 B(  6-C ,  7-H ) :   0.9396 B(  6-C ,  8-H ) :   0.9390
B(  6-C ,  9-C ) :   1.0643 B(  9-C , 10-H ) :   0.9565 B(  9-C , 11-H ) :   0.9568
B(  9-C , 12-C ) :   1.0792 B( 12-C , 13-H ) :   0.9757 B( 12-C , 14-H ) :   0.9741
B( 12-C , 15-H ) :   0.9754 B( 16-S , 17-C ) :   1.1768 B( 16-S , 20-C ) :   1.1412
B( 17-C , 18-C ) :   1.6034 B( 17-C , 33-H ) :   0.9565 B( 18-C , 19-C ) :   1.2474
B( 18-C , 21-H ) :   0.9951 B( 19-C , 20-C ) :   1.5913 B( 19-C , 22-C ) :   1.0183
B( 22-C , 23-H ) :   0.9479 B( 22-C , 24-H ) :   0.9245 B( 22-C , 25-C ) :   1.0517
B( 25-C , 26-H ) :   0.9469 B( 25-C , 27-H ) :   0.9603 B( 25-C , 28-C ) :   1.0729
B( 28-C , 29-H ) :   0.9763 B( 28-C , 30-H ) :   0.9751 B( 28-C , 31-H ) :   0.9760

Dispersion correction           -0.013526937
FINAL SINGLE POINT ENERGY     -1339.871553311481

DIPOLE MOMENT
-------------
                                X             Y             Z
Electronic contribution:    -20.24689      -8.64997      -7.26359
Nuclear contribution   :     20.66626       8.88540       7.62801
                        -----------------------------------------
Total Dipole Moment    :      0.41937       0.23543       0.36442
                        -----------------------------------------
Magnitude (a.u.)       :      0.60341
Magnitude (Debye)      :      1.53374

Rotational constants in cm-1:     0.018547     0.007226     0.006298
Rotational constants in MHz :   556.032316   216.634432   188.801089

                             ****ORCA TERMINATED NORMALLY****
TOTAL RUN TIME: 0 days 0 hours 0 minutes 20 seconds 682 msec
