                         Program Version 4.2.1 -  RELEASE  -
|  1> ! wB97X-D3 SP def2-SVP
|  2> %pal
|  3> nprocs 24
|  4> end
|  5>
|  6> * xyz 0 1
|  7> S 	 -72.7802 	 18.2035 	 -76.9105
|  8> C 	 -72.3285 	 19.6289 	 -75.8804
|  9> C 	 -70.9691 	 19.7937 	 -75.759
| 10> C 	 -70.3214 	 18.7689 	 -76.4698
| 11> C 	 -71.1377 	 17.8608 	 -77.1174
| 12> H 	 -69.2037 	 18.5921 	 -76.5319
| 13> C 	 -70.329 	 20.9614 	 -74.9877
| 14> H 	 -69.4222 	 20.5703 	 -74.6339
| 15> H 	 -71.0445 	 21.1463 	 -74.1763
| 16> C 	 -69.8633 	 22.1955 	 -75.8193
| 17> H 	 -69.3915 	 21.9252 	 -76.7686
| 18> H 	 -70.7762 	 22.7099 	 -76.1459
| 19> C 	 -68.9764 	 23.1864 	 -75.0417
| 20> H 	 -69.5427 	 23.7678 	 -74.3062
| 21> H 	 -68.1245 	 22.6921 	 -74.5948
| 22> H 	 -68.5262 	 23.9595 	 -75.646
| 23> S 	 -70.4933 	 15.1774 	 -77.2096
| 24> C 	 -69.7223 	 14.5492 	 -78.6176
| 25> C 	 -69.8012 	 15.4744 	 -79.6399
| 26> C 	 -70.2193 	 16.8011 	 -79.2786
| 27> C 	 -70.6331 	 16.7804 	 -77.9449
| 28> H 	 -69.6513 	 14.9732 	 -80.6011
| 29> C 	 -70.5974 	 17.8439 	 -80.2722
| 30> H 	 -71.2656 	 18.6256 	 -79.8748
| 31> H 	 -71.2621 	 17.3523 	 -81.0044
| 32> C 	 -69.4768 	 18.4691 	 -81.2021
| 33> H 	 -69.9676 	 19.0321 	 -81.9911
| 34> H 	 -68.782 	 17.6917 	 -81.6513
| 35> C 	 -68.6383 	 19.5816 	 -80.468
| 36> H 	 -68.0613 	 19.2511 	 -79.5906
| 37> H 	 -69.2954 	 20.3882 	 -80.0656
| 38> H 	 -67.7661 	 19.854 	 -81.0931
| 39> H 	 -73.0782 	 20.3242 	 -75.4719
| 40> H 	 -69.5429 	 13.5466 	 -78.7943
| 41> *
| 42>
| 43>                          ****END OF INPUT****

CARTESIAN COORDINATES (ANGSTROEM)
---------------------------------
  S    -72.780200   18.203500  -76.910500
  C    -72.328500   19.628900  -75.880400
  C    -70.969100   19.793700  -75.759000
  C    -70.321400   18.768900  -76.469800
  C    -71.137700   17.860800  -77.117400
  H    -69.203700   18.592100  -76.531900
  C    -70.329000   20.961400  -74.987700
  H    -69.422200   20.570300  -74.633900
  H    -71.044500   21.146300  -74.176300
  C    -69.863300   22.195500  -75.819300
  H    -69.391500   21.925200  -76.768600
  H    -70.776200   22.709900  -76.145900
  C    -68.976400   23.186400  -75.041700
  H    -69.542700   23.767800  -74.306200
  H    -68.124500   22.692100  -74.594800
  H    -68.526200   23.959500  -75.646000
  S    -70.493300   15.177400  -77.209600
  C    -69.722300   14.549200  -78.617600
  C    -69.801200   15.474400  -79.639900
  C    -70.219300   16.801100  -79.278600
  C    -70.633100   16.780400  -77.944900
  H    -69.651300   14.973200  -80.601100
  C    -70.597400   17.843900  -80.272200
  H    -71.265600   18.625600  -79.874800
  H    -71.262100   17.352300  -81.004400
  C    -69.476800   18.469100  -81.202100
  H    -69.967600   19.032100  -81.991100
  H    -68.782000   17.691700  -81.651300
  C    -68.638300   19.581600  -80.468000
  H    -68.061300   19.251100  -79.590600
  H    -69.295400   20.388200  -80.065600
  H    -67.766100   19.854000  -81.093100
  H    -73.078200   20.324200  -75.471900
  H    -69.542900   13.546600  -78.794300

 Total Charge           Charge          ....    0
 Multiplicity           Mult            ....    1
 Number of Electrons    NEL             ....  134
 Basis Dimension        Dim             ....  322

ORBITAL ENERGIES
----------------

  NO   OCC          E(Eh)            E(eV)
   0   2.0000     -88.968419     -2420.9537
   1   2.0000     -88.962394     -2420.7898
   2   2.0000     -10.325658      -280.9754
   3   2.0000     -10.320622      -280.8384
   4   2.0000     -10.317347      -280.7493
   5   2.0000     -10.308115      -280.4981
   6   2.0000     -10.307384      -280.4782
   7   2.0000     -10.301406      -280.3155
   8   2.0000     -10.296437      -280.1803
   9   2.0000     -10.295842      -280.1641
  10   2.0000     -10.295503      -280.1549
  11   2.0000     -10.293189      -280.0919
  12   2.0000     -10.292917      -280.0845
  13   2.0000     -10.292407      -280.0706
  14   2.0000     -10.279640      -279.7232
  15   2.0000     -10.279537      -279.7204
  16   2.0000      -8.083103      -219.9524
  17   2.0000      -8.077486      -219.7996
  18   2.0000      -6.041407      -164.3950
  19   2.0000      -6.037700      -164.2942
  20   2.0000      -6.035925      -164.2459
  21   2.0000      -6.033998      -164.1934
  22   2.0000      -6.031979      -164.1385
  23   2.0000      -6.028265      -164.0374
  24   2.0000      -1.008084       -27.4313
  25   2.0000      -0.984556       -26.7911
  26   2.0000      -0.910577       -24.7781
  27   2.0000      -0.900116       -24.4934
  28   2.0000      -0.869503       -23.6604
  29   2.0000      -0.847591       -23.0641
  30   2.0000      -0.843891       -22.9635
  31   2.0000      -0.810445       -22.0533
  32   2.0000      -0.786150       -21.3922
  33   2.0000      -0.772942       -21.0328
  34   2.0000      -0.708136       -19.2694
  35   2.0000      -0.702145       -19.1063
  36   2.0000      -0.694143       -18.8886
  37   2.0000      -0.651258       -17.7216
  38   2.0000      -0.638805       -17.3828
  39   2.0000      -0.615159       -16.7393
  40   2.0000      -0.597015       -16.2456
  41   2.0000      -0.572178       -15.5698
  42   2.0000      -0.558230       -15.1902
  43   2.0000      -0.540344       -14.7035
  44   2.0000      -0.535200       -14.5635
  45   2.0000      -0.526629       -14.3303
  46   2.0000      -0.521433       -14.1889
  47   2.0000      -0.507693       -13.8150
  48   2.0000      -0.504843       -13.7375
  49   2.0000      -0.496127       -13.5003
  50   2.0000      -0.486226       -13.2309
  51   2.0000      -0.477696       -12.9988
  52   2.0000      -0.467611       -12.7243
  53   2.0000      -0.463836       -12.6216
  54   2.0000      -0.457882       -12.4596
  55   2.0000      -0.449802       -12.2397
  56   2.0000      -0.436775       -11.8853
  57   2.0000      -0.435430       -11.8487
  58   2.0000      -0.433280       -11.7901
  59   2.0000      -0.427410       -11.6304
  60   2.0000      -0.421392       -11.4667
  61   2.0000      -0.416838       -11.3427
  62   2.0000      -0.415257       -11.2997
  63   2.0000      -0.337605        -9.1867
  64   2.0000      -0.326234        -8.8773
  65   2.0000      -0.318176        -8.6580
  66   2.0000      -0.309624        -8.4253
  67   0.0000       0.046708         1.2710
  68   0.0000       0.053405         1.4532
  69   0.0000       0.105783         2.8785
  70   0.0000       0.113123         3.0782
  71   0.0000       0.129515         3.5243

MULLIKEN ATOMIC CHARGES
-----------------------
   0 S :    0.118443
   1 C :   -0.159302
   2 C :   -0.072198
   3 C :    0.014748
   4 C :   -0.175866
   5 H :    0.032055
   6 C :    0.114617
   7 H :    0.003394
   8 H :    0.036275
   9 C :   -0.072169
  10 H :    0.033372
  11 H :    0.022600
  12 C :   -0.039499
  13 H :    0.032938
  14 H :    0.029117
  15 H :    0.027102
  16 S :    0.111676
  17 C :   -0.074804
  18 C :   -0.060986
  19 C :    0.074872
  20 C :   -0.209974
  21 H :    0.025210
  22 C :    0.010392
  23 H :    0.033885
  24 H :    0.038427
  25 C :   -0.081170
  26 H :    0.034477
  27 H :    0.045073
  28 C :   -0.083325
  29 H :    0.024240
  30 H :    0.044690
  31 H :    0.035596
  32 H :    0.051926
  33 H :    0.034168
Sum of atomic charges:    0.0000000

LOEWDIN ATOMIC CHARGES
----------------------
   0 S :    0.408655
   1 C :   -0.182699
   2 C :   -0.063467
   3 C :   -0.068420
   4 C :   -0.225745
   5 H :    0.041020
   6 C :   -0.019731
   7 H :    0.022572
   8 H :    0.036278
   9 C :   -0.039917
  10 H :    0.027297
  11 H :    0.023480
  12 C :   -0.067243
  13 H :    0.027506
  14 H :    0.023242
  15 H :    0.027232
  16 S :    0.408278
  17 C :   -0.187889
  18 C :   -0.071367
  19 C :   -0.053931
  20 C :   -0.192932
  21 H :    0.034019
  22 C :   -0.037802
  23 H :    0.033650
  24 H :    0.040244
  25 C :   -0.039461
  26 H :    0.024996
  27 H :    0.031029
  28 C :   -0.083957
  29 H :    0.022312
  30 H :    0.029976
  31 H :    0.029060
  32 H :    0.028453
  33 H :    0.015261

  Mayer bond orders larger than 0.100000
B(  0-S ,  1-C ) :   1.1353 B(  0-S ,  4-C ) :   1.1607 B(  1-C ,  2-C ) :   1.6094
B(  1-C , 32-H ) :   0.9652 B(  2-C ,  3-C ) :   1.2491 B(  2-C ,  6-C ) :   1.0117
B(  3-C ,  4-C ) :   1.5917 B(  3-C ,  5-H ) :   0.9840 B(  4-C , 20-C ) :   0.9996
B(  6-C ,  7-H ) :   0.9318 B(  6-C ,  8-H ) :   0.9428 B(  6-C ,  9-C ) :   1.0539
B(  9-C , 10-H ) :   0.9584 B(  9-C , 11-H ) :   0.9543 B(  9-C , 12-C ) :   1.0811
B( 12-C , 13-H ) :   0.9765 B( 12-C , 14-H ) :   0.9758 B( 12-C , 15-H ) :   0.9730
B( 16-S , 17-C ) :   1.1526 B( 16-S , 20-C ) :   1.1596 B( 17-C , 18-C ) :   1.6400
B( 17-C , 20-C ) :   0.1011 B( 17-C , 33-H ) :   0.9718 B( 18-C , 19-C ) :   1.2039
B( 18-C , 21-H ) :   0.9824 B( 19-C , 20-C ) :   1.5844 B( 19-C , 22-C ) :   1.0479
B( 22-C , 23-H ) :   0.9407 B( 22-C , 24-H ) :   0.9384 B( 22-C , 25-C ) :   1.0604
B( 25-C , 26-H ) :   0.9567 B( 25-C , 27-H ) :   0.9599 B( 25-C , 28-C ) :   1.0671
B( 28-C , 29-H ) :   0.9767 B( 28-C , 30-H ) :   0.9747 B( 28-C , 31-H ) :   0.9730

Dispersion correction           -0.014296020
FINAL SINGLE POINT ENERGY     -1339.868073899093

DIPOLE MOMENT
-------------
                                X             Y             Z
Electronic contribution:    -14.01585     -25.52634       5.74043
Nuclear contribution   :     14.19034      25.93542      -6.01005
                        -----------------------------------------
Total Dipole Moment    :      0.17449       0.40908      -0.26962
                        -----------------------------------------
Magnitude (a.u.)       :      0.52008
Magnitude (Debye)      :      1.32194

Rotational constants in cm-1:     0.018261     0.008455     0.006862
Rotational constants in MHz :   547.440707   253.487264   205.715864

                             ****ORCA TERMINATED NORMALLY****
TOTAL RUN TIME: 0 days 0 hours 0 minutes 21 seconds 317 msec
