                         Program Version 4.2.1 -  RELEASE  -
|  1> ! wB97X-D3 SP def2-SVP
|  2> %pal
|  3> nprocs 24
|  4> end
|  5>
|  6> * xyz 0 1
|  7> S 	 -51.9672 	 20.8334 	 -89.4696
|  8> C 	 -52.9509 	 22.092 	 -88.7502
|  9> C 	 -53.8675 	 22.713 	 -89.6599
| 10> C 	 -53.7999 	 22.0225 	 -90.8227
| 11> C 	 -52.8982 	 21.0167 	 -90.9405
| 12> H 	 -54.3553 	 22.2231 	 -91.7311
| 13> C 	 -54.8133 	 23.8559 	 -89.455
| 14> H 	 -54.5915 	 24.4368 	 -88.5854
| 15> H 	 -55.6973 	 23.3998 	 -89.0527
| 16> C 	 -55.1568 	 24.787 	 -90.6224
| 17> H 	 -55.6544 	 24.2047 	 -91.4154
| 18> H 	 -55.8483 	 25.5312 	 -90.189
| 19> C 	 -53.8929 	 25.47 	 -91.1531
| 20> H 	 -53.2994 	 25.8593 	 -90.3794
| 21> H 	 -53.2062 	 24.8264 	 -91.7382
| 22> H 	 -54.1434 	 26.2252 	 -91.8011
| 23> S 	 -52.9817 	 18.4767 	 -91.6274
| 24> C 	 -52.3541 	 17.9449 	 -93.1498
| 25> C 	 -52.023 	 18.9918 	 -93.9635
| 26> C 	 -52.1872 	 20.2702 	 -93.3296
| 27> C 	 -52.6973 	 20.1181 	 -92.0416
| 28> H 	 -51.6547 	 18.7493 	 -94.9123
| 29> C 	 -51.6281 	 21.629 	 -93.9167
| 30> H 	 -50.8258 	 21.3632 	 -94.7039
| 31> H 	 -51.1887 	 22.2022 	 -93.1775
| 32> C 	 -52.6377 	 22.5143 	 -94.6212
| 33> H 	 -53.5537 	 22.5612 	 -94.096
| 34> H 	 -52.8452 	 22.0618 	 -95.5794
| 35> C 	 -51.986 	 23.8897 	 -94.9395
| 36> H 	 -52.6091 	 24.5076 	 -95.5132
| 37> H 	 -50.9984 	 23.7936 	 -95.3309
| 38> H 	 -51.793 	 24.5016 	 -94.0136
| 39> H 	 -52.9314 	 22.351 	 -87.6738
| 40> H 	 -52.1863 	 16.9068 	 -93.3433
| 41> *
| 42>
| 43>                          ****END OF INPUT****

CARTESIAN COORDINATES (ANGSTROEM)
---------------------------------
  S    -51.967200   20.833400  -89.469600
  C    -52.950900   22.092000  -88.750200
  C    -53.867500   22.713000  -89.659900
  C    -53.799900   22.022500  -90.822700
  C    -52.898200   21.016700  -90.940500
  H    -54.355300   22.223100  -91.731100
  C    -54.813300   23.855900  -89.455000
  H    -54.591500   24.436800  -88.585400
  H    -55.697300   23.399800  -89.052700
  C    -55.156800   24.787000  -90.622400
  H    -55.654400   24.204700  -91.415400
  H    -55.848300   25.531200  -90.189000
  C    -53.892900   25.470000  -91.153100
  H    -53.299400   25.859300  -90.379400
  H    -53.206200   24.826400  -91.738200
  H    -54.143400   26.225200  -91.801100
  S    -52.981700   18.476700  -91.627400
  C    -52.354100   17.944900  -93.149800
  C    -52.023000   18.991800  -93.963500
  C    -52.187200   20.270200  -93.329600
  C    -52.697300   20.118100  -92.041600
  H    -51.654700   18.749300  -94.912300
  C    -51.628100   21.629000  -93.916700
  H    -50.825800   21.363200  -94.703900
  H    -51.188700   22.202200  -93.177500
  C    -52.637700   22.514300  -94.621200
  H    -53.553700   22.561200  -94.096000
  H    -52.845200   22.061800  -95.579400
  C    -51.986000   23.889700  -94.939500
  H    -52.609100   24.507600  -95.513200
  H    -50.998400   23.793600  -95.330900
  H    -51.793000   24.501600  -94.013600
  H    -52.931400   22.351000  -87.673800
  H    -52.186300   16.906800  -93.343300

 Total Charge           Charge          ....    0
 Multiplicity           Mult            ....    1
 Number of Electrons    NEL             ....  134
 Basis Dimension        Dim             ....  322

ORBITAL ENERGIES
----------------

  NO   OCC          E(Eh)            E(eV)
   0   2.0000     -88.969042     -2420.9707
   1   2.0000     -88.960394     -2420.7354
   2   2.0000     -10.318686      -280.7857
   3   2.0000     -10.317327      -280.7487
   4   2.0000     -10.317122      -280.7432
   5   2.0000     -10.309472      -280.5350
   6   2.0000     -10.307162      -280.4721
   7   2.0000     -10.298091      -280.2253
   8   2.0000     -10.294061      -280.1156
   9   2.0000     -10.293627      -280.1038
  10   2.0000     -10.289021      -279.9785
  11   2.0000     -10.286949      -279.9221
  12   2.0000     -10.280593      -279.7492
  13   2.0000     -10.280346      -279.7424
  14   2.0000     -10.275589      -279.6130
  15   2.0000     -10.267470      -279.3921
  16   2.0000      -8.083373      -219.9597
  17   2.0000      -8.076506      -219.7729
  18   2.0000      -6.041619      -164.4008
  19   2.0000      -6.037998      -164.3023
  20   2.0000      -6.034799      -164.2152
  21   2.0000      -6.034373      -164.2036
  22   2.0000      -6.030754      -164.1052
  23   2.0000      -6.027476      -164.0160
  24   2.0000      -1.012169       -27.5425
  25   2.0000      -0.986830       -26.8530
  26   2.0000      -0.917110       -24.9558
  27   2.0000      -0.907535       -24.6953
  28   2.0000      -0.870774       -23.6950
  29   2.0000      -0.852736       -23.2041
  30   2.0000      -0.846409       -23.0320
  31   2.0000      -0.815662       -22.1953
  32   2.0000      -0.787340       -21.4246
  33   2.0000      -0.772328       -21.0161
  34   2.0000      -0.711128       -19.3508
  35   2.0000      -0.701582       -19.0910
  36   2.0000      -0.690910       -18.8006
  37   2.0000      -0.663177       -18.0460
  38   2.0000      -0.644909       -17.5489
  39   2.0000      -0.627344       -17.0709
  40   2.0000      -0.598739       -16.2925
  41   2.0000      -0.569860       -15.5067
  42   2.0000      -0.562940       -15.3184
  43   2.0000      -0.557838       -15.1795
  44   2.0000      -0.537453       -14.6248
  45   2.0000      -0.525674       -14.3043
  46   2.0000      -0.516620       -14.0579
  47   2.0000      -0.511130       -13.9086
  48   2.0000      -0.502174       -13.6649
  49   2.0000      -0.493720       -13.4348
  50   2.0000      -0.487368       -13.2620
  51   2.0000      -0.479896       -13.0586
  52   2.0000      -0.472772       -12.8648
  53   2.0000      -0.466194       -12.6858
  54   2.0000      -0.459698       -12.5090
  55   2.0000      -0.448205       -12.1963
  56   2.0000      -0.445336       -12.1182
  57   2.0000      -0.438887       -11.9427
  58   2.0000      -0.436606       -11.8806
  59   2.0000      -0.428504       -11.6602
  60   2.0000      -0.427126       -11.6227
  61   2.0000      -0.420924       -11.4539
  62   2.0000      -0.416166       -11.3244
  63   2.0000      -0.343703        -9.3526
  64   2.0000      -0.329137        -8.9563
  65   2.0000      -0.325512        -8.8576
  66   2.0000      -0.292604        -7.9622
  67   0.0000       0.034558         0.9404
  68   0.0000       0.067226         1.8293
  69   0.0000       0.116237         3.1630
  70   0.0000       0.119625         3.2552
  71   0.0000       0.130870         3.5612

MULLIKEN ATOMIC CHARGES
-----------------------
   0 S :    0.139522
   1 C :   -0.151731
   2 C :   -0.057274
   3 C :    0.029064
   4 C :   -0.174626
   5 H :   -0.005225
   6 C :    0.087344
   7 H :    0.000757
   8 H :    0.027655
   9 C :   -0.081554
  10 H :    0.040488
  11 H :    0.039478
  12 C :   -0.004003
  13 H :    0.017283
  14 H :    0.032618
  15 H :    0.013735
  16 S :    0.110849
  17 C :   -0.092080
  18 C :   -0.023010
  19 C :    0.009960
  20 C :   -0.197754
  21 H :   -0.004745
  22 C :    0.059440
  23 H :    0.033123
  24 H :    0.013064
  25 C :   -0.042745
  26 H :    0.019406
  27 H :    0.019939
  28 C :   -0.036241
  29 H :    0.026047
  30 H :    0.022539
  31 H :    0.026071
  32 H :    0.052551
  33 H :    0.050058
Sum of atomic charges:    0.0000000

LOEWDIN ATOMIC CHARGES
----------------------
   0 S :    0.417422
   1 C :   -0.204344
   2 C :   -0.061908
   3 C :   -0.064253
   4 C :   -0.208235
   5 H :    0.029508
   6 C :   -0.038271
   7 H :    0.027312
   8 H :    0.036571
   9 C :   -0.033661
  10 H :    0.025305
  11 H :    0.033547
  12 C :   -0.057769
  13 H :    0.021120
  14 H :    0.030568
  15 H :    0.014875
  16 S :    0.428203
  17 C :   -0.186070
  18 C :   -0.066883
  19 C :   -0.051212
  20 C :   -0.213212
  21 H :    0.023169
  22 C :   -0.020392
  23 H :    0.039046
  24 H :    0.016911
  25 C :   -0.034015
  26 H :    0.014479
  27 H :    0.022658
  28 C :   -0.061256
  29 H :    0.018088
  30 H :    0.022508
  31 H :    0.028354
  32 H :    0.028267
  33 H :    0.023570

  Mayer bond orders larger than 0.100000
B(  0-S ,  1-C ) :   1.1702 B(  0-S ,  4-C ) :   1.1485 B(  1-C ,  2-C ) :   1.5482
B(  1-C ,  4-C ) :   0.1165 B(  1-C , 32-H ) :   0.9618 B(  2-C ,  3-C ) :   1.2860
B(  2-C ,  6-C ) :   1.0141 B(  3-C ,  4-C ) :   1.5808 B(  3-C ,  5-H ) :   0.9883
B(  4-C , 20-C ) :   1.0247 B(  6-C ,  7-H ) :   0.9281 B(  6-C ,  8-H ) :   0.9216
B(  6-C ,  9-C ) :   1.0868 B(  9-C , 10-H ) :   0.9489 B(  9-C , 11-H ) :   0.9504
B(  9-C , 12-C ) :   1.0841 B( 12-C , 13-H ) :   0.9719 B( 12-C , 14-H ) :   0.9686
B( 12-C , 15-H ) :   0.9726 B( 16-S , 17-C ) :   1.1583 B( 16-S , 20-C ) :   1.1693
B( 17-C , 18-C ) :   1.6104 B( 17-C , 33-H ) :   0.9713 B( 18-C , 19-C ) :   1.2314
B( 18-C , 21-H ) :   1.0036 B( 19-C , 20-C ) :   1.5880 B( 19-C , 22-C ) :   1.0243
B( 22-C , 23-H ) :   0.9408 B( 22-C , 24-H ) :   0.9440 B( 22-C , 25-C ) :   1.0668
B( 25-C , 26-H ) :   0.9579 B( 25-C , 27-H ) :   0.9506 B( 25-C , 28-C ) :   1.0803
B( 28-C , 29-H ) :   0.9745 B( 28-C , 30-H ) :   0.9697 B( 28-C , 31-H ) :   0.9728

Dispersion correction           -0.015303368
FINAL SINGLE POINT ENERGY     -1339.866685197660

DIPOLE MOMENT
-------------
                                X             Y             Z
Electronic contribution:      4.38703     -27.45866      12.90439
Nuclear contribution   :     -4.51826      27.94513     -13.14944
                        -----------------------------------------
Total Dipole Moment    :     -0.13123       0.48647      -0.24505
                        -----------------------------------------
Magnitude (a.u.)       :      0.56029
Magnitude (Debye)      :      1.42414

Rotational constants in cm-1:     0.016908     0.010873     0.007439
Rotational constants in MHz :   506.887066   325.978713   223.014896

                             ****ORCA TERMINATED NORMALLY****
TOTAL RUN TIME: 0 days 0 hours 0 minutes 21 seconds 584 msec
