                         Program Version 4.2.1 -  RELEASE  -
|  1> ! wB97X-D3 SP def2-SVP
|  2> %pal
|  3> nprocs 24
|  4> end
|  5>
|  6> * xyz 0 1
|  7> S 	 -135.525 	 69.8992 	 -64.6122
|  8> C 	 -134.824 	 68.7984 	 -65.7002
|  9> C 	 -135.6 	 67.6865 	 -65.9165
| 10> C 	 -136.711 	 67.6891 	 -65.0484
| 11> C 	 -136.905 	 68.9127 	 -64.3885
| 12> H 	 -137.572 	 67.0404 	 -65.0169
| 13> C 	 -135.322 	 66.5384 	 -66.8496
| 14> H 	 -136.217 	 66.0015 	 -66.9687
| 15> H 	 -134.572 	 65.9548 	 -66.2967
| 16> C 	 -134.917 	 66.8403 	 -68.2837
| 17> H 	 -133.983 	 67.3181 	 -68.2514
| 18> H 	 -134.651 	 65.8188 	 -68.7634
| 19> C 	 -135.901 	 67.7854 	 -69.1212
| 20> H 	 -135.695 	 67.833 	 -70.2099
| 21> H 	 -136.964 	 67.5557 	 -68.9892
| 22> H 	 -135.758 	 68.8317 	 -68.7838
| 23> S 	 -138.662 	 68.2818 	 -62.3405
| 24> C 	 -139.896 	 69.3458 	 -61.883
| 25> C 	 -139.872 	 70.4745 	 -62.6086
| 26> C 	 -138.912 	 70.4616 	 -63.6607
| 27> C 	 -138.064 	 69.3573 	 -63.6471
| 28> H 	 -140.674 	 71.2349 	 -62.4466
| 29> C 	 -138.83 	 71.5809 	 -64.6505
| 30> H 	 -137.765 	 71.8241 	 -64.6743
| 31> H 	 -139.327 	 72.4236 	 -64.2836
| 32> C 	 -139.296 	 71.368 	 -66.1332
| 33> H 	 -140.386 	 71.1369 	 -66.0807
| 34> H 	 -138.88 	 70.4526 	 -66.4998
| 35> C 	 -139.014 	 72.4683 	 -67.1345
| 36> H 	 -139.739 	 73.2106 	 -67.092
| 37> H 	 -138.907 	 72.09 	 -68.1705
| 38> H 	 -137.996 	 72.8369 	 -66.9741
| 39> H 	 -133.865 	 68.8695 	 -66.1988
| 40> H 	 -140.645 	 69.209 	 -61.0642
| 41> *
| 42>
| 43>                          ****END OF INPUT****

CARTESIAN COORDINATES (ANGSTROEM)
---------------------------------
  S    -135.525000   69.899200  -64.612200
  C    -134.824000   68.798400  -65.700200
  C    -135.600000   67.686500  -65.916500
  C    -136.711000   67.689100  -65.048400
  C    -136.905000   68.912700  -64.388500
  H    -137.572000   67.040400  -65.016900
  C    -135.322000   66.538400  -66.849600
  H    -136.217000   66.001500  -66.968700
  H    -134.572000   65.954800  -66.296700
  C    -134.917000   66.840300  -68.283700
  H    -133.983000   67.318100  -68.251400
  H    -134.651000   65.818800  -68.763400
  C    -135.901000   67.785400  -69.121200
  H    -135.695000   67.833000  -70.209900
  H    -136.964000   67.555700  -68.989200
  H    -135.758000   68.831700  -68.783800
  S    -138.662000   68.281800  -62.340500
  C    -139.896000   69.345800  -61.883000
  C    -139.872000   70.474500  -62.608600
  C    -138.912000   70.461600  -63.660700
  C    -138.064000   69.357300  -63.647100
  H    -140.674000   71.234900  -62.446600
  C    -138.830000   71.580900  -64.650500
  H    -137.765000   71.824100  -64.674300
  H    -139.327000   72.423600  -64.283600
  C    -139.296000   71.368000  -66.133200
  H    -140.386000   71.136900  -66.080700
  H    -138.880000   70.452600  -66.499800
  C    -139.014000   72.468300  -67.134500
  H    -139.739000   73.210600  -67.092000
  H    -138.907000   72.090000  -68.170500
  H    -137.996000   72.836900  -66.974100
  H    -133.865000   68.869500  -66.198800
  H    -140.645000   69.209000  -61.064200

 Total Charge           Charge          ....    0
 Multiplicity           Mult            ....    1
 Number of Electrons    NEL             ....  134
 Basis Dimension        Dim             ....  322

ORBITAL ENERGIES
----------------

  NO   OCC          E(Eh)            E(eV)
   0   2.0000     -88.970233     -2421.0031
   1   2.0000     -88.961153     -2420.7561
   2   2.0000     -10.328432      -281.0509
   3   2.0000     -10.327802      -281.0338
   4   2.0000     -10.312745      -280.6241
   5   2.0000     -10.307698      -280.4867
   6   2.0000     -10.303487      -280.3721
   7   2.0000     -10.297624      -280.2126
   8   2.0000     -10.295777      -280.1623
   9   2.0000     -10.291908      -280.0571
  10   2.0000     -10.289191      -279.9831
  11   2.0000     -10.289068      -279.9798
  12   2.0000     -10.288213      -279.9565
  13   2.0000     -10.282130      -279.7910
  14   2.0000     -10.281492      -279.7736
  15   2.0000     -10.272476      -279.5283
  16   2.0000      -8.085870      -220.0277
  17   2.0000      -8.076504      -219.7728
  18   2.0000      -6.044166      -164.4701
  19   2.0000      -6.040099      -164.3594
  20   2.0000      -6.036967      -164.2742
  21   2.0000      -6.035009      -164.2209
  22   2.0000      -6.030814      -164.1068
  23   2.0000      -6.027321      -164.0117
  24   2.0000      -1.014805       -27.6142
  25   2.0000      -0.994041       -27.0492
  26   2.0000      -0.914661       -24.8892
  27   2.0000      -0.904929       -24.6244
  28   2.0000      -0.871043       -23.7023
  29   2.0000      -0.853838       -23.2341
  30   2.0000      -0.848243       -23.0819
  31   2.0000      -0.811891       -22.0927
  32   2.0000      -0.787752       -21.4358
  33   2.0000      -0.774995       -21.0887
  34   2.0000      -0.710136       -19.3238
  35   2.0000      -0.707729       -19.2583
  36   2.0000      -0.691630       -18.8202
  37   2.0000      -0.659679       -17.9508
  38   2.0000      -0.641321       -17.4512
  39   2.0000      -0.605968       -16.4892
  40   2.0000      -0.591722       -16.1016
  41   2.0000      -0.580642       -15.8001
  42   2.0000      -0.565351       -15.3840
  43   2.0000      -0.559340       -15.2204
  44   2.0000      -0.537080       -14.6147
  45   2.0000      -0.518226       -14.1016
  46   2.0000      -0.514663       -14.0047
  47   2.0000      -0.511109       -13.9080
  48   2.0000      -0.506980       -13.7956
  49   2.0000      -0.500468       -13.6184
  50   2.0000      -0.487537       -13.2665
  51   2.0000      -0.483696       -13.1620
  52   2.0000      -0.477290       -12.9877
  53   2.0000      -0.467047       -12.7090
  54   2.0000      -0.465670       -12.6715
  55   2.0000      -0.447775       -12.1846
  56   2.0000      -0.446594       -12.1524
  57   2.0000      -0.439165       -11.9503
  58   2.0000      -0.425317       -11.5735
  59   2.0000      -0.420866       -11.4523
  60   2.0000      -0.419196       -11.4069
  61   2.0000      -0.415549       -11.3077
  62   2.0000      -0.413813       -11.2604
  63   2.0000      -0.348529        -9.4840
  64   2.0000      -0.334120        -9.0919
  65   2.0000      -0.328461        -8.9379
  66   2.0000      -0.290280        -7.8989
  67   0.0000       0.028642         0.7794
  68   0.0000       0.076285         2.0758
  69   0.0000       0.111729         3.0403
  70   0.0000       0.126258         3.4357
  71   0.0000       0.131936         3.5902

MULLIKEN ATOMIC CHARGES
-----------------------
   0 S :    0.142272
   1 C :   -0.116637
   2 C :   -0.112447
   3 C :    0.035444
   4 C :   -0.176071
   5 H :    0.009480
   6 C :    0.089536
   7 H :    0.012626
   8 H :    0.052981
   9 C :   -0.077332
  10 H :    0.010946
  11 H :    0.041712
  12 C :   -0.074515
  13 H :    0.044449
  14 H :    0.039066
  15 H :    0.041327
  16 S :    0.099769
  17 C :   -0.087493
  18 C :   -0.057272
  19 C :   -0.050099
  20 C :   -0.155197
  21 H :    0.031305
  22 C :    0.096559
  23 H :    0.013782
  24 H :   -0.003737
  25 C :   -0.067207
  26 H :    0.022642
  27 H :    0.017928
  28 C :   -0.017004
  29 H :    0.027139
  30 H :    0.032335
  31 H :    0.024114
  32 H :    0.039723
  33 H :    0.069872
Sum of atomic charges:   -0.0000000

LOEWDIN ATOMIC CHARGES
----------------------
   0 S :    0.458372
   1 C :   -0.220906
   2 C :   -0.066042
   3 C :   -0.062817
   4 C :   -0.212917
   5 H :    0.027783
   6 C :   -0.030501
   7 H :    0.024363
   8 H :    0.043438
   9 C :   -0.041915
  10 H :    0.011047
  11 H :    0.035725
  12 C :   -0.072236
  13 H :    0.031450
  14 H :    0.024970
  15 H :    0.031127
  16 S :    0.410676
  17 C :   -0.204901
  18 C :   -0.088954
  19 C :   -0.054608
  20 C :   -0.189149
  21 H :    0.039503
  22 C :   -0.032013
  23 H :    0.024898
  24 H :    0.018896
  25 C :   -0.039292
  26 H :    0.024690
  27 H :    0.019632
  28 C :   -0.061087
  29 H :    0.015317
  30 H :    0.034543
  31 H :    0.028211
  32 H :    0.028621
  33 H :    0.044075

  Mayer bond orders larger than 0.100000
B(  0-S ,  1-C ) :   1.1553 B(  0-S ,  4-C ) :   1.1806 B(  1-C ,  2-C ) :   1.5844
B(  1-C , 32-H ) :   0.9673 B(  2-C ,  3-C ) :   1.2851 B(  2-C ,  6-C ) :   1.0057
B(  3-C ,  4-C ) :   1.5330 B(  3-C ,  5-H ) :   0.9880 B(  4-C , 20-C ) :   1.0526
B(  6-C ,  7-H ) :   0.9412 B(  6-C ,  8-H ) :   0.9349 B(  6-C ,  9-C ) :   1.0813
B(  9-C , 10-H ) :   0.9553 B(  9-C , 11-H ) :   0.9571 B(  9-C , 12-C ) :   1.0531
B( 12-C , 13-H ) :   0.9779 B( 12-C , 14-H ) :   0.9818 B( 12-C , 15-H ) :   0.9730
B( 16-S , 17-C ) :   1.1674 B( 16-S , 20-C ) :   1.1235 B( 17-C , 18-C ) :   1.6174
B( 17-C , 33-H ) :   0.9552 B( 18-C , 19-C ) :   1.2499 B( 18-C , 21-H ) :   0.9831
B( 19-C , 20-C ) :   1.5799 B( 19-C , 22-C ) :   1.0546 B( 22-C , 23-H ) :   0.9233
B( 22-C , 24-H ) :   0.9283 B( 22-C , 25-C ) :   1.0602 B( 25-C , 26-H ) :   0.9539
B( 25-C , 27-H ) :   0.9571 B( 25-C , 28-C ) :   1.0846 B( 28-C , 29-H ) :   0.9786
B( 28-C , 30-H ) :   0.9725 B( 28-C , 31-H ) :   0.9712

Dispersion correction           -0.014700069
FINAL SINGLE POINT ENERGY     -1339.874717559903

DIPOLE MOMENT
-------------
                                X             Y             Z
Electronic contribution:      1.20117      -3.54835      25.43066
Nuclear contribution   :     -1.30866       3.58717     -25.89397
                        -----------------------------------------
Total Dipole Moment    :     -0.10749       0.03881      -0.46331
                        -----------------------------------------
Magnitude (a.u.)       :      0.47720
Magnitude (Debye)      :      1.21294

Rotational constants in cm-1:     0.018698     0.009006     0.007211
Rotational constants in MHz :   560.551582   269.999866   216.184518

                             ****ORCA TERMINATED NORMALLY****
TOTAL RUN TIME: 0 days 0 hours 0 minutes 21 seconds 877 msec
