                         Program Version 4.2.1 -  RELEASE  -
|  1> ! wB97X-D3 SP def2-SVP
|  2> %pal
|  3> nprocs 24
|  4> end
|  5>
|  6> * xyz 0 1
|  7> S 	 20.5979 	 0.154284 	 -112.556
|  8> C 	 19.3893 	 -1.06829 	 -112.511
|  9> C 	 18.7672 	 -0.986248 	 -111.28
| 10> C 	 19.1247 	 0.172482 	 -110.55
| 11> C 	 20.1337 	 0.920582 	 -111.092
| 12> H 	 18.5897 	 0.630195 	 -109.683
| 13> C 	 17.524 	 -1.81433 	 -110.909
| 14> H 	 16.8272 	 -1.56162 	 -111.748
| 15> H 	 17.1049 	 -1.41754 	 -109.991
| 16> C 	 17.8033 	 -3.34251 	 -110.749
| 17> H 	 16.9573 	 -3.9232 	 -110.838
| 18> H 	 18.3688 	 -3.70061 	 -111.634
| 19> C 	 18.6691 	 -3.65048 	 -109.492
| 20> H 	 18.3125 	 -3.27668 	 -108.498
| 21> H 	 18.9641 	 -4.70587 	 -109.447
| 22> H 	 19.5778 	 -3.00237 	 -109.591
| 23> S 	 20.3502 	 3.63475 	 -111.685
| 24> C 	 20.9725 	 4.73237 	 -110.549
| 25> C 	 21.2772 	 4.11988 	 -109.344
| 26> C 	 20.979 	 2.70495 	 -109.396
| 27> C 	 20.4794 	 2.28717 	 -110.607
| 28> H 	 21.6907 	 4.67987 	 -108.479
| 29> C 	 21.3158 	 1.74291 	 -108.29
| 30> H 	 20.7515 	 0.772246 	 -108.329
| 31> H 	 20.9745 	 2.10415 	 -107.374
| 32> C 	 22.8448 	 1.30573 	 -108.033
| 33> H 	 22.852 	 0.779683 	 -107.058
| 34> H 	 23.4642 	 2.12288 	 -107.951
| 35> C 	 23.4477 	 0.464986 	 -109.175
| 36> H 	 23.4194 	 0.946398 	 -110.198
| 37> H 	 23.1325 	 -0.596972 	 -109.113
| 38> H 	 24.5662 	 0.516553 	 -108.992
| 39> H 	 19.1789 	 -1.71405 	 -113.364
| 40> H 	 21.0703 	 5.79786 	 -110.609
| 41> *
| 42>
| 43>                          ****END OF INPUT****

CARTESIAN COORDINATES (ANGSTROEM)
---------------------------------
  S     20.597900    0.154284  -112.556000
  C     19.389300   -1.068290  -112.511000
  C     18.767200   -0.986248  -111.280000
  C     19.124700    0.172482  -110.550000
  C     20.133700    0.920582  -111.092000
  H     18.589700    0.630195  -109.683000
  C     17.524000   -1.814330  -110.909000
  H     16.827200   -1.561620  -111.748000
  H     17.104900   -1.417540  -109.991000
  C     17.803300   -3.342510  -110.749000
  H     16.957300   -3.923200  -110.838000
  H     18.368800   -3.700610  -111.634000
  C     18.669100   -3.650480  -109.492000
  H     18.312500   -3.276680  -108.498000
  H     18.964100   -4.705870  -109.447000
  H     19.577800   -3.002370  -109.591000
  S     20.350200    3.634750  -111.685000
  C     20.972500    4.732370  -110.549000
  C     21.277200    4.119880  -109.344000
  C     20.979000    2.704950  -109.396000
  C     20.479400    2.287170  -110.607000
  H     21.690700    4.679870  -108.479000
  C     21.315800    1.742910  -108.290000
  H     20.751500    0.772246  -108.329000
  H     20.974500    2.104150  -107.374000
  C     22.844800    1.305730  -108.033000
  H     22.852000    0.779683  -107.058000
  H     23.464200    2.122880  -107.951000
  C     23.447700    0.464986  -109.175000
  H     23.419400    0.946398  -110.198000
  H     23.132500   -0.596972  -109.113000
  H     24.566200    0.516553  -108.992000
  H     19.178900   -1.714050  -113.364000
  H     21.070300    5.797860  -110.609000

 Total Charge           Charge          ....    0
 Multiplicity           Mult            ....    1
 Number of Electrons    NEL             ....  134
 Basis Dimension        Dim             ....  322

ORBITAL ENERGIES
----------------

  NO   OCC          E(Eh)            E(eV)
   0   2.0000     -88.966659     -2420.9059
   1   2.0000     -88.964395     -2420.8442
   2   2.0000     -10.326903      -281.0093
   3   2.0000     -10.326143      -280.9886
   4   2.0000     -10.315264      -280.6926
   5   2.0000     -10.314643      -280.6757
   6   2.0000     -10.303259      -280.3659
   7   2.0000     -10.301085      -280.3068
   8   2.0000     -10.297924      -280.2208
   9   2.0000     -10.296084      -280.1707
  10   2.0000     -10.291426      -280.0439
  11   2.0000     -10.286444      -279.9084
  12   2.0000     -10.285792      -279.8906
  13   2.0000     -10.283998      -279.8418
  14   2.0000     -10.283528      -279.8290
  15   2.0000     -10.280669      -279.7512
  16   2.0000      -8.082527      -219.9367
  17   2.0000      -8.080062      -219.8697
  18   2.0000      -6.041003      -164.3840
  19   2.0000      -6.038494      -164.3158
  20   2.0000      -6.036696      -164.2669
  21   2.0000      -6.034126      -164.1969
  22   2.0000      -6.033424      -164.1778
  23   2.0000      -6.031150      -164.1159
  24   2.0000      -1.014668       -27.6105
  25   2.0000      -0.994837       -27.0709
  26   2.0000      -0.905432       -24.6381
  27   2.0000      -0.898622       -24.4527
  28   2.0000      -0.868630       -23.6366
  29   2.0000      -0.848103       -23.0781
  30   2.0000      -0.842893       -22.9363
  31   2.0000      -0.816320       -22.2132
  32   2.0000      -0.777679       -21.1617
  33   2.0000      -0.769356       -20.9352
  34   2.0000      -0.708061       -19.2673
  35   2.0000      -0.699264       -19.0279
  36   2.0000      -0.691313       -18.8116
  37   2.0000      -0.657474       -17.8908
  38   2.0000      -0.644779       -17.5453
  39   2.0000      -0.612434       -16.6652
  40   2.0000      -0.595064       -16.1925
  41   2.0000      -0.571948       -15.5635
  42   2.0000      -0.554591       -15.0912
  43   2.0000      -0.544245       -14.8097
  44   2.0000      -0.538525       -14.6540
  45   2.0000      -0.533045       -14.5049
  46   2.0000      -0.516549       -14.0560
  47   2.0000      -0.508467       -13.8361
  48   2.0000      -0.504290       -13.7224
  49   2.0000      -0.493533       -13.4297
  50   2.0000      -0.484417       -13.1817
  51   2.0000      -0.477777       -13.0010
  52   2.0000      -0.475525       -12.9397
  53   2.0000      -0.463263       -12.6060
  54   2.0000      -0.456739       -12.4285
  55   2.0000      -0.447904       -12.1881
  56   2.0000      -0.440373       -11.9832
  57   2.0000      -0.433996       -11.8096
  58   2.0000      -0.425841       -11.5877
  59   2.0000      -0.422773       -11.5042
  60   2.0000      -0.418604       -11.3908
  61   2.0000      -0.410652       -11.1744
  62   2.0000      -0.408706       -11.1215
  63   2.0000      -0.346997        -9.4423
  64   2.0000      -0.330593        -8.9959
  65   2.0000      -0.326841        -8.8938
  66   2.0000      -0.299701        -8.1553
  67   0.0000       0.033401         0.9089
  68   0.0000       0.073581         2.0022
  69   0.0000       0.123038         3.3480
  70   0.0000       0.127066         3.4576
  71   0.0000       0.132807         3.6139

MULLIKEN ATOMIC CHARGES
-----------------------
   0 S :    0.113906
   1 C :   -0.147887
   2 C :   -0.075773
   3 C :    0.004816
   4 C :   -0.141264
   5 H :    0.036293
   6 C :    0.033676
   7 H :    0.051089
   8 H :    0.020725
   9 C :   -0.023581
  10 H :    0.009878
  11 H :    0.019825
  12 C :   -0.084306
  13 H :    0.032968
  14 H :    0.047040
  15 H :    0.038938
  16 S :    0.129309
  17 C :   -0.078856
  18 C :   -0.058063
  19 C :   -0.029239
  20 C :   -0.168538
  21 H :    0.034948
  22 C :    0.063745
  23 H :    0.020242
  24 H :   -0.000128
  25 C :   -0.043016
  26 H :    0.032409
  27 H :    0.005710
  28 C :   -0.095422
  29 H :    0.053359
  30 H :    0.050358
  31 H :    0.028744
  32 H :    0.067071
  33 H :    0.051023
Sum of atomic charges:    0.0000000

LOEWDIN ATOMIC CHARGES
----------------------
   0 S :    0.433795
   1 C :   -0.205595
   2 C :   -0.072663
   3 C :   -0.073772
   4 C :   -0.211385
   5 H :    0.039887
   6 C :   -0.028136
   7 H :    0.040391
   8 H :    0.024659
   9 C :   -0.037560
  10 H :    0.009934
  11 H :    0.027301
  12 C :   -0.074856
  13 H :    0.026396
  14 H :    0.028062
  15 H :    0.032420
  16 S :    0.439606
  17 C :   -0.200525
  18 C :   -0.076202
  19 C :   -0.058478
  20 C :   -0.204677
  21 H :    0.038876
  22 C :   -0.037802
  23 H :    0.034424
  24 H :    0.018079
  25 C :   -0.029254
  26 H :    0.029437
  27 H :    0.008121
  28 C :   -0.079867
  29 H :    0.035101
  30 H :    0.028497
  31 H :    0.030263
  32 H :    0.034943
  33 H :    0.030578

  Mayer bond orders larger than 0.100000
B(  0-S ,  1-C ) :   1.1643 B(  0-S ,  4-C ) :   1.1684 B(  1-C ,  2-C ) :   1.5527
B(  1-C , 32-H ) :   0.9751 B(  2-C ,  3-C ) :   1.2704 B(  2-C ,  6-C ) :   1.0078
B(  3-C ,  4-C ) :   1.5585 B(  3-C ,  5-H ) :   0.9825 B(  4-C , 20-C ) :   1.0157
B(  6-C ,  7-H ) :   0.9484 B(  6-C ,  8-H ) :   0.9524 B(  6-C ,  9-C ) :   1.0613
B(  9-C , 10-H ) :   0.9593 B(  9-C , 11-H ) :   0.9557 B(  9-C , 12-C ) :   1.0617
B( 12-C , 13-H ) :   0.9765 B( 12-C , 14-H ) :   0.9752 B( 12-C , 15-H ) :   0.9739
B( 16-S , 17-C ) :   1.1764 B( 16-S , 20-C ) :   1.1431 B( 17-C , 18-C ) :   1.5949
B( 17-C , 33-H ) :   0.9669 B( 18-C , 19-C ) :   1.2493 B( 18-C , 21-H ) :   0.9863
B( 19-C , 20-C ) :   1.5978 B( 19-C , 22-C ) :   1.0578 B( 22-C , 23-H ) :   0.9329
B( 22-C , 24-H ) :   0.9258 B( 22-C , 25-C ) :   1.0650 B( 25-C , 26-H ) :   0.9553
B( 25-C , 27-H ) :   0.9607 B( 25-C , 28-C ) :   1.0782 B( 28-C , 29-H ) :   0.9718
B( 28-C , 30-H ) :   0.9764 B( 28-C , 31-H ) :   0.9735

Dispersion correction           -0.015051023
FINAL SINGLE POINT ENERGY     -1339.871989993145

DIPOLE MOMENT
-------------
                                X             Y             Z
Electronic contribution:     -0.96547      19.14138     -16.65851
Nuclear contribution   :      0.77870     -19.22956      17.03888
                        -----------------------------------------
Total Dipole Moment    :     -0.18677      -0.08818       0.38037
                        -----------------------------------------
Magnitude (a.u.)       :      0.43283
Magnitude (Debye)      :      1.10018

Rotational constants in cm-1:     0.020821     0.008620     0.007267
Rotational constants in MHz :   624.186010   258.417155   217.861819

                             ****ORCA TERMINATED NORMALLY****
TOTAL RUN TIME: 0 days 0 hours 0 minutes 22 seconds 64 msec
