                         Program Version 4.2.1 -  RELEASE  -
|  1> ! wB97X-D3 SP def2-SVP
|  2> %pal
|  3> nprocs 24
|  4> end
|  5>
|  6> * xyz 0 1
|  7> S 	 -106.04 	 56.7672 	 -79.9835
|  8> C 	 -105.777 	 56.0603 	 -81.5772
|  9> C 	 -106.965 	 55.5208 	 -82.0401
| 10> C 	 -107.991 	 55.4899 	 -81.0629
| 11> C 	 -107.693 	 56.1199 	 -79.9008
| 12> H 	 -108.939 	 55.0678 	 -81.2102
| 13> C 	 -107.065 	 54.8803 	 -83.369
| 14> H 	 -108.154 	 54.7267 	 -83.6936
| 15> H 	 -106.655 	 53.9178 	 -83.1307
| 16> C 	 -106.234 	 55.4785 	 -84.5538
| 17> H 	 -106.361 	 56.5477 	 -84.604
| 18> H 	 -105.153 	 55.4158 	 -84.4101
| 19> C 	 -106.562 	 54.8955 	 -85.8782
| 20> H 	 -105.874 	 55.0883 	 -86.7068
| 21> H 	 -106.515 	 53.8198 	 -85.6246
| 22> H 	 -107.6 	 55.1887 	 -86.0409
| 23> S 	 -109.088 	 57.877 	 -78.2634
| 24> C 	 -110.062 	 57.2911 	 -76.9886
| 25> C 	 -109.947 	 55.8978 	 -76.8963
| 26> C 	 -109.058 	 55.2934 	 -77.8947
| 27> C 	 -108.507 	 56.2657 	 -78.7021
| 28> H 	 -110.476 	 55.3787 	 -76.0907
| 29> C 	 -108.958 	 53.7736 	 -78.103
| 30> H 	 -108.285 	 53.3683 	 -77.3656
| 31> H 	 -108.334 	 53.6117 	 -78.9185
| 32> C 	 -110.285 	 53.0085 	 -78.164
| 33> H 	 -110.911 	 53.3464 	 -77.3485
| 34> H 	 -110.037 	 51.9718 	 -77.9756
| 35> C 	 -110.908 	 53.1693 	 -79.6348
| 36> H 	 -111.658 	 52.4246 	 -79.7984
| 37> H 	 -110.032 	 52.9363 	 -80.2847
| 38> H 	 -111.258 	 54.177 	 -79.8465
| 39> H 	 -104.765 	 56.0658 	 -82.0388
| 40> H 	 -110.665 	 57.9087 	 -76.3588
| 41> *
| 42>
| 43>                          ****END OF INPUT****

CARTESIAN COORDINATES (ANGSTROEM)
---------------------------------
  S    -106.040000   56.767200  -79.983500
  C    -105.777000   56.060300  -81.577200
  C    -106.965000   55.520800  -82.040100
  C    -107.991000   55.489900  -81.062900
  C    -107.693000   56.119900  -79.900800
  H    -108.939000   55.067800  -81.210200
  C    -107.065000   54.880300  -83.369000
  H    -108.154000   54.726700  -83.693600
  H    -106.655000   53.917800  -83.130700
  C    -106.234000   55.478500  -84.553800
  H    -106.361000   56.547700  -84.604000
  H    -105.153000   55.415800  -84.410100
  C    -106.562000   54.895500  -85.878200
  H    -105.874000   55.088300  -86.706800
  H    -106.515000   53.819800  -85.624600
  H    -107.600000   55.188700  -86.040900
  S    -109.088000   57.877000  -78.263400
  C    -110.062000   57.291100  -76.988600
  C    -109.947000   55.897800  -76.896300
  C    -109.058000   55.293400  -77.894700
  C    -108.507000   56.265700  -78.702100
  H    -110.476000   55.378700  -76.090700
  C    -108.958000   53.773600  -78.103000
  H    -108.285000   53.368300  -77.365600
  H    -108.334000   53.611700  -78.918500
  C    -110.285000   53.008500  -78.164000
  H    -110.911000   53.346400  -77.348500
  H    -110.037000   51.971800  -77.975600
  C    -110.908000   53.169300  -79.634800
  H    -111.658000   52.424600  -79.798400
  H    -110.032000   52.936300  -80.284700
  H    -111.258000   54.177000  -79.846500
  H    -104.765000   56.065800  -82.038800
  H    -110.665000   57.908700  -76.358800

 Total Charge           Charge          ....    0
 Multiplicity           Mult            ....    1
 Number of Electrons    NEL             ....  134
 Basis Dimension        Dim             ....  322

ORBITAL ENERGIES
----------------

  NO   OCC          E(Eh)            E(eV)
   0   2.0000     -88.963077     -2420.8084
   1   2.0000     -88.960060     -2420.7263
   2   2.0000     -10.327255      -281.0189
   3   2.0000     -10.325234      -280.9639
   4   2.0000     -10.316924      -280.7378
   5   2.0000     -10.315906      -280.7101
   6   2.0000     -10.307718      -280.4873
   7   2.0000     -10.300092      -280.2798
   8   2.0000     -10.298100      -280.2255
   9   2.0000     -10.297083      -280.1979
  10   2.0000     -10.291783      -280.0537
  11   2.0000     -10.288503      -279.9644
  12   2.0000     -10.284514      -279.8559
  13   2.0000     -10.284073      -279.8438
  14   2.0000     -10.283726      -279.8344
  15   2.0000     -10.278217      -279.6845
  16   2.0000      -8.078411      -219.8247
  17   2.0000      -8.074540      -219.7194
  18   2.0000      -6.036897      -164.2723
  19   2.0000      -6.033065      -164.1681
  20   2.0000      -6.032729      -164.1589
  21   2.0000      -6.029259      -164.0645
  22   2.0000      -6.029069      -164.0593
  23   2.0000      -6.025310      -163.9570
  24   2.0000      -1.004930       -27.3455
  25   2.0000      -0.983467       -26.7615
  26   2.0000      -0.916147       -24.9296
  27   2.0000      -0.907579       -24.6965
  28   2.0000      -0.871632       -23.7183
  29   2.0000      -0.853513       -23.2253
  30   2.0000      -0.840280       -22.8652
  31   2.0000      -0.816341       -22.2138
  32   2.0000      -0.783887       -21.3306
  33   2.0000      -0.766833       -20.8666
  34   2.0000      -0.710220       -19.3261
  35   2.0000      -0.705914       -19.2089
  36   2.0000      -0.693497       -18.8710
  37   2.0000      -0.653945       -17.7947
  38   2.0000      -0.643649       -17.5146
  39   2.0000      -0.619728       -16.8637
  40   2.0000      -0.601990       -16.3810
  41   2.0000      -0.577016       -15.7014
  42   2.0000      -0.563932       -15.3454
  43   2.0000      -0.551733       -15.0134
  44   2.0000      -0.538135       -14.6434
  45   2.0000      -0.527368       -14.3504
  46   2.0000      -0.520647       -14.1675
  47   2.0000      -0.518395       -14.1062
  48   2.0000      -0.508112       -13.8264
  49   2.0000      -0.500926       -13.6309
  50   2.0000      -0.492564       -13.4034
  51   2.0000      -0.478966       -13.0333
  52   2.0000      -0.466527       -12.6948
  53   2.0000      -0.458930       -12.4881
  54   2.0000      -0.455085       -12.3835
  55   2.0000      -0.451391       -12.2830
  56   2.0000      -0.446724       -12.1560
  57   2.0000      -0.441126       -12.0037
  58   2.0000      -0.429615       -11.6904
  59   2.0000      -0.423342       -11.5197
  60   2.0000      -0.421210       -11.4617
  61   2.0000      -0.417301       -11.3553
  62   2.0000      -0.414126       -11.2690
  63   2.0000      -0.341017        -9.2796
  64   2.0000      -0.328926        -8.9505
  65   2.0000      -0.324812        -8.8386
  66   2.0000      -0.297594        -8.0980
  67   0.0000       0.040691         1.1073
  68   0.0000       0.061587         1.6759
  69   0.0000       0.120057         3.2669
  70   0.0000       0.123124         3.3504
  71   0.0000       0.126426         3.4402

MULLIKEN ATOMIC CHARGES
-----------------------
   0 S :    0.098179
   1 C :   -0.159611
   2 C :   -0.063255
   3 C :    0.066944
   4 C :   -0.157299
   5 H :   -0.023426
   6 C :    0.028313
   7 H :    0.036645
   8 H :    0.041713
   9 C :   -0.082272
  10 H :    0.022731
  11 H :    0.018700
  12 C :   -0.036115
  13 H :    0.046945
  14 H :    0.024604
  15 H :    0.033979
  16 S :    0.114421
  17 C :   -0.085451
  18 C :   -0.064502
  19 C :   -0.025662
  20 C :   -0.175372
  21 H :    0.028497
  22 C :    0.103644
  23 H :    0.021819
  24 H :   -0.009565
  25 C :   -0.058574
  26 H :    0.032555
  27 H :    0.028436
  28 C :   -0.056937
  29 H :    0.037162
  30 H :    0.031273
  31 H :    0.055253
  32 H :    0.072749
  33 H :    0.053481
Sum of atomic charges:   -0.0000000

LOEWDIN ATOMIC CHARGES
----------------------
   0 S :    0.384170
   1 C :   -0.198515
   2 C :   -0.065563
   3 C :   -0.055934
   4 C :   -0.181957
   5 H :    0.023652
   6 C :   -0.036628
   7 H :    0.037478
   8 H :    0.037595
   9 C :   -0.047514
  10 H :    0.018296
  11 H :    0.019904
  12 C :   -0.064716
  13 H :    0.030359
  14 H :    0.028214
  15 H :    0.026603
  16 S :    0.415690
  17 C :   -0.192908
  18 C :   -0.078396
  19 C :   -0.046146
  20 C :   -0.203821
  21 H :    0.030296
  22 C :   -0.031631
  23 H :    0.034191
  24 H :    0.019355
  25 C :   -0.029390
  26 H :    0.020565
  27 H :    0.025257
  28 C :   -0.059993
  29 H :    0.021594
  30 H :    0.028279
  31 H :    0.027502
  32 H :    0.037147
  33 H :    0.026962

  Mayer bond orders larger than 0.100000
B(  0-S ,  1-C ) :   1.1345 B(  0-S ,  4-C ) :   1.1488 B(  1-C ,  2-C ) :   1.5886
B(  1-C ,  4-C ) :   0.1007 B(  1-C , 32-H ) :   0.9697 B(  2-C ,  3-C ) :   1.2376
B(  2-C ,  6-C ) :   1.0220 B(  3-C ,  4-C ) :   1.5857 B(  3-C ,  5-H ) :   1.0110
B(  4-C , 20-C ) :   1.0093 B(  6-C ,  7-H ) :   0.9489 B(  6-C ,  8-H ) :   0.9218
B(  6-C ,  9-C ) :   1.0576 B(  9-C , 10-H ) :   0.9617 B(  9-C , 11-H ) :   0.9441
B(  9-C , 12-C ) :   1.0836 B( 12-C , 13-H ) :   0.9720 B( 12-C , 14-H ) :   0.9734
B( 12-C , 15-H ) :   0.9758 B( 16-S , 17-C ) :   1.1659 B( 16-S , 20-C ) :   1.1446
B( 17-C , 18-C ) :   1.6063 B( 17-C , 33-H ) :   0.9727 B( 18-C , 19-C ) :   1.2163
B( 18-C , 21-H ) :   0.9858 B( 19-C , 20-C ) :   1.6132 B( 19-C , 22-C ) :   1.0411
B( 22-C , 23-H ) :   0.9194 B( 22-C , 24-H ) :   0.9251 B( 22-C , 25-C ) :   1.0711
B( 25-C , 26-H ) :   0.9582 B( 25-C , 27-H ) :   0.9532 B( 25-C , 28-C ) :   1.0586
B( 28-C , 29-H ) :   0.9763 B( 28-C , 30-H ) :   0.9736 B( 28-C , 31-H ) :   0.9787

Dispersion correction           -0.014575932
FINAL SINGLE POINT ENERGY     -1339.876975351705

DIPOLE MOMENT
-------------
                                X             Y             Z
Electronic contribution:      5.13375      19.88750      18.41290
Nuclear contribution   :     -5.34354     -20.54614     -18.64946
                        -----------------------------------------
Total Dipole Moment    :     -0.20979      -0.65864      -0.23656
                        -----------------------------------------
Magnitude (a.u.)       :      0.73060
Magnitude (Debye)      :      1.85704

Rotational constants in cm-1:     0.021089     0.007802     0.006373
Rotational constants in MHz :   632.236103   233.892256   191.057530

                             ****ORCA TERMINATED NORMALLY****
TOTAL RUN TIME: 0 days 0 hours 0 minutes 21 seconds 512 msec
