                         Program Version 4.2.1 -  RELEASE  -
|  1> ! wB97X-D3 SP def2-SVP
|  2> %pal
|  3> nprocs 24
|  4> end
|  5>
|  6> * xyz 0 1
|  7> S 	 20.4284 	 -7.26671 	 -120.093
|  8> C 	 21.0086 	 -7.6033 	 -118.486
|  9> C 	 20.1749 	 -7.1308 	 -117.505
| 10> C 	 19.1518 	 -6.33774 	 -118.013
| 11> C 	 19.1069 	 -6.3451 	 -119.361
| 12> H 	 18.5047 	 -5.6489 	 -117.491
| 13> C 	 20.3838 	 -7.27481 	 -116.021
| 14> H 	 19.6635 	 -8.10176 	 -115.636
| 15> H 	 20.1823 	 -6.23617 	 -115.64
| 16> C 	 21.7406 	 -7.70711 	 -115.424
| 17> H 	 22.1523 	 -8.65553 	 -115.857
| 18> H 	 22.5207 	 -6.9397 	 -115.723
| 19> C 	 21.695 	 -7.8608 	 -113.889
| 20> H 	 22.6526 	 -7.85423 	 -113.407
| 21> H 	 21.162 	 -7.03408 	 -113.392
| 22> H 	 21.1123 	 -8.75902 	 -113.646
| 23> S 	 19.0214 	 -4.23841 	 -121.082
| 24> C 	 17.4975 	 -3.46952 	 -121.521
| 25> C 	 16.4389 	 -4.27502 	 -121.063
| 26> C 	 16.8494 	 -5.50133 	 -120.393
| 27> C 	 18.251 	 -5.54866 	 -120.246
| 28> H 	 15.4122 	 -4.09625 	 -121.228
| 29> C 	 15.8009 	 -6.41532 	 -119.863
| 30> H 	 16.245 	 -7.32918 	 -119.541
| 31> H 	 15.3036 	 -6.64019 	 -120.814
| 32> C 	 14.9283 	 -5.8723 	 -118.759
| 33> H 	 14.5307 	 -4.92223 	 -119.006
| 34> H 	 15.5811 	 -5.63532 	 -117.934
| 35> C 	 13.8258 	 -6.90815 	 -118.462
| 36> H 	 14.2188 	 -7.83494 	 -118.205
| 37> H 	 13.1653 	 -7.13149 	 -119.292
| 38> H 	 13.1945 	 -6.6293 	 -117.646
| 39> H 	 21.9275 	 -8.14159 	 -118.473
| 40> H 	 17.4089 	 -2.44801 	 -121.819
| 41> *
| 42>
| 43>                          ****END OF INPUT****

CARTESIAN COORDINATES (ANGSTROEM)
---------------------------------
  S     20.428400   -7.266710  -120.093000
  C     21.008600   -7.603300  -118.486000
  C     20.174900   -7.130800  -117.505000
  C     19.151800   -6.337740  -118.013000
  C     19.106900   -6.345100  -119.361000
  H     18.504700   -5.648900  -117.491000
  C     20.383800   -7.274810  -116.021000
  H     19.663500   -8.101760  -115.636000
  H     20.182300   -6.236170  -115.640000
  C     21.740600   -7.707110  -115.424000
  H     22.152300   -8.655530  -115.857000
  H     22.520700   -6.939700  -115.723000
  C     21.695000   -7.860800  -113.889000
  H     22.652600   -7.854230  -113.407000
  H     21.162000   -7.034080  -113.392000
  H     21.112300   -8.759020  -113.646000
  S     19.021400   -4.238410  -121.082000
  C     17.497500   -3.469520  -121.521000
  C     16.438900   -4.275020  -121.063000
  C     16.849400   -5.501330  -120.393000
  C     18.251000   -5.548660  -120.246000
  H     15.412200   -4.096250  -121.228000
  C     15.800900   -6.415320  -119.863000
  H     16.245000   -7.329180  -119.541000
  H     15.303600   -6.640190  -120.814000
  C     14.928300   -5.872300  -118.759000
  H     14.530700   -4.922230  -119.006000
  H     15.581100   -5.635320  -117.934000
  C     13.825800   -6.908150  -118.462000
  H     14.218800   -7.834940  -118.205000
  H     13.165300   -7.131490  -119.292000
  H     13.194500   -6.629300  -117.646000
  H     21.927500   -8.141590  -118.473000
  H     17.408900   -2.448010  -121.819000

 Total Charge           Charge          ....    0
 Multiplicity           Mult            ....    1
 Number of Electrons    NEL             ....  134
 Basis Dimension        Dim             ....  322

ORBITAL ENERGIES
----------------

  NO   OCC          E(Eh)            E(eV)
   0   2.0000     -88.962261     -2420.7862
   1   2.0000     -88.960931     -2420.7500
   2   2.0000     -10.324731      -280.9502
   3   2.0000     -10.323527      -280.9174
   4   2.0000     -10.319435      -280.8061
   5   2.0000     -10.309696      -280.5411
   6   2.0000     -10.304176      -280.3909
   7   2.0000     -10.302356      -280.3414
   8   2.0000     -10.298819      -280.2451
   9   2.0000     -10.296538      -280.1830
  10   2.0000     -10.294362      -280.1238
  11   2.0000     -10.289035      -279.9789
  12   2.0000     -10.284317      -279.8505
  13   2.0000     -10.284223      -279.8479
  14   2.0000     -10.281014      -279.7606
  15   2.0000     -10.271329      -279.4971
  16   2.0000      -8.077082      -219.7886
  17   2.0000      -8.076220      -219.7651
  18   2.0000      -6.035619      -164.2375
  19   2.0000      -6.034475      -164.2064
  20   2.0000      -6.031382      -164.1223
  21   2.0000      -6.030794      -164.1062
  22   2.0000      -6.027990      -164.0299
  23   2.0000      -6.027089      -164.0054
  24   2.0000      -1.008151       -27.4332
  25   2.0000      -0.982439       -26.7335
  26   2.0000      -0.917024       -24.9535
  27   2.0000      -0.906810       -24.6755
  28   2.0000      -0.865411       -23.5490
  29   2.0000      -0.856738       -23.3130
  30   2.0000      -0.849741       -23.1226
  31   2.0000      -0.813526       -22.1372
  32   2.0000      -0.781016       -21.2525
  33   2.0000      -0.767502       -20.8848
  34   2.0000      -0.716367       -19.4933
  35   2.0000      -0.705363       -19.1939
  36   2.0000      -0.689634       -18.7659
  37   2.0000      -0.664389       -18.0789
  38   2.0000      -0.650727       -17.7072
  39   2.0000      -0.614502       -16.7214
  40   2.0000      -0.599277       -16.3072
  41   2.0000      -0.568932       -15.4814
  42   2.0000      -0.564277       -15.3548
  43   2.0000      -0.560746       -15.2587
  44   2.0000      -0.530840       -14.4449
  45   2.0000      -0.524595       -14.2749
  46   2.0000      -0.519182       -14.1277
  47   2.0000      -0.510921       -13.9029
  48   2.0000      -0.507610       -13.8128
  49   2.0000      -0.500814       -13.6278
  50   2.0000      -0.489858       -13.3297
  51   2.0000      -0.477721       -12.9995
  52   2.0000      -0.474565       -12.9136
  53   2.0000      -0.462685       -12.5903
  54   2.0000      -0.455335       -12.3903
  55   2.0000      -0.450788       -12.2666
  56   2.0000      -0.447595       -12.1797
  57   2.0000      -0.443281       -12.0623
  58   2.0000      -0.434398       -11.8206
  59   2.0000      -0.423123       -11.5138
  60   2.0000      -0.420951       -11.4547
  61   2.0000      -0.416073       -11.3219
  62   2.0000      -0.415359       -11.3025
  63   2.0000      -0.343481        -9.3466
  64   2.0000      -0.328551        -8.9403
  65   2.0000      -0.321585        -8.7508
  66   2.0000      -0.297153        -8.0860
  67   0.0000       0.038615         1.0508
  68   0.0000       0.061103         1.6627
  69   0.0000       0.113351         3.0844
  70   0.0000       0.124273         3.3816
  71   0.0000       0.127775         3.4769

MULLIKEN ATOMIC CHARGES
-----------------------
   0 S :    0.095723
   1 C :   -0.142868
   2 C :   -0.020357
   3 C :    0.031374
   4 C :   -0.167544
   5 H :    0.016311
   6 C :    0.011512
   7 H :    0.057051
   8 H :    0.043836
   9 C :   -0.113098
  10 H :    0.037157
  11 H :    0.034572
  12 C :   -0.036865
  13 H :    0.035778
  14 H :    0.023703
  15 H :    0.034414
  16 S :    0.107509
  17 C :   -0.087899
  18 C :   -0.028458
  19 C :   -0.048117
  20 C :   -0.163537
  21 H :    0.006602
  22 C :    0.060820
  23 H :    0.012590
  24 H :    0.033282
  25 C :   -0.031375
  26 H :    0.010840
  27 H :    0.020852
  28 C :    0.003578
  29 H :    0.008182
  30 H :    0.024176
  31 H :    0.024078
  32 H :    0.042509
  33 H :    0.063668
Sum of atomic charges:    0.0000000

LOEWDIN ATOMIC CHARGES
----------------------
   0 S :    0.391334
   1 C :   -0.187700
   2 C :   -0.071295
   3 C :   -0.058721
   4 C :   -0.182758
   5 H :    0.036551
   6 C :   -0.040907
   7 H :    0.045905
   8 H :    0.039880
   9 C :   -0.054155
  10 H :    0.024979
  11 H :    0.026383
  12 C :   -0.066429
  13 H :    0.025986
  14 H :    0.025860
  15 H :    0.027151
  16 S :    0.411128
  17 C :   -0.185214
  18 C :   -0.062625
  19 C :   -0.053716
  20 C :   -0.216256
  21 H :    0.020617
  22 C :   -0.033647
  23 H :    0.026684
  24 H :    0.038463
  25 C :   -0.028628
  26 H :    0.016425
  27 H :    0.025830
  28 C :   -0.055833
  29 H :    0.017125
  30 H :    0.027847
  31 H :    0.023487
  32 H :    0.018068
  33 H :    0.028182

  Mayer bond orders larger than 0.100000
B(  0-S ,  1-C ) :   1.1400 B(  0-S ,  4-C ) :   1.1513 B(  1-C ,  2-C ) :   1.6019
B(  1-C , 32-H ) :   0.9778 B(  2-C ,  3-C ) :   1.2242 B(  2-C ,  6-C ) :   1.0080
B(  3-C ,  4-C ) :   1.6252 B(  3-C ,  5-H ) :   0.9957 B(  4-C , 20-C ) :   0.9916
B(  6-C ,  7-H ) :   0.9333 B(  6-C ,  8-H ) :   0.9438 B(  6-C ,  9-C ) :   1.0774
B(  9-C , 10-H ) :   0.9507 B(  9-C , 11-H ) :   0.9548 B(  9-C , 12-C ) :   1.0777
B( 12-C , 13-H ) :   0.9739 B( 12-C , 14-H ) :   0.9746 B( 12-C , 15-H ) :   0.9747
B( 16-S , 17-C ) :   1.1557 B( 16-S , 20-C ) :   1.1556 B( 17-C , 18-C ) :   1.5825
B( 17-C , 33-H ) :   0.9723 B( 18-C , 19-C ) :   1.2537 B( 18-C , 21-H ) :   0.9896
B( 19-C , 20-C ) :   1.5780 B( 19-C , 22-C ) :   1.0438 B( 22-C , 23-H ) :   0.9310
B( 22-C , 24-H ) :   0.9302 B( 22-C , 25-C ) :   1.0624 B( 25-C , 26-H ) :   0.9555
B( 25-C , 27-H ) :   0.9493 B( 25-C , 28-C ) :   1.0790 B( 28-C , 29-H ) :   0.9716
B( 28-C , 30-H ) :   0.9742 B( 28-C , 31-H ) :   0.9730

Dispersion correction           -0.013608915
FINAL SINGLE POINT ENERGY     -1339.874926792229

DIPOLE MOMENT
-------------
                                X             Y             Z
Electronic contribution:     10.27583       8.14142     -24.38607
Nuclear contribution   :    -10.63393      -8.12822      25.00652
                        -----------------------------------------
Total Dipole Moment    :     -0.35810       0.01319       0.62045
                        -----------------------------------------
Magnitude (a.u.)       :      0.71650
Magnitude (Debye)      :      1.82119

Rotational constants in cm-1:     0.018487     0.007668     0.006085
Rotational constants in MHz :   554.230240   229.886238   182.412343

                             ****ORCA TERMINATED NORMALLY****
TOTAL RUN TIME: 0 days 0 hours 0 minutes 20 seconds 893 msec
