                         Program Version 4.2.1 -  RELEASE  -
|  1> ! wB97X-D3 SP def2-SVP
|  2> %pal
|  3> nprocs 24
|  4> end
|  5>
|  6> * xyz 0 1
|  7> S 	 20.8538 	 -8.33249 	 -119.589
|  8> C 	 20.6788 	 -8.99139 	 -117.998
|  9> C 	 19.3802 	 -9.05154 	 -117.611
| 10> C 	 18.4717 	 -8.3667 	 -118.533
| 11> C 	 19.1496 	 -8.03844 	 -119.714
| 12> H 	 17.397 	 -8.1629 	 -118.421
| 13> C 	 18.9517 	 -9.62366 	 -116.267
| 14> H 	 19.7547 	 -10.2522 	 -115.774
| 15> H 	 18.0933 	 -10.2458 	 -116.435
| 16> C 	 18.6309 	 -8.6251 	 -115.13
| 17> H 	 17.9422 	 -7.86882 	 -115.588
| 18> H 	 18.1175 	 -9.24469 	 -114.313
| 19> C 	 19.8869 	 -7.99745 	 -114.57
| 20> H 	 20.565 	 -8.71524 	 -113.997
| 21> H 	 20.3158 	 -7.45277 	 -115.341
| 22> H 	 19.5827 	 -7.20865 	 -113.854
| 23> S 	 19.1015 	 -6.02388 	 -121.66
| 24> C 	 17.6185 	 -5.81949 	 -122.57
| 25> C 	 16.8889 	 -7.0627 	 -122.514
| 26> C 	 17.2979 	 -7.91668 	 -121.457
| 27> C 	 18.5226 	 -7.44242 	 -120.901
| 28> H 	 16.1192 	 -7.21168 	 -123.208
| 29> C 	 16.5481 	 -9.22175 	 -121.151
| 30> H 	 17.0573 	 -9.90653 	 -120.49
| 31> H 	 16.4011 	 -9.78166 	 -122.044
| 32> C 	 15.1836 	 -9.04546 	 -120.585
| 33> H 	 14.6077 	 -8.55778 	 -121.34
| 34> H 	 15.0669 	 -8.37416 	 -119.694
| 35> C 	 14.6016 	 -10.3917 	 -120.081
| 36> H 	 15.1394 	 -10.8862 	 -119.205
| 37> H 	 14.5376 	 -11.1183 	 -120.915
| 38> H 	 13.6106 	 -10.1258 	 -119.656
| 39> H 	 21.4077 	 -9.58173 	 -117.462
| 40> H 	 17.576 	 -5.12078 	 -123.377
| 41> *
| 42>
| 43>                          ****END OF INPUT****

CARTESIAN COORDINATES (ANGSTROEM)
---------------------------------
  S     20.853800   -8.332490  -119.589000
  C     20.678800   -8.991390  -117.998000
  C     19.380200   -9.051540  -117.611000
  C     18.471700   -8.366700  -118.533000
  C     19.149600   -8.038440  -119.714000
  H     17.397000   -8.162900  -118.421000
  C     18.951700   -9.623660  -116.267000
  H     19.754700  -10.252200  -115.774000
  H     18.093300  -10.245800  -116.435000
  C     18.630900   -8.625100  -115.130000
  H     17.942200   -7.868820  -115.588000
  H     18.117500   -9.244690  -114.313000
  C     19.886900   -7.997450  -114.570000
  H     20.565000   -8.715240  -113.997000
  H     20.315800   -7.452770  -115.341000
  H     19.582700   -7.208650  -113.854000
  S     19.101500   -6.023880  -121.660000
  C     17.618500   -5.819490  -122.570000
  C     16.888900   -7.062700  -122.514000
  C     17.297900   -7.916680  -121.457000
  C     18.522600   -7.442420  -120.901000
  H     16.119200   -7.211680  -123.208000
  C     16.548100   -9.221750  -121.151000
  H     17.057300   -9.906530  -120.490000
  H     16.401100   -9.781660  -122.044000
  C     15.183600   -9.045460  -120.585000
  H     14.607700   -8.557780  -121.340000
  H     15.066900   -8.374160  -119.694000
  C     14.601600  -10.391700  -120.081000
  H     15.139400  -10.886200  -119.205000
  H     14.537600  -11.118300  -120.915000
  H     13.610600  -10.125800  -119.656000
  H     21.407700   -9.581730  -117.462000
  H     17.576000   -5.120780  -123.377000

 Total Charge           Charge          ....    0
 Multiplicity           Mult            ....    1
 Number of Electrons    NEL             ....  134
 Basis Dimension        Dim             ....  322

ORBITAL ENERGIES
----------------

  NO   OCC          E(Eh)            E(eV)
   0   2.0000     -88.971281     -2421.0316
   1   2.0000     -88.966388     -2420.8985
   2   2.0000     -10.331740      -281.1409
   3   2.0000     -10.330062      -281.0953
   4   2.0000     -10.321302      -280.8569
   5   2.0000     -10.309341      -280.5314
   6   2.0000     -10.307632      -280.4849
   7   2.0000     -10.301608      -280.3210
   8   2.0000     -10.300753      -280.2977
   9   2.0000     -10.299887      -280.2742
  10   2.0000     -10.293037      -280.0878
  11   2.0000     -10.291762      -280.0531
  12   2.0000     -10.289973      -280.0044
  13   2.0000     -10.287093      -279.9260
  14   2.0000     -10.285831      -279.8917
  15   2.0000     -10.275309      -279.6054
  16   2.0000      -8.086370      -220.0413
  17   2.0000      -8.081805      -219.9171
  18   2.0000      -6.044742      -164.4858
  19   2.0000      -6.040760      -164.3774
  20   2.0000      -6.040309      -164.3652
  21   2.0000      -6.037326      -164.2840
  22   2.0000      -6.036283      -164.2556
  23   2.0000      -6.032479      -164.1521
  24   2.0000      -1.008099       -27.4318
  25   2.0000      -0.985708       -26.8225
  26   2.0000      -0.917375       -24.9631
  27   2.0000      -0.910769       -24.7833
  28   2.0000      -0.867468       -23.6050
  29   2.0000      -0.853005       -23.2114
  30   2.0000      -0.844562       -22.9817
  31   2.0000      -0.809991       -22.0410
  32   2.0000      -0.782969       -21.3057
  33   2.0000      -0.774122       -21.0649
  34   2.0000      -0.702532       -19.1169
  35   2.0000      -0.696866       -18.9627
  36   2.0000      -0.685121       -18.6431
  37   2.0000      -0.663123       -18.0445
  38   2.0000      -0.637204       -17.3392
  39   2.0000      -0.618887       -16.8408
  40   2.0000      -0.602464       -16.3939
  41   2.0000      -0.572180       -15.5698
  42   2.0000      -0.567357       -15.4386
  43   2.0000      -0.548958       -14.9379
  44   2.0000      -0.546550       -14.8724
  45   2.0000      -0.524913       -14.2836
  46   2.0000      -0.519168       -14.1273
  47   2.0000      -0.510621       -13.8947
  48   2.0000      -0.498794       -13.5729
  49   2.0000      -0.495341       -13.4789
  50   2.0000      -0.488492       -13.2925
  51   2.0000      -0.483473       -13.1560
  52   2.0000      -0.473069       -12.8729
  53   2.0000      -0.464010       -12.6264
  54   2.0000      -0.460007       -12.5174
  55   2.0000      -0.447554       -12.1786
  56   2.0000      -0.442829       -12.0500
  57   2.0000      -0.436950       -11.8900
  58   2.0000      -0.435895       -11.8613
  59   2.0000      -0.434041       -11.8108
  60   2.0000      -0.417516       -11.3612
  61   2.0000      -0.411453       -11.1962
  62   2.0000      -0.408299       -11.1104
  63   2.0000      -0.348266        -9.4768
  64   2.0000      -0.332137        -9.0379
  65   2.0000      -0.329218        -8.9585
  66   2.0000      -0.290657        -7.9092
  67   0.0000       0.024875         0.6769
  68   0.0000       0.069386         1.8881
  69   0.0000       0.104442         2.8420
  70   0.0000       0.118116         3.2141
  71   0.0000       0.124989         3.4011

MULLIKEN ATOMIC CHARGES
-----------------------
   0 S :    0.110386
   1 C :   -0.094539
   2 C :   -0.107536
   3 C :    0.015553
   4 C :   -0.151991
   5 H :    0.026329
   6 C :    0.048978
   7 H :    0.018498
   8 H :    0.023954
   9 C :   -0.106039
  10 H :    0.036884
  11 H :    0.041457
  12 C :   -0.042318
  13 H :    0.045455
  14 H :    0.026748
  15 H :    0.031838
  16 S :    0.125300
  17 C :   -0.105901
  18 C :   -0.031786
  19 C :   -0.014788
  20 C :   -0.143174
  21 H :    0.008709
  22 C :    0.097403
  23 H :    0.019676
  24 H :    0.019927
  25 C :   -0.102079
  26 H :    0.020429
  27 H :    0.030536
  28 C :   -0.081996
  29 H :    0.048594
  30 H :    0.038592
  31 H :    0.039618
  32 H :    0.047402
  33 H :    0.059878
Sum of atomic charges:    0.0000000

LOEWDIN ATOMIC CHARGES
----------------------
   0 S :    0.412721
   1 C :   -0.208056
   2 C :   -0.063994
   3 C :   -0.065514
   4 C :   -0.189441
   5 H :    0.035944
   6 C :   -0.038477
   7 H :    0.031836
   8 H :    0.024931
   9 C :   -0.045114
  10 H :    0.026445
  11 H :    0.030603
  12 C :   -0.070711
  13 H :    0.033950
  14 H :    0.017632
  15 H :    0.030950
  16 S :    0.436099
  17 C :   -0.195739
  18 C :   -0.052472
  19 C :   -0.048724
  20 C :   -0.216526
  21 H :    0.020740
  22 C :   -0.031483
  23 H :    0.027100
  24 H :    0.031315
  25 C :   -0.044676
  26 H :    0.017934
  27 H :    0.025050
  28 C :   -0.072225
  29 H :    0.033430
  30 H :    0.024153
  31 H :    0.030121
  32 H :    0.030734
  33 H :    0.021465

  Mayer bond orders larger than 0.100000
B(  0-S ,  1-C ) :   1.1192 B(  0-S ,  4-C ) :   1.1616 B(  1-C ,  2-C ) :   1.6543
B(  1-C , 32-H ) :   0.9589 B(  2-C ,  3-C ) :   1.2009 B(  2-C ,  6-C ) :   1.0348
B(  3-C ,  4-C ) :   1.5782 B(  3-C ,  5-H ) :   0.9878 B(  4-C , 20-C ) :   1.0361
B(  6-C ,  7-H ) :   0.9443 B(  6-C ,  8-H ) :   0.9363 B(  6-C ,  9-C ) :   1.0625
B(  9-C , 10-H ) :   0.9552 B(  9-C , 11-H ) :   0.9539 B(  9-C , 12-C ) :   1.0840
B( 12-C , 13-H ) :   0.9709 B( 12-C , 14-H ) :   0.9730 B( 12-C , 15-H ) :   0.9696
B( 16-S , 17-C ) :   1.1737 B( 16-S , 20-C ) :   1.1794 B( 17-C , 18-C ) :   1.5438
B( 17-C , 20-C ) :   0.1168 B( 17-C , 33-H ) :   0.9682 B( 18-C , 19-C ) :   1.2885
B( 18-C , 21-H ) :   0.9944 B( 19-C , 20-C ) :   1.5200 B( 19-C , 22-C ) :   1.0381
B( 22-C , 23-H ) :   0.9372 B( 22-C , 24-H ) :   0.9309 B( 22-C , 25-C ) :   1.0564
B( 25-C , 26-H ) :   0.9534 B( 25-C , 27-H ) :   0.9547 B( 25-C , 28-C ) :   1.0806
B( 28-C , 29-H ) :   0.9731 B( 28-C , 30-H ) :   0.9732 B( 28-C , 31-H ) :   0.9748

Dispersion correction           -0.014436069
FINAL SINGLE POINT ENERGY     -1339.868692191403

DIPOLE MOMENT
-------------
                                X             Y             Z
Electronic contribution:     17.28687      12.49973     -18.96139
Nuclear contribution   :    -17.80484     -12.83959      19.05762
                        -----------------------------------------
Total Dipole Moment    :     -0.51797      -0.33986       0.09623
                        -----------------------------------------
Magnitude (a.u.)       :      0.62695
Magnitude (Debye)      :      1.59357

Rotational constants in cm-1:     0.017487     0.009100     0.006813
Rotational constants in MHz :   524.234648   272.815027   204.258272

                             ****ORCA TERMINATED NORMALLY****
TOTAL RUN TIME: 0 days 0 hours 0 minutes 21 seconds 667 msec
