                         Program Version 4.2.1 -  RELEASE  -
|  1> ! wB97X-D3 SP def2-SVP
|  2> %pal
|  3> nprocs 24
|  4> end
|  5>
|  6> * xyz 0 1
|  7> S 	 44.7401 	 -13.7196 	 -116.444
|  8> C 	 45.6217 	 -14.5092 	 -115.285
|  9> C 	 46.8163 	 -15.079 	 -115.73
| 10> C 	 47.0368 	 -14.7015 	 -117.078
| 11> C 	 45.9235 	 -14.1961 	 -117.709
| 12> H 	 47.8956 	 -14.9842 	 -117.662
| 13> C 	 47.8528 	 -15.8492 	 -114.88
| 14> H 	 47.3464 	 -16.1815 	 -113.957
| 15> H 	 48.5343 	 -15.0871 	 -114.709
| 16> C 	 48.5248 	 -17.1376 	 -115.302
| 17> H 	 47.678 	 -17.9611 	 -115.208
| 18> H 	 48.7657 	 -17.0249 	 -116.373
| 19> C 	 49.6196 	 -17.4994 	 -114.259
| 20> H 	 50.0483 	 -18.422 	 -114.52
| 21> H 	 50.4557 	 -16.7307 	 -114.172
| 22> H 	 49.2646 	 -17.7282 	 -113.26
| 23> S 	 44.3182 	 -13.5226 	 -119.84
| 24> C 	 44.8692 	 -13.035 	 -121.421
| 25> C 	 46.2161 	 -12.743 	 -121.245
| 26> C 	 46.8111 	 -13.3063 	 -120.034
| 27> C 	 45.8826 	 -13.7596 	 -119.13
| 28> H 	 46.681 	 -12.1919 	 -122.061
| 29> C 	 48.347 	 -13.2727 	 -119.912
| 30> H 	 48.6201 	 -13.0871 	 -118.864
| 31> H 	 48.6153 	 -12.3661 	 -120.421
| 32> C 	 49.1595 	 -14.5254 	 -120.436
| 33> H 	 49.0107 	 -14.6765 	 -121.506
| 34> H 	 48.7699 	 -15.425 	 -119.989
| 35> C 	 50.6224 	 -14.3914 	 -120.028
| 36> H 	 51.034 	 -13.3795 	 -120.142
| 37> H 	 51.3425 	 -14.9577 	 -120.622
| 38> H 	 50.7619 	 -14.7217 	 -119.026
| 39> H 	 45.2511 	 -14.6595 	 -114.308
| 40> H 	 44.1724 	 -12.5999 	 -122.116
| 41> *
| 42>
| 43>                          ****END OF INPUT****

CARTESIAN COORDINATES (ANGSTROEM)
---------------------------------
  S     44.740100  -13.719600  -116.444000
  C     45.621700  -14.509200  -115.285000
  C     46.816300  -15.079000  -115.730000
  C     47.036800  -14.701500  -117.078000
  C     45.923500  -14.196100  -117.709000
  H     47.895600  -14.984200  -117.662000
  C     47.852800  -15.849200  -114.880000
  H     47.346400  -16.181500  -113.957000
  H     48.534300  -15.087100  -114.709000
  C     48.524800  -17.137600  -115.302000
  H     47.678000  -17.961100  -115.208000
  H     48.765700  -17.024900  -116.373000
  C     49.619600  -17.499400  -114.259000
  H     50.048300  -18.422000  -114.520000
  H     50.455700  -16.730700  -114.172000
  H     49.264600  -17.728200  -113.260000
  S     44.318200  -13.522600  -119.840000
  C     44.869200  -13.035000  -121.421000
  C     46.216100  -12.743000  -121.245000
  C     46.811100  -13.306300  -120.034000
  C     45.882600  -13.759600  -119.130000
  H     46.681000  -12.191900  -122.061000
  C     48.347000  -13.272700  -119.912000
  H     48.620100  -13.087100  -118.864000
  H     48.615300  -12.366100  -120.421000
  C     49.159500  -14.525400  -120.436000
  H     49.010700  -14.676500  -121.506000
  H     48.769900  -15.425000  -119.989000
  C     50.622400  -14.391400  -120.028000
  H     51.034000  -13.379500  -120.142000
  H     51.342500  -14.957700  -120.622000
  H     50.761900  -14.721700  -119.026000
  H     45.251100  -14.659500  -114.308000
  H     44.172400  -12.599900  -122.116000

 Total Charge           Charge          ....    0
 Multiplicity           Mult            ....    1
 Number of Electrons    NEL             ....  134
 Basis Dimension        Dim             ....  322

ORBITAL ENERGIES
----------------

  NO   OCC          E(Eh)            E(eV)
   0   2.0000     -88.969811     -2420.9916
   1   2.0000     -88.955507     -2420.6024
   2   2.0000     -10.334576      -281.2181
   3   2.0000     -10.330490      -281.1069
   4   2.0000     -10.316354      -280.7223
   5   2.0000     -10.307172      -280.4724
   6   2.0000     -10.306475      -280.4534
   7   2.0000     -10.303127      -280.3623
   8   2.0000     -10.302256      -280.3386
   9   2.0000     -10.299274      -280.2575
  10   2.0000     -10.294521      -280.1282
  11   2.0000     -10.292995      -280.0866
  12   2.0000     -10.290728      -280.0249
  13   2.0000     -10.288159      -279.9550
  14   2.0000     -10.286827      -279.9188
  15   2.0000     -10.277491      -279.6648
  16   2.0000      -8.085425      -220.0156
  17   2.0000      -8.071258      -219.6301
  18   2.0000      -6.043965      -164.4646
  19   2.0000      -6.039777      -164.3507
  20   2.0000      -6.036117      -164.2511
  21   2.0000      -6.029812      -164.0795
  22   2.0000      -6.025541      -163.9633
  23   2.0000      -6.021978      -163.8664
  24   2.0000      -1.010535       -27.4980
  25   2.0000      -0.990415       -26.9506
  26   2.0000      -0.912857       -24.8401
  27   2.0000      -0.903429       -24.5835
  28   2.0000      -0.873122       -23.7589
  29   2.0000      -0.855562       -23.2810
  30   2.0000      -0.845947       -23.0194
  31   2.0000      -0.817840       -22.2546
  32   2.0000      -0.780095       -21.2275
  33   2.0000      -0.772586       -21.0231
  34   2.0000      -0.709804       -19.3148
  35   2.0000      -0.702640       -19.1198
  36   2.0000      -0.693186       -18.8626
  37   2.0000      -0.666174       -18.1275
  38   2.0000      -0.642389       -17.4803
  39   2.0000      -0.624935       -17.0053
  40   2.0000      -0.591356       -16.0916
  41   2.0000      -0.572244       -15.5716
  42   2.0000      -0.566513       -15.4156
  43   2.0000      -0.562591       -15.3089
  44   2.0000      -0.524467       -14.2715
  45   2.0000      -0.520303       -14.1582
  46   2.0000      -0.519249       -14.1295
  47   2.0000      -0.511776       -13.9261
  48   2.0000      -0.508926       -13.8486
  49   2.0000      -0.499538       -13.5931
  50   2.0000      -0.498397       -13.5621
  51   2.0000      -0.481209       -13.0944
  52   2.0000      -0.477345       -12.9892
  53   2.0000      -0.471999       -12.8438
  54   2.0000      -0.463702       -12.6180
  55   2.0000      -0.447491       -12.1769
  56   2.0000      -0.443959       -12.0807
  57   2.0000      -0.434278       -11.8173
  58   2.0000      -0.432598       -11.7716
  59   2.0000      -0.427170       -11.6239
  60   2.0000      -0.422947       -11.5090
  61   2.0000      -0.414321       -11.2743
  62   2.0000      -0.403948       -10.9920
  63   2.0000      -0.363617        -9.8945
  64   2.0000      -0.333005        -9.0615
  65   2.0000      -0.320137        -8.7114
  66   2.0000      -0.287018        -7.8102
  67   0.0000       0.025018         0.6808
  68   0.0000       0.074277         2.0212
  69   0.0000       0.110494         3.0067
  70   0.0000       0.120988         3.2923
  71   0.0000       0.126950         3.4545

MULLIKEN ATOMIC CHARGES
-----------------------
   0 S :    0.129710
   1 C :   -0.098086
   2 C :   -0.076581
   3 C :   -0.020542
   4 C :   -0.086293
   5 H :    0.005007
   6 C :    0.057018
   7 H :    0.019948
   8 H :    0.029447
   9 C :   -0.103135
  10 H :    0.046931
  11 H :    0.036832
  12 C :   -0.034429
  13 H :    0.021163
  14 H :    0.044348
  15 H :    0.030479
  16 S :    0.060850
  17 C :   -0.087906
  18 C :   -0.048550
  19 C :   -0.078973
  20 C :   -0.120266
  21 H :    0.029396
  22 C :    0.039435
  23 H :    0.023323
  24 H :    0.017572
  25 C :   -0.031647
  26 H :    0.030194
  27 H :    0.023881
  28 C :   -0.042619
  29 H :    0.028607
  30 H :    0.027021
  31 H :    0.025486
  32 H :    0.032054
  33 H :    0.070327
Sum of atomic charges:    0.0000000

LOEWDIN ATOMIC CHARGES
----------------------
   0 S :    0.433378
   1 C :   -0.217372
   2 C :   -0.062218
   3 C :   -0.061917
   4 C :   -0.179133
   5 H :    0.026747
   6 C :   -0.036388
   7 H :    0.032778
   8 H :    0.023728
   9 C :   -0.044971
  10 H :    0.038644
  11 H :    0.022343
  12 C :   -0.064621
  13 H :    0.020876
  14 H :    0.033400
  15 H :    0.028456
  16 S :    0.401032
  17 C :   -0.191362
  18 C :   -0.068910
  19 C :   -0.067585
  20 C :   -0.192792
  21 H :    0.031673
  22 C :   -0.030792
  23 H :    0.027352
  24 H :    0.027984
  25 C :   -0.034660
  26 H :    0.025539
  27 H :    0.021200
  28 C :   -0.067653
  29 H :    0.026808
  30 H :    0.027315
  31 H :    0.020952
  32 H :    0.019672
  33 H :    0.030498

  Mayer bond orders larger than 0.100000
B(  0-S ,  1-C ) :   1.1728 B(  0-S ,  4-C ) :   1.1370 B(  1-C ,  2-C ) :   1.5886
B(  1-C , 32-H ) :   0.9654 B(  2-C ,  3-C ) :   1.2590 B(  2-C ,  6-C ) :   1.0020
B(  3-C ,  4-C ) :   1.5777 B(  3-C ,  5-H ) :   0.9894 B(  4-C , 20-C ) :   1.0587
B(  6-C ,  7-H ) :   0.9485 B(  6-C ,  8-H ) :   0.9427 B(  6-C ,  9-C ) :   1.0546
B(  9-C , 10-H ) :   0.9574 B(  9-C , 11-H ) :   0.9597 B(  9-C , 12-C ) :   1.0675
B( 12-C , 13-H ) :   0.9721 B( 12-C , 14-H ) :   0.9758 B( 12-C , 15-H ) :   0.9722
B( 16-S , 17-C ) :   1.1544 B( 16-S , 20-C ) :   1.1433 B( 17-C , 18-C ) :   1.6029
B( 17-C , 33-H ) :   0.9666 B( 18-C , 19-C ) :   1.2444 B( 18-C , 21-H ) :   0.9860
B( 19-C , 20-C ) :   1.5799 B( 19-C , 22-C ) :   1.0366 B( 22-C , 23-H ) :   0.9414
B( 22-C , 24-H ) :   0.9302 B( 22-C , 25-C ) :   1.0537 B( 25-C , 26-H ) :   0.9557
B( 25-C , 27-H ) :   0.9571 B( 25-C , 28-C ) :   1.0748 B( 28-C , 29-H ) :   0.9749
B( 28-C , 30-H ) :   0.9730 B( 28-C , 31-H ) :   0.9762

Dispersion correction           -0.013675680
FINAL SINGLE POINT ENERGY     -1339.852840713544

DIPOLE MOMENT
-------------
                                X             Y             Z
Electronic contribution:    -30.35007      12.68092      -5.26535
Nuclear contribution   :     31.09707     -12.76212       5.40784
                        -----------------------------------------
Total Dipole Moment    :      0.74700      -0.08120       0.14249
                        -----------------------------------------
Magnitude (a.u.)       :      0.76479
Magnitude (Debye)      :      1.94394

Rotational constants in cm-1:     0.016905     0.009076     0.006228
Rotational constants in MHz :   506.801602   272.092487   186.701451

                             ****ORCA TERMINATED NORMALLY****
TOTAL RUN TIME: 0 days 0 hours 0 minutes 21 seconds 334 msec
