                         Program Version 4.2.1 -  RELEASE  -
|  1> ! wB97X-D3 SP def2-SVP
|  2> %pal
|  3> nprocs 24
|  4> end
|  5>
|  6> * xyz 0 1
|  7> S 	 -109.188 	 55.9298 	 -90.9641
|  8> C 	 -110.639 	 56.5829 	 -91.6112
|  9> C 	 -111.804 	 55.8355 	 -91.3381
| 10> C 	 -111.425 	 54.6513 	 -90.7031
| 11> C 	 -110.043 	 54.5291 	 -90.5624
| 12> H 	 -112.172 	 53.9255 	 -90.4543
| 13> C 	 -113.235 	 56.2192 	 -91.6528
| 14> H 	 -113.852 	 55.3672 	 -91.8769
| 15> H 	 -113.254 	 56.7925 	 -92.5545
| 16> C 	 -113.956 	 56.9505 	 -90.5859
| 17> H 	 -114.15 	 56.3326 	 -89.6611
| 18> H 	 -113.271 	 57.6991 	 -90.2356
| 19> C 	 -115.183 	 57.6829 	 -91.0366
| 20> H 	 -115.936 	 57.1676 	 -91.5196
| 21> H 	 -115.723 	 58.1508 	 -90.2331
| 22> H 	 -114.959 	 58.4895 	 -91.753
| 23> S 	 -108.142 	 53.5947 	 -88.8021
| 24> C 	 -107.851 	 51.8455 	 -88.6985
| 25> C 	 -108.736 	 51.1244 	 -89.4182
| 26> C 	 -109.554 	 51.9826 	 -90.2288
| 27> C 	 -109.363 	 53.3334 	 -90.0551
| 28> H 	 -108.664 	 50.0867 	 -89.4755
| 29> C 	 -110.555 	 51.4309 	 -91.2528
| 30> H 	 -111.099 	 52.278 	 -91.8854
| 31> H 	 -111.354 	 50.8635 	 -90.6988
| 32> C 	 -109.853 	 50.5112 	 -92.2615
| 33> H 	 -110.578 	 49.8476 	 -92.8324
| 34> H 	 -109.222 	 49.7353 	 -91.7892
| 35> C 	 -108.921 	 51.258 	 -93.2452
| 36> H 	 -108.577 	 50.7296 	 -94.1165
| 37> H 	 -108.053 	 51.6318 	 -92.7367
| 38> H 	 -109.486 	 52.1289 	 -93.5677
| 39> H 	 -110.763 	 57.3921 	 -92.2345
| 40> H 	 -107.182 	 51.3303 	 -88.0758
| 41> *
| 42>
| 43>                          ****END OF INPUT****

CARTESIAN COORDINATES (ANGSTROEM)
---------------------------------
  S    -109.188000   55.929800  -90.964100
  C    -110.639000   56.582900  -91.611200
  C    -111.804000   55.835500  -91.338100
  C    -111.425000   54.651300  -90.703100
  C    -110.043000   54.529100  -90.562400
  H    -112.172000   53.925500  -90.454300
  C    -113.235000   56.219200  -91.652800
  H    -113.852000   55.367200  -91.876900
  H    -113.254000   56.792500  -92.554500
  C    -113.956000   56.950500  -90.585900
  H    -114.150000   56.332600  -89.661100
  H    -113.271000   57.699100  -90.235600
  C    -115.183000   57.682900  -91.036600
  H    -115.936000   57.167600  -91.519600
  H    -115.723000   58.150800  -90.233100
  H    -114.959000   58.489500  -91.753000
  S    -108.142000   53.594700  -88.802100
  C    -107.851000   51.845500  -88.698500
  C    -108.736000   51.124400  -89.418200
  C    -109.554000   51.982600  -90.228800
  C    -109.363000   53.333400  -90.055100
  H    -108.664000   50.086700  -89.475500
  C    -110.555000   51.430900  -91.252800
  H    -111.099000   52.278000  -91.885400
  H    -111.354000   50.863500  -90.698800
  C    -109.853000   50.511200  -92.261500
  H    -110.578000   49.847600  -92.832400
  H    -109.222000   49.735300  -91.789200
  C    -108.921000   51.258000  -93.245200
  H    -108.577000   50.729600  -94.116500
  H    -108.053000   51.631800  -92.736700
  H    -109.486000   52.128900  -93.567700
  H    -110.763000   57.392100  -92.234500
  H    -107.182000   51.330300  -88.075800

 Total Charge           Charge          ....    0
 Multiplicity           Mult            ....    1
 Number of Electrons    NEL             ....  134
 Basis Dimension        Dim             ....  322

ORBITAL ENERGIES
----------------

  NO   OCC          E(Eh)            E(eV)
   0   2.0000     -88.976334     -2421.1691
   1   2.0000     -88.961593     -2420.7680
   2   2.0000     -10.326453      -280.9971
   3   2.0000     -10.325167      -280.9621
   4   2.0000     -10.312458      -280.6163
   5   2.0000     -10.307266      -280.4750
   6   2.0000     -10.303221      -280.3649
   7   2.0000     -10.301641      -280.3219
   8   2.0000     -10.298950      -280.2487
   9   2.0000     -10.289835      -280.0006
  10   2.0000     -10.288877      -279.9746
  11   2.0000     -10.288558      -279.9659
  12   2.0000     -10.287719      -279.9431
  13   2.0000     -10.283203      -279.8202
  14   2.0000     -10.270569      -279.4764
  15   2.0000     -10.266861      -279.3755
  16   2.0000      -8.092194      -220.1998
  17   2.0000      -8.076025      -219.7598
  18   2.0000      -6.050393      -164.6396
  19   2.0000      -6.046661      -164.5380
  20   2.0000      -6.043109      -164.4414
  21   2.0000      -6.034673      -164.2118
  22   2.0000      -6.030709      -164.1039
  23   2.0000      -6.026524      -163.9901
  24   2.0000      -1.014920       -27.6174
  25   2.0000      -0.987428       -26.8693
  26   2.0000      -0.925141       -25.1744
  27   2.0000      -0.900630       -24.5074
  28   2.0000      -0.873930       -23.7808
  29   2.0000      -0.860419       -23.4132
  30   2.0000      -0.839228       -22.8366
  31   2.0000      -0.816621       -22.2214
  32   2.0000      -0.790505       -21.5107
  33   2.0000      -0.769525       -20.9398
  34   2.0000      -0.708466       -19.2783
  35   2.0000      -0.704145       -19.1608
  36   2.0000      -0.690757       -18.7965
  37   2.0000      -0.660659       -17.9774
  38   2.0000      -0.642465       -17.4824
  39   2.0000      -0.630739       -17.1633
  40   2.0000      -0.592858       -16.1325
  41   2.0000      -0.580063       -15.7843
  42   2.0000      -0.566418       -15.4130
  43   2.0000      -0.552075       -15.0227
  44   2.0000      -0.535035       -14.5590
  45   2.0000      -0.528896       -14.3920
  46   2.0000      -0.522114       -14.2074
  47   2.0000      -0.510855       -13.9011
  48   2.0000      -0.502491       -13.6735
  49   2.0000      -0.497929       -13.5493
  50   2.0000      -0.486340       -13.2340
  51   2.0000      -0.477171       -12.9845
  52   2.0000      -0.469848       -12.7852
  53   2.0000      -0.468068       -12.7368
  54   2.0000      -0.454268       -12.3613
  55   2.0000      -0.452671       -12.3178
  56   2.0000      -0.445520       -12.1232
  57   2.0000      -0.440445       -11.9851
  58   2.0000      -0.439634       -11.9631
  59   2.0000      -0.437162       -11.8958
  60   2.0000      -0.414001       -11.2656
  61   2.0000      -0.411580       -11.1997
  62   2.0000      -0.404135       -10.9971
  63   2.0000      -0.350951        -9.5499
  64   2.0000      -0.340127        -9.2553
  65   2.0000      -0.328292        -8.9333
  66   2.0000      -0.286129        -7.7860
  67   0.0000       0.028806         0.7839
  68   0.0000       0.072936         1.9847
  69   0.0000       0.103657         2.8207
  70   0.0000       0.120691         3.2842
  71   0.0000       0.139528         3.7968

MULLIKEN ATOMIC CHARGES
-----------------------
   0 S :    0.158096
   1 C :   -0.073937
   2 C :   -0.113522
   3 C :    0.031046
   4 C :   -0.151963
   5 H :    0.004635
   6 C :    0.100498
   7 H :    0.013308
   8 H :    0.006651
   9 C :   -0.059051
  10 H :    0.034398
  11 H :    0.017516
  12 C :   -0.016820
  13 H :    0.004822
  14 H :    0.025005
  15 H :    0.022790
  16 S :    0.076214
  17 C :   -0.051217
  18 C :   -0.010392
  19 C :   -0.047086
  20 C :   -0.123519
  21 H :    0.002756
  22 C :    0.006191
  23 H :    0.059579
  24 H :    0.045007
  25 C :   -0.110145
  26 H :    0.030710
  27 H :    0.023693
  28 C :   -0.028084
  29 H :    0.033024
  30 H :    0.034650
  31 H :    0.019529
  32 H :    0.004173
  33 H :    0.031446
Sum of atomic charges:   -0.0000000

LOEWDIN ATOMIC CHARGES
----------------------
   0 S :    0.463919
   1 C :   -0.201258
   2 C :   -0.052685
   3 C :   -0.056429
   4 C :   -0.216998
   5 H :    0.028962
   6 C :   -0.029833
   7 H :    0.028295
   8 H :    0.028180
   9 C :   -0.043972
  10 H :    0.030480
  11 H :    0.023692
  12 C :   -0.063697
  13 H :    0.012571
  14 H :    0.028826
  15 H :    0.028622
  16 S :    0.368600
  17 C :   -0.159842
  18 C :   -0.060303
  19 C :   -0.062343
  20 C :   -0.186914
  21 H :    0.024414
  22 C :   -0.041824
  23 H :    0.043956
  24 H :    0.035514
  25 C :   -0.053192
  26 H :    0.026118
  27 H :    0.018981
  28 C :   -0.063550
  29 H :    0.024022
  30 H :    0.024766
  31 H :    0.023470
  32 H :    0.008663
  33 H :    0.020788

  Mayer bond orders larger than 0.100000
B(  0-S ,  1-C ) :   1.1587 B(  0-S ,  4-C ) :   1.1892 B(  1-C ,  2-C ) :   1.5705
B(  1-C ,  4-C ) :   0.1049 B(  1-C , 32-H ) :   0.9705 B(  2-C ,  3-C ) :   1.3026
B(  2-C ,  6-C ) :   1.0330 B(  3-C ,  4-C ) :   1.4989 B(  3-C ,  5-H ) :   1.0015
B(  4-C , 20-C ) :   1.0243 B(  6-C ,  7-H ) :   0.9314 B(  6-C ,  8-H ) :   0.9324
B(  6-C ,  9-C ) :   1.0709 B(  9-C , 10-H ) :   0.9497 B(  9-C , 11-H ) :   0.9500
B(  9-C , 12-C ) :   1.0908 B( 12-C , 13-H ) :   0.9727 B( 12-C , 14-H ) :   0.9689
B( 12-C , 15-H ) :   0.9700 B( 16-S , 17-C ) :   1.1290 B( 16-S , 20-C ) :   1.1125
B( 17-C , 18-C ) :   1.6615 B( 17-C , 33-H ) :   0.9675 B( 18-C , 19-C ) :   1.2008
B( 18-C , 21-H ) :   0.9963 B( 19-C , 20-C ) :   1.6548 B( 19-C , 22-C ) :   1.0248
B( 22-C , 23-H ) :   0.9425 B( 22-C , 24-H ) :   0.9350 B( 22-C , 25-C ) :   1.0633
B( 25-C , 26-H ) :   0.9570 B( 25-C , 27-H ) :   0.9578 B( 25-C , 28-C ) :   1.0612
B( 28-C , 29-H ) :   0.9763 B( 28-C , 30-H ) :   0.9748 B( 28-C , 31-H ) :   0.9753

Dispersion correction           -0.014372423
FINAL SINGLE POINT ENERGY     -1339.867855283093

DIPOLE MOMENT
-------------
                                X             Y             Z
Electronic contribution:     20.94286       3.24492      12.42347
Nuclear contribution   :    -21.48456      -3.44948     -12.66999
                        -----------------------------------------
Total Dipole Moment    :     -0.54170      -0.20457      -0.24652
                        -----------------------------------------
Magnitude (a.u.)       :      0.62933
Magnitude (Debye)      :      1.59964

Rotational constants in cm-1:     0.021644     0.007618     0.006718
Rotational constants in MHz :   648.881522   228.381461   201.410529

                             ****ORCA TERMINATED NORMALLY****
TOTAL RUN TIME: 0 days 0 hours 0 minutes 21 seconds 835 msec
