                         Program Version 4.2.1 -  RELEASE  -
|  1> ! wB97X-D3 SP def2-SVP
|  2> %pal
|  3> nprocs 24
|  4> end
|  5>
|  6> * xyz 0 1
|  7> S 	 -54.1258 	 17.5541 	 -87.8625
|  8> C 	 -55.3532 	 18.2034 	 -88.8831
|  9> C 	 -55.8121 	 19.3644 	 -88.3904
| 10> C 	 -55.1266 	 19.8407 	 -87.2238
| 11> C 	 -54.1322 	 19.0128 	 -86.8935
| 12> H 	 -55.3267 	 20.772 	 -86.5999
| 13> C 	 -56.9399 	 20.2013 	 -89.0072
| 14> H 	 -57.4651 	 20.7396 	 -88.2398
| 15> H 	 -57.7375 	 19.5099 	 -89.3514
| 16> C 	 -56.3487 	 21.0676 	 -90.0939
| 17> H 	 -55.6486 	 21.7324 	 -89.5768
| 18> H 	 -55.8337 	 20.5537 	 -90.9055
| 19> C 	 -57.4209 	 21.8696 	 -90.9495
| 20> H 	 -57.9202 	 22.662 	 -90.4295
| 21> H 	 -56.8303 	 22.2517 	 -91.7725
| 22> H 	 -58.0812 	 21.2072 	 -91.4485
| 23> S 	 -53.5304 	 17.9021 	 -84.3012
| 24> C 	 -52.6068 	 18.8853 	 -83.1716
| 25> C 	 -52.0775 	 19.9684 	 -83.8014
| 26> C 	 -52.5931 	 20.1543 	 -85.1506
| 27> C 	 -53.403 	 19.0764 	 -85.6079
| 28> H 	 -51.4754 	 20.6816 	 -83.2447
| 29> C 	 -52.2637 	 21.4058 	 -85.9588
| 30> H 	 -52.6009 	 21.2362 	 -86.9618
| 31> H 	 -51.1398 	 21.3797 	 -85.9059
| 32> C 	 -52.7503 	 22.758 	 -85.3643
| 33> H 	 -52.4731 	 23.0611 	 -84.4341
| 34> H 	 -53.8355 	 22.8411 	 -85.3896
| 35> C 	 -52.3436 	 23.8326 	 -86.3858
| 36> H 	 -51.4259 	 24.3995 	 -86.2354
| 37> H 	 -53.0749 	 24.5705 	 -86.1717
| 38> H 	 -52.4649 	 23.4147 	 -87.4653
| 39> H 	 -55.7586 	 17.7337 	 -89.7391
| 40> H 	 -52.4068 	 18.6285 	 -82.1577
| 41> *
| 42>
| 43>                          ****END OF INPUT****

CARTESIAN COORDINATES (ANGSTROEM)
---------------------------------
  S    -54.125800   17.554100  -87.862500
  C    -55.353200   18.203400  -88.883100
  C    -55.812100   19.364400  -88.390400
  C    -55.126600   19.840700  -87.223800
  C    -54.132200   19.012800  -86.893500
  H    -55.326700   20.772000  -86.599900
  C    -56.939900   20.201300  -89.007200
  H    -57.465100   20.739600  -88.239800
  H    -57.737500   19.509900  -89.351400
  C    -56.348700   21.067600  -90.093900
  H    -55.648600   21.732400  -89.576800
  H    -55.833700   20.553700  -90.905500
  C    -57.420900   21.869600  -90.949500
  H    -57.920200   22.662000  -90.429500
  H    -56.830300   22.251700  -91.772500
  H    -58.081200   21.207200  -91.448500
  S    -53.530400   17.902100  -84.301200
  C    -52.606800   18.885300  -83.171600
  C    -52.077500   19.968400  -83.801400
  C    -52.593100   20.154300  -85.150600
  C    -53.403000   19.076400  -85.607900
  H    -51.475400   20.681600  -83.244700
  C    -52.263700   21.405800  -85.958800
  H    -52.600900   21.236200  -86.961800
  H    -51.139800   21.379700  -85.905900
  C    -52.750300   22.758000  -85.364300
  H    -52.473100   23.061100  -84.434100
  H    -53.835500   22.841100  -85.389600
  C    -52.343600   23.832600  -86.385800
  H    -51.425900   24.399500  -86.235400
  H    -53.074900   24.570500  -86.171700
  H    -52.464900   23.414700  -87.465300
  H    -55.758600   17.733700  -89.739100
  H    -52.406800   18.628500  -82.157700

 Total Charge           Charge          ....    0
 Multiplicity           Mult            ....    1
 Number of Electrons    NEL             ....  134
 Basis Dimension        Dim             ....  322

ORBITAL ENERGIES
----------------

  NO   OCC          E(Eh)            E(eV)
   0   2.0000     -88.963756     -2420.8269
   1   2.0000     -88.962011     -2420.7794
   2   2.0000     -10.327487      -281.0252
   3   2.0000     -10.326022      -280.9854
   4   2.0000     -10.314913      -280.6830
   5   2.0000     -10.306129      -280.4440
   6   2.0000     -10.303318      -280.3675
   7   2.0000     -10.296026      -280.1691
   8   2.0000     -10.295762      -280.1619
   9   2.0000     -10.293349      -280.0963
  10   2.0000     -10.292669      -280.0777
  11   2.0000     -10.289754      -279.9984
  12   2.0000     -10.289370      -279.9880
  13   2.0000     -10.283306      -279.8230
  14   2.0000     -10.278894      -279.7029
  15   2.0000     -10.274136      -279.5735
  16   2.0000      -8.079298      -219.8489
  17   2.0000      -8.076310      -219.7676
  18   2.0000      -6.037831      -164.2977
  19   2.0000      -6.035055      -164.2222
  20   2.0000      -6.033800      -164.1880
  21   2.0000      -6.030748      -164.1050
  22   2.0000      -6.029867      -164.0810
  23   2.0000      -6.026979      -164.0024
  24   2.0000      -1.010628       -27.5006
  25   2.0000      -0.982532       -26.7361
  26   2.0000      -0.910267       -24.7696
  27   2.0000      -0.908745       -24.7282
  28   2.0000      -0.871541       -23.7158
  29   2.0000      -0.849708       -23.1217
  30   2.0000      -0.844792       -22.9880
  31   2.0000      -0.819743       -22.3063
  32   2.0000      -0.781743       -21.2723
  33   2.0000      -0.765118       -20.8199
  34   2.0000      -0.705407       -19.1951
  35   2.0000      -0.700876       -19.0718
  36   2.0000      -0.699366       -19.0307
  37   2.0000      -0.654049       -17.7976
  38   2.0000      -0.644392       -17.5348
  39   2.0000      -0.616660       -16.7802
  40   2.0000      -0.596378       -16.2283
  41   2.0000      -0.572562       -15.5802
  42   2.0000      -0.565523       -15.3887
  43   2.0000      -0.560698       -15.2574
  44   2.0000      -0.532014       -14.4768
  45   2.0000      -0.527451       -14.3527
  46   2.0000      -0.517555       -14.0834
  47   2.0000      -0.513790       -13.9809
  48   2.0000      -0.502905       -13.6847
  49   2.0000      -0.501040       -13.6340
  50   2.0000      -0.494319       -13.4511
  51   2.0000      -0.478358       -13.0168
  52   2.0000      -0.472901       -12.8683
  53   2.0000      -0.462554       -12.5867
  54   2.0000      -0.454881       -12.3779
  55   2.0000      -0.451818       -12.2946
  56   2.0000      -0.443533       -12.0691
  57   2.0000      -0.440562       -11.9883
  58   2.0000      -0.437207       -11.8970
  59   2.0000      -0.425082       -11.5671
  60   2.0000      -0.418603       -11.3908
  61   2.0000      -0.409831       -11.1521
  62   2.0000      -0.404433       -11.0052
  63   2.0000      -0.351654        -9.5690
  64   2.0000      -0.329672        -8.9708
  65   2.0000      -0.323207        -8.7949
  66   2.0000      -0.295765        -8.0482
  67   0.0000       0.040454         1.1008
  68   0.0000       0.069426         1.8892
  69   0.0000       0.117280         3.1913
  70   0.0000       0.120293         3.2733
  71   0.0000       0.133725         3.6388

MULLIKEN ATOMIC CHARGES
-----------------------
   0 S :    0.106423
   1 C :   -0.089385
   2 C :   -0.106356
   3 C :    0.008561
   4 C :   -0.166734
   5 H :    0.048206
   6 C :    0.088610
   7 H :    0.016515
   8 H :    0.018472
   9 C :   -0.091032
  10 H :    0.027655
  11 H :    0.032439
  12 C :   -0.018033
  13 H :    0.036262
  14 H :    0.022627
  15 H :    0.020415
  16 S :    0.098632
  17 C :   -0.090304
  18 C :   -0.010021
  19 C :   -0.077039
  20 C :   -0.124868
  21 H :    0.020404
  22 C :    0.046179
  23 H :    0.027074
  24 H :    0.045077
  25 C :   -0.021259
  26 H :    0.004678
  27 H :    0.020837
  28 C :   -0.071354
  29 H :    0.039371
  30 H :    0.012912
  31 H :    0.046992
  32 H :    0.027877
  33 H :    0.050166
Sum of atomic charges:    0.0000000

LOEWDIN ATOMIC CHARGES
----------------------
   0 S :    0.409116
   1 C :   -0.192792
   2 C :   -0.062987
   3 C :   -0.066532
   4 C :   -0.190772
   5 H :    0.049191
   6 C :   -0.034149
   7 H :    0.026647
   8 H :    0.028643
   9 C :   -0.035963
  10 H :    0.025104
  11 H :    0.026977
  12 C :   -0.060892
  13 H :    0.019642
  14 H :    0.026774
  15 H :    0.019427
  16 S :    0.389545
  17 C :   -0.174187
  18 C :   -0.074778
  19 C :   -0.056519
  20 C :   -0.207448
  21 H :    0.031453
  22 C :   -0.032381
  23 H :    0.025623
  24 H :    0.042560
  25 C :   -0.026506
  26 H :    0.010544
  27 H :    0.023904
  28 C :   -0.069949
  29 H :    0.023098
  30 H :    0.019591
  31 H :    0.037488
  32 H :    0.023762
  33 H :    0.026765

  Mayer bond orders larger than 0.100000
B(  0-S ,  1-C ) :   1.1216 B(  0-S ,  4-C ) :   1.1458 B(  1-C ,  2-C ) :   1.6546
B(  1-C , 32-H ) :   0.9740 B(  2-C ,  3-C ) :   1.2150 B(  2-C ,  6-C ) :   1.0193
B(  3-C ,  4-C ) :   1.6075 B(  3-C ,  5-H ) :   0.9825 B(  4-C , 20-C ) :   1.0199
B(  6-C ,  7-H ) :   0.9407 B(  6-C ,  8-H ) :   0.9397 B(  6-C ,  9-C ) :   1.0595
B(  9-C , 10-H ) :   0.9555 B(  9-C , 11-H ) :   0.9646 B(  9-C , 12-C ) :   1.0739
B( 12-C , 13-H ) :   0.9783 B( 12-C , 14-H ) :   0.9774 B( 12-C , 15-H ) :   0.9750
B( 16-S , 17-C ) :   1.1505 B( 16-S , 20-C ) :   1.1224 B( 17-C , 18-C ) :   1.6250
B( 17-C , 33-H ) :   0.9696 B( 18-C , 19-C ) :   1.2293 B( 18-C , 21-H ) :   0.9875
B( 19-C , 20-C ) :   1.5970 B( 19-C , 22-C ) :   1.0460 B( 22-C , 23-H ) :   0.9313
B( 22-C , 24-H ) :   0.9367 B( 22-C , 25-C ) :   1.0698 B( 25-C , 26-H ) :   0.9527
B( 25-C , 27-H ) :   0.9623 B( 25-C , 28-C ) :   1.0706 B( 28-C , 29-H ) :   0.9765
B( 28-C , 30-H ) :   0.9783 B( 28-C , 31-H ) :   0.9726

Dispersion correction           -0.013986963
FINAL SINGLE POINT ENERGY     -1339.859654696044

DIPOLE MOMENT
-------------
                                X             Y             Z
Electronic contribution:      6.24224     -28.45613      13.58500
Nuclear contribution   :     -6.45894      29.19669     -13.64199
                        -----------------------------------------
Total Dipole Moment    :     -0.21669       0.74056      -0.05699
                        -----------------------------------------
Magnitude (a.u.)       :      0.77371
Magnitude (Debye)      :      1.96661

Rotational constants in cm-1:     0.017456     0.008924     0.006387
Rotational constants in MHz :   523.303638   267.521623   191.489973

                             ****ORCA TERMINATED NORMALLY****
TOTAL RUN TIME: 0 days 0 hours 0 minutes 21 seconds 385 msec
