                         Program Version 4.2.1 -  RELEASE  -
|  1> ! wB97X-D3 SP def2-SVP
|  2> %pal
|  3> nprocs 24
|  4> end
|  5>
|  6> * xyz 0 1
|  7> S 	 -107.057 	 60.6904 	 -96.6994
|  8> C 	 -105.626 	 60.6212 	 -95.6571
|  9> C 	 -105.248 	 59.3387 	 -95.3655
| 10> C 	 -106.217 	 58.3954 	 -95.8182
| 11> C 	 -107.18 	 58.9502 	 -96.678
| 12> H 	 -106.124 	 57.2839 	 -95.6183
| 13> C 	 -104.043 	 59.0144 	 -94.5692
| 14> H 	 -104.355 	 58.2139 	 -93.89
| 15> H 	 -103.749 	 59.8956 	 -94.005
| 16> C 	 -102.842 	 58.38 	 -95.3235
| 17> H 	 -102.052 	 58.1858 	 -94.6053
| 18> H 	 -103.172 	 57.3741 	 -95.5865
| 19> C 	 -102.221 	 59.3889 	 -96.331
| 20> H 	 -101.256 	 58.9968 	 -96.7865
| 21> H 	 -102.948 	 59.7667 	 -97.0461
| 22> H 	 -101.839 	 60.1659 	 -95.6981
| 23> S 	 -108.213 	 58.8704 	 -99.2319
| 24> C 	 -109.329 	 57.5726 	 -99.6768
| 25> C 	 -109.576 	 56.7143 	 -98.5814
| 26> C 	 -108.87 	 57.1322 	 -97.3946
| 27> C 	 -108.138 	 58.2956 	 -97.5413
| 28> H 	 -110.301 	 55.971 	 -98.7102
| 29> C 	 -108.982 	 56.2898 	 -96.1246
| 30> H 	 -108.061 	 56.0084 	 -95.6217
| 31> H 	 -109.464 	 55.3907 	 -96.4724
| 32> C 	 -109.852 	 56.9013 	 -95.0522
| 33> H 	 -110.835 	 57.1067 	 -95.4643
| 34> H 	 -109.456 	 57.8982 	 -94.6969
| 35> C 	 -110.105 	 55.9276 	 -93.8475
| 36> H 	 -109.315 	 55.262 	 -93.5825
| 37> H 	 -110.976 	 55.3815 	 -93.9912
| 38> H 	 -110.259 	 56.587 	 -93.0076
| 39> H 	 -104.927 	 61.4254 	 -95.4078
| 40> H 	 -109.819 	 57.4669 	 -100.61
| 41> *
| 42>
| 43>                          ****END OF INPUT****

CARTESIAN COORDINATES (ANGSTROEM)
---------------------------------
  S    -107.057000   60.690400  -96.699400
  C    -105.626000   60.621200  -95.657100
  C    -105.248000   59.338700  -95.365500
  C    -106.217000   58.395400  -95.818200
  C    -107.180000   58.950200  -96.678000
  H    -106.124000   57.283900  -95.618300
  C    -104.043000   59.014400  -94.569200
  H    -104.355000   58.213900  -93.890000
  H    -103.749000   59.895600  -94.005000
  C    -102.842000   58.380000  -95.323500
  H    -102.052000   58.185800  -94.605300
  H    -103.172000   57.374100  -95.586500
  C    -102.221000   59.388900  -96.331000
  H    -101.256000   58.996800  -96.786500
  H    -102.948000   59.766700  -97.046100
  H    -101.839000   60.165900  -95.698100
  S    -108.213000   58.870400  -99.231900
  C    -109.329000   57.572600  -99.676800
  C    -109.576000   56.714300  -98.581400
  C    -108.870000   57.132200  -97.394600
  C    -108.138000   58.295600  -97.541300
  H    -110.301000   55.971000  -98.710200
  C    -108.982000   56.289800  -96.124600
  H    -108.061000   56.008400  -95.621700
  H    -109.464000   55.390700  -96.472400
  C    -109.852000   56.901300  -95.052200
  H    -110.835000   57.106700  -95.464300
  H    -109.456000   57.898200  -94.696900
  C    -110.105000   55.927600  -93.847500
  H    -109.315000   55.262000  -93.582500
  H    -110.976000   55.381500  -93.991200
  H    -110.259000   56.587000  -93.007600
  H    -104.927000   61.425400  -95.407800
  H    -109.819000   57.466900  -100.610000

 Total Charge           Charge          ....    0
 Multiplicity           Mult            ....    1
 Number of Electrons    NEL             ....  134
 Basis Dimension        Dim             ....  322

ORBITAL ENERGIES
----------------

  NO   OCC          E(Eh)            E(eV)
   0   2.0000     -88.969118     -2420.9728
   1   2.0000     -88.967350     -2420.9247
   2   2.0000     -10.334079      -281.2046
   3   2.0000     -10.329148      -281.0704
   4   2.0000     -10.321242      -280.8553
   5   2.0000     -10.311734      -280.5966
   6   2.0000     -10.306235      -280.4469
   7   2.0000     -10.301677      -280.3229
   8   2.0000     -10.297266      -280.2028
   9   2.0000     -10.296864      -280.1919
  10   2.0000     -10.290770      -280.0261
  11   2.0000     -10.289639      -279.9953
  12   2.0000     -10.288326      -279.9596
  13   2.0000     -10.285112      -279.8721
  14   2.0000     -10.281952      -279.7861
  15   2.0000     -10.268201      -279.4120
  16   2.0000      -8.083392      -219.9603
  17   2.0000      -8.081128      -219.8987
  18   2.0000      -6.041959      -164.4101
  19   2.0000      -6.039766      -164.3504
  20   2.0000      -6.037987      -164.3020
  21   2.0000      -6.035711      -164.2400
  22   2.0000      -6.034096      -164.1961
  23   2.0000      -6.031850      -164.1350
  24   2.0000      -1.004452       -27.3325
  25   2.0000      -0.979479       -26.6530
  26   2.0000      -0.914769       -24.8921
  27   2.0000      -0.907524       -24.6950
  28   2.0000      -0.868046       -23.6207
  29   2.0000      -0.849299       -23.1106
  30   2.0000      -0.842676       -22.9304
  31   2.0000      -0.811625       -22.0854
  32   2.0000      -0.784640       -21.3511
  33   2.0000      -0.775673       -21.1071
  34   2.0000      -0.713770       -19.4227
  35   2.0000      -0.698465       -19.0062
  36   2.0000      -0.690022       -18.7765
  37   2.0000      -0.667739       -18.1701
  38   2.0000      -0.631301       -17.1786
  39   2.0000      -0.620111       -16.8741
  40   2.0000      -0.596504       -16.2317
  41   2.0000      -0.569555       -15.4984
  42   2.0000      -0.562661       -15.3108
  43   2.0000      -0.550742       -14.9865
  44   2.0000      -0.546417       -14.8688
  45   2.0000      -0.524145       -14.2627
  46   2.0000      -0.516081       -14.0433
  47   2.0000      -0.507266       -13.8034
  48   2.0000      -0.500207       -13.6113
  49   2.0000      -0.495596       -13.4859
  50   2.0000      -0.492890       -13.4122
  51   2.0000      -0.485236       -13.2039
  52   2.0000      -0.469422       -12.7736
  53   2.0000      -0.465024       -12.6540
  54   2.0000      -0.461756       -12.5650
  55   2.0000      -0.448670       -12.2089
  56   2.0000      -0.442008       -12.0276
  57   2.0000      -0.436940       -11.8897
  58   2.0000      -0.435210       -11.8427
  59   2.0000      -0.427224       -11.6254
  60   2.0000      -0.416497       -11.3335
  61   2.0000      -0.416317       -11.3286
  62   2.0000      -0.412937       -11.2366
  63   2.0000      -0.349400        -9.5077
  64   2.0000      -0.331557        -9.0221
  65   2.0000      -0.331315        -9.0155
  66   2.0000      -0.286680        -7.8010
  67   0.0000       0.021556         0.5866
  68   0.0000       0.069235         1.8840
  69   0.0000       0.107723         2.9313
  70   0.0000       0.112705         3.0669
  71   0.0000       0.130214         3.5433

MULLIKEN ATOMIC CHARGES
-----------------------
   0 S :    0.110080
   1 C :   -0.114381
   2 C :   -0.102922
   3 C :    0.009953
   4 C :   -0.152224
   5 H :    0.031201
   6 C :    0.042365
   7 H :    0.026004
   8 H :    0.020888
   9 C :   -0.057356
  10 H :    0.024257
  11 H :    0.024087
  12 C :   -0.055529
  13 H :    0.043176
  14 H :    0.059521
  15 H :    0.017450
  16 S :    0.098747
  17 C :   -0.087824
  18 C :   -0.021322
  19 C :   -0.039992
  20 C :   -0.117940
  21 H :    0.005578
  22 C :    0.088227
  23 H :    0.024323
  24 H :    0.006086
  25 C :   -0.109767
  26 H :    0.021015
  27 H :    0.048088
  28 C :   -0.007635
  29 H :    0.021650
  30 H :    0.021499
  31 H :    0.026516
  32 H :    0.046878
  33 H :    0.049301
Sum of atomic charges:    0.0000000

LOEWDIN ATOMIC CHARGES
----------------------
   0 S :    0.402066
   1 C :   -0.200671
   2 C :   -0.066901
   3 C :   -0.068564
   4 C :   -0.191273
   5 H :    0.038260
   6 C :   -0.032155
   7 H :    0.035241
   8 H :    0.027595
   9 C :   -0.038365
  10 H :    0.024284
  11 H :    0.019798
  12 C :   -0.067676
  13 H :    0.034485
  14 H :    0.027785
  15 H :    0.022994
  16 S :    0.387473
  17 C :   -0.171737
  18 C :   -0.062252
  19 C :   -0.051333
  20 C :   -0.190308
  21 H :    0.023535
  22 C :   -0.031114
  23 H :    0.025602
  24 H :    0.027549
  25 C :   -0.037293
  26 H :    0.022011
  27 H :    0.029235
  28 C :   -0.058391
  29 H :    0.019167
  30 H :    0.016880
  31 H :    0.029702
  32 H :    0.031030
  33 H :    0.023342

  Mayer bond orders larger than 0.100000
B(  0-S ,  1-C ) :   1.1161 B(  0-S ,  4-C ) :   1.1549 B(  1-C ,  2-C ) :   1.6302
B(  1-C , 32-H ) :   0.9585 B(  2-C ,  3-C ) :   1.2466 B(  2-C ,  6-C ) :   1.0334
B(  3-C ,  4-C ) :   1.5554 B(  3-C ,  5-H ) :   0.9760 B(  4-C , 20-C ) :   1.0605
B(  6-C ,  7-H ) :   0.9331 B(  6-C ,  8-H ) :   0.9437 B(  6-C ,  9-C ) :   1.0763
B(  9-C , 10-H ) :   0.9557 B(  9-C , 11-H ) :   0.9586 B(  9-C , 12-C ) :   1.0549
B( 12-C , 13-H ) :   0.9747 B( 12-C , 14-H ) :   0.9802 B( 12-C , 15-H ) :   0.9714
B( 16-S , 17-C ) :   1.1553 B( 16-S , 20-C ) :   1.1202 B( 17-C , 18-C ) :   1.6090
B( 17-C , 20-C ) :   0.1018 B( 17-C , 33-H ) :   0.9702 B( 18-C , 19-C ) :   1.2347
B( 18-C , 21-H ) :   0.9959 B( 19-C , 20-C ) :   1.6032 B( 19-C , 22-C ) :   1.0402
B( 22-C , 23-H ) :   0.9351 B( 22-C , 24-H ) :   0.9293 B( 22-C , 25-C ) :   1.0721
B( 25-C , 26-H ) :   0.9535 B( 25-C , 27-H ) :   0.9636 B( 25-C , 28-C ) :   1.0673
B( 28-C , 29-H ) :   0.9774 B( 28-C , 30-H ) :   0.9787 B( 28-C , 31-H ) :   0.9752

Dispersion correction           -0.014238240
FINAL SINGLE POINT ENERGY     -1339.875246868137

DIPOLE MOMENT
-------------
                                X             Y             Z
Electronic contribution:     -8.97148      12.89817     -17.69789
Nuclear contribution   :      9.13105     -13.41093      18.04812
                        -----------------------------------------
Total Dipole Moment    :      0.15957      -0.51275       0.35023
                        -----------------------------------------
Magnitude (a.u.)       :      0.64113
Magnitude (Debye)      :      1.62961

Rotational constants in cm-1:     0.017806     0.008743     0.007069
Rotational constants in MHz :   533.820789   262.105350   211.935135

                             ****ORCA TERMINATED NORMALLY****
TOTAL RUN TIME: 0 days 0 hours 0 minutes 21 seconds 590 msec
