                         Program Version 4.2.1 -  RELEASE  -
|  1> ! wB97X-D3 SP def2-SVP
|  2> %pal
|  3> nprocs 24
|  4> end
|  5>
|  6> * xyz 0 1
|  7> S 	 -89.6915 	 -5.38513 	 -114.113
|  8> C 	 -88.5378 	 -5.01752 	 -115.361
|  9> C 	 -89.045 	 -4.71412 	 -116.596
| 10> C 	 -90.5256 	 -4.74051 	 -116.526
| 11> C 	 -91.0005 	 -4.91869 	 -115.223
| 12> H 	 -91.2751 	 -4.64871 	 -117.308
| 13> C 	 -88.2465 	 -4.65502 	 -117.887
| 14> H 	 -88.0021 	 -5.70408 	 -118.203
| 15> H 	 -87.3094 	 -4.21004 	 -117.626
| 16> C 	 -88.8499 	 -3.96059 	 -119.111
| 17> H 	 -89.1854 	 -4.7466 	 -119.796
| 18> H 	 -89.7093 	 -3.28681 	 -118.865
| 19> C 	 -87.8825 	 -3.02046 	 -119.745
| 20> H 	 -88.3211 	 -2.79778 	 -120.731
| 21> H 	 -87.8251 	 -2.13272 	 -119.258
| 22> H 	 -86.8904 	 -3.35688 	 -119.775
| 23> S 	 -93.0929 	 -6.47218 	 -114.118
| 24> C 	 -94.6984 	 -5.91246 	 -114.192
| 25> C 	 -94.7998 	 -4.72447 	 -114.828
| 26> C 	 -93.4857 	 -4.17541 	 -115.119
| 27> C 	 -92.3861 	 -4.96564 	 -114.776
| 28> H 	 -95.8 	 -4.18542 	 -114.893
| 29> C 	 -93.2983 	 -2.88069 	 -115.877
| 30> H 	 -92.255 	 -2.53224 	 -115.668
| 31> H 	 -93.8959 	 -2.14693 	 -115.34
| 32> C 	 -93.5314 	 -2.79047 	 -117.392
| 33> H 	 -92.6156 	 -3.10119 	 -117.877
| 34> H 	 -93.7076 	 -1.77931 	 -117.722
| 35> C 	 -94.5319 	 -3.83821 	 -117.906
| 36> H 	 -95.5825 	 -3.6697 	 -117.7
| 37> H 	 -94.1926 	 -4.79159 	 -117.684
| 38> H 	 -94.5407 	 -3.85062 	 -118.994
| 39> H 	 -87.4834 	 -5.01448 	 -115.148
| 40> H 	 -95.5408 	 -6.47625 	 -113.91
| 41> *
| 42>
| 43>                          ****END OF INPUT****

CARTESIAN COORDINATES (ANGSTROEM)
---------------------------------
  S    -89.691500   -5.385130  -114.113000
  C    -88.537800   -5.017520  -115.361000
  C    -89.045000   -4.714120  -116.596000
  C    -90.525600   -4.740510  -116.526000
  C    -91.000500   -4.918690  -115.223000
  H    -91.275100   -4.648710  -117.308000
  C    -88.246500   -4.655020  -117.887000
  H    -88.002100   -5.704080  -118.203000
  H    -87.309400   -4.210040  -117.626000
  C    -88.849900   -3.960590  -119.111000
  H    -89.185400   -4.746600  -119.796000
  H    -89.709300   -3.286810  -118.865000
  C    -87.882500   -3.020460  -119.745000
  H    -88.321100   -2.797780  -120.731000
  H    -87.825100   -2.132720  -119.258000
  H    -86.890400   -3.356880  -119.775000
  S    -93.092900   -6.472180  -114.118000
  C    -94.698400   -5.912460  -114.192000
  C    -94.799800   -4.724470  -114.828000
  C    -93.485700   -4.175410  -115.119000
  C    -92.386100   -4.965640  -114.776000
  H    -95.800000   -4.185420  -114.893000
  C    -93.298300   -2.880690  -115.877000
  H    -92.255000   -2.532240  -115.668000
  H    -93.895900   -2.146930  -115.340000
  C    -93.531400   -2.790470  -117.392000
  H    -92.615600   -3.101190  -117.877000
  H    -93.707600   -1.779310  -117.722000
  C    -94.531900   -3.838210  -117.906000
  H    -95.582500   -3.669700  -117.700000
  H    -94.192600   -4.791590  -117.684000
  H    -94.540700   -3.850620  -118.994000
  H    -87.483400   -5.014480  -115.148000
  H    -95.540800   -6.476250  -113.910000

 Total Charge           Charge          ....    0
 Multiplicity           Mult            ....    1
 Number of Electrons    NEL             ....  134
 Basis Dimension        Dim             ....  322

ORBITAL ENERGIES
----------------

  NO   OCC          E(Eh)            E(eV)
   0   2.0000     -88.966040     -2420.8890
   1   2.0000     -88.959528     -2420.7118
   2   2.0000     -10.333677      -281.1936
   3   2.0000     -10.326976      -281.0113
   4   2.0000     -10.312546      -280.6186
   5   2.0000     -10.310612      -280.5660
   6   2.0000     -10.307699      -280.4868
   7   2.0000     -10.305005      -280.4134
   8   2.0000     -10.303888      -280.3830
   9   2.0000     -10.296314      -280.1769
  10   2.0000     -10.295206      -280.1468
  11   2.0000     -10.287917      -279.9484
  12   2.0000     -10.285267      -279.8764
  13   2.0000     -10.284837      -279.8646
  14   2.0000     -10.268286      -279.4143
  15   2.0000     -10.265850      -279.3480
  16   2.0000      -8.080817      -219.8902
  17   2.0000      -8.074936      -219.7302
  18   2.0000      -6.039341      -164.3388
  19   2.0000      -6.035517      -164.2348
  20   2.0000      -6.033521      -164.1805
  21   2.0000      -6.031358      -164.1216
  22   2.0000      -6.029301      -164.0656
  23   2.0000      -6.025594      -163.9648
  24   2.0000      -1.003634       -27.3103
  25   2.0000      -0.982758       -26.7422
  26   2.0000      -0.918012       -24.9804
  27   2.0000      -0.907451       -24.6930
  28   2.0000      -0.875074       -23.8120
  29   2.0000      -0.851696       -23.1758
  30   2.0000      -0.841497       -22.8983
  31   2.0000      -0.817446       -22.2438
  32   2.0000      -0.786180       -21.3930
  33   2.0000      -0.775630       -21.1060
  34   2.0000      -0.714646       -19.4465
  35   2.0000      -0.699783       -19.0421
  36   2.0000      -0.689223       -18.7547
  37   2.0000      -0.655859       -17.8468
  38   2.0000      -0.643292       -17.5049
  39   2.0000      -0.615779       -16.7562
  40   2.0000      -0.586425       -15.9574
  41   2.0000      -0.575194       -15.6518
  42   2.0000      -0.563598       -15.3363
  43   2.0000      -0.562733       -15.3127
  44   2.0000      -0.540918       -14.7191
  45   2.0000      -0.533665       -14.5217
  46   2.0000      -0.523362       -14.2414
  47   2.0000      -0.512175       -13.9370
  48   2.0000      -0.502118       -13.6633
  49   2.0000      -0.492915       -13.4129
  50   2.0000      -0.489793       -13.3279
  51   2.0000      -0.485150       -13.2016
  52   2.0000      -0.475729       -12.9452
  53   2.0000      -0.468454       -12.7473
  54   2.0000      -0.461572       -12.5600
  55   2.0000      -0.444793       -12.1034
  56   2.0000      -0.443185       -12.0597
  57   2.0000      -0.435702       -11.8561
  58   2.0000      -0.433055       -11.7840
  59   2.0000      -0.427084       -11.6215
  60   2.0000      -0.415652       -11.3105
  61   2.0000      -0.415238       -11.2992
  62   2.0000      -0.405447       -11.0328
  63   2.0000      -0.349463        -9.5094
  64   2.0000      -0.328399        -8.9362
  65   2.0000      -0.324434        -8.8283
  66   2.0000      -0.294292        -8.0081
  67   0.0000       0.029285         0.7969
  68   0.0000       0.069007         1.8778
  69   0.0000       0.109899         2.9905
  70   0.0000       0.122093         3.3223
  71   0.0000       0.122394         3.3305

MULLIKEN ATOMIC CHARGES
-----------------------
   0 S :    0.110675
   1 C :   -0.110849
   2 C :   -0.085437
   3 C :    0.029806
   4 C :   -0.176206
   5 H :    0.015889
   6 C :    0.063342
   7 H :    0.054648
   8 H :    0.013868
   9 C :   -0.095827
  10 H :    0.036413
  11 H :    0.041176
  12 C :   -0.007043
  13 H :    0.029300
  14 H :    0.010185
  15 H :    0.021070
  16 S :    0.084481
  17 C :   -0.063717
  18 C :   -0.037590
  19 C :   -0.122101
  20 C :   -0.093569
  21 H :    0.048293
  22 C :    0.044605
  23 H :    0.034507
  24 H :    0.023397
  25 C :   -0.030494
  26 H :    0.005282
  27 H :    0.026244
  28 C :   -0.028340
  29 H :    0.028988
  30 H :    0.028377
  31 H :    0.014629
  32 H :    0.041849
  33 H :    0.044147
Sum of atomic charges:   -0.0000000

LOEWDIN ATOMIC CHARGES
----------------------
   0 S :    0.395645
   1 C :   -0.190617
   2 C :   -0.062369
   3 C :   -0.050633
   4 C :   -0.185578
   5 H :    0.029419
   6 C :   -0.033924
   7 H :    0.045241
   8 H :    0.025893
   9 C :   -0.046184
  10 H :    0.025886
  11 H :    0.031290
  12 C :   -0.052428
  13 H :    0.033193
  14 H :    0.013816
  15 H :    0.016218
  16 S :    0.399855
  17 C :   -0.184118
  18 C :   -0.084971
  19 C :   -0.054260
  20 C :   -0.200306
  21 H :    0.046243
  22 C :   -0.043695
  23 H :    0.036544
  24 H :    0.028585
  25 C :   -0.032956
  26 H :    0.018490
  27 H :    0.024583
  28 C :   -0.062049
  29 H :    0.021831
  30 H :    0.017973
  31 H :    0.025761
  32 H :    0.023189
  33 H :    0.024432

  Mayer bond orders larger than 0.100000
B(  0-S ,  1-C ) :   1.1364 B(  0-S ,  4-C ) :   1.1336 B(  1-C ,  2-C ) :   1.6506
B(  1-C , 32-H ) :   0.9665 B(  2-C ,  3-C ) :   1.1867 B(  2-C ,  6-C ) :   1.0261
B(  3-C ,  4-C ) :   1.6035 B(  3-C ,  5-H ) :   0.9847 B(  4-C , 20-C ) :   1.0406
B(  6-C ,  7-H ) :   0.9364 B(  6-C ,  8-H ) :   0.9437 B(  6-C ,  9-C ) :   1.0482
B(  9-C , 10-H ) :   0.9575 B(  9-C , 11-H ) :   0.9629 B(  9-C , 12-C ) :   1.0901
B( 12-C , 13-H ) :   0.9684 B( 12-C , 14-H ) :   0.9732 B( 12-C , 15-H ) :   0.9758
B( 16-S , 17-C ) :   1.1740 B( 16-S , 20-C ) :   1.1063 B( 17-C , 18-C ) :   1.6111
B( 17-C , 33-H ) :   0.9678 B( 18-C , 19-C ) :   1.2287 B( 18-C , 21-H ) :   0.9803
B( 19-C , 20-C ) :   1.6053 B( 19-C , 22-C ) :   1.0578 B( 22-C , 23-H ) :   0.9367
B( 22-C , 24-H ) :   0.9324 B( 22-C , 25-C ) :   1.0592 B( 25-C , 26-H ) :   0.9479
B( 25-C , 27-H ) :   0.9533 B( 25-C , 28-C ) :   1.1029 B( 28-C , 29-H ) :   0.9747
B( 28-C , 30-H ) :   0.9603 B( 28-C , 31-H ) :   0.9697

Dispersion correction           -0.015114843
FINAL SINGLE POINT ENERGY     -1339.861980749642

DIPOLE MOMENT
-------------
                                X             Y             Z
Electronic contribution:     -1.88533     -14.72955      27.02869
Nuclear contribution   :      1.87986      15.01129     -27.75711
                        -----------------------------------------
Total Dipole Moment    :     -0.00548       0.28174      -0.72842
                        -----------------------------------------
Magnitude (a.u.)       :      0.78102
Magnitude (Debye)      :      1.98520

Rotational constants in cm-1:     0.018972     0.009358     0.006798
Rotational constants in MHz :   568.764434   280.554981   203.805938

                             ****ORCA TERMINATED NORMALLY****
TOTAL RUN TIME: 0 days 0 hours 0 minutes 22 seconds 408 msec
