                         Program Version 4.2.1 -  RELEASE  -
|  1> ! wB97X-D3 SP def2-SVP
|  2> %pal
|  3> nprocs 24
|  4> end
|  5>
|  6> * xyz 0 1
|  7> S 	 -61.0392 	 -4.23019 	 -28.812
|  8> C 	 -60.8405 	 -3.15907 	 -30.0843
|  9> C 	 -61.2588 	 -1.88826 	 -29.7651
| 10> C 	 -61.5827 	 -1.74601 	 -28.4011
| 11> C 	 -61.5365 	 -2.96149 	 -27.7751
| 12> H 	 -62.0172 	 -0.928825 	 -27.9321
| 13> C 	 -61.346 	 -0.749887 	 -30.7651
| 14> H 	 -61.4857 	 -1.18042 	 -31.8149
| 15> H 	 -60.4016 	 -0.109801 	 -30.8227
| 16> C 	 -62.5451 	 0.32205 	 -30.4775
| 17> H 	 -63.4153 	 -0.205446 	 -30.4276
| 18> H 	 -62.4256 	 0.870674 	 -29.5878
| 19> C 	 -62.7102 	 1.37572 	 -31.5883
| 20> H 	 -61.7612 	 1.73248 	 -31.9183
| 21> H 	 -63.2537 	 1.03784 	 -32.4594
| 22> H 	 -63.136 	 2.36878 	 -31.2881
| 23> S 	 -62.0304 	 -4.84384 	 -25.8468
| 24> C 	 -62.3391 	 -4.29389 	 -24.2765
| 25> C 	 -61.9483 	 -2.99167 	 -24.1082
| 26> C 	 -61.5758 	 -2.30655 	 -25.2763
| 27> C 	 -61.6842 	 -3.14668 	 -26.3702
| 28> H 	 -62.0123 	 -2.5465 	 -23.0738
| 29> C 	 -61.0741 	 -0.831812 	 -25.2766
| 30> H 	 -60.4247 	 -0.71901 	 -26.133
| 31> H 	 -60.349 	 -0.699411 	 -24.3979
| 32> C 	 -62.0951 	 0.319967 	 -25.1921
| 33> H 	 -62.6555 	 0.132169 	 -24.2057
| 34> H 	 -62.9546 	 0.32388 	 -25.9111
| 35> C 	 -61.3917 	 1.66137 	 -25.177
| 36> H 	 -60.6764 	 1.71956 	 -24.3326
| 37> H 	 -62.023 	 2.50153 	 -25.022
| 38> H 	 -60.972 	 1.79997 	 -26.0805
| 39> H 	 -60.5326 	 -3.45584 	 -31.1093
| 40> H 	 -62.7931 	 -4.90767 	 -23.583
| 41> *
| 42>
| 43>                          ****END OF INPUT****

CARTESIAN COORDINATES (ANGSTROEM)
---------------------------------
  S    -61.039200   -4.230190  -28.812000
  C    -60.840500   -3.159070  -30.084300
  C    -61.258800   -1.888260  -29.765100
  C    -61.582700   -1.746010  -28.401100
  C    -61.536500   -2.961490  -27.775100
  H    -62.017200   -0.928825  -27.932100
  C    -61.346000   -0.749887  -30.765100
  H    -61.485700   -1.180420  -31.814900
  H    -60.401600   -0.109801  -30.822700
  C    -62.545100    0.322050  -30.477500
  H    -63.415300   -0.205446  -30.427600
  H    -62.425600    0.870674  -29.587800
  C    -62.710200    1.375720  -31.588300
  H    -61.761200    1.732480  -31.918300
  H    -63.253700    1.037840  -32.459400
  H    -63.136000    2.368780  -31.288100
  S    -62.030400   -4.843840  -25.846800
  C    -62.339100   -4.293890  -24.276500
  C    -61.948300   -2.991670  -24.108200
  C    -61.575800   -2.306550  -25.276300
  C    -61.684200   -3.146680  -26.370200
  H    -62.012300   -2.546500  -23.073800
  C    -61.074100   -0.831812  -25.276600
  H    -60.424700   -0.719010  -26.133000
  H    -60.349000   -0.699411  -24.397900
  C    -62.095100    0.319967  -25.192100
  H    -62.655500    0.132169  -24.205700
  H    -62.954600    0.323880  -25.911100
  C    -61.391700    1.661370  -25.177000
  H    -60.676400    1.719560  -24.332600
  H    -62.023000    2.501530  -25.022000
  H    -60.972000    1.799970  -26.080500
  H    -60.532600   -3.455840  -31.109300
  H    -62.793100   -4.907670  -23.583000

 Total Charge           Charge          ....    0
 Multiplicity           Mult            ....    1
 Number of Electrons    NEL             ....  134
 Basis Dimension        Dim             ....  322

ORBITAL ENERGIES
----------------

  NO   OCC          E(Eh)            E(eV)
   0   2.0000     -88.966981     -2420.9146
   1   2.0000     -88.960687     -2420.7434
   2   2.0000     -10.326551      -280.9997
   3   2.0000     -10.319759      -280.8149
   4   2.0000     -10.308110      -280.4979
   5   2.0000     -10.307102      -280.4705
   6   2.0000     -10.306735      -280.4605
   7   2.0000     -10.305194      -280.4186
   8   2.0000     -10.303219      -280.3648
   9   2.0000     -10.298153      -280.2270
  10   2.0000     -10.297192      -280.2008
  11   2.0000     -10.292752      -280.0800
  12   2.0000     -10.283420      -279.8261
  13   2.0000     -10.283002      -279.8147
  14   2.0000     -10.277257      -279.6584
  15   2.0000     -10.271593      -279.5043
  16   2.0000      -8.083889      -219.9738
  17   2.0000      -8.076425      -219.7707
  18   2.0000      -6.042230      -164.4174
  19   2.0000      -6.038138      -164.3061
  20   2.0000      -6.034742      -164.2137
  21   2.0000      -6.034663      -164.2115
  22   2.0000      -6.031036      -164.1128
  23   2.0000      -6.027104      -164.0058
  24   2.0000      -1.020054       -27.7571
  25   2.0000      -0.992617       -27.0105
  26   2.0000      -0.910103       -24.7652
  27   2.0000      -0.902409       -24.5558
  28   2.0000      -0.876154       -23.8414
  29   2.0000      -0.861235       -23.4354
  30   2.0000      -0.851810       -23.1789
  31   2.0000      -0.811852       -22.0916
  32   2.0000      -0.786875       -21.4120
  33   2.0000      -0.767742       -20.8913
  34   2.0000      -0.715700       -19.4752
  35   2.0000      -0.700781       -19.0692
  36   2.0000      -0.696082       -18.9414
  37   2.0000      -0.664747       -18.0887
  38   2.0000      -0.640392       -17.4259
  39   2.0000      -0.623835       -16.9754
  40   2.0000      -0.602590       -16.3973
  41   2.0000      -0.569776       -15.5044
  42   2.0000      -0.566700       -15.4207
  43   2.0000      -0.555788       -15.1237
  44   2.0000      -0.533948       -14.5295
  45   2.0000      -0.520146       -14.1539
  46   2.0000      -0.516257       -14.0481
  47   2.0000      -0.510067       -13.8796
  48   2.0000      -0.504612       -13.7312
  49   2.0000      -0.498364       -13.5612
  50   2.0000      -0.494269       -13.4497
  51   2.0000      -0.484132       -13.1739
  52   2.0000      -0.472075       -12.8458
  53   2.0000      -0.469564       -12.7775
  54   2.0000      -0.462964       -12.5979
  55   2.0000      -0.450926       -12.2703
  56   2.0000      -0.447951       -12.1894
  57   2.0000      -0.439974       -11.9723
  58   2.0000      -0.436893       -11.8885
  59   2.0000      -0.430869       -11.7245
  60   2.0000      -0.422945       -11.5089
  61   2.0000      -0.412838       -11.2339
  62   2.0000      -0.411699       -11.2029
  63   2.0000      -0.364012        -9.9053
  64   2.0000      -0.336696        -9.1620
  65   2.0000      -0.331511        -9.0209
  66   2.0000      -0.275241        -7.4897
  67   0.0000       0.022373         0.6088
  68   0.0000       0.078579         2.1382
  69   0.0000       0.105964         2.8834
  70   0.0000       0.120796         3.2870
  71   0.0000       0.125091         3.4039

MULLIKEN ATOMIC CHARGES
-----------------------
   0 S :    0.126097
   1 C :   -0.132659
   2 C :   -0.042513
   3 C :   -0.015110
   4 C :   -0.079524
   5 H :   -0.019379
   6 C :   -0.000433
   7 H :    0.036443
   8 H :    0.052216
   9 C :   -0.042648
  10 H :    0.018431
  11 H :    0.027943
  12 C :   -0.055767
  13 H :    0.008603
  14 H :    0.034939
  15 H :    0.030527
  16 S :    0.082890
  17 C :   -0.058105
  18 C :   -0.049199
  19 C :   -0.014383
  20 C :   -0.150034
  21 H :    0.031295
  22 C :    0.016581
  23 H :    0.026639
  24 H :    0.038542
  25 C :   -0.106423
  26 H :    0.029673
  27 H :    0.042208
  28 C :    0.020826
  29 H :    0.029853
  30 H :    0.022004
  31 H :    0.006562
  32 H :    0.054147
  33 H :    0.029758
Sum of atomic charges:   -0.0000000

LOEWDIN ATOMIC CHARGES
----------------------
   0 S :    0.450663
   1 C :   -0.226410
   2 C :   -0.068964
   3 C :   -0.060728
   4 C :   -0.198589
   5 H :    0.021520
   6 C :   -0.035368
   7 H :    0.035072
   8 H :    0.036662
   9 C :   -0.028314
  10 H :    0.012640
  11 H :    0.018472
  12 C :   -0.069340
  13 H :    0.017991
  14 H :    0.023489
  15 H :    0.032309
  16 S :    0.389667
  17 C :   -0.185535
  18 C :   -0.078184
  19 C :   -0.060096
  20 C :   -0.165276
  21 H :    0.038972
  22 C :   -0.033387
  23 H :    0.024926
  24 H :    0.041902
  25 C :   -0.050217
  26 H :    0.028887
  27 H :    0.025494
  28 C :   -0.053355
  29 H :    0.031138
  30 H :    0.024911
  31 H :    0.010138
  32 H :    0.035207
  33 H :    0.013702

  Mayer bond orders larger than 0.100000
B(  0-S ,  1-C ) :   1.1563 B(  0-S ,  4-C ) :   1.1596 B(  1-C ,  2-C ) :   1.5919
B(  1-C , 32-H ) :   0.9643 B(  2-C ,  3-C ) :   1.2566 B(  2-C ,  6-C ) :   1.0195
B(  3-C ,  4-C ) :   1.5441 B(  3-C ,  5-H ) :   1.0076 B(  4-C , 20-C ) :   1.0965
B(  6-C ,  7-H ) :   0.9508 B(  6-C ,  8-H ) :   0.9370 B(  6-C ,  9-C ) :   1.0557
B(  9-C , 10-H ) :   0.9642 B(  9-C , 11-H ) :   0.9533 B(  9-C , 12-C ) :   1.0835
B( 12-C , 13-H ) :   0.9708 B( 12-C , 14-H ) :   0.9783 B( 12-C , 15-H ) :   0.9751
B( 16-S , 17-C ) :   1.1614 B( 16-S , 20-C ) :   1.1228 B( 17-C , 18-C ) :   1.5981
B( 17-C , 20-C ) :   0.1033 B( 17-C , 33-H ) :   0.9802 B( 18-C , 19-C ) :   1.2441
B( 18-C , 21-H ) :   0.9838 B( 19-C , 20-C ) :   1.5951 B( 19-C , 22-C ) :   1.0184
B( 22-C , 23-H ) :   0.9391 B( 22-C , 24-H ) :   0.9385 B( 22-C , 25-C ) :   1.0535
B( 25-C , 26-H ) :   0.9515 B( 25-C , 27-H ) :   0.9526 B( 25-C , 28-C ) :   1.0807
B( 28-C , 29-H ) :   0.9722 B( 28-C , 30-H ) :   0.9698 B( 28-C , 31-H ) :   0.9728

Dispersion correction           -0.013891212
FINAL SINGLE POINT ENERGY     -1339.860354459466

DIPOLE MOMENT
-------------
                                X             Y             Z
Electronic contribution:      2.88147     -33.60998       5.59360
Nuclear contribution   :     -2.95907      34.30475      -5.56070
                        -----------------------------------------
Total Dipole Moment    :     -0.07760       0.69477       0.03290
                        -----------------------------------------
Magnitude (a.u.)       :      0.69986
Magnitude (Debye)      :      1.77891

Rotational constants in cm-1:     0.016425     0.009822     0.006523
Rotational constants in MHz :   492.403158   294.445998   195.563638

                             ****ORCA TERMINATED NORMALLY****
TOTAL RUN TIME: 0 days 0 hours 0 minutes 21 seconds 789 msec
