                         Program Version 4.2.1 -  RELEASE  -
|  1> ! wB97X-D3 SP def2-SVP
|  2> %pal
|  3> nprocs 24
|  4> end
|  5>
|  6> * xyz 0 1
|  7> S 	 -39.9592 	 14.8533 	 20.5508
|  8> C 	 -41.3297 	 15.2732 	 19.5502
|  9> C 	 -42.4717 	 14.6138 	 19.9712
| 10> C 	 -42.2558 	 13.7566 	 21.1252
| 11> C 	 -40.9124 	 13.7248 	 21.4911
| 12> H 	 -42.9579 	 13.104 	 21.5363
| 13> C 	 -43.8057 	 14.8275 	 19.2634
| 14> H 	 -43.8766 	 15.8304 	 18.8857
| 15> H 	 -44.5666 	 14.7077 	 20.0546
| 16> C 	 -44.1478 	 13.8701 	 18.1488
| 17> H 	 -44.238 	 12.9496 	 18.6672
| 18> H 	 -45.114 	 14.0326 	 17.762
| 19> C 	 -43.1511 	 13.7269 	 16.9546
| 20> H 	 -42.2227 	 13.4477 	 17.2536
| 21> H 	 -43.485 	 12.9633 	 16.2785
| 22> H 	 -42.9798 	 14.5779 	 16.3505
| 23> S 	 -39.1329 	 13.8506 	 23.5651
| 24> C 	 -38.6369 	 12.4265 	 24.3555
| 25> C 	 -39.3653 	 11.3664 	 23.9642
| 26> C 	 -40.4169 	 11.6895 	 23.0178
| 27> C 	 -40.2719 	 12.9986 	 22.5375
| 28> H 	 -39.2866 	 10.4496 	 24.4328
| 29> C 	 -41.2096 	 10.5953 	 22.3257
| 30> H 	 -40.7202 	 10.5095 	 21.374
| 31> H 	 -42.2058 	 10.9845 	 22.2079
| 32> C 	 -41.3145 	 9.2394 	 23.1318
| 33> H 	 -40.2858 	 8.90481 	 23.3399
| 34> H 	 -41.5735 	 8.34809 	 22.5528
| 35> C 	 -42.1891 	 9.2533 	 24.4281
| 36> H 	 -42.2497 	 8.32208 	 24.9739
| 37> H 	 -43.1604 	 9.52025 	 24.1523
| 38> H 	 -41.8759 	 9.99848 	 25.0938
| 39> H 	 -41.2207 	 15.8555 	 18.6625
| 40> H 	 -37.9879 	 12.5282 	 25.246
| 41> *
| 42>
| 43>                          ****END OF INPUT****

CARTESIAN COORDINATES (ANGSTROEM)
---------------------------------
  S    -39.959200   14.853300   20.550800
  C    -41.329700   15.273200   19.550200
  C    -42.471700   14.613800   19.971200
  C    -42.255800   13.756600   21.125200
  C    -40.912400   13.724800   21.491100
  H    -42.957900   13.104000   21.536300
  C    -43.805700   14.827500   19.263400
  H    -43.876600   15.830400   18.885700
  H    -44.566600   14.707700   20.054600
  C    -44.147800   13.870100   18.148800
  H    -44.238000   12.949600   18.667200
  H    -45.114000   14.032600   17.762000
  C    -43.151100   13.726900   16.954600
  H    -42.222700   13.447700   17.253600
  H    -43.485000   12.963300   16.278500
  H    -42.979800   14.577900   16.350500
  S    -39.132900   13.850600   23.565100
  C    -38.636900   12.426500   24.355500
  C    -39.365300   11.366400   23.964200
  C    -40.416900   11.689500   23.017800
  C    -40.271900   12.998600   22.537500
  H    -39.286600   10.449600   24.432800
  C    -41.209600   10.595300   22.325700
  H    -40.720200   10.509500   21.374000
  H    -42.205800   10.984500   22.207900
  C    -41.314500    9.239400   23.131800
  H    -40.285800    8.904810   23.339900
  H    -41.573500    8.348090   22.552800
  C    -42.189100    9.253300   24.428100
  H    -42.249700    8.322080   24.973900
  H    -43.160400    9.520250   24.152300
  H    -41.875900    9.998480   25.093800
  H    -41.220700   15.855500   18.662500
  H    -37.987900   12.528200   25.246000

 Total Charge           Charge          ....    0
 Multiplicity           Mult            ....    1
 Number of Electrons    NEL             ....  134
 Basis Dimension        Dim             ....  322

ORBITAL ENERGIES
----------------

  NO   OCC          E(Eh)            E(eV)
   0   2.0000     -88.964937     -2420.8590
   1   2.0000     -88.959947     -2420.7232
   2   2.0000     -10.330607      -281.1101
   3   2.0000     -10.324423      -280.9418
   4   2.0000     -10.312073      -280.6058
   5   2.0000     -10.311139      -280.5804
   6   2.0000     -10.305097      -280.4159
   7   2.0000     -10.304101      -280.3888
   8   2.0000     -10.295895      -280.1655
   9   2.0000     -10.295687      -280.1599
  10   2.0000     -10.294896      -280.1383
  11   2.0000     -10.289046      -279.9792
  12   2.0000     -10.284993      -279.8689
  13   2.0000     -10.278974      -279.7051
  14   2.0000     -10.272746      -279.5356
  15   2.0000     -10.263945      -279.2961
  16   2.0000      -8.079808      -219.8627
  17   2.0000      -8.075989      -219.7588
  18   2.0000      -6.038297      -164.3104
  19   2.0000      -6.034466      -164.2062
  20   2.0000      -6.034203      -164.1990
  21   2.0000      -6.030668      -164.1028
  22   2.0000      -6.030181      -164.0896
  23   2.0000      -6.026835      -163.9985
  24   2.0000      -1.010266       -27.4907
  25   2.0000      -0.984995       -26.8031
  26   2.0000      -0.913173       -24.8487
  27   2.0000      -0.905806       -24.6482
  28   2.0000      -0.873561       -23.7708
  29   2.0000      -0.850870       -23.1533
  30   2.0000      -0.842759       -22.9326
  31   2.0000      -0.817814       -22.2539
  32   2.0000      -0.791324       -21.5330
  33   2.0000      -0.778811       -21.1925
  34   2.0000      -0.719712       -19.5844
  35   2.0000      -0.706373       -19.2214
  36   2.0000      -0.696941       -18.9647
  37   2.0000      -0.658816       -17.9273
  38   2.0000      -0.643508       -17.5107
  39   2.0000      -0.621254       -16.9052
  40   2.0000      -0.599298       -16.3077
  41   2.0000      -0.568572       -15.4716
  42   2.0000      -0.561782       -15.2869
  43   2.0000      -0.552129       -15.0242
  44   2.0000      -0.546496       -14.8709
  45   2.0000      -0.531428       -14.4609
  46   2.0000      -0.519205       -14.1283
  47   2.0000      -0.509980       -13.8773
  48   2.0000      -0.505663       -13.7598
  49   2.0000      -0.501488       -13.6462
  50   2.0000      -0.492852       -13.4112
  51   2.0000      -0.485059       -13.1991
  52   2.0000      -0.475796       -12.9471
  53   2.0000      -0.467030       -12.7085
  54   2.0000      -0.462063       -12.5734
  55   2.0000      -0.451598       -12.2886
  56   2.0000      -0.448402       -12.2016
  57   2.0000      -0.444471       -12.0947
  58   2.0000      -0.439424       -11.9573
  59   2.0000      -0.425043       -11.5660
  60   2.0000      -0.422007       -11.4834
  61   2.0000      -0.413417       -11.2496
  62   2.0000      -0.407294       -11.0830
  63   2.0000      -0.356003        -9.6873
  64   2.0000      -0.331067        -9.0088
  65   2.0000      -0.327777        -8.9193
  66   2.0000      -0.286281        -7.7901
  67   0.0000       0.025007         0.6805
  68   0.0000       0.074153         2.0178
  69   0.0000       0.115726         3.1491
  70   0.0000       0.121288         3.3004
  71   0.0000       0.130198         3.5429

MULLIKEN ATOMIC CHARGES
-----------------------
   0 S :    0.106233
   1 C :   -0.115724
   2 C :   -0.108498
   3 C :    0.058220
   4 C :   -0.151919
   5 H :   -0.009928
   6 C :    0.069572
   7 H :    0.020688
   8 H :    0.024093
   9 C :   -0.024340
  10 H :    0.004609
  11 H :    0.017113
  12 C :   -0.007737
  13 H :    0.010454
  14 H :    0.023246
  15 H :    0.013793
  16 S :    0.100069
  17 C :   -0.083867
  18 C :   -0.014077
  19 C :   -0.063535
  20 C :   -0.149528
  21 H :   -0.005431
  22 C :    0.089607
  23 H :    0.055420
  24 H :    0.018289
  25 C :   -0.104963
  26 H :    0.018395
  27 H :    0.024448
  28 C :   -0.003559
  29 H :    0.036818
  30 H :    0.013069
  31 H :    0.020293
  32 H :    0.045893
  33 H :    0.072783
Sum of atomic charges:    0.0000000

LOEWDIN ATOMIC CHARGES
----------------------
   0 S :    0.406886
   1 C :   -0.195341
   2 C :   -0.056116
   3 C :   -0.057152
   4 C :   -0.186495
   5 H :    0.019788
   6 C :   -0.029495
   7 H :    0.025029
   8 H :    0.034548
   9 C :   -0.031056
  10 H :    0.019580
  11 H :    0.018939
  12 C :   -0.055999
  13 H :    0.011485
  14 H :    0.028701
  15 H :    0.019242
  16 S :    0.416728
  17 C :   -0.196766
  18 C :   -0.070990
  19 C :   -0.053049
  20 C :   -0.203114
  21 H :    0.017619
  22 C :   -0.023981
  23 H :    0.041647
  24 H :    0.025116
  25 C :   -0.045818
  26 H :    0.020379
  27 H :    0.027100
  28 C :   -0.055291
  29 H :    0.030130
  30 H :    0.018393
  31 H :    0.018522
  32 H :    0.023821
  33 H :    0.037007

  Mayer bond orders larger than 0.100000
B(  0-S ,  1-C ) :   1.1311 B(  0-S ,  4-C ) :   1.1577 B(  1-C ,  2-C ) :   1.6089
B(  1-C , 32-H ) :   0.9740 B(  2-C ,  3-C ) :   1.2374 B(  2-C ,  6-C ) :   1.0201
B(  3-C ,  4-C ) :   1.5553 B(  3-C ,  5-H ) :   0.9991 B(  4-C , 20-C ) :   1.0763
B(  6-C ,  7-H ) :   0.9453 B(  6-C ,  8-H ) :   0.9386 B(  6-C ,  9-C ) :   1.0782
B(  9-C , 10-H ) :   0.9514 B(  9-C , 11-H ) :   0.9554 B(  9-C , 12-C ) :   1.0769
B( 12-C , 13-H ) :   0.9720 B( 12-C , 14-H ) :   0.9715 B( 12-C , 15-H ) :   0.9752
B( 16-S , 17-C ) :   1.1597 B( 16-S , 20-C ) :   1.1496 B( 17-C , 18-C ) :   1.5951
B( 17-C , 33-H ) :   0.9614 B( 18-C , 19-C ) :   1.2447 B( 18-C , 21-H ) :   0.9973
B( 19-C , 20-C ) :   1.5715 B( 19-C , 22-C ) :   1.0281 B( 22-C , 23-H ) :   0.9383
B( 22-C , 24-H ) :   0.9335 B( 22-C , 25-C ) :   1.0694 B( 25-C , 26-H ) :   0.9499
B( 25-C , 27-H ) :   0.9563 B( 25-C , 28-C ) :   1.0675 B( 28-C , 29-H ) :   0.9752
B( 28-C , 30-H ) :   0.9733 B( 28-C , 31-H ) :   0.9766

Dispersion correction           -0.014311860
FINAL SINGLE POINT ENERGY     -1339.869256989639

DIPOLE MOMENT
-------------
                                X             Y             Z
Electronic contribution:     19.00998      16.40749       8.85969
Nuclear contribution   :    -19.46869     -16.92780      -8.95980
                        -----------------------------------------
Total Dipole Moment    :     -0.45871      -0.52031      -0.10012
                        -----------------------------------------
Magnitude (a.u.)       :      0.70083
Magnitude (Debye)      :      1.78137

Rotational constants in cm-1:     0.019955     0.008331     0.006331
Rotational constants in MHz :   598.225710   249.759635   189.805307

                             ****ORCA TERMINATED NORMALLY****
TOTAL RUN TIME: 0 days 0 hours 0 minutes 21 seconds 346 msec
