                         Program Version 4.2.1 -  RELEASE  -
|  1> ! wB97X-D3 SP def2-SVP
|  2> %pal
|  3> nprocs 24
|  4> end
|  5>
|  6> * xyz 0 1
|  7> S 	 -58.4238 	 -55.8113 	 -82.9551
|  8> C 	 -59.7198 	 -54.6684 	 -82.9418
|  9> C 	 -60.8371 	 -55.1819 	 -83.5644
| 10> C 	 -60.5574 	 -56.3842 	 -84.2599
| 11> C 	 -59.2988 	 -56.8686 	 -84.0438
| 12> H 	 -61.2421 	 -56.8989 	 -84.9151
| 13> C 	 -62.2478 	 -54.606 	 -83.3612
| 14> H 	 -62.3166 	 -53.9823 	 -82.4848
| 15> H 	 -62.9554 	 -55.4151 	 -83.0357
| 16> C 	 -62.8223 	 -53.8286 	 -84.5849
| 17> H 	 -62.1499 	 -53.075 	 -84.9252
| 18> H 	 -63.0048 	 -54.4694 	 -85.4802
| 19> C 	 -64.188 	 -53.198 	 -84.2228
| 20> H 	 -64.7047 	 -52.7404 	 -85.0808
| 21> H 	 -64.857 	 -53.961 	 -83.8419
| 22> H 	 -64.0306 	 -52.406 	 -83.4808
| 23> S 	 -58.1283 	 -59.3224 	 -83.6618
| 24> C 	 -57.8024 	 -60.365 	 -85.0487
| 25> C 	 -58.1939 	 -59.7522 	 -86.195
| 26> C 	 -58.6919 	 -58.459 	 -85.9579
| 27> C 	 -58.8142 	 -58.0742 	 -84.6458
| 28> H 	 -57.8821 	 -60.2747 	 -87.096
| 29> C 	 -58.9756 	 -57.4914 	 -87.1271
| 30> H 	 -58.1437 	 -57.7019 	 -87.7524
| 31> H 	 -58.9249 	 -56.4967 	 -86.7909
| 32> C 	 -60.2665 	 -57.8388 	 -87.793
| 33> H 	 -61.0454 	 -57.484 	 -87.09
| 34> H 	 -60.354 	 -58.9457 	 -87.8353
| 35> C 	 -60.4631 	 -57.4177 	 -89.2255
| 36> H 	 -60.0318 	 -56.4056 	 -89.4125
| 37> H 	 -61.4495 	 -57.4429 	 -89.6637
| 38> H 	 -59.8643 	 -58.1231 	 -89.8679
| 39> H 	 -59.7834 	 -53.9011 	 -82.2435
| 40> H 	 -57.2739 	 -61.3148 	 -85.0447
| 41> *
| 42>
| 43>                          ****END OF INPUT****

CARTESIAN COORDINATES (ANGSTROEM)
---------------------------------
  S    -58.423800  -55.811300  -82.955100
  C    -59.719800  -54.668400  -82.941800
  C    -60.837100  -55.181900  -83.564400
  C    -60.557400  -56.384200  -84.259900
  C    -59.298800  -56.868600  -84.043800
  H    -61.242100  -56.898900  -84.915100
  C    -62.247800  -54.606000  -83.361200
  H    -62.316600  -53.982300  -82.484800
  H    -62.955400  -55.415100  -83.035700
  C    -62.822300  -53.828600  -84.584900
  H    -62.149900  -53.075000  -84.925200
  H    -63.004800  -54.469400  -85.480200
  C    -64.188000  -53.198000  -84.222800
  H    -64.704700  -52.740400  -85.080800
  H    -64.857000  -53.961000  -83.841900
  H    -64.030600  -52.406000  -83.480800
  S    -58.128300  -59.322400  -83.661800
  C    -57.802400  -60.365000  -85.048700
  C    -58.193900  -59.752200  -86.195000
  C    -58.691900  -58.459000  -85.957900
  C    -58.814200  -58.074200  -84.645800
  H    -57.882100  -60.274700  -87.096000
  C    -58.975600  -57.491400  -87.127100
  H    -58.143700  -57.701900  -87.752400
  H    -58.924900  -56.496700  -86.790900
  C    -60.266500  -57.838800  -87.793000
  H    -61.045400  -57.484000  -87.090000
  H    -60.354000  -58.945700  -87.835300
  C    -60.463100  -57.417700  -89.225500
  H    -60.031800  -56.405600  -89.412500
  H    -61.449500  -57.442900  -89.663700
  H    -59.864300  -58.123100  -89.867900
  H    -59.783400  -53.901100  -82.243500
  H    -57.273900  -61.314800  -85.044700

 Total Charge           Charge          ....    0
 Multiplicity           Mult            ....    1
 Number of Electrons    NEL             ....  134
 Basis Dimension        Dim             ....  322

ORBITAL ENERGIES
----------------

  NO   OCC          E(Eh)            E(eV)
   0   2.0000     -88.967767     -2420.9360
   1   2.0000     -88.961001     -2420.7519
   2   2.0000     -10.327509      -281.0258
   3   2.0000     -10.320664      -280.8395
   4   2.0000     -10.316721      -280.7323
   5   2.0000     -10.308954      -280.5209
   6   2.0000     -10.301835      -280.3272
   7   2.0000     -10.299431      -280.2618
   8   2.0000     -10.299176      -280.2548
   9   2.0000     -10.292121      -280.0629
  10   2.0000     -10.290924      -280.0303
  11   2.0000     -10.289282      -279.9856
  12   2.0000     -10.283720      -279.8342
  13   2.0000     -10.280253      -279.7399
  14   2.0000     -10.280080      -279.7352
  15   2.0000     -10.279083      -279.7081
  16   2.0000      -8.082827      -219.9449
  17   2.0000      -8.076150      -219.7632
  18   2.0000      -6.041372      -164.3941
  19   2.0000      -6.037243      -164.2817
  20   2.0000      -6.034665      -164.2116
  21   2.0000      -6.033578      -164.1820
  22   2.0000      -6.030548      -164.0995
  23   2.0000      -6.026923      -164.0009
  24   2.0000      -1.014244       -27.5990
  25   2.0000      -0.991585       -26.9824
  26   2.0000      -0.913736       -24.8640
  27   2.0000      -0.907227       -24.6869
  28   2.0000      -0.878704       -23.9108
  29   2.0000      -0.851865       -23.1804
  30   2.0000      -0.845879       -23.0175
  31   2.0000      -0.821977       -22.3671
  32   2.0000      -0.780831       -21.2475
  33   2.0000      -0.770968       -20.9791
  34   2.0000      -0.711620       -19.3642
  35   2.0000      -0.700507       -19.0618
  36   2.0000      -0.692682       -18.8488
  37   2.0000      -0.663656       -18.0590
  38   2.0000      -0.647890       -17.6300
  39   2.0000      -0.625003       -17.0072
  40   2.0000      -0.596152       -16.2221
  41   2.0000      -0.574420       -15.6308
  42   2.0000      -0.566287       -15.4094
  43   2.0000      -0.558251       -15.1908
  44   2.0000      -0.527793       -14.3620
  45   2.0000      -0.523394       -14.2423
  46   2.0000      -0.518863       -14.1190
  47   2.0000      -0.517704       -14.0874
  48   2.0000      -0.506994       -13.7960
  49   2.0000      -0.503580       -13.7031
  50   2.0000      -0.497193       -13.5293
  51   2.0000      -0.483615       -13.1598
  52   2.0000      -0.471447       -12.8287
  53   2.0000      -0.465372       -12.6634
  54   2.0000      -0.463502       -12.6125
  55   2.0000      -0.448032       -12.1916
  56   2.0000      -0.446354       -12.1459
  57   2.0000      -0.439284       -11.9535
  58   2.0000      -0.428600       -11.6628
  59   2.0000      -0.424962       -11.5638
  60   2.0000      -0.419500       -11.4152
  61   2.0000      -0.413401       -11.2492
  62   2.0000      -0.407848       -11.0981
  63   2.0000      -0.350493        -9.5374
  64   2.0000      -0.332808        -9.0562
  65   2.0000      -0.329118        -8.9558
  66   2.0000      -0.297576        -8.0974
  67   0.0000       0.032624         0.8877
  68   0.0000       0.071033         1.9329
  69   0.0000       0.112693         3.0665
  70   0.0000       0.127912         3.4807
  71   0.0000       0.130933         3.5629

MULLIKEN ATOMIC CHARGES
-----------------------
   0 S :    0.118660
   1 C :   -0.081829
   2 C :   -0.070163
   3 C :    0.027978
   4 C :   -0.142093
   5 H :    0.008447
   6 C :    0.035744
   7 H :    0.009792
   8 H :    0.038098
   9 C :   -0.070246
  10 H :    0.027892
  11 H :    0.032903
  12 C :   -0.060867
  13 H :    0.037575
  14 H :    0.030154
  15 H :    0.033512
  16 S :    0.093672
  17 C :   -0.101696
  18 C :   -0.035817
  19 C :   -0.073253
  20 C :   -0.153341
  21 H :    0.025517
  22 C :    0.137748
  23 H :    0.006032
  24 H :    0.024119
  25 C :   -0.087235
  26 H :    0.021495
  27 H :    0.030374
  28 C :   -0.043276
  29 H :    0.030713
  30 H :    0.036522
  31 H :    0.027012
  32 H :    0.027419
  33 H :    0.058438
Sum of atomic charges:   -0.0000000

LOEWDIN ATOMIC CHARGES
----------------------
   0 S :    0.415010
   1 C :   -0.190943
   2 C :   -0.060697
   3 C :   -0.053470
   4 C :   -0.195552
   5 H :    0.029626
   6 C :   -0.032618
   7 H :    0.025180
   8 H :    0.038127
   9 C :   -0.039732
  10 H :    0.019923
  11 H :    0.025955
  12 C :   -0.068124
  13 H :    0.027889
  14 H :    0.023009
  15 H :    0.024100
  16 S :    0.399532
  17 C :   -0.174557
  18 C :   -0.079981
  19 C :   -0.051486
  20 C :   -0.207825
  21 H :    0.038406
  22 C :   -0.017230
  23 H :    0.024900
  24 H :    0.023839
  25 C :   -0.049910
  26 H :    0.022331
  27 H :    0.027856
  28 C :   -0.072080
  29 H :    0.025997
  30 H :    0.025347
  31 H :    0.029187
  32 H :    0.014512
  33 H :    0.033479

  Mayer bond orders larger than 0.100000
B(  0-S ,  1-C ) :   1.1439 B(  0-S ,  4-C ) :   1.1427 B(  1-C ,  2-C ) :   1.6120
B(  1-C , 32-H ) :   0.9693 B(  2-C ,  3-C ) :   1.2441 B(  2-C ,  6-C ) :   1.0180
B(  3-C ,  4-C ) :   1.5633 B(  3-C ,  5-H ) :   1.0001 B(  4-C , 20-C ) :   1.0544
B(  6-C ,  7-H ) :   0.9476 B(  6-C ,  8-H ) :   0.9444 B(  6-C ,  9-C ) :   1.0478
B(  9-C , 10-H ) :   0.9588 B(  9-C , 11-H ) :   0.9587 B(  9-C , 12-C ) :   1.0809
B( 12-C , 13-H ) :   0.9747 B( 12-C , 14-H ) :   0.9752 B( 12-C , 15-H ) :   0.9767
B( 16-S , 17-C ) :   1.1564 B( 16-S , 20-C ) :   1.1244 B( 17-C , 18-C ) :   1.6287
B( 17-C , 33-H ) :   0.9643 B( 18-C , 19-C ) :   1.2317 B( 18-C , 21-H ) :   0.9894
B( 19-C , 20-C ) :   1.6124 B( 19-C , 22-C ) :   1.0267 B( 22-C , 23-H ) :   0.9321
B( 22-C , 24-H ) :   0.9280 B( 22-C , 25-C ) :   1.0655 B( 25-C , 26-H ) :   0.9459
B( 25-C , 27-H ) :   0.9630 B( 25-C , 28-C ) :   1.0742 B( 28-C , 29-H ) :   0.9732
B( 28-C , 30-H ) :   0.9743 B( 28-C , 31-H ) :   0.9745

Dispersion correction           -0.014069121
FINAL SINGLE POINT ENERGY     -1339.882825722697

DIPOLE MOMENT
-------------
                                X             Y             Z
Electronic contribution:     22.25121     -12.28102      18.54816
Nuclear contribution   :    -22.62580      12.37776     -18.95127
                        -----------------------------------------
Total Dipole Moment    :     -0.37459       0.09674      -0.40310
                        -----------------------------------------
Magnitude (a.u.)       :      0.55872
Magnitude (Debye)      :      1.42016

Rotational constants in cm-1:     0.017579     0.008811     0.006434
Rotational constants in MHz :   527.020111   264.160255   192.889496

                             ****ORCA TERMINATED NORMALLY****
TOTAL RUN TIME: 0 days 0 hours 0 minutes 21 seconds 648 msec
