                         Program Version 4.2.1 -  RELEASE  -
|  1> ! wB97X-D3 SP def2-SVP
|  2> %pal
|  3> nprocs 24
|  4> end
|  5>
|  6> * xyz 0 1
|  7> S 	 -60.7538 	 11.4961 	 -99.9834
|  8> C 	 -62.1328 	 11.8286 	 -101.018
|  9> C 	 -62.0479 	 13.1283 	 -101.499
| 10> C 	 -60.8972 	 13.8836 	 -101.067
| 11> C 	 -60.0149 	 13.0837 	 -100.321
| 12> H 	 -60.7829 	 14.901 	 -101.246
| 13> C 	 -63.1333 	 13.6755 	 -102.396
| 14> H 	 -64.0339 	 13.0425 	 -102.185
| 15> H 	 -62.8793 	 13.5362 	 -103.391
| 16> C 	 -63.4594 	 15.1513 	 -102.249
| 17> H 	 -63.9623 	 15.3196 	 -101.258
| 18> H 	 -62.5649 	 15.696 	 -102.118
| 19> C 	 -64.2362 	 15.7066 	 -103.477
| 20> H 	 -63.7913 	 15.5726 	 -104.52
| 21> H 	 -65.2245 	 15.1908 	 -103.535
| 22> H 	 -64.4481 	 16.7746 	 -103.142
| 23> S 	 -58.4601 	 14.3915 	 -98.5624
| 24> C 	 -56.6873 	 14.4159 	 -98.8836
| 25> C 	 -56.3558 	 13.4776 	 -99.8086
| 26> C 	 -57.48 	 12.8367 	 -100.413
| 27> C 	 -58.6633 	 13.3482 	 -99.9385
| 28> H 	 -55.2856 	 13.3142 	 -99.9298
| 29> C 	 -57.4261 	 11.9178 	 -101.571
| 30> H 	 -56.7399 	 12.2918 	 -102.423
| 31> H 	 -58.418 	 11.5995 	 -102.011
| 32> C 	 -56.7343 	 10.4785 	 -101.115
| 33> H 	 -57.2078 	 10.0836 	 -100.14
| 34> H 	 -55.6736 	 10.4926 	 -100.98
| 35> C 	 -57.0545 	 9.4589 	 -102.197
| 36> H 	 -56.5014 	 8.55473 	 -101.928
| 37> H 	 -56.8939 	 9.90278 	 -103.196
| 38> H 	 -58.1123 	 9.32865 	 -102.086
| 39> H 	 -62.769 	 11.1356 	 -101.524
| 40> H 	 -55.9616 	 15.0329 	 -98.3501
| 41> *
| 42>
| 43>                          ****END OF INPUT****

CARTESIAN COORDINATES (ANGSTROEM)
---------------------------------
  S    -60.753800   11.496100  -99.983400
  C    -62.132800   11.828600  -101.018000
  C    -62.047900   13.128300  -101.499000
  C    -60.897200   13.883600  -101.067000
  C    -60.014900   13.083700  -100.321000
  H    -60.782900   14.901000  -101.246000
  C    -63.133300   13.675500  -102.396000
  H    -64.033900   13.042500  -102.185000
  H    -62.879300   13.536200  -103.391000
  C    -63.459400   15.151300  -102.249000
  H    -63.962300   15.319600  -101.258000
  H    -62.564900   15.696000  -102.118000
  C    -64.236200   15.706600  -103.477000
  H    -63.791300   15.572600  -104.520000
  H    -65.224500   15.190800  -103.535000
  H    -64.448100   16.774600  -103.142000
  S    -58.460100   14.391500  -98.562400
  C    -56.687300   14.415900  -98.883600
  C    -56.355800   13.477600  -99.808600
  C    -57.480000   12.836700  -100.413000
  C    -58.663300   13.348200  -99.938500
  H    -55.285600   13.314200  -99.929800
  C    -57.426100   11.917800  -101.571000
  H    -56.739900   12.291800  -102.423000
  H    -58.418000   11.599500  -102.011000
  C    -56.734300   10.478500  -101.115000
  H    -57.207800   10.083600  -100.140000
  H    -55.673600   10.492600  -100.980000
  C    -57.054500    9.458900  -102.197000
  H    -56.501400    8.554730  -101.928000
  H    -56.893900    9.902780  -103.196000
  H    -58.112300    9.328650  -102.086000
  H    -62.769000   11.135600  -101.524000
  H    -55.961600   15.032900  -98.350100

 Total Charge           Charge          ....    0
 Multiplicity           Mult            ....    1
 Number of Electrons    NEL             ....  134
 Basis Dimension        Dim             ....  322

ORBITAL ENERGIES
----------------

  NO   OCC          E(Eh)            E(eV)
   0   2.0000     -88.966620     -2420.9048
   1   2.0000     -88.962180     -2420.7840
   2   2.0000     -10.333061      -281.1769
   3   2.0000     -10.320072      -280.8234
   4   2.0000     -10.319198      -280.7997
   5   2.0000     -10.309618      -280.5390
   6   2.0000     -10.305213      -280.4191
   7   2.0000     -10.303774      -280.3799
   8   2.0000     -10.299558      -280.2652
   9   2.0000     -10.296623      -280.1854
  10   2.0000     -10.294923      -280.1391
  11   2.0000     -10.294570      -280.1295
  12   2.0000     -10.290090      -280.0076
  13   2.0000     -10.287651      -279.9412
  14   2.0000     -10.284309      -279.8503
  15   2.0000     -10.272375      -279.5255
  16   2.0000      -8.080306      -219.8763
  17   2.0000      -8.076683      -219.7777
  18   2.0000      -6.038886      -164.3264
  19   2.0000      -6.035225      -164.2268
  20   2.0000      -6.034807      -164.2154
  21   2.0000      -6.031389      -164.1225
  22   2.0000      -6.031211      -164.1176
  23   2.0000      -6.027247      -164.0097
  24   2.0000      -1.005945       -27.3731
  25   2.0000      -0.979941       -26.6656
  26   2.0000      -0.912393       -24.8275
  27   2.0000      -0.898510       -24.4497
  28   2.0000      -0.873465       -23.7682
  29   2.0000      -0.851236       -23.1633
  30   2.0000      -0.842615       -22.9287
  31   2.0000      -0.819170       -22.2908
  32   2.0000      -0.774969       -21.0880
  33   2.0000      -0.759466       -20.6661
  34   2.0000      -0.714946       -19.4547
  35   2.0000      -0.691031       -18.8039
  36   2.0000      -0.688128       -18.7249
  37   2.0000      -0.659564       -17.9477
  38   2.0000      -0.639652       -17.4058
  39   2.0000      -0.621910       -16.9230
  40   2.0000      -0.596189       -16.2231
  41   2.0000      -0.571328       -15.5466
  42   2.0000      -0.561633       -15.2828
  43   2.0000      -0.560194       -15.2436
  44   2.0000      -0.527552       -14.3554
  45   2.0000      -0.523729       -14.2514
  46   2.0000      -0.521736       -14.1971
  47   2.0000      -0.507405       -13.8072
  48   2.0000      -0.506469       -13.7817
  49   2.0000      -0.500964       -13.6319
  50   2.0000      -0.492155       -13.3922
  51   2.0000      -0.470307       -12.7977
  52   2.0000      -0.467002       -12.7078
  53   2.0000      -0.462145       -12.5756
  54   2.0000      -0.457884       -12.4597
  55   2.0000      -0.450841       -12.2680
  56   2.0000      -0.441116       -12.0034
  57   2.0000      -0.436695       -11.8831
  58   2.0000      -0.431795       -11.7497
  59   2.0000      -0.419780       -11.4228
  60   2.0000      -0.418955       -11.4004
  61   2.0000      -0.410284       -11.1644
  62   2.0000      -0.410068       -11.1585
  63   2.0000      -0.334725        -9.1083
  64   2.0000      -0.333480        -9.0744
  65   2.0000      -0.316096        -8.6014
  66   2.0000      -0.303350        -8.2546
  67   0.0000       0.029004         0.7892
  68   0.0000       0.060357         1.6424
  69   0.0000       0.105230         2.8635
  70   0.0000       0.120566         3.2808
  71   0.0000       0.122269         3.3271

MULLIKEN ATOMIC CHARGES
-----------------------
   0 S :    0.110264
   1 C :   -0.111248
   2 C :   -0.125497
   3 C :    0.086332
   4 C :   -0.179144
   5 H :   -0.005635
   6 C :    0.098123
   7 H :    0.029752
   8 H :    0.014173
   9 C :   -0.104283
  10 H :    0.039535
  11 H :    0.021031
  12 C :   -0.094959
  13 H :    0.059232
  14 H :    0.036842
  15 H :    0.050716
  16 S :    0.100820
  17 C :   -0.100889
  18 C :   -0.034754
  19 C :    0.065162
  20 C :   -0.185059
  21 H :    0.025447
  22 C :   -0.015540
  23 H :    0.054010
  24 H :    0.049117
  25 C :   -0.136098
  26 H :    0.043666
  27 H :    0.029807
  28 C :   -0.030480
  29 H :    0.040899
  30 H :    0.033875
  31 H :    0.027925
  32 H :    0.048537
  33 H :    0.058322
Sum of atomic charges:   -0.0000000

LOEWDIN ATOMIC CHARGES
----------------------
   0 S :    0.394144
   1 C :   -0.208082
   2 C :   -0.057745
   3 C :   -0.047555
   4 C :   -0.181313
   5 H :    0.021145
   6 C :   -0.033783
   7 H :    0.035537
   8 H :    0.020313
   9 C :   -0.044954
  10 H :    0.033566
  11 H :    0.013668
  12 C :   -0.078395
  13 H :    0.036037
  14 H :    0.027050
  15 H :    0.037852
  16 S :    0.383382
  17 C :   -0.165135
  18 C :   -0.067748
  19 C :   -0.056496
  20 C :   -0.208505
  21 H :    0.037434
  22 C :   -0.036699
  23 H :    0.041649
  24 H :    0.035405
  25 C :   -0.040297
  26 H :    0.030082
  27 H :    0.011668
  28 C :   -0.067915
  29 H :    0.028617
  30 H :    0.025459
  31 H :    0.021658
  32 H :    0.028617
  33 H :    0.031340

  Mayer bond orders larger than 0.100000
B(  0-S ,  1-C ) :   1.1235 B(  0-S ,  4-C ) :   1.1547 B(  1-C ,  2-C ) :   1.6320
B(  1-C , 32-H ) :   0.9634 B(  2-C ,  3-C ) :   1.2414 B(  2-C ,  6-C ) :   1.0144
B(  3-C ,  4-C ) :   1.5627 B(  3-C ,  5-H ) :   0.9992 B(  4-C , 20-C ) :   1.0238
B(  6-C ,  7-H ) :   0.9439 B(  6-C ,  8-H ) :   0.9309 B(  6-C ,  9-C ) :   1.0661
B(  9-C , 10-H ) :   0.9538 B(  9-C , 11-H ) :   0.9541 B(  9-C , 12-C ) :   1.0748
B( 12-C , 13-H ) :   0.9729 B( 12-C , 14-H ) :   0.9752 B( 12-C , 15-H ) :   0.9731
B( 16-S , 17-C ) :   1.1244 B( 16-S , 20-C ) :   1.1387 B( 17-C , 18-C ) :   1.6629
B( 17-C , 33-H ) :   0.9661 B( 18-C , 19-C ) :   1.1798 B( 18-C , 21-H ) :   0.9900
B( 19-C , 20-C ) :   1.6094 B( 19-C , 22-C ) :   1.0687 B( 22-C , 23-H ) :   0.9343
B( 22-C , 24-H ) :   0.9407 B( 22-C , 25-C ) :   1.0246 B( 25-C , 26-H ) :   0.9617
B( 25-C , 27-H ) :   0.9619 B( 25-C , 28-C ) :   1.0776 B( 28-C , 29-H ) :   0.9725
B( 28-C , 30-H ) :   0.9699 B( 28-C , 31-H ) :   0.9790

Dispersion correction           -0.014053113
FINAL SINGLE POINT ENERGY     -1339.853633216808

DIPOLE MOMENT
-------------
                                X             Y             Z
Electronic contribution:      5.90844       2.09280      19.33026
Nuclear contribution   :     -5.77284      -2.01171     -19.85999
                        -----------------------------------------
Total Dipole Moment    :      0.13560       0.08109      -0.52973
                        -----------------------------------------
Magnitude (a.u.)       :      0.55279
Magnitude (Debye)      :      1.40508

Rotational constants in cm-1:     0.019090     0.007982     0.006625
Rotational constants in MHz :   572.290565   239.307081   198.597752

                             ****ORCA TERMINATED NORMALLY****
TOTAL RUN TIME: 0 days 0 hours 0 minutes 20 seconds 47 msec
