                         Program Version 4.2.1 -  RELEASE  -
|  1> ! wB97X-D3 SP def2-SVP
|  2> %pal
|  3> nprocs 24
|  4> end
|  5>
|  6> * xyz 0 1
|  7> S 	 -128.467 	 61.5144 	 -57.7581
|  8> C 	 -127.898 	 62.9636 	 -58.7022
|  9> C 	 -126.742 	 62.648 	 -59.4262
| 10> C 	 -126.457 	 61.2398 	 -59.3219
| 11> C 	 -127.279 	 60.5115 	 -58.4853
| 12> H 	 -125.689 	 60.6665 	 -59.751
| 13> C 	 -125.949 	 63.7133 	 -60.2181
| 14> H 	 -126.308 	 64.7184 	 -59.8877
| 15> H 	 -126.387 	 63.581 	 -61.1779
| 16> C 	 -124.415 	 63.6221 	 -60.0384
| 17> H 	 -124.013 	 62.7552 	 -60.4839
| 18> H 	 -123.937 	 64.4213 	 -60.6586
| 19> C 	 -123.985 	 63.8175 	 -58.5901
| 20> H 	 -122.868 	 63.797 	 -58.4616
| 21> H 	 -124.256 	 64.815 	 -58.1806
| 22> H 	 -124.41 	 63.1286 	 -57.9351
| 23> S 	 -128.529 	 58.2221 	 -59.1686
| 24> C 	 -127.741 	 56.6802 	 -58.888
| 25> C 	 -126.486 	 56.8262 	 -58.3822
| 26> C 	 -126.179 	 58.176 	 -57.9435
| 27> C 	 -127.24 	 59.0486 	 -58.3022
| 28> H 	 -125.865 	 55.9318 	 -58.2996
| 29> C 	 -124.861 	 58.6106 	 -57.3191
| 30> H 	 -124.68 	 59.6003 	 -57.6898
| 31> H 	 -124.04 	 57.9561 	 -57.6254
| 32> C 	 -124.89 	 58.8277 	 -55.7568
| 33> H 	 -125.242 	 57.9398 	 -55.2319
| 34> H 	 -125.702 	 59.519 	 -55.5729
| 35> C 	 -123.655 	 59.3925 	 -55.2494
| 36> H 	 -123.452 	 60.4434 	 -55.5594
| 37> H 	 -122.769 	 58.8096 	 -55.4872
| 38> H 	 -123.702 	 59.4269 	 -54.1778
| 39> H 	 -128.373 	 63.8865 	 -58.6632
| 40> H 	 -128.077 	 55.6991 	 -59.2757
| 41> *
| 42>
| 43>                          ****END OF INPUT****

CARTESIAN COORDINATES (ANGSTROEM)
---------------------------------
  S    -128.467000   61.514400  -57.758100
  C    -127.898000   62.963600  -58.702200
  C    -126.742000   62.648000  -59.426200
  C    -126.457000   61.239800  -59.321900
  C    -127.279000   60.511500  -58.485300
  H    -125.689000   60.666500  -59.751000
  C    -125.949000   63.713300  -60.218100
  H    -126.308000   64.718400  -59.887700
  H    -126.387000   63.581000  -61.177900
  C    -124.415000   63.622100  -60.038400
  H    -124.013000   62.755200  -60.483900
  H    -123.937000   64.421300  -60.658600
  C    -123.985000   63.817500  -58.590100
  H    -122.868000   63.797000  -58.461600
  H    -124.256000   64.815000  -58.180600
  H    -124.410000   63.128600  -57.935100
  S    -128.529000   58.222100  -59.168600
  C    -127.741000   56.680200  -58.888000
  C    -126.486000   56.826200  -58.382200
  C    -126.179000   58.176000  -57.943500
  C    -127.240000   59.048600  -58.302200
  H    -125.865000   55.931800  -58.299600
  C    -124.861000   58.610600  -57.319100
  H    -124.680000   59.600300  -57.689800
  H    -124.040000   57.956100  -57.625400
  C    -124.890000   58.827700  -55.756800
  H    -125.242000   57.939800  -55.231900
  H    -125.702000   59.519000  -55.572900
  C    -123.655000   59.392500  -55.249400
  H    -123.452000   60.443400  -55.559400
  H    -122.769000   58.809600  -55.487200
  H    -123.702000   59.426900  -54.177800
  H    -128.373000   63.886500  -58.663200
  H    -128.077000   55.699100  -59.275700

 Total Charge           Charge          ....    0
 Multiplicity           Mult            ....    1
 Number of Electrons    NEL             ....  134
 Basis Dimension        Dim             ....  322

ORBITAL ENERGIES
----------------

  NO   OCC          E(Eh)            E(eV)
   0   2.0000     -88.965436     -2420.8726
   1   2.0000     -88.963320     -2420.8150
   2   2.0000     -10.329302      -281.0746
   3   2.0000     -10.326580      -281.0005
   4   2.0000     -10.316856      -280.7359
   5   2.0000     -10.314226      -280.6644
   6   2.0000     -10.312094      -280.6063
   7   2.0000     -10.308459      -280.5074
   8   2.0000     -10.298808      -280.2448
   9   2.0000     -10.295100      -280.1439
  10   2.0000     -10.292028      -280.0603
  11   2.0000     -10.291715      -280.0518
  12   2.0000     -10.289838      -280.0007
  13   2.0000     -10.279866      -279.7294
  14   2.0000     -10.278303      -279.6868
  15   2.0000     -10.272208      -279.5210
  16   2.0000      -8.079991      -219.8677
  17   2.0000      -8.077610      -219.8029
  18   2.0000      -6.038523      -164.3166
  19   2.0000      -6.036117      -164.2511
  20   2.0000      -6.034556      -164.2086
  21   2.0000      -6.032108      -164.1420
  22   2.0000      -6.030684      -164.1033
  23   2.0000      -6.028477      -164.0432
  24   2.0000      -1.002012       -27.2661
  25   2.0000      -0.977456       -26.5979
  26   2.0000      -0.911366       -24.7995
  27   2.0000      -0.910812       -24.7845
  28   2.0000      -0.866974       -23.5916
  29   2.0000      -0.854083       -23.2408
  30   2.0000      -0.840916       -22.8825
  31   2.0000      -0.815694       -22.1962
  32   2.0000      -0.784582       -21.3496
  33   2.0000      -0.770078       -20.9549
  34   2.0000      -0.711522       -19.3615
  35   2.0000      -0.700113       -19.0510
  36   2.0000      -0.690982       -18.8026
  37   2.0000      -0.654723       -17.8159
  38   2.0000      -0.645943       -17.5770
  39   2.0000      -0.615728       -16.7548
  40   2.0000      -0.592884       -16.1332
  41   2.0000      -0.567872       -15.4526
  42   2.0000      -0.560245       -15.2450
  43   2.0000      -0.559293       -15.2191
  44   2.0000      -0.538768       -14.6606
  45   2.0000      -0.523734       -14.2515
  46   2.0000      -0.519203       -14.1282
  47   2.0000      -0.513293       -13.9674
  48   2.0000      -0.503229       -13.6935
  49   2.0000      -0.494336       -13.4516
  50   2.0000      -0.488942       -13.3048
  51   2.0000      -0.480256       -13.0684
  52   2.0000      -0.468504       -12.7486
  53   2.0000      -0.465677       -12.6717
  54   2.0000      -0.460049       -12.5186
  55   2.0000      -0.450754       -12.2656
  56   2.0000      -0.443500       -12.0683
  57   2.0000      -0.441098       -12.0029
  58   2.0000      -0.432194       -11.7606
  59   2.0000      -0.425425       -11.5764
  60   2.0000      -0.423802       -11.5322
  61   2.0000      -0.415202       -11.2982
  62   2.0000      -0.411491       -11.1972
  63   2.0000      -0.338468        -9.2102
  64   2.0000      -0.328097        -8.9280
  65   2.0000      -0.322920        -8.7871
  66   2.0000      -0.300694        -8.1823
  67   0.0000       0.035384         0.9629
  68   0.0000       0.061505         1.6736
  69   0.0000       0.109331         2.9751
  70   0.0000       0.114940         3.1277
  71   0.0000       0.133008         3.6193

MULLIKEN ATOMIC CHARGES
-----------------------
   0 S :    0.101573
   1 C :   -0.118912
   2 C :   -0.099059
   3 C :    0.064734
   4 C :   -0.193478
   5 H :   -0.009370
   6 C :    0.089555
   7 H :    0.020910
   8 H :    0.041042
   9 C :   -0.053175
  10 H :    0.024629
  11 H :    0.032898
  12 C :   -0.054220
  13 H :    0.038424
  14 H :    0.026629
  15 H :    0.034206
  16 S :    0.113804
  17 C :   -0.093795
  18 C :   -0.050205
  19 C :   -0.037666
  20 C :   -0.151336
  21 H :    0.024679
  22 C :    0.083238
  23 H :    0.004733
  24 H :    0.025314
  25 C :   -0.062427
  26 H :    0.025174
  27 H :    0.021977
  28 C :   -0.021632
  29 H :    0.033606
  30 H :    0.022992
  31 H :    0.025685
  32 H :    0.025623
  33 H :    0.063849
Sum of atomic charges:    0.0000000

LOEWDIN ATOMIC CHARGES
----------------------
   0 S :    0.389929
   1 C :   -0.173236
   2 C :   -0.053530
   3 C :   -0.066350
   4 C :   -0.212185
   5 H :    0.021757
   6 C :   -0.025502
   7 H :    0.033239
   8 H :    0.032554
   9 C :   -0.040764
  10 H :    0.017705
  11 H :    0.032613
  12 C :   -0.063424
  13 H :    0.032997
  14 H :    0.029000
  15 H :    0.016124
  16 S :    0.408865
  17 C :   -0.189736
  18 C :   -0.075509
  19 C :   -0.046491
  20 C :   -0.202075
  21 H :    0.034404
  22 C :   -0.028198
  23 H :    0.026371
  24 H :    0.029234
  25 C :   -0.040300
  26 H :    0.023319
  27 H :    0.026618
  28 C :   -0.067004
  29 H :    0.030658
  30 H :    0.022967
  31 H :    0.027500
  32 H :    0.012074
  33 H :    0.036378

  Mayer bond orders larger than 0.100000
B(  0-S ,  1-C ) :   1.1297 B(  0-S ,  4-C ) :   1.1593 B(  1-C ,  2-C ) :   1.6080
B(  1-C , 32-H ) :   0.9815 B(  2-C ,  3-C ) :   1.2107 B(  2-C ,  6-C ) :   0.9931
B(  3-C ,  4-C ) :   1.5917 B(  3-C ,  5-H ) :   1.0002 B(  4-C , 20-C ) :   0.9946
B(  6-C ,  7-H ) :   0.9453 B(  6-C ,  8-H ) :   0.9412 B(  6-C ,  9-C ) :   1.0662
B(  9-C , 10-H ) :   0.9564 B(  9-C , 11-H ) :   0.9549 B(  9-C , 12-C ) :   1.0705
B( 12-C , 13-H ) :   0.9738 B( 12-C , 14-H ) :   0.9731 B( 12-C , 15-H ) :   0.9768
B( 16-S , 17-C ) :   1.1454 B( 16-S , 20-C ) :   1.1571 B( 17-C , 18-C ) :   1.6420
B( 17-C , 33-H ) :   0.9605 B( 18-C , 19-C ) :   1.2259 B( 18-C , 21-H ) :   0.9885
B( 19-C , 20-C ) :   1.5881 B( 19-C , 22-C ) :   1.0473 B( 22-C , 23-H ) :   0.9252
B( 22-C , 24-H ) :   0.9403 B( 22-C , 25-C ) :   1.0590 B( 25-C , 26-H ) :   0.9534
B( 25-C , 27-H ) :   0.9483 B( 25-C , 28-C ) :   1.1048 B( 28-C , 29-H ) :   0.9680
B( 28-C , 30-H ) :   0.9700 B( 28-C , 31-H ) :   0.9664

Dispersion correction           -0.014707457
FINAL SINGLE POINT ENERGY     -1339.875735067665

DIPOLE MOMENT
-------------
                                X             Y             Z
Electronic contribution:    -25.88136     -10.45871      -5.83739
Nuclear contribution   :     26.59694      10.55005       5.65163
                        -----------------------------------------
Total Dipole Moment    :      0.71558       0.09134      -0.18576
                        -----------------------------------------
Magnitude (a.u.)       :      0.74492
Magnitude (Debye)      :      1.89344

Rotational constants in cm-1:     0.016573     0.009803     0.007472
Rotational constants in MHz :   496.855958   293.889051   224.011484

                             ****ORCA TERMINATED NORMALLY****
TOTAL RUN TIME: 0 days 0 hours 0 minutes 22 seconds 11 msec
