                         Program Version 4.2.1 -  RELEASE  -
|  1> ! wB97X-D3 SP def2-SVP
|  2> %pal
|  3> nprocs 24
|  4> end
|  5>
|  6> * xyz 0 1
|  7> S 	 -49.2115 	 13.6709 	 -105.642
|  8> C 	 -50.975 	 13.5181 	 -105.679
|  9> C 	 -51.4451 	 12.4127 	 -104.898
| 10> C 	 -50.3177 	 11.9281 	 -104.101
| 11> C 	 -49.057 	 12.5197 	 -104.433
| 12> H 	 -50.3302 	 11.2148 	 -103.315
| 13> C 	 -52.838 	 11.8365 	 -104.816
| 14> H 	 -53.5992 	 12.5838 	 -104.779
| 15> H 	 -52.9159 	 11.4089 	 -103.869
| 16> C 	 -53.0413 	 10.7069 	 -105.777
| 17> H 	 -52.1079 	 10.1975 	 -105.757
| 18> H 	 -53.8135 	 9.98472 	 -105.486
| 19> C 	 -53.4545 	 10.9959 	 -107.289
| 20> H 	 -53.3697 	 10.072 	 -107.811
| 21> H 	 -54.496 	 11.3401 	 -107.331
| 22> H 	 -52.8364 	 11.687 	 -107.865
| 23> S 	 -46.7853 	 11.0252 	 -104.428
| 24> C 	 -45.5582 	 11.3382 	 -103.22
| 25> C 	 -45.9516 	 12.3376 	 -102.301
| 26> C 	 -47.2976 	 12.8756 	 -102.612
| 27> C 	 -47.7999 	 12.2755 	 -103.756
| 28> H 	 -45.3375 	 12.6642 	 -101.435
| 29> C 	 -47.9072 	 13.8504 	 -101.641
| 30> H 	 -48.4879 	 13.1929 	 -100.988
| 31> H 	 -48.5599 	 14.5054 	 -102.258
| 32> C 	 -46.95 	 14.7034 	 -100.792
| 33> H 	 -46.2088 	 15.1816 	 -101.455
| 34> H 	 -46.4574 	 14.0652 	 -100.104
| 35> C 	 -47.6438 	 15.8023 	 -99.9268
| 36> H 	 -48.0067 	 16.6536 	 -100.557
| 37> H 	 -47.1062 	 16.2435 	 -99.0336
| 38> H 	 -48.6409 	 15.5141 	 -99.4228
| 39> H 	 -51.6241 	 13.9589 	 -106.421
| 40> H 	 -44.6636 	 10.7948 	 -103.034
| 41> *
| 42>
| 43>                          ****END OF INPUT****

CARTESIAN COORDINATES (ANGSTROEM)
---------------------------------
  S    -49.211500   13.670900  -105.642000
  C    -50.975000   13.518100  -105.679000
  C    -51.445100   12.412700  -104.898000
  C    -50.317700   11.928100  -104.101000
  C    -49.057000   12.519700  -104.433000
  H    -50.330200   11.214800  -103.315000
  C    -52.838000   11.836500  -104.816000
  H    -53.599200   12.583800  -104.779000
  H    -52.915900   11.408900  -103.869000
  C    -53.041300   10.706900  -105.777000
  H    -52.107900   10.197500  -105.757000
  H    -53.813500    9.984720  -105.486000
  C    -53.454500   10.995900  -107.289000
  H    -53.369700   10.072000  -107.811000
  H    -54.496000   11.340100  -107.331000
  H    -52.836400   11.687000  -107.865000
  S    -46.785300   11.025200  -104.428000
  C    -45.558200   11.338200  -103.220000
  C    -45.951600   12.337600  -102.301000
  C    -47.297600   12.875600  -102.612000
  C    -47.799900   12.275500  -103.756000
  H    -45.337500   12.664200  -101.435000
  C    -47.907200   13.850400  -101.641000
  H    -48.487900   13.192900  -100.988000
  H    -48.559900   14.505400  -102.258000
  C    -46.950000   14.703400  -100.792000
  H    -46.208800   15.181600  -101.455000
  H    -46.457400   14.065200  -100.104000
  C    -47.643800   15.802300  -99.926800
  H    -48.006700   16.653600  -100.557000
  H    -47.106200   16.243500  -99.033600
  H    -48.640900   15.514100  -99.422800
  H    -51.624100   13.958900  -106.421000
  H    -44.663600   10.794800  -103.034000

 Total Charge           Charge          ....    0
 Multiplicity           Mult            ....    1
 Number of Electrons    NEL             ....  134
 Basis Dimension        Dim             ....  322

ORBITAL ENERGIES
----------------

  NO   OCC          E(Eh)            E(eV)
   0   2.0000     -88.969630     -2420.9867
   1   2.0000     -88.967535     -2420.9297
   2   2.0000     -10.323729      -280.9230
   3   2.0000     -10.322486      -280.8891
   4   2.0000     -10.317953      -280.7658
   5   2.0000     -10.316844      -280.7356
   6   2.0000     -10.310620      -280.5662
   7   2.0000     -10.307018      -280.4682
   8   2.0000     -10.299772      -280.2711
   9   2.0000     -10.296581      -280.1842
  10   2.0000     -10.296235      -280.1748
  11   2.0000     -10.294066      -280.1158
  12   2.0000     -10.293516      -280.1008
  13   2.0000     -10.285873      -279.8928
  14   2.0000     -10.285716      -279.8886
  15   2.0000     -10.276905      -279.6488
  16   2.0000      -8.084769      -219.9977
  17   2.0000      -8.082125      -219.9258
  18   2.0000      -6.043100      -164.4411
  19   2.0000      -6.040738      -164.3768
  20   2.0000      -6.039014      -164.3299
  21   2.0000      -6.036619      -164.2648
  22   2.0000      -6.035908      -164.2454
  23   2.0000      -6.032826      -164.1615
  24   2.0000      -1.003578       -27.3088
  25   2.0000      -0.976883       -26.5823
  26   2.0000      -0.916743       -24.9459
  27   2.0000      -0.908744       -24.7282
  28   2.0000      -0.861434       -23.4408
  29   2.0000      -0.845045       -22.9948
  30   2.0000      -0.842178       -22.9168
  31   2.0000      -0.804536       -21.8925
  32   2.0000      -0.789523       -21.4840
  33   2.0000      -0.771082       -20.9822
  34   2.0000      -0.708795       -19.2873
  35   2.0000      -0.702552       -19.1174
  36   2.0000      -0.691532       -18.8176
  37   2.0000      -0.652425       -17.7534
  38   2.0000      -0.643715       -17.5164
  39   2.0000      -0.612656       -16.6712
  40   2.0000      -0.591240       -16.0885
  41   2.0000      -0.574407       -15.6304
  42   2.0000      -0.570863       -15.5340
  43   2.0000      -0.546749       -14.8778
  44   2.0000      -0.541133       -14.7250
  45   2.0000      -0.521316       -14.1857
  46   2.0000      -0.516295       -14.0491
  47   2.0000      -0.509868       -13.8742
  48   2.0000      -0.501387       -13.6434
  49   2.0000      -0.495795       -13.4913
  50   2.0000      -0.486167       -13.2293
  51   2.0000      -0.473023       -12.8716
  52   2.0000      -0.467801       -12.7295
  53   2.0000      -0.462859       -12.5950
  54   2.0000      -0.457772       -12.4566
  55   2.0000      -0.450668       -12.2633
  56   2.0000      -0.443893       -12.0789
  57   2.0000      -0.438803       -11.9404
  58   2.0000      -0.432584       -11.7712
  59   2.0000      -0.426682       -11.6106
  60   2.0000      -0.424449       -11.5498
  61   2.0000      -0.415555       -11.3078
  62   2.0000      -0.412739       -11.2312
  63   2.0000      -0.332784        -9.0555
  64   2.0000      -0.326480        -8.8840
  65   2.0000      -0.313765        -8.5380
  66   2.0000      -0.311000        -8.4627
  67   0.0000       0.047085         1.2812
  68   0.0000       0.052341         1.4243
  69   0.0000       0.111956         3.0465
  70   0.0000       0.119512         3.2521
  71   0.0000       0.125994         3.4285

MULLIKEN ATOMIC CHARGES
-----------------------
   0 S :    0.141241
   1 C :   -0.117171
   2 C :   -0.136575
   3 C :    0.056618
   4 C :   -0.196822
   5 H :   -0.004284
   6 C :    0.157212
   7 H :    0.016851
   8 H :   -0.001718
   9 C :   -0.079366
  10 H :    0.023225
  11 H :    0.032644
  12 C :   -0.054180
  13 H :    0.028621
  14 H :    0.033342
  15 H :    0.028648
  16 S :    0.127692
  17 C :   -0.069178
  18 C :   -0.075384
  19 C :   -0.030652
  20 C :   -0.208467
  21 H :    0.038315
  22 C :    0.089164
  23 H :    0.044947
  24 H :    0.038884
  25 C :   -0.071418
  26 H :    0.047299
  27 H :    0.029891
  28 C :   -0.103745
  29 H :    0.039129
  30 H :    0.049598
  31 H :    0.031672
  32 H :    0.048127
  33 H :    0.045838
Sum of atomic charges:    0.0000000

LOEWDIN ATOMIC CHARGES
----------------------
   0 S :    0.446926
   1 C :   -0.204994
   2 C :   -0.047947
   3 C :   -0.058834
   4 C :   -0.234463
   5 H :    0.021263
   6 C :   -0.029560
   7 H :    0.027393
   8 H :    0.029805
   9 C :   -0.034382
  10 H :    0.023287
  11 H :    0.027794
  12 C :   -0.066386
  13 H :    0.024011
  14 H :    0.024575
  15 H :    0.020784
  16 S :    0.415167
  17 C :   -0.187025
  18 C :   -0.076197
  19 C :   -0.046807
  20 C :   -0.220835
  21 H :    0.035739
  22 C :   -0.030550
  23 H :    0.040885
  24 H :    0.036557
  25 C :   -0.040481
  26 H :    0.032299
  27 H :    0.018328
  28 C :   -0.087267
  29 H :    0.028232
  30 H :    0.033581
  31 H :    0.031472
  32 H :    0.023395
  33 H :    0.024235

  Mayer bond orders larger than 0.100000
B(  0-S ,  1-C ) :   1.1579 B(  0-S ,  4-C ) :   1.1907 B(  1-C ,  2-C ) :   1.5773
B(  1-C ,  4-C ) :   0.1049 B(  1-C , 32-H ) :   0.9657 B(  2-C ,  3-C ) :   1.2571
B(  2-C ,  6-C ) :   1.0308 B(  3-C ,  4-C ) :   1.5460 B(  3-C ,  5-H ) :   0.9940
B(  4-C , 20-C ) :   1.0096 B(  6-C ,  7-H ) :   0.9414 B(  6-C ,  8-H ) :   0.9193
B(  6-C ,  9-C ) :   1.0662 B(  9-C , 10-H ) :   0.9531 B(  9-C , 11-H ) :   0.9582
B(  9-C , 12-C ) :   1.0744 B( 12-C , 13-H ) :   0.9746 B( 12-C , 14-H ) :   0.9782
B( 12-C , 15-H ) :   0.9776 B( 16-S , 17-C ) :   1.1507 B( 16-S , 20-C ) :   1.1424
B( 17-C , 18-C ) :   1.6227 B( 17-C , 33-H ) :   0.9662 B( 18-C , 19-C ) :   1.2222
B( 18-C , 21-H ) :   0.9744 B( 19-C , 20-C ) :   1.6289 B( 19-C , 22-C ) :   1.0326
B( 22-C , 23-H ) :   0.9224 B( 22-C , 24-H ) :   0.9317 B( 22-C , 25-C ) :   1.0798
B( 25-C , 26-H ) :   0.9615 B( 25-C , 27-H ) :   0.9421 B( 25-C , 28-C ) :   1.0681
B( 28-C , 29-H ) :   0.9757 B( 28-C , 30-H ) :   0.9775 B( 28-C , 31-H ) :   0.9734

Dispersion correction           -0.013875307
FINAL SINGLE POINT ENERGY     -1339.863571536070

DIPOLE MOMENT
-------------
                                X             Y             Z
Electronic contribution:     15.05917      -4.48775      -9.82954
Nuclear contribution   :    -15.37000       4.41928      10.32230
                        -----------------------------------------
Total Dipole Moment    :     -0.31083      -0.06847       0.49276
                        -----------------------------------------
Magnitude (a.u.)       :      0.58661
Magnitude (Debye)      :      1.49105

Rotational constants in cm-1:     0.021121     0.007246     0.006154
Rotational constants in MHz :   633.188936   217.228065   184.481839

                             ****ORCA TERMINATED NORMALLY****
TOTAL RUN TIME: 0 days 0 hours 0 minutes 21 seconds 550 msec
