                         Program Version 4.2.1 -  RELEASE  -
|  1> ! wB97X-D3 SP def2-SVP
|  2> %pal
|  3> nprocs 24
|  4> end
|  5>
|  6> * xyz 0 1
|  7> S 	 -51.3625 	 -51.7948 	 -81.7856
|  8> C 	 -50.964 	 -53.4842 	 -81.8526
|  9> C 	 -51.6809 	 -54.269 	 -80.9841
| 10> C 	 -52.7401 	 -53.464 	 -80.3589
| 11> C 	 -52.7181 	 -52.1366 	 -80.718
| 12> H 	 -53.4513 	 -53.7599 	 -79.6408
| 13> C 	 -51.2964 	 -55.6232 	 -80.5289
| 14> H 	 -51.1037 	 -55.542 	 -79.4518
| 15> H 	 -50.3585 	 -55.8118 	 -80.9645
| 16> C 	 -52.2718 	 -56.6869 	 -81.0017
| 17> H 	 -53.1149 	 -56.7322 	 -80.2904
| 18> H 	 -52.8606 	 -56.4467 	 -81.887
| 19> C 	 -51.7133 	 -58.0958 	 -81.148
| 20> H 	 -51.5125 	 -58.4631 	 -80.1434
| 21> H 	 -52.5082 	 -58.8057 	 -81.4273
| 22> H 	 -50.8737 	 -58.1835 	 -81.8713
| 23> S 	 -53.3467 	 -50.3096 	 -78.7327
| 24> C 	 -54.6235 	 -49.2059 	 -78.9869
| 25> C 	 -55.1849 	 -49.3673 	 -80.2146
| 26> C 	 -54.6497 	 -50.439 	 -80.912
| 27> C 	 -53.5869 	 -51.0488 	 -80.2916
| 28> H 	 -55.9638 	 -48.7809 	 -80.6677
| 29> C 	 -54.9556 	 -50.715 	 -82.3517
| 30> H 	 -54.0438 	 -50.8987 	 -82.9456
| 31> H 	 -55.2137 	 -49.7732 	 -82.7805
| 32> C 	 -55.9601 	 -51.8951 	 -82.5589
| 33> H 	 -56.9047 	 -51.6013 	 -82.1608
| 34> H 	 -55.6725 	 -52.6939 	 -81.9386
| 35> C 	 -56.2249 	 -52.168 	 -84.0325
| 36> H 	 -56.6513 	 -51.2224 	 -84.4239
| 37> H 	 -56.8801 	 -52.9992 	 -84.0421
| 38> H 	 -55.4338 	 -52.4615 	 -84.6206
| 39> H 	 -50.0408 	 -53.7654 	 -82.3995
| 40> H 	 -54.8277 	 -48.4108 	 -78.2981
| 41> *
| 42>
| 43>                          ****END OF INPUT****

CARTESIAN COORDINATES (ANGSTROEM)
---------------------------------
  S    -51.362500  -51.794800  -81.785600
  C    -50.964000  -53.484200  -81.852600
  C    -51.680900  -54.269000  -80.984100
  C    -52.740100  -53.464000  -80.358900
  C    -52.718100  -52.136600  -80.718000
  H    -53.451300  -53.759900  -79.640800
  C    -51.296400  -55.623200  -80.528900
  H    -51.103700  -55.542000  -79.451800
  H    -50.358500  -55.811800  -80.964500
  C    -52.271800  -56.686900  -81.001700
  H    -53.114900  -56.732200  -80.290400
  H    -52.860600  -56.446700  -81.887000
  C    -51.713300  -58.095800  -81.148000
  H    -51.512500  -58.463100  -80.143400
  H    -52.508200  -58.805700  -81.427300
  H    -50.873700  -58.183500  -81.871300
  S    -53.346700  -50.309600  -78.732700
  C    -54.623500  -49.205900  -78.986900
  C    -55.184900  -49.367300  -80.214600
  C    -54.649700  -50.439000  -80.912000
  C    -53.586900  -51.048800  -80.291600
  H    -55.963800  -48.780900  -80.667700
  C    -54.955600  -50.715000  -82.351700
  H    -54.043800  -50.898700  -82.945600
  H    -55.213700  -49.773200  -82.780500
  C    -55.960100  -51.895100  -82.558900
  H    -56.904700  -51.601300  -82.160800
  H    -55.672500  -52.693900  -81.938600
  C    -56.224900  -52.168000  -84.032500
  H    -56.651300  -51.222400  -84.423900
  H    -56.880100  -52.999200  -84.042100
  H    -55.433800  -52.461500  -84.620600
  H    -50.040800  -53.765400  -82.399500
  H    -54.827700  -48.410800  -78.298100

 Total Charge           Charge          ....    0
 Multiplicity           Mult            ....    1
 Number of Electrons    NEL             ....  134
 Basis Dimension        Dim             ....  322

ORBITAL ENERGIES
----------------

  NO   OCC          E(Eh)            E(eV)
   0   2.0000     -88.962141     -2420.7829
   1   2.0000     -88.961787     -2420.7733
   2   2.0000     -10.326193      -280.9900
   3   2.0000     -10.316627      -280.7297
   4   2.0000     -10.313537      -280.6456
   5   2.0000     -10.311193      -280.5818
   6   2.0000     -10.301794      -280.3261
   7   2.0000     -10.293728      -280.1066
   8   2.0000     -10.289075      -279.9800
   9   2.0000     -10.288102      -279.9535
  10   2.0000     -10.285359      -279.8789
  11   2.0000     -10.284829      -279.8644
  12   2.0000     -10.281394      -279.7710
  13   2.0000     -10.279834      -279.7285
  14   2.0000     -10.274459      -279.5822
  15   2.0000     -10.265416      -279.3362
  16   2.0000      -8.078025      -219.8142
  17   2.0000      -8.076761      -219.7798
  18   2.0000      -6.036258      -164.2549
  19   2.0000      -6.035186      -164.2258
  20   2.0000      -6.032274      -164.1465
  21   2.0000      -6.031340      -164.1211
  22   2.0000      -6.029119      -164.0607
  23   2.0000      -6.027492      -164.0164
  24   2.0000      -1.011613       -27.5274
  25   2.0000      -0.987991       -26.8846
  26   2.0000      -0.917338       -24.9620
  27   2.0000      -0.906679       -24.6720
  28   2.0000      -0.870653       -23.6917
  29   2.0000      -0.855925       -23.2909
  30   2.0000      -0.848275       -23.0827
  31   2.0000      -0.817354       -22.2413
  32   2.0000      -0.782934       -21.3047
  33   2.0000      -0.769592       -20.9417
  34   2.0000      -0.708880       -19.2896
  35   2.0000      -0.703416       -19.1409
  36   2.0000      -0.690301       -18.7840
  37   2.0000      -0.665709       -18.1149
  38   2.0000      -0.648753       -17.6535
  39   2.0000      -0.617966       -16.8157
  40   2.0000      -0.601735       -16.3740
  41   2.0000      -0.571538       -15.5523
  42   2.0000      -0.561969       -15.2919
  43   2.0000      -0.556785       -15.1509
  44   2.0000      -0.530940       -14.4476
  45   2.0000      -0.526509       -14.3270
  46   2.0000      -0.518002       -14.0955
  47   2.0000      -0.513184       -13.9644
  48   2.0000      -0.507741       -13.8163
  49   2.0000      -0.503934       -13.7127
  50   2.0000      -0.491699       -13.3798
  51   2.0000      -0.477799       -13.0016
  52   2.0000      -0.471616       -12.8333
  53   2.0000      -0.465337       -12.6625
  54   2.0000      -0.460011       -12.5175
  55   2.0000      -0.449301       -12.2261
  56   2.0000      -0.443482       -12.0678
  57   2.0000      -0.436414       -11.8754
  58   2.0000      -0.432610       -11.7719
  59   2.0000      -0.429923       -11.6988
  60   2.0000      -0.419227       -11.4077
  61   2.0000      -0.410326       -11.1656
  62   2.0000      -0.408247       -11.1090
  63   2.0000      -0.334338        -9.0978
  64   2.0000      -0.330184        -8.9848
  65   2.0000      -0.319251        -8.6873
  66   2.0000      -0.310492        -8.4489
  67   0.0000       0.049718         1.3529
  68   0.0000       0.058274         1.5857
  69   0.0000       0.107716         2.9311
  70   0.0000       0.127623         3.4728
  71   0.0000       0.134824         3.6688

MULLIKEN ATOMIC CHARGES
-----------------------
   0 S :    0.106922
   1 C :   -0.137132
   2 C :   -0.114411
   3 C :    0.070212
   4 C :   -0.177146
   5 H :   -0.004824
   6 C :    0.136861
   7 H :    0.047002
   8 H :   -0.006990
   9 C :   -0.093962
  10 H :    0.018719
  11 H :    0.033810
  12 C :   -0.051159
  13 H :    0.024807
  14 H :    0.029496
  15 H :    0.048693
  16 S :    0.117489
  17 C :   -0.081301
  18 C :   -0.015723
  19 C :   -0.014726
  20 C :   -0.184964
  21 H :    0.008046
  22 C :    0.050196
  23 H :    0.016980
  24 H :   -0.003485
  25 C :   -0.040252
  26 H :    0.007400
  27 H :    0.015830
  28 C :    0.012181
  29 H :    0.030841
  30 H :    0.020276
  31 H :    0.015815
  32 H :    0.061385
  33 H :    0.053113
Sum of atomic charges:    0.0000000

LOEWDIN ATOMIC CHARGES
----------------------
   0 S :    0.402089
   1 C :   -0.201082
   2 C :   -0.059956
   3 C :   -0.050409
   4 C :   -0.190380
   5 H :    0.024458
   6 C :   -0.027473
   7 H :    0.041527
   8 H :    0.022991
   9 C :   -0.049522
  10 H :    0.025832
  11 H :    0.026940
  12 C :   -0.070387
  13 H :    0.025238
  14 H :    0.030204
  15 H :    0.027956
  16 S :    0.430707
  17 C :   -0.190068
  18 C :   -0.073679
  19 C :   -0.058573
  20 C :   -0.214175
  21 H :    0.031175
  22 C :   -0.032919
  23 H :    0.026637
  24 H :    0.020875
  25 C :   -0.026827
  26 H :    0.019415
  27 H :    0.016569
  28 C :   -0.052391
  29 H :    0.032104
  30 H :    0.023540
  31 H :    0.012327
  32 H :    0.030791
  33 H :    0.026466

  Mayer bond orders larger than 0.100000
B(  0-S ,  1-C ) :   1.1411 B(  0-S ,  4-C ) :   1.1437 B(  1-C ,  2-C ) :   1.6412
B(  1-C , 32-H ) :   0.9594 B(  2-C ,  3-C ) :   1.1844 B(  2-C ,  6-C ) :   1.0337
B(  3-C ,  4-C ) :   1.6383 B(  3-C ,  5-H ) :   1.0011 B(  4-C , 20-C ) :   0.9944
B(  6-C ,  7-H ) :   0.9338 B(  6-C ,  8-H ) :   0.9365 B(  6-C ,  9-C ) :   1.0316
B(  9-C , 10-H ) :   0.9476 B(  9-C , 11-H ) :   0.9635 B(  9-C , 12-C ) :   1.0982
B( 12-C , 13-H ) :   0.9711 B( 12-C , 14-H ) :   0.9707 B( 12-C , 15-H ) :   0.9759
B( 16-S , 17-C ) :   1.1869 B( 16-S , 20-C ) :   1.1579 B( 17-C , 18-C ) :   1.5456
B( 17-C , 20-C ) :   0.1023 B( 17-C , 33-H ) :   0.9705 B( 18-C , 19-C ) :   1.3022
B( 18-C , 21-H ) :   0.9929 B( 19-C , 20-C ) :   1.5790 B( 19-C , 22-C ) :   1.0380
B( 22-C , 23-H ) :   0.9389 B( 22-C , 24-H ) :   0.9360 B( 22-C , 25-C ) :   1.0421
B( 25-C , 26-H ) :   0.9533 B( 25-C , 27-H ) :   0.9600 B( 25-C , 28-C ) :   1.0787
B( 28-C , 29-H ) :   0.9729 B( 28-C , 30-H ) :   0.9720 B( 28-C , 31-H ) :   0.9770

Dispersion correction           -0.014225059
FINAL SINGLE POINT ENERGY     -1339.876649874906

DIPOLE MOMENT
-------------
                                X             Y             Z
Electronic contribution:      9.03983      21.66194      12.02120
Nuclear contribution   :     -9.19246     -22.00338     -12.07414
                        -----------------------------------------
Total Dipole Moment    :     -0.15263      -0.34144      -0.05294
                        -----------------------------------------
Magnitude (a.u.)       :      0.37773
Magnitude (Debye)      :      0.96012

Rotational constants in cm-1:     0.018933     0.008099     0.006869
Rotational constants in MHz :   567.596517   242.795780   205.912702

                             ****ORCA TERMINATED NORMALLY****
TOTAL RUN TIME: 0 days 0 hours 0 minutes 21 seconds 427 msec
