                         Program Version 4.2.1 -  RELEASE  -
|  1> ! wB97X-D3 SP def2-SVP
|  2> %pal
|  3> nprocs 24
|  4> end
|  5>
|  6> * xyz 0 1
|  7> S 	 -85.6265 	 -4.26218 	 -114.442
|  8> C 	 -85.0581 	 -4.34087 	 -116.098
|  9> C 	 -86.1596 	 -4.27702 	 -117.003
| 10> C 	 -87.3709 	 -3.97777 	 -116.322
| 11> C 	 -87.2709 	 -3.91504 	 -114.955
| 12> H 	 -88.2987 	 -3.8749 	 -116.861
| 13> C 	 -86.0532 	 -4.2627 	 -118.557
| 14> H 	 -86.466 	 -5.18647 	 -119.005
| 15> H 	 -85.0593 	 -4.23534 	 -118.998
| 16> C 	 -86.8605 	 -3.15723 	 -119.227
| 17> H 	 -86.9305 	 -3.22885 	 -120.33
| 18> H 	 -87.8791 	 -3.31832 	 -119.073
| 19> C 	 -86.7306 	 -1.76058 	 -118.702
| 20> H 	 -87.0482 	 -1.63926 	 -117.651
| 21> H 	 -85.7033 	 -1.29839 	 -118.597
| 22> H 	 -87.4699 	 -1.15483 	 -119.245
| 23> S 	 -88.638 	 -4.91765 	 -112.831
| 24> C 	 -90.1199 	 -4.22866 	 -112.375
| 25> C 	 -90.409 	 -3.07218 	 -113.185
| 26> C 	 -89.4199 	 -2.72993 	 -114.107
| 27> C 	 -88.3371 	 -3.66043 	 -114.014
| 28> H 	 -91.3264 	 -2.56055 	 -112.942
| 29> C 	 -89.4487 	 -1.5233 	 -115.071
| 30> H 	 -90.176 	 -1.68838 	 -115.898
| 31> H 	 -88.3322 	 -1.40922 	 -115.411
| 32> C 	 -89.987 	 -0.229808 	 -114.438
| 33> H 	 -90.9898 	 -0.397058 	 -114.096
| 34> H 	 -90.0701 	 0.531233 	 -115.195
| 35> C 	 -89.1816 	 0.239561 	 -113.295
| 36> H 	 -89.7683 	 0.886519 	 -112.702
| 37> H 	 -88.3061 	 0.786976 	 -113.629
| 38> H 	 -88.8143 	 -0.594067 	 -112.546
| 39> H 	 -84.0176 	 -4.4635 	 -116.379
| 40> H 	 -90.7151 	 -4.68132 	 -111.569
| 41> *
| 42>
| 43>                          ****END OF INPUT****

CARTESIAN COORDINATES (ANGSTROEM)
---------------------------------
  S    -85.626500   -4.262180  -114.442000
  C    -85.058100   -4.340870  -116.098000
  C    -86.159600   -4.277020  -117.003000
  C    -87.370900   -3.977770  -116.322000
  C    -87.270900   -3.915040  -114.955000
  H    -88.298700   -3.874900  -116.861000
  C    -86.053200   -4.262700  -118.557000
  H    -86.466000   -5.186470  -119.005000
  H    -85.059300   -4.235340  -118.998000
  C    -86.860500   -3.157230  -119.227000
  H    -86.930500   -3.228850  -120.330000
  H    -87.879100   -3.318320  -119.073000
  C    -86.730600   -1.760580  -118.702000
  H    -87.048200   -1.639260  -117.651000
  H    -85.703300   -1.298390  -118.597000
  H    -87.469900   -1.154830  -119.245000
  S    -88.638000   -4.917650  -112.831000
  C    -90.119900   -4.228660  -112.375000
  C    -90.409000   -3.072180  -113.185000
  C    -89.419900   -2.729930  -114.107000
  C    -88.337100   -3.660430  -114.014000
  H    -91.326400   -2.560550  -112.942000
  C    -89.448700   -1.523300  -115.071000
  H    -90.176000   -1.688380  -115.898000
  H    -88.332200   -1.409220  -115.411000
  C    -89.987000   -0.229808  -114.438000
  H    -90.989800   -0.397058  -114.096000
  H    -90.070100    0.531233  -115.195000
  C    -89.181600    0.239561  -113.295000
  H    -89.768300    0.886519  -112.702000
  H    -88.306100    0.786976  -113.629000
  H    -88.814300   -0.594067  -112.546000
  H    -84.017600   -4.463500  -116.379000
  H    -90.715100   -4.681320  -111.569000

 Total Charge           Charge          ....    0
 Multiplicity           Mult            ....    1
 Number of Electrons    NEL             ....  134
 Basis Dimension        Dim             ....  322

ORBITAL ENERGIES
----------------

  NO   OCC          E(Eh)            E(eV)
   0   2.0000     -88.969438     -2420.9815
   1   2.0000     -88.967108     -2420.9181
   2   2.0000     -10.327609      -281.0285
   3   2.0000     -10.326515      -280.9988
   4   2.0000     -10.321095      -280.8513
   5   2.0000     -10.319734      -280.8143
   6   2.0000     -10.309410      -280.5333
   7   2.0000     -10.308641      -280.5124
   8   2.0000     -10.304935      -280.4115
   9   2.0000     -10.297181      -280.2006
  10   2.0000     -10.296902      -280.1929
  11   2.0000     -10.292030      -280.0604
  12   2.0000     -10.280551      -279.7480
  13   2.0000     -10.280005      -279.7331
  14   2.0000     -10.276877      -279.6480
  15   2.0000     -10.271178      -279.4930
  16   2.0000      -8.084890      -220.0010
  17   2.0000      -8.081581      -219.9110
  18   2.0000      -6.042965      -164.4374
  19   2.0000      -6.040063      -164.3585
  20   2.0000      -6.039105      -164.3324
  21   2.0000      -6.036263      -164.2551
  22   2.0000      -6.036097      -164.2505
  23   2.0000      -6.032428      -164.1507
  24   2.0000      -1.006615       -27.3914
  25   2.0000      -0.982111       -26.7246
  26   2.0000      -0.914836       -24.8940
  27   2.0000      -0.912477       -24.8298
  28   2.0000      -0.866589       -23.5811
  29   2.0000      -0.855280       -23.2733
  30   2.0000      -0.843590       -22.9553
  31   2.0000      -0.807768       -21.9805
  32   2.0000      -0.785931       -21.3863
  33   2.0000      -0.771782       -21.0013
  34   2.0000      -0.704924       -19.1820
  35   2.0000      -0.694932       -18.9101
  36   2.0000      -0.692167       -18.8348
  37   2.0000      -0.653018       -17.7695
  38   2.0000      -0.639518       -17.4022
  39   2.0000      -0.626939       -17.0599
  40   2.0000      -0.597136       -16.2489
  41   2.0000      -0.560183       -15.2433
  42   2.0000      -0.556624       -15.1465
  43   2.0000      -0.551771       -15.0144
  44   2.0000      -0.542254       -14.7555
  45   2.0000      -0.532648       -14.4941
  46   2.0000      -0.525887       -14.3101
  47   2.0000      -0.509812       -13.8727
  48   2.0000      -0.501341       -13.6422
  49   2.0000      -0.496423       -13.5084
  50   2.0000      -0.490738       -13.3537
  51   2.0000      -0.478094       -13.0096
  52   2.0000      -0.469704       -12.7813
  53   2.0000      -0.464945       -12.6518
  54   2.0000      -0.455377       -12.3914
  55   2.0000      -0.446926       -12.1615
  56   2.0000      -0.443008       -12.0549
  57   2.0000      -0.435593       -11.8531
  58   2.0000      -0.433214       -11.7884
  59   2.0000      -0.422501       -11.4968
  60   2.0000      -0.419350       -11.4111
  61   2.0000      -0.416437       -11.3318
  62   2.0000      -0.398023       -10.8308
  63   2.0000      -0.344887        -9.3848
  64   2.0000      -0.336056        -9.1445
  65   2.0000      -0.330228        -8.9860
  66   2.0000      -0.284360        -7.7378
  67   0.0000       0.026943         0.7331
  68   0.0000       0.064457         1.7540
  69   0.0000       0.116328         3.1654
  70   0.0000       0.119760         3.2588
  71   0.0000       0.129553         3.5253

MULLIKEN ATOMIC CHARGES
-----------------------
   0 S :    0.109494
   1 C :   -0.126749
   2 C :   -0.085894
   3 C :    0.019170
   4 C :   -0.147972
   5 H :    0.013345
   6 C :    0.097889
   7 H :    0.033372
   8 H :    0.025455
   9 C :   -0.087645
  10 H :    0.026371
  11 H :   -0.002619
  12 C :   -0.052979
  13 H :    0.021038
  14 H :    0.035657
  15 H :    0.030585
  16 S :    0.128278
  17 C :   -0.120937
  18 C :   -0.062443
  19 C :   -0.016863
  20 C :   -0.160606
  21 H :    0.016924
  22 C :    0.032751
  23 H :    0.045047
  24 H :    0.070420
  25 C :   -0.056394
  26 H :    0.017657
  27 H :    0.025232
  28 C :   -0.060787
  29 H :    0.016870
  30 H :    0.030315
  31 H :    0.058670
  32 H :    0.054731
  33 H :    0.072617
Sum of atomic charges:   -0.0000000

LOEWDIN ATOMIC CHARGES
----------------------
   0 S :    0.403159
   1 C :   -0.196270
   2 C :   -0.058010
   3 C :   -0.061007
   4 C :   -0.199170
   5 H :    0.031817
   6 C :   -0.031127
   7 H :    0.037779
   8 H :    0.029270
   9 C :   -0.057309
  10 H :    0.031987
  11 H :    0.016252
  12 C :   -0.076240
  13 H :    0.025642
  14 H :    0.028002
  15 H :    0.029773
  16 S :    0.446935
  17 C :   -0.210974
  18 C :   -0.075355
  19 C :   -0.055522
  20 C :   -0.209802
  21 H :    0.027976
  22 C :   -0.034221
  23 H :    0.036611
  24 H :    0.045635
  25 C :   -0.045900
  26 H :    0.019139
  27 H :    0.025979
  28 C :   -0.071261
  29 H :    0.017969
  30 H :    0.023987
  31 H :    0.042456
  32 H :    0.028841
  33 H :    0.032957

  Mayer bond orders larger than 0.100000
B(  0-S ,  1-C ) :   1.1517 B(  0-S ,  4-C ) :   1.1483 B(  1-C ,  2-C ) :   1.5808
B(  1-C ,  4-C ) :   0.1034 B(  1-C , 32-H ) :   0.9712 B(  2-C ,  3-C ) :   1.2621
B(  2-C ,  6-C ) :   1.0105 B(  3-C ,  4-C ) :   1.5595 B(  3-C ,  5-H ) :   0.9948
B(  4-C , 20-C ) :   1.0312 B(  6-C ,  7-H ) :   0.9339 B(  6-C ,  8-H ) :   0.9538
B(  6-C ,  9-C ) :   1.0783 B(  9-C , 10-H ) :   0.9491 B(  9-C , 11-H ) :   0.9373
B(  9-C , 12-C ) :   1.0832 B( 12-C , 13-H ) :   0.9637 B( 12-C , 14-H ) :   0.9725
B( 12-C , 15-H ) :   0.9691 B( 16-S , 17-C ) :   1.2063 B( 16-S , 20-C ) :   1.1866
B( 17-C , 18-C ) :   1.5157 B( 17-C , 20-C ) :   0.1219 B( 17-C , 33-H ) :   0.9691
B( 18-C , 19-C ) :   1.2967 B( 18-C , 21-H ) :   0.9975 B( 19-C , 20-C ) :   1.5121
B( 19-C , 22-C ) :   1.0210 B( 22-C , 23-H ) :   0.9326 B( 22-C , 24-H ) :   0.9355
B( 22-C , 25-C ) :   1.0783 B( 25-C , 26-H ) :   0.9501 B( 25-C , 27-H ) :   0.9496
B( 25-C , 28-C ) :   1.0875 B( 28-C , 29-H ) :   0.9718 B( 28-C , 30-H ) :   0.9735
B( 28-C , 31-H ) :   0.9695

Dispersion correction           -0.015378983
FINAL SINGLE POINT ENERGY     -1339.867251608884

DIPOLE MOMENT
-------------
                                X             Y             Z
Electronic contribution:      5.94037     -20.13007      17.13056
Nuclear contribution   :     -6.39514      20.39185     -17.54164
                        -----------------------------------------
Total Dipole Moment    :     -0.45477       0.26179      -0.41108
                        -----------------------------------------
Magnitude (a.u.)       :      0.66658
Magnitude (Debye)      :      1.69432

Rotational constants in cm-1:     0.017984     0.009919     0.007505
Rotational constants in MHz :   539.160806   297.367140   224.999148

                             ****ORCA TERMINATED NORMALLY****
TOTAL RUN TIME: 0 days 0 hours 0 minutes 21 seconds 456 msec
