                         Program Version 4.2.1 -  RELEASE  -
|  1> ! wB97X-D3 SP def2-SVP
|  2> %pal
|  3> nprocs 24
|  4> end
|  5>
|  6> * xyz 0 1
|  7> S 	 -81.5353 	 -15.0405 	 -53.9871
|  8> C 	 -82.9831 	 -14.521 	 -53.2101
|  9> C 	 -84.0113 	 -15.3981 	 -53.5387
| 10> C 	 -83.6166 	 -16.4185 	 -54.3895
| 11> C 	 -82.3296 	 -16.2841 	 -54.8137
| 12> H 	 -84.2866 	 -17.2323 	 -54.7096
| 13> C 	 -85.4884 	 -15.3868 	 -53.051
| 14> H 	 -85.598 	 -14.5818 	 -52.4475
| 15> H 	 -85.7264 	 -16.1895 	 -52.2796
| 16> C 	 -86.6404 	 -15.5997 	 -54.0478
| 17> H 	 -86.4852 	 -14.8845 	 -54.8871
| 18> H 	 -86.5653 	 -16.6064 	 -54.4613
| 19> C 	 -88.022 	 -15.3992 	 -53.4258
| 20> H 	 -88.2677 	 -16.2478 	 -52.7766
| 21> H 	 -88.0832 	 -14.5642 	 -52.8346
| 22> H 	 -88.8569 	 -15.2613 	 -54.1196
| 23> S 	 -80.7199 	 -16.5243 	 -57.1795
| 24> C 	 -80.4033 	 -18.0663 	 -57.851
| 25> C 	 -80.884 	 -19.0285 	 -57.0569
| 26> C 	 -81.5883 	 -18.5198 	 -55.9188
| 27> C 	 -81.5488 	 -17.132 	 -55.7531
| 28> H 	 -80.7278 	 -20.0459 	 -57.2605
| 29> C 	 -82.3976 	 -19.446 	 -55.0679
| 30> H 	 -83.3498 	 -19.3109 	 -55.5672
| 31> H 	 -82.5541 	 -19.1168 	 -54.0119
| 32> C 	 -81.9345 	 -20.9371 	 -55.038
| 33> H 	 -81.951 	 -21.4042 	 -56.001
| 34> H 	 -82.7156 	 -21.5236 	 -54.4674
| 35> C 	 -80.6068 	 -21.2032 	 -54.3809
| 36> H 	 -79.8349 	 -20.6313 	 -54.9015
| 37> H 	 -80.3411 	 -22.3083 	 -54.4453
| 38> H 	 -80.4556 	 -20.8258 	 -53.3712
| 39> H 	 -83.1141 	 -13.6989 	 -52.552
| 40> H 	 -79.958 	 -18.2087 	 -58.8372
| 41> *
| 42>
| 43>                          ****END OF INPUT****

CARTESIAN COORDINATES (ANGSTROEM)
---------------------------------
  S    -81.535300  -15.040500  -53.987100
  C    -82.983100  -14.521000  -53.210100
  C    -84.011300  -15.398100  -53.538700
  C    -83.616600  -16.418500  -54.389500
  C    -82.329600  -16.284100  -54.813700
  H    -84.286600  -17.232300  -54.709600
  C    -85.488400  -15.386800  -53.051000
  H    -85.598000  -14.581800  -52.447500
  H    -85.726400  -16.189500  -52.279600
  C    -86.640400  -15.599700  -54.047800
  H    -86.485200  -14.884500  -54.887100
  H    -86.565300  -16.606400  -54.461300
  C    -88.022000  -15.399200  -53.425800
  H    -88.267700  -16.247800  -52.776600
  H    -88.083200  -14.564200  -52.834600
  H    -88.856900  -15.261300  -54.119600
  S    -80.719900  -16.524300  -57.179500
  C    -80.403300  -18.066300  -57.851000
  C    -80.884000  -19.028500  -57.056900
  C    -81.588300  -18.519800  -55.918800
  C    -81.548800  -17.132000  -55.753100
  H    -80.727800  -20.045900  -57.260500
  C    -82.397600  -19.446000  -55.067900
  H    -83.349800  -19.310900  -55.567200
  H    -82.554100  -19.116800  -54.011900
  C    -81.934500  -20.937100  -55.038000
  H    -81.951000  -21.404200  -56.001000
  H    -82.715600  -21.523600  -54.467400
  C    -80.606800  -21.203200  -54.380900
  H    -79.834900  -20.631300  -54.901500
  H    -80.341100  -22.308300  -54.445300
  H    -80.455600  -20.825800  -53.371200
  H    -83.114100  -13.698900  -52.552000
  H    -79.958000  -18.208700  -58.837200

 Total Charge           Charge          ....    0
 Multiplicity           Mult            ....    1
 Number of Electrons    NEL             ....  134
 Basis Dimension        Dim             ....  322

ORBITAL ENERGIES
----------------

  NO   OCC          E(Eh)            E(eV)
   0   2.0000     -88.967434     -2420.9269
   1   2.0000     -88.960348     -2420.7341
   2   2.0000     -10.326982      -281.0115
   3   2.0000     -10.325565      -280.9729
   4   2.0000     -10.314034      -280.6591
   5   2.0000     -10.311384      -280.5870
   6   2.0000     -10.301912      -280.3293
   7   2.0000     -10.299513      -280.2640
   8   2.0000     -10.293328      -280.0957
   9   2.0000     -10.290911      -280.0299
  10   2.0000     -10.290296      -280.0132
  11   2.0000     -10.289671      -279.9962
  12   2.0000     -10.288107      -279.9536
  13   2.0000     -10.285033      -279.8700
  14   2.0000     -10.279165      -279.7103
  15   2.0000     -10.274840      -279.5926
  16   2.0000      -8.083559      -219.9648
  17   2.0000      -8.075864      -219.7554
  18   2.0000      -6.041875      -164.4078
  19   2.0000      -6.037741      -164.2953
  20   2.0000      -6.034566      -164.2089
  21   2.0000      -6.034402      -164.2044
  22   2.0000      -6.030083      -164.0869
  23   2.0000      -6.026706      -163.9950
  24   2.0000      -1.016811       -27.6688
  25   2.0000      -0.996024       -27.1032
  26   2.0000      -0.911237       -24.7960
  27   2.0000      -0.910046       -24.7636
  28   2.0000      -0.873198       -23.7609
  29   2.0000      -0.855561       -23.2810
  30   2.0000      -0.845296       -23.0017
  31   2.0000      -0.820532       -22.3278
  32   2.0000      -0.787161       -21.4197
  33   2.0000      -0.773713       -21.0538
  34   2.0000      -0.712027       -19.3752
  35   2.0000      -0.700729       -19.0678
  36   2.0000      -0.695494       -18.9254
  37   2.0000      -0.653528       -17.7834
  38   2.0000      -0.644236       -17.5306
  39   2.0000      -0.629622       -17.1329
  40   2.0000      -0.603255       -16.4154
  41   2.0000      -0.577073       -15.7030
  42   2.0000      -0.564807       -15.3692
  43   2.0000      -0.557947       -15.1825
  44   2.0000      -0.531787       -14.4707
  45   2.0000      -0.524575       -14.2744
  46   2.0000      -0.520219       -14.1559
  47   2.0000      -0.509110       -13.8536
  48   2.0000      -0.507674       -13.8145
  49   2.0000      -0.501251       -13.6397
  50   2.0000      -0.492823       -13.4104
  51   2.0000      -0.481300       -13.0968
  52   2.0000      -0.477608       -12.9964
  53   2.0000      -0.469174       -12.7669
  54   2.0000      -0.466698       -12.6995
  55   2.0000      -0.452403       -12.3105
  56   2.0000      -0.443902       -12.0792
  57   2.0000      -0.436974       -11.8907
  58   2.0000      -0.432785       -11.7767
  59   2.0000      -0.427902       -11.6438
  60   2.0000      -0.421028       -11.4568
  61   2.0000      -0.415500       -11.3063
  62   2.0000      -0.403433       -10.9780
  63   2.0000      -0.350896        -9.5484
  64   2.0000      -0.334693        -9.1075
  65   2.0000      -0.324132        -8.8201
  66   2.0000      -0.295149        -8.0314
  67   0.0000       0.035829         0.9750
  68   0.0000       0.075089         2.0433
  69   0.0000       0.116866         3.1801
  70   0.0000       0.134098         3.6490
  71   0.0000       0.136890         3.7250

MULLIKEN ATOMIC CHARGES
-----------------------
   0 S :    0.129413
   1 C :   -0.104631
   2 C :   -0.071519
   3 C :   -0.004464
   4 C :   -0.146442
   5 H :    0.016409
   6 C :    0.081433
   7 H :   -0.027229
   8 H :    0.028863
   9 C :   -0.083972
  10 H :    0.038030
  11 H :    0.033901
  12 C :   -0.023291
  13 H :    0.028117
  14 H :    0.007725
  15 H :    0.035592
  16 S :    0.095991
  17 C :   -0.083849
  18 C :   -0.008737
  19 C :   -0.076529
  20 C :   -0.113790
  21 H :   -0.000620
  22 C :    0.029285
  23 H :    0.049045
  24 H :    0.047554
  25 C :   -0.071907
  26 H :    0.022803
  27 H :    0.030889
  28 C :   -0.056553
  29 H :    0.023865
  30 H :    0.048154
  31 H :    0.031192
  32 H :    0.030172
  33 H :    0.065101
Sum of atomic charges:    0.0000000

LOEWDIN ATOMIC CHARGES
----------------------
   0 S :    0.454311
   1 C :   -0.205994
   2 C :   -0.060475
   3 C :   -0.071191
   4 C :   -0.204031
   5 H :    0.035281
   6 C :   -0.031852
   7 H :    0.008127
   8 H :    0.038872
   9 C :   -0.040333
  10 H :    0.026593
  11 H :    0.022204
  12 C :   -0.060657
  13 H :    0.027954
  14 H :    0.013025
  15 H :    0.031783
  16 S :    0.413124
  17 C :   -0.185717
  18 C :   -0.079123
  19 C :   -0.052161
  20 C :   -0.215845
  21 H :    0.023952
  22 C :   -0.038342
  23 H :    0.037690
  24 H :    0.037476
  25 C :   -0.047131
  26 H :    0.018196
  27 H :    0.030896
  28 C :   -0.073524
  29 H :    0.023755
  30 H :    0.036479
  31 H :    0.025915
  32 H :    0.023448
  33 H :    0.037296

  Mayer bond orders larger than 0.100000
B(  0-S ,  1-C ) :   1.1512 B(  0-S ,  4-C ) :   1.1972 B(  1-C ,  2-C ) :   1.5789
B(  1-C ,  4-C ) :   0.1027 B(  1-C , 32-H ) :   0.9740 B(  2-C ,  3-C ) :   1.2829
B(  2-C ,  6-C ) :   1.0178 B(  3-C ,  4-C ) :   1.5390 B(  3-C ,  5-H ) :   0.9965
B(  4-C , 20-C ) :   1.0010 B(  6-C ,  7-H ) :   0.9361 B(  6-C ,  8-H ) :   0.9375
B(  6-C ,  9-C ) :   1.0533 B(  9-C , 10-H ) :   0.9596 B(  9-C , 11-H ) :   0.9518
B(  9-C , 12-C ) :   1.0838 B( 12-C , 13-H ) :   0.9733 B( 12-C , 14-H ) :   0.9748
B( 12-C , 15-H ) :   0.9732 B( 16-S , 17-C ) :   1.1822 B( 16-S , 20-C ) :   1.1288
B( 17-C , 18-C ) :   1.5765 B( 17-C , 33-H ) :   0.9629 B( 18-C , 19-C ) :   1.2565
B( 18-C , 21-H ) :   1.0025 B( 19-C , 20-C ) :   1.5870 B( 19-C , 22-C ) :   1.0277
B( 22-C , 23-H ) :   0.9232 B( 22-C , 24-H ) :   0.9406 B( 22-C , 25-C ) :   1.0790
B( 25-C , 26-H ) :   0.9451 B( 25-C , 27-H ) :   0.9507 B( 25-C , 28-C ) :   1.0840
B( 28-C , 29-H ) :   0.9703 B( 28-C , 30-H ) :   0.9725 B( 28-C , 31-H ) :   0.9711

Dispersion correction           -0.013868223
FINAL SINGLE POINT ENERGY     -1339.872579726516

DIPOLE MOMENT
-------------
                                X             Y             Z
Electronic contribution:     20.18903      15.01819      -9.22353
Nuclear contribution   :    -20.75435     -15.49261       9.32850
                        -----------------------------------------
Total Dipole Moment    :     -0.56532      -0.47442       0.10498
                        -----------------------------------------
Magnitude (a.u.)       :      0.74544
Magnitude (Debye)      :      1.89476

Rotational constants in cm-1:     0.018628     0.007820     0.006623
Rotational constants in MHz :   558.461438   234.424669   198.545684

                             ****ORCA TERMINATED NORMALLY****
TOTAL RUN TIME: 0 days 0 hours 0 minutes 22 seconds 592 msec
