                         Program Version 4.2.1 -  RELEASE  -
|  1> ! wB97X-D3 SP def2-SVP
|  2> %pal
|  3> nprocs 24
|  4> end
|  5>
|  6> * xyz 0 1
|  7> S 	 39.5568 	 -22.1043 	 -125.518
|  8> C 	 39.4023 	 -20.6849 	 -126.561
|  9> C 	 40.275 	 -19.6795 	 -126.283
| 10> C 	 41.1199 	 -20.0218 	 -125.202
| 11> C 	 40.9264 	 -21.2921 	 -124.622
| 12> H 	 41.8514 	 -19.2869 	 -124.826
| 13> C 	 40.273 	 -18.355 	 -127.007
| 14> H 	 39.3511 	 -18.3598 	 -127.603
| 15> H 	 41.0707 	 -18.3078 	 -127.712
| 16> C 	 40.3356 	 -17.0803 	 -126.144
| 17> H 	 41.2601 	 -17.1529 	 -125.589
| 18> H 	 40.2618 	 -16.1846 	 -126.8
| 19> C 	 39.2536 	 -17.0388 	 -124.954
| 20> H 	 38.3013 	 -17.3215 	 -125.436
| 21> H 	 39.598 	 -17.8291 	 -124.272
| 22> H 	 39.2047 	 -16.0231 	 -124.482
| 23> S 	 42.1688 	 -23.561 	 -123.691
| 24> C 	 42.7253 	 -23.636 	 -122.02
| 25> C 	 42.4071 	 -22.4729 	 -121.345
| 26> C 	 41.6561 	 -21.5045 	 -122.097
| 27> C 	 41.5499 	 -21.9005 	 -123.438
| 28> H 	 42.815 	 -22.2616 	 -120.315
| 29> C 	 41.0018 	 -20.3268 	 -121.452
| 30> H 	 41.2105 	 -19.4321 	 -121.992
| 31> H 	 41.4113 	 -20.2702 	 -120.485
| 32> C 	 39.4282 	 -20.3976 	 -121.339
| 33> H 	 39.1292 	 -21.3304 	 -120.763
| 34> H 	 39.0937 	 -20.453 	 -122.388
| 35> C 	 38.891 	 -19.1825 	 -120.517
| 36> H 	 39.1191 	 -18.1716 	 -120.959
| 37> H 	 39.3431 	 -19.2245 	 -119.572
| 38> H 	 37.8958 	 -19.0134 	 -120.358
| 39> H 	 38.6848 	 -20.5097 	 -127.381
| 40> H 	 43.1819 	 -24.5068 	 -121.557
| 41> *
| 42>
| 43>                          ****END OF INPUT****

CARTESIAN COORDINATES (ANGSTROEM)
---------------------------------
  S     39.556800  -22.104300  -125.518000
  C     39.402300  -20.684900  -126.561000
  C     40.275000  -19.679500  -126.283000
  C     41.119900  -20.021800  -125.202000
  C     40.926400  -21.292100  -124.622000
  H     41.851400  -19.286900  -124.826000
  C     40.273000  -18.355000  -127.007000
  H     39.351100  -18.359800  -127.603000
  H     41.070700  -18.307800  -127.712000
  C     40.335600  -17.080300  -126.144000
  H     41.260100  -17.152900  -125.589000
  H     40.261800  -16.184600  -126.800000
  C     39.253600  -17.038800  -124.954000
  H     38.301300  -17.321500  -125.436000
  H     39.598000  -17.829100  -124.272000
  H     39.204700  -16.023100  -124.482000
  S     42.168800  -23.561000  -123.691000
  C     42.725300  -23.636000  -122.020000
  C     42.407100  -22.472900  -121.345000
  C     41.656100  -21.504500  -122.097000
  C     41.549900  -21.900500  -123.438000
  H     42.815000  -22.261600  -120.315000
  C     41.001800  -20.326800  -121.452000
  H     41.210500  -19.432100  -121.992000
  H     41.411300  -20.270200  -120.485000
  C     39.428200  -20.397600  -121.339000
  H     39.129200  -21.330400  -120.763000
  H     39.093700  -20.453000  -122.388000
  C     38.891000  -19.182500  -120.517000
  H     39.119100  -18.171600  -120.959000
  H     39.343100  -19.224500  -119.572000
  H     37.895800  -19.013400  -120.358000
  H     38.684800  -20.509700  -127.381000
  H     43.181900  -24.506800  -121.557000

 Total Charge           Charge          ....    0
 Multiplicity           Mult            ....    1
 Number of Electrons    NEL             ....  134
 Basis Dimension        Dim             ....  322

ORBITAL ENERGIES
----------------

  NO   OCC          E(Eh)            E(eV)
   0   2.0000     -88.970538     -2421.0114
   1   2.0000     -88.966471     -2420.9008
   2   2.0000     -10.341628      -281.4100
   3   2.0000     -10.333177      -281.1800
   4   2.0000     -10.321666      -280.8668
   5   2.0000     -10.316071      -280.7146
   6   2.0000     -10.308293      -280.5029
   7   2.0000     -10.301771      -280.3255
   8   2.0000     -10.300641      -280.2947
   9   2.0000     -10.296988      -280.1953
  10   2.0000     -10.296502      -280.1821
  11   2.0000     -10.294253      -280.1209
  12   2.0000     -10.293522      -280.1010
  13   2.0000     -10.287526      -279.9378
  14   2.0000     -10.286723      -279.9160
  15   2.0000     -10.271767      -279.5090
  16   2.0000      -8.083475      -219.9625
  17   2.0000      -8.080477      -219.8810
  18   2.0000      -6.042133      -164.4148
  19   2.0000      -6.039028      -164.3303
  20   2.0000      -6.038271      -164.3097
  21   2.0000      -6.035103      -164.2235
  22   2.0000      -6.034116      -164.1966
  23   2.0000      -6.031215      -164.1177
  24   2.0000      -0.998505       -27.1707
  25   2.0000      -0.979732       -26.6599
  26   2.0000      -0.909041       -24.7363
  27   2.0000      -0.905292       -24.6342
  28   2.0000      -0.864441       -23.5226
  29   2.0000      -0.849120       -23.1057
  30   2.0000      -0.838886       -22.8272
  31   2.0000      -0.813482       -22.1360
  32   2.0000      -0.785048       -21.3622
  33   2.0000      -0.773136       -21.0381
  34   2.0000      -0.714072       -19.4309
  35   2.0000      -0.697840       -18.9892
  36   2.0000      -0.687917       -18.7192
  37   2.0000      -0.660538       -17.9742
  38   2.0000      -0.633246       -17.2315
  39   2.0000      -0.622395       -16.9362
  40   2.0000      -0.594841       -16.1865
  41   2.0000      -0.569391       -15.4939
  42   2.0000      -0.563689       -15.3388
  43   2.0000      -0.553161       -15.0523
  44   2.0000      -0.540615       -14.7109
  45   2.0000      -0.522726       -14.2241
  46   2.0000      -0.511842       -13.9279
  47   2.0000      -0.508344       -13.8327
  48   2.0000      -0.501784       -13.6542
  49   2.0000      -0.493868       -13.4388
  50   2.0000      -0.485309       -13.2059
  51   2.0000      -0.484304       -13.1786
  52   2.0000      -0.471137       -12.8203
  53   2.0000      -0.462104       -12.5745
  54   2.0000      -0.457090       -12.4380
  55   2.0000      -0.451765       -12.2932
  56   2.0000      -0.445622       -12.1260
  57   2.0000      -0.437114       -11.8945
  58   2.0000      -0.429855       -11.6970
  59   2.0000      -0.427193       -11.6245
  60   2.0000      -0.424084       -11.5399
  61   2.0000      -0.420821       -11.4511
  62   2.0000      -0.410353       -11.1663
  63   2.0000      -0.342048        -9.3076
  64   2.0000      -0.334502        -9.1022
  65   2.0000      -0.330497        -8.9933
  66   2.0000      -0.293715        -7.9924
  67   0.0000       0.024216         0.6590
  68   0.0000       0.059258         1.6125
  69   0.0000       0.105270         2.8646
  70   0.0000       0.114726         3.1219
  71   0.0000       0.124965         3.4005

MULLIKEN ATOMIC CHARGES
-----------------------
   0 S :    0.109486
   1 C :   -0.118498
   2 C :   -0.121446
   3 C :    0.035009
   4 C :   -0.156267
   5 H :    0.019844
   6 C :    0.108504
   7 H :    0.009941
   8 H :    0.037571
   9 C :   -0.119587
  10 H :    0.028427
  11 H :    0.047746
  12 C :   -0.078022
  13 H :    0.035665
  14 H :    0.046836
  15 H :    0.054943
  16 S :    0.097574
  17 C :   -0.090135
  18 C :   -0.059631
  19 C :   -0.030221
  20 C :   -0.178724
  21 H :    0.042856
  22 C :    0.115102
  23 H :    0.017499
  24 H :   -0.005075
  25 C :   -0.096222
  26 H :    0.045029
  27 H :    0.051782
  28 C :   -0.012258
  29 H :    0.019946
  30 H :    0.015917
  31 H :    0.014376
  32 H :    0.047572
  33 H :    0.064461
Sum of atomic charges:    0.0000000

LOEWDIN ATOMIC CHARGES
----------------------
   0 S :    0.371146
   1 C :   -0.189116
   2 C :   -0.075100
   3 C :   -0.061336
   4 C :   -0.177468
   5 H :    0.033293
   6 C :   -0.028295
   7 H :    0.028047
   8 H :    0.031427
   9 C :   -0.040964
  10 H :    0.017555
  11 H :    0.029272
  12 C :   -0.069513
  13 H :    0.024526
  14 H :    0.026913
  15 H :    0.032390
  16 S :    0.387901
  17 C :   -0.181462
  18 C :   -0.079056
  19 C :   -0.049726
  20 C :   -0.189861
  21 H :    0.040658
  22 C :   -0.024337
  23 H :    0.027729
  24 H :    0.020398
  25 C :   -0.029668
  26 H :    0.032327
  27 H :    0.026568
  28 C :   -0.066733
  29 H :    0.030621
  30 H :    0.019672
  31 H :    0.014905
  32 H :    0.033927
  33 H :    0.033360

  Mayer bond orders larger than 0.100000
B(  0-S ,  1-C ) :   1.1275 B(  0-S ,  4-C ) :   1.1224 B(  1-C ,  2-C ) :   1.6517
B(  1-C , 32-H ) :   0.9497 B(  2-C ,  3-C ) :   1.2425 B(  2-C ,  6-C ) :   1.0113
B(  3-C ,  4-C ) :   1.5816 B(  3-C ,  5-H ) :   0.9862 B(  4-C , 20-C ) :   1.0510
B(  6-C ,  7-H ) :   0.9368 B(  6-C ,  8-H ) :   0.9345 B(  6-C ,  9-C ) :   1.0699
B(  9-C , 10-H ) :   0.9581 B(  9-C , 11-H ) :   0.9588 B(  9-C , 12-C ) :   1.0607
B( 12-C , 13-H ) :   0.9806 B( 12-C , 14-H ) :   0.9713 B( 12-C , 15-H ) :   0.9764
B( 16-S , 17-C ) :   1.1472 B( 16-S , 20-C ) :   1.1348 B( 17-C , 18-C ) :   1.6191
B( 17-C , 33-H ) :   0.9664 B( 18-C , 19-C ) :   1.2455 B( 18-C , 21-H ) :   0.9719
B( 19-C , 20-C ) :   1.5780 B( 19-C , 22-C ) :   1.0585 B( 22-C , 23-H ) :   0.9266
B( 22-C , 24-H ) :   0.9248 B( 22-C , 25-C ) :   1.0529 B( 25-C , 26-H ) :   0.9576
B( 25-C , 27-H ) :   0.9590 B( 25-C , 28-C ) :   1.0676 B( 28-C , 29-H ) :   0.9720
B( 28-C , 30-H ) :   0.9742 B( 28-C , 31-H ) :   0.9761

Dispersion correction           -0.015294599
FINAL SINGLE POINT ENERGY     -1339.872745014037

DIPOLE MOMENT
-------------
                                X             Y             Z
Electronic contribution:      8.78275     -27.10545      -8.21742
Nuclear contribution   :     -8.80774      27.75495       8.48079
                        -----------------------------------------
Total Dipole Moment    :     -0.02500       0.64949       0.26337
                        -----------------------------------------
Magnitude (a.u.)       :      0.70131
Magnitude (Debye)      :      1.78258

Rotational constants in cm-1:     0.017640     0.009881     0.007433
Rotational constants in MHz :   528.825111   296.236632   222.824117

                             ****ORCA TERMINATED NORMALLY****
TOTAL RUN TIME: 0 days 0 hours 0 minutes 22 seconds 425 msec
