                         Program Version 4.2.1 -  RELEASE  -
|  1> ! wB97X-D3 SP def2-SVP
|  2> %pal
|  3> nprocs 24
|  4> end
|  5>
|  6> * xyz 0 1
|  7> S 	 -75.1528 	 -3.39643 	 5.68504
|  8> C 	 -73.9331 	 -2.61908 	 4.73891
|  9> C 	 -73.0913 	 -3.56799 	 4.10268
| 10> C 	 -73.6525 	 -4.87777 	 4.28107
| 11> C 	 -74.873 	 -4.89763 	 4.90475
| 12> H 	 -73.12 	 -5.76866 	 4.06218
| 13> C 	 -71.8909 	 -3.12084 	 3.18786
| 14> H 	 -72.0035 	 -2.0265 	 3.0541
| 15> H 	 -72.0418 	 -3.50578 	 2.16363
| 16> C 	 -70.4201 	 -3.4569 	 3.59438
| 17> H 	 -69.8153 	 -2.75162 	 2.91607
| 18> H 	 -70.1921 	 -3.06374 	 4.60305
| 19> C 	 -70.1168 	 -4.92291 	 3.35
| 20> H 	 -69.1254 	 -5.09185 	 3.7122
| 21> H 	 -70.7473 	 -5.5973 	 3.91866
| 22> H 	 -70.322 	 -5.17144 	 2.34915
| 23> S 	 -76.3994 	 -6.18763 	 6.66705
| 24> C 	 -77.2127 	 -7.68332 	 6.21775
| 25> C 	 -76.8376 	 -8.10611 	 4.94625
| 26> C 	 -75.896 	 -7.20464 	 4.29843
| 27> C 	 -75.6699 	 -6.10475 	 5.10974
| 28> H 	 -77.1562 	 -9.09875 	 4.47698
| 29> C 	 -75.3412 	 -7.51334 	 2.90268
| 30> H 	 -74.4267 	 -7.05056 	 2.7874
| 31> H 	 -76.0082 	 -7.06412 	 2.16334
| 32> C 	 -75.2949 	 -9.0677 	 2.5123
| 33> H 	 -76.2508 	 -9.55157 	 2.50487
| 34> H 	 -74.7612 	 -9.62144 	 3.2456
| 35> C 	 -74.575 	 -9.22806 	 1.13488
| 36> H 	 -73.5298 	 -9.10502 	 1.30637
| 37> H 	 -74.851 	 -8.41363 	 0.397642
| 38> H 	 -74.7538 	 -10.2723 	 0.702507
| 39> H 	 -73.6846 	 -1.57062 	 4.66858
| 40> H 	 -77.7225 	 -8.39197 	 6.83433
| 41> *
| 42>
| 43>                          ****END OF INPUT****

CARTESIAN COORDINATES (ANGSTROEM)
---------------------------------
  S    -75.152800   -3.396430    5.685040
  C    -73.933100   -2.619080    4.738910
  C    -73.091300   -3.567990    4.102680
  C    -73.652500   -4.877770    4.281070
  C    -74.873000   -4.897630    4.904750
  H    -73.120000   -5.768660    4.062180
  C    -71.890900   -3.120840    3.187860
  H    -72.003500   -2.026500    3.054100
  H    -72.041800   -3.505780    2.163630
  C    -70.420100   -3.456900    3.594380
  H    -69.815300   -2.751620    2.916070
  H    -70.192100   -3.063740    4.603050
  C    -70.116800   -4.922910    3.350000
  H    -69.125400   -5.091850    3.712200
  H    -70.747300   -5.597300    3.918660
  H    -70.322000   -5.171440    2.349150
  S    -76.399400   -6.187630    6.667050
  C    -77.212700   -7.683320    6.217750
  C    -76.837600   -8.106110    4.946250
  C    -75.896000   -7.204640    4.298430
  C    -75.669900   -6.104750    5.109740
  H    -77.156200   -9.098750    4.476980
  C    -75.341200   -7.513340    2.902680
  H    -74.426700   -7.050560    2.787400
  H    -76.008200   -7.064120    2.163340
  C    -75.294900   -9.067700    2.512300
  H    -76.250800   -9.551570    2.504870
  H    -74.761200   -9.621440    3.245600
  C    -74.575000   -9.228060    1.134880
  H    -73.529800   -9.105020    1.306370
  H    -74.851000   -8.413630    0.397642
  H    -74.753800  -10.272300    0.702507
  H    -73.684600   -1.570620    4.668580
  H    -77.722500   -8.391970    6.834330

 Total Charge           Charge          ....    0
 Multiplicity           Mult            ....    1
 Number of Electrons    NEL             ....  134
 Basis Dimension        Dim             ....  322

ORBITAL ENERGIES
----------------

  NO   OCC          E(Eh)            E(eV)
   0   2.0000     -88.968945     -2420.9681
   1   2.0000     -88.968280     -2420.9500
   2   2.0000     -10.325769      -280.9785
   3   2.0000     -10.324548      -280.9452
   4   2.0000     -10.315388      -280.6960
   5   2.0000     -10.312617      -280.6206
   6   2.0000     -10.306090      -280.4430
   7   2.0000     -10.306086      -280.4429
   8   2.0000     -10.301378      -280.3147
   9   2.0000     -10.301183      -280.3094
  10   2.0000     -10.296855      -280.1917
  11   2.0000     -10.294395      -280.1247
  12   2.0000     -10.291597      -280.0486
  13   2.0000     -10.289610      -279.9945
  14   2.0000     -10.288454      -279.9631
  15   2.0000     -10.274732      -279.5897
  16   2.0000      -8.084281      -219.9845
  17   2.0000      -8.083251      -219.9564
  18   2.0000      -6.042774      -164.4322
  19   2.0000      -6.041841      -164.4068
  20   2.0000      -6.038869      -164.3260
  21   2.0000      -6.037816      -164.2973
  22   2.0000      -6.034866      -164.2171
  23   2.0000      -6.033834      -164.1890
  24   2.0000      -1.011923       -27.5358
  25   2.0000      -0.984023       -26.7766
  26   2.0000      -0.906733       -24.6735
  27   2.0000      -0.903070       -24.5738
  28   2.0000      -0.868773       -23.6405
  29   2.0000      -0.853005       -23.2114
  30   2.0000      -0.842949       -22.9378
  31   2.0000      -0.814494       -22.1635
  32   2.0000      -0.782414       -21.2906
  33   2.0000      -0.770679       -20.9713
  34   2.0000      -0.712854       -19.3977
  35   2.0000      -0.700076       -19.0500
  36   2.0000      -0.695195       -18.9172
  37   2.0000      -0.656093       -17.8532
  38   2.0000      -0.636109       -17.3094
  39   2.0000      -0.620273       -16.8785
  40   2.0000      -0.594123       -16.1669
  41   2.0000      -0.570663       -15.5285
  42   2.0000      -0.565517       -15.3885
  43   2.0000      -0.544420       -14.8144
  44   2.0000      -0.534526       -14.5452
  45   2.0000      -0.524009       -14.2590
  46   2.0000      -0.521630       -14.1943
  47   2.0000      -0.507931       -13.8215
  48   2.0000      -0.506371       -13.7791
  49   2.0000      -0.499964       -13.6047
  50   2.0000      -0.489382       -13.3168
  51   2.0000      -0.477513       -12.9938
  52   2.0000      -0.469855       -12.7854
  53   2.0000      -0.465813       -12.6754
  54   2.0000      -0.459961       -12.5162
  55   2.0000      -0.458581       -12.4786
  56   2.0000      -0.442960       -12.0536
  57   2.0000      -0.440193       -11.9783
  58   2.0000      -0.435725       -11.8567
  59   2.0000      -0.430374       -11.7111
  60   2.0000      -0.426201       -11.5975
  61   2.0000      -0.419549       -11.4165
  62   2.0000      -0.409548       -11.1444
  63   2.0000      -0.353733        -9.6256
  64   2.0000      -0.332960        -9.0603
  65   2.0000      -0.325836        -8.8665
  66   2.0000      -0.282885        -7.6977
  67   0.0000       0.024578         0.6688
  68   0.0000       0.073840         2.0093
  69   0.0000       0.095106         2.5880
  70   0.0000       0.118580         3.2267
  71   0.0000       0.134017         3.6468

MULLIKEN ATOMIC CHARGES
-----------------------
   0 S :    0.126066
   1 C :   -0.116253
   2 C :   -0.072233
   3 C :   -0.012225
   4 C :   -0.116180
   5 H :    0.012299
   6 C :    0.009848
   7 H :    0.018545
   8 H :    0.034277
   9 C :   -0.088329
  10 H :    0.037877
  11 H :    0.034977
  12 C :    0.003275
  13 H :    0.033617
  14 H :    0.024384
  15 H :    0.018388
  16 S :    0.104453
  17 C :   -0.064804
  18 C :   -0.079146
  19 C :   -0.065974
  20 C :   -0.147691
  21 H :    0.045547
  22 C :    0.120914
  23 H :   -0.011913
  24 H :    0.042725
  25 C :   -0.093174
  26 H :    0.033156
  27 H :    0.025962
  28 C :   -0.073447
  29 H :    0.030223
  30 H :    0.042899
  31 H :    0.050921
  32 H :    0.043825
  33 H :    0.047190
Sum of atomic charges:   -0.0000000

LOEWDIN ATOMIC CHARGES
----------------------
   0 S :    0.427131
   1 C :   -0.208993
   2 C :   -0.057823
   3 C :   -0.070650
   4 C :   -0.204758
   5 H :    0.021527
   6 C :   -0.036620
   7 H :    0.029737
   8 H :    0.030404
   9 C :   -0.043412
  10 H :    0.032567
  11 H :    0.025123
  12 C :   -0.058337
  13 H :    0.027552
  14 H :    0.025406
  15 H :    0.020611
  16 S :    0.411028
  17 C :   -0.191258
  18 C :   -0.071862
  19 C :   -0.059094
  20 C :   -0.198235
  21 H :    0.042665
  22 C :   -0.018584
  23 H :    0.013466
  24 H :    0.040041
  25 C :   -0.034636
  26 H :    0.017815
  27 H :    0.019078
  28 C :   -0.071143
  29 H :    0.019990
  30 H :    0.031236
  31 H :    0.035772
  32 H :    0.027141
  33 H :    0.027115

  Mayer bond orders larger than 0.100000
B(  0-S ,  1-C ) :   1.1468 B(  0-S ,  4-C ) :   1.1565 B(  1-C ,  2-C ) :   1.5945
B(  1-C , 32-H ) :   0.9663 B(  2-C ,  3-C ) :   1.2617 B(  2-C ,  6-C ) :   1.0102
B(  3-C ,  4-C ) :   1.5501 B(  3-C ,  5-H ) :   0.9925 B(  4-C , 20-C ) :   1.0558
B(  6-C ,  7-H ) :   0.9445 B(  6-C ,  8-H ) :   0.9482 B(  6-C ,  9-C ) :   1.0646
B(  9-C , 10-H ) :   0.9536 B(  9-C , 11-H ) :   0.9571 B(  9-C , 12-C ) :   1.0711
B( 12-C , 13-H ) :   0.9699 B( 12-C , 14-H ) :   0.9735 B( 12-C , 15-H ) :   0.9734
B( 16-S , 17-C ) :   1.1330 B( 16-S , 20-C ) :   1.1437 B( 17-C , 18-C ) :   1.6336
B( 17-C , 33-H ) :   0.9656 B( 18-C , 19-C ) :   1.2396 B( 18-C , 21-H ) :   0.9678
B( 19-C , 20-C ) :   1.6149 B( 19-C , 22-C ) :   1.0332 B( 22-C , 23-H ) :   0.9366
B( 22-C , 24-H ) :   0.9216 B( 22-C , 25-C ) :   1.0590 B( 25-C , 26-H ) :   0.9526
B( 25-C , 27-H ) :   0.9626 B( 25-C , 28-C ) :   1.0743 B( 28-C , 29-H ) :   0.9776
B( 28-C , 30-H ) :   0.9744 B( 28-C , 31-H ) :   0.9744

Dispersion correction           -0.013557941
FINAL SINGLE POINT ENERGY     -1339.860237791209

DIPOLE MOMENT
-------------
                                X             Y             Z
Electronic contribution:    -19.50682      10.68412      22.47639
Nuclear contribution   :     20.01990     -11.04407     -22.96612
                        -----------------------------------------
Total Dipole Moment    :      0.51308      -0.35995      -0.48972
                        -----------------------------------------
Magnitude (a.u.)       :      0.79539
Magnitude (Debye)      :      2.02173

Rotational constants in cm-1:     0.015634     0.009531     0.006420
Rotational constants in MHz :   468.684502   285.729087   192.480319

                             ****ORCA TERMINATED NORMALLY****
TOTAL RUN TIME: 0 days 0 hours 0 minutes 20 seconds 51 msec
