                         Program Version 4.2.1 -  RELEASE  -
|  1> ! wB97X-D3 SP def2-SVP
|  2> %pal
|  3> nprocs 24
|  4> end
|  5>
|  6> * xyz 0 1
|  7> S 	 -120.107 	 48.1169 	 -35.4694
|  8> C 	 -120.93 	 46.7024 	 -34.8648
|  9> C 	 -122.119 	 46.9937 	 -34.2601
| 10> C 	 -122.33 	 48.3972 	 -34.2509
| 11> C 	 -121.248 	 49.1547 	 -34.5847
| 12> H 	 -123.117 	 48.8921 	 -33.7148
| 13> C 	 -123.151 	 45.947 	 -33.8678
| 14> H 	 -122.581 	 45.076 	 -33.6176
| 15> H 	 -123.842 	 45.7039 	 -34.6845
| 16> C 	 -123.956 	 46.1977 	 -32.5762
| 17> H 	 -124.633 	 47.039 	 -32.7011
| 18> H 	 -124.616 	 45.3966 	 -32.3403
| 19> C 	 -123.147 	 46.4167 	 -31.2514
| 20> H 	 -123.799 	 46.7503 	 -30.3532
| 21> H 	 -122.667 	 45.5064 	 -30.8828
| 22> H 	 -122.41 	 47.1543 	 -31.3506
| 23> S 	 -121.309 	 51.4567 	 -35.9534
| 24> C 	 -120.79 	 52.9107 	 -35.2223
| 25> C 	 -120.66 	 52.7317 	 -33.9021
| 26> C 	 -120.956 	 51.3994 	 -33.4233
| 27> C 	 -121.012 	 50.5717 	 -34.4884
| 28> H 	 -120.302 	 53.6386 	 -33.3409
| 29> C 	 -120.83 	 50.989 	 -31.9783
| 30> H 	 -119.797 	 50.6063 	 -32.0021
| 31> H 	 -121.612 	 50.1924 	 -31.8505
| 32> C 	 -120.982 	 51.9573 	 -30.8094
| 33> H 	 -120.235 	 52.7627 	 -30.8928
| 34> H 	 -120.779 	 51.4447 	 -29.8632
| 35> C 	 -122.369 	 52.6109 	 -30.6697
| 36> H 	 -123.136 	 51.8692 	 -30.4495
| 37> H 	 -122.555 	 53.1478 	 -31.5875
| 38> H 	 -122.259 	 53.3231 	 -29.8389
| 39> H 	 -120.504 	 45.7386 	 -34.9703
| 40> H 	 -120.609 	 53.8475 	 -35.7801
| 41> *
| 42>
| 43>                          ****END OF INPUT****

CARTESIAN COORDINATES (ANGSTROEM)
---------------------------------
  S    -120.107000   48.116900  -35.469400
  C    -120.930000   46.702400  -34.864800
  C    -122.119000   46.993700  -34.260100
  C    -122.330000   48.397200  -34.250900
  C    -121.248000   49.154700  -34.584700
  H    -123.117000   48.892100  -33.714800
  C    -123.151000   45.947000  -33.867800
  H    -122.581000   45.076000  -33.617600
  H    -123.842000   45.703900  -34.684500
  C    -123.956000   46.197700  -32.576200
  H    -124.633000   47.039000  -32.701100
  H    -124.616000   45.396600  -32.340300
  C    -123.147000   46.416700  -31.251400
  H    -123.799000   46.750300  -30.353200
  H    -122.667000   45.506400  -30.882800
  H    -122.410000   47.154300  -31.350600
  S    -121.309000   51.456700  -35.953400
  C    -120.790000   52.910700  -35.222300
  C    -120.660000   52.731700  -33.902100
  C    -120.956000   51.399400  -33.423300
  C    -121.012000   50.571700  -34.488400
  H    -120.302000   53.638600  -33.340900
  C    -120.830000   50.989000  -31.978300
  H    -119.797000   50.606300  -32.002100
  H    -121.612000   50.192400  -31.850500
  C    -120.982000   51.957300  -30.809400
  H    -120.235000   52.762700  -30.892800
  H    -120.779000   51.444700  -29.863200
  C    -122.369000   52.610900  -30.669700
  H    -123.136000   51.869200  -30.449500
  H    -122.555000   53.147800  -31.587500
  H    -122.259000   53.323100  -29.838900
  H    -120.504000   45.738600  -34.970300
  H    -120.609000   53.847500  -35.780100

 Total Charge           Charge          ....    0
 Multiplicity           Mult            ....    1
 Number of Electrons    NEL             ....  134
 Basis Dimension        Dim             ....  322

ORBITAL ENERGIES
----------------

  NO   OCC          E(Eh)            E(eV)
   0   2.0000     -88.960365     -2420.7346
   1   2.0000     -88.955710     -2420.6079
   2   2.0000     -10.324526      -280.9446
   3   2.0000     -10.316065      -280.7144
   4   2.0000     -10.309586      -280.5381
   5   2.0000     -10.309379      -280.5325
   6   2.0000     -10.304079      -280.3882
   7   2.0000     -10.299066      -280.2518
   8   2.0000     -10.295279      -280.1488
   9   2.0000     -10.294634      -280.1312
  10   2.0000     -10.291273      -280.0398
  11   2.0000     -10.289628      -279.9950
  12   2.0000     -10.289583      -279.9938
  13   2.0000     -10.286877      -279.9202
  14   2.0000     -10.280885      -279.7571
  15   2.0000     -10.277597      -279.6676
  16   2.0000      -8.075373      -219.7421
  17   2.0000      -8.072233      -219.6566
  18   2.0000      -6.033806      -164.1882
  19   2.0000      -6.030753      -164.1051
  20   2.0000      -6.029983      -164.0842
  21   2.0000      -6.026663      -163.9938
  22   2.0000      -6.026051      -163.9772
  23   2.0000      -6.022688      -163.8857
  24   2.0000      -1.015688       -27.6383
  25   2.0000      -0.990751       -26.9597
  26   2.0000      -0.911435       -24.8014
  27   2.0000      -0.908372       -24.7181
  28   2.0000      -0.874084       -23.7850
  29   2.0000      -0.851523       -23.1711
  30   2.0000      -0.842037       -22.9130
  31   2.0000      -0.818365       -22.2689
  32   2.0000      -0.785702       -21.3800
  33   2.0000      -0.775825       -21.1113
  34   2.0000      -0.712687       -19.3932
  35   2.0000      -0.697523       -18.9806
  36   2.0000      -0.692425       -18.8418
  37   2.0000      -0.650390       -17.6980
  38   2.0000      -0.645905       -17.5760
  39   2.0000      -0.622090       -16.9279
  40   2.0000      -0.596035       -16.2189
  41   2.0000      -0.563027       -15.3207
  42   2.0000      -0.557821       -15.1791
  43   2.0000      -0.553772       -15.0689
  44   2.0000      -0.545484       -14.8434
  45   2.0000      -0.540781       -14.7154
  46   2.0000      -0.523711       -14.2509
  47   2.0000      -0.513811       -13.9815
  48   2.0000      -0.501695       -13.6518
  49   2.0000      -0.499064       -13.5802
  50   2.0000      -0.490602       -13.3499
  51   2.0000      -0.474816       -12.9204
  52   2.0000      -0.473441       -12.8830
  53   2.0000      -0.466746       -12.7008
  54   2.0000      -0.460217       -12.5232
  55   2.0000      -0.445436       -12.1209
  56   2.0000      -0.440615       -11.9897
  57   2.0000      -0.439783       -11.9671
  58   2.0000      -0.431845       -11.7511
  59   2.0000      -0.424826       -11.5601
  60   2.0000      -0.421323       -11.4648
  61   2.0000      -0.416162       -11.3243
  62   2.0000      -0.409699       -11.1485
  63   2.0000      -0.337968        -9.1966
  64   2.0000      -0.329127        -8.9560
  65   2.0000      -0.322667        -8.7802
  66   2.0000      -0.303854        -8.2683
  67   0.0000       0.037507         1.0206
  68   0.0000       0.061135         1.6636
  69   0.0000       0.116818         3.1788
  70   0.0000       0.119667         3.2563
  71   0.0000       0.128174         3.4878

MULLIKEN ATOMIC CHARGES
-----------------------
   0 S :    0.098509
   1 C :   -0.104387
   2 C :   -0.097059
   3 C :    0.071499
   4 C :   -0.205144
   5 H :    0.008503
   6 C :    0.101894
   7 H :    0.010832
   8 H :    0.056476
   9 C :   -0.079681
  10 H :    0.024848
  11 H :    0.023544
  12 C :   -0.082031
  13 H :    0.039807
  14 H :    0.030480
  15 H :    0.029159
  16 S :    0.101445
  17 C :   -0.086495
  18 C :   -0.070379
  19 C :   -0.024722
  20 C :   -0.158089
  21 H :    0.033294
  22 C :    0.041037
  23 H :    0.060111
  24 H :    0.036514
  25 C :   -0.073625
  26 H :    0.023093
  27 H :    0.033051
  28 C :   -0.050923
  29 H :    0.036349
  30 H :    0.036741
  31 H :    0.037281
  32 H :    0.034273
  33 H :    0.063794
Sum of atomic charges:   -0.0000000

LOEWDIN ATOMIC CHARGES
----------------------
   0 S :    0.388923
   1 C :   -0.178297
   2 C :   -0.069436
   3 C :   -0.057338
   4 C :   -0.184573
   5 H :    0.027387
   6 C :   -0.025952
   7 H :    0.028758
   8 H :    0.040594
   9 C :   -0.043521
  10 H :    0.019236
  11 H :    0.023154
  12 C :   -0.069712
  13 H :    0.037198
  14 H :    0.023389
  15 H :    0.012815
  16 S :    0.414082
  17 C :   -0.197193
  18 C :   -0.089464
  19 C :   -0.052630
  20 C :   -0.209833
  21 H :    0.038749
  22 C :   -0.039951
  23 H :    0.048702
  24 H :    0.036270
  25 C :   -0.044183
  26 H :    0.021533
  27 H :    0.028837
  28 C :   -0.061708
  29 H :    0.024547
  30 H :    0.023589
  31 H :    0.029734
  32 H :    0.019103
  33 H :    0.037192

  Mayer bond orders larger than 0.100000
B(  0-S ,  1-C ) :   1.1454 B(  0-S ,  4-C ) :   1.1328 B(  1-C ,  2-C ) :   1.6277
B(  1-C ,  4-C ) :   0.1005 B(  1-C , 32-H ) :   0.9735 B(  2-C ,  3-C ) :   1.2164
B(  2-C ,  6-C ) :   1.0162 B(  3-C ,  4-C ) :   1.6236 B(  3-C ,  5-H ) :   0.9863
B(  4-C , 20-C ) :   1.0116 B(  6-C ,  7-H ) :   0.9367 B(  6-C ,  8-H ) :   0.9402
B(  6-C ,  9-C ) :   1.0723 B(  9-C , 10-H ) :   0.9554 B(  9-C , 11-H ) :   0.9562
B(  9-C , 12-C ) :   1.0691 B( 12-C , 13-H ) :   0.9750 B( 12-C , 14-H ) :   0.9760
B( 12-C , 15-H ) :   0.9788 B( 16-S , 17-C ) :   1.1417 B( 16-S , 20-C ) :   1.1523
B( 17-C , 18-C ) :   1.6590 B( 17-C , 33-H ) :   0.9632 B( 18-C , 19-C ) :   1.1715
B( 18-C , 21-H ) :   0.9808 B( 19-C , 20-C ) :   1.6403 B( 19-C , 22-C ) :   1.0275
B( 22-C , 23-H ) :   0.9350 B( 22-C , 24-H ) :   0.9286 B( 22-C , 25-C ) :   1.0910
B( 25-C , 26-H ) :   0.9468 B( 25-C , 27-H ) :   0.9524 B( 25-C , 28-C ) :   1.0789
B( 28-C , 29-H ) :   0.9754 B( 28-C , 30-H ) :   0.9769 B( 28-C , 31-H ) :   0.9750

Dispersion correction           -0.014620537
FINAL SINGLE POINT ENERGY     -1339.867546231227

DIPOLE MOMENT
-------------
                                X             Y             Z
Electronic contribution:     11.28367       3.74292     -26.55564
Nuclear contribution   :    -11.48919      -3.76981      27.18422
                        -----------------------------------------
Total Dipole Moment    :     -0.20552      -0.02689       0.62858
                        -----------------------------------------
Magnitude (a.u.)       :      0.66187
Magnitude (Debye)      :      1.68233

Rotational constants in cm-1:     0.017125     0.009809     0.007013
Rotational constants in MHz :   513.387731   294.077718   210.233653

                             ****ORCA TERMINATED NORMALLY****
TOTAL RUN TIME: 0 days 0 hours 0 minutes 22 seconds 95 msec
