                         Program Version 4.2.1 -  RELEASE  -
|  1> ! wB97X-D3 SP def2-SVP
|  2> %pal
|  3> nprocs 24
|  4> end
|  5>
|  6> * xyz 0 1
|  7> S 	 -45.4016 	 18.1905 	 27.7915
|  8> C 	 -45.6404 	 18.2558 	 26.0378
|  9> C 	 -46.5702 	 17.3505 	 25.5449
| 10> C 	 -47.14 	 16.6527 	 26.6603
| 11> C 	 -46.6462 	 16.9723 	 27.9204
| 12> H 	 -47.8998 	 15.9653 	 26.5642
| 13> C 	 -46.867 	 17.135 	 24.0567
| 14> H 	 -46.7999 	 16.1064 	 23.683
| 15> H 	 -45.9601 	 17.6567 	 23.612
| 16> C 	 -48.2501 	 17.7045 	 23.4548
| 17> H 	 -48.5866 	 18.6877 	 23.7789
| 18> H 	 -48.1191 	 17.8911 	 22.4139
| 19> C 	 -49.3706 	 16.6353 	 23.5252
| 20> H 	 -49.6724 	 16.4565 	 24.5517
| 21> H 	 -50.2339 	 16.9979 	 23.0313
| 22> H 	 -49.1517 	 15.6218 	 23.1611
| 23> S 	 -45.9046 	 16.2358 	 30.3871
| 24> C 	 -47.041 	 15.3141 	 31.4017
| 25> C 	 -48.2593 	 15.1289 	 30.7554
| 26> C 	 -48.3259 	 15.7555 	 29.4671
| 27> C 	 -47.1461 	 16.412 	 29.1548
| 28> H 	 -49.104 	 14.5369 	 31.182
| 29> C 	 -49.6703 	 15.8022 	 28.7988
| 30> H 	 -50.2692 	 14.907 	 29.1026
| 31> H 	 -49.5063 	 15.5926 	 27.7433
| 32> C 	 -50.494 	 17.0865 	 28.8777
| 33> H 	 -51.2992 	 16.9926 	 28.1604
| 34> H 	 -49.8577 	 17.921 	 28.5865
| 35> C 	 -51.1089 	 17.4202 	 30.2368
| 36> H 	 -50.3244 	 17.374 	 30.9647
| 37> H 	 -51.8764 	 16.6333 	 30.5035
| 38> H 	 -51.599 	 18.4096 	 30.2039
| 39> H 	 -45.1322 	 18.8836 	 25.3665
| 40> H 	 -46.7678 	 15.0809 	 32.4409
| 41> *
| 42>
| 43>                          ****END OF INPUT****

CARTESIAN COORDINATES (ANGSTROEM)
---------------------------------
  S    -45.401600   18.190500   27.791500
  C    -45.640400   18.255800   26.037800
  C    -46.570200   17.350500   25.544900
  C    -47.140000   16.652700   26.660300
  C    -46.646200   16.972300   27.920400
  H    -47.899800   15.965300   26.564200
  C    -46.867000   17.135000   24.056700
  H    -46.799900   16.106400   23.683000
  H    -45.960100   17.656700   23.612000
  C    -48.250100   17.704500   23.454800
  H    -48.586600   18.687700   23.778900
  H    -48.119100   17.891100   22.413900
  C    -49.370600   16.635300   23.525200
  H    -49.672400   16.456500   24.551700
  H    -50.233900   16.997900   23.031300
  H    -49.151700   15.621800   23.161100
  S    -45.904600   16.235800   30.387100
  C    -47.041000   15.314100   31.401700
  C    -48.259300   15.128900   30.755400
  C    -48.325900   15.755500   29.467100
  C    -47.146100   16.412000   29.154800
  H    -49.104000   14.536900   31.182000
  C    -49.670300   15.802200   28.798800
  H    -50.269200   14.907000   29.102600
  H    -49.506300   15.592600   27.743300
  C    -50.494000   17.086500   28.877700
  H    -51.299200   16.992600   28.160400
  H    -49.857700   17.921000   28.586500
  C    -51.108900   17.420200   30.236800
  H    -50.324400   17.374000   30.964700
  H    -51.876400   16.633300   30.503500
  H    -51.599000   18.409600   30.203900
  H    -45.132200   18.883600   25.366500
  H    -46.767800   15.080900   32.440900

 Total Charge           Charge          ....    0
 Multiplicity           Mult            ....    1
 Number of Electrons    NEL             ....  134
 Basis Dimension        Dim             ....  322

ORBITAL ENERGIES
----------------

  NO   OCC          E(Eh)            E(eV)
   0   2.0000     -88.971103     -2421.0268
   1   2.0000     -88.965342     -2420.8700
   2   2.0000     -10.328988      -281.0660
   3   2.0000     -10.328364      -281.0491
   4   2.0000     -10.323633      -280.9203
   5   2.0000     -10.313264      -280.6382
   6   2.0000     -10.308346      -280.5044
   7   2.0000     -10.304634      -280.4034
   8   2.0000     -10.303316      -280.3675
   9   2.0000     -10.301143      -280.3083
  10   2.0000     -10.294170      -280.1186
  11   2.0000     -10.293800      -280.1085
  12   2.0000     -10.286434      -279.9081
  13   2.0000     -10.283211      -279.8204
  14   2.0000     -10.278446      -279.6907
  15   2.0000     -10.277381      -279.6618
  16   2.0000      -8.085211      -220.0098
  17   2.0000      -8.079940      -219.8664
  18   2.0000      -6.043798      -164.4601
  19   2.0000      -6.039906      -164.3542
  20   2.0000      -6.038425      -164.3139
  21   2.0000      -6.035851      -164.2438
  22   2.0000      -6.034527      -164.2078
  23   2.0000      -6.030689      -164.1034
  24   2.0000      -1.005922       -27.3725
  25   2.0000      -0.979862       -26.6634
  26   2.0000      -0.910415       -24.7736
  27   2.0000      -0.902371       -24.5548
  28   2.0000      -0.869770       -23.6677
  29   2.0000      -0.853047       -23.2126
  30   2.0000      -0.845254       -23.0005
  31   2.0000      -0.812251       -22.1025
  32   2.0000      -0.783966       -21.3328
  33   2.0000      -0.772790       -21.0287
  34   2.0000      -0.711294       -19.3553
  35   2.0000      -0.707005       -19.2386
  36   2.0000      -0.686907       -18.6917
  37   2.0000      -0.668803       -18.1990
  38   2.0000      -0.639604       -17.4045
  39   2.0000      -0.618897       -16.8410
  40   2.0000      -0.594517       -16.1776
  41   2.0000      -0.570537       -15.5251
  42   2.0000      -0.553747       -15.0682
  43   2.0000      -0.548855       -14.9351
  44   2.0000      -0.542895       -14.7729
  45   2.0000      -0.531855       -14.4725
  46   2.0000      -0.514461       -13.9992
  47   2.0000      -0.503660       -13.7053
  48   2.0000      -0.500102       -13.6085
  49   2.0000      -0.496859       -13.5202
  50   2.0000      -0.487936       -13.2774
  51   2.0000      -0.481300       -13.0968
  52   2.0000      -0.473510       -12.8849
  53   2.0000      -0.466885       -12.7046
  54   2.0000      -0.463698       -12.6179
  55   2.0000      -0.447385       -12.1740
  56   2.0000      -0.445499       -12.1226
  57   2.0000      -0.439525       -11.9601
  58   2.0000      -0.436230       -11.8704
  59   2.0000      -0.428406       -11.6575
  60   2.0000      -0.419235       -11.4080
  61   2.0000      -0.415540       -11.3074
  62   2.0000      -0.412270       -11.2184
  63   2.0000      -0.355756        -9.6806
  64   2.0000      -0.336262        -9.1501
  65   2.0000      -0.330379        -8.9901
  66   2.0000      -0.281823        -7.6688
  67   0.0000       0.019211         0.5228
  68   0.0000       0.076578         2.0838
  69   0.0000       0.094084         2.5601
  70   0.0000       0.116634         3.1738
  71   0.0000       0.127856         3.4791

MULLIKEN ATOMIC CHARGES
-----------------------
   0 S :    0.115992
   1 C :   -0.103496
   2 C :   -0.058947
   3 C :    0.023053
   4 C :   -0.094048
   5 H :   -0.045718
   6 C :    0.028480
   7 H :    0.041418
   8 H :    0.027419
   9 C :   -0.039877
  10 H :    0.029827
  11 H :    0.022702
  12 C :   -0.054404
  13 H :    0.022349
  14 H :    0.026308
  15 H :    0.031424
  16 S :    0.081179
  17 C :   -0.105416
  18 C :   -0.033469
  19 C :   -0.072349
  20 C :   -0.119586
  21 H :    0.036318
  22 C :    0.048525
  23 H :    0.019669
  24 H :    0.012645
  25 C :   -0.041893
  26 H :    0.024075
  27 H :    0.035233
  28 C :   -0.057817
  29 H :    0.034148
  30 H :    0.027604
  31 H :    0.045305
  32 H :    0.022523
  33 H :    0.070823
Sum of atomic charges:   -0.0000000

LOEWDIN ATOMIC CHARGES
----------------------
   0 S :    0.397318
   1 C :   -0.181426
   2 C :   -0.058780
   3 C :   -0.054585
   4 C :   -0.197052
   5 H :    0.009535
   6 C :   -0.031496
   7 H :    0.034860
   8 H :    0.037672
   9 C :   -0.034862
  10 H :    0.027083
  11 H :    0.021977
  12 C :   -0.066963
  13 H :    0.020945
  14 H :    0.021885
  15 H :    0.026270
  16 S :    0.386325
  17 C :   -0.178970
  18 C :   -0.069532
  19 C :   -0.064613
  20 C :   -0.184060
  21 H :    0.039981
  22 C :   -0.036688
  23 H :    0.033567
  24 H :    0.027323
  25 C :   -0.036304
  26 H :    0.022817
  27 H :    0.028196
  28 C :   -0.066482
  29 H :    0.021166
  30 H :    0.026729
  31 H :    0.031038
  32 H :    0.015270
  33 H :    0.031856

  Mayer bond orders larger than 0.100000
B(  0-S ,  1-C ) :   1.1356 B(  0-S ,  4-C ) :   1.1272 B(  1-C ,  2-C ) :   1.6267
B(  1-C , 32-H ) :   0.9623 B(  2-C ,  3-C ) :   1.2408 B(  2-C ,  6-C ) :   1.0169
B(  3-C ,  4-C ) :   1.5718 B(  3-C ,  5-H ) :   1.0093 B(  4-C , 20-C ) :   1.0642
B(  6-C ,  7-H ) :   0.9481 B(  6-C ,  8-H ) :   0.9419 B(  6-C ,  9-C ) :   1.0468
B(  9-C , 10-H ) :   0.9600 B(  9-C , 11-H ) :   0.9576 B(  9-C , 12-C ) :   1.0745
B( 12-C , 13-H ) :   0.9775 B( 12-C , 14-H ) :   0.9722 B( 12-C , 15-H ) :   0.9761
B( 16-S , 17-C ) :   1.1458 B( 16-S , 20-C ) :   1.1345 B( 17-C , 18-C ) :   1.5954
B( 17-C , 20-C ) :   0.1013 B( 17-C , 33-H ) :   0.9677 B( 18-C , 19-C ) :   1.2452
B( 18-C , 21-H ) :   0.9818 B( 19-C , 20-C ) :   1.5957 B( 19-C , 22-C ) :   1.0477
B( 22-C , 23-H ) :   0.9276 B( 22-C , 24-H ) :   0.9256 B( 22-C , 25-C ) :   1.0783
B( 25-C , 26-H ) :   0.9514 B( 25-C , 27-H ) :   0.9524 B( 25-C , 28-C ) :   1.0816
B( 28-C , 29-H ) :   0.9768 B( 28-C , 30-H ) :   0.9743 B( 28-C , 31-H ) :   0.9729

Dispersion correction           -0.014552225
FINAL SINGLE POINT ENERGY     -1339.878110990703

DIPOLE MOMENT
-------------
                                X             Y             Z
Electronic contribution:     25.02820       0.99642      15.87433
Nuclear contribution   :    -25.62808      -1.12966     -16.32139
                        -----------------------------------------
Total Dipole Moment    :     -0.59988      -0.13324      -0.44706
                        -----------------------------------------
Magnitude (a.u.)       :      0.75992
Magnitude (Debye)      :      1.93155

Rotational constants in cm-1:     0.017836     0.009472     0.006953
Rotational constants in MHz :   534.704656   283.960074   208.438670

                             ****ORCA TERMINATED NORMALLY****
TOTAL RUN TIME: 0 days 0 hours 0 minutes 21 seconds 970 msec
