                         Program Version 4.2.1 -  RELEASE  -
|  1> ! wB97X-D3 SP def2-SVP
|  2> %pal
|  3> nprocs 24
|  4> end
|  5>
|  6> * xyz 0 1
|  7> S 	 -101.221 	 -1.64272 	 -114.704
|  8> C 	 -100.805 	 -2.75945 	 -115.988
|  9> C 	 -100.029 	 -2.20143 	 -116.963
| 10> C 	 -99.7957 	 -0.788913 	 -116.692
| 11> C 	 -100.479 	 -0.251757 	 -115.57
| 12> H 	 -99.1725 	 -0.164608 	 -117.426
| 13> C 	 -99.5814 	 -2.88239 	 -118.234
| 14> H 	 -99.4385 	 -3.95233 	 -117.963
| 15> H 	 -98.5695 	 -2.52083 	 -118.356
| 16> C 	 -100.536 	 -2.67097 	 -119.439
| 17> H 	 -100.649 	 -1.66785 	 -119.748
| 18> H 	 -100.091 	 -3.14254 	 -120.328
| 19> C 	 -101.941 	 -3.21935 	 -119.246
| 20> H 	 -102.053 	 -4.19386 	 -118.831
| 21> H 	 -102.396 	 -2.60436 	 -118.529
| 22> H 	 -102.409 	 -3.15705 	 -120.153
| 23> S 	 -98.7924 	 1.41758 	 -114.189
| 24> C 	 -99.1928 	 3.19066 	 -114.161
| 25> C 	 -100.322 	 3.43885 	 -114.865
| 26> C 	 -100.97 	 2.27298 	 -115.354
| 27> C 	 -100.293 	 1.09947 	 -115.064
| 28> H 	 -100.617 	 4.49201 	 -115.042
| 29> C 	 -102.222 	 2.29351 	 -116.125
| 30> H 	 -102.941 	 1.72534 	 -115.552
| 31> H 	 -102.09 	 1.61142 	 -116.991
| 32> C 	 -102.81 	 3.6246 	 -116.65
| 33> H 	 -102.026 	 4.10123 	 -117.305
| 34> H 	 -103.065 	 4.26149 	 -115.8
| 35> C 	 -103.963 	 3.45185 	 -117.623
| 36> H 	 -104.492 	 4.49328 	 -117.845
| 37> H 	 -104.819 	 2.78714 	 -117.303
| 38> H 	 -103.579 	 3.08152 	 -118.572
| 39> H 	 -101.246 	 -3.72184 	 -115.891
| 40> H 	 -98.4528 	 3.91419 	 -113.862
| 41> *
| 42>
| 43>                          ****END OF INPUT****

CARTESIAN COORDINATES (ANGSTROEM)
---------------------------------
  S    -101.221000   -1.642720  -114.704000
  C    -100.805000   -2.759450  -115.988000
  C    -100.029000   -2.201430  -116.963000
  C    -99.795700   -0.788913  -116.692000
  C    -100.479000   -0.251757  -115.570000
  H    -99.172500   -0.164608  -117.426000
  C    -99.581400   -2.882390  -118.234000
  H    -99.438500   -3.952330  -117.963000
  H    -98.569500   -2.520830  -118.356000
  C    -100.536000   -2.670970  -119.439000
  H    -100.649000   -1.667850  -119.748000
  H    -100.091000   -3.142540  -120.328000
  C    -101.941000   -3.219350  -119.246000
  H    -102.053000   -4.193860  -118.831000
  H    -102.396000   -2.604360  -118.529000
  H    -102.409000   -3.157050  -120.153000
  S    -98.792400    1.417580  -114.189000
  C    -99.192800    3.190660  -114.161000
  C    -100.322000    3.438850  -114.865000
  C    -100.970000    2.272980  -115.354000
  C    -100.293000    1.099470  -115.064000
  H    -100.617000    4.492010  -115.042000
  C    -102.222000    2.293510  -116.125000
  H    -102.941000    1.725340  -115.552000
  H    -102.090000    1.611420  -116.991000
  C    -102.810000    3.624600  -116.650000
  H    -102.026000    4.101230  -117.305000
  H    -103.065000    4.261490  -115.800000
  C    -103.963000    3.451850  -117.623000
  H    -104.492000    4.493280  -117.845000
  H    -104.819000    2.787140  -117.303000
  H    -103.579000    3.081520  -118.572000
  H    -101.246000   -3.721840  -115.891000
  H    -98.452800    3.914190  -113.862000

 Total Charge           Charge          ....    0
 Multiplicity           Mult            ....    1
 Number of Electrons    NEL             ....  134
 Basis Dimension        Dim             ....  322

ORBITAL ENERGIES
----------------

  NO   OCC          E(Eh)            E(eV)
   0   2.0000     -88.962945     -2420.8048
   1   2.0000     -88.961077     -2420.7540
   2   2.0000     -10.335431      -281.2414
   3   2.0000     -10.323413      -280.9144
   4   2.0000     -10.318534      -280.7816
   5   2.0000     -10.313705      -280.6502
   6   2.0000     -10.307439      -280.4797
   7   2.0000     -10.301864      -280.3280
   8   2.0000     -10.301623      -280.3214
   9   2.0000     -10.295836      -280.1639
  10   2.0000     -10.294691      -280.1328
  11   2.0000     -10.294485      -280.1272
  12   2.0000     -10.292375      -280.0698
  13   2.0000     -10.286843      -279.9192
  14   2.0000     -10.286485      -279.9095
  15   2.0000     -10.261716      -279.2355
  16   2.0000      -8.077169      -219.7909
  17   2.0000      -8.074829      -219.7273
  18   2.0000      -6.035728      -164.2405
  19   2.0000      -6.033411      -164.1775
  20   2.0000      -6.031739      -164.1320
  21   2.0000      -6.029573      -164.0730
  22   2.0000      -6.027912      -164.0278
  23   2.0000      -6.025459      -163.9611
  24   2.0000      -0.998887       -27.1811
  25   2.0000      -0.978366       -26.6227
  26   2.0000      -0.911482       -24.8027
  27   2.0000      -0.908009       -24.7082
  28   2.0000      -0.871375       -23.7113
  29   2.0000      -0.848957       -23.1013
  30   2.0000      -0.847772       -23.0690
  31   2.0000      -0.812688       -22.1144
  32   2.0000      -0.783591       -21.3226
  33   2.0000      -0.767307       -20.8795
  34   2.0000      -0.709769       -19.3138
  35   2.0000      -0.700650       -19.0657
  36   2.0000      -0.698720       -19.0131
  37   2.0000      -0.650171       -17.6921
  38   2.0000      -0.640848       -17.4384
  39   2.0000      -0.612586       -16.6693
  40   2.0000      -0.597266       -16.2524
  41   2.0000      -0.572415       -15.5762
  42   2.0000      -0.568899       -15.4805
  43   2.0000      -0.555629       -15.1194
  44   2.0000      -0.538677       -14.6581
  45   2.0000      -0.525278       -14.2935
  46   2.0000      -0.520578       -14.1657
  47   2.0000      -0.506283       -13.7767
  48   2.0000      -0.505501       -13.7554
  49   2.0000      -0.490265       -13.3408
  50   2.0000      -0.483932       -13.1685
  51   2.0000      -0.479363       -13.0441
  52   2.0000      -0.473999       -12.8982
  53   2.0000      -0.465570       -12.6688
  54   2.0000      -0.457363       -12.4455
  55   2.0000      -0.449461       -12.2305
  56   2.0000      -0.443419       -12.0660
  57   2.0000      -0.436186       -11.8692
  58   2.0000      -0.427890       -11.6435
  59   2.0000      -0.426674       -11.6104
  60   2.0000      -0.421265       -11.4632
  61   2.0000      -0.417400       -11.3580
  62   2.0000      -0.411031       -11.1847
  63   2.0000      -0.337198        -9.1756
  64   2.0000      -0.326403        -8.8819
  65   2.0000      -0.317231        -8.6323
  66   2.0000      -0.308937        -8.4066
  67   0.0000       0.040486         1.1017
  68   0.0000       0.046689         1.2705
  69   0.0000       0.111929         3.0457
  70   0.0000       0.118055         3.2125
  71   0.0000       0.131546         3.5796

MULLIKEN ATOMIC CHARGES
-----------------------
   0 S :    0.092297
   1 C :   -0.133780
   2 C :   -0.097151
   3 C :    0.013470
   4 C :   -0.184534
   5 H :    0.043545
   6 C :    0.076152
   7 H :    0.030460
   8 H :    0.024398
   9 C :   -0.046733
  10 H :    0.017129
  11 H :    0.026242
  12 C :   -0.001669
  13 H :    0.016342
  14 H :    0.027188
  15 H :    0.018025
  16 S :    0.092837
  17 C :   -0.090022
  18 C :   -0.049063
  19 C :   -0.015075
  20 C :   -0.157904
  21 H :    0.036168
  22 C :    0.056918
  23 H :    0.029598
  24 H :    0.025776
  25 C :   -0.072953
  26 H :    0.039820
  27 H :    0.042029
  28 C :   -0.089444
  29 H :    0.047332
  30 H :    0.042782
  31 H :    0.036402
  32 H :    0.045033
  33 H :    0.058387
Sum of atomic charges:   -0.0000000

LOEWDIN ATOMIC CHARGES
----------------------
   0 S :    0.381174
   1 C :   -0.181879
   2 C :   -0.073724
   3 C :   -0.058151
   4 C :   -0.197792
   5 H :    0.042268
   6 C :   -0.032096
   7 H :    0.036049
   8 H :    0.031248
   9 C :   -0.030673
  10 H :    0.020626
  11 H :    0.024650
  12 C :   -0.051045
  13 H :    0.020571
  14 H :    0.022391
  15 H :    0.018154
  16 S :    0.373145
  17 C :   -0.158108
  18 C :   -0.077084
  19 C :   -0.050781
  20 C :   -0.201485
  21 H :    0.041074
  22 C :   -0.043501
  23 H :    0.035799
  24 H :    0.037889
  25 C :   -0.047992
  26 H :    0.033921
  27 H :    0.023665
  28 C :   -0.075937
  29 H :    0.039437
  30 H :    0.027405
  31 H :    0.023191
  32 H :    0.019913
  33 H :    0.027680

  Mayer bond orders larger than 0.100000
B(  0-S ,  1-C ) :   1.1508 B(  0-S ,  4-C ) :   1.1286 B(  1-C ,  2-C ) :   1.5963
B(  1-C , 32-H ) :   0.9761 B(  2-C ,  3-C ) :   1.2427 B(  2-C ,  6-C ) :   1.0181
B(  3-C ,  4-C ) :   1.5795 B(  3-C ,  5-H ) :   0.9773 B(  4-C , 20-C ) :   1.0353
B(  6-C ,  7-H ) :   0.9444 B(  6-C ,  8-H ) :   0.9354 B(  6-C ,  9-C ) :   1.0629
B(  9-C , 10-H ) :   0.9559 B(  9-C , 11-H ) :   0.9578 B(  9-C , 12-C ) :   1.0775
B( 12-C , 13-H ) :   0.9754 B( 12-C , 14-H ) :   0.9723 B( 12-C , 15-H ) :   0.9698
B( 16-S , 17-C ) :   1.1412 B( 16-S , 20-C ) :   1.1312 B( 17-C , 18-C ) :   1.6283
B( 17-C , 33-H ) :   0.9629 B( 18-C , 19-C ) :   1.2342 B( 18-C , 21-H ) :   0.9813
B( 19-C , 20-C ) :   1.6141 B( 19-C , 22-C ) :   1.0479 B( 22-C , 23-H ) :   0.9167
B( 22-C , 24-H ) :   0.9190 B( 22-C , 25-C ) :   1.0732 B( 25-C , 26-H ) :   0.9537
B( 25-C , 27-H ) :   0.9487 B( 25-C , 28-C ) :   1.0795 B( 28-C , 29-H ) :   0.9724
B( 28-C , 30-H ) :   0.9746 B( 28-C , 31-H ) :   0.9753

Dispersion correction           -0.014287578
FINAL SINGLE POINT ENERGY     -1339.872245499948

DIPOLE MOMENT
-------------
                                X             Y             Z
Electronic contribution:     13.84783      -1.27354      23.52304
Nuclear contribution   :    -13.99038       1.43055     -24.28198
                        -----------------------------------------
Total Dipole Moment    :     -0.14255       0.15702      -0.75894
                        -----------------------------------------
Magnitude (a.u.)       :      0.78802
Magnitude (Debye)      :      2.00298

Rotational constants in cm-1:     0.017052     0.008687     0.006755
Rotational constants in MHz :   511.214676   260.428148   202.522948

                             ****ORCA TERMINATED NORMALLY****
TOTAL RUN TIME: 0 days 0 hours 0 minutes 21 seconds 198 msec
