                         Program Version 4.2.1 -  RELEASE  -
|  1> ! wB97X-D3 SP def2-SVP
|  2> %pal
|  3> nprocs 24
|  4> end
|  5>
|  6> * xyz 0 1
|  7> S 	 -55.0419 	 13.5652 	 24.6411
|  8> C 	 -54.0522 	 12.1481 	 24.2838
|  9> C 	 -52.7599 	 12.5162 	 23.8725
| 10> C 	 -52.5051 	 13.9433 	 24.0876
| 11> C 	 -53.6737 	 14.6386 	 24.3971
| 12> H 	 -51.5596 	 14.443 	 23.9423
| 13> C 	 -51.7141 	 11.4865 	 23.5379
| 14> H 	 -51.9722 	 10.5376 	 23.9191
| 15> H 	 -50.7981 	 11.6775 	 24.0512
| 16> C 	 -51.3726 	 11.4318 	 22.044
| 17> H 	 -50.669 	 10.6746 	 21.9451
| 18> H 	 -52.2072 	 11.0672 	 21.5036
| 19> C 	 -50.8449 	 12.8029 	 21.5195
| 20> H 	 -49.9867 	 13.1101 	 22.1953
| 21> H 	 -50.3771 	 12.7249 	 20.559
| 22> H 	 -51.4934 	 13.6529 	 21.6164
| 23> S 	 -55.2224 	 16.9414 	 23.8564
| 24> C 	 -54.5747 	 18.4672 	 24.4572
| 25> C 	 -53.4126 	 18.3032 	 25.1868
| 26> C 	 -52.9009 	 16.9697 	 25.1261
| 27> C 	 -53.8091 	 16.0791 	 24.5647
| 28> H 	 -52.9924 	 19.1912 	 25.7276
| 29> C 	 -51.6073 	 16.5768 	 25.8658
| 30> H 	 -51.7603 	 15.6031 	 26.215
| 31> H 	 -51.7243 	 17.2066 	 26.7823
| 32> C 	 -50.2173 	 16.8733 	 25.2241
| 33> H 	 -50.2344 	 17.9396 	 25.0174
| 34> H 	 -50.1115 	 16.2908 	 24.3265
| 35> C 	 -49.0107 	 16.5902 	 26.1375
| 36> H 	 -48.9848 	 17.2726 	 27.0073
| 37> H 	 -48.0409 	 16.7302 	 25.7269
| 38> H 	 -49.1578 	 15.7019 	 26.7383
| 39> H 	 -54.3859 	 11.1295 	 24.1844
| 40> H 	 -55.0725 	 19.421 	 24.5645
| 41> *
| 42>
| 43>                          ****END OF INPUT****

CARTESIAN COORDINATES (ANGSTROEM)
---------------------------------
  S    -55.041900   13.565200   24.641100
  C    -54.052200   12.148100   24.283800
  C    -52.759900   12.516200   23.872500
  C    -52.505100   13.943300   24.087600
  C    -53.673700   14.638600   24.397100
  H    -51.559600   14.443000   23.942300
  C    -51.714100   11.486500   23.537900
  H    -51.972200   10.537600   23.919100
  H    -50.798100   11.677500   24.051200
  C    -51.372600   11.431800   22.044000
  H    -50.669000   10.674600   21.945100
  H    -52.207200   11.067200   21.503600
  C    -50.844900   12.802900   21.519500
  H    -49.986700   13.110100   22.195300
  H    -50.377100   12.724900   20.559000
  H    -51.493400   13.652900   21.616400
  S    -55.222400   16.941400   23.856400
  C    -54.574700   18.467200   24.457200
  C    -53.412600   18.303200   25.186800
  C    -52.900900   16.969700   25.126100
  C    -53.809100   16.079100   24.564700
  H    -52.992400   19.191200   25.727600
  C    -51.607300   16.576800   25.865800
  H    -51.760300   15.603100   26.215000
  H    -51.724300   17.206600   26.782300
  C    -50.217300   16.873300   25.224100
  H    -50.234400   17.939600   25.017400
  H    -50.111500   16.290800   24.326500
  C    -49.010700   16.590200   26.137500
  H    -48.984800   17.272600   27.007300
  H    -48.040900   16.730200   25.726900
  H    -49.157800   15.701900   26.738300
  H    -54.385900   11.129500   24.184400
  H    -55.072500   19.421000   24.564500

 Total Charge           Charge          ....    0
 Multiplicity           Mult            ....    1
 Number of Electrons    NEL             ....  134
 Basis Dimension        Dim             ....  322

ORBITAL ENERGIES
----------------

  NO   OCC          E(Eh)            E(eV)
   0   2.0000     -88.969172     -2420.9743
   1   2.0000     -88.969021     -2420.9701
   2   2.0000     -10.333035      -281.1762
   3   2.0000     -10.331188      -281.1259
   4   2.0000     -10.317079      -280.7420
   5   2.0000     -10.316332      -280.7217
   6   2.0000     -10.306391      -280.4511
   7   2.0000     -10.306047      -280.4418
   8   2.0000     -10.300163      -280.2817
   9   2.0000     -10.297814      -280.2178
  10   2.0000     -10.292722      -280.0792
  11   2.0000     -10.292711      -280.0789
  12   2.0000     -10.284589      -279.8579
  13   2.0000     -10.279795      -279.7274
  14   2.0000     -10.278964      -279.7048
  15   2.0000     -10.278667      -279.6968
  16   2.0000      -8.083169      -219.9542
  17   2.0000      -8.082723      -219.9421
  18   2.0000      -6.041801      -164.4058
  19   2.0000      -6.041469      -164.3967
  20   2.0000      -6.037773      -164.2962
  21   2.0000      -6.037471      -164.2879
  22   2.0000      -6.033823      -164.1887
  23   2.0000      -6.033216      -164.1722
  24   2.0000      -1.000720       -27.2310
  25   2.0000      -0.977444       -26.5976
  26   2.0000      -0.914347       -24.8807
  27   2.0000      -0.905257       -24.6333
  28   2.0000      -0.866858       -23.5884
  29   2.0000      -0.852701       -23.2032
  30   2.0000      -0.839868       -22.8540
  31   2.0000      -0.814787       -22.1715
  32   2.0000      -0.786502       -21.4018
  33   2.0000      -0.773064       -21.0362
  34   2.0000      -0.712445       -19.3866
  35   2.0000      -0.708404       -19.2767
  36   2.0000      -0.698236       -19.0000
  37   2.0000      -0.658858       -17.9285
  38   2.0000      -0.638860       -17.3843
  39   2.0000      -0.617045       -16.7906
  40   2.0000      -0.589452       -16.0398
  41   2.0000      -0.573141       -15.5960
  42   2.0000      -0.564039       -15.3483
  43   2.0000      -0.548389       -14.9224
  44   2.0000      -0.542371       -14.7587
  45   2.0000      -0.531859       -14.4726
  46   2.0000      -0.516567       -14.0565
  47   2.0000      -0.512073       -13.9342
  48   2.0000      -0.502031       -13.6610
  49   2.0000      -0.496122       -13.5002
  50   2.0000      -0.492235       -13.3944
  51   2.0000      -0.476200       -12.9581
  52   2.0000      -0.469831       -12.7847
  53   2.0000      -0.462331       -12.5807
  54   2.0000      -0.454437       -12.3659
  55   2.0000      -0.451925       -12.2975
  56   2.0000      -0.443932       -12.0800
  57   2.0000      -0.439112       -11.9488
  58   2.0000      -0.435908       -11.8617
  59   2.0000      -0.429600       -11.6900
  60   2.0000      -0.422714       -11.5026
  61   2.0000      -0.418941       -11.4000
  62   2.0000      -0.417359       -11.3569
  63   2.0000      -0.350887        -9.5481
  64   2.0000      -0.332879        -9.0581
  65   2.0000      -0.329562        -8.9678
  66   2.0000      -0.287512        -7.8236
  67   0.0000       0.023845         0.6489
  68   0.0000       0.069982         1.9043
  69   0.0000       0.108278         2.9464
  70   0.0000       0.118169         3.2155
  71   0.0000       0.121933         3.3180

MULLIKEN ATOMIC CHARGES
-----------------------
   0 S :    0.110777
   1 C :   -0.104198
   2 C :   -0.097951
   3 C :    0.027337
   4 C :   -0.150712
   5 H :    0.002276
   6 C :    0.067097
   7 H :    0.001829
   8 H :    0.016710
   9 C :   -0.008781
  10 H :    0.008151
  11 H :    0.017968
  12 C :   -0.066344
  13 H :    0.014467
  14 H :    0.035662
  15 H :    0.051476
  16 S :    0.105954
  17 C :   -0.080685
  18 C :   -0.064796
  19 C :   -0.036540
  20 C :   -0.134751
  21 H :    0.040677
  22 C :    0.022836
  23 H :    0.017052
  24 H :    0.024846
  25 C :   -0.027761
  26 H :    0.029439
  27 H :    0.034407
  28 C :   -0.031679
  29 H :    0.010127
  30 H :    0.039497
  31 H :    0.022928
  32 H :    0.046940
  33 H :    0.055743
Sum of atomic charges:    0.0000000

LOEWDIN ATOMIC CHARGES
----------------------
   0 S :    0.398306
   1 C :   -0.195226
   2 C :   -0.051263
   3 C :   -0.060167
   4 C :   -0.188416
   5 H :    0.028724
   6 C :   -0.027633
   7 H :    0.023293
   8 H :    0.027079
   9 C :   -0.025547
  10 H :    0.015936
  11 H :    0.018161
  12 C :   -0.065690
  13 H :    0.027113
  14 H :    0.024411
  15 H :    0.024869
  16 S :    0.378661
  17 C :   -0.186801
  18 C :   -0.075516
  19 C :   -0.054767
  20 C :   -0.184059
  21 H :    0.041586
  22 C :   -0.030658
  23 H :    0.019028
  24 H :    0.036794
  25 C :   -0.031596
  26 H :    0.027349
  27 H :    0.019152
  28 C :   -0.071773
  29 H :    0.027779
  30 H :    0.024869
  31 H :    0.026846
  32 H :    0.027287
  33 H :    0.031867

  Mayer bond orders larger than 0.100000
B(  0-S ,  1-C ) :   1.1240 B(  0-S ,  4-C ) :   1.1479 B(  1-C ,  2-C ) :   1.6299
B(  1-C , 32-H ) :   0.9653 B(  2-C ,  3-C ) :   1.2154 B(  2-C ,  6-C ) :   1.0312
B(  3-C ,  4-C ) :   1.5666 B(  3-C ,  5-H ) :   0.9894 B(  4-C , 20-C ) :   1.0628
B(  6-C ,  7-H ) :   0.9397 B(  6-C ,  8-H ) :   0.9426 B(  6-C ,  9-C ) :   1.0753
B(  9-C , 10-H ) :   0.9524 B(  9-C , 11-H ) :   0.9534 B(  9-C , 12-C ) :   1.0727
B( 12-C , 13-H ) :   0.9715 B( 12-C , 14-H ) :   0.9732 B( 12-C , 15-H ) :   0.9719
B( 16-S , 17-C ) :   1.1330 B( 16-S , 20-C ) :   1.1171 B( 17-C , 18-C ) :   1.6567
B( 17-C , 33-H ) :   0.9584 B( 18-C , 19-C ) :   1.2230 B( 18-C , 21-H ) :   0.9759
B( 19-C , 20-C ) :   1.6128 B( 19-C , 22-C ) :   1.0264 B( 22-C , 23-H ) :   0.9352
B( 22-C , 24-H ) :   0.9401 B( 22-C , 25-C ) :   1.0539 B( 25-C , 26-H ) :   0.9529
B( 25-C , 27-H ) :   0.9551 B( 25-C , 28-C ) :   1.0834 B( 28-C , 29-H ) :   0.9674
B( 28-C , 30-H ) :   0.9759 B( 28-C , 31-H ) :   0.9719

Dispersion correction           -0.014554053
FINAL SINGLE POINT ENERGY     -1339.870900536514

DIPOLE MOMENT
-------------
                                X             Y             Z
Electronic contribution:    -29.16033       4.98838       1.23764
Nuclear contribution   :     29.87128      -5.05606      -1.05990
                        -----------------------------------------
Total Dipole Moment    :      0.71095      -0.06768       0.17774
                        -----------------------------------------
Magnitude (a.u.)       :      0.73595
Magnitude (Debye)      :      1.87065

Rotational constants in cm-1:     0.015861     0.010018     0.007173
Rotational constants in MHz :   475.492293   300.345373   215.042568

                             ****ORCA TERMINATED NORMALLY****
TOTAL RUN TIME: 0 days 0 hours 0 minutes 22 seconds 567 msec
