                         Program Version 4.2.1 -  RELEASE  -
|  1> ! wB97X-D3 SP def2-SVP
|  2> %pal
|  3> nprocs 24
|  4> end
|  5>
|  6> * xyz 0 1
|  7> S 	 -87.8409 	 -45.7483 	 -79.7567
|  8> C 	 -88.7002 	 -45.2598 	 -78.3339
|  9> C 	 -89.5843 	 -46.1294 	 -77.9055
| 10> C 	 -89.5046 	 -47.3865 	 -78.6334
| 11> C 	 -88.6082 	 -47.3315 	 -79.6941
| 12> H 	 -90.1086 	 -48.1985 	 -78.4238
| 13> C 	 -90.5246 	 -45.9283 	 -76.7241
| 14> H 	 -91.4812 	 -46.3944 	 -77.0248
| 15> H 	 -90.7067 	 -44.8265 	 -76.6882
| 16> C 	 -90.0222 	 -46.5305 	 -75.4076
| 17> H 	 -90.7702 	 -46.7419 	 -74.6465
| 18> H 	 -89.4824 	 -47.424 	 -75.6703
| 19> C 	 -89.04 	 -45.6707 	 -74.6523
| 20> H 	 -89.5101 	 -44.8627 	 -74.1667
| 21> H 	 -88.6066 	 -46.2927 	 -73.8898
| 22> H 	 -88.2535 	 -45.361 	 -75.2963
| 23> S 	 -89.4055 	 -48.2008 	 -82.1018
| 24> C 	 -88.5498 	 -49.4317 	 -82.9194
| 25> C 	 -87.6833 	 -50.1024 	 -82.0931
| 26> C 	 -87.6079 	 -49.4946 	 -80.8152
| 27> C 	 -88.3978 	 -48.3804 	 -80.699
| 28> H 	 -87.1579 	 -51.002 	 -82.3745
| 29> C 	 -86.5151 	 -49.9257 	 -79.8245
| 30> H 	 -86.446 	 -50.9283 	 -80.1058
| 31> H 	 -86.8393 	 -49.8857 	 -78.7096
| 32> C 	 -85.0972 	 -49.3076 	 -80.0289
| 33> H 	 -84.9706 	 -49.0158 	 -81.0368
| 34> H 	 -84.3087 	 -50.0725 	 -79.7283
| 35> C 	 -84.8966 	 -48.1095 	 -79.0978
| 36> H 	 -83.9074 	 -47.7297 	 -79.1225
| 37> H 	 -85.1815 	 -48.2877 	 -78.1043
| 38> H 	 -85.507 	 -47.331 	 -79.5602
| 39> H 	 -88.7249 	 -44.2799 	 -77.9883
| 40> H 	 -88.8779 	 -49.6914 	 -83.9284
| 41> *
| 42>
| 43>                          ****END OF INPUT****

CARTESIAN COORDINATES (ANGSTROEM)
---------------------------------
  S    -87.840900  -45.748300  -79.756700
  C    -88.700200  -45.259800  -78.333900
  C    -89.584300  -46.129400  -77.905500
  C    -89.504600  -47.386500  -78.633400
  C    -88.608200  -47.331500  -79.694100
  H    -90.108600  -48.198500  -78.423800
  C    -90.524600  -45.928300  -76.724100
  H    -91.481200  -46.394400  -77.024800
  H    -90.706700  -44.826500  -76.688200
  C    -90.022200  -46.530500  -75.407600
  H    -90.770200  -46.741900  -74.646500
  H    -89.482400  -47.424000  -75.670300
  C    -89.040000  -45.670700  -74.652300
  H    -89.510100  -44.862700  -74.166700
  H    -88.606600  -46.292700  -73.889800
  H    -88.253500  -45.361000  -75.296300
  S    -89.405500  -48.200800  -82.101800
  C    -88.549800  -49.431700  -82.919400
  C    -87.683300  -50.102400  -82.093100
  C    -87.607900  -49.494600  -80.815200
  C    -88.397800  -48.380400  -80.699000
  H    -87.157900  -51.002000  -82.374500
  C    -86.515100  -49.925700  -79.824500
  H    -86.446000  -50.928300  -80.105800
  H    -86.839300  -49.885700  -78.709600
  C    -85.097200  -49.307600  -80.028900
  H    -84.970600  -49.015800  -81.036800
  H    -84.308700  -50.072500  -79.728300
  C    -84.896600  -48.109500  -79.097800
  H    -83.907400  -47.729700  -79.122500
  H    -85.181500  -48.287700  -78.104300
  H    -85.507000  -47.331000  -79.560200
  H    -88.724900  -44.279900  -77.988300
  H    -88.877900  -49.691400  -83.928400

 Total Charge           Charge          ....    0
 Multiplicity           Mult            ....    1
 Number of Electrons    NEL             ....  134
 Basis Dimension        Dim             ....  322

ORBITAL ENERGIES
----------------

  NO   OCC          E(Eh)            E(eV)
   0   2.0000     -88.965011     -2420.8610
   1   2.0000     -88.961047     -2420.7532
   2   2.0000     -10.331072      -281.1228
   3   2.0000     -10.320555      -280.8366
   4   2.0000     -10.315552      -280.7004
   5   2.0000     -10.301153      -280.3086
   6   2.0000     -10.300454      -280.2896
   7   2.0000     -10.296554      -280.1835
   8   2.0000     -10.292827      -280.0821
   9   2.0000     -10.292558      -280.0747
  10   2.0000     -10.291421      -280.0438
  11   2.0000     -10.291108      -280.0353
  12   2.0000     -10.283972      -279.8411
  13   2.0000     -10.282037      -279.7885
  14   2.0000     -10.264379      -279.3079
  15   2.0000     -10.258843      -279.1573
  16   2.0000      -8.079640      -219.8582
  17   2.0000      -8.077397      -219.7971
  18   2.0000      -6.038229      -164.3086
  19   2.0000      -6.035654      -164.2385
  20   2.0000      -6.034235      -164.1999
  21   2.0000      -6.031620      -164.1287
  22   2.0000      -6.030229      -164.0909
  23   2.0000      -6.028370      -164.0403
  24   2.0000      -1.012155       -27.5421
  25   2.0000      -0.992240       -27.0002
  26   2.0000      -0.914532       -24.8857
  27   2.0000      -0.904171       -24.6037
  28   2.0000      -0.874001       -23.7828
  29   2.0000      -0.850741       -23.1498
  30   2.0000      -0.849913       -23.1273
  31   2.0000      -0.815232       -22.1836
  32   2.0000      -0.784508       -21.3475
  33   2.0000      -0.774596       -21.0778
  34   2.0000      -0.706710       -19.2306
  35   2.0000      -0.694266       -18.8919
  36   2.0000      -0.688601       -18.7378
  37   2.0000      -0.666599       -18.1391
  38   2.0000      -0.647925       -17.6309
  39   2.0000      -0.617718       -16.8090
  40   2.0000      -0.599273       -16.3071
  41   2.0000      -0.576436       -15.6856
  42   2.0000      -0.557946       -15.1825
  43   2.0000      -0.549378       -14.9493
  44   2.0000      -0.542194       -14.7538
  45   2.0000      -0.537349       -14.6220
  46   2.0000      -0.519897       -14.1471
  47   2.0000      -0.511106       -13.9079
  48   2.0000      -0.499746       -13.5988
  49   2.0000      -0.494547       -13.4573
  50   2.0000      -0.490299       -13.3417
  51   2.0000      -0.483587       -13.1591
  52   2.0000      -0.471943       -12.8422
  53   2.0000      -0.468808       -12.7569
  54   2.0000      -0.459689       -12.5088
  55   2.0000      -0.447026       -12.1642
  56   2.0000      -0.440491       -11.9864
  57   2.0000      -0.435028       -11.8377
  58   2.0000      -0.431786       -11.7495
  59   2.0000      -0.429957       -11.6997
  60   2.0000      -0.424121       -11.5409
  61   2.0000      -0.415567       -11.3081
  62   2.0000      -0.401043       -10.9129
  63   2.0000      -0.336205        -9.1486
  64   2.0000      -0.327937        -8.9236
  65   2.0000      -0.323950        -8.8151
  66   2.0000      -0.317030        -8.6268
  67   0.0000       0.047477         1.2919
  68   0.0000       0.057555         1.5661
  69   0.0000       0.115149         3.1334
  70   0.0000       0.119588         3.2542
  71   0.0000       0.132056         3.5934

MULLIKEN ATOMIC CHARGES
-----------------------
   0 S :    0.116806
   1 C :   -0.083583
   2 C :   -0.123004
   3 C :    0.080433
   4 C :   -0.150460
   5 H :   -0.017506
   6 C :    0.070980
   7 H :    0.029393
   8 H :    0.024104
   9 C :   -0.053525
  10 H :    0.031581
  11 H :    0.022991
  12 C :   -0.021724
  13 H :    0.021164
  14 H :    0.022256
  15 H :    0.021304
  16 S :    0.116094
  17 C :   -0.094559
  18 C :   -0.034582
  19 C :   -0.023219
  20 C :   -0.201043
  21 H :    0.019256
  22 C :    0.063919
  23 H :   -0.000597
  24 H :    0.046112
  25 C :   -0.065287
  26 H :    0.023054
  27 H :    0.034538
  28 C :   -0.007543
  29 H :    0.018226
  30 H :    0.020479
  31 H :    0.015251
  32 H :    0.016843
  33 H :    0.061849
Sum of atomic charges:   -0.0000000

LOEWDIN ATOMIC CHARGES
----------------------
   0 S :    0.412970
   1 C :   -0.189347
   2 C :   -0.068198
   3 C :   -0.042869
   4 C :   -0.193100
   5 H :    0.018327
   6 C :   -0.030190
   7 H :    0.033839
   8 H :    0.031102
   9 C :   -0.039720
  10 H :    0.026000
  11 H :    0.024139
  12 C :   -0.054514
  13 H :    0.016602
  14 H :    0.026301
  15 H :    0.018866
  16 S :    0.432477
  17 C :   -0.189876
  18 C :   -0.075805
  19 C :   -0.057063
  20 C :   -0.210130
  21 H :    0.032567
  22 C :   -0.031376
  23 H :    0.020044
  24 H :    0.040929
  25 C :   -0.032568
  26 H :    0.018840
  27 H :    0.027608
  28 C :   -0.060134
  29 H :    0.018701
  30 H :    0.015375
  31 H :    0.015860
  32 H :    0.016280
  33 H :    0.028064

  Mayer bond orders larger than 0.100000
B(  0-S ,  1-C ) :   1.1236 B(  0-S ,  4-C ) :   1.1436 B(  1-C ,  2-C ) :   1.6898
B(  1-C , 32-H ) :   0.9586 B(  2-C ,  3-C ) :   1.1996 B(  2-C ,  6-C ) :   1.0224
B(  3-C ,  4-C ) :   1.6129 B(  3-C ,  5-H ) :   1.0067 B(  4-C , 20-C ) :   0.9975
B(  6-C ,  7-H ) :   0.9352 B(  6-C ,  8-H ) :   0.9442 B(  6-C ,  9-C ) :   1.0537
B(  9-C , 10-H ) :   0.9578 B(  9-C , 11-H ) :   0.9565 B(  9-C , 12-C ) :   1.0915
B( 12-C , 13-H ) :   0.9763 B( 12-C , 14-H ) :   0.9710 B( 12-C , 15-H ) :   0.9736
B( 16-S , 17-C ) :   1.1836 B( 16-S , 20-C ) :   1.1639 B( 17-C , 18-C ) :   1.5750
B( 17-C , 33-H ) :   0.9677 B( 18-C , 19-C ) :   1.2503 B( 18-C , 21-H ) :   0.9946
B( 19-C , 20-C ) :   1.6058 B( 19-C , 22-C ) :   1.0451 B( 22-C , 23-H ) :   0.9202
B( 22-C , 24-H ) :   0.9426 B( 22-C , 25-C ) :   1.0565 B( 25-C , 26-H ) :   0.9567
B( 25-C , 27-H ) :   0.9583 B( 25-C , 28-C ) :   1.0848 B( 28-C , 29-H ) :   0.9705
B( 28-C , 30-H ) :   0.9782 B( 28-C , 31-H ) :   0.9688

Dispersion correction           -0.015107050
FINAL SINGLE POINT ENERGY     -1339.873660136663

DIPOLE MOMENT
-------------
                                X             Y             Z
Electronic contribution:     -7.77854       1.72688     -22.30674
Nuclear contribution   :      7.67679      -1.96990      22.61627
                        -----------------------------------------
Total Dipole Moment    :     -0.10175      -0.24302       0.30953
                        -----------------------------------------
Magnitude (a.u.)       :      0.40647
Magnitude (Debye)      :      1.03317

Rotational constants in cm-1:     0.021454     0.008492     0.007317
Rotational constants in MHz :   643.172594   254.590543   219.348565

                             ****ORCA TERMINATED NORMALLY****
TOTAL RUN TIME: 0 days 0 hours 0 minutes 22 seconds 89 msec
