                         Program Version 4.2.1 -  RELEASE  -
|  1> ! wB97X-D3 SP def2-SVP
|  2> %pal
|  3> nprocs 24
|  4> end
|  5>
|  6> * xyz 0 1
|  7> S 	 -32.6735 	 22.3874 	 3.584
|  8> C 	 -34.1482 	 21.779 	 2.9719
|  9> C 	 -34.3573 	 20.4626 	 3.39295
| 10> C 	 -33.3864 	 20.051 	 4.36832
| 11> C 	 -32.4039 	 20.9889 	 4.58209
| 12> H 	 -33.3013 	 19.0752 	 4.92207
| 13> C 	 -35.5255 	 19.6229 	 2.93344
| 14> H 	 -36.1016 	 20.1267 	 2.19279
| 15> H 	 -36.0481 	 19.6853 	 3.8975
| 16> C 	 -35.2024 	 18.0908 	 2.67471
| 17> H 	 -34.5496 	 18.1341 	 1.85647
| 18> H 	 -34.7306 	 17.577 	 3.49174
| 19> C 	 -36.4607 	 17.251 	 2.23325
| 20> H 	 -37.2869 	 17.6233 	 2.85694
| 21> H 	 -36.655 	 17.2884 	 1.19768
| 22> H 	 -36.4322 	 16.1809 	 2.52437
| 23> S 	 -30.6564 	 22.3979 	 6.19593
| 24> C 	 -29.3353 	 21.5627 	 6.98584
| 25> C 	 -29.4492 	 20.2256 	 6.91129
| 26> C 	 -30.6258 	 19.788 	 6.10763
| 27> C 	 -31.252 	 20.866 	 5.51656
| 28> H 	 -28.828 	 19.5148 	 7.43729
| 29> C 	 -30.9372 	 18.2882 	 5.93906
| 30> H 	 -31.9529 	 18.0471 	 6.17875
| 31> H 	 -30.347 	 17.8081 	 6.69823
| 32> C 	 -30.5547 	 17.8323 	 4.50778
| 33> H 	 -29.5342 	 18.2425 	 4.19987
| 34> H 	 -31.2946 	 18.2174 	 3.81448
| 35> C 	 -30.3589 	 16.3434 	 4.34398
| 36> H 	 -30.1923 	 16.1354 	 3.32143
| 37> H 	 -31.3365 	 15.7827 	 4.56039
| 38> H 	 -29.638 	 16.0165 	 5.01586
| 39> H 	 -34.8039 	 22.3523 	 2.23956
| 40> H 	 -28.4881 	 21.9696 	 7.60897
| 41> *
| 42>
| 43>                          ****END OF INPUT****

CARTESIAN COORDINATES (ANGSTROEM)
---------------------------------
  S    -32.673500   22.387400    3.584000
  C    -34.148200   21.779000    2.971900
  C    -34.357300   20.462600    3.392950
  C    -33.386400   20.051000    4.368320
  C    -32.403900   20.988900    4.582090
  H    -33.301300   19.075200    4.922070
  C    -35.525500   19.622900    2.933440
  H    -36.101600   20.126700    2.192790
  H    -36.048100   19.685300    3.897500
  C    -35.202400   18.090800    2.674710
  H    -34.549600   18.134100    1.856470
  H    -34.730600   17.577000    3.491740
  C    -36.460700   17.251000    2.233250
  H    -37.286900   17.623300    2.856940
  H    -36.655000   17.288400    1.197680
  H    -36.432200   16.180900    2.524370
  S    -30.656400   22.397900    6.195930
  C    -29.335300   21.562700    6.985840
  C    -29.449200   20.225600    6.911290
  C    -30.625800   19.788000    6.107630
  C    -31.252000   20.866000    5.516560
  H    -28.828000   19.514800    7.437290
  C    -30.937200   18.288200    5.939060
  H    -31.952900   18.047100    6.178750
  H    -30.347000   17.808100    6.698230
  C    -30.554700   17.832300    4.507780
  H    -29.534200   18.242500    4.199870
  H    -31.294600   18.217400    3.814480
  C    -30.358900   16.343400    4.343980
  H    -30.192300   16.135400    3.321430
  H    -31.336500   15.782700    4.560390
  H    -29.638000   16.016500    5.015860
  H    -34.803900   22.352300    2.239560
  H    -28.488100   21.969600    7.608970

 Total Charge           Charge          ....    0
 Multiplicity           Mult            ....    1
 Number of Electrons    NEL             ....  134
 Basis Dimension        Dim             ....  322

ORBITAL ENERGIES
----------------

  NO   OCC          E(Eh)            E(eV)
   0   2.0000     -88.965400     -2420.8716
   1   2.0000     -88.963849     -2420.8294
   2   2.0000     -10.330827      -281.1161
   3   2.0000     -10.330277      -281.1011
   4   2.0000     -10.317458      -280.7523
   5   2.0000     -10.315056      -280.6869
   6   2.0000     -10.307787      -280.4891
   7   2.0000     -10.305300      -280.4215
   8   2.0000     -10.296941      -280.1940
   9   2.0000     -10.295204      -280.1467
  10   2.0000     -10.294574      -280.1296
  11   2.0000     -10.294090      -280.1164
  12   2.0000     -10.290248      -280.0119
  13   2.0000     -10.287726      -279.9433
  14   2.0000     -10.280934      -279.7584
  15   2.0000     -10.273094      -279.5451
  16   2.0000      -8.080810      -219.8900
  17   2.0000      -8.078194      -219.8188
  18   2.0000      -6.039265      -164.3368
  19   2.0000      -6.036987      -164.2748
  20   2.0000      -6.035144      -164.2246
  21   2.0000      -6.032909      -164.1638
  22   2.0000      -6.031667      -164.1300
  23   2.0000      -6.028518      -164.0443
  24   2.0000      -1.006863       -27.3981
  25   2.0000      -0.983436       -26.7606
  26   2.0000      -0.909606       -24.7516
  27   2.0000      -0.907252       -24.6876
  28   2.0000      -0.867703       -23.6114
  29   2.0000      -0.852140       -23.1879
  30   2.0000      -0.844657       -22.9843
  31   2.0000      -0.818462       -22.2715
  32   2.0000      -0.782383       -21.2897
  33   2.0000      -0.770149       -20.9568
  34   2.0000      -0.712838       -19.3973
  35   2.0000      -0.698990       -19.0205
  36   2.0000      -0.683723       -18.6051
  37   2.0000      -0.660691       -17.9783
  38   2.0000      -0.635718       -17.2988
  39   2.0000      -0.620100       -16.8738
  40   2.0000      -0.591403       -16.0929
  41   2.0000      -0.572912       -15.5897
  42   2.0000      -0.567853       -15.4521
  43   2.0000      -0.559542       -15.2259
  44   2.0000      -0.530821       -14.4444
  45   2.0000      -0.519899       -14.1472
  46   2.0000      -0.517438       -14.0802
  47   2.0000      -0.507589       -13.8122
  48   2.0000      -0.503977       -13.7139
  49   2.0000      -0.499096       -13.5811
  50   2.0000      -0.496097       -13.4995
  51   2.0000      -0.486329       -13.2337
  52   2.0000      -0.469994       -12.7892
  53   2.0000      -0.468013       -12.7353
  54   2.0000      -0.461951       -12.5703
  55   2.0000      -0.449808       -12.2399
  56   2.0000      -0.447780       -12.1847
  57   2.0000      -0.438133       -11.9222
  58   2.0000      -0.433009       -11.7828
  59   2.0000      -0.424034       -11.5385
  60   2.0000      -0.421808       -11.4780
  61   2.0000      -0.415523       -11.3070
  62   2.0000      -0.412787       -11.2325
  63   2.0000      -0.358203        -9.7472
  64   2.0000      -0.327827        -8.9206
  65   2.0000      -0.323846        -8.8123
  66   2.0000      -0.286665        -7.8006
  67   0.0000       0.026926         0.7327
  68   0.0000       0.088595         2.4108
  69   0.0000       0.102458         2.7880
  70   0.0000       0.118270         3.2183
  71   0.0000       0.124835         3.3969

MULLIKEN ATOMIC CHARGES
-----------------------
   0 S :    0.117946
   1 C :   -0.154560
   2 C :   -0.097917
   3 C :   -0.015588
   4 C :   -0.123386
   5 H :    0.018657
   6 C :    0.073230
   7 H :    0.017094
   8 H :    0.043055
   9 C :   -0.065578
  10 H :    0.027164
  11 H :    0.034074
  12 C :   -0.056841
  13 H :    0.028240
  14 H :    0.036322
  15 H :    0.034107
  16 S :    0.092216
  17 C :   -0.080474
  18 C :   -0.032285
  19 C :   -0.090178
  20 C :   -0.123348
  21 H :    0.016623
  22 C :    0.084810
  23 H :    0.032203
  24 H :    0.001523
  25 C :   -0.106458
  26 H :    0.040529
  27 H :    0.038919
  28 C :   -0.007320
  29 H :    0.029720
  30 H :    0.018502
  31 H :    0.023674
  32 H :    0.073414
  33 H :    0.071911
Sum of atomic charges:    0.0000000

LOEWDIN ATOMIC CHARGES
----------------------
   0 S :    0.424317
   1 C :   -0.232470
   2 C :   -0.060552
   3 C :   -0.079969
   4 C :   -0.194709
   5 H :    0.038768
   6 C :   -0.030178
   7 H :    0.025459
   8 H :    0.041358
   9 C :   -0.030134
  10 H :    0.017561
  11 H :    0.022930
  12 C :   -0.066639
  13 H :    0.027308
  14 H :    0.019219
  15 H :    0.030535
  16 S :    0.382090
  17 C :   -0.193455
  18 C :   -0.073253
  19 C :   -0.050309
  20 C :   -0.181651
  21 H :    0.029501
  22 C :   -0.027290
  23 H :    0.023819
  24 H :    0.025496
  25 C :   -0.041201
  26 H :    0.034441
  27 H :    0.022714
  28 C :   -0.058973
  29 H :    0.023350
  30 H :    0.026639
  31 H :    0.014687
  32 H :    0.043437
  33 H :    0.047155

  Mayer bond orders larger than 0.100000
B(  0-S ,  1-C ) :   1.1412 B(  0-S ,  4-C ) :   1.1675 B(  1-C ,  2-C ) :   1.5878
B(  1-C , 32-H ) :   0.9615 B(  2-C ,  3-C ) :   1.2432 B(  2-C ,  6-C ) :   1.0151
B(  3-C ,  4-C ) :   1.5741 B(  3-C ,  5-H ) :   0.9774 B(  4-C , 20-C ) :   1.0445
B(  6-C ,  7-H ) :   0.9495 B(  6-C ,  8-H ) :   0.9303 B(  6-C ,  9-C ) :   1.0523
B(  9-C , 10-H ) :   0.9673 B(  9-C , 11-H ) :   0.9559 B(  9-C , 12-C ) :   1.0745
B( 12-C , 13-H ) :   0.9765 B( 12-C , 14-H ) :   0.9805 B( 12-C , 15-H ) :   0.9779
B( 16-S , 17-C ) :   1.1205 B( 16-S , 20-C ) :   1.1165 B( 17-C , 18-C ) :   1.6741
B( 17-C , 33-H ) :   0.9540 B( 18-C , 19-C ) :   1.2045 B( 18-C , 21-H ) :   0.9828
B( 19-C , 20-C ) :   1.6461 B( 19-C , 22-C ) :   1.0410 B( 22-C , 23-H ) :   0.9302
B( 22-C , 24-H ) :   0.9280 B( 22-C , 25-C ) :   1.0576 B( 25-C , 26-H ) :   0.9559
B( 25-C , 27-H ) :   0.9521 B( 25-C , 28-C ) :   1.0932 B( 28-C , 29-H ) :   0.9725
B( 28-C , 30-H ) :   0.9690 B( 28-C , 31-H ) :   0.9768

Dispersion correction           -0.014246998
FINAL SINGLE POINT ENERGY     -1339.868144544491

DIPOLE MOMENT
-------------
                                X             Y             Z
Electronic contribution:      9.96178      30.46086       8.14475
Nuclear contribution   :    -10.13186     -31.22837      -8.16193
                        -----------------------------------------
Total Dipole Moment    :     -0.17008      -0.76751      -0.01718
                        -----------------------------------------
Magnitude (a.u.)       :      0.78632
Magnitude (Debye)      :      1.99866

Rotational constants in cm-1:     0.017885     0.009338     0.006516
Rotational constants in MHz :   536.191592   279.940491   195.347451

                             ****ORCA TERMINATED NORMALLY****
TOTAL RUN TIME: 0 days 0 hours 0 minutes 20 seconds 652 msec
