                         Program Version 4.2.1 -  RELEASE  -
|  1> ! wB97X-D3 SP def2-SVP
|  2> %pal
|  3> nprocs 24
|  4> end
|  5>
|  6> * xyz 0 1
|  7> S 	 26.625 	 -4.80376 	 -110.68
|  8> C 	 27.6925 	 -6.15687 	 -111.13
|  9> C 	 26.91 	 -7.25656 	 -111.416
| 10> C 	 25.4883 	 -7.02006 	 -111.209
| 11> C 	 25.1396 	 -5.70128 	 -110.953
| 12> H 	 24.6322 	 -7.77031 	 -111.29
| 13> C 	 27.4158 	 -8.66236 	 -111.859
| 14> H 	 26.7987 	 -9.37904 	 -111.334
| 15> H 	 28.4558 	 -8.89639 	 -111.566
| 16> C 	 27.1394 	 -8.93579 	 -113.373
| 17> H 	 26.2237 	 -8.43336 	 -113.776
| 18> H 	 27.9719 	 -8.51677 	 -113.903
| 19> C 	 27.241 	 -10.4084 	 -113.908
| 20> H 	 27.1521 	 -10.5223 	 -115.011
| 21> H 	 28.3006 	 -10.67 	 -113.756
| 22> H 	 26.6135 	 -11.1118 	 -113.424
| 23> S 	 23.808 	 -3.28725 	 -110.963
| 24> C 	 22.1629 	 -3.16242 	 -110.5
| 25> C 	 21.5589 	 -4.3855 	 -110.695
| 26> C 	 22.4831 	 -5.45665 	 -110.843
| 27> C 	 23.7991 	 -5.0373 	 -110.907
| 28> H 	 20.4974 	 -4.40581 	 -110.59
| 29> C 	 21.9731 	 -6.88588 	 -110.795
| 30> H 	 22.5841 	 -7.43987 	 -111.545
| 31> H 	 20.919 	 -6.90184 	 -111.141
| 32> C 	 22.0136 	 -7.57107 	 -109.449
| 33> H 	 21.599 	 -6.87347 	 -108.719
| 34> H 	 23.0363 	 -7.78347 	 -109.165
| 35> C 	 21.2928 	 -8.90884 	 -109.329
| 36> H 	 20.1513 	 -8.7123 	 -109.507
| 37> H 	 21.6218 	 -9.26141 	 -108.318
| 38> H 	 21.6444 	 -9.60093 	 -110.032
| 39> H 	 28.7886 	 -6.26545 	 -111.105
| 40> H 	 21.5357 	 -2.32496 	 -110.517
| 41> *
| 42>
| 43>                          ****END OF INPUT****

CARTESIAN COORDINATES (ANGSTROEM)
---------------------------------
  S     26.625000   -4.803760  -110.680000
  C     27.692500   -6.156870  -111.130000
  C     26.910000   -7.256560  -111.416000
  C     25.488300   -7.020060  -111.209000
  C     25.139600   -5.701280  -110.953000
  H     24.632200   -7.770310  -111.290000
  C     27.415800   -8.662360  -111.859000
  H     26.798700   -9.379040  -111.334000
  H     28.455800   -8.896390  -111.566000
  C     27.139400   -8.935790  -113.373000
  H     26.223700   -8.433360  -113.776000
  H     27.971900   -8.516770  -113.903000
  C     27.241000  -10.408400  -113.908000
  H     27.152100  -10.522300  -115.011000
  H     28.300600  -10.670000  -113.756000
  H     26.613500  -11.111800  -113.424000
  S     23.808000   -3.287250  -110.963000
  C     22.162900   -3.162420  -110.500000
  C     21.558900   -4.385500  -110.695000
  C     22.483100   -5.456650  -110.843000
  C     23.799100   -5.037300  -110.907000
  H     20.497400   -4.405810  -110.590000
  C     21.973100   -6.885880  -110.795000
  H     22.584100   -7.439870  -111.545000
  H     20.919000   -6.901840  -111.141000
  C     22.013600   -7.571070  -109.449000
  H     21.599000   -6.873470  -108.719000
  H     23.036300   -7.783470  -109.165000
  C     21.292800   -8.908840  -109.329000
  H     20.151300   -8.712300  -109.507000
  H     21.621800   -9.261410  -108.318000
  H     21.644400   -9.600930  -110.032000
  H     28.788600   -6.265450  -111.105000
  H     21.535700   -2.324960  -110.517000

 Total Charge           Charge          ....    0
 Multiplicity           Mult            ....    1
 Number of Electrons    NEL             ....  134
 Basis Dimension        Dim             ....  322

ORBITAL ENERGIES
----------------

  NO   OCC          E(Eh)            E(eV)
   0   2.0000     -88.967572     -2420.9307
   1   2.0000     -88.966029     -2420.8887
   2   2.0000     -10.340891      -281.3899
   3   2.0000     -10.336235      -281.2632
   4   2.0000     -10.321282      -280.8564
   5   2.0000     -10.310949      -280.5752
   6   2.0000     -10.310899      -280.5738
   7   2.0000     -10.306288      -280.4484
   8   2.0000     -10.304382      -280.3965
   9   2.0000     -10.302271      -280.3391
  10   2.0000     -10.295676      -280.1596
  11   2.0000     -10.292201      -280.0650
  12   2.0000     -10.290276      -280.0126
  13   2.0000     -10.286605      -279.9128
  14   2.0000     -10.282164      -279.7919
  15   2.0000     -10.281607      -279.7767
  16   2.0000      -8.081449      -219.9074
  17   2.0000      -8.081400      -219.9061
  18   2.0000      -6.040258      -164.3638
  19   2.0000      -6.039947      -164.3553
  20   2.0000      -6.035995      -164.2478
  21   2.0000      -6.035894      -164.2450
  22   2.0000      -6.032092      -164.1416
  23   2.0000      -6.031845      -164.1349
  24   2.0000      -1.011121       -27.5140
  25   2.0000      -0.985944       -26.8289
  26   2.0000      -0.914584       -24.8871
  27   2.0000      -0.903583       -24.5877
  28   2.0000      -0.869918       -23.6717
  29   2.0000      -0.855775       -23.2868
  30   2.0000      -0.839156       -22.8346
  31   2.0000      -0.819437       -22.2980
  32   2.0000      -0.782080       -21.2815
  33   2.0000      -0.776485       -21.1292
  34   2.0000      -0.707499       -19.2520
  35   2.0000      -0.696937       -18.9646
  36   2.0000      -0.690338       -18.7851
  37   2.0000      -0.667420       -18.1614
  38   2.0000      -0.638174       -17.3656
  39   2.0000      -0.617367       -16.7994
  40   2.0000      -0.594015       -16.1640
  41   2.0000      -0.573375       -15.6023
  42   2.0000      -0.568516       -15.4701
  43   2.0000      -0.558480       -15.1970
  44   2.0000      -0.528984       -14.3944
  45   2.0000      -0.522623       -14.2213
  46   2.0000      -0.517704       -14.0874
  47   2.0000      -0.513473       -13.9723
  48   2.0000      -0.508115       -13.8265
  49   2.0000      -0.502103       -13.6629
  50   2.0000      -0.495797       -13.4913
  51   2.0000      -0.490303       -13.3418
  52   2.0000      -0.471805       -12.8385
  53   2.0000      -0.467219       -12.7137
  54   2.0000      -0.460778       -12.5384
  55   2.0000      -0.448228       -12.1969
  56   2.0000      -0.439322       -11.9545
  57   2.0000      -0.436526       -11.8785
  58   2.0000      -0.427098       -11.6219
  59   2.0000      -0.422247       -11.4899
  60   2.0000      -0.419638       -11.4189
  61   2.0000      -0.415923       -11.3178
  62   2.0000      -0.407199       -11.0805
  63   2.0000      -0.364228        -9.9112
  64   2.0000      -0.331291        -9.0149
  65   2.0000      -0.327846        -8.9211
  66   2.0000      -0.289696        -7.8830
  67   0.0000       0.016979         0.4620
  68   0.0000       0.084406         2.2968
  69   0.0000       0.099274         2.7014
  70   0.0000       0.110831         3.0159
  71   0.0000       0.130896         3.5619

MULLIKEN ATOMIC CHARGES
-----------------------
   0 S :    0.096964
   1 C :   -0.109926
   2 C :   -0.102288
   3 C :   -0.019694
   4 C :   -0.105456
   5 H :    0.028360
   6 C :    0.079383
   7 H :    0.020586
   8 H :    0.028715
   9 C :   -0.097153
  10 H :    0.048062
  11 H :    0.023419
  12 C :   -0.060206
  13 H :    0.042371
  14 H :    0.022384
  15 H :    0.030522
  16 S :    0.099210
  17 C :   -0.051097
  18 C :   -0.059113
  19 C :   -0.051161
  20 C :   -0.111053
  21 H :    0.013292
  22 C :    0.036157
  23 H :    0.027339
  24 H :    0.017343
  25 C :   -0.063185
  26 H :    0.026910
  27 H :    0.020670
  28 C :   -0.048280
  29 H :    0.048290
  30 H :    0.047376
  31 H :    0.020755
  32 H :    0.058325
  33 H :    0.042180
Sum of atomic charges:   -0.0000000

LOEWDIN ATOMIC CHARGES
----------------------
   0 S :    0.388301
   1 C :   -0.196993
   2 C :   -0.059661
   3 C :   -0.081440
   4 C :   -0.183219
   5 H :    0.037803
   6 C :   -0.027759
   7 H :    0.027276
   8 H :    0.030955
   9 C :   -0.046323
  10 H :    0.028823
  11 H :    0.022492
  12 C :   -0.068763
  13 H :    0.033848
  14 H :    0.025997
  15 H :    0.013493
  16 S :    0.420986
  17 C :   -0.189144
  18 C :   -0.067000
  19 C :   -0.060129
  20 C :   -0.186940
  21 H :    0.027808
  22 C :   -0.037111
  23 H :    0.026804
  24 H :    0.031744
  25 C :   -0.045709
  26 H :    0.025789
  27 H :    0.021193
  28 C :   -0.064514
  29 H :    0.035942
  30 H :    0.037404
  31 H :    0.013343
  32 H :    0.041783
  33 H :    0.022921

  Mayer bond orders larger than 0.100000
B(  0-S ,  1-C ) :   1.1088 B(  0-S ,  4-C ) :   1.1421 B(  1-C ,  2-C ) :   1.6458
B(  1-C , 32-H ) :   0.9651 B(  2-C ,  3-C ) :   1.2268 B(  2-C ,  6-C ) :   1.0230
B(  3-C ,  4-C ) :   1.5943 B(  3-C ,  5-H ) :   0.9706 B(  4-C , 20-C ) :   1.0564
B(  6-C ,  7-H ) :   0.9452 B(  6-C ,  8-H ) :   0.9481 B(  6-C ,  9-C ) :   1.0402
B(  9-C , 10-H ) :   0.9644 B(  9-C , 11-H ) :   0.9591 B(  9-C , 12-C ) :   1.0683
B( 12-C , 13-H ) :   0.9756 B( 12-C , 14-H ) :   0.9771 B( 12-C , 15-H ) :   0.9801
B( 16-S , 17-C ) :   1.1641 B( 16-S , 20-C ) :   1.1452 B( 17-C , 18-C ) :   1.6076
B( 17-C , 33-H ) :   0.9652 B( 18-C , 19-C ) :   1.2570 B( 18-C , 21-H ) :   0.9922
B( 19-C , 20-C ) :   1.5776 B( 19-C , 22-C ) :   1.0459 B( 22-C , 23-H ) :   0.9257
B( 22-C , 24-H ) :   0.9302 B( 22-C , 25-C ) :   1.0761 B( 25-C , 26-H ) :   0.9511
B( 25-C , 27-H ) :   0.9495 B( 25-C , 28-C ) :   1.0854 B( 28-C , 29-H ) :   0.9727
B( 28-C , 30-H ) :   0.9738 B( 28-C , 31-H ) :   0.9740

Dispersion correction           -0.013571039
FINAL SINGLE POINT ENERGY     -1339.860190987292

DIPOLE MOMENT
-------------
                                X             Y             Z
Electronic contribution:      4.46536      30.67547       4.58772
Nuclear contribution   :     -4.72549     -31.30557      -4.70073
                        -----------------------------------------
Total Dipole Moment    :     -0.26013      -0.63010      -0.11301
                        -----------------------------------------
Magnitude (a.u.)       :      0.69099
Magnitude (Debye)      :      1.75635

Rotational constants in cm-1:     0.016711     0.008725     0.006377
Rotational constants in MHz :   500.993898   261.563705   191.185581

                             ****ORCA TERMINATED NORMALLY****
TOTAL RUN TIME: 0 days 0 hours 0 minutes 21 seconds 221 msec
