                         Program Version 4.2.1 -  RELEASE  -
|  1> ! wB97X-D3 SP def2-SVP
|  2> %pal
|  3> nprocs 24
|  4> end
|  5>
|  6> * xyz 0 1
|  7> S 	 -133.712 	 61.9995 	 -59.6023
|  8> C 	 -134.76 	 60.7728 	 -59.1308
|  9> C 	 -134.412 	 59.5529 	 -59.7332
| 10> C 	 -133.182 	 59.7017 	 -60.5432
| 11> C 	 -132.614 	 60.9158 	 -60.3902
| 12> H 	 -132.673 	 58.962 	 -61.1391
| 13> C 	 -135.232 	 58.2933 	 -59.5468
| 14> H 	 -136.078 	 58.2781 	 -60.1854
| 15> H 	 -135.558 	 58.3329 	 -58.4742
| 16> C 	 -134.518 	 57.0417 	 -59.7926
| 17> H 	 -134.062 	 57.006 	 -60.8416
| 18> H 	 -133.74 	 57.1471 	 -59.06
| 19> C 	 -135.433 	 55.8384 	 -59.57
| 20> H 	 -134.885 	 54.9131 	 -59.9002
| 21> H 	 -135.737 	 55.5749 	 -58.5294
| 22> H 	 -136.32 	 55.7871 	 -60.2014
| 23> S 	 -131.173 	 62.1708 	 -62.3479
| 24> C 	 -129.57 	 62.674 	 -62.008
| 25> C 	 -129.043 	 62.0513 	 -60.8553
| 26> C 	 -130.058 	 61.3708 	 -60.144
| 27> C 	 -131.319 	 61.4242 	 -60.8007
| 28> H 	 -127.99 	 62.2771 	 -60.4825
| 29> C 	 -129.772 	 60.6806 	 -58.833
| 30> H 	 -130.676 	 60.2206 	 -58.3841
| 31> H 	 -129.382 	 61.4643 	 -58.1408
| 32> C 	 -128.674 	 59.5581 	 -58.9635
| 33> H 	 -127.855 	 60.1038 	 -59.3894
| 34> H 	 -129.006 	 58.8263 	 -59.684
| 35> C 	 -128.281 	 58.9328 	 -57.5766
| 36> H 	 -127.606 	 58.0629 	 -57.7277
| 37> H 	 -129.039 	 58.6951 	 -56.845
| 38> H 	 -127.662 	 59.6806 	 -57.1015
| 39> H 	 -135.651 	 60.8604 	 -58.5233
| 40> H 	 -129.034 	 63.3469 	 -62.6313
| 41> *
| 42>
| 43>                          ****END OF INPUT****

CARTESIAN COORDINATES (ANGSTROEM)
---------------------------------
  S    -133.712000   61.999500  -59.602300
  C    -134.760000   60.772800  -59.130800
  C    -134.412000   59.552900  -59.733200
  C    -133.182000   59.701700  -60.543200
  C    -132.614000   60.915800  -60.390200
  H    -132.673000   58.962000  -61.139100
  C    -135.232000   58.293300  -59.546800
  H    -136.078000   58.278100  -60.185400
  H    -135.558000   58.332900  -58.474200
  C    -134.518000   57.041700  -59.792600
  H    -134.062000   57.006000  -60.841600
  H    -133.740000   57.147100  -59.060000
  C    -135.433000   55.838400  -59.570000
  H    -134.885000   54.913100  -59.900200
  H    -135.737000   55.574900  -58.529400
  H    -136.320000   55.787100  -60.201400
  S    -131.173000   62.170800  -62.347900
  C    -129.570000   62.674000  -62.008000
  C    -129.043000   62.051300  -60.855300
  C    -130.058000   61.370800  -60.144000
  C    -131.319000   61.424200  -60.800700
  H    -127.990000   62.277100  -60.482500
  C    -129.772000   60.680600  -58.833000
  H    -130.676000   60.220600  -58.384100
  H    -129.382000   61.464300  -58.140800
  C    -128.674000   59.558100  -58.963500
  H    -127.855000   60.103800  -59.389400
  H    -129.006000   58.826300  -59.684000
  C    -128.281000   58.932800  -57.576600
  H    -127.606000   58.062900  -57.727700
  H    -129.039000   58.695100  -56.845000
  H    -127.662000   59.680600  -57.101500
  H    -135.651000   60.860400  -58.523300
  H    -129.034000   63.346900  -62.631300

 Total Charge           Charge          ....    0
 Multiplicity           Mult            ....    1
 Number of Electrons    NEL             ....  134
 Basis Dimension        Dim             ....  322

ORBITAL ENERGIES
----------------

  NO   OCC          E(Eh)            E(eV)
   0   2.0000     -88.967106     -2420.9180
   1   2.0000     -88.959309     -2420.7059
   2   2.0000     -10.321944      -280.8744
   3   2.0000     -10.319790      -280.8158
   4   2.0000     -10.316373      -280.7228
   5   2.0000     -10.308320      -280.5036
   6   2.0000     -10.304856      -280.4094
   7   2.0000     -10.302372      -280.3418
   8   2.0000     -10.300778      -280.2984
   9   2.0000     -10.294664      -280.1320
  10   2.0000     -10.292649      -280.0772
  11   2.0000     -10.287626      -279.9405
  12   2.0000     -10.285907      -279.8937
  13   2.0000     -10.284307      -279.8502
  14   2.0000     -10.283814      -279.8368
  15   2.0000     -10.280512      -279.7470
  16   2.0000      -8.082795      -219.9440
  17   2.0000      -8.075865      -219.7555
  18   2.0000      -6.041006      -164.3841
  19   2.0000      -6.037091      -164.2776
  20   2.0000      -6.034205      -164.1991
  21   2.0000      -6.033903      -164.1909
  22   2.0000      -6.030065      -164.0864
  23   2.0000      -6.026727      -163.9956
  24   2.0000      -1.010807       -27.5055
  25   2.0000      -0.988315       -26.8934
  26   2.0000      -0.922736       -25.1089
  27   2.0000      -0.903439       -24.5838
  28   2.0000      -0.870633       -23.6911
  29   2.0000      -0.848115       -23.0784
  30   2.0000      -0.843259       -22.9462
  31   2.0000      -0.814250       -22.1569
  32   2.0000      -0.780473       -21.2378
  33   2.0000      -0.767540       -20.8858
  34   2.0000      -0.708372       -19.2758
  35   2.0000      -0.699696       -19.0397
  36   2.0000      -0.682579       -18.5739
  37   2.0000      -0.654779       -17.8175
  38   2.0000      -0.645872       -17.5751
  39   2.0000      -0.616504       -16.7759
  40   2.0000      -0.596578       -16.2337
  41   2.0000      -0.583429       -15.8759
  42   2.0000      -0.565135       -15.3781
  43   2.0000      -0.559605       -15.2276
  44   2.0000      -0.520254       -14.1568
  45   2.0000      -0.518243       -14.1021
  46   2.0000      -0.514218       -13.9926
  47   2.0000      -0.508581       -13.8392
  48   2.0000      -0.505542       -13.7565
  49   2.0000      -0.497231       -13.5303
  50   2.0000      -0.493502       -13.4289
  51   2.0000      -0.480664       -13.0795
  52   2.0000      -0.472027       -12.8445
  53   2.0000      -0.465491       -12.6666
  54   2.0000      -0.461208       -12.5501
  55   2.0000      -0.450394       -12.2558
  56   2.0000      -0.447464       -12.1761
  57   2.0000      -0.431596       -11.7443
  58   2.0000      -0.430024       -11.7016
  59   2.0000      -0.424236       -11.5441
  60   2.0000      -0.423421       -11.5219
  61   2.0000      -0.414252       -11.2724
  62   2.0000      -0.413329       -11.2473
  63   2.0000      -0.335632        -9.1330
  64   2.0000      -0.331423        -9.0185
  65   2.0000      -0.311377        -8.4730
  66   2.0000      -0.306134        -8.3303
  67   0.0000       0.045816         1.2467
  68   0.0000       0.055433         1.5084
  69   0.0000       0.115682         3.1479
  70   0.0000       0.123296         3.3551
  71   0.0000       0.130056         3.5390

MULLIKEN ATOMIC CHARGES
-----------------------
   0 S :    0.131986
   1 C :   -0.102797
   2 C :   -0.131166
   3 C :    0.059663
   4 C :   -0.189526
   5 H :    0.008434
   6 C :    0.087124
   7 H :    0.021957
   8 H :    0.031982
   9 C :   -0.108228
  10 H :    0.048456
  11 H :    0.024555
  12 C :   -0.053151
  13 H :    0.028657
  14 H :    0.039889
  15 H :    0.030221
  16 S :    0.137706
  17 C :   -0.091875
  18 C :   -0.071459
  19 C :    0.007415
  20 C :   -0.199392
  21 H :    0.052448
  22 C :    0.039705
  23 H :    0.038140
  24 H :    0.035286
  25 C :   -0.081338
  26 H :    0.020458
  27 H :    0.035123
  28 C :   -0.042750
  29 H :    0.041006
  30 H :    0.039103
  31 H :    0.020293
  32 H :    0.045015
  33 H :    0.047057
Sum of atomic charges:    0.0000000

LOEWDIN ATOMIC CHARGES
----------------------
   0 S :    0.441368
   1 C :   -0.218808
   2 C :   -0.064273
   3 C :   -0.060329
   4 C :   -0.210314
   5 H :    0.030948
   6 C :   -0.038794
   7 H :    0.022449
   8 H :    0.038585
   9 C :   -0.050151
  10 H :    0.033437
  11 H :    0.024835
  12 C :   -0.073897
  13 H :    0.031505
  14 H :    0.030109
  15 H :    0.024886
  16 S :    0.443758
  17 C :   -0.190062
  18 C :   -0.083300
  19 C :   -0.050530
  20 C :   -0.228586
  21 H :    0.044663
  22 C :   -0.033998
  23 H :    0.031323
  24 H :    0.034030
  25 C :   -0.030783
  26 H :    0.018665
  27 H :    0.021420
  28 C :   -0.069717
  29 H :    0.031740
  30 H :    0.024936
  31 H :    0.024591
  32 H :    0.030131
  33 H :    0.020163

  Mayer bond orders larger than 0.100000
B(  0-S ,  1-C ) :   1.1611 B(  0-S ,  4-C ) :   1.1604 B(  1-C ,  2-C ) :   1.6082
B(  1-C , 32-H ) :   0.9715 B(  2-C ,  3-C ) :   1.2149 B(  2-C ,  6-C ) :   1.0167
B(  3-C ,  4-C ) :   1.6104 B(  3-C ,  5-H ) :   0.9970 B(  4-C , 20-C ) :   0.9991
B(  6-C ,  7-H ) :   0.9258 B(  6-C ,  8-H ) :   0.9441 B(  6-C ,  9-C ) :   1.0836
B(  9-C , 10-H ) :   0.9420 B(  9-C , 11-H ) :   0.9584 B(  9-C , 12-C ) :   1.0873
B( 12-C , 13-H ) :   0.9718 B( 12-C , 14-H ) :   0.9735 B( 12-C , 15-H ) :   0.9717
B( 16-S , 17-C ) :   1.1954 B( 16-S , 20-C ) :   1.1731 B( 17-C , 18-C ) :   1.5570
B( 17-C , 20-C ) :   0.1123 B( 17-C , 33-H ) :   0.9736 B( 18-C , 19-C ) :   1.2767
B( 18-C , 21-H ) :   0.9748 B( 19-C , 20-C ) :   1.5533 B( 19-C , 22-C ) :   1.0494
B( 22-C , 23-H ) :   0.9368 B( 22-C , 24-H ) :   0.9368 B( 22-C , 25-C ) :   1.0510
B( 25-C , 26-H ) :   0.9593 B( 25-C , 27-H ) :   0.9616 B( 25-C , 28-C ) :   1.0692
B( 28-C , 29-H ) :   0.9758 B( 28-C , 30-H ) :   0.9791 B( 28-C , 31-H ) :   0.9745

Dispersion correction           -0.013655524
FINAL SINGLE POINT ENERGY     -1339.872364824391

DIPOLE MOMENT
-------------
                                X             Y             Z
Electronic contribution:     -3.51382      25.53259     -13.43550
Nuclear contribution   :      3.67002     -25.95391      13.65940
                        -----------------------------------------
Total Dipole Moment    :      0.15620      -0.42132       0.22390
                        -----------------------------------------
Magnitude (a.u.)       :      0.50204
Magnitude (Debye)      :      1.27607

Rotational constants in cm-1:     0.016752     0.008445     0.006661
Rotational constants in MHz :   502.212906   253.181310   199.696596

                             ****ORCA TERMINATED NORMALLY****
TOTAL RUN TIME: 0 days 0 hours 0 minutes 20 seconds 981 msec
