                         Program Version 4.2.1 -  RELEASE  -
|  1> ! wB97X-D3 SP def2-SVP
|  2> %pal
|  3> nprocs 24
|  4> end
|  5>
|  6> * xyz 0 1
|  7> S 	 -129.525 	 60.9967 	 -59.0444
|  8> C 	 -128.763 	 59.4932 	 -59.2624
|  9> C 	 -128.571 	 58.7918 	 -58.1005
| 10> C 	 -128.965 	 59.5355 	 -56.9541
| 11> C 	 -129.474 	 60.7925 	 -57.2864
| 12> H 	 -129.092 	 59.1049 	 -55.9382
| 13> C 	 -128.044 	 57.336 	 -58.0513
| 14> H 	 -127.237 	 57.4085 	 -57.3663
| 15> H 	 -127.565 	 57.3272 	 -59.0116
| 16> C 	 -129.081 	 56.184 	 -57.8673
| 17> H 	 -129.631 	 56.2999 	 -56.983
| 18> H 	 -129.798 	 56.1309 	 -58.6897
| 19> C 	 -128.4 	 54.7975 	 -57.9959
| 20> H 	 -128.14 	 54.6167 	 -59.053
| 21> H 	 -127.488 	 54.619 	 -57.3751
| 22> H 	 -129.111 	 54.0426 	 -57.7897
| 23> S 	 -131.606 	 62.3264 	 -56.5747
| 24> C 	 -131.574 	 63.261 	 -55.1051
| 25> C 	 -130.358 	 63.1711 	 -54.4648
| 26> C 	 -129.518 	 62.2225 	 -55.1329
| 27> C 	 -130.009 	 61.7675 	 -56.3269
| 28> H 	 -130.172 	 63.6513 	 -53.5418
| 29> C 	 -128.185 	 61.798 	 -54.3805
| 30> H 	 -128.129 	 60.6995 	 -54.166
| 31> H 	 -128.206 	 62.3079 	 -53.4883
| 32> C 	 -126.903 	 62.246 	 -55.1053
| 33> H 	 -127.146 	 63.2925 	 -55.2863
| 34> H 	 -127.07 	 61.8371 	 -56.0706
| 35> C 	 -125.534 	 61.7503 	 -54.595
| 36> H 	 -125.142 	 60.8256 	 -55.0529
| 37> H 	 -125.364 	 61.6995 	 -53.5592
| 38> H 	 -124.857 	 62.5983 	 -54.9767
| 39> H 	 -128.468 	 59.0862 	 -60.1958
| 40> H 	 -132.276 	 63.9881 	 -54.7718
| 41> *
| 42>
| 43>                          ****END OF INPUT****

CARTESIAN COORDINATES (ANGSTROEM)
---------------------------------
  S    -129.525000   60.996700  -59.044400
  C    -128.763000   59.493200  -59.262400
  C    -128.571000   58.791800  -58.100500
  C    -128.965000   59.535500  -56.954100
  C    -129.474000   60.792500  -57.286400
  H    -129.092000   59.104900  -55.938200
  C    -128.044000   57.336000  -58.051300
  H    -127.237000   57.408500  -57.366300
  H    -127.565000   57.327200  -59.011600
  C    -129.081000   56.184000  -57.867300
  H    -129.631000   56.299900  -56.983000
  H    -129.798000   56.130900  -58.689700
  C    -128.400000   54.797500  -57.995900
  H    -128.140000   54.616700  -59.053000
  H    -127.488000   54.619000  -57.375100
  H    -129.111000   54.042600  -57.789700
  S    -131.606000   62.326400  -56.574700
  C    -131.574000   63.261000  -55.105100
  C    -130.358000   63.171100  -54.464800
  C    -129.518000   62.222500  -55.132900
  C    -130.009000   61.767500  -56.326900
  H    -130.172000   63.651300  -53.541800
  C    -128.185000   61.798000  -54.380500
  H    -128.129000   60.699500  -54.166000
  H    -128.206000   62.307900  -53.488300
  C    -126.903000   62.246000  -55.105300
  H    -127.146000   63.292500  -55.286300
  H    -127.070000   61.837100  -56.070600
  C    -125.534000   61.750300  -54.595000
  H    -125.142000   60.825600  -55.052900
  H    -125.364000   61.699500  -53.559200
  H    -124.857000   62.598300  -54.976700
  H    -128.468000   59.086200  -60.195800
  H    -132.276000   63.988100  -54.771800

 Total Charge           Charge          ....    0
 Multiplicity           Mult            ....    1
 Number of Electrons    NEL             ....  134
 Basis Dimension        Dim             ....  322

ORBITAL ENERGIES
----------------

  NO   OCC          E(Eh)            E(eV)
   0   2.0000     -88.970304     -2421.0051
   1   2.0000     -88.965529     -2420.8751
   2   2.0000     -10.332441      -281.1600
   3   2.0000     -10.322712      -280.8953
   4   2.0000     -10.312381      -280.6142
   5   2.0000     -10.306680      -280.4590
   6   2.0000     -10.301465      -280.3171
   7   2.0000     -10.296684      -280.1870
   8   2.0000     -10.295943      -280.1669
   9   2.0000     -10.291061      -280.0340
  10   2.0000     -10.290772      -280.0261
  11   2.0000     -10.289966      -280.0042
  12   2.0000     -10.285069      -279.8709
  13   2.0000     -10.281965      -279.7865
  14   2.0000     -10.280506      -279.7468
  15   2.0000     -10.275321      -279.6057
  16   2.0000      -8.085360      -220.0138
  17   2.0000      -8.081151      -219.8993
  18   2.0000      -6.043774      -164.4595
  19   2.0000      -6.039864      -164.3531
  20   2.0000      -6.039654      -164.3473
  21   2.0000      -6.036165      -164.2524
  22   2.0000      -6.035457      -164.2331
  23   2.0000      -6.031939      -164.1374
  24   2.0000      -1.011055       -27.5122
  25   2.0000      -0.989821       -26.9344
  26   2.0000      -0.906849       -24.6766
  27   2.0000      -0.900807       -24.5122
  28   2.0000      -0.871958       -23.7272
  29   2.0000      -0.852959       -23.2102
  30   2.0000      -0.844751       -22.9868
  31   2.0000      -0.816292       -22.2124
  32   2.0000      -0.782078       -21.2814
  33   2.0000      -0.772420       -21.0186
  34   2.0000      -0.711705       -19.3665
  35   2.0000      -0.703850       -19.1527
  36   2.0000      -0.689620       -18.7655
  37   2.0000      -0.667159       -18.1543
  38   2.0000      -0.639262       -17.3952
  39   2.0000      -0.618625       -16.8336
  40   2.0000      -0.589007       -16.0277
  41   2.0000      -0.569702       -15.5024
  42   2.0000      -0.562923       -15.3179
  43   2.0000      -0.557139       -15.1605
  44   2.0000      -0.530215       -14.4279
  45   2.0000      -0.519416       -14.1340
  46   2.0000      -0.514907       -14.0113
  47   2.0000      -0.505638       -13.7591
  48   2.0000      -0.504294       -13.7225
  49   2.0000      -0.498428       -13.5629
  50   2.0000      -0.491269       -13.3681
  51   2.0000      -0.490003       -13.3337
  52   2.0000      -0.476319       -12.9613
  53   2.0000      -0.467210       -12.7134
  54   2.0000      -0.462876       -12.5955
  55   2.0000      -0.451756       -12.2929
  56   2.0000      -0.444405       -12.0929
  57   2.0000      -0.440373       -11.9832
  58   2.0000      -0.429078       -11.6758
  59   2.0000      -0.420906       -11.4534
  60   2.0000      -0.417560       -11.3624
  61   2.0000      -0.413691       -11.2571
  62   2.0000      -0.403813       -10.9883
  63   2.0000      -0.350613        -9.5407
  64   2.0000      -0.333390        -9.0720
  65   2.0000      -0.330134        -8.9834
  66   2.0000      -0.292369        -7.9558
  67   0.0000       0.031835         0.8663
  68   0.0000       0.072760         1.9799
  69   0.0000       0.113961         3.1010
  70   0.0000       0.126285         3.4364
  71   0.0000       0.139094         3.7849

MULLIKEN ATOMIC CHARGES
-----------------------
   0 S :    0.127677
   1 C :   -0.097000
   2 C :   -0.136694
   3 C :    0.015103
   4 C :   -0.163585
   5 H :    0.036962
   6 C :    0.104318
   7 H :    0.020880
   8 H :   -0.001376
   9 C :   -0.023170
  10 H :    0.024339
  11 H :    0.029902
  12 C :   -0.062335
  13 H :    0.030207
  14 H :    0.040282
  15 H :    0.025387
  16 S :    0.114282
  17 C :   -0.076098
  18 C :   -0.026487
  19 C :   -0.090030
  20 C :   -0.144091
  21 H :    0.010618
  22 C :    0.111469
  23 H :    0.029351
  24 H :   -0.015102
  25 C :   -0.083317
  26 H :    0.023255
  27 H :    0.025357
  28 C :   -0.034531
  29 H :    0.043699
  30 H :    0.025374
  31 H :    0.041948
  32 H :    0.027978
  33 H :    0.045428
Sum of atomic charges:   -0.0000000

LOEWDIN ATOMIC CHARGES
----------------------
   0 S :    0.422222
   1 C :   -0.209577
   2 C :   -0.067407
   3 C :   -0.065127
   4 C :   -0.191382
   5 H :    0.040201
   6 C :   -0.025345
   7 H :    0.026343
   8 H :    0.027198
   9 C :   -0.027843
  10 H :    0.016282
  11 H :    0.031706
  12 C :   -0.066138
  13 H :    0.027307
  14 H :    0.026988
  15 H :    0.020395
  16 S :    0.427704
  17 C :   -0.186197
  18 C :   -0.064363
  19 C :   -0.057675
  20 C :   -0.214627
  21 H :    0.027400
  22 C :   -0.020771
  23 H :    0.027674
  24 H :    0.009304
  25 C :   -0.051122
  26 H :    0.025826
  27 H :    0.023235
  28 C :   -0.069426
  29 H :    0.032011
  30 H :    0.014821
  31 H :    0.044393
  32 H :    0.020690
  33 H :    0.025302

  Mayer bond orders larger than 0.100000
B(  0-S ,  1-C ) :   1.1452 B(  0-S ,  4-C ) :   1.1573 B(  1-C ,  2-C ) :   1.6197
B(  1-C , 32-H ) :   0.9645 B(  2-C ,  3-C ) :   1.2640 B(  2-C ,  6-C ) :   0.9994
B(  3-C ,  4-C ) :   1.5599 B(  3-C ,  5-H ) :   0.9853 B(  4-C , 20-C ) :   1.0276
B(  6-C ,  7-H ) :   0.9398 B(  6-C ,  8-H ) :   0.9376 B(  6-C ,  9-C ) :   1.0550
B(  9-C , 10-H ) :   0.9624 B(  9-C , 11-H ) :   0.9556 B(  9-C , 12-C ) :   1.0759
B( 12-C , 13-H ) :   0.9780 B( 12-C , 14-H ) :   0.9774 B( 12-C , 15-H ) :   0.9747
B( 16-S , 17-C ) :   1.1586 B( 16-S , 20-C ) :   1.1508 B( 17-C , 18-C ) :   1.6146
B( 17-C , 33-H ) :   0.9655 B( 18-C , 19-C ) :   1.2531 B( 18-C , 21-H ) :   0.9917
B( 19-C , 20-C ) :   1.6123 B( 19-C , 22-C ) :   1.0290 B( 22-C , 23-H ) :   0.9412
B( 22-C , 24-H ) :   0.9264 B( 22-C , 25-C ) :   1.0599 B( 25-C , 26-H ) :   0.9590
B( 25-C , 27-H ) :   0.9590 B( 25-C , 28-C ) :   1.0533 B( 28-C , 29-H ) :   0.9752
B( 28-C , 30-H ) :   0.9807 B( 28-C , 31-H ) :   0.9737

Dispersion correction           -0.013987879
FINAL SINGLE POINT ENERGY     -1339.860018189811

DIPOLE MOMENT
-------------
                                X             Y             Z
Electronic contribution:    -19.36084      18.48018      -8.35545
Nuclear contribution   :     19.61237     -18.90475       8.62562
                        -----------------------------------------
Total Dipole Moment    :      0.25152      -0.42457       0.27017
                        -----------------------------------------
Magnitude (a.u.)       :      0.56260
Magnitude (Debye)      :      1.43001

Rotational constants in cm-1:     0.017631     0.008191     0.006759
Rotational constants in MHz :   528.550188   245.571749   202.617193

                             ****ORCA TERMINATED NORMALLY****
TOTAL RUN TIME: 0 days 0 hours 0 minutes 21 seconds 521 msec
