                         Program Version 4.2.1 -  RELEASE  -
|  1> ! wB97X-D3 SP def2-SVP
|  2> %pal
|  3> nprocs 24
|  4> end
|  5>
|  6> * xyz 0 1
|  7> S 	 46.2792 	 -21.413 	 -114.085
|  8> C 	 48.0552 	 -21.5803 	 -114.25
|  9> C 	 48.7673 	 -20.7686 	 -113.375
| 10> C 	 47.834 	 -20.0392 	 -112.55
| 11> C 	 46.4887 	 -20.2694 	 -112.828
| 12> H 	 47.9908 	 -19.3941 	 -111.727
| 13> C 	 50.3048 	 -20.5519 	 -113.232
| 14> H 	 50.6497 	 -19.8505 	 -112.398
| 15> H 	 50.7317 	 -20.1151 	 -114.2
| 16> C 	 50.9739 	 -21.9528 	 -112.899
| 17> H 	 50.6585 	 -22.6658 	 -113.648
| 18> H 	 52.0442 	 -21.9107 	 -113
| 19> C 	 50.5655 	 -22.3836 	 -111.514
| 20> H 	 50.7791 	 -21.7738 	 -110.604
| 21> H 	 49.563 	 -22.6911 	 -111.388
| 22> H 	 51.2183 	 -23.2484 	 -111.269
| 23> S 	 44.0542 	 -18.9131 	 -113.166
| 24> C 	 43.1811 	 -18.4768 	 -111.694
| 25> C 	 43.8732 	 -18.8446 	 -110.561
| 26> C 	 45.0552 	 -19.596 	 -110.857
| 27> C 	 45.3437 	 -19.6895 	 -112.201
| 28> H 	 43.4204 	 -18.5823 	 -109.609
| 29> C 	 45.8989 	 -20.2562 	 -109.812
| 30> H 	 46.6245 	 -19.5256 	 -109.402
| 31> H 	 46.4143 	 -21.1243 	 -110.196
| 32> C 	 45.2517 	 -20.7248 	 -108.549
| 33> H 	 44.756 	 -19.8478 	 -108.125
| 34> H 	 45.9263 	 -21.0223 	 -107.706
| 35> C 	 44.2062 	 -21.7961 	 -108.849
| 36> H 	 43.8896 	 -22.2369 	 -107.864
| 37> H 	 44.6571 	 -22.5789 	 -109.455
| 38> H 	 43.372 	 -21.3777 	 -109.431
| 39> H 	 48.5254 	 -22.1363 	 -115.082
| 40> H 	 42.2899 	 -17.9199 	 -111.657
| 41> *
| 42>
| 43>                          ****END OF INPUT****

CARTESIAN COORDINATES (ANGSTROEM)
---------------------------------
  S     46.279200  -21.413000  -114.085000
  C     48.055200  -21.580300  -114.250000
  C     48.767300  -20.768600  -113.375000
  C     47.834000  -20.039200  -112.550000
  C     46.488700  -20.269400  -112.828000
  H     47.990800  -19.394100  -111.727000
  C     50.304800  -20.551900  -113.232000
  H     50.649700  -19.850500  -112.398000
  H     50.731700  -20.115100  -114.200000
  C     50.973900  -21.952800  -112.899000
  H     50.658500  -22.665800  -113.648000
  H     52.044200  -21.910700  -113.000000
  C     50.565500  -22.383600  -111.514000
  H     50.779100  -21.773800  -110.604000
  H     49.563000  -22.691100  -111.388000
  H     51.218300  -23.248400  -111.269000
  S     44.054200  -18.913100  -113.166000
  C     43.181100  -18.476800  -111.694000
  C     43.873200  -18.844600  -110.561000
  C     45.055200  -19.596000  -110.857000
  C     45.343700  -19.689500  -112.201000
  H     43.420400  -18.582300  -109.609000
  C     45.898900  -20.256200  -109.812000
  H     46.624500  -19.525600  -109.402000
  H     46.414300  -21.124300  -110.196000
  C     45.251700  -20.724800  -108.549000
  H     44.756000  -19.847800  -108.125000
  H     45.926300  -21.022300  -107.706000
  C     44.206200  -21.796100  -108.849000
  H     43.889600  -22.236900  -107.864000
  H     44.657100  -22.578900  -109.455000
  H     43.372000  -21.377700  -109.431000
  H     48.525400  -22.136300  -115.082000
  H     42.289900  -17.919900  -111.657000

 Total Charge           Charge          ....    0
 Multiplicity           Mult            ....    1
 Number of Electrons    NEL             ....  134
 Basis Dimension        Dim             ....  322

ORBITAL ENERGIES
----------------

  NO   OCC          E(Eh)            E(eV)
   0   2.0000     -88.967463     -2420.9278
   1   2.0000     -88.966305     -2420.8962
   2   2.0000     -10.325163      -280.9620
   3   2.0000     -10.323460      -280.9156
   4   2.0000     -10.320669      -280.8397
   5   2.0000     -10.317923      -280.7650
   6   2.0000     -10.311614      -280.5933
   7   2.0000     -10.310677      -280.5678
   8   2.0000     -10.304233      -280.3924
   9   2.0000     -10.296910      -280.1932
  10   2.0000     -10.291768      -280.0532
  11   2.0000     -10.289368      -279.9879
  12   2.0000     -10.285042      -279.8702
  13   2.0000     -10.282899      -279.8119
  14   2.0000     -10.274714      -279.5892
  15   2.0000     -10.274668      -279.5879
  16   2.0000      -8.082243      -219.9290
  17   2.0000      -8.080279      -219.8756
  18   2.0000      -6.040690      -164.3755
  19   2.0000      -6.038869      -164.3260
  20   2.0000      -6.036758      -164.2685
  21   2.0000      -6.034929      -164.2188
  22   2.0000      -6.033043      -164.1675
  23   2.0000      -6.030963      -164.1108
  24   2.0000      -1.006823       -27.3970
  25   2.0000      -0.980732       -26.6871
  26   2.0000      -0.916256       -24.9326
  27   2.0000      -0.908287       -24.7157
  28   2.0000      -0.871279       -23.7087
  29   2.0000      -0.849127       -23.1059
  30   2.0000      -0.839866       -22.8539
  31   2.0000      -0.811169       -22.0730
  32   2.0000      -0.782251       -21.2861
  33   2.0000      -0.772659       -21.0251
  34   2.0000      -0.706146       -19.2152
  35   2.0000      -0.703885       -19.1537
  36   2.0000      -0.694659       -18.9026
  37   2.0000      -0.655606       -17.8399
  38   2.0000      -0.641651       -17.4602
  39   2.0000      -0.610743       -16.6192
  40   2.0000      -0.600032       -16.3277
  41   2.0000      -0.575715       -15.6660
  42   2.0000      -0.554839       -15.0979
  43   2.0000      -0.549971       -14.9655
  44   2.0000      -0.543474       -14.7887
  45   2.0000      -0.535323       -14.5669
  46   2.0000      -0.520108       -14.1528
  47   2.0000      -0.503797       -13.7090
  48   2.0000      -0.499838       -13.6013
  49   2.0000      -0.495003       -13.4697
  50   2.0000      -0.492493       -13.4014
  51   2.0000      -0.480521       -13.0757
  52   2.0000      -0.467607       -12.7242
  53   2.0000      -0.464842       -12.6490
  54   2.0000      -0.464218       -12.6320
  55   2.0000      -0.448288       -12.1985
  56   2.0000      -0.441641       -12.0177
  57   2.0000      -0.434974       -11.8362
  58   2.0000      -0.426687       -11.6107
  59   2.0000      -0.425849       -11.5879
  60   2.0000      -0.422065       -11.4850
  61   2.0000      -0.411073       -11.1859
  62   2.0000      -0.406265       -11.0550
  63   2.0000      -0.344182        -9.3657
  64   2.0000      -0.333754        -9.0819
  65   2.0000      -0.329351        -8.9621
  66   2.0000      -0.292756        -7.9663
  67   0.0000       0.027123         0.7381
  68   0.0000       0.069099         1.8803
  69   0.0000       0.107458         2.9241
  70   0.0000       0.122741         3.3400
  71   0.0000       0.124753         3.3947

MULLIKEN ATOMIC CHARGES
-----------------------
   0 S :    0.116682
   1 C :   -0.148176
   2 C :   -0.049048
   3 C :    0.050551
   4 C :   -0.190522
   5 H :   -0.007913
   6 C :    0.003791
   7 H :    0.048658
   8 H :    0.054497
   9 C :   -0.050399
  10 H :    0.029776
  11 H :    0.026071
  12 C :   -0.063989
  13 H :    0.029103
  14 H :    0.039471
  15 H :    0.024980
  16 S :    0.103579
  17 C :   -0.078169
  18 C :   -0.043984
  19 C :   -0.021663
  20 C :   -0.148338
  21 H :    0.026207
  22 C :    0.064537
  23 H :    0.041385
  24 H :    0.037679
  25 C :   -0.103317
  26 H :    0.012376
  27 H :    0.035929
  28 C :   -0.052746
  29 H :    0.037850
  30 H :    0.027287
  31 H :    0.045438
  32 H :    0.060855
  33 H :    0.041561
Sum of atomic charges:   -0.0000000

LOEWDIN ATOMIC CHARGES
----------------------
   0 S :    0.410847
   1 C :   -0.195090
   2 C :   -0.056352
   3 C :   -0.055452
   4 C :   -0.206243
   5 H :    0.024472
   6 C :   -0.036163
   7 H :    0.038035
   8 H :    0.037548
   9 C :   -0.036883
  10 H :    0.024244
  11 H :    0.020932
  12 C :   -0.074744
  13 H :    0.029524
  14 H :    0.021377
  15 H :    0.030918
  16 S :    0.380590
  17 C :   -0.166083
  18 C :   -0.071600
  19 C :   -0.053108
  20 C :   -0.192634
  21 H :    0.034764
  22 C :   -0.038887
  23 H :    0.038305
  24 H :    0.029930
  25 C :   -0.051483
  26 H :    0.016538
  27 H :    0.030895
  28 C :   -0.068120
  29 H :    0.029571
  30 H :    0.022823
  31 H :    0.028719
  32 H :    0.031131
  33 H :    0.021681

  Mayer bond orders larger than 0.100000
B(  0-S ,  1-C ) :   1.1342 B(  0-S ,  4-C ) :   1.1554 B(  1-C ,  2-C ) :   1.6184
B(  1-C , 32-H ) :   0.9614 B(  2-C ,  3-C ) :   1.2203 B(  2-C ,  6-C ) :   0.9968
B(  3-C ,  4-C ) :   1.5749 B(  3-C ,  5-H ) :   1.0020 B(  4-C , 20-C ) :   1.0623
B(  6-C ,  7-H ) :   0.9578 B(  6-C ,  8-H ) :   0.9459 B(  6-C ,  9-C ) :   1.0610
B(  9-C , 10-H ) :   0.9560 B(  9-C , 11-H ) :   0.9602 B(  9-C , 12-C ) :   1.0710
B( 12-C , 13-H ) :   0.9746 B( 12-C , 14-H ) :   0.9758 B( 12-C , 15-H ) :   0.9703
B( 16-S , 17-C ) :   1.1466 B( 16-S , 20-C ) :   1.1154 B( 17-C , 18-C ) :   1.6344
B( 17-C , 33-H ) :   0.9694 B( 18-C , 19-C ) :   1.2064 B( 18-C , 21-H ) :   0.9882
B( 19-C , 20-C ) :   1.6152 B( 19-C , 22-C ) :   1.0447 B( 22-C , 23-H ) :   0.9207
B( 22-C , 24-H ) :   0.9369 B( 22-C , 25-C ) :   1.0838 B( 25-C , 26-H ) :   0.9417
B( 25-C , 27-H ) :   0.9540 B( 25-C , 28-C ) :   1.0809 B( 28-C , 29-H ) :   0.9744
B( 28-C , 30-H ) :   0.9748 B( 28-C , 31-H ) :   0.9700

Dispersion correction           -0.014872688
FINAL SINGLE POINT ENERGY     -1339.877775241718

DIPOLE MOMENT
-------------
                                X             Y             Z
Electronic contribution:    -15.89160       9.39311     -19.42096
Nuclear contribution   :     16.32011      -9.36336      19.94700
                        -----------------------------------------
Total Dipole Moment    :      0.42852       0.02975       0.52603
                        -----------------------------------------
Magnitude (a.u.)       :      0.67913
Magnitude (Debye)      :      1.72622

Rotational constants in cm-1:     0.020283     0.008815     0.006967
Rotational constants in MHz :   608.072654   264.256284   208.857986

                             ****ORCA TERMINATED NORMALLY****
TOTAL RUN TIME: 0 days 0 hours 0 minutes 22 seconds 241 msec
