                         Program Version 4.2.1 -  RELEASE  -
|  1> ! wB97X-D3 SP def2-SVP
|  2> %pal
|  3> nprocs 24
|  4> end
|  5>
|  6> * xyz 0 1
|  7> S 	 -46.6591 	 17.328 	 24.7943
|  8> C 	 -48.0158 	 18.3021 	 25.3555
|  9> C 	 -48.4361 	 17.8602 	 26.5788
| 10> C 	 -47.5764 	 16.8524 	 27.1292
| 11> C 	 -46.4321 	 16.6418 	 26.3839
| 12> H 	 -47.6578 	 16.4111 	 28.1296
| 13> C 	 -49.6955 	 18.3047 	 27.2777
| 14> H 	 -49.7477 	 19.3856 	 27.095
| 15> H 	 -49.5595 	 18.1768 	 28.3631
| 16> C 	 -51.0234 	 17.4971 	 26.8563
| 17> H 	 -50.8948 	 16.3974 	 26.798
| 18> H 	 -51.8559 	 17.6341 	 27.5602
| 19> C 	 -51.5835 	 18.0023 	 25.5318
| 20> H 	 -50.8003 	 17.8216 	 24.8526
| 21> H 	 -52.609 	 17.6701 	 25.2547
| 22> H 	 -51.5688 	 19.1783 	 25.5106
| 23> S 	 -44.6261 	 14.6867 	 25.7026
| 24> C 	 -43.3207 	 14.4108 	 26.749
| 25> C 	 -43.2869 	 15.2682 	 27.8346
| 26> C 	 -44.3886 	 16.2274 	 27.82
| 27> C 	 -45.2415 	 15.9615 	 26.7695
| 28> H 	 -42.4286 	 15.2578 	 28.4975
| 29> C 	 -44.6166 	 17.324 	 28.7806
| 30> H 	 -45.1866 	 18.0398 	 28.3691
| 31> H 	 -43.6551 	 17.8019 	 28.7628
| 32> C 	 -45.1902 	 17.0071 	 30.1932
| 33> H 	 -46.1236 	 16.478 	 30.0607
| 34> H 	 -45.3286 	 17.876 	 30.8228
| 35> C 	 -44.3713 	 16.0494 	 31.0766
| 36> H 	 -43.3719 	 16.4949 	 31.3377
| 37> H 	 -44.0976 	 15.2167 	 30.5015
| 38> H 	 -44.9193 	 15.9444 	 32.0277
| 39> H 	 -48.6738 	 19.0145 	 24.9063
| 40> H 	 -42.432 	 13.7874 	 26.4846
| 41> *
| 42>
| 43>                          ****END OF INPUT****

CARTESIAN COORDINATES (ANGSTROEM)
---------------------------------
  S    -46.659100   17.328000   24.794300
  C    -48.015800   18.302100   25.355500
  C    -48.436100   17.860200   26.578800
  C    -47.576400   16.852400   27.129200
  C    -46.432100   16.641800   26.383900
  H    -47.657800   16.411100   28.129600
  C    -49.695500   18.304700   27.277700
  H    -49.747700   19.385600   27.095000
  H    -49.559500   18.176800   28.363100
  C    -51.023400   17.497100   26.856300
  H    -50.894800   16.397400   26.798000
  H    -51.855900   17.634100   27.560200
  C    -51.583500   18.002300   25.531800
  H    -50.800300   17.821600   24.852600
  H    -52.609000   17.670100   25.254700
  H    -51.568800   19.178300   25.510600
  S    -44.626100   14.686700   25.702600
  C    -43.320700   14.410800   26.749000
  C    -43.286900   15.268200   27.834600
  C    -44.388600   16.227400   27.820000
  C    -45.241500   15.961500   26.769500
  H    -42.428600   15.257800   28.497500
  C    -44.616600   17.324000   28.780600
  H    -45.186600   18.039800   28.369100
  H    -43.655100   17.801900   28.762800
  C    -45.190200   17.007100   30.193200
  H    -46.123600   16.478000   30.060700
  H    -45.328600   17.876000   30.822800
  C    -44.371300   16.049400   31.076600
  H    -43.371900   16.494900   31.337700
  H    -44.097600   15.216700   30.501500
  H    -44.919300   15.944400   32.027700
  H    -48.673800   19.014500   24.906300
  H    -42.432000   13.787400   26.484600

 Total Charge           Charge          ....    0
 Multiplicity           Mult            ....    1
 Number of Electrons    NEL             ....  134
 Basis Dimension        Dim             ....  322

ORBITAL ENERGIES
----------------

  NO   OCC          E(Eh)            E(eV)
   0   2.0000     -88.967023     -2420.9158
   1   2.0000     -88.966100     -2420.8906
   2   2.0000     -10.326562      -281.0000
   3   2.0000     -10.323338      -280.9123
   4   2.0000     -10.319396      -280.8050
   5   2.0000     -10.312043      -280.6049
   6   2.0000     -10.306821      -280.4629
   7   2.0000     -10.301241      -280.3110
   8   2.0000     -10.298833      -280.2455
   9   2.0000     -10.298211      -280.2286
  10   2.0000     -10.295208      -280.1468
  11   2.0000     -10.294516      -280.1280
  12   2.0000     -10.287382      -279.9339
  13   2.0000     -10.282496      -279.8010
  14   2.0000     -10.279917      -279.7308
  15   2.0000     -10.275450      -279.6092
  16   2.0000      -8.081821      -219.9175
  17   2.0000      -8.081579      -219.9109
  18   2.0000      -6.040259      -164.3638
  19   2.0000      -6.040225      -164.3629
  20   2.0000      -6.036250      -164.2547
  21   2.0000      -6.036221      -164.2539
  22   2.0000      -6.032590      -164.1551
  23   2.0000      -6.032010      -164.1393
  24   2.0000      -1.011854       -27.5339
  25   2.0000      -0.987825       -26.8801
  26   2.0000      -0.914666       -24.8893
  27   2.0000      -0.908396       -24.7187
  28   2.0000      -0.872173       -23.7330
  29   2.0000      -0.855128       -23.2692
  30   2.0000      -0.845108       -22.9966
  31   2.0000      -0.816277       -22.2120
  32   2.0000      -0.789311       -21.4782
  33   2.0000      -0.773394       -21.0451
  34   2.0000      -0.713228       -19.4079
  35   2.0000      -0.698150       -18.9976
  36   2.0000      -0.693997       -18.8846
  37   2.0000      -0.661619       -18.0036
  38   2.0000      -0.637025       -17.3343
  39   2.0000      -0.616676       -16.7806
  40   2.0000      -0.597108       -16.2481
  41   2.0000      -0.571267       -15.5450
  42   2.0000      -0.562593       -15.3089
  43   2.0000      -0.553238       -15.0544
  44   2.0000      -0.544758       -14.8236
  45   2.0000      -0.532595       -14.4927
  46   2.0000      -0.523248       -14.2383
  47   2.0000      -0.512537       -13.9469
  48   2.0000      -0.507473       -13.8090
  49   2.0000      -0.501298       -13.6410
  50   2.0000      -0.485977       -13.2241
  51   2.0000      -0.482613       -13.1326
  52   2.0000      -0.475916       -12.9503
  53   2.0000      -0.463680       -12.6174
  54   2.0000      -0.454082       -12.3562
  55   2.0000      -0.451865       -12.2959
  56   2.0000      -0.445463       -12.1217
  57   2.0000      -0.436984       -11.8909
  58   2.0000      -0.432830       -11.7779
  59   2.0000      -0.425018       -11.5653
  60   2.0000      -0.420857       -11.4521
  61   2.0000      -0.417109       -11.3501
  62   2.0000      -0.409455       -11.1418
  63   2.0000      -0.344685        -9.3793
  64   2.0000      -0.332206        -9.0398
  65   2.0000      -0.329305        -8.9609
  66   2.0000      -0.295807        -8.0493
  67   0.0000       0.027413         0.7460
  68   0.0000       0.064985         1.7683
  69   0.0000       0.107025         2.9123
  70   0.0000       0.118624         3.2279
  71   0.0000       0.128874         3.5069

MULLIKEN ATOMIC CHARGES
-----------------------
   0 S :    0.116769
   1 C :   -0.072857
   2 C :   -0.135647
   3 C :    0.045906
   4 C :   -0.167892
   5 H :    0.017235
   6 C :    0.043143
   7 H :    0.035317
   8 H :    0.029814
   9 C :   -0.062531
  10 H :    0.043832
  11 H :    0.031792
  12 C :   -0.072570
  13 H :    0.017379
  14 H :    0.055398
  15 H :    0.021427
  16 S :    0.114437
  17 C :   -0.097722
  18 C :   -0.046818
  19 C :   -0.063504
  20 C :   -0.168645
  21 H :    0.021939
  22 C :    0.150480
  23 H :   -0.005671
  24 H :    0.015002
  25 C :   -0.056382
  26 H :    0.023380
  27 H :    0.031640
  28 C :   -0.056868
  29 H :    0.017933
  30 H :    0.026869
  31 H :    0.044477
  32 H :    0.027437
  33 H :    0.075504
Sum of atomic charges:    0.0000000

LOEWDIN ATOMIC CHARGES
----------------------
   0 S :    0.399705
   1 C :   -0.195129
   2 C :   -0.069746
   3 C :   -0.059946
   4 C :   -0.193565
   5 H :    0.032185
   6 C :   -0.029723
   7 H :    0.033717
   8 H :    0.032633
   9 C :   -0.040364
  10 H :    0.030251
  11 H :    0.022604
  12 C :   -0.075655
  13 H :    0.013611
  14 H :    0.031455
  15 H :    0.028745
  16 S :    0.413541
  17 C :   -0.204619
  18 C :   -0.078111
  19 C :   -0.042687
  20 C :   -0.196486
  21 H :    0.030888
  22 C :   -0.027497
  23 H :    0.018862
  24 H :    0.036086
  25 C :   -0.029582
  26 H :    0.021025
  27 H :    0.025274
  28 C :   -0.065793
  29 H :    0.023433
  30 H :    0.014903
  31 H :    0.031966
  32 H :    0.026995
  33 H :    0.041024

  Mayer bond orders larger than 0.100000
B(  0-S ,  1-C ) :   1.1152 B(  0-S ,  4-C ) :   1.1351 B(  1-C ,  2-C ) :   1.6404
B(  1-C , 32-H ) :   0.9616 B(  2-C ,  3-C ) :   1.2229 B(  2-C ,  6-C ) :   1.0266
B(  3-C ,  4-C ) :   1.5719 B(  3-C ,  5-H ) :   0.9931 B(  4-C , 20-C ) :   1.0642
B(  6-C ,  7-H ) :   0.9463 B(  6-C ,  8-H ) :   0.9421 B(  6-C ,  9-C ) :   1.0438
B(  9-C , 10-H ) :   0.9584 B(  9-C , 11-H ) :   0.9614 B(  9-C , 12-C ) :   1.0669
B( 12-C , 13-H ) :   0.9750 B( 12-C , 14-H ) :   0.9723 B( 12-C , 15-H ) :   0.9733
B( 16-S , 17-C ) :   1.1670 B( 16-S , 20-C ) :   1.1250 B( 17-C , 18-C ) :   1.6239
B( 17-C , 33-H ) :   0.9567 B( 18-C , 19-C ) :   1.2104 B( 18-C , 21-H ) :   0.9876
B( 19-C , 20-C ) :   1.6072 B( 19-C , 22-C ) :   1.0527 B( 22-C , 23-H ) :   0.9088
B( 22-C , 24-H ) :   0.9194 B( 22-C , 25-C ) :   1.0642 B( 25-C , 26-H ) :   0.9517
B( 25-C , 27-H ) :   0.9568 B( 25-C , 28-C ) :   1.0854 B( 28-C , 29-H ) :   0.9746
B( 28-C , 30-H ) :   0.9730 B( 28-C , 31-H ) :   0.9729

Dispersion correction           -0.014964664
FINAL SINGLE POINT ENERGY     -1339.857503446568

DIPOLE MOMENT
-------------
                                X             Y             Z
Electronic contribution:     14.00835      -8.19060     -18.80689
Nuclear contribution   :    -14.09429       8.43555      19.36358
                        -----------------------------------------
Total Dipole Moment    :     -0.08594       0.24494       0.55669
                        -----------------------------------------
Magnitude (a.u.)       :      0.61424
Magnitude (Debye)      :      1.56127

Rotational constants in cm-1:     0.021211     0.008328     0.006577
Rotational constants in MHz :   635.896392   249.663868   197.175005

                             ****ORCA TERMINATED NORMALLY****
TOTAL RUN TIME: 0 days 0 hours 0 minutes 22 seconds 73 msec
