                         Program Version 4.2.1 -  RELEASE  -
|  1> ! wB97X-D3 SP def2-SVP
|  2> %pal
|  3> nprocs 24
|  4> end
|  5>
|  6> * xyz 0 1
|  7> S 	 -114.164 	 22.2097 	 -115.777
|  8> C 	 -115.733 	 21.8119 	 -116.452
|  9> C 	 -116.73 	 21.8481 	 -115.431
| 10> C 	 -116.163 	 21.9904 	 -114.121
| 11> C 	 -114.791 	 22.1067 	 -114.162
| 12> H 	 -116.68 	 22.0359 	 -113.111
| 13> C 	 -118.22 	 21.8881 	 -115.705
| 14> H 	 -118.412 	 21.1884 	 -116.526
| 15> H 	 -118.472 	 22.8719 	 -116.051
| 16> C 	 -119.121 	 21.379 	 -114.578
| 17> H 	 -118.957 	 20.2864 	 -114.437
| 18> H 	 -118.872 	 21.9071 	 -113.594
| 19> C 	 -120.64 	 21.5447 	 -114.736
| 20> H 	 -120.907 	 22.5776 	 -114.906
| 21> H 	 -120.854 	 20.8908 	 -115.602
| 22> H 	 -121.269 	 21.1887 	 -113.919
| 23> S 	 -112.669 	 23.3796 	 -112.88
| 24> C 	 -111.976 	 22.6201 	 -111.491
| 25> C 	 -112.563 	 21.4843 	 -111.097
| 26> C 	 -113.734 	 21.2329 	 -111.96
| 27> C 	 -113.847 	 22.1038 	 -113.014
| 28> H 	 -112.321 	 20.9013 	 -110.204
| 29> C 	 -114.607 	 20.0389 	 -111.532
| 30> H 	 -115.548 	 20.0576 	 -112.066
| 31> H 	 -114.799 	 20.0577 	 -110.469
| 32> C 	 -114.021 	 18.6924 	 -111.86
| 33> H 	 -114.569 	 17.8701 	 -111.373
| 34> H 	 -113.096 	 18.7361 	 -111.302
| 35> C 	 -113.847 	 18.3925 	 -113.323
| 36> H 	 -113.602 	 17.3724 	 -113.442
| 37> H 	 -112.973 	 18.8816 	 -113.749
| 38> H 	 -114.599 	 18.8157 	 -113.981
| 39> H 	 -115.889 	 21.821 	 -117.567
| 40> H 	 -111.039 	 23.0839 	 -110.977
| 41> *
| 42>
| 43>                          ****END OF INPUT****

CARTESIAN COORDINATES (ANGSTROEM)
---------------------------------
  S    -114.164000   22.209700  -115.777000
  C    -115.733000   21.811900  -116.452000
  C    -116.730000   21.848100  -115.431000
  C    -116.163000   21.990400  -114.121000
  C    -114.791000   22.106700  -114.162000
  H    -116.680000   22.035900  -113.111000
  C    -118.220000   21.888100  -115.705000
  H    -118.412000   21.188400  -116.526000
  H    -118.472000   22.871900  -116.051000
  C    -119.121000   21.379000  -114.578000
  H    -118.957000   20.286400  -114.437000
  H    -118.872000   21.907100  -113.594000
  C    -120.640000   21.544700  -114.736000
  H    -120.907000   22.577600  -114.906000
  H    -120.854000   20.890800  -115.602000
  H    -121.269000   21.188700  -113.919000
  S    -112.669000   23.379600  -112.880000
  C    -111.976000   22.620100  -111.491000
  C    -112.563000   21.484300  -111.097000
  C    -113.734000   21.232900  -111.960000
  C    -113.847000   22.103800  -113.014000
  H    -112.321000   20.901300  -110.204000
  C    -114.607000   20.038900  -111.532000
  H    -115.548000   20.057600  -112.066000
  H    -114.799000   20.057700  -110.469000
  C    -114.021000   18.692400  -111.860000
  H    -114.569000   17.870100  -111.373000
  H    -113.096000   18.736100  -111.302000
  C    -113.847000   18.392500  -113.323000
  H    -113.602000   17.372400  -113.442000
  H    -112.973000   18.881600  -113.749000
  H    -114.599000   18.815700  -113.981000
  H    -115.889000   21.821000  -117.567000
  H    -111.039000   23.083900  -110.977000

 Total Charge           Charge          ....    0
 Multiplicity           Mult            ....    1
 Number of Electrons    NEL             ....  134
 Basis Dimension        Dim             ....  322

ORBITAL ENERGIES
----------------

  NO   OCC          E(Eh)            E(eV)
   0   2.0000     -88.968321     -2420.9511
   1   2.0000     -88.963229     -2420.8125
   2   2.0000     -10.329966      -281.0927
   3   2.0000     -10.326352      -280.9943
   4   2.0000     -10.322754      -280.8964
   5   2.0000     -10.320493      -280.8349
   6   2.0000     -10.311042      -280.5777
   7   2.0000     -10.304834      -280.4088
   8   2.0000     -10.299689      -280.2688
   9   2.0000     -10.294401      -280.1249
  10   2.0000     -10.294216      -280.1199
  11   2.0000     -10.294167      -280.1185
  12   2.0000     -10.284700      -279.8609
  13   2.0000     -10.280641      -279.7505
  14   2.0000     -10.276655      -279.6420
  15   2.0000     -10.262191      -279.2484
  16   2.0000      -8.083130      -219.9532
  17   2.0000      -8.079005      -219.8409
  18   2.0000      -6.041574      -164.3996
  19   2.0000      -6.037604      -164.2916
  20   2.0000      -6.037551      -164.2901
  21   2.0000      -6.033986      -164.1931
  22   2.0000      -6.033489      -164.1796
  23   2.0000      -6.029550      -164.0724
  24   2.0000      -1.007945       -27.4276
  25   2.0000      -0.985560       -26.8184
  26   2.0000      -0.912658       -24.8347
  27   2.0000      -0.911425       -24.8011
  28   2.0000      -0.867138       -23.5960
  29   2.0000      -0.849470       -23.1153
  30   2.0000      -0.843764       -22.9600
  31   2.0000      -0.815921       -22.2023
  32   2.0000      -0.785877       -21.3848
  33   2.0000      -0.772528       -21.0216
  34   2.0000      -0.704478       -19.1698
  35   2.0000      -0.690424       -18.7874
  36   2.0000      -0.680101       -18.5065
  37   2.0000      -0.656358       -17.8604
  38   2.0000      -0.639216       -17.3939
  39   2.0000      -0.618274       -16.8241
  40   2.0000      -0.596279       -16.2256
  41   2.0000      -0.572229       -15.5712
  42   2.0000      -0.562655       -15.3106
  43   2.0000      -0.555553       -15.1174
  44   2.0000      -0.542249       -14.7553
  45   2.0000      -0.522428       -14.2160
  46   2.0000      -0.515778       -14.0350
  47   2.0000      -0.508693       -13.8422
  48   2.0000      -0.503208       -13.6930
  49   2.0000      -0.496826       -13.5193
  50   2.0000      -0.492030       -13.3888
  51   2.0000      -0.484358       -13.1801
  52   2.0000      -0.468328       -12.7438
  53   2.0000      -0.462844       -12.5946
  54   2.0000      -0.457592       -12.4517
  55   2.0000      -0.450500       -12.2587
  56   2.0000      -0.438114       -11.9217
  57   2.0000      -0.436100       -11.8669
  58   2.0000      -0.432722       -11.7750
  59   2.0000      -0.427551       -11.6343
  60   2.0000      -0.425048       -11.5661
  61   2.0000      -0.406950       -11.0737
  62   2.0000      -0.397695       -10.8218
  63   2.0000      -0.348389        -9.4801
  64   2.0000      -0.333138        -9.0652
  65   2.0000      -0.329059        -8.9542
  66   2.0000      -0.293906        -7.9976
  67   0.0000       0.034741         0.9453
  68   0.0000       0.069527         1.8919
  69   0.0000       0.109828         2.9886
  70   0.0000       0.120535         3.2799
  71   0.0000       0.129839         3.5331

MULLIKEN ATOMIC CHARGES
-----------------------
   0 S :    0.118324
   1 C :   -0.145643
   2 C :   -0.100692
   3 C :    0.005966
   4 C :   -0.156418
   5 H :    0.051434
   6 C :    0.097264
   7 H :    0.024413
   8 H :    0.040912
   9 C :   -0.152839
  10 H :    0.040397
  11 H :    0.038373
  12 C :   -0.036357
  13 H :    0.031909
  14 H :    0.026938
  15 H :    0.040336
  16 S :    0.102808
  17 C :   -0.109829
  18 C :   -0.027004
  19 C :   -0.066596
  20 C :   -0.155610
  21 H :    0.033320
  22 C :    0.083979
  23 H :    0.006347
  24 H :    0.026146
  25 C :   -0.078189
  26 H :    0.028014
  27 H :    0.004792
  28 C :   -0.010079
  29 H :    0.023152
  30 H :    0.020932
  31 H :    0.035525
  32 H :    0.072603
  33 H :    0.085372
Sum of atomic charges:   -0.0000000

LOEWDIN ATOMIC CHARGES
----------------------
   0 S :    0.416562
   1 C :   -0.214200
   2 C :   -0.057262
   3 C :   -0.076846
   4 C :   -0.195886
   5 H :    0.047894
   6 C :   -0.032990
   7 H :    0.034939
   8 H :    0.031830
   9 C :   -0.051539
  10 H :    0.029042
  11 H :    0.023024
  12 C :   -0.066154
  13 H :    0.021719
  14 H :    0.026519
  15 H :    0.029166
  16 S :    0.402822
  17 C :   -0.194299
  18 C :   -0.076800
  19 C :   -0.048183
  20 C :   -0.208723
  21 H :    0.037535
  22 C :   -0.029932
  23 H :    0.021678
  24 H :    0.030767
  25 C :   -0.043991
  26 H :    0.024536
  27 H :    0.017507
  28 C :   -0.066690
  29 H :    0.023176
  30 H :    0.029834
  31 H :    0.030154
  32 H :    0.038220
  33 H :    0.046572

  Mayer bond orders larger than 0.100000
B(  0-S ,  1-C ) :   1.1447 B(  0-S ,  4-C ) :   1.1742 B(  1-C ,  2-C ) :   1.5807
B(  1-C ,  4-C ) :   0.1085 B(  1-C , 32-H ) :   0.9675 B(  2-C ,  3-C ) :   1.2472
B(  2-C ,  6-C ) :   1.0163 B(  3-C ,  4-C ) :   1.5770 B(  3-C ,  5-H ) :   0.9781
B(  4-C , 20-C ) :   0.9960 B(  6-C ,  7-H ) :   0.9366 B(  6-C ,  8-H ) :   0.9370
B(  6-C ,  9-C ) :   1.0645 B(  9-C , 10-H ) :   0.9611 B(  9-C , 11-H ) :   0.9489
B(  9-C , 12-C ) :   1.0823 B( 12-C , 13-H ) :   0.9760 B( 12-C , 14-H ) :   0.9749
B( 12-C , 15-H ) :   0.9741 B( 16-S , 17-C ) :   1.1474 B( 16-S , 20-C ) :   1.1247
B( 17-C , 18-C ) :   1.6532 B( 17-C , 33-H ) :   0.9482 B( 18-C , 19-C ) :   1.1920
B( 18-C , 21-H ) :   0.9870 B( 19-C , 20-C ) :   1.6625 B( 19-C , 22-C ) :   1.0387
B( 22-C , 23-H ) :   0.9323 B( 22-C , 24-H ) :   0.9354 B( 22-C , 25-C ) :   1.0866
B( 25-C , 26-H ) :   0.9555 B( 25-C , 27-H ) :   0.9496 B( 25-C , 28-C ) :   1.0765
B( 28-C , 29-H ) :   0.9710 B( 28-C , 30-H ) :   0.9655 B( 28-C , 31-H ) :   0.9747

Dispersion correction           -0.014840598
FINAL SINGLE POINT ENERGY     -1339.877392440632

DIPOLE MOMENT
-------------
                                X             Y             Z
Electronic contribution:     21.54676      16.61679      -3.50964
Nuclear contribution   :    -21.97410     -16.85673       3.75080
                        -----------------------------------------
Total Dipole Moment    :     -0.42735      -0.23994       0.24116
                        -----------------------------------------
Magnitude (a.u.)       :      0.54622
Magnitude (Debye)      :      1.38839

Rotational constants in cm-1:     0.019360     0.008423     0.007265
Rotational constants in MHz :   580.396569   252.509709   217.800254

                             ****ORCA TERMINATED NORMALLY****
TOTAL RUN TIME: 0 days 0 hours 0 minutes 22 seconds 141 msec
