                         Program Version 4.2.1 -  RELEASE  -
|  1> ! wB97X-D3 SP def2-SVP
|  2> %pal
|  3> nprocs 24
|  4> end
|  5>
|  6> * xyz 0 1
|  7> S 	 -64.3965 	 14.6526 	 -120.99
|  8> C 	 -63.2495 	 13.3707 	 -120.78
|  9> C 	 -63.1167 	 12.9543 	 -119.466
| 10> C 	 -64.1252 	 13.5246 	 -118.647
| 11> C 	 -64.9883 	 14.4203 	 -119.277
| 12> H 	 -64.336 	 13.2592 	 -117.625
| 13> C 	 -62.1273 	 11.9436 	 -118.976
| 14> H 	 -62.2116 	 11.15 	 -119.71
| 15> H 	 -62.2827 	 11.486 	 -117.961
| 16> C 	 -60.6062 	 12.2796 	 -118.908
| 17> H 	 -60.2607 	 12.5258 	 -119.869
| 18> H 	 -60.5 	 13.0833 	 -118.236
| 19> C 	 -59.7058 	 11.1042 	 -118.622
| 20> H 	 -60.2393 	 10.2558 	 -119.046
| 21> H 	 -58.7884 	 11.1296 	 -119.134
| 22> H 	 -59.5182 	 11.1519 	 -117.524
| 23> S 	 -67.5241 	 15.0251 	 -119.792
| 24> C 	 -68.5679 	 15.6662 	 -118.54
| 25> C 	 -67.9124 	 15.7778 	 -117.344
| 26> C 	 -66.5079 	 15.4492 	 -117.471
| 27> C 	 -66.136 	 15.0283 	 -118.737
| 28> H 	 -68.4436 	 15.9822 	 -116.438
| 29> C 	 -65.6151 	 15.2621 	 -116.258
| 30> H 	 -65.9419 	 15.985 	 -115.512
| 31> H 	 -64.6273 	 15.5915 	 -116.508
| 32> C 	 -65.6486 	 13.8954 	 -115.535
| 33> H 	 -65.7589 	 13.1017 	 -116.289
| 34> H 	 -66.5148 	 13.691 	 -114.85
| 35> C 	 -64.3434 	 13.7139 	 -114.767
| 36> H 	 -64.2843 	 14.5911 	 -114.084
| 37> H 	 -63.4925 	 13.7034 	 -115.401
| 38> H 	 -64.3608 	 12.8947 	 -114.07
| 39> H 	 -62.482 	 12.9819 	 -121.433
| 40> H 	 -69.631 	 15.8578 	 -118.48
| 41> *
| 42>
| 43>                          ****END OF INPUT****

CARTESIAN COORDINATES (ANGSTROEM)
---------------------------------
  S    -64.396500   14.652600  -120.990000
  C    -63.249500   13.370700  -120.780000
  C    -63.116700   12.954300  -119.466000
  C    -64.125200   13.524600  -118.647000
  C    -64.988300   14.420300  -119.277000
  H    -64.336000   13.259200  -117.625000
  C    -62.127300   11.943600  -118.976000
  H    -62.211600   11.150000  -119.710000
  H    -62.282700   11.486000  -117.961000
  C    -60.606200   12.279600  -118.908000
  H    -60.260700   12.525800  -119.869000
  H    -60.500000   13.083300  -118.236000
  C    -59.705800   11.104200  -118.622000
  H    -60.239300   10.255800  -119.046000
  H    -58.788400   11.129600  -119.134000
  H    -59.518200   11.151900  -117.524000
  S    -67.524100   15.025100  -119.792000
  C    -68.567900   15.666200  -118.540000
  C    -67.912400   15.777800  -117.344000
  C    -66.507900   15.449200  -117.471000
  C    -66.136000   15.028300  -118.737000
  H    -68.443600   15.982200  -116.438000
  C    -65.615100   15.262100  -116.258000
  H    -65.941900   15.985000  -115.512000
  H    -64.627300   15.591500  -116.508000
  C    -65.648600   13.895400  -115.535000
  H    -65.758900   13.101700  -116.289000
  H    -66.514800   13.691000  -114.850000
  C    -64.343400   13.713900  -114.767000
  H    -64.284300   14.591100  -114.084000
  H    -63.492500   13.703400  -115.401000
  H    -64.360800   12.894700  -114.070000
  H    -62.482000   12.981900  -121.433000
  H    -69.631000   15.857800  -118.480000

 Total Charge           Charge          ....    0
 Multiplicity           Mult            ....    1
 Number of Electrons    NEL             ....  134
 Basis Dimension        Dim             ....  322

ORBITAL ENERGIES
----------------

  NO   OCC          E(Eh)            E(eV)
   0   2.0000     -88.971851     -2421.0471
   1   2.0000     -88.966036     -2420.8889
   2   2.0000     -10.333060      -281.1769
   3   2.0000     -10.323959      -280.9292
   4   2.0000     -10.315170      -280.6900
   5   2.0000     -10.313559      -280.6462
   6   2.0000     -10.303581      -280.3747
   7   2.0000     -10.300743      -280.2975
   8   2.0000     -10.295434      -280.1530
   9   2.0000     -10.294061      -280.1156
  10   2.0000     -10.293585      -280.1027
  11   2.0000     -10.292493      -280.0730
  12   2.0000     -10.289895      -280.0023
  13   2.0000     -10.279080      -279.7080
  14   2.0000     -10.276450      -279.6364
  15   2.0000     -10.275996      -279.6241
  16   2.0000      -8.085183      -220.0090
  17   2.0000      -8.080786      -219.8894
  18   2.0000      -6.043828      -164.4609
  19   2.0000      -6.039967      -164.3559
  20   2.0000      -6.039500      -164.3431
  21   2.0000      -6.035790      -164.2422
  22   2.0000      -6.035213      -164.2265
  23   2.0000      -6.031373      -164.1220
  24   2.0000      -1.008313       -27.4376
  25   2.0000      -0.982686       -26.7402
  26   2.0000      -0.916084       -24.9279
  27   2.0000      -0.911685       -24.8082
  28   2.0000      -0.880152       -23.9501
  29   2.0000      -0.855711       -23.2851
  30   2.0000      -0.849958       -23.1285
  31   2.0000      -0.819679       -22.3046
  32   2.0000      -0.781422       -21.2636
  33   2.0000      -0.769271       -20.9329
  34   2.0000      -0.713796       -19.4234
  35   2.0000      -0.700545       -19.0628
  36   2.0000      -0.699714       -19.0402
  37   2.0000      -0.667469       -18.1628
  38   2.0000      -0.638036       -17.3618
  39   2.0000      -0.620764       -16.8918
  40   2.0000      -0.593538       -16.1510
  41   2.0000      -0.585423       -15.9302
  42   2.0000      -0.571147       -15.5417
  43   2.0000      -0.565182       -15.3794
  44   2.0000      -0.531446       -14.4614
  45   2.0000      -0.527219       -14.3464
  46   2.0000      -0.519590       -14.1388
  47   2.0000      -0.513950       -13.9853
  48   2.0000      -0.506534       -13.7835
  49   2.0000      -0.502516       -13.6742
  50   2.0000      -0.492791       -13.4095
  51   2.0000      -0.482620       -13.1327
  52   2.0000      -0.475337       -12.9346
  53   2.0000      -0.465653       -12.6711
  54   2.0000      -0.461869       -12.5681
  55   2.0000      -0.450860       -12.2685
  56   2.0000      -0.444474       -12.0947
  57   2.0000      -0.439742       -11.9660
  58   2.0000      -0.433875       -11.8063
  59   2.0000      -0.430051       -11.7023
  60   2.0000      -0.421835       -11.4787
  61   2.0000      -0.411942       -11.2095
  62   2.0000      -0.404634       -11.0107
  63   2.0000      -0.357714        -9.7339
  64   2.0000      -0.330879        -9.0037
  65   2.0000      -0.328993        -8.9523
  66   2.0000      -0.284992        -7.7550
  67   0.0000       0.019262         0.5241
  68   0.0000       0.071971         1.9584
  69   0.0000       0.104148         2.8340
  70   0.0000       0.115979         3.1559
  71   0.0000       0.128069         3.4849

MULLIKEN ATOMIC CHARGES
-----------------------
   0 S :    0.122778
   1 C :   -0.093247
   2 C :   -0.053816
   3 C :    0.029722
   4 C :   -0.130523
   5 H :   -0.032470
   6 C :    0.012153
   7 H :    0.024142
   8 H :    0.033878
   9 C :   -0.050726
  10 H :    0.002033
  11 H :    0.022882
  12 C :   -0.032652
  13 H :    0.024363
  14 H :    0.025641
  15 H :    0.043739
  16 S :    0.108231
  17 C :   -0.067117
  18 C :   -0.046819
  19 C :   -0.053240
  20 C :   -0.135844
  21 H :    0.014963
  22 C :    0.054694
  23 H :    0.017495
  24 H :    0.028069
  25 C :   -0.085930
  26 H :    0.036624
  27 H :    0.034595
  28 C :   -0.029915
  29 H :    0.024851
  30 H :    0.032095
  31 H :    0.028630
  32 H :    0.039237
  33 H :    0.051485
Sum of atomic charges:   -0.0000000

LOEWDIN ATOMIC CHARGES
----------------------
   0 S :    0.387136
   1 C :   -0.198984
   2 C :   -0.066079
   3 C :   -0.053554
   4 C :   -0.174615
   5 H :    0.028172
   6 C :   -0.038929
   7 H :    0.030145
   8 H :    0.035313
   9 C :   -0.035992
  10 H :    0.013340
  11 H :    0.015296
  12 C :   -0.059708
  13 H :    0.028054
  14 H :    0.020721
  15 H :    0.033066
  16 S :    0.413641
  17 C :   -0.188095
  18 C :   -0.067804
  19 C :   -0.055942
  20 C :   -0.199237
  21 H :    0.029805
  22 C :   -0.036104
  23 H :    0.031549
  24 H :    0.029298
  25 C :   -0.044804
  26 H :    0.017236
  27 H :    0.031240
  28 C :   -0.060198
  29 H :    0.029942
  30 H :    0.017032
  31 H :    0.023455
  32 H :    0.030461
  33 H :    0.035144

  Mayer bond orders larger than 0.100000
B(  0-S ,  1-C ) :   1.1373 B(  0-S ,  4-C ) :   1.1117 B(  1-C ,  2-C ) :   1.6122
B(  1-C , 32-H ) :   0.9567 B(  2-C ,  3-C ) :   1.2484 B(  2-C ,  6-C ) :   1.0207
B(  3-C ,  4-C ) :   1.5561 B(  3-C ,  5-H ) :   0.9919 B(  4-C , 20-C ) :   1.1087
B(  6-C ,  7-H ) :   0.9304 B(  6-C ,  8-H ) :   0.9518 B(  6-C ,  9-C ) :   1.0712
B(  9-C , 10-H ) :   0.9538 B(  9-C , 11-H ) :   0.9633 B(  9-C , 12-C ) :   1.0729
B( 12-C , 13-H ) :   0.9705 B( 12-C , 14-H ) :   0.9783 B( 12-C , 15-H ) :   0.9773
B( 16-S , 17-C ) :   1.1427 B( 16-S , 20-C ) :   1.1252 B( 17-C , 18-C ) :   1.6345
B( 17-C , 33-H ) :   0.9617 B( 18-C , 19-C ) :   1.2305 B( 18-C , 21-H ) :   0.9917
B( 19-C , 20-C ) :   1.5803 B( 19-C , 22-C ) :   1.0672 B( 22-C , 23-H ) :   0.9207
B( 22-C , 24-H ) :   0.9397 B( 22-C , 25-C ) :   1.0328 B( 25-C , 26-H ) :   0.9586
B( 25-C , 27-H ) :   0.9483 B( 25-C , 28-C ) :   1.0770 B( 28-C , 29-H ) :   0.9697
B( 28-C , 30-H ) :   0.9754 B( 28-C , 31-H ) :   0.9721

Dispersion correction           -0.014319930
FINAL SINGLE POINT ENERGY     -1339.856483530468

DIPOLE MOMENT
-------------
                                X             Y             Z
Electronic contribution:    -20.91617      13.83723     -21.12366
Nuclear contribution   :     21.17609     -14.18273      21.81085
                        -----------------------------------------
Total Dipole Moment    :      0.25992      -0.34550       0.68719
                        -----------------------------------------
Magnitude (a.u.)       :      0.81188
Magnitude (Debye)      :      2.06364

Rotational constants in cm-1:     0.020112     0.008700     0.006332
Rotational constants in MHz :   602.944620   260.820718   189.836041

                             ****ORCA TERMINATED NORMALLY****
TOTAL RUN TIME: 0 days 0 hours 0 minutes 20 seconds 956 msec
