                         Program Version 4.2.1 -  RELEASE  -
|  1> ! wB97X-D3 SP def2-SVP
|  2> %pal
|  3> nprocs 24
|  4> end
|  5>
|  6> * xyz 0 1
|  7> S 	 -127.158 	 62.6227 	 -61.6108
|  8> C 	 -128.768 	 62.3855 	 -62.2949
|  9> C 	 -129.753 	 63.0077 	 -61.4881
| 10> C 	 -129.157 	 63.4634 	 -60.2315
| 11> C 	 -127.801 	 63.2012 	 -60.1465
| 12> H 	 -129.777 	 63.7049 	 -59.3499
| 13> C 	 -131.285 	 63.0768 	 -61.62
| 14> H 	 -131.681 	 62.263 	 -60.9562
| 15> H 	 -131.488 	 62.5924 	 -62.6097
| 16> C 	 -131.902 	 64.4595 	 -61.4186
| 17> H 	 -132.988 	 64.4634 	 -61.4683
| 18> H 	 -131.711 	 64.8525 	 -60.436
| 19> C 	 -131.402 	 65.5168 	 -62.4423
| 20> H 	 -131.588 	 65.1698 	 -63.4345
| 21> H 	 -132.071 	 66.4209 	 -62.2979
| 22> H 	 -130.448 	 65.9243 	 -62.3574
| 23> S 	 -125.388 	 63.8243 	 -58.9627
| 24> C 	 -125.185 	 63.9679 	 -57.3186
| 25> C 	 -126.316 	 63.4612 	 -56.6552
| 26> C 	 -127.379 	 63.1001 	 -57.5455
| 27> C 	 -127.085 	 63.3821 	 -58.881
| 28> H 	 -126.363 	 63.2598 	 -55.5886
| 29> C 	 -128.696 	 62.4885 	 -57.0426
| 30> H 	 -129.599 	 63.1711 	 -57.1886
| 31> H 	 -128.54 	 62.4797 	 -55.9976
| 32> C 	 -128.832 	 61.0073 	 -57.2964
| 33> H 	 -127.95 	 60.5079 	 -56.8834
| 34> H 	 -128.965 	 60.8415 	 -58.4073
| 35> C 	 -130.103 	 60.3313 	 -56.6463
| 36> H 	 -130.105 	 60.5667 	 -55.5842
| 37> H 	 -130.188 	 59.204 	 -56.7542
| 38> H 	 -130.907 	 60.9117 	 -57.0087
| 39> H 	 -129.081 	 61.8413 	 -63.2095
| 40> H 	 -124.342 	 64.379 	 -56.8059
| 41> *
| 42>
| 43>                          ****END OF INPUT****

CARTESIAN COORDINATES (ANGSTROEM)
---------------------------------
  S    -127.158000   62.622700  -61.610800
  C    -128.768000   62.385500  -62.294900
  C    -129.753000   63.007700  -61.488100
  C    -129.157000   63.463400  -60.231500
  C    -127.801000   63.201200  -60.146500
  H    -129.777000   63.704900  -59.349900
  C    -131.285000   63.076800  -61.620000
  H    -131.681000   62.263000  -60.956200
  H    -131.488000   62.592400  -62.609700
  C    -131.902000   64.459500  -61.418600
  H    -132.988000   64.463400  -61.468300
  H    -131.711000   64.852500  -60.436000
  C    -131.402000   65.516800  -62.442300
  H    -131.588000   65.169800  -63.434500
  H    -132.071000   66.420900  -62.297900
  H    -130.448000   65.924300  -62.357400
  S    -125.388000   63.824300  -58.962700
  C    -125.185000   63.967900  -57.318600
  C    -126.316000   63.461200  -56.655200
  C    -127.379000   63.100100  -57.545500
  C    -127.085000   63.382100  -58.881000
  H    -126.363000   63.259800  -55.588600
  C    -128.696000   62.488500  -57.042600
  H    -129.599000   63.171100  -57.188600
  H    -128.540000   62.479700  -55.997600
  C    -128.832000   61.007300  -57.296400
  H    -127.950000   60.507900  -56.883400
  H    -128.965000   60.841500  -58.407300
  C    -130.103000   60.331300  -56.646300
  H    -130.105000   60.566700  -55.584200
  H    -130.188000   59.204000  -56.754200
  H    -130.907000   60.911700  -57.008700
  H    -129.081000   61.841300  -63.209500
  H    -124.342000   64.379000  -56.805900

 Total Charge           Charge          ....    0
 Multiplicity           Mult            ....    1
 Number of Electrons    NEL             ....  134
 Basis Dimension        Dim             ....  322

ORBITAL ENERGIES
----------------

  NO   OCC          E(Eh)            E(eV)
   0   2.0000     -88.971314     -2421.0325
   1   2.0000     -88.964422     -2420.8450
   2   2.0000     -10.329155      -281.0706
   3   2.0000     -10.328579      -281.0549
   4   2.0000     -10.321000      -280.8487
   5   2.0000     -10.314293      -280.6662
   6   2.0000     -10.308258      -280.5020
   7   2.0000     -10.306099      -280.4432
   8   2.0000     -10.303064      -280.3606
   9   2.0000     -10.295782      -280.1625
  10   2.0000     -10.294338      -280.1232
  11   2.0000     -10.292515      -280.0736
  12   2.0000     -10.291919      -280.0574
  13   2.0000     -10.289447      -279.9901
  14   2.0000     -10.280259      -279.7401
  15   2.0000     -10.273283      -279.5502
  16   2.0000      -8.086263      -220.0384
  17   2.0000      -8.080871      -219.8917
  18   2.0000      -6.044934      -164.4910
  19   2.0000      -6.040809      -164.3788
  20   2.0000      -6.039162      -164.3340
  21   2.0000      -6.036766      -164.2687
  22   2.0000      -6.035024      -164.2214
  23   2.0000      -6.031891      -164.1361
  24   2.0000      -1.011538       -27.5254
  25   2.0000      -0.987360       -26.8674
  26   2.0000      -0.911587       -24.8055
  27   2.0000      -0.909760       -24.7558
  28   2.0000      -0.866831       -23.5877
  29   2.0000      -0.851090       -23.1593
  30   2.0000      -0.842821       -22.9343
  31   2.0000      -0.807915       -21.9845
  32   2.0000      -0.783048       -21.3078
  33   2.0000      -0.775884       -21.1129
  34   2.0000      -0.709446       -19.3050
  35   2.0000      -0.699304       -19.0290
  36   2.0000      -0.687134       -18.6979
  37   2.0000      -0.665436       -18.1074
  38   2.0000      -0.629954       -17.1419
  39   2.0000      -0.620574       -16.8867
  40   2.0000      -0.594826       -16.1860
  41   2.0000      -0.567391       -15.4395
  42   2.0000      -0.562206       -15.2984
  43   2.0000      -0.550768       -14.9872
  44   2.0000      -0.543138       -14.7795
  45   2.0000      -0.524826       -14.2812
  46   2.0000      -0.519672       -14.1410
  47   2.0000      -0.511861       -13.9285
  48   2.0000      -0.506297       -13.7770
  49   2.0000      -0.495824       -13.4920
  50   2.0000      -0.487479       -13.2650
  51   2.0000      -0.485069       -13.1994
  52   2.0000      -0.469484       -12.7753
  53   2.0000      -0.459686       -12.5087
  54   2.0000      -0.458021       -12.4634
  55   2.0000      -0.452772       -12.3206
  56   2.0000      -0.449445       -12.2300
  57   2.0000      -0.435992       -11.8639
  58   2.0000      -0.431677       -11.7465
  59   2.0000      -0.425364       -11.5747
  60   2.0000      -0.419387       -11.4121
  61   2.0000      -0.414398       -11.2763
  62   2.0000      -0.402401       -10.9499
  63   2.0000      -0.354551        -9.6478
  64   2.0000      -0.332062        -9.0359
  65   2.0000      -0.327261        -8.9052
  66   2.0000      -0.283965        -7.7271
  67   0.0000       0.027205         0.7403
  68   0.0000       0.070915         1.9297
  69   0.0000       0.104611         2.8466
  70   0.0000       0.111211         3.0262
  71   0.0000       0.134572         3.6619

MULLIKEN ATOMIC CHARGES
-----------------------
   0 S :    0.129402
   1 C :   -0.136864
   2 C :   -0.107075
   3 C :   -0.014793
   4 C :   -0.099941
   5 H :    0.020457
   6 C :    0.042477
   7 H :    0.049638
   8 H :    0.015163
   9 C :   -0.045031
  10 H :    0.031698
  11 H :    0.024349
  12 C :   -0.046873
  13 H :    0.024294
  14 H :    0.026604
  15 H :    0.038701
  16 S :    0.107172
  17 C :   -0.071869
  18 C :   -0.042833
  19 C :   -0.073401
  20 C :   -0.150930
  21 H :    0.020590
  22 C :    0.059966
  23 H :    0.055265
  24 H :   -0.013462
  25 C :   -0.094103
  26 H :    0.036317
  27 H :    0.050359
  28 C :   -0.039905
  29 H :    0.014767
  30 H :    0.061138
  31 H :    0.014535
  32 H :    0.057875
  33 H :    0.056312
Sum of atomic charges:    0.0000000

LOEWDIN ATOMIC CHARGES
----------------------
   0 S :    0.420310
   1 C :   -0.213095
   2 C :   -0.055777
   3 C :   -0.072753
   4 C :   -0.207679
   5 H :    0.032209
   6 C :   -0.042390
   7 H :    0.040127
   8 H :    0.030031
   9 C :   -0.038586
  10 H :    0.028897
  11 H :    0.021895
  12 C :   -0.057669
  13 H :    0.020252
  14 H :    0.033500
  15 H :    0.018675
  16 S :    0.441876
  17 C :   -0.211178
  18 C :   -0.078229
  19 C :   -0.057578
  20 C :   -0.190260
  21 H :    0.030240
  22 C :   -0.041388
  23 H :    0.036219
  24 H :    0.022935
  25 C :   -0.039466
  26 H :    0.026702
  27 H :    0.028791
  28 C :   -0.069310
  29 H :    0.019064
  30 H :    0.038325
  31 H :    0.017187
  32 H :    0.037595
  33 H :    0.030527

  Mayer bond orders larger than 0.100000
B(  0-S ,  1-C ) :   1.1215 B(  0-S ,  4-C ) :   1.1502 B(  1-C ,  2-C ) :   1.6270
B(  1-C , 32-H ) :   0.9609 B(  2-C ,  3-C ) :   1.2214 B(  2-C ,  6-C ) :   1.0163
B(  3-C ,  4-C ) :   1.5699 B(  3-C ,  5-H ) :   0.9857 B(  4-C , 20-C ) :   1.0622
B(  6-C ,  7-H ) :   0.9433 B(  6-C ,  8-H ) :   0.9413 B(  6-C ,  9-C ) :   1.0613
B(  9-C , 10-H ) :   0.9566 B(  9-C , 11-H ) :   0.9547 B(  9-C , 12-C ) :   1.0729
B( 12-C , 13-H ) :   0.9785 B( 12-C , 14-H ) :   0.9737 B( 12-C , 15-H ) :   0.9779
B( 16-S , 17-C ) :   1.2018 B( 16-S , 20-C ) :   1.1509 B( 17-C , 18-C ) :   1.5347
B( 17-C , 20-C ) :   0.1047 B( 17-C , 33-H ) :   0.9725 B( 18-C , 19-C ) :   1.3116
B( 18-C , 21-H ) :   0.9844 B( 19-C , 20-C ) :   1.5438 B( 19-C , 22-C ) :   1.0351
B( 22-C , 23-H ) :   0.9362 B( 22-C , 24-H ) :   0.9175 B( 22-C , 25-C ) :   1.0549
B( 25-C , 26-H ) :   0.9539 B( 25-C , 27-H ) :   0.9601 B( 25-C , 28-C ) :   1.0729
B( 28-C , 29-H ) :   0.9739 B( 28-C , 30-H ) :   0.9753 B( 28-C , 31-H ) :   0.9737

Dispersion correction           -0.014617287
FINAL SINGLE POINT ENERGY     -1339.860005912964

DIPOLE MOMENT
-------------
                                X             Y             Z
Electronic contribution:     26.93918       2.79135      -5.51965
Nuclear contribution   :    -27.54050      -2.92033       5.90165
                        -----------------------------------------
Total Dipole Moment    :     -0.60131      -0.12898       0.38200
                        -----------------------------------------
Magnitude (a.u.)       :      0.72397
Magnitude (Debye)      :      1.84019

Rotational constants in cm-1:     0.017261     0.009339     0.007417
Rotational constants in MHz :   517.460333   279.973335   222.357531

                             ****ORCA TERMINATED NORMALLY****
TOTAL RUN TIME: 0 days 0 hours 0 minutes 20 seconds 846 msec
