                         Program Version 4.2.1 -  RELEASE  -
|  1> ! wB97X-D3 SP def2-SVP
|  2> %pal
|  3> nprocs 24
|  4> end
|  5>
|  6> * xyz 0 1
|  7> S 	 -90.4229 	 -34.1389 	 -66.0207
|  8> C 	 -90.9085 	 -34.8169 	 -67.5811
|  9> C 	 -90.7171 	 -36.194 	 -67.6018
| 10> C 	 -90.336 	 -36.6649 	 -66.3258
| 11> C 	 -90.0092 	 -35.7504 	 -65.3628
| 12> H 	 -90.2837 	 -37.7512 	 -66.2136
| 13> C 	 -91.0534 	 -37.0961 	 -68.7488
| 14> H 	 -91.1146 	 -38.1304 	 -68.4006
| 15> H 	 -90.2362 	 -37.0145 	 -69.473
| 16> C 	 -92.4883 	 -36.7788 	 -69.3047
| 17> H 	 -93.4226 	 -36.9803 	 -68.7184
| 18> H 	 -92.5745 	 -35.7485 	 -69.6425
| 19> C 	 -92.7002 	 -37.5758 	 -70.5794
| 20> H 	 -92.8742 	 -38.5953 	 -70.3561
| 21> H 	 -93.5812 	 -37.286 	 -71.0961
| 22> H 	 -91.9723 	 -37.4568 	 -71.2848
| 23> S 	 -88.9849 	 -37.6874 	 -63.8123
| 24> C 	 -88.1974 	 -37.3441 	 -62.3354
| 25> C 	 -88.5919 	 -36.096 	 -61.8783
| 26> C 	 -89.4031 	 -35.357 	 -62.784
| 27> C 	 -89.5578 	 -36.0294 	 -64.0171
| 28> H 	 -88.2992 	 -35.6858 	 -60.9483
| 29> C 	 -89.7048 	 -33.8858 	 -62.5487
| 30> H 	 -89.8273 	 -33.4302 	 -63.5308
| 31> H 	 -88.8548 	 -33.3088 	 -62.235
| 32> C 	 -90.9227 	 -33.628 	 -61.7252
| 33> H 	 -90.9021 	 -32.5902 	 -61.2759
| 34> H 	 -90.9223 	 -34.258 	 -60.8877
| 35> C 	 -92.2017 	 -33.7241 	 -62.5825
| 36> H 	 -92.0298 	 -33.0989 	 -63.4182
| 37> H 	 -93.2222 	 -33.5343 	 -62.1416
| 38> H 	 -92.27 	 -34.7097 	 -63.014
| 39> H 	 -91.1582 	 -34.1176 	 -68.4449
| 40> H 	 -87.6621 	 -38.083 	 -61.6961
| 41> *
| 42>
| 43>                          ****END OF INPUT****

CARTESIAN COORDINATES (ANGSTROEM)
---------------------------------
  S    -90.422900  -34.138900  -66.020700
  C    -90.908500  -34.816900  -67.581100
  C    -90.717100  -36.194000  -67.601800
  C    -90.336000  -36.664900  -66.325800
  C    -90.009200  -35.750400  -65.362800
  H    -90.283700  -37.751200  -66.213600
  C    -91.053400  -37.096100  -68.748800
  H    -91.114600  -38.130400  -68.400600
  H    -90.236200  -37.014500  -69.473000
  C    -92.488300  -36.778800  -69.304700
  H    -93.422600  -36.980300  -68.718400
  H    -92.574500  -35.748500  -69.642500
  C    -92.700200  -37.575800  -70.579400
  H    -92.874200  -38.595300  -70.356100
  H    -93.581200  -37.286000  -71.096100
  H    -91.972300  -37.456800  -71.284800
  S    -88.984900  -37.687400  -63.812300
  C    -88.197400  -37.344100  -62.335400
  C    -88.591900  -36.096000  -61.878300
  C    -89.403100  -35.357000  -62.784000
  C    -89.557800  -36.029400  -64.017100
  H    -88.299200  -35.685800  -60.948300
  C    -89.704800  -33.885800  -62.548700
  H    -89.827300  -33.430200  -63.530800
  H    -88.854800  -33.308800  -62.235000
  C    -90.922700  -33.628000  -61.725200
  H    -90.902100  -32.590200  -61.275900
  H    -90.922300  -34.258000  -60.887700
  C    -92.201700  -33.724100  -62.582500
  H    -92.029800  -33.098900  -63.418200
  H    -93.222200  -33.534300  -62.141600
  H    -92.270000  -34.709700  -63.014000
  H    -91.158200  -34.117600  -68.444900
  H    -87.662100  -38.083000  -61.696100

 Total Charge           Charge          ....    0
 Multiplicity           Mult            ....    1
 Number of Electrons    NEL             ....  134
 Basis Dimension        Dim             ....  322

ORBITAL ENERGIES
----------------

  NO   OCC          E(Eh)            E(eV)
   0   2.0000     -88.967809     -2420.9371
   1   2.0000     -88.963980     -2420.8330
   2   2.0000     -10.335510      -281.2435
   3   2.0000     -10.333975      -281.2018
   4   2.0000     -10.321348      -280.8582
   5   2.0000     -10.319041      -280.7954
   6   2.0000     -10.306625      -280.4575
   7   2.0000     -10.299508      -280.2639
   8   2.0000     -10.299295      -280.2581
   9   2.0000     -10.291369      -280.0424
  10   2.0000     -10.291249      -280.0391
  11   2.0000     -10.290913      -280.0300
  12   2.0000     -10.286049      -279.8976
  13   2.0000     -10.280724      -279.7527
  14   2.0000     -10.268067      -279.4083
  15   2.0000     -10.260156      -279.1930
  16   2.0000      -8.080944      -219.8937
  17   2.0000      -8.079281      -219.8484
  18   2.0000      -6.039670      -164.3478
  19   2.0000      -6.037797      -164.2968
  20   2.0000      -6.035625      -164.2377
  21   2.0000      -6.033704      -164.1854
  22   2.0000      -6.031642      -164.1293
  23   2.0000      -6.030008      -164.0849
  24   2.0000      -1.008086       -27.4314
  25   2.0000      -0.985138       -26.8070
  26   2.0000      -0.915049       -24.8997
  27   2.0000      -0.913485       -24.8572
  28   2.0000      -0.872800       -23.7501
  29   2.0000      -0.854867       -23.2621
  30   2.0000      -0.844501       -22.9800
  31   2.0000      -0.810817       -22.0634
  32   2.0000      -0.783078       -21.3086
  33   2.0000      -0.770334       -20.9618
  34   2.0000      -0.711874       -19.3711
  35   2.0000      -0.703369       -19.1396
  36   2.0000      -0.694868       -18.9083
  37   2.0000      -0.666417       -18.1341
  38   2.0000      -0.631837       -17.1932
  39   2.0000      -0.620575       -16.8867
  40   2.0000      -0.604175       -16.4404
  41   2.0000      -0.575651       -15.6643
  42   2.0000      -0.561682       -15.2841
  43   2.0000      -0.552324       -15.0295
  44   2.0000      -0.538186       -14.6448
  45   2.0000      -0.530854       -14.4453
  46   2.0000      -0.520942       -14.1756
  47   2.0000      -0.512096       -13.9348
  48   2.0000      -0.509802       -13.8724
  49   2.0000      -0.498235       -13.5577
  50   2.0000      -0.491002       -13.3608
  51   2.0000      -0.472164       -12.8482
  52   2.0000      -0.470218       -12.7953
  53   2.0000      -0.465810       -12.6753
  54   2.0000      -0.458024       -12.4635
  55   2.0000      -0.446364       -12.1462
  56   2.0000      -0.444848       -12.1049
  57   2.0000      -0.440597       -11.9893
  58   2.0000      -0.432715       -11.7748
  59   2.0000      -0.426322       -11.6008
  60   2.0000      -0.416235       -11.3263
  61   2.0000      -0.412649       -11.2287
  62   2.0000      -0.402743       -10.9592
  63   2.0000      -0.363970        -9.9041
  64   2.0000      -0.334700        -9.1077
  65   2.0000      -0.328601        -8.9417
  66   2.0000      -0.278673        -7.5831
  67   0.0000       0.012714         0.3460
  68   0.0000       0.081556         2.2193
  69   0.0000       0.109097         2.9687
  70   0.0000       0.118703         3.2301
  71   0.0000       0.126777         3.4498

MULLIKEN ATOMIC CHARGES
-----------------------
   0 S :    0.082685
   1 C :   -0.162773
   2 C :   -0.063289
   3 C :   -0.030320
   4 C :   -0.065005
   5 H :    0.021535
   6 C :    0.072698
   7 H :    0.025900
   8 H :    0.050581
   9 C :   -0.108980
  10 H :    0.050359
  11 H :    0.024783
  12 C :    0.004407
  13 H :    0.015962
  14 H :    0.009633
  15 H :    0.004640
  16 S :    0.081395
  17 C :   -0.077596
  18 C :   -0.028190
  19 C :   -0.044843
  20 C :   -0.143129
  21 H :    0.001290
  22 C :    0.036578
  23 H :    0.006892
  24 H :    0.028230
  25 C :   -0.031853
  26 H :    0.029232
  27 H :    0.012789
  28 C :   -0.040170
  29 H :    0.010687
  30 H :    0.044598
  31 H :    0.023670
  32 H :    0.081810
  33 H :    0.075794
Sum of atomic charges:   -0.0000000

LOEWDIN ATOMIC CHARGES
----------------------
   0 S :    0.389039
   1 C :   -0.200071
   2 C :   -0.066781
   3 C :   -0.077175
   4 C :   -0.181296
   5 H :    0.026454
   6 C :   -0.025495
   7 H :    0.032367
   8 H :    0.040212
   9 C :   -0.036638
  10 H :    0.037711
  11 H :    0.019500
  12 C :   -0.058457
  13 H :    0.018694
  14 H :    0.022386
  15 H :    0.010065
  16 S :    0.424060
  17 C :   -0.202540
  18 C :   -0.067193
  19 C :   -0.057255
  20 C :   -0.178643
  21 H :    0.023209
  22 C :   -0.035441
  23 H :    0.019399
  24 H :    0.032667
  25 C :   -0.036938
  26 H :    0.029324
  27 H :    0.012958
  28 C :   -0.067105
  29 H :    0.014991
  30 H :    0.031441
  31 H :    0.023394
  32 H :    0.041814
  33 H :    0.041342

  Mayer bond orders larger than 0.100000
B(  0-S ,  1-C ) :   1.1385 B(  0-S ,  4-C ) :   1.1213 B(  1-C ,  2-C ) :   1.5821
B(  1-C , 32-H ) :   0.9571 B(  2-C ,  3-C ) :   1.3027 B(  2-C ,  6-C ) :   1.0171
B(  3-C ,  4-C ) :   1.5391 B(  3-C ,  5-H ) :   0.9711 B(  4-C , 20-C ) :   1.1161
B(  6-C ,  7-H ) :   0.9476 B(  6-C ,  8-H ) :   0.9338 B(  6-C ,  9-C ) :   1.0602
B(  9-C , 10-H ) :   0.9616 B(  9-C , 11-H ) :   0.9568 B(  9-C , 12-C ) :   1.0909
B( 12-C , 13-H ) :   0.9725 B( 12-C , 14-H ) :   0.9676 B( 12-C , 15-H ) :   0.9727
B( 16-S , 17-C ) :   1.1605 B( 16-S , 20-C ) :   1.1499 B( 17-C , 18-C ) :   1.5772
B( 17-C , 33-H ) :   0.9637 B( 18-C , 19-C ) :   1.2726 B( 18-C , 21-H ) :   0.9957
B( 19-C , 20-C ) :   1.5253 B( 19-C , 22-C ) :   1.0282 B( 22-C , 23-H ) :   0.9425
B( 22-C , 24-H ) :   0.9379 B( 22-C , 25-C ) :   1.0612 B( 25-C , 26-H ) :   0.9524
B( 25-C , 27-H ) :   0.9589 B( 25-C , 28-C ) :   1.0657 B( 28-C , 29-H ) :   0.9717
B( 28-C , 30-H ) :   0.9760 B( 28-C , 31-H ) :   0.9766

Dispersion correction           -0.014268944
FINAL SINGLE POINT ENERGY     -1339.864030888282

DIPOLE MOMENT
-------------
                                X             Y             Z
Electronic contribution:     14.18036      -2.65450       8.56641
Nuclear contribution   :    -14.27009       2.56628      -8.76194
                        -----------------------------------------
Total Dipole Moment    :     -0.08973      -0.08822      -0.19553
                        -----------------------------------------
Magnitude (a.u.)       :      0.23252
Magnitude (Debye)      :      0.59102

Rotational constants in cm-1:     0.023435     0.007645     0.006280
Rotational constants in MHz :   702.549646   229.183132   188.257564

                             ****ORCA TERMINATED NORMALLY****
TOTAL RUN TIME: 0 days 0 hours 0 minutes 23 seconds 426 msec
