                         Program Version 4.2.1 -  RELEASE  -
|  1> ! wB97X-D3 SP def2-SVP
|  2> %pal
|  3> nprocs 24
|  4> end
|  5>
|  6> * xyz 0 1
|  7> S 	 -104.801 	 21.0142 	 -114.365
|  8> C 	 -103.462 	 20.6647 	 -113.348
|  9> C 	 -103.833 	 20.7918 	 -112.01
| 10> C 	 -105.213 	 21.2692 	 -111.883
| 11> C 	 -105.85 	 21.5185 	 -113.053
| 12> H 	 -105.85 	 21.3463 	 -111
| 13> C 	 -102.978 	 20.4405 	 -110.85
| 14> H 	 -102.562 	 19.4672 	 -111.083
| 15> H 	 -103.696 	 20.3279 	 -109.961
| 16> C 	 -101.914 	 21.3809 	 -110.252
| 17> H 	 -101.323 	 20.8569 	 -109.523
| 18> H 	 -101.257 	 21.7202 	 -111.071
| 19> C 	 -102.499 	 22.7043 	 -109.751
| 20> H 	 -103.205 	 22.4719 	 -108.947
| 21> H 	 -101.692 	 23.2354 	 -109.388
| 22> H 	 -102.99 	 23.0988 	 -110.635
| 23> S 	 -108.159 	 20.696 	 -114.545
| 24> C 	 -109.655 	 21.4394 	 -113.951
| 25> C 	 -109.409 	 22.5831 	 -113.242
| 26> C 	 -108.089 	 22.6695 	 -112.755
| 27> C 	 -107.263 	 21.7262 	 -113.33
| 28> H 	 -110.215 	 23.2365 	 -112.935
| 29> C 	 -107.683 	 23.7406 	 -111.795
| 30> H 	 -106.866 	 23.2944 	 -111.205
| 31> H 	 -108.476 	 23.9875 	 -111.129
| 32> C 	 -107.187 	 24.9715 	 -112.521
| 33> H 	 -107.993 	 25.3538 	 -113.183
| 34> H 	 -106.329 	 24.6835 	 -113.011
| 35> C 	 -106.815 	 26.0766 	 -111.518
| 36> H 	 -107.696 	 26.6071 	 -111.183
| 37> H 	 -105.988 	 26.761 	 -111.872
| 38> H 	 -106.485 	 25.638 	 -110.614
| 39> H 	 -102.461 	 20.3893 	 -113.683
| 40> H 	 -110.601 	 21.2442 	 -114.443
| 41> *
| 42>
| 43>                          ****END OF INPUT****

CARTESIAN COORDINATES (ANGSTROEM)
---------------------------------
  S    -104.801000   21.014200  -114.365000
  C    -103.462000   20.664700  -113.348000
  C    -103.833000   20.791800  -112.010000
  C    -105.213000   21.269200  -111.883000
  C    -105.850000   21.518500  -113.053000
  H    -105.850000   21.346300  -111.000000
  C    -102.978000   20.440500  -110.850000
  H    -102.562000   19.467200  -111.083000
  H    -103.696000   20.327900  -109.961000
  C    -101.914000   21.380900  -110.252000
  H    -101.323000   20.856900  -109.523000
  H    -101.257000   21.720200  -111.071000
  C    -102.499000   22.704300  -109.751000
  H    -103.205000   22.471900  -108.947000
  H    -101.692000   23.235400  -109.388000
  H    -102.990000   23.098800  -110.635000
  S    -108.159000   20.696000  -114.545000
  C    -109.655000   21.439400  -113.951000
  C    -109.409000   22.583100  -113.242000
  C    -108.089000   22.669500  -112.755000
  C    -107.263000   21.726200  -113.330000
  H    -110.215000   23.236500  -112.935000
  C    -107.683000   23.740600  -111.795000
  H    -106.866000   23.294400  -111.205000
  H    -108.476000   23.987500  -111.129000
  C    -107.187000   24.971500  -112.521000
  H    -107.993000   25.353800  -113.183000
  H    -106.329000   24.683500  -113.011000
  C    -106.815000   26.076600  -111.518000
  H    -107.696000   26.607100  -111.183000
  H    -105.988000   26.761000  -111.872000
  H    -106.485000   25.638000  -110.614000
  H    -102.461000   20.389300  -113.683000
  H    -110.601000   21.244200  -114.443000

 Total Charge           Charge          ....    0
 Multiplicity           Mult            ....    1
 Number of Electrons    NEL             ....  134
 Basis Dimension        Dim             ....  322

ORBITAL ENERGIES
----------------

  NO   OCC          E(Eh)            E(eV)
   0   2.0000     -88.967862     -2420.9386
   1   2.0000     -88.962962     -2420.8053
   2   2.0000     -10.331077      -281.1229
   3   2.0000     -10.327361      -281.0218
   4   2.0000     -10.318233      -280.7734
   5   2.0000     -10.316518      -280.7267
   6   2.0000     -10.306621      -280.4574
   7   2.0000     -10.299550      -280.2650
   8   2.0000     -10.296747      -280.1887
   9   2.0000     -10.292837      -280.0823
  10   2.0000     -10.292448      -280.0718
  11   2.0000     -10.286963      -279.9225
  12   2.0000     -10.284694      -279.8607
  13   2.0000     -10.279085      -279.7081
  14   2.0000     -10.274223      -279.5758
  15   2.0000     -10.270435      -279.4727
  16   2.0000      -8.081120      -219.8985
  17   2.0000      -8.078466      -219.8262
  18   2.0000      -6.039797      -164.3512
  19   2.0000      -6.037048      -164.2764
  20   2.0000      -6.036165      -164.2524
  21   2.0000      -6.032763      -164.1598
  22   2.0000      -6.031441      -164.1239
  23   2.0000      -6.029201      -164.0629
  24   2.0000      -1.008058       -27.4306
  25   2.0000      -0.984806       -26.7979
  26   2.0000      -0.916670       -24.9439
  27   2.0000      -0.914215       -24.8771
  28   2.0000      -0.873393       -23.7662
  29   2.0000      -0.853774       -23.2324
  30   2.0000      -0.846025       -23.0215
  31   2.0000      -0.817796       -22.2534
  32   2.0000      -0.783411       -21.3177
  33   2.0000      -0.770547       -20.9677
  34   2.0000      -0.707575       -19.2541
  35   2.0000      -0.700331       -19.0570
  36   2.0000      -0.695605       -18.9284
  37   2.0000      -0.663115       -18.0443
  38   2.0000      -0.643395       -17.5077
  39   2.0000      -0.610283       -16.6067
  40   2.0000      -0.596305       -16.2263
  41   2.0000      -0.577480       -15.7140
  42   2.0000      -0.575682       -15.6651
  43   2.0000      -0.563308       -15.3284
  44   2.0000      -0.543353       -14.7854
  45   2.0000      -0.525976       -14.3125
  46   2.0000      -0.514631       -14.0038
  47   2.0000      -0.510516       -13.8919
  48   2.0000      -0.505587       -13.7577
  49   2.0000      -0.501303       -13.6412
  50   2.0000      -0.490820       -13.3559
  51   2.0000      -0.478758       -13.0277
  52   2.0000      -0.471064       -12.8183
  53   2.0000      -0.468478       -12.7479
  54   2.0000      -0.454518       -12.3681
  55   2.0000      -0.450783       -12.2664
  56   2.0000      -0.444713       -12.1013
  57   2.0000      -0.436079       -11.8663
  58   2.0000      -0.433910       -11.8073
  59   2.0000      -0.428361       -11.6563
  60   2.0000      -0.421460       -11.4685
  61   2.0000      -0.419820       -11.4239
  62   2.0000      -0.404889       -11.0176
  63   2.0000      -0.358286        -9.7495
  64   2.0000      -0.333315        -9.0700
  65   2.0000      -0.324500        -8.8301
  66   2.0000      -0.289165        -7.8686
  67   0.0000       0.025573         0.6959
  68   0.0000       0.059193         1.6107
  69   0.0000       0.107708         2.9309
  70   0.0000       0.113499         3.0885
  71   0.0000       0.127579         3.4716

MULLIKEN ATOMIC CHARGES
-----------------------
   0 S :    0.090327
   1 C :   -0.104200
   2 C :   -0.108911
   3 C :    0.024730
   4 C :   -0.171080
   5 H :    0.028006
   6 C :    0.029298
   7 H :    0.034695
   8 H :    0.024741
   9 C :   -0.069724
  10 H :    0.029531
  11 H :    0.019256
  12 C :   -0.022975
  13 H :    0.023512
  14 H :    0.026132
  15 H :    0.046678
  16 S :    0.098347
  17 C :   -0.086435
  18 C :   -0.024067
  19 C :   -0.065197
  20 C :   -0.127620
  21 H :    0.020242
  22 C :    0.084057
  23 H :    0.008444
  24 H :    0.012881
  25 C :   -0.045124
  26 H :    0.037070
  27 H :    0.018489
  28 C :   -0.024447
  29 H :    0.023176
  30 H :    0.049435
  31 H :    0.005898
  32 H :    0.055253
  33 H :    0.059582
Sum of atomic charges:   -0.0000000

LOEWDIN ATOMIC CHARGES
----------------------
   0 S :    0.410214
   1 C :   -0.203166
   2 C :   -0.068964
   3 C :   -0.069498
   4 C :   -0.191055
   5 H :    0.033640
   6 C :   -0.043893
   7 H :    0.032328
   8 H :    0.037071
   9 C :   -0.037553
  10 H :    0.019967
  11 H :    0.021285
  12 C :   -0.053722
  13 H :    0.021792
  14 H :    0.017264
  15 H :    0.030844
  16 S :    0.360483
  17 C :   -0.170348
  18 C :   -0.065845
  19 C :   -0.051578
  20 C :   -0.176347
  21 H :    0.031866
  22 C :   -0.028671
  23 H :    0.031269
  24 H :    0.023133
  25 C :   -0.027154
  26 H :    0.029382
  27 H :    0.017128
  28 C :   -0.066830
  29 H :    0.023458
  30 H :    0.035493
  31 H :    0.016469
  32 H :    0.033917
  33 H :    0.027622

  Mayer bond orders larger than 0.100000
B(  0-S ,  1-C ) :   1.1470 B(  0-S ,  4-C ) :   1.1339 B(  1-C ,  2-C ) :   1.5969
B(  1-C , 32-H ) :   0.9721 B(  2-C ,  3-C ) :   1.2228 B(  2-C ,  6-C ) :   1.0288
B(  3-C ,  4-C ) :   1.6051 B(  3-C ,  5-H ) :   0.9759 B(  4-C , 20-C ) :   1.0533
B(  6-C ,  7-H ) :   0.9382 B(  6-C ,  8-H ) :   0.9413 B(  6-C ,  9-C ) :   1.0710
B(  9-C , 10-H ) :   0.9554 B(  9-C , 11-H ) :   0.9566 B(  9-C , 12-C ) :   1.0698
B( 12-C , 13-H ) :   0.9766 B( 12-C , 14-H ) :   0.9732 B( 12-C , 15-H ) :   0.9769
B( 16-S , 17-C ) :   1.1362 B( 16-S , 20-C ) :   1.1082 B( 17-C , 18-C ) :   1.6399
B( 17-C , 33-H ) :   0.9618 B( 18-C , 19-C ) :   1.2289 B( 18-C , 21-H ) :   0.9829
B( 19-C , 20-C ) :   1.6158 B( 19-C , 22-C ) :   1.0525 B( 22-C , 23-H ) :   0.9116
B( 22-C , 24-H ) :   0.9307 B( 22-C , 25-C ) :   1.0805 B( 25-C , 26-H ) :   0.9589
B( 25-C , 27-H ) :   0.9526 B( 25-C , 28-C ) :   1.0828 B( 28-C , 29-H ) :   0.9726
B( 28-C , 30-H ) :   0.9753 B( 28-C , 31-H ) :   0.9683

Dispersion correction           -0.014317741
FINAL SINGLE POINT ENERGY     -1339.867779500416

DIPOLE MOMENT
-------------
                                X             Y             Z
Electronic contribution:    -11.01415     -16.94559     -21.68710
Nuclear contribution   :     11.08012      17.21380      22.23602
                        -----------------------------------------
Total Dipole Moment    :      0.06597       0.26821       0.54891
                        -----------------------------------------
Magnitude (a.u.)       :      0.61449
Magnitude (Debye)      :      1.56191

Rotational constants in cm-1:     0.018022     0.009420     0.006919
Rotational constants in MHz :   540.281814   282.402308   207.412102

                             ****ORCA TERMINATED NORMALLY****
TOTAL RUN TIME: 0 days 0 hours 0 minutes 21 seconds 1 msec
