                         Program Version 4.2.1 -  RELEASE  -
|  1> ! wB97X-D3 SP def2-SVP
|  2> %pal
|  3> nprocs 24
|  4> end
|  5>
|  6> * xyz 0 1
|  7> S 	 -58.6044 	 -57.5662 	 -78.4625
|  8> C 	 -60.0937 	 -57.8945 	 -77.6765
|  9> C 	 -60.6669 	 -56.7181 	 -77.227
| 10> C 	 -59.8733 	 -55.5144 	 -77.4548
| 11> C 	 -58.6339 	 -55.831 	 -77.9891
| 12> H 	 -60.1182 	 -54.4923 	 -77.2762
| 13> C 	 -62.1212 	 -56.7462 	 -76.7776
| 14> H 	 -62.7239 	 -57.3033 	 -77.4417
| 15> H 	 -62.4108 	 -55.7755 	 -76.8656
| 16> C 	 -62.2337 	 -57.1591 	 -75.3485
| 17> H 	 -61.9179 	 -58.2211 	 -75.1972
| 18> H 	 -61.563 	 -56.5357 	 -74.7933
| 19> C 	 -63.6372 	 -56.9762 	 -74.7821
| 20> H 	 -63.9447 	 -55.9867 	 -74.6023
| 21> H 	 -64.4023 	 -57.4569 	 -75.2802
| 22> H 	 -63.5778 	 -57.4199 	 -73.7767
| 23> S 	 -57.193 	 -54.9906 	 -80.1326
| 24> C 	 -56.0759 	 -53.6171 	 -79.9546
| 25> C 	 -56.1647 	 -53.08 	 -78.6723
| 26> C 	 -57.11 	 -53.7412 	 -77.7998
| 27> C 	 -57.5508 	 -54.9577 	 -78.3879
| 28> H 	 -55.5967 	 -52.2115 	 -78.4316
| 29> C 	 -57.3957 	 -53.244 	 -76.3874
| 30> H 	 -58.3883 	 -52.8605 	 -76.4419
| 31> H 	 -56.8186 	 -52.3977 	 -76.1378
| 32> C 	 -57.4467 	 -54.3488 	 -75.2887
| 33> H 	 -56.4381 	 -54.7547 	 -75.1453
| 34> H 	 -58.1817 	 -55.1685 	 -75.4577
| 35> C 	 -57.7176 	 -53.9336 	 -73.8296
| 36> H 	 -57.862 	 -54.7726 	 -73.164
| 37> H 	 -58.6791 	 -53.4401 	 -73.9396
| 38> H 	 -56.9435 	 -53.3473 	 -73.3158
| 39> H 	 -60.645 	 -58.8658 	 -77.8055
| 40> H 	 -55.4375 	 -53.2231 	 -80.6863
| 41> *
| 42>
| 43>                          ****END OF INPUT****

CARTESIAN COORDINATES (ANGSTROEM)
---------------------------------
  S    -58.604400  -57.566200  -78.462500
  C    -60.093700  -57.894500  -77.676500
  C    -60.666900  -56.718100  -77.227000
  C    -59.873300  -55.514400  -77.454800
  C    -58.633900  -55.831000  -77.989100
  H    -60.118200  -54.492300  -77.276200
  C    -62.121200  -56.746200  -76.777600
  H    -62.723900  -57.303300  -77.441700
  H    -62.410800  -55.775500  -76.865600
  C    -62.233700  -57.159100  -75.348500
  H    -61.917900  -58.221100  -75.197200
  H    -61.563000  -56.535700  -74.793300
  C    -63.637200  -56.976200  -74.782100
  H    -63.944700  -55.986700  -74.602300
  H    -64.402300  -57.456900  -75.280200
  H    -63.577800  -57.419900  -73.776700
  S    -57.193000  -54.990600  -80.132600
  C    -56.075900  -53.617100  -79.954600
  C    -56.164700  -53.080000  -78.672300
  C    -57.110000  -53.741200  -77.799800
  C    -57.550800  -54.957700  -78.387900
  H    -55.596700  -52.211500  -78.431600
  C    -57.395700  -53.244000  -76.387400
  H    -58.388300  -52.860500  -76.441900
  H    -56.818600  -52.397700  -76.137800
  C    -57.446700  -54.348800  -75.288700
  H    -56.438100  -54.754700  -75.145300
  H    -58.181700  -55.168500  -75.457700
  C    -57.717600  -53.933600  -73.829600
  H    -57.862000  -54.772600  -73.164000
  H    -58.679100  -53.440100  -73.939600
  H    -56.943500  -53.347300  -73.315800
  H    -60.645000  -58.865800  -77.805500
  H    -55.437500  -53.223100  -80.686300

 Total Charge           Charge          ....    0
 Multiplicity           Mult            ....    1
 Number of Electrons    NEL             ....  134
 Basis Dimension        Dim             ....  322

ORBITAL ENERGIES
----------------

  NO   OCC          E(Eh)            E(eV)
   0   2.0000     -88.967322     -2420.9239
   1   2.0000     -88.962155     -2420.7833
   2   2.0000     -10.332216      -281.1539
   3   2.0000     -10.330360      -281.1034
   4   2.0000     -10.318678      -280.7855
   5   2.0000     -10.314316      -280.6668
   6   2.0000     -10.313411      -280.6422
   7   2.0000     -10.301380      -280.3148
   8   2.0000     -10.299980      -280.2767
   9   2.0000     -10.296765      -280.1892
  10   2.0000     -10.294919      -280.1390
  11   2.0000     -10.285729      -279.8889
  12   2.0000     -10.282027      -279.7882
  13   2.0000     -10.274876      -279.5936
  14   2.0000     -10.274072      -279.5717
  15   2.0000     -10.265835      -279.3476
  16   2.0000      -8.080913      -219.8928
  17   2.0000      -8.076887      -219.7833
  18   2.0000      -6.039574      -164.3452
  19   2.0000      -6.035638      -164.2381
  20   2.0000      -6.035362      -164.2305
  21   2.0000      -6.031503      -164.1255
  22   2.0000      -6.031386      -164.1224
  23   2.0000      -6.027691      -164.0218
  24   2.0000      -1.001224       -27.2447
  25   2.0000      -0.977244       -26.5922
  26   2.0000      -0.917998       -24.9800
  27   2.0000      -0.905473       -24.6392
  28   2.0000      -0.870517       -23.6880
  29   2.0000      -0.851372       -23.1670
  30   2.0000      -0.845983       -23.0204
  31   2.0000      -0.817843       -22.2546
  32   2.0000      -0.785756       -21.3815
  33   2.0000      -0.770220       -20.9587
  34   2.0000      -0.706695       -19.2301
  35   2.0000      -0.703411       -19.1408
  36   2.0000      -0.687370       -18.7043
  37   2.0000      -0.664953       -18.0943
  38   2.0000      -0.643309       -17.5053
  39   2.0000      -0.617324       -16.7982
  40   2.0000      -0.593792       -16.1579
  41   2.0000      -0.572396       -15.5757
  42   2.0000      -0.570350       -15.5200
  43   2.0000      -0.560421       -15.2498
  44   2.0000      -0.529717       -14.4143
  45   2.0000      -0.525332       -14.2950
  46   2.0000      -0.520685       -14.1686
  47   2.0000      -0.514889       -14.0108
  48   2.0000      -0.506947       -13.7947
  49   2.0000      -0.503382       -13.6977
  50   2.0000      -0.496817       -13.5191
  51   2.0000      -0.483704       -13.1623
  52   2.0000      -0.474270       -12.9056
  53   2.0000      -0.469043       -12.7633
  54   2.0000      -0.456488       -12.4217
  55   2.0000      -0.448080       -12.1929
  56   2.0000      -0.443254       -12.0616
  57   2.0000      -0.438752       -11.9391
  58   2.0000      -0.432046       -11.7566
  59   2.0000      -0.425621       -11.5817
  60   2.0000      -0.422440       -11.4952
  61   2.0000      -0.408728       -11.1221
  62   2.0000      -0.399830       -10.8799
  63   2.0000      -0.349228        -9.5030
  64   2.0000      -0.328450        -8.9376
  65   2.0000      -0.325454        -8.8561
  66   2.0000      -0.287972        -7.8361
  67   0.0000       0.019291         0.5249
  68   0.0000       0.068479         1.8634
  69   0.0000       0.104209         2.8357
  70   0.0000       0.120907         3.2900
  71   0.0000       0.128610         3.4997

MULLIKEN ATOMIC CHARGES
-----------------------
   0 S :    0.098461
   1 C :   -0.118859
   2 C :   -0.148433
   3 C :    0.052498
   4 C :   -0.180331
   5 H :    0.008157
   6 C :    0.155727
   7 H :    0.015433
   8 H :   -0.024115
   9 C :   -0.090364
  10 H :    0.032177
  11 H :    0.017951
  12 C :    0.003426
  13 H :    0.016686
  14 H :    0.012907
  15 H :    0.024560
  16 S :    0.097664
  17 C :   -0.069205
  18 C :   -0.026457
  19 C :   -0.061168
  20 C :   -0.114660
  21 H :    0.009988
  22 C :    0.145163
  23 H :    0.013231
  24 H :    0.005305
  25 C :   -0.118838
  26 H :    0.033150
  27 H :    0.066643
  28 C :   -0.061161
  29 H :    0.032451
  30 H :    0.018876
  31 H :    0.036689
  32 H :    0.075838
  33 H :    0.040610
Sum of atomic charges:   -0.0000000

LOEWDIN ATOMIC CHARGES
----------------------
   0 S :    0.396759
   1 C :   -0.216609
   2 C :   -0.060501
   3 C :   -0.059744
   4 C :   -0.179826
   5 H :    0.028755
   6 C :   -0.022839
   7 H :    0.023385
   8 H :    0.015371
   9 C :   -0.034471
  10 H :    0.027020
  11 H :    0.022776
  12 C :   -0.058717
  13 H :    0.018025
  14 H :    0.013243
  15 H :    0.032500
  16 S :    0.389402
  17 C :   -0.167730
  18 C :   -0.065907
  19 C :   -0.041494
  20 C :   -0.194979
  21 H :    0.026650
  22 C :   -0.025560
  23 H :    0.029370
  24 H :    0.026632
  25 C :   -0.046173
  26 H :    0.025019
  27 H :    0.035776
  28 C :   -0.069231
  29 H :    0.026924
  30 H :    0.019591
  31 H :    0.023273
  32 H :    0.042710
  33 H :    0.020599

  Mayer bond orders larger than 0.100000
B(  0-S ,  1-C ) :   1.1407 B(  0-S ,  4-C ) :   1.1513 B(  1-C ,  2-C ) :   1.6088
B(  1-C , 32-H ) :   0.9608 B(  2-C ,  3-C ) :   1.2336 B(  2-C ,  6-C ) :   1.0200
B(  3-C ,  4-C ) :   1.5567 B(  3-C ,  5-H ) :   0.9974 B(  4-C , 20-C ) :   1.0466
B(  6-C ,  7-H ) :   0.9402 B(  6-C ,  8-H ) :   0.9255 B(  6-C ,  9-C ) :   1.0727
B(  9-C , 10-H ) :   0.9581 B(  9-C , 11-H ) :   0.9504 B(  9-C , 12-C ) :   1.0907
B( 12-C , 13-H ) :   0.9731 B( 12-C , 14-H ) :   0.9727 B( 12-C , 15-H ) :   0.9709
B( 16-S , 17-C ) :   1.1453 B( 16-S , 20-C ) :   1.1382 B( 17-C , 18-C ) :   1.6134
B( 17-C , 20-C ) :   0.1038 B( 17-C , 33-H ) :   0.9735 B( 18-C , 19-C ) :   1.2387
B( 18-C , 21-H ) :   0.9917 B( 19-C , 20-C ) :   1.5711 B( 19-C , 22-C ) :   1.0460
B( 22-C , 23-H ) :   0.9114 B( 22-C , 24-H ) :   0.9363 B( 22-C , 25-C ) :   1.0573
B( 25-C , 26-H ) :   0.9612 B( 25-C , 27-H ) :   0.9490 B( 25-C , 28-C ) :   1.0803
B( 28-C , 29-H ) :   0.9741 B( 28-C , 30-H ) :   0.9759 B( 28-C , 31-H ) :   0.9776

Dispersion correction           -0.014334525
FINAL SINGLE POINT ENERGY     -1339.852960132544

DIPOLE MOMENT
-------------
                                X             Y             Z
Electronic contribution:     15.72111      -4.46114     -26.94378
Nuclear contribution   :    -16.10786       4.93473      27.30994
                        -----------------------------------------
Total Dipole Moment    :     -0.38675       0.47359       0.36616
                        -----------------------------------------
Magnitude (a.u.)       :      0.71270
Magnitude (Debye)      :      1.81153

Rotational constants in cm-1:     0.019497     0.008678     0.006650
Rotational constants in MHz :   584.517645   260.162637   199.347024

                             ****ORCA TERMINATED NORMALLY****
TOTAL RUN TIME: 0 days 0 hours 0 minutes 20 seconds 726 msec
