                         Program Version 4.2.1 -  RELEASE  -
|  1> ! wB97X-D3 SP def2-SVP
|  2> %pal
|  3> nprocs 24
|  4> end
|  5>
|  6> * xyz 0 1
|  7> S 	 -140.276 	 27.8188 	 -19.7885
|  8> C 	 -139.851 	 26.8008 	 -18.4714
|  9> C 	 -139.843 	 25.5137 	 -18.8873
| 10> C 	 -140.173 	 25.2899 	 -20.2612
| 11> C 	 -140.317 	 26.5077 	 -20.9096
| 12> H 	 -140.15 	 24.322 	 -20.7884
| 13> C 	 -139.425 	 24.3914 	 -17.9046
| 14> H 	 -138.571 	 24.6666 	 -17.3753
| 15> H 	 -139.188 	 23.4699 	 -18.5819
| 16> C 	 -140.523 	 23.9975 	 -16.9238
| 17> H 	 -140.087 	 23.2869 	 -16.2044
| 18> H 	 -140.848 	 24.8131 	 -16.3621
| 19> C 	 -141.785 	 23.3333 	 -17.5156
| 20> H 	 -141.585 	 22.5244 	 -18.1414
| 21> H 	 -142.393 	 23.0394 	 -16.7262
| 22> H 	 -142.261 	 24.1307 	 -18.0322
| 23> S 	 -139.223 	 27.6091 	 -23.258
| 24> C 	 -140.23 	 27.6379 	 -24.7113
| 25> C 	 -141.314 	 26.8108 	 -24.4962
| 26> C 	 -141.407 	 26.2439 	 -23.221
| 27> C 	 -140.434 	 26.6934 	 -22.3483
| 28> H 	 -142.08 	 26.6638 	 -25.2841
| 29> C 	 -142.652 	 25.4279 	 -22.7806
| 30> H 	 -143.579 	 25.6143 	 -23.4398
| 31> H 	 -142.854 	 25.7351 	 -21.7563
| 32> C 	 -142.316 	 23.8804 	 -22.7432
| 33> H 	 -141.331 	 23.7757 	 -22.4456
| 34> H 	 -142.434 	 23.3856 	 -23.759
| 35> C 	 -143.257 	 23.0375 	 -21.8905
| 36> H 	 -143.309 	 23.2228 	 -20.827
| 37> H 	 -142.961 	 22.0378 	 -22.1425
| 38> H 	 -144.225 	 23.305 	 -22.3344
| 39> H 	 -139.633 	 27.0336 	 -17.4017
| 40> H 	 -140.133 	 28.0925 	 -25.6249
| 41> *
| 42>
| 43>                          ****END OF INPUT****

CARTESIAN COORDINATES (ANGSTROEM)
---------------------------------
  S    -140.276000   27.818800  -19.788500
  C    -139.851000   26.800800  -18.471400
  C    -139.843000   25.513700  -18.887300
  C    -140.173000   25.289900  -20.261200
  C    -140.317000   26.507700  -20.909600
  H    -140.150000   24.322000  -20.788400
  C    -139.425000   24.391400  -17.904600
  H    -138.571000   24.666600  -17.375300
  H    -139.188000   23.469900  -18.581900
  C    -140.523000   23.997500  -16.923800
  H    -140.087000   23.286900  -16.204400
  H    -140.848000   24.813100  -16.362100
  C    -141.785000   23.333300  -17.515600
  H    -141.585000   22.524400  -18.141400
  H    -142.393000   23.039400  -16.726200
  H    -142.261000   24.130700  -18.032200
  S    -139.223000   27.609100  -23.258000
  C    -140.230000   27.637900  -24.711300
  C    -141.314000   26.810800  -24.496200
  C    -141.407000   26.243900  -23.221000
  C    -140.434000   26.693400  -22.348300
  H    -142.080000   26.663800  -25.284100
  C    -142.652000   25.427900  -22.780600
  H    -143.579000   25.614300  -23.439800
  H    -142.854000   25.735100  -21.756300
  C    -142.316000   23.880400  -22.743200
  H    -141.331000   23.775700  -22.445600
  H    -142.434000   23.385600  -23.759000
  C    -143.257000   23.037500  -21.890500
  H    -143.309000   23.222800  -20.827000
  H    -142.961000   22.037800  -22.142500
  H    -144.225000   23.305000  -22.334400
  H    -139.633000   27.033600  -17.401700
  H    -140.133000   28.092500  -25.624900

 Total Charge           Charge          ....    0
 Multiplicity           Mult            ....    1
 Number of Electrons    NEL             ....  134
 Basis Dimension        Dim             ....  322

ORBITAL ENERGIES
----------------

  NO   OCC          E(Eh)            E(eV)
   0   2.0000     -88.969249     -2420.9763
   1   2.0000     -88.966990     -2420.9149
   2   2.0000     -10.330717      -281.1131
   3   2.0000     -10.326901      -281.0093
   4   2.0000     -10.312450      -280.6160
   5   2.0000     -10.311702      -280.5957
   6   2.0000     -10.300193      -280.2825
   7   2.0000     -10.300014      -280.2776
   8   2.0000     -10.299657      -280.2679
   9   2.0000     -10.297214      -280.2014
  10   2.0000     -10.293970      -280.1132
  11   2.0000     -10.290766      -280.0260
  12   2.0000     -10.284658      -279.8598
  13   2.0000     -10.279846      -279.7288
  14   2.0000     -10.274011      -279.5700
  15   2.0000     -10.263164      -279.2749
  16   2.0000      -8.084667      -219.9950
  17   2.0000      -8.080754      -219.8885
  18   2.0000      -6.043179      -164.4432
  19   2.0000      -6.039395      -164.3403
  20   2.0000      -6.038926      -164.3275
  21   2.0000      -6.035507      -164.2345
  22   2.0000      -6.035354      -164.2303
  23   2.0000      -6.031459      -164.1243
  24   2.0000      -1.012705       -27.5571
  25   2.0000      -0.988299       -26.8930
  26   2.0000      -0.912139       -24.8206
  27   2.0000      -0.902725       -24.5644
  28   2.0000      -0.872145       -23.7323
  29   2.0000      -0.851829       -23.1794
  30   2.0000      -0.847806       -23.0700
  31   2.0000      -0.818735       -22.2789
  32   2.0000      -0.784915       -21.3586
  33   2.0000      -0.770496       -20.9663
  34   2.0000      -0.709439       -19.3048
  35   2.0000      -0.699986       -19.0476
  36   2.0000      -0.690838       -18.7987
  37   2.0000      -0.661269       -17.9941
  38   2.0000      -0.639139       -17.3919
  39   2.0000      -0.614372       -16.7179
  40   2.0000      -0.591533       -16.0964
  41   2.0000      -0.578174       -15.7329
  42   2.0000      -0.565679       -15.3929
  43   2.0000      -0.554890       -15.0993
  44   2.0000      -0.546960       -14.8835
  45   2.0000      -0.528500       -14.3812
  46   2.0000      -0.517942       -14.0939
  47   2.0000      -0.513287       -13.9672
  48   2.0000      -0.511154       -13.9092
  49   2.0000      -0.496811       -13.5189
  50   2.0000      -0.488299       -13.2873
  51   2.0000      -0.484035       -13.1713
  52   2.0000      -0.477774       -13.0009
  53   2.0000      -0.468597       -12.7512
  54   2.0000      -0.462641       -12.5891
  55   2.0000      -0.446738       -12.1564
  56   2.0000      -0.442496       -12.0409
  57   2.0000      -0.434545       -11.8246
  58   2.0000      -0.429127       -11.6771
  59   2.0000      -0.423330       -11.5194
  60   2.0000      -0.421781       -11.4773
  61   2.0000      -0.414220       -11.2715
  62   2.0000      -0.407671       -11.0933
  63   2.0000      -0.344715        -9.3802
  64   2.0000      -0.334155        -9.0928
  65   2.0000      -0.329245        -8.9592
  66   2.0000      -0.298935        -8.1344
  67   0.0000       0.027538         0.7493
  68   0.0000       0.069365         1.8875
  69   0.0000       0.120708         3.2846
  70   0.0000       0.123004         3.3471
  71   0.0000       0.126261         3.4357

MULLIKEN ATOMIC CHARGES
-----------------------
   0 S :    0.139134
   1 C :   -0.124534
   2 C :   -0.117410
   3 C :    0.040072
   4 C :   -0.177765
   5 H :    0.029502
   6 C :    0.069856
   7 H :    0.019975
   8 H :    0.029782
   9 C :   -0.079302
  10 H :    0.024405
  11 H :    0.007879
  12 C :   -0.000942
  13 H :    0.018605
  14 H :    0.019398
  15 H :    0.031872
  16 S :    0.116259
  17 C :   -0.049407
  18 C :   -0.063320
  19 C :    0.003085
  20 C :   -0.181824
  21 H :    0.025858
  22 C :    0.043068
  23 H :    0.043540
  24 H :    0.033755
  25 C :   -0.090032
  26 H :    0.005005
  27 H :    0.033365
  28 C :   -0.030160
  29 H :    0.040974
  30 H :    0.033108
  31 H :    0.024787
  32 H :    0.060880
  33 H :    0.020530
Sum of atomic charges:    0.0000000

LOEWDIN ATOMIC CHARGES
----------------------
   0 S :    0.438636
   1 C :   -0.218966
   2 C :   -0.071295
   3 C :   -0.063012
   4 C :   -0.202509
   5 H :    0.037853
   6 C :   -0.025821
   7 H :    0.021245
   8 H :    0.036787
   9 C :   -0.035491
  10 H :    0.022182
  11 H :    0.012351
  12 C :   -0.048431
  13 H :    0.015014
  14 H :    0.020609
  15 H :    0.024005
  16 S :    0.396492
  17 C :   -0.171870
  18 C :   -0.073898
  19 C :   -0.057642
  20 C :   -0.198513
  21 H :    0.035116
  22 C :   -0.029448
  23 H :    0.037053
  24 H :    0.029471
  25 C :   -0.036707
  26 H :    0.001899
  27 H :    0.031969
  28 C :   -0.062201
  29 H :    0.021013
  30 H :    0.026017
  31 H :    0.027580
  32 H :    0.043600
  33 H :    0.016911

  Mayer bond orders larger than 0.100000
B(  0-S ,  1-C ) :   1.1311 B(  0-S ,  4-C ) :   1.1780 B(  1-C ,  2-C ) :   1.6223
B(  1-C , 32-H ) :   0.9608 B(  2-C ,  3-C ) :   1.2576 B(  2-C ,  6-C ) :   1.0066
B(  3-C ,  4-C ) :   1.5446 B(  3-C ,  5-H ) :   0.9852 B(  4-C , 20-C ) :   1.0397
B(  6-C ,  7-H ) :   0.9443 B(  6-C ,  8-H ) :   0.9449 B(  6-C ,  9-C ) :   1.0777
B(  9-C , 10-H ) :   0.9562 B(  9-C , 11-H ) :   0.9560 B(  9-C , 12-C ) :   1.0805
B( 12-C , 13-H ) :   0.9770 B( 12-C , 14-H ) :   0.9703 B( 12-C , 15-H ) :   0.9753
B( 16-S , 17-C ) :   1.1424 B( 16-S , 20-C ) :   1.1399 B( 17-C , 18-C ) :   1.6047
B( 17-C , 20-C ) :   0.1066 B( 17-C , 33-H ) :   0.9769 B( 18-C , 19-C ) :   1.2777
B( 18-C , 21-H ) :   0.9797 B( 19-C , 20-C ) :   1.5737 B( 19-C , 22-C ) :   1.0373
B( 22-C , 23-H ) :   0.9452 B( 22-C , 24-H ) :   0.9361 B( 22-C , 25-C ) :   1.0482
B( 25-C , 26-H ) :   0.9619 B( 25-C , 27-H ) :   0.9543 B( 25-C , 28-C ) :   1.0731
B( 28-C , 29-H ) :   0.9763 B( 28-C , 30-H ) :   0.9756 B( 28-C , 31-H ) :   0.9734

Dispersion correction           -0.015351845
FINAL SINGLE POINT ENERGY     -1339.864134372875

DIPOLE MOMENT
-------------
                                X             Y             Z
Electronic contribution:     13.94247      25.32842     -10.74105
Nuclear contribution   :    -14.21814     -25.81595      10.90703
                        -----------------------------------------
Total Dipole Moment    :     -0.27567      -0.48754       0.16598
                        -----------------------------------------
Magnitude (a.u.)       :      0.58415
Magnitude (Debye)      :      1.48480

Rotational constants in cm-1:     0.019358     0.009746     0.007071
Rotational constants in MHz :   580.352584   292.181756   211.971719

                             ****ORCA TERMINATED NORMALLY****
TOTAL RUN TIME: 0 days 0 hours 0 minutes 21 seconds 534 msec
