                         Program Version 4.2.1 -  RELEASE  -
|  1> ! wB97X-D3 SP def2-SVP
|  2> %pal
|  3> nprocs 24
|  4> end
|  5>
|  6> * xyz 0 1
|  7> S 	 40.5394 	 -15.486 	 -122.098
|  8> C 	 40.486 	 -14.1466 	 -120.86
|  9> C 	 41.7215 	 -14.0114 	 -120.367
| 10> C 	 42.7258 	 -14.972 	 -120.841
| 11> C 	 42.249 	 -15.7718 	 -121.813
| 12> H 	 43.7841 	 -15.0375 	 -120.382
| 13> C 	 42.1826 	 -12.9674 	 -119.364
| 14> H 	 42.6428 	 -13.3792 	 -118.442
| 15> H 	 41.2746 	 -12.5722 	 -119.013
| 16> C 	 43.1234 	 -11.8751 	 -119.958
| 17> H 	 42.6948 	 -11.4164 	 -120.895
| 18> H 	 43.0951 	 -10.9796 	 -119.288
| 19> C 	 44.5848 	 -12.3537 	 -120.159
| 20> H 	 44.7663 	 -12.9631 	 -121.076
| 21> H 	 45.1044 	 -11.475 	 -120.35
| 22> H 	 44.9549 	 -12.8943 	 -119.238
| 23> S 	 42.1577 	 -18.3429 	 -122.716
| 24> C 	 43.5937 	 -19.1626 	 -123.084
| 25> C 	 44.5695 	 -18.3073 	 -123.36
| 26> C 	 44.3078 	 -16.9329 	 -122.961
| 27> C 	 42.9588 	 -16.8064 	 -122.574
| 28> H 	 45.5858 	 -18.7206 	 -123.548
| 29> C 	 45.326 	 -15.8106 	 -123.154
| 30> H 	 46.2159 	 -16.257 	 -123.639
| 31> H 	 45.8061 	 -15.4219 	 -122.227
| 32> C 	 44.931 	 -14.6715 	 -124.062
| 33> H 	 43.9593 	 -14.2666 	 -123.752
| 34> H 	 44.6731 	 -15.1341 	 -125.002
| 35> C 	 46.0621 	 -13.6827 	 -124.162
| 36> H 	 45.7983 	 -12.8446 	 -124.864
| 37> H 	 46.8928 	 -14.1659 	 -124.639
| 38> H 	 46.3385 	 -13.2408 	 -123.22
| 39> H 	 39.6879 	 -13.5308 	 -120.432
| 40> H 	 43.6463 	 -20.2407 	 -123.097
| 41> *
| 42>
| 43>                          ****END OF INPUT****

CARTESIAN COORDINATES (ANGSTROEM)
---------------------------------
  S     40.539400  -15.486000  -122.098000
  C     40.486000  -14.146600  -120.860000
  C     41.721500  -14.011400  -120.367000
  C     42.725800  -14.972000  -120.841000
  C     42.249000  -15.771800  -121.813000
  H     43.784100  -15.037500  -120.382000
  C     42.182600  -12.967400  -119.364000
  H     42.642800  -13.379200  -118.442000
  H     41.274600  -12.572200  -119.013000
  C     43.123400  -11.875100  -119.958000
  H     42.694800  -11.416400  -120.895000
  H     43.095100  -10.979600  -119.288000
  C     44.584800  -12.353700  -120.159000
  H     44.766300  -12.963100  -121.076000
  H     45.104400  -11.475000  -120.350000
  H     44.954900  -12.894300  -119.238000
  S     42.157700  -18.342900  -122.716000
  C     43.593700  -19.162600  -123.084000
  C     44.569500  -18.307300  -123.360000
  C     44.307800  -16.932900  -122.961000
  C     42.958800  -16.806400  -122.574000
  H     45.585800  -18.720600  -123.548000
  C     45.326000  -15.810600  -123.154000
  H     46.215900  -16.257000  -123.639000
  H     45.806100  -15.421900  -122.227000
  C     44.931000  -14.671500  -124.062000
  H     43.959300  -14.266600  -123.752000
  H     44.673100  -15.134100  -125.002000
  C     46.062100  -13.682700  -124.162000
  H     45.798300  -12.844600  -124.864000
  H     46.892800  -14.165900  -124.639000
  H     46.338500  -13.240800  -123.220000
  H     39.687900  -13.530800  -120.432000
  H     43.646300  -20.240700  -123.097000

 Total Charge           Charge          ....    0
 Multiplicity           Mult            ....    1
 Number of Electrons    NEL             ....  134
 Basis Dimension        Dim             ....  322

ORBITAL ENERGIES
----------------

  NO   OCC          E(Eh)            E(eV)
   0   2.0000     -88.961870     -2420.7756
   1   2.0000     -88.961607     -2420.7684
   2   2.0000     -10.330658      -281.1115
   3   2.0000     -10.328783      -281.0605
   4   2.0000     -10.315029      -280.6862
   5   2.0000     -10.312309      -280.6122
   6   2.0000     -10.311024      -280.5772
   7   2.0000     -10.297282      -280.2033
   8   2.0000     -10.296504      -280.1821
   9   2.0000     -10.295114      -280.1443
  10   2.0000     -10.294412      -280.1252
  11   2.0000     -10.293166      -280.0913
  12   2.0000     -10.289396      -279.9887
  13   2.0000     -10.283374      -279.8248
  14   2.0000     -10.279081      -279.7080
  15   2.0000     -10.278181      -279.6835
  16   2.0000      -8.078296      -219.8216
  17   2.0000      -8.075677      -219.7503
  18   2.0000      -6.036732      -164.2678
  19   2.0000      -6.034675      -164.2118
  20   2.0000      -6.032473      -164.1519
  21   2.0000      -6.030442      -164.0967
  22   2.0000      -6.029043      -164.0586
  23   2.0000      -6.025815      -163.9708
  24   2.0000      -1.012077       -27.5400
  25   2.0000      -0.985338       -26.8124
  26   2.0000      -0.915933       -24.9238
  27   2.0000      -0.907866       -24.7043
  28   2.0000      -0.871987       -23.7280
  29   2.0000      -0.852171       -23.1887
  30   2.0000      -0.835660       -22.7395
  31   2.0000      -0.820148       -22.3174
  32   2.0000      -0.783315       -21.3151
  33   2.0000      -0.774814       -21.0838
  34   2.0000      -0.710224       -19.3262
  35   2.0000      -0.697888       -18.9905
  36   2.0000      -0.693703       -18.8766
  37   2.0000      -0.659171       -17.9369
  38   2.0000      -0.631050       -17.1717
  39   2.0000      -0.614458       -16.7203
  40   2.0000      -0.601535       -16.3686
  41   2.0000      -0.570367       -15.5205
  42   2.0000      -0.566826       -15.4241
  43   2.0000      -0.547862       -14.9081
  44   2.0000      -0.533937       -14.5292
  45   2.0000      -0.524612       -14.2754
  46   2.0000      -0.519180       -14.1276
  47   2.0000      -0.509500       -13.8642
  48   2.0000      -0.504576       -13.7302
  49   2.0000      -0.501271       -13.6403
  50   2.0000      -0.491693       -13.3796
  51   2.0000      -0.484688       -13.1890
  52   2.0000      -0.473418       -12.8824
  53   2.0000      -0.463780       -12.6201
  54   2.0000      -0.458325       -12.4717
  55   2.0000      -0.450403       -12.2561
  56   2.0000      -0.439079       -11.9479
  57   2.0000      -0.437369       -11.9014
  58   2.0000      -0.430186       -11.7059
  59   2.0000      -0.426101       -11.5948
  60   2.0000      -0.420155       -11.4330
  61   2.0000      -0.409795       -11.1511
  62   2.0000      -0.405343       -11.0299
  63   2.0000      -0.357583        -9.7303
  64   2.0000      -0.330397        -8.9906
  65   2.0000      -0.325315        -8.8523
  66   2.0000      -0.295628        -8.0444
  67   0.0000       0.029835         0.8118
  68   0.0000       0.078122         2.1258
  69   0.0000       0.101124         2.7517
  70   0.0000       0.121907         3.3173
  71   0.0000       0.125977         3.4280

MULLIKEN ATOMIC CHARGES
-----------------------
   0 S :    0.075604
   1 C :   -0.109038
   2 C :   -0.115480
   3 C :   -0.022780
   4 C :   -0.092479
   5 H :    0.050194
   6 C :    0.086917
   7 H :    0.033778
   8 H :   -0.013034
   9 C :   -0.100947
  10 H :    0.035317
  11 H :    0.034859
  12 C :   -0.051608
  13 H :    0.049133
  14 H :    0.021855
  15 H :    0.043006
  16 S :    0.102606
  17 C :   -0.091507
  18 C :   -0.020991
  19 C :   -0.052593
  20 C :   -0.126453
  21 H :    0.032518
  22 C :    0.029653
  23 H :    0.005669
  24 H :    0.026564
  25 C :   -0.055313
  26 H :    0.036979
  27 H :    0.020482
  28 C :   -0.031034
  29 H :    0.038386
  30 H :    0.023566
  31 H :    0.029076
  32 H :    0.047800
  33 H :    0.059296
Sum of atomic charges:   -0.0000000

LOEWDIN ATOMIC CHARGES
----------------------
   0 S :    0.355937
   1 C :   -0.184426
   2 C :   -0.060745
   3 C :   -0.079356
   4 C :   -0.181019
   5 H :    0.049024
   6 C :   -0.033833
   7 H :    0.033387
   8 H :    0.017515
   9 C :   -0.042435
  10 H :    0.030703
  11 H :    0.027405
  12 C :   -0.070330
  13 H :    0.030103
  14 H :    0.018894
  15 H :    0.031485
  16 S :    0.429327
  17 C :   -0.191250
  18 C :   -0.083620
  19 C :   -0.047809
  20 C :   -0.202562
  21 H :    0.037488
  22 C :   -0.040375
  23 H :    0.030015
  24 H :    0.028493
  25 C :   -0.042957
  26 H :    0.024627
  27 H :    0.025163
  28 C :   -0.060989
  29 H :    0.034584
  30 H :    0.023748
  31 H :    0.021168
  32 H :    0.040418
  33 H :    0.032225

  Mayer bond orders larger than 0.100000
B(  0-S ,  1-C ) :   1.0707 B(  0-S ,  4-C ) :   1.1174 B(  1-C ,  2-C ) :   1.7185
B(  1-C , 32-H ) :   0.9583 B(  2-C ,  3-C ) :   1.1697 B(  2-C ,  6-C ) :   1.0273
B(  3-C ,  4-C ) :   1.6469 B(  3-C ,  5-H ) :   0.9752 B(  4-C , 20-C ) :   1.0192
B(  6-C ,  7-H ) :   0.9441 B(  6-C ,  8-H ) :   0.9298 B(  6-C ,  9-C ) :   1.0636
B(  9-C , 10-H ) :   0.9523 B(  9-C , 11-H ) :   0.9595 B(  9-C , 12-C ) :   1.0724
B( 12-C , 13-H ) :   0.9674 B( 12-C , 14-H ) :   0.9687 B( 12-C , 15-H ) :   0.9723
B( 16-S , 17-C ) :   1.1726 B( 16-S , 20-C ) :   1.1461 B( 17-C , 18-C ) :   1.6169
B( 17-C , 33-H ) :   0.9674 B( 18-C , 19-C ) :   1.2465 B( 18-C , 21-H ) :   0.9779
B( 19-C , 20-C ) :   1.5807 B( 19-C , 22-C ) :   1.0373 B( 22-C , 23-H ) :   0.9363
B( 22-C , 24-H ) :   0.9320 B( 22-C , 25-C ) :   1.0579 B( 25-C , 26-H ) :   0.9541
B( 25-C , 27-H ) :   0.9488 B( 25-C , 28-C ) :   1.0838 B( 28-C , 29-H ) :   0.9707
B( 28-C , 30-H ) :   0.9709 B( 28-C , 31-H ) :   0.9739

Dispersion correction           -0.015527367
FINAL SINGLE POINT ENERGY     -1339.869826436475

DIPOLE MOMENT
-------------
                                X             Y             Z
Electronic contribution:    -20.96185     -22.68651      -3.00225
Nuclear contribution   :     21.65652      23.00537       3.26415
                        -----------------------------------------
Total Dipole Moment    :      0.69467       0.31886       0.26190
                        -----------------------------------------
Magnitude (a.u.)       :      0.80798
Magnitude (Debye)      :      2.05372

Rotational constants in cm-1:     0.017167     0.010853     0.007534
Rotational constants in MHz :   514.668344   325.354490   225.848762

                             ****ORCA TERMINATED NORMALLY****
TOTAL RUN TIME: 0 days 0 hours 0 minutes 22 seconds 875 msec
