                         Program Version 4.2.1 -  RELEASE  -
|  1> ! wB97X-D3 SP def2-SVP
|  2> %pal
|  3> nprocs 24
|  4> end
|  5>
|  6> * xyz 0 1
|  7> S 	 -137.42 	 15.0384 	 -3.55433
|  8> C 	 -136.04 	 16.1209 	 -3.65184
|  9> C 	 -135.035 	 15.8616 	 -2.71604
| 10> C 	 -135.428 	 14.7796 	 -1.86405
| 11> C 	 -136.609 	 14.1473 	 -2.31488
| 12> H 	 -134.901 	 14.2492 	 -1.04296
| 13> C 	 -133.779 	 16.6757 	 -2.49776
| 14> H 	 -134.075 	 17.6221 	 -1.89095
| 15> H 	 -133.502 	 17.0187 	 -3.49437
| 16> C 	 -132.522 	 16.0488 	 -1.90958
| 17> H 	 -131.925 	 16.9225 	 -1.587
| 18> H 	 -132.748 	 15.5584 	 -1.01023
| 19> C 	 -131.812 	 14.9716 	 -2.71803
| 20> H 	 -132.156 	 15.0531 	 -3.8006
| 21> H 	 -130.74 	 15.161 	 -2.66951
| 22> H 	 -132.194 	 13.9633 	 -2.40147
| 23> S 	 -138.913 	 12.7099 	 -1.76309
| 24> C 	 -138.789 	 11.3325 	 -0.661231
| 25> C 	 -137.46 	 11.0644 	 -0.330197
| 26> C 	 -136.517 	 11.9188 	 -0.973558
| 27> C 	 -137.124 	 12.8719 	 -1.83751
| 28> H 	 -137.269 	 10.3496 	 0.423774
| 29> C 	 -135.055 	 11.6441 	 -0.754317
| 30> H 	 -134.911 	 10.8297 	 -0.07511
| 31> H 	 -134.625 	 12.5304 	 -0.1418
| 32> C 	 -134.294 	 11.2788 	 -2.03158
| 33> H 	 -134.329 	 12.1421 	 -2.67095
| 34> H 	 -134.88 	 10.6095 	 -2.67917
| 35> C 	 -132.868 	 10.6872 	 -1.82279
| 36> H 	 -132.826 	 9.63555 	 -1.41148
| 37> H 	 -132.268 	 11.4408 	 -1.357
| 38> H 	 -132.442 	 10.5763 	 -2.82059
| 39> H 	 -135.982 	 16.8697 	 -4.41422
| 40> H 	 -139.658 	 10.9043 	 -0.209676
| 41> *
| 42>
| 43>                          ****END OF INPUT****

CARTESIAN COORDINATES (ANGSTROEM)
---------------------------------
  S    -137.420000   15.038400   -3.554330
  C    -136.040000   16.120900   -3.651840
  C    -135.035000   15.861600   -2.716040
  C    -135.428000   14.779600   -1.864050
  C    -136.609000   14.147300   -2.314880
  H    -134.901000   14.249200   -1.042960
  C    -133.779000   16.675700   -2.497760
  H    -134.075000   17.622100   -1.890950
  H    -133.502000   17.018700   -3.494370
  C    -132.522000   16.048800   -1.909580
  H    -131.925000   16.922500   -1.587000
  H    -132.748000   15.558400   -1.010230
  C    -131.812000   14.971600   -2.718030
  H    -132.156000   15.053100   -3.800600
  H    -130.740000   15.161000   -2.669510
  H    -132.194000   13.963300   -2.401470
  S    -138.913000   12.709900   -1.763090
  C    -138.789000   11.332500   -0.661231
  C    -137.460000   11.064400   -0.330197
  C    -136.517000   11.918800   -0.973558
  C    -137.124000   12.871900   -1.837510
  H    -137.269000   10.349600    0.423774
  C    -135.055000   11.644100   -0.754317
  H    -134.911000   10.829700   -0.075110
  H    -134.625000   12.530400   -0.141800
  C    -134.294000   11.278800   -2.031580
  H    -134.329000   12.142100   -2.670950
  H    -134.880000   10.609500   -2.679170
  C    -132.868000   10.687200   -1.822790
  H    -132.826000    9.635550   -1.411480
  H    -132.268000   11.440800   -1.357000
  H    -132.442000   10.576300   -2.820590
  H    -135.982000   16.869700   -4.414220
  H    -139.658000   10.904300   -0.209676

 Total Charge           Charge          ....    0
 Multiplicity           Mult            ....    1
 Number of Electrons    NEL             ....  134
 Basis Dimension        Dim             ....  322

ORBITAL ENERGIES
----------------

  NO   OCC          E(Eh)            E(eV)
   0   2.0000     -88.968383     -2420.9528
   1   2.0000     -88.966614     -2420.9046
   2   2.0000     -10.333276      -281.1827
   3   2.0000     -10.329616      -281.0831
   4   2.0000     -10.321734      -280.8687
   5   2.0000     -10.312376      -280.6140
   6   2.0000     -10.309596      -280.5384
   7   2.0000     -10.305494      -280.4268
   8   2.0000     -10.298836      -280.2456
   9   2.0000     -10.298511      -280.2367
  10   2.0000     -10.295902      -280.1657
  11   2.0000     -10.295271      -280.1486
  12   2.0000     -10.287250      -279.9303
  13   2.0000     -10.286321      -279.9050
  14   2.0000     -10.284309      -279.8503
  15   2.0000     -10.282993      -279.8145
  16   2.0000      -8.083314      -219.9582
  17   2.0000      -8.080556      -219.8831
  18   2.0000      -6.041694      -164.4029
  19   2.0000      -6.039061      -164.3312
  20   2.0000      -6.037889      -164.2993
  21   2.0000      -6.035186      -164.2258
  22   2.0000      -6.034139      -164.1973
  23   2.0000      -6.031366      -164.1218
  24   2.0000      -1.002528       -27.2802
  25   2.0000      -0.977801       -26.6073
  26   2.0000      -0.914156       -24.8754
  27   2.0000      -0.908082       -24.7102
  28   2.0000      -0.868314       -23.6280
  29   2.0000      -0.851930       -23.1822
  30   2.0000      -0.845067       -22.9955
  31   2.0000      -0.810124       -22.0446
  32   2.0000      -0.783924       -21.3317
  33   2.0000      -0.771664       -20.9980
  34   2.0000      -0.711906       -19.3719
  35   2.0000      -0.701092       -19.0777
  36   2.0000      -0.688670       -18.7397
  37   2.0000      -0.664179       -18.0732
  38   2.0000      -0.636818       -17.3287
  39   2.0000      -0.619695       -16.8628
  40   2.0000      -0.596404       -16.2290
  41   2.0000      -0.565878       -15.3983
  42   2.0000      -0.560365       -15.2483
  43   2.0000      -0.552269       -15.0280
  44   2.0000      -0.538944       -14.6654
  45   2.0000      -0.524559       -14.2740
  46   2.0000      -0.520249       -14.1567
  47   2.0000      -0.516699       -14.0601
  48   2.0000      -0.498884       -13.5753
  49   2.0000      -0.494605       -13.4589
  50   2.0000      -0.490772       -13.3546
  51   2.0000      -0.485478       -13.2105
  52   2.0000      -0.471188       -12.8217
  53   2.0000      -0.462239       -12.5782
  54   2.0000      -0.452464       -12.3122
  55   2.0000      -0.451652       -12.2901
  56   2.0000      -0.448378       -12.2010
  57   2.0000      -0.438739       -11.9387
  58   2.0000      -0.435377       -11.8472
  59   2.0000      -0.428071       -11.6484
  60   2.0000      -0.420048       -11.4301
  61   2.0000      -0.411835       -11.2066
  62   2.0000      -0.404361       -11.0032
  63   2.0000      -0.354198        -9.6382
  64   2.0000      -0.335842        -9.1387
  65   2.0000      -0.329169        -8.9571
  66   2.0000      -0.275308        -7.4915
  67   0.0000       0.013679         0.3722
  68   0.0000       0.075733         2.0608
  69   0.0000       0.091389         2.4868
  70   0.0000       0.113848         3.0980
  71   0.0000       0.121483         3.3057

MULLIKEN ATOMIC CHARGES
-----------------------
   0 S :    0.112758
   1 C :   -0.113669
   2 C :   -0.067930
   3 C :    0.006143
   4 C :   -0.151382
   5 H :    0.000283
   6 C :    0.019242
   7 H :    0.063168
   8 H :    0.019359
   9 C :   -0.058284
  10 H :    0.031797
  11 H :    0.012610
  12 C :   -0.070462
  13 H :    0.035985
  14 H :    0.051320
  15 H :    0.048114
  16 S :    0.074764
  17 C :   -0.087624
  18 C :   -0.009785
  19 C :   -0.080589
  20 C :   -0.086632
  21 H :    0.009470
  22 C :    0.049475
  23 H :    0.001870
  24 H :    0.047922
  25 C :   -0.077182
  26 H :    0.025048
  27 H :    0.029285
  28 C :   -0.044471
  29 H :    0.053296
  30 H :    0.034218
  31 H :    0.029849
  32 H :    0.034870
  33 H :    0.057163
Sum of atomic charges:   -0.0000000

LOEWDIN ATOMIC CHARGES
----------------------
   0 S :    0.410255
   1 C :   -0.195323
   2 C :   -0.062068
   3 C :   -0.075364
   4 C :   -0.196274
   5 H :    0.032741
   6 C :   -0.038811
   7 H :    0.049134
   8 H :    0.027480
   9 C :   -0.051413
  10 H :    0.031978
  11 H :    0.015209
  12 C :   -0.070806
  13 H :    0.031722
  14 H :    0.032443
  15 H :    0.033557
  16 S :    0.378324
  17 C :   -0.168948
  18 C :   -0.065224
  19 C :   -0.050122
  20 C :   -0.188584
  21 H :    0.027290
  22 C :   -0.037511
  23 H :    0.023453
  24 H :    0.036158
  25 C :   -0.044174
  26 H :    0.021625
  27 H :    0.030171
  28 C :   -0.069119
  29 H :    0.036171
  30 H :    0.020845
  31 H :    0.030733
  32 H :    0.019037
  33 H :    0.025418

  Mayer bond orders larger than 0.100000
B(  0-S ,  1-C ) :   1.1346 B(  0-S ,  4-C ) :   1.1600 B(  1-C ,  2-C ) :   1.6050
B(  1-C , 32-H ) :   0.9722 B(  2-C ,  3-C ) :   1.2373 B(  2-C ,  6-C ) :   1.0146
B(  3-C ,  4-C ) :   1.5614 B(  3-C ,  5-H ) :   0.9742 B(  4-C , 20-C ) :   1.0711
B(  6-C ,  7-H ) :   0.9369 B(  6-C ,  8-H ) :   0.9386 B(  6-C ,  9-C ) :   1.0917
B(  9-C , 10-H ) :   0.9536 B(  9-C , 11-H ) :   0.9511 B(  9-C , 12-C ) :   1.0533
B( 12-C , 13-H ) :   0.9804 B( 12-C , 14-H ) :   0.9745 B( 12-C , 15-H ) :   0.9734
B( 16-S , 17-C ) :   1.1651 B( 16-S , 20-C ) :   1.1210 B( 17-C , 18-C ) :   1.5817
B( 17-C , 33-H ) :   0.9696 B( 18-C , 19-C ) :   1.2749 B( 18-C , 21-H ) :   0.9971
B( 19-C , 20-C ) :   1.5474 B( 19-C , 22-C ) :   1.0435 B( 22-C , 23-H ) :   0.9325
B( 22-C , 24-H ) :   0.9212 B( 22-C , 25-C ) :   1.0495 B( 25-C , 26-H ) :   0.9491
B( 25-C , 27-H ) :   0.9506 B( 25-C , 28-C ) :   1.0855 B( 28-C , 29-H ) :   0.9721
B( 28-C , 30-H ) :   0.9730 B( 28-C , 31-H ) :   0.9719

Dispersion correction           -0.015470266
FINAL SINGLE POINT ENERGY     -1339.865406138331

DIPOLE MOMENT
-------------
                                X             Y             Z
Electronic contribution:    -32.04854       3.19316      -3.37506
Nuclear contribution   :     32.68098      -3.32054       3.72034
                        -----------------------------------------
Total Dipole Moment    :      0.63244      -0.12738       0.34528
                        -----------------------------------------
Magnitude (a.u.)       :      0.73173
Magnitude (Debye)      :      1.85990

Rotational constants in cm-1:     0.017229     0.010696     0.007192
Rotational constants in MHz :   516.498084   320.651028   215.608977

                             ****ORCA TERMINATED NORMALLY****
TOTAL RUN TIME: 0 days 0 hours 0 minutes 22 seconds 752 msec
