                         Program Version 4.2.1 -  RELEASE  -
|  1> ! wB97X-D3 SP def2-SVP
|  2> %pal
|  3> nprocs 24
|  4> end
|  5>
|  6> * xyz 0 1
|  7> S 	 -74.5446 	 7.87696 	 -110.95
|  8> C 	 -74.5688 	 8.18354 	 -109.288
|  9> C 	 -73.4939 	 7.63383 	 -108.627
| 10> C 	 -72.6205 	 6.91544 	 -109.467
| 11> C 	 -72.9926 	 7.03363 	 -110.807
| 12> H 	 -71.7353 	 6.42964 	 -109.169
| 13> C 	 -73.2932 	 7.90605 	 -107.188
| 14> H 	 -73.9743 	 7.28825 	 -106.592
| 15> H 	 -73.8423 	 8.78755 	 -106.974
| 16> C 	 -71.8268 	 7.98711 	 -106.544
| 17> H 	 -71.9003 	 8.06293 	 -105.464
| 18> H 	 -71.3253 	 6.97666 	 -106.73
| 19> C 	 -70.9746 	 9.23735 	 -106.879
| 20> H 	 -71.5085 	 10.1878 	 -106.952
| 21> H 	 -70.1513 	 9.29892 	 -106.185
| 22> H 	 -70.5854 	 8.96438 	 -107.868
| 23> S 	 -73.2498 	 5.44719 	 -113.027
| 24> C 	 -71.7778 	 4.87722 	 -113.935
| 25> C 	 -70.7108 	 5.58727 	 -113.393
| 26> C 	 -70.9044 	 6.38857 	 -112.228
| 27> C 	 -72.2751 	 6.41057 	 -111.903
| 28> H 	 -69.736 	 5.53566 	 -113.768
| 29> C 	 -69.815 	 7.16953 	 -111.423
| 30> H 	 -68.8898 	 6.74378 	 -111.877
| 31> H 	 -69.8438 	 6.84319 	 -110.368
| 32> C 	 -69.6815 	 8.71187 	 -111.609
| 33> H 	 -68.8539 	 9.04593 	 -110.952
| 34> H 	 -70.52 	 9.12925 	 -111.167
| 35> C 	 -69.4907 	 9.16313 	 -112.999
| 36> H 	 -68.6831 	 8.6645 	 -113.457
| 37> H 	 -69.172 	 10.2361 	 -113.095
| 38> H 	 -70.354 	 9.0128 	 -113.576
| 39> H 	 -75.3181 	 8.68765 	 -108.705
| 40> H 	 -71.7254 	 4.30067 	 -114.909
| 41> *
| 42>
| 43>                          ****END OF INPUT****

CARTESIAN COORDINATES (ANGSTROEM)
---------------------------------
  S    -74.544600    7.876960  -110.950000
  C    -74.568800    8.183540  -109.288000
  C    -73.493900    7.633830  -108.627000
  C    -72.620500    6.915440  -109.467000
  C    -72.992600    7.033630  -110.807000
  H    -71.735300    6.429640  -109.169000
  C    -73.293200    7.906050  -107.188000
  H    -73.974300    7.288250  -106.592000
  H    -73.842300    8.787550  -106.974000
  C    -71.826800    7.987110  -106.544000
  H    -71.900300    8.062930  -105.464000
  H    -71.325300    6.976660  -106.730000
  C    -70.974600    9.237350  -106.879000
  H    -71.508500   10.187800  -106.952000
  H    -70.151300    9.298920  -106.185000
  H    -70.585400    8.964380  -107.868000
  S    -73.249800    5.447190  -113.027000
  C    -71.777800    4.877220  -113.935000
  C    -70.710800    5.587270  -113.393000
  C    -70.904400    6.388570  -112.228000
  C    -72.275100    6.410570  -111.903000
  H    -69.736000    5.535660  -113.768000
  C    -69.815000    7.169530  -111.423000
  H    -68.889800    6.743780  -111.877000
  H    -69.843800    6.843190  -110.368000
  C    -69.681500    8.711870  -111.609000
  H    -68.853900    9.045930  -110.952000
  H    -70.520000    9.129250  -111.167000
  C    -69.490700    9.163130  -112.999000
  H    -68.683100    8.664500  -113.457000
  H    -69.172000   10.236100  -113.095000
  H    -70.354000    9.012800  -113.576000
  H    -75.318100    8.687650  -108.705000
  H    -71.725400    4.300670  -114.909000

 Total Charge           Charge          ....    0
 Multiplicity           Mult            ....    1
 Number of Electrons    NEL             ....  134
 Basis Dimension        Dim             ....  322

ORBITAL ENERGIES
----------------

  NO   OCC          E(Eh)            E(eV)
   0   2.0000     -88.971460     -2421.0365
   1   2.0000     -88.964632     -2420.8507
   2   2.0000     -10.330733      -281.1135
   3   2.0000     -10.330409      -281.1047
   4   2.0000     -10.327801      -281.0338
   5   2.0000     -10.306416      -280.4518
   6   2.0000     -10.305887      -280.4375
   7   2.0000     -10.302210      -280.3374
   8   2.0000     -10.300620      -280.2941
   9   2.0000     -10.294700      -280.1330
  10   2.0000     -10.293586      -280.1027
  11   2.0000     -10.292015      -280.0600
  12   2.0000     -10.290082      -280.0074
  13   2.0000     -10.281426      -279.7718
  14   2.0000     -10.279549      -279.7207
  15   2.0000     -10.267030      -279.3801
  16   2.0000      -8.086456      -220.0437
  17   2.0000      -8.077892      -219.8106
  18   2.0000      -6.044838      -164.4884
  19   2.0000      -6.040927      -164.3820
  20   2.0000      -6.037333      -164.2842
  21   2.0000      -6.036608      -164.2644
  22   2.0000      -6.032501      -164.1527
  23   2.0000      -6.028604      -164.0467
  24   2.0000      -1.007667       -27.4200
  25   2.0000      -0.978647       -26.6304
  26   2.0000      -0.907965       -24.7070
  27   2.0000      -0.905583       -24.6422
  28   2.0000      -0.870426       -23.6855
  29   2.0000      -0.855120       -23.2690
  30   2.0000      -0.845757       -23.0142
  31   2.0000      -0.818279       -22.2665
  32   2.0000      -0.783435       -21.3183
  33   2.0000      -0.770328       -20.9617
  34   2.0000      -0.715428       -19.4678
  35   2.0000      -0.698578       -19.0093
  36   2.0000      -0.689543       -18.7634
  37   2.0000      -0.663088       -18.0436
  38   2.0000      -0.642649       -17.4874
  39   2.0000      -0.624539       -16.9946
  40   2.0000      -0.585489       -15.9320
  41   2.0000      -0.561277       -15.2731
  42   2.0000      -0.556762       -15.1503
  43   2.0000      -0.549462       -14.9516
  44   2.0000      -0.547994       -14.9117
  45   2.0000      -0.537134       -14.6162
  46   2.0000      -0.516678       -14.0595
  47   2.0000      -0.507560       -13.8114
  48   2.0000      -0.506483       -13.7821
  49   2.0000      -0.494402       -13.4534
  50   2.0000      -0.490913       -13.3584
  51   2.0000      -0.488225       -13.2853
  52   2.0000      -0.476571       -12.9682
  53   2.0000      -0.464493       -12.6395
  54   2.0000      -0.461213       -12.5503
  55   2.0000      -0.450951       -12.2710
  56   2.0000      -0.441470       -12.0130
  57   2.0000      -0.438716       -11.9381
  58   2.0000      -0.432394       -11.7660
  59   2.0000      -0.423720       -11.5300
  60   2.0000      -0.421612       -11.4727
  61   2.0000      -0.411319       -11.1926
  62   2.0000      -0.407475       -11.0880
  63   2.0000      -0.351267        -9.5584
  64   2.0000      -0.332006        -9.0344
  65   2.0000      -0.326442        -8.8829
  66   2.0000      -0.285865        -7.7788
  67   0.0000       0.021964         0.5977
  68   0.0000       0.069570         1.8931
  69   0.0000       0.108081         2.9410
  70   0.0000       0.116410         3.1677
  71   0.0000       0.130527         3.5518

MULLIKEN ATOMIC CHARGES
-----------------------
   0 S :    0.138113
   1 C :   -0.108616
   2 C :   -0.080508
   3 C :    0.038414
   4 C :   -0.147350
   5 H :   -0.008096
   6 C :    0.081735
   7 H :    0.027411
   8 H :   -0.010036
   9 C :   -0.107325
  10 H :    0.026238
  11 H :    0.045243
  12 C :   -0.036488
  13 H :    0.045147
  14 H :    0.036837
  15 H :    0.030045
  16 S :    0.086934
  17 C :   -0.111114
  18 C :   -0.009217
  19 C :   -0.066612
  20 C :   -0.165736
  21 H :   -0.008531
  22 C :    0.044185
  23 H :    0.012181
  24 H :    0.039672
  25 C :   -0.019189
  26 H :    0.027371
  27 H :    0.018419
  28 C :   -0.021456
  29 H :    0.005672
  30 H :    0.034678
  31 H :    0.036544
  32 H :    0.036618
  33 H :    0.088816
Sum of atomic charges:    0.0000000

LOEWDIN ATOMIC CHARGES
----------------------
   0 S :    0.431329
   1 C :   -0.218276
   2 C :   -0.067217
   3 C :   -0.050010
   4 C :   -0.191245
   5 H :    0.023106
   6 C :   -0.043459
   7 H :    0.038522
   8 H :    0.025471
   9 C :   -0.043836
  10 H :    0.022911
  11 H :    0.030123
  12 C :   -0.064458
  13 H :    0.029950
  14 H :    0.025473
  15 H :    0.026246
  16 S :    0.370574
  17 C :   -0.189773
  18 C :   -0.063779
  19 C :   -0.066835
  20 C :   -0.181220
  21 H :    0.017996
  22 C :   -0.027940
  23 H :    0.029242
  24 H :    0.032053
  25 C :   -0.035226
  26 H :    0.029677
  27 H :    0.015075
  28 C :   -0.060076
  29 H :    0.017119
  30 H :    0.036138
  31 H :    0.023597
  32 H :    0.028070
  33 H :    0.050677

  Mayer bond orders larger than 0.100000
B(  0-S ,  1-C ) :   1.1473 B(  0-S ,  4-C ) :   1.1589 B(  1-C ,  2-C ) :   1.5919
B(  1-C , 32-H ) :   0.9643 B(  2-C ,  3-C ) :   1.2738 B(  2-C ,  6-C ) :   1.0266
B(  3-C ,  4-C ) :   1.5240 B(  3-C ,  5-H ) :   1.0018 B(  4-C , 20-C ) :   1.0670
B(  6-C ,  7-H ) :   0.9209 B(  6-C ,  8-H ) :   0.9275 B(  6-C ,  9-C ) :   1.0649
B(  9-C , 10-H ) :   0.9579 B(  9-C , 11-H ) :   0.9574 B(  9-C , 12-C ) :   1.0608
B( 12-C , 13-H ) :   0.9750 B( 12-C , 14-H ) :   0.9764 B( 12-C , 15-H ) :   0.9792
B( 16-S , 17-C ) :   1.1187 B( 16-S , 20-C ) :   1.1535 B( 17-C , 18-C ) :   1.6012
B( 17-C , 20-C ) :   0.1093 B( 17-C , 33-H ) :   0.9600 B( 18-C , 19-C ) :   1.2744
B( 18-C , 21-H ) :   0.9794 B( 19-C , 20-C ) :   1.5589 B( 19-C , 22-C ) :   1.0186
B( 22-C , 23-H ) :   0.9308 B( 22-C , 24-H ) :   0.9409 B( 22-C , 25-C ) :   1.0682
B( 25-C , 26-H ) :   0.9512 B( 25-C , 27-H ) :   0.9535 B( 25-C , 28-C ) :   1.0862
B( 28-C , 29-H ) :   0.9722 B( 28-C , 30-H ) :   0.9682 B( 28-C , 31-H ) :   0.9715

Dispersion correction           -0.015221203
FINAL SINGLE POINT ENERGY     -1339.859668405548

DIPOLE MOMENT
-------------
                                X             Y             Z
Electronic contribution:    -20.46262     -12.81398     -15.19247
Nuclear contribution   :     20.96444      13.11232      15.66917
                        -----------------------------------------
Total Dipole Moment    :      0.50183       0.29834       0.47669
                        -----------------------------------------
Magnitude (a.u.)       :      0.75371
Magnitude (Debye)      :      1.91577

Rotational constants in cm-1:     0.018202     0.009760     0.007479
Rotational constants in MHz :   545.693594   292.590643   224.213824

                             ****ORCA TERMINATED NORMALLY****
TOTAL RUN TIME: 0 days 0 hours 0 minutes 22 seconds 440 msec
