                         Program Version 4.2.1 -  RELEASE  -
|  1> ! wB97X-D3 SP def2-SVP
|  2> %pal
|  3> nprocs 24
|  4> end
|  5>
|  6> * xyz 0 1
|  7> S 	 -129.915 	 30.5138 	 -13.5559
|  8> C 	 -129.681 	 30.4108 	 -15.2966
|  9> C 	 -130.719 	 29.7478 	 -15.8185
| 10> C 	 -131.674 	 29.348 	 -14.8525
| 11> C 	 -131.347 	 29.5863 	 -13.5697
| 12> H 	 -132.611 	 28.8669 	 -15.0487
| 13> C 	 -130.893 	 29.5711 	 -17.246
| 14> H 	 -130.063 	 29.8967 	 -17.8583
| 15> H 	 -131.74 	 30.1217 	 -17.6289
| 16> C 	 -131.191 	 28.1771 	 -17.79
| 17> H 	 -132.235 	 27.9102 	 -17.5213
| 18> H 	 -131.075 	 28.258 	 -18.8372
| 19> C 	 -130.232 	 27.0448 	 -17.2421
| 20> H 	 -129.133 	 27.3076 	 -17.4218
| 21> H 	 -130.256 	 26.8481 	 -16.176
| 22> H 	 -130.409 	 26.0319 	 -17.6633
| 23> S 	 -132.684 	 30.4165 	 -11.3152
| 24> C 	 -133.859 	 29.4135 	 -10.6869
| 25> C 	 -133.776 	 28.126 	 -11.1852
| 26> C 	 -132.786 	 27.9757 	 -12.1807
| 27> C 	 -132.197 	 29.1716 	 -12.4353
| 28> H 	 -134.396 	 27.3534 	 -10.8127
| 29> C 	 -132.626 	 26.6535 	 -12.8929
| 30> H 	 -132.317 	 25.8624 	 -12.2393
| 31> H 	 -131.805 	 26.7123 	 -13.6104
| 32> C 	 -133.815 	 26.0982 	 -13.6667
| 33> H 	 -134.294 	 26.8291 	 -14.3811
| 34> H 	 -134.531 	 25.8619 	 -12.926
| 35> C 	 -133.554 	 24.8423 	 -14.4536
| 36> H 	 -134.471 	 24.2613 	 -14.5413
| 37> H 	 -132.795 	 24.1122 	 -14.0792
| 38> H 	 -133.156 	 25.1591 	 -15.4209
| 39> H 	 -128.694 	 30.614 	 -15.7813
| 40> H 	 -134.493 	 29.7062 	 -9.89019
| 41> *
| 42>
| 43>                          ****END OF INPUT****

CARTESIAN COORDINATES (ANGSTROEM)
---------------------------------
  S    -129.915000   30.513800  -13.555900
  C    -129.681000   30.410800  -15.296600
  C    -130.719000   29.747800  -15.818500
  C    -131.674000   29.348000  -14.852500
  C    -131.347000   29.586300  -13.569700
  H    -132.611000   28.866900  -15.048700
  C    -130.893000   29.571100  -17.246000
  H    -130.063000   29.896700  -17.858300
  H    -131.740000   30.121700  -17.628900
  C    -131.191000   28.177100  -17.790000
  H    -132.235000   27.910200  -17.521300
  H    -131.075000   28.258000  -18.837200
  C    -130.232000   27.044800  -17.242100
  H    -129.133000   27.307600  -17.421800
  H    -130.256000   26.848100  -16.176000
  H    -130.409000   26.031900  -17.663300
  S    -132.684000   30.416500  -11.315200
  C    -133.859000   29.413500  -10.686900
  C    -133.776000   28.126000  -11.185200
  C    -132.786000   27.975700  -12.180700
  C    -132.197000   29.171600  -12.435300
  H    -134.396000   27.353400  -10.812700
  C    -132.626000   26.653500  -12.892900
  H    -132.317000   25.862400  -12.239300
  H    -131.805000   26.712300  -13.610400
  C    -133.815000   26.098200  -13.666700
  H    -134.294000   26.829100  -14.381100
  H    -134.531000   25.861900  -12.926000
  C    -133.554000   24.842300  -14.453600
  H    -134.471000   24.261300  -14.541300
  H    -132.795000   24.112200  -14.079200
  H    -133.156000   25.159100  -15.420900
  H    -128.694000   30.614000  -15.781300
  H    -134.493000   29.706200   -9.890190

 Total Charge           Charge          ....    0
 Multiplicity           Mult            ....    1
 Number of Electrons    NEL             ....  134
 Basis Dimension        Dim             ....  322

ORBITAL ENERGIES
----------------

  NO   OCC          E(Eh)            E(eV)
   0   2.0000     -88.965493     -2420.8741
   1   2.0000     -88.958604     -2420.6867
   2   2.0000     -10.324836      -280.9531
   3   2.0000     -10.322780      -280.8971
   4   2.0000     -10.311260      -280.5836
   5   2.0000     -10.309580      -280.5379
   6   2.0000     -10.300729      -280.2971
   7   2.0000     -10.290949      -280.0310
   8   2.0000     -10.289234      -279.9843
   9   2.0000     -10.289170      -279.9825
  10   2.0000     -10.287367      -279.9335
  11   2.0000     -10.285489      -279.8824
  12   2.0000     -10.283726      -279.8344
  13   2.0000     -10.282606      -279.8039
  14   2.0000     -10.282379      -279.7978
  15   2.0000     -10.280770      -279.7540
  16   2.0000      -8.082338      -219.9316
  17   2.0000      -8.074491      -219.7181
  18   2.0000      -6.040537      -164.3714
  19   2.0000      -6.036616      -164.2647
  20   2.0000      -6.033221      -164.1723
  21   2.0000      -6.033025      -164.1670
  22   2.0000      -6.028793      -164.0518
  23   2.0000      -6.025182      -163.9535
  24   2.0000      -1.020098       -27.7583
  25   2.0000      -0.999959       -27.2103
  26   2.0000      -0.918005       -24.9802
  27   2.0000      -0.917642       -24.9703
  28   2.0000      -0.872444       -23.7404
  29   2.0000      -0.860980       -23.4285
  30   2.0000      -0.840118       -22.8608
  31   2.0000      -0.816653       -22.2223
  32   2.0000      -0.788397       -21.4534
  33   2.0000      -0.779883       -21.2217
  34   2.0000      -0.707651       -19.2562
  35   2.0000      -0.698579       -19.0093
  36   2.0000      -0.695148       -18.9159
  37   2.0000      -0.664522       -18.0826
  38   2.0000      -0.640425       -17.4269
  39   2.0000      -0.627178       -17.0664
  40   2.0000      -0.609220       -16.5777
  41   2.0000      -0.573744       -15.6124
  42   2.0000      -0.571125       -15.5411
  43   2.0000      -0.555413       -15.1136
  44   2.0000      -0.539943       -14.6926
  45   2.0000      -0.526733       -14.3331
  46   2.0000      -0.521228       -14.1833
  47   2.0000      -0.516095       -14.0437
  48   2.0000      -0.506348       -13.7784
  49   2.0000      -0.499886       -13.6026
  50   2.0000      -0.494458       -13.4549
  51   2.0000      -0.480709       -13.0808
  52   2.0000      -0.476749       -12.9730
  53   2.0000      -0.464685       -12.6447
  54   2.0000      -0.458928       -12.4881
  55   2.0000      -0.454365       -12.3639
  56   2.0000      -0.444203       -12.0874
  57   2.0000      -0.434430       -11.8214
  58   2.0000      -0.432063       -11.7570
  59   2.0000      -0.430455       -11.7133
  60   2.0000      -0.419800       -11.4233
  61   2.0000      -0.413133       -11.2419
  62   2.0000      -0.411232       -11.1902
  63   2.0000      -0.350246        -9.5307
  64   2.0000      -0.336057        -9.1446
  65   2.0000      -0.326443        -8.8830
  66   2.0000      -0.297169        -8.0864
  67   0.0000       0.039598         1.0775
  68   0.0000       0.074159         2.0180
  69   0.0000       0.113942         3.1005
  70   0.0000       0.119503         3.2518
  71   0.0000       0.128031         3.4839

MULLIKEN ATOMIC CHARGES
-----------------------
   0 S :    0.086070
   1 C :   -0.156168
   2 C :   -0.027146
   3 C :    0.011530
   4 C :   -0.114942
   5 H :   -0.008105
   6 C :    0.068496
   7 H :    0.008393
   8 H :    0.034870
   9 C :   -0.070400
  10 H :    0.030560
  11 H :    0.028832
  12 C :   -0.096671
  13 H :    0.030527
  14 H :    0.038606
  15 H :    0.037925
  16 S :    0.130456
  17 C :   -0.070720
  18 C :   -0.043337
  19 C :    0.008391
  20 C :   -0.178415
  21 H :    0.002977
  22 C :    0.077069
  23 H :    0.022098
  24 H :    0.015006
  25 C :   -0.078821
  26 H :    0.039348
  27 H :    0.013682
  28 C :   -0.061275
  29 H :    0.038842
  30 H :    0.031227
  31 H :    0.033362
  32 H :    0.073367
  33 H :    0.044364
Sum of atomic charges:   -0.0000000

LOEWDIN ATOMIC CHARGES
----------------------
   0 S :    0.402396
   1 C :   -0.194712
   2 C :   -0.071227
   3 C :   -0.066701
   4 C :   -0.199491
   5 H :    0.025936
   6 C :   -0.034973
   7 H :    0.028192
   8 H :    0.038210
   9 C :   -0.033130
  10 H :    0.021308
  11 H :    0.021776
  12 C :   -0.082825
  13 H :    0.029604
  14 H :    0.022190
  15 H :    0.027428
  16 S :    0.445157
  17 C :   -0.199215
  18 C :   -0.067381
  19 C :   -0.053635
  20 C :   -0.192722
  21 H :    0.023885
  22 C :   -0.030870
  23 H :    0.032217
  24 H :    0.026585
  25 C :   -0.042267
  26 H :    0.030132
  27 H :    0.013806
  28 C :   -0.069348
  29 H :    0.029906
  30 H :    0.028127
  31 H :    0.026243
  32 H :    0.043237
  33 H :    0.022163

  Mayer bond orders larger than 0.100000
B(  0-S ,  1-C ) :   1.1214 B(  0-S ,  4-C ) :   1.1575 B(  1-C ,  2-C ) :   1.6173
B(  1-C , 32-H ) :   0.9618 B(  2-C ,  3-C ) :   1.2112 B(  2-C ,  6-C ) :   1.0557
B(  3-C ,  4-C ) :   1.5843 B(  3-C ,  5-H ) :   1.0072 B(  4-C , 20-C ) :   0.9976
B(  6-C ,  7-H ) :   0.9403 B(  6-C ,  8-H ) :   0.9297 B(  6-C ,  9-C ) :   1.0727
B(  9-C , 10-H ) :   0.9545 B(  9-C , 11-H ) :   0.9590 B(  9-C , 12-C ) :   1.0675
B( 12-C , 13-H ) :   0.9752 B( 12-C , 14-H ) :   0.9731 B( 12-C , 15-H ) :   0.9769
B( 16-S , 17-C ) :   1.1836 B( 16-S , 20-C ) :   1.1559 B( 17-C , 18-C ) :   1.5821
B( 17-C , 33-H ) :   0.9730 B( 18-C , 19-C ) :   1.2348 B( 18-C , 21-H ) :   1.0028
B( 19-C , 20-C ) :   1.6101 B( 19-C , 22-C ) :   1.0515 B( 22-C , 23-H ) :   0.9222
B( 22-C , 24-H ) :   0.9340 B( 22-C , 25-C ) :   1.0664 B( 25-C , 26-H ) :   0.9537
B( 25-C , 27-H ) :   0.9528 B( 25-C , 28-C ) :   1.0821 B( 28-C , 29-H ) :   0.9738
B( 28-C , 30-H ) :   0.9730 B( 28-C , 31-H ) :   0.9765

Dispersion correction           -0.015326760
FINAL SINGLE POINT ENERGY     -1339.878785704796

DIPOLE MOMENT
-------------
                                X             Y             Z
Electronic contribution:      4.59491      24.27688      21.06758
Nuclear contribution   :     -4.93007     -24.82384     -21.42240
                        -----------------------------------------
Total Dipole Moment    :     -0.33515      -0.54696      -0.35483
                        -----------------------------------------
Magnitude (a.u.)       :      0.73307
Magnitude (Debye)      :      1.86332

Rotational constants in cm-1:     0.016573     0.011146     0.007212
Rotational constants in MHz :   496.860716   334.146164   216.210454

                             ****ORCA TERMINATED NORMALLY****
TOTAL RUN TIME: 0 days 0 hours 0 minutes 22 seconds 960 msec
