                         Program Version 4.2.1 -  RELEASE  -
|  1> ! wB97X-D3 SP def2-SVP
|  2> %pal
|  3> nprocs 24
|  4> end
|  5>
|  6> * xyz 0 1
|  7> S 	 -84.6923 	 -33.5692 	 -78.7801
|  8> C 	 -85.5839 	 -33.0343 	 -80.2007
|  9> C 	 -86.7666 	 -32.475 	 -79.7483
| 10> C 	 -87.1657 	 -32.8902 	 -78.441
| 11> C 	 -86.1041 	 -33.4215 	 -77.7406
| 12> H 	 -88.1919 	 -32.6497 	 -77.9958
| 13> C 	 -87.6655 	 -31.7584 	 -80.7908
| 14> H 	 -88.6524 	 -32.1844 	 -80.7148
| 15> H 	 -87.2162 	 -31.8813 	 -81.7863
| 16> C 	 -87.8243 	 -30.2607 	 -80.6423
| 17> H 	 -88.6107 	 -29.9318 	 -81.3824
| 18> H 	 -88.1088 	 -29.9437 	 -79.6894
| 19> C 	 -86.5191 	 -29.4444 	 -80.966
| 20> H 	 -86.6496 	 -28.4029 	 -80.8024
| 21> H 	 -85.6747 	 -29.763 	 -80.2502
| 22> H 	 -86.2757 	 -29.8126 	 -81.974
| 23> S 	 -84.8221 	 -35.3053 	 -76.041
| 24> C 	 -85.503 	 -35.6416 	 -74.3982
| 25> C 	 -86.512 	 -34.712 	 -74.1522
| 26> C 	 -86.9334 	 -33.9755 	 -75.2824
| 27> C 	 -86.0896 	 -34.0883 	 -76.419
| 28> H 	 -86.9532 	 -34.687 	 -73.1626
| 29> C 	 -88.127 	 -32.9575 	 -75.0491
| 30> H 	 -88.0748 	 -32.3521 	 -75.9537
| 31> H 	 -87.8923 	 -32.1838 	 -74.2618
| 32> C 	 -89.5103 	 -33.6124 	 -74.8998
| 33> H 	 -89.4768 	 -34.3417 	 -74.0743
| 34> H 	 -89.8844 	 -34.0698 	 -75.7311
| 35> C 	 -90.5576 	 -32.6143 	 -74.3444
| 36> H 	 -91.5253 	 -33.0924 	 -74.3217
| 37> H 	 -90.5158 	 -31.751 	 -74.9192
| 38> H 	 -90.3954 	 -32.3972 	 -73.3358
| 39> H 	 -85.2001 	 -33.0091 	 -81.226
| 40> H 	 -85.2114 	 -36.5195 	 -73.7465
| 41> *
| 42>
| 43>                          ****END OF INPUT****

CARTESIAN COORDINATES (ANGSTROEM)
---------------------------------
  S    -84.692300  -33.569200  -78.780100
  C    -85.583900  -33.034300  -80.200700
  C    -86.766600  -32.475000  -79.748300
  C    -87.165700  -32.890200  -78.441000
  C    -86.104100  -33.421500  -77.740600
  H    -88.191900  -32.649700  -77.995800
  C    -87.665500  -31.758400  -80.790800
  H    -88.652400  -32.184400  -80.714800
  H    -87.216200  -31.881300  -81.786300
  C    -87.824300  -30.260700  -80.642300
  H    -88.610700  -29.931800  -81.382400
  H    -88.108800  -29.943700  -79.689400
  C    -86.519100  -29.444400  -80.966000
  H    -86.649600  -28.402900  -80.802400
  H    -85.674700  -29.763000  -80.250200
  H    -86.275700  -29.812600  -81.974000
  S    -84.822100  -35.305300  -76.041000
  C    -85.503000  -35.641600  -74.398200
  C    -86.512000  -34.712000  -74.152200
  C    -86.933400  -33.975500  -75.282400
  C    -86.089600  -34.088300  -76.419000
  H    -86.953200  -34.687000  -73.162600
  C    -88.127000  -32.957500  -75.049100
  H    -88.074800  -32.352100  -75.953700
  H    -87.892300  -32.183800  -74.261800
  C    -89.510300  -33.612400  -74.899800
  H    -89.476800  -34.341700  -74.074300
  H    -89.884400  -34.069800  -75.731100
  C    -90.557600  -32.614300  -74.344400
  H    -91.525300  -33.092400  -74.321700
  H    -90.515800  -31.751000  -74.919200
  H    -90.395400  -32.397200  -73.335800
  H    -85.200100  -33.009100  -81.226000
  H    -85.211400  -36.519500  -73.746500

 Total Charge           Charge          ....    0
 Multiplicity           Mult            ....    1
 Number of Electrons    NEL             ....  134
 Basis Dimension        Dim             ....  322

ORBITAL ENERGIES
----------------

  NO   OCC          E(Eh)            E(eV)
   0   2.0000     -88.966720     -2420.9075
   1   2.0000     -88.966156     -2420.8922
   2   2.0000     -10.341371      -281.4030
   3   2.0000     -10.339215      -281.3443
   4   2.0000     -10.329772      -281.0874
   5   2.0000     -10.318666      -280.7852
   6   2.0000     -10.311016      -280.5770
   7   2.0000     -10.305614      -280.4300
   8   2.0000     -10.305109      -280.4163
   9   2.0000     -10.301336      -280.3136
  10   2.0000     -10.296581      -280.1842
  11   2.0000     -10.293352      -280.0963
  12   2.0000     -10.284383      -279.8523
  13   2.0000     -10.283224      -279.8208
  14   2.0000     -10.280790      -279.7545
  15   2.0000     -10.267997      -279.4064
  16   2.0000      -8.080738      -219.8881
  17   2.0000      -8.079683      -219.8593
  18   2.0000      -6.039382      -164.3399
  19   2.0000      -6.038399      -164.3132
  20   2.0000      -6.035354      -164.2303
  21   2.0000      -6.034403      -164.2045
  22   2.0000      -6.031256      -164.1188
  23   2.0000      -6.030325      -164.0935
  24   2.0000      -1.003776       -27.3141
  25   2.0000      -0.977255       -26.5925
  26   2.0000      -0.910577       -24.7781
  27   2.0000      -0.905405       -24.6373
  28   2.0000      -0.866244       -23.5717
  29   2.0000      -0.850528       -23.1440
  30   2.0000      -0.840017       -22.8580
  31   2.0000      -0.814292       -22.1580
  32   2.0000      -0.780681       -21.2434
  33   2.0000      -0.771252       -20.9868
  34   2.0000      -0.709832       -19.3155
  35   2.0000      -0.699893       -19.0451
  36   2.0000      -0.688460       -18.7339
  37   2.0000      -0.656229       -17.8569
  38   2.0000      -0.638335       -17.3700
  39   2.0000      -0.621703       -16.9174
  40   2.0000      -0.590888       -16.0789
  41   2.0000      -0.569062       -15.4850
  42   2.0000      -0.567567       -15.4443
  43   2.0000      -0.557983       -15.1835
  44   2.0000      -0.539790       -14.6884
  45   2.0000      -0.535951       -14.5840
  46   2.0000      -0.519047       -14.1240
  47   2.0000      -0.512623       -13.9492
  48   2.0000      -0.507677       -13.8146
  49   2.0000      -0.500452       -13.6180
  50   2.0000      -0.487259       -13.2590
  51   2.0000      -0.477543       -12.9946
  52   2.0000      -0.470082       -12.7916
  53   2.0000      -0.459247       -12.4967
  54   2.0000      -0.457742       -12.4558
  55   2.0000      -0.447923       -12.1886
  56   2.0000      -0.444515       -12.0959
  57   2.0000      -0.442237       -12.0339
  58   2.0000      -0.439056       -11.9473
  59   2.0000      -0.419341       -11.4108
  60   2.0000      -0.418046       -11.3756
  61   2.0000      -0.407622       -11.0920
  62   2.0000      -0.403621       -10.9831
  63   2.0000      -0.358767        -9.7625
  64   2.0000      -0.335421        -9.1273
  65   2.0000      -0.327593        -8.9143
  66   2.0000      -0.282433        -7.6854
  67   0.0000       0.012510         0.3404
  68   0.0000       0.076955         2.0940
  69   0.0000       0.093078         2.5328
  70   0.0000       0.115302         3.1375
  71   0.0000       0.130318         3.5461

MULLIKEN ATOMIC CHARGES
-----------------------
   0 S :    0.091920
   1 C :   -0.138504
   2 C :   -0.094798
   3 C :   -0.020075
   4 C :   -0.105820
   5 H :    0.051655
   6 C :    0.075387
   7 H :    0.029559
   8 H :    0.015574
   9 C :   -0.076388
  10 H :    0.037675
  11 H :    0.011010
  12 C :   -0.078155
  13 H :    0.040876
  14 H :    0.048307
  15 H :    0.026163
  16 S :    0.082922
  17 C :   -0.127717
  18 C :   -0.017443
  19 C :   -0.051212
  20 C :   -0.110605
  21 H :    0.026410
  22 C :    0.026260
  23 H :   -0.000511
  24 H :    0.048342
  25 C :   -0.037478
  26 H :    0.023390
  27 H :    0.015960
  28 C :   -0.012330
  29 H :    0.027778
  30 H :    0.018122
  31 H :    0.014663
  32 H :    0.067749
  33 H :    0.091313
Sum of atomic charges:    0.0000000

LOEWDIN ATOMIC CHARGES
----------------------
   0 S :    0.391288
   1 C :   -0.193133
   2 C :   -0.062760
   3 C :   -0.078481
   4 C :   -0.177504
   5 H :    0.046025
   6 C :   -0.027020
   7 H :    0.029413
   8 H :    0.029437
   9 C :   -0.040682
  10 H :    0.029989
  11 H :    0.009264
  12 C :   -0.068155
  13 H :    0.020689
  14 H :    0.034623
  15 H :    0.021839
  16 S :    0.363562
  17 C :   -0.177297
  18 C :   -0.071379
  19 C :   -0.058237
  20 C :   -0.181935
  21 H :    0.032798
  22 C :   -0.033676
  23 H :    0.021048
  24 H :    0.040516
  25 C :   -0.028424
  26 H :    0.025714
  27 H :    0.011710
  28 C :   -0.050666
  29 H :    0.027942
  30 H :    0.013198
  31 H :    0.017009
  32 H :    0.035294
  33 H :    0.047992

  Mayer bond orders larger than 0.100000
B(  0-S ,  1-C ) :   1.1277 B(  0-S ,  4-C ) :   1.1456 B(  1-C ,  2-C ) :   1.5956
B(  1-C , 32-H ) :   0.9710 B(  2-C ,  3-C ) :   1.2482 B(  2-C ,  6-C ) :   1.0252
B(  3-C ,  4-C ) :   1.5721 B(  3-C ,  5-H ) :   0.9648 B(  4-C , 20-C ) :   1.0752
B(  6-C ,  7-H ) :   0.9406 B(  6-C ,  8-H ) :   0.9457 B(  6-C ,  9-C ) :   1.0724
B(  9-C , 10-H ) :   0.9567 B(  9-C , 11-H ) :   0.9571 B(  9-C , 12-C ) :   1.0668
B( 12-C , 13-H ) :   0.9764 B( 12-C , 14-H ) :   0.9759 B( 12-C , 15-H ) :   0.9777
B( 16-S , 17-C ) :   1.1397 B( 16-S , 20-C ) :   1.1300 B( 17-C , 18-C ) :   1.5910
B( 17-C , 20-C ) :   0.1082 B( 17-C , 33-H ) :   0.9607 B( 18-C , 19-C ) :   1.2666
B( 18-C , 21-H ) :   0.9862 B( 19-C , 20-C ) :   1.5692 B( 19-C , 22-C ) :   1.0211
B( 22-C , 23-H ) :   0.9310 B( 22-C , 24-H ) :   0.9509 B( 22-C , 25-C ) :   1.0537
B( 25-C , 26-H ) :   0.9618 B( 25-C , 27-H ) :   0.9584 B( 25-C , 28-C ) :   1.0811
B( 28-C , 29-H ) :   0.9730 B( 28-C , 30-H ) :   0.9761 B( 28-C , 31-H ) :   0.9772

Dispersion correction           -0.013609958
FINAL SINGLE POINT ENERGY     -1339.847254608886

DIPOLE MOMENT
-------------
                                X             Y             Z
Electronic contribution:     22.88826     -18.20355       2.36206
Nuclear contribution   :    -23.59548      18.45744      -2.23015
                        -----------------------------------------
Total Dipole Moment    :     -0.70722       0.25389       0.13191
                        -----------------------------------------
Magnitude (a.u.)       :      0.76290
Magnitude (Debye)      :      1.93915

Rotational constants in cm-1:     0.017348     0.008719     0.006111
Rotational constants in MHz :   520.082399   261.398800   183.199233

                             ****ORCA TERMINATED NORMALLY****
TOTAL RUN TIME: 0 days 0 hours 0 minutes 21 seconds 102 msec
