                         Program Version 4.2.1 -  RELEASE  -
|  1> ! wB97X-D3 SP def2-SVP
|  2> %pal
|  3> nprocs 24
|  4> end
|  5>
|  6> * xyz 0 1
|  7> S 	 43.0692 	 -23.6532 	 -114.556
|  8> C 	 42.0245 	 -22.3651 	 -113.892
|  9> C 	 42.7938 	 -21.2705 	 -113.65
| 10> C 	 44.0919 	 -21.3077 	 -114.198
| 11> C 	 44.4824 	 -22.564 	 -114.581
| 12> H 	 44.8031 	 -20.472 	 -114.247
| 13> C 	 42.3396 	 -19.9235 	 -113.135
| 14> H 	 41.2692 	 -19.7694 	 -113.028
| 15> H 	 42.6363 	 -19.1543 	 -113.883
| 16> C 	 43.1838 	 -19.4621 	 -111.916
| 17> H 	 44.2142 	 -19.3969 	 -112.219
| 18> H 	 42.9348 	 -18.4561 	 -111.63
| 19> C 	 42.992 	 -20.3524 	 -110.645
| 20> H 	 43.8322 	 -21.0179 	 -110.47
| 21> H 	 43.102 	 -19.7501 	 -109.729
| 22> H 	 41.9813 	 -20.7264 	 -110.526
| 23> S 	 45.8748 	 -23.3454 	 -116.791
| 24> C 	 47.5744 	 -23.1866 	 -116.887
| 25> C 	 48.0799 	 -22.9155 	 -115.584
| 26> C 	 47.0318 	 -22.7108 	 -114.624
| 27> C 	 45.7535 	 -22.8776 	 -115.163
| 28> H 	 49.1807 	 -22.7079 	 -115.486
| 29> C 	 47.3236 	 -22.2577 	 -113.18
| 30> H 	 46.4209 	 -22.2232 	 -112.643
| 31> H 	 47.7473 	 -21.3013 	 -113.332
| 32> C 	 48.338 	 -23.1436 	 -112.389
| 33> H 	 49.228 	 -23.3001 	 -112.962
| 34> H 	 47.9077 	 -24.2013 	 -112.284
| 35> C 	 48.4595 	 -22.5862 	 -110.981
| 36> H 	 49.086 	 -21.683 	 -110.985
| 37> H 	 49.0238 	 -23.287 	 -110.318
| 38> H 	 47.5083 	 -22.2224 	 -110.46
| 39> H 	 40.9442 	 -22.3989 	 -113.709
| 40> H 	 48.3315 	 -23.5584 	 -117.599
| 41> *
| 42>
| 43>                          ****END OF INPUT****

CARTESIAN COORDINATES (ANGSTROEM)
---------------------------------
  S     43.069200  -23.653200  -114.556000
  C     42.024500  -22.365100  -113.892000
  C     42.793800  -21.270500  -113.650000
  C     44.091900  -21.307700  -114.198000
  C     44.482400  -22.564000  -114.581000
  H     44.803100  -20.472000  -114.247000
  C     42.339600  -19.923500  -113.135000
  H     41.269200  -19.769400  -113.028000
  H     42.636300  -19.154300  -113.883000
  C     43.183800  -19.462100  -111.916000
  H     44.214200  -19.396900  -112.219000
  H     42.934800  -18.456100  -111.630000
  C     42.992000  -20.352400  -110.645000
  H     43.832200  -21.017900  -110.470000
  H     43.102000  -19.750100  -109.729000
  H     41.981300  -20.726400  -110.526000
  S     45.874800  -23.345400  -116.791000
  C     47.574400  -23.186600  -116.887000
  C     48.079900  -22.915500  -115.584000
  C     47.031800  -22.710800  -114.624000
  C     45.753500  -22.877600  -115.163000
  H     49.180700  -22.707900  -115.486000
  C     47.323600  -22.257700  -113.180000
  H     46.420900  -22.223200  -112.643000
  H     47.747300  -21.301300  -113.332000
  C     48.338000  -23.143600  -112.389000
  H     49.228000  -23.300100  -112.962000
  H     47.907700  -24.201300  -112.284000
  C     48.459500  -22.586200  -110.981000
  H     49.086000  -21.683000  -110.985000
  H     49.023800  -23.287000  -110.318000
  H     47.508300  -22.222400  -110.460000
  H     40.944200  -22.398900  -113.709000
  H     48.331500  -23.558400  -117.599000

 Total Charge           Charge          ....    0
 Multiplicity           Mult            ....    1
 Number of Electrons    NEL             ....  134
 Basis Dimension        Dim             ....  322

ORBITAL ENERGIES
----------------

  NO   OCC          E(Eh)            E(eV)
   0   2.0000     -88.967380     -2420.9255
   1   2.0000     -88.965376     -2420.8709
   2   2.0000     -10.329795      -281.0880
   3   2.0000     -10.321051      -280.8501
   4   2.0000     -10.319029      -280.7951
   5   2.0000     -10.317779      -280.7610
   6   2.0000     -10.304959      -280.4122
   7   2.0000     -10.300055      -280.2788
   8   2.0000     -10.297387      -280.2061
   9   2.0000     -10.293695      -280.1057
  10   2.0000     -10.293276      -280.0943
  11   2.0000     -10.291046      -280.0336
  12   2.0000     -10.287333      -279.9326
  13   2.0000     -10.286650      -279.9140
  14   2.0000     -10.285042      -279.8702
  15   2.0000     -10.275753      -279.6175
  16   2.0000      -8.083228      -219.9558
  17   2.0000      -8.079007      -219.8410
  18   2.0000      -6.041608      -164.4005
  19   2.0000      -6.037762      -164.2959
  20   2.0000      -6.037330      -164.2841
  21   2.0000      -6.034271      -164.2009
  22   2.0000      -6.033703      -164.1854
  23   2.0000      -6.029530      -164.0719
  24   2.0000      -1.011758       -27.5313
  25   2.0000      -0.986989       -26.8573
  26   2.0000      -0.908636       -24.7253
  27   2.0000      -0.907530       -24.6952
  28   2.0000      -0.871811       -23.7232
  29   2.0000      -0.849294       -23.1105
  30   2.0000      -0.841313       -22.8933
  31   2.0000      -0.813408       -22.1340
  32   2.0000      -0.781288       -21.2599
  33   2.0000      -0.771457       -20.9924
  34   2.0000      -0.709667       -19.3110
  35   2.0000      -0.700159       -19.0523
  36   2.0000      -0.697414       -18.9776
  37   2.0000      -0.653674       -17.7874
  38   2.0000      -0.639386       -17.3986
  39   2.0000      -0.624739       -17.0000
  40   2.0000      -0.592318       -16.1178
  41   2.0000      -0.567341       -15.4381
  42   2.0000      -0.563167       -15.3246
  43   2.0000      -0.547629       -14.9017
  44   2.0000      -0.536652       -14.6030
  45   2.0000      -0.524660       -14.2767
  46   2.0000      -0.516422       -14.0526
  47   2.0000      -0.514002       -13.9867
  48   2.0000      -0.510706       -13.8970
  49   2.0000      -0.499399       -13.5893
  50   2.0000      -0.489126       -13.3098
  51   2.0000      -0.482138       -13.1196
  52   2.0000      -0.475684       -12.9440
  53   2.0000      -0.465241       -12.6598
  54   2.0000      -0.459313       -12.4985
  55   2.0000      -0.442317       -12.0361
  56   2.0000      -0.439520       -11.9599
  57   2.0000      -0.438304       -11.9269
  58   2.0000      -0.435223       -11.8430
  59   2.0000      -0.423414       -11.5217
  60   2.0000      -0.416691       -11.3388
  61   2.0000      -0.409400       -11.1403
  62   2.0000      -0.408467       -11.1149
  63   2.0000      -0.341748        -9.2994
  64   2.0000      -0.328033        -8.9262
  65   2.0000      -0.327411        -8.9093
  66   2.0000      -0.300357        -8.1731
  67   0.0000       0.030702         0.8354
  68   0.0000       0.068274         1.8578
  69   0.0000       0.115830         3.1519
  70   0.0000       0.119782         3.2594
  71   0.0000       0.125217         3.4073

MULLIKEN ATOMIC CHARGES
-----------------------
   0 S :    0.095719
   1 C :   -0.135454
   2 C :   -0.023749
   3 C :    0.005370
   4 C :   -0.159177
   5 H :    0.031571
   6 C :    0.043254
   7 H :    0.021143
   8 H :    0.033618
   9 C :   -0.077198
  10 H :    0.020087
  11 H :    0.023312
  12 C :   -0.042513
  13 H :    0.036940
  14 H :    0.013947
  15 H :    0.034892
  16 S :    0.138338
  17 C :   -0.105758
  18 C :   -0.098204
  19 C :   -0.050358
  20 C :   -0.155947
  21 H :    0.046263
  22 C :    0.105867
  23 H :    0.017694
  24 H :    0.024019
  25 C :   -0.085105
  26 H :    0.027896
  27 H :    0.040243
  28 C :   -0.070282
  29 H :    0.023047
  30 H :    0.042199
  31 H :    0.046470
  32 H :    0.056781
  33 H :    0.075075
Sum of atomic charges:    0.0000000

LOEWDIN ATOMIC CHARGES
----------------------
   0 S :    0.371375
   1 C :   -0.184596
   2 C :   -0.068471
   3 C :   -0.052815
   4 C :   -0.182211
   5 H :    0.036783
   6 C :   -0.032371
   7 H :    0.024130
   8 H :    0.038251
   9 C :   -0.037720
  10 H :    0.019434
  11 H :    0.021017
  12 C :   -0.075215
  13 H :    0.028120
  14 H :    0.027276
  15 H :    0.026683
  16 S :    0.459520
  17 C :   -0.219652
  18 C :   -0.085940
  19 C :   -0.051842
  20 C :   -0.231083
  21 H :    0.038617
  22 C :   -0.020396
  23 H :    0.021521
  24 H :    0.026554
  25 C :   -0.041175
  26 H :    0.018926
  27 H :    0.033330
  28 C :   -0.078192
  29 H :    0.022816
  30 H :    0.030002
  31 H :    0.036031
  32 H :    0.037727
  33 H :    0.043565

  Mayer bond orders larger than 0.100000
B(  0-S ,  1-C ) :   1.1132 B(  0-S ,  4-C ) :   1.1247 B(  1-C ,  2-C ) :   1.6372
B(  1-C , 32-H ) :   0.9674 B(  2-C ,  3-C ) :   1.2073 B(  2-C ,  6-C ) :   1.0253
B(  3-C ,  4-C ) :   1.6014 B(  3-C ,  5-H ) :   0.9876 B(  4-C , 20-C ) :   1.0476
B(  6-C ,  7-H ) :   0.9515 B(  6-C ,  8-H ) :   0.9416 B(  6-C ,  9-C ) :   1.0719
B(  9-C , 10-H ) :   0.9575 B(  9-C , 11-H ) :   0.9603 B(  9-C , 12-C ) :   1.0643
B( 12-C , 13-H ) :   0.9760 B( 12-C , 14-H ) :   0.9741 B( 12-C , 15-H ) :   0.9783
B( 16-S , 17-C ) :   1.1910 B( 16-S , 20-C ) :   1.1638 B( 17-C , 18-C ) :   1.5699
B( 17-C , 20-C ) :   0.1044 B( 17-C , 33-H ) :   0.9582 B( 18-C , 19-C ) :   1.2852
B( 18-C , 21-H ) :   0.9771 B( 19-C , 20-C ) :   1.5515 B( 19-C , 22-C ) :   1.0299
B( 22-C , 23-H ) :   0.9346 B( 22-C , 24-H ) :   0.9335 B( 22-C , 25-C ) :   1.0649
B( 25-C , 26-H ) :   0.9566 B( 25-C , 27-H ) :   0.9568 B( 25-C , 28-C ) :   1.0756
B( 28-C , 29-H ) :   0.9727 B( 28-C , 30-H ) :   0.9737 B( 28-C , 31-H ) :   0.9723

Dispersion correction           -0.014387521
FINAL SINGLE POINT ENERGY     -1339.863966737507

DIPOLE MOMENT
-------------
                                X             Y             Z
Electronic contribution:     -7.24648     -14.09370     -25.78729
Nuclear contribution   :      7.53490      14.70780      26.18884
                        -----------------------------------------
Total Dipole Moment    :      0.28842       0.61409       0.40156
                        -----------------------------------------
Magnitude (a.u.)       :      0.78838
Magnitude (Debye)      :      2.00390

Rotational constants in cm-1:     0.016203     0.010076     0.007147
Rotational constants in MHz :   485.754936   302.081501   214.251515

                             ****ORCA TERMINATED NORMALLY****
TOTAL RUN TIME: 0 days 0 hours 0 minutes 20 seconds 978 msec
