                         Program Version 4.2.1 -  RELEASE  -
|  1> ! wB97X-D3 SP def2-SVP
|  2> %pal
|  3> nprocs 24
|  4> end
|  5>
|  6> * xyz 0 1
|  7> S 	 -82.5655 	 -40.5333 	 -77.208
|  8> C 	 -83.1272 	 -41.7376 	 -78.2809
|  9> C 	 -83.9504 	 -42.6534 	 -77.5655
| 10> C 	 -84.2185 	 -42.2024 	 -76.2674
| 11> C 	 -83.5279 	 -41.0724 	 -75.9156
| 12> H 	 -84.9224 	 -42.6857 	 -75.6475
| 13> C 	 -84.5007 	 -43.9302 	 -78.2014
| 14> H 	 -83.9424 	 -44.7539 	 -77.7484
| 15> H 	 -84.2407 	 -43.9623 	 -79.3125
| 16> C 	 -86.0639 	 -44.2131 	 -78.0194
| 17> H 	 -86.2941 	 -45.1774 	 -78.475
| 18> H 	 -86.3257 	 -44.3932 	 -76.9397
| 19> C 	 -86.9369 	 -43.0875 	 -78.6237
| 20> H 	 -86.4677 	 -42.8298 	 -79.5845
| 21> H 	 -88.0314 	 -43.3724 	 -78.6166
| 22> H 	 -86.9461 	 -42.1659 	 -78.0395
| 23> S 	 -83.6556 	 -38.5975 	 -74.6527
| 24> C 	 -83.376 	 -38.441 	 -72.9329
| 25> C 	 -83.4613 	 -39.6666 	 -72.2873
| 26> C 	 -83.6422 	 -40.7432 	 -73.2699
| 27> C 	 -83.4518 	 -40.3535 	 -74.6281
| 28> H 	 -83.4216 	 -39.8148 	 -71.2472
| 29> C 	 -83.9537 	 -42.2028 	 -72.8817
| 30> H 	 -83.6143 	 -42.932 	 -73.6399
| 31> H 	 -85.042 	 -42.2745 	 -72.8487
| 32> C 	 -83.3941 	 -42.674 	 -71.554
| 33> H 	 -83.5497 	 -43.8031 	 -71.538
| 34> H 	 -83.9516 	 -42.2501 	 -70.7307
| 35> C 	 -81.9181 	 -42.3585 	 -71.3381
| 36> H 	 -81.8092 	 -41.3059 	 -71.0216
| 37> H 	 -81.2695 	 -42.6683 	 -72.206
| 38> H 	 -81.6535 	 -42.7743 	 -70.3476
| 39> H 	 -82.8787 	 -41.8792 	 -79.263
| 40> H 	 -83.2361 	 -37.5725 	 -72.2843
| 41> *
| 42>
| 43>                          ****END OF INPUT****

CARTESIAN COORDINATES (ANGSTROEM)
---------------------------------
  S    -82.565500  -40.533300  -77.208000
  C    -83.127200  -41.737600  -78.280900
  C    -83.950400  -42.653400  -77.565500
  C    -84.218500  -42.202400  -76.267400
  C    -83.527900  -41.072400  -75.915600
  H    -84.922400  -42.685700  -75.647500
  C    -84.500700  -43.930200  -78.201400
  H    -83.942400  -44.753900  -77.748400
  H    -84.240700  -43.962300  -79.312500
  C    -86.063900  -44.213100  -78.019400
  H    -86.294100  -45.177400  -78.475000
  H    -86.325700  -44.393200  -76.939700
  C    -86.936900  -43.087500  -78.623700
  H    -86.467700  -42.829800  -79.584500
  H    -88.031400  -43.372400  -78.616600
  H    -86.946100  -42.165900  -78.039500
  S    -83.655600  -38.597500  -74.652700
  C    -83.376000  -38.441000  -72.932900
  C    -83.461300  -39.666600  -72.287300
  C    -83.642200  -40.743200  -73.269900
  C    -83.451800  -40.353500  -74.628100
  H    -83.421600  -39.814800  -71.247200
  C    -83.953700  -42.202800  -72.881700
  H    -83.614300  -42.932000  -73.639900
  H    -85.042000  -42.274500  -72.848700
  C    -83.394100  -42.674000  -71.554000
  H    -83.549700  -43.803100  -71.538000
  H    -83.951600  -42.250100  -70.730700
  C    -81.918100  -42.358500  -71.338100
  H    -81.809200  -41.305900  -71.021600
  H    -81.269500  -42.668300  -72.206000
  H    -81.653500  -42.774300  -70.347600
  H    -82.878700  -41.879200  -79.263000
  H    -83.236100  -37.572500  -72.284300

 Total Charge           Charge          ....    0
 Multiplicity           Mult            ....    1
 Number of Electrons    NEL             ....  134
 Basis Dimension        Dim             ....  322

ORBITAL ENERGIES
----------------

  NO   OCC          E(Eh)            E(eV)
   0   2.0000     -88.968246     -2420.9491
   1   2.0000     -88.964389     -2420.8441
   2   2.0000     -10.331442      -281.1328
   3   2.0000     -10.328025      -281.0398
   4   2.0000     -10.320137      -280.8252
   5   2.0000     -10.311948      -280.6024
   6   2.0000     -10.307975      -280.4942
   7   2.0000     -10.304041      -280.3872
   8   2.0000     -10.302458      -280.3441
   9   2.0000     -10.297320      -280.2043
  10   2.0000     -10.296687      -280.1871
  11   2.0000     -10.291822      -280.0547
  12   2.0000     -10.288437      -279.9626
  13   2.0000     -10.287949      -279.9493
  14   2.0000     -10.282364      -279.7974
  15   2.0000     -10.281071      -279.7622
  16   2.0000      -8.084259      -219.9839
  17   2.0000      -8.078642      -219.8310
  18   2.0000      -6.042527      -164.4255
  19   2.0000      -6.038381      -164.3127
  20   2.0000      -6.037346      -164.2845
  21   2.0000      -6.035383      -164.2311
  22   2.0000      -6.033358      -164.1760
  23   2.0000      -6.029056      -164.0590
  24   2.0000      -1.012545       -27.5528
  25   2.0000      -0.982844       -26.7445
  26   2.0000      -0.909480       -24.7482
  27   2.0000      -0.903031       -24.5727
  28   2.0000      -0.867343       -23.6016
  29   2.0000      -0.850697       -23.1486
  30   2.0000      -0.836646       -22.7663
  31   2.0000      -0.818312       -22.2674
  32   2.0000      -0.783146       -21.3105
  33   2.0000      -0.770486       -20.9660
  34   2.0000      -0.708652       -19.2834
  35   2.0000      -0.694525       -18.8990
  36   2.0000      -0.686632       -18.6842
  37   2.0000      -0.654083       -17.7985
  38   2.0000      -0.643142       -17.5008
  39   2.0000      -0.629257       -17.1229
  40   2.0000      -0.592004       -16.1093
  41   2.0000      -0.571214       -15.5435
  42   2.0000      -0.563251       -15.3268
  43   2.0000      -0.553989       -15.0748
  44   2.0000      -0.532579       -14.4922
  45   2.0000      -0.528277       -14.3752
  46   2.0000      -0.517848       -14.0914
  47   2.0000      -0.512878       -13.9561
  48   2.0000      -0.508803       -13.8452
  49   2.0000      -0.494873       -13.4662
  50   2.0000      -0.488708       -13.2984
  51   2.0000      -0.477062       -12.9815
  52   2.0000      -0.473297       -12.8791
  53   2.0000      -0.471434       -12.8284
  54   2.0000      -0.455475       -12.3941
  55   2.0000      -0.451015       -12.2727
  56   2.0000      -0.440937       -11.9985
  57   2.0000      -0.434251       -11.8166
  58   2.0000      -0.427255       -11.6262
  59   2.0000      -0.422362       -11.4931
  60   2.0000      -0.419846       -11.4246
  61   2.0000      -0.415526       -11.3070
  62   2.0000      -0.406599       -11.0641
  63   2.0000      -0.349667        -9.5149
  64   2.0000      -0.332657        -9.0521
  65   2.0000      -0.322270        -8.7694
  66   2.0000      -0.288151        -7.8410
  67   0.0000       0.023906         0.6505
  68   0.0000       0.076857         2.0914
  69   0.0000       0.104846         2.8530
  70   0.0000       0.123127         3.3504
  71   0.0000       0.136115         3.7039

MULLIKEN ATOMIC CHARGES
-----------------------
   0 S :    0.137255
   1 C :   -0.078147
   2 C :   -0.110803
   3 C :    0.030436
   4 C :   -0.139857
   5 H :   -0.008091
   6 C :    0.029555
   7 H :    0.044596
   8 H :    0.033666
   9 C :   -0.093254
  10 H :    0.032558
  11 H :    0.031983
  12 C :   -0.059905
  13 H :    0.034923
  14 H :    0.046887
  15 H :    0.038965
  16 S :    0.097770
  17 C :   -0.066929
  18 C :   -0.024189
  19 C :   -0.076650
  20 C :   -0.122742
  21 H :    0.008039
  22 C :    0.047268
  23 H :    0.038382
  24 H :    0.044022
  25 C :   -0.107712
  26 H :    0.038827
  27 H :    0.021999
  28 C :   -0.043036
  29 H :    0.018092
  30 H :    0.061891
  31 H :    0.024959
  32 H :    0.010656
  33 H :    0.058587
Sum of atomic charges:    0.0000000

LOEWDIN ATOMIC CHARGES
----------------------
   0 S :    0.462217
   1 C :   -0.204337
   2 C :   -0.059820
   3 C :   -0.065909
   4 C :   -0.211698
   5 H :    0.024102
   6 C :   -0.036301
   7 H :    0.034626
   8 H :    0.034973
   9 C :   -0.046741
  10 H :    0.024329
  11 H :    0.023558
  12 C :   -0.074139
  13 H :    0.027723
  14 H :    0.034612
  15 H :    0.026803
  16 S :    0.396730
  17 C :   -0.186820
  18 C :   -0.068907
  19 C :   -0.045029
  20 C :   -0.200710
  21 H :    0.022174
  22 C :   -0.042764
  23 H :    0.033240
  24 H :    0.035290
  25 C :   -0.052589
  26 H :    0.032302
  27 H :    0.018438
  28 C :   -0.074924
  29 H :    0.026150
  30 H :    0.037109
  31 H :    0.029684
  32 H :    0.009373
  33 H :    0.037255

  Mayer bond orders larger than 0.100000
B(  0-S ,  1-C ) :   1.1691 B(  0-S ,  4-C ) :   1.1957 B(  1-C ,  2-C ) :   1.5406
B(  1-C ,  4-C ) :   0.1074 B(  1-C , 32-H ) :   0.9818 B(  2-C ,  3-C ) :   1.2989
B(  2-C ,  6-C ) :   1.0179 B(  3-C ,  4-C ) :   1.5093 B(  3-C ,  5-H ) :   1.0073
B(  4-C , 20-C ) :   1.0269 B(  6-C ,  7-H ) :   0.9364 B(  6-C ,  8-H ) :   0.9475
B(  6-C ,  9-C ) :   1.0678 B(  9-C , 10-H ) :   0.9578 B(  9-C , 11-H ) :   0.9538
B(  9-C , 12-C ) :   1.0654 B( 12-C , 13-H ) :   0.9764 B( 12-C , 14-H ) :   0.9743
B( 12-C , 15-H ) :   0.9732 B( 16-S , 17-C ) :   1.1522 B( 16-S , 20-C ) :   1.1258
B( 17-C , 18-C ) :   1.6036 B( 17-C , 33-H ) :   0.9623 B( 18-C , 19-C ) :   1.2368
B( 18-C , 21-H ) :   0.9901 B( 19-C , 20-C ) :   1.5876 B( 19-C , 22-C ) :   1.0320
B( 22-C , 23-H ) :   0.9391 B( 22-C , 24-H ) :   0.9287 B( 22-C , 25-C ) :   1.0812
B( 25-C , 26-H ) :   0.9557 B( 25-C , 27-H ) :   0.9439 B( 25-C , 28-C ) :   1.0962
B( 28-C , 29-H ) :   0.9631 B( 28-C , 30-H ) :   0.9731 B( 28-C , 31-H ) :   0.9657

Dispersion correction           -0.014470372
FINAL SINGLE POINT ENERGY     -1339.867380916733

DIPOLE MOMENT
-------------
                                X             Y             Z
Electronic contribution:      8.84376      21.41134      -5.62078
Nuclear contribution   :     -9.14112     -22.02219       5.93164
                        -----------------------------------------
Total Dipole Moment    :     -0.29736      -0.61085       0.31086
                        -----------------------------------------
Magnitude (a.u.)       :      0.74713
Magnitude (Debye)      :      1.89905

Rotational constants in cm-1:     0.019704     0.008329     0.006941
Rotational constants in MHz :   590.723776   249.694292   208.081621

                             ****ORCA TERMINATED NORMALLY****
TOTAL RUN TIME: 0 days 0 hours 0 minutes 21 seconds 939 msec
