                         Program Version 4.2.1 -  RELEASE  -
|  1> ! wB97X-D3 SP def2-SVP
|  2> %pal
|  3> nprocs 24
|  4> end
|  5>
|  6> * xyz 0 1
|  7> S 	 -122.346 	 58.5462 	 -35.7065
|  8> C 	 -123.709 	 59.6482 	 -35.9072
|  9> C 	 -123.229 	 60.9269 	 -35.9802
| 10> C 	 -121.81 	 61.0638 	 -35.9088
| 11> C 	 -121.259 	 59.8803 	 -35.6093
| 12> H 	 -121.139 	 61.9646 	 -35.9571
| 13> C 	 -124.13 	 62.1189 	 -36.1299
| 14> H 	 -123.975 	 62.8454 	 -35.3171
| 15> H 	 -125.102 	 61.7446 	 -35.9932
| 16> C 	 -124.085 	 62.8541 	 -37.4913
| 17> H 	 -124.596 	 63.8275 	 -37.6071
| 18> H 	 -123.011 	 63.0679 	 -37.5646
| 19> C 	 -124.572 	 62.0142 	 -38.6655
| 20> H 	 -123.801 	 61.4172 	 -39.1004
| 21> H 	 -125.416 	 61.4471 	 -38.3552
| 22> H 	 -124.916 	 62.6724 	 -39.4553
| 23> S 	 -119.284 	 58.2238 	 -36.5669
| 24> C 	 -117.642 	 58.4628 	 -36.1123
| 25> C 	 -117.455 	 59.6571 	 -35.3559
| 26> C 	 -118.742 	 60.306 	 -35.1294
| 27> C 	 -119.86 	 59.5938 	 -35.6303
| 28> H 	 -116.48 	 59.781 	 -34.9257
| 29> C 	 -118.777 	 61.5829 	 -34.2645
| 30> H 	 -117.928 	 61.4965 	 -33.5781
| 31> H 	 -119.702 	 61.6115 	 -33.7437
| 32> C 	 -118.675 	 62.9512 	 -34.9984
| 33> H 	 -119.5 	 63.2262 	 -35.653
| 34> H 	 -117.876 	 63.0525 	 -35.762
| 35> C 	 -118.469 	 64.1136 	 -34.0277
| 36> H 	 -118.119 	 65.0319 	 -34.5274
| 37> H 	 -117.659 	 63.9347 	 -33.3278
| 38> H 	 -119.403 	 64.4543 	 -33.4164
| 39> H 	 -124.788 	 59.4469 	 -35.9156
| 40> H 	 -116.789 	 57.9043 	 -36.4595
| 41> *
| 42>
| 43>                          ****END OF INPUT****

CARTESIAN COORDINATES (ANGSTROEM)
---------------------------------
  S    -122.346000   58.546200  -35.706500
  C    -123.709000   59.648200  -35.907200
  C    -123.229000   60.926900  -35.980200
  C    -121.810000   61.063800  -35.908800
  C    -121.259000   59.880300  -35.609300
  H    -121.139000   61.964600  -35.957100
  C    -124.130000   62.118900  -36.129900
  H    -123.975000   62.845400  -35.317100
  H    -125.102000   61.744600  -35.993200
  C    -124.085000   62.854100  -37.491300
  H    -124.596000   63.827500  -37.607100
  H    -123.011000   63.067900  -37.564600
  C    -124.572000   62.014200  -38.665500
  H    -123.801000   61.417200  -39.100400
  H    -125.416000   61.447100  -38.355200
  H    -124.916000   62.672400  -39.455300
  S    -119.284000   58.223800  -36.566900
  C    -117.642000   58.462800  -36.112300
  C    -117.455000   59.657100  -35.355900
  C    -118.742000   60.306000  -35.129400
  C    -119.860000   59.593800  -35.630300
  H    -116.480000   59.781000  -34.925700
  C    -118.777000   61.582900  -34.264500
  H    -117.928000   61.496500  -33.578100
  H    -119.702000   61.611500  -33.743700
  C    -118.675000   62.951200  -34.998400
  H    -119.500000   63.226200  -35.653000
  H    -117.876000   63.052500  -35.762000
  C    -118.469000   64.113600  -34.027700
  H    -118.119000   65.031900  -34.527400
  H    -117.659000   63.934700  -33.327800
  H    -119.403000   64.454300  -33.416400
  H    -124.788000   59.446900  -35.915600
  H    -116.789000   57.904300  -36.459500

 Total Charge           Charge          ....    0
 Multiplicity           Mult            ....    1
 Number of Electrons    NEL             ....  134
 Basis Dimension        Dim             ....  322

ORBITAL ENERGIES
----------------

  NO   OCC          E(Eh)            E(eV)
   0   2.0000     -88.968395     -2420.9531
   1   2.0000     -88.967086     -2420.9175
   2   2.0000     -10.327648      -281.0296
   3   2.0000     -10.323882      -280.9271
   4   2.0000     -10.317515      -280.7538
   5   2.0000     -10.316196      -280.7180
   6   2.0000     -10.311578      -280.5923
   7   2.0000     -10.299903      -280.2746
   8   2.0000     -10.299370      -280.2601
   9   2.0000     -10.295563      -280.1565
  10   2.0000     -10.294399      -280.1248
  11   2.0000     -10.292868      -280.0832
  12   2.0000     -10.285945      -279.8948
  13   2.0000     -10.285687      -279.8878
  14   2.0000     -10.285359      -279.8788
  15   2.0000     -10.267121      -279.3826
  16   2.0000      -8.083138      -219.9534
  17   2.0000      -8.082272      -219.9298
  18   2.0000      -6.041628      -164.4011
  19   2.0000      -6.040904      -164.3814
  20   2.0000      -6.037471      -164.2879
  21   2.0000      -6.036800      -164.2697
  22   2.0000      -6.034085      -164.1958
  23   2.0000      -6.032769      -164.1600
  24   2.0000      -1.015793       -27.6411
  25   2.0000      -0.983146       -26.7528
  26   2.0000      -0.914185       -24.8762
  27   2.0000      -0.905993       -24.6533
  28   2.0000      -0.872590       -23.7444
  29   2.0000      -0.854220       -23.2445
  30   2.0000      -0.845187       -22.9987
  31   2.0000      -0.817540       -22.2464
  32   2.0000      -0.783464       -21.3191
  33   2.0000      -0.770970       -20.9792
  34   2.0000      -0.711514       -19.3613
  35   2.0000      -0.700131       -19.0515
  36   2.0000      -0.692442       -18.8423
  37   2.0000      -0.662501       -18.0276
  38   2.0000      -0.640351       -17.4248
  39   2.0000      -0.621743       -16.9185
  40   2.0000      -0.592320       -16.1178
  41   2.0000      -0.568364       -15.4660
  42   2.0000      -0.560012       -15.2387
  43   2.0000      -0.552546       -15.0355
  44   2.0000      -0.547478       -14.8976
  45   2.0000      -0.521604       -14.1936
  46   2.0000      -0.519213       -14.1285
  47   2.0000      -0.512863       -13.9557
  48   2.0000      -0.507979       -13.8228
  49   2.0000      -0.504459       -13.7270
  50   2.0000      -0.491036       -13.3618
  51   2.0000      -0.480371       -13.0716
  52   2.0000      -0.470676       -12.8077
  53   2.0000      -0.465942       -12.6789
  54   2.0000      -0.456012       -12.4087
  55   2.0000      -0.451976       -12.2989
  56   2.0000      -0.440894       -11.9973
  57   2.0000      -0.438793       -11.9402
  58   2.0000      -0.435647       -11.8545
  59   2.0000      -0.424140       -11.5414
  60   2.0000      -0.416099       -11.3226
  61   2.0000      -0.413613       -11.2550
  62   2.0000      -0.412218       -11.2170
  63   2.0000      -0.357070        -9.7164
  64   2.0000      -0.332577        -9.0499
  65   2.0000      -0.329669        -8.9707
  66   2.0000      -0.288049        -7.8382
  67   0.0000       0.025770         0.7012
  68   0.0000       0.074130         2.0172
  69   0.0000       0.108831         2.9614
  70   0.0000       0.114157         3.1064
  71   0.0000       0.130212         3.5432

MULLIKEN ATOMIC CHARGES
-----------------------
   0 S :    0.098630
   1 C :   -0.112032
   2 C :   -0.096368
   3 C :    0.008229
   4 C :   -0.121854
   5 H :    0.018781
   6 C :    0.095453
   7 H :    0.035923
   8 H :   -0.011534
   9 C :   -0.096714
  10 H :    0.037259
  11 H :    0.021037
  12 C :   -0.021412
  13 H :    0.039295
  14 H :    0.016740
  15 H :    0.022636
  16 S :    0.118104
  17 C :   -0.106373
  18 C :   -0.041567
  19 C :   -0.047745
  20 C :   -0.131255
  21 H :    0.026447
  22 C :    0.085389
  23 H :    0.026863
  24 H :    0.025715
  25 C :   -0.076040
  26 H :    0.031247
  27 H :    0.025751
  28 C :   -0.086944
  29 H :    0.030455
  30 H :    0.026394
  31 H :    0.046416
  32 H :    0.054107
  33 H :    0.058970
Sum of atomic charges:   -0.0000000

LOEWDIN ATOMIC CHARGES
----------------------
   0 S :    0.405808
   1 C :   -0.195882
   2 C :   -0.060182
   3 C :   -0.066549
   4 C :   -0.193227
   5 H :    0.043655
   6 C :   -0.029325
   7 H :    0.034256
   8 H :    0.014425
   9 C :   -0.044905
  10 H :    0.028226
  11 H :    0.021444
  12 C :   -0.060694
  13 H :    0.025715
  14 H :    0.018905
  15 H :    0.026661
  16 S :    0.421068
  17 C :   -0.199169
  18 C :   -0.072870
  19 C :   -0.053924
  20 C :   -0.202416
  21 H :    0.032085
  22 C :   -0.024807
  23 H :    0.034165
  24 H :    0.027568
  25 C :   -0.049766
  26 H :    0.020968
  27 H :    0.028642
  28 C :   -0.077954
  29 H :    0.027633
  30 H :    0.020934
  31 H :    0.033422
  32 H :    0.037323
  33 H :    0.028770

  Mayer bond orders larger than 0.100000
B(  0-S ,  1-C ) :   1.1090 B(  0-S ,  4-C ) :   1.1425 B(  1-C ,  2-C ) :   1.6421
B(  1-C , 32-H ) :   0.9634 B(  2-C ,  3-C ) :   1.1990 B(  2-C ,  6-C ) :   1.0313
B(  3-C ,  4-C ) :   1.5971 B(  3-C ,  5-H ) :   0.9806 B(  4-C , 20-C ) :   1.0581
B(  6-C ,  7-H ) :   0.9416 B(  6-C ,  8-H ) :   0.9372 B(  6-C ,  9-C ) :   1.0598
B(  9-C , 10-H ) :   0.9639 B(  9-C , 11-H ) :   0.9597 B(  9-C , 12-C ) :   1.0702
B( 12-C , 13-H ) :   0.9752 B( 12-C , 14-H ) :   0.9771 B( 12-C , 15-H ) :   0.9761
B( 16-S , 17-C ) :   1.1754 B( 16-S , 20-C ) :   1.1384 B( 17-C , 18-C ) :   1.5929
B( 17-C , 20-C ) :   0.1006 B( 17-C , 33-H ) :   0.9658 B( 18-C , 19-C ) :   1.2484
B( 18-C , 21-H ) :   0.9919 B( 19-C , 20-C ) :   1.5734 B( 19-C , 22-C ) :   1.0491
B( 22-C , 23-H ) :   0.9414 B( 22-C , 24-H ) :   0.9349 B( 22-C , 25-C ) :   1.0501
B( 25-C , 26-H ) :   0.9451 B( 25-C , 27-H ) :   0.9512 B( 25-C , 28-C ) :   1.0845
B( 28-C , 29-H ) :   0.9730 B( 28-C , 30-H ) :   0.9745 B( 28-C , 31-H ) :   0.9748

Dispersion correction           -0.014228468
FINAL SINGLE POINT ENERGY     -1339.868746892251

DIPOLE MOMENT
-------------
                                X             Y             Z
Electronic contribution:      4.10082     -28.06165       0.49057
Nuclear contribution   :     -4.00308      28.68753      -0.48746
                        -----------------------------------------
Total Dipole Moment    :      0.09774       0.62588       0.00312
                        -----------------------------------------
Magnitude (a.u.)       :      0.63347
Magnitude (Debye)      :      1.61016

Rotational constants in cm-1:     0.016800     0.009646     0.006949
Rotational constants in MHz :   503.651585   289.171058   208.315619

                             ****ORCA TERMINATED NORMALLY****
TOTAL RUN TIME: 0 days 0 hours 0 minutes 20 seconds 659 msec
