                         Program Version 4.2.1 -  RELEASE  -
|  1> ! wB97X-D3 SP def2-SVP
|  2> %pal
|  3> nprocs 24
|  4> end
|  5>
|  6> * xyz 0 1
|  7> S 	 -53.8438 	 17.3165 	 -84.5785
|  8> C 	 -54.7897 	 16.5821 	 -85.8781
|  9> C 	 -55.2705 	 17.5987 	 -86.7259
| 10> C 	 -54.9872 	 18.9257 	 -86.2372
| 11> C 	 -54.2488 	 18.941 	 -85.0628
| 12> H 	 -55.5266 	 19.7083 	 -86.5936
| 13> C 	 -56.1222 	 17.4629 	 -87.9864
| 14> H 	 -55.4123 	 17.0812 	 -88.7349
| 15> H 	 -56.5049 	 18.4661 	 -88.2768
| 16> C 	 -57.2783 	 16.4653 	 -87.933
| 17> H 	 -57.0411 	 15.4455 	 -87.6268
| 18> H 	 -58.0721 	 16.8568 	 -87.1446
| 19> C 	 -58.0189 	 16.3465 	 -89.2508
| 20> H 	 -57.4755 	 15.8724 	 -90.0913
| 21> H 	 -58.9764 	 15.8281 	 -89.0963
| 22> H 	 -58.2163 	 17.4154 	 -89.6164
| 23> S 	 -54.0733 	 20.0799 	 -82.5483
| 24> C 	 -53.9837 	 21.8125 	 -82.4244
| 25> C 	 -53.7986 	 22.4049 	 -83.6278
| 26> C 	 -53.8502 	 21.4821 	 -84.7186
| 27> C 	 -53.9716 	 20.1183 	 -84.2667
| 28> H 	 -53.576 	 23.4772 	 -83.7013
| 29> C 	 -53.8416 	 22.0159 	 -86.152
| 30> H 	 -53.5386 	 21.2909 	 -86.9352
| 31> H 	 -53.0104 	 22.7997 	 -86.1672
| 32> C 	 -55.1582 	 22.7261 	 -86.5794
| 33> H 	 -55.4771 	 23.5361 	 -85.8995
| 34> H 	 -55.9668 	 21.992 	 -86.5373
| 35> C 	 -55.2705 	 23.2243 	 -87.9825
| 36> H 	 -56.188 	 23.7997 	 -88.1473
| 37> H 	 -55.4418 	 22.4255 	 -88.7292
| 38> H 	 -54.4915 	 23.8321 	 -88.4062
| 39> H 	 -54.8826 	 15.4627 	 -86.2733
| 40> H 	 -54.0503 	 22.4366 	 -81.496
| 41> *
| 42>
| 43>                          ****END OF INPUT****

CARTESIAN COORDINATES (ANGSTROEM)
---------------------------------
  S    -53.843800   17.316500  -84.578500
  C    -54.789700   16.582100  -85.878100
  C    -55.270500   17.598700  -86.725900
  C    -54.987200   18.925700  -86.237200
  C    -54.248800   18.941000  -85.062800
  H    -55.526600   19.708300  -86.593600
  C    -56.122200   17.462900  -87.986400
  H    -55.412300   17.081200  -88.734900
  H    -56.504900   18.466100  -88.276800
  C    -57.278300   16.465300  -87.933000
  H    -57.041100   15.445500  -87.626800
  H    -58.072100   16.856800  -87.144600
  C    -58.018900   16.346500  -89.250800
  H    -57.475500   15.872400  -90.091300
  H    -58.976400   15.828100  -89.096300
  H    -58.216300   17.415400  -89.616400
  S    -54.073300   20.079900  -82.548300
  C    -53.983700   21.812500  -82.424400
  C    -53.798600   22.404900  -83.627800
  C    -53.850200   21.482100  -84.718600
  C    -53.971600   20.118300  -84.266700
  H    -53.576000   23.477200  -83.701300
  C    -53.841600   22.015900  -86.152000
  H    -53.538600   21.290900  -86.935200
  H    -53.010400   22.799700  -86.167200
  C    -55.158200   22.726100  -86.579400
  H    -55.477100   23.536100  -85.899500
  H    -55.966800   21.992000  -86.537300
  C    -55.270500   23.224300  -87.982500
  H    -56.188000   23.799700  -88.147300
  H    -55.441800   22.425500  -88.729200
  H    -54.491500   23.832100  -88.406200
  H    -54.882600   15.462700  -86.273300
  H    -54.050300   22.436600  -81.496000

 Total Charge           Charge          ....    0
 Multiplicity           Mult            ....    1
 Number of Electrons    NEL             ....  134
 Basis Dimension        Dim             ....  322

ORBITAL ENERGIES
----------------

  NO   OCC          E(Eh)            E(eV)
   0   2.0000     -88.970832     -2421.0194
   1   2.0000     -88.969705     -2420.9887
   2   2.0000     -10.332939      -281.1736
   3   2.0000     -10.331678      -281.1392
   4   2.0000     -10.325335      -280.9667
   5   2.0000     -10.318705      -280.7862
   6   2.0000     -10.310767      -280.5702
   7   2.0000     -10.303226      -280.3650
   8   2.0000     -10.303131      -280.3625
   9   2.0000     -10.299204      -280.2556
  10   2.0000     -10.296602      -280.1848
  11   2.0000     -10.293902      -280.1113
  12   2.0000     -10.290835      -280.0278
  13   2.0000     -10.286251      -279.9031
  14   2.0000     -10.285797      -279.8908
  15   2.0000     -10.277744      -279.6716
  16   2.0000      -8.084912      -220.0016
  17   2.0000      -8.084812      -219.9989
  18   2.0000      -6.043564      -164.4537
  19   2.0000      -6.043428      -164.4500
  20   2.0000      -6.039314      -164.3381
  21   2.0000      -6.039302      -164.3378
  22   2.0000      -6.035668      -164.2389
  23   2.0000      -6.035489      -164.2340
  24   2.0000      -1.008157       -27.4333
  25   2.0000      -0.983432       -26.7606
  26   2.0000      -0.912478       -24.8298
  27   2.0000      -0.908178       -24.7128
  28   2.0000      -0.870960       -23.7000
  29   2.0000      -0.856086       -23.2953
  30   2.0000      -0.849206       -23.1081
  31   2.0000      -0.813733       -22.1428
  32   2.0000      -0.781313       -21.2606
  33   2.0000      -0.767436       -20.8830
  34   2.0000      -0.706351       -19.2208
  35   2.0000      -0.697046       -18.9676
  36   2.0000      -0.689328       -18.7576
  37   2.0000      -0.659762       -17.9530
  38   2.0000      -0.629094       -17.1185
  39   2.0000      -0.622369       -16.9355
  40   2.0000      -0.595988       -16.2176
  41   2.0000      -0.574647       -15.6369
  42   2.0000      -0.561125       -15.2690
  43   2.0000      -0.557237       -15.1632
  44   2.0000      -0.529065       -14.3966
  45   2.0000      -0.523855       -14.2548
  46   2.0000      -0.515573       -14.0295
  47   2.0000      -0.510869       -13.9015
  48   2.0000      -0.503372       -13.6974
  49   2.0000      -0.500874       -13.6295
  50   2.0000      -0.494113       -13.4455
  51   2.0000      -0.480537       -13.0761
  52   2.0000      -0.477214       -12.9856
  53   2.0000      -0.462104       -12.5745
  54   2.0000      -0.457607       -12.4521
  55   2.0000      -0.450707       -12.2644
  56   2.0000      -0.441817       -12.0225
  57   2.0000      -0.435504       -11.8507
  58   2.0000      -0.430931       -11.7262
  59   2.0000      -0.428728       -11.6663
  60   2.0000      -0.419639       -11.4190
  61   2.0000      -0.414141       -11.2694
  62   2.0000      -0.411226       -11.1900
  63   2.0000      -0.359788        -9.7903
  64   2.0000      -0.333267        -9.0686
  65   2.0000      -0.327243        -8.9047
  66   2.0000      -0.282855        -7.6969
  67   0.0000       0.020935         0.5697
  68   0.0000       0.080523         2.1911
  69   0.0000       0.104616         2.8467
  70   0.0000       0.121522         3.3068
  71   0.0000       0.125152         3.4056

MULLIKEN ATOMIC CHARGES
-----------------------
   0 S :    0.112810
   1 C :   -0.154803
   2 C :   -0.105218
   3 C :    0.040300
   4 C :   -0.110699
   5 H :   -0.041736
   6 C :    0.062638
   7 H :    0.043142
   8 H :    0.028167
   9 C :   -0.111183
  10 H :    0.029915
  11 H :    0.046360
  12 C :   -0.073465
  13 H :    0.039126
  14 H :    0.044706
  15 H :    0.027158
  16 S :    0.119485
  17 C :   -0.107395
  18 C :   -0.033399
  19 C :   -0.045355
  20 C :   -0.120778
  21 H :    0.030309
  22 C :    0.025877
  23 H :    0.037469
  24 H :    0.034938
  25 C :   -0.063137
  26 H :    0.033483
  27 H :    0.023316
  28 C :   -0.050134
  29 H :    0.027649
  30 H :    0.020714
  31 H :    0.026799
  32 H :    0.090294
  33 H :    0.072645
Sum of atomic charges:    0.0000000

LOEWDIN ATOMIC CHARGES
----------------------
   0 S :    0.406547
   1 C :   -0.232581
   2 C :   -0.059614
   3 C :   -0.060480
   4 C :   -0.185185
   5 H :    0.010544
   6 C :   -0.035588
   7 H :    0.038397
   8 H :    0.032814
   9 C :   -0.052186
  10 H :    0.020143
  11 H :    0.037253
  12 C :   -0.075094
  13 H :    0.024690
  14 H :    0.029671
  15 H :    0.028298
  16 S :    0.427595
  17 C :   -0.197836
  18 C :   -0.075528
  19 C :   -0.051350
  20 C :   -0.211913
  21 H :    0.038167
  22 C :   -0.039343
  23 H :    0.033241
  24 H :    0.037010
  25 C :   -0.046799
  26 H :    0.027848
  27 H :    0.024278
  28 C :   -0.073897
  29 H :    0.031438
  30 H :    0.025434
  31 H :    0.019647
  32 H :    0.060763
  33 H :    0.043621

  Mayer bond orders larger than 0.100000
B(  0-S ,  1-C ) :   1.1191 B(  0-S ,  4-C ) :   1.1538 B(  1-C ,  2-C ) :   1.6140
B(  1-C , 32-H ) :   0.9480 B(  2-C ,  3-C ) :   1.2672 B(  2-C ,  6-C ) :   1.0161
B(  3-C ,  4-C ) :   1.5405 B(  3-C ,  5-H ) :   1.0000 B(  4-C , 20-C ) :   1.0712
B(  6-C ,  7-H ) :   0.9290 B(  6-C ,  8-H ) :   0.9465 B(  6-C ,  9-C ) :   1.0691
B(  9-C , 10-H ) :   0.9516 B(  9-C , 11-H ) :   0.9546 B(  9-C , 12-C ) :   1.0823
B( 12-C , 13-H ) :   0.9738 B( 12-C , 14-H ) :   0.9731 B( 12-C , 15-H ) :   0.9722
B( 16-S , 17-C ) :   1.1574 B( 16-S , 20-C ) :   1.1482 B( 17-C , 18-C ) :   1.6078
B( 17-C , 33-H ) :   0.9579 B( 18-C , 19-C ) :   1.2662 B( 18-C , 21-H ) :   0.9848
B( 19-C , 20-C ) :   1.5415 B( 19-C , 22-C ) :   1.0487 B( 22-C , 23-H ) :   0.9388
B( 22-C , 24-H ) :   0.9326 B( 22-C , 25-C ) :   1.0557 B( 25-C , 26-H ) :   0.9537
B( 25-C , 27-H ) :   0.9492 B( 25-C , 28-C ) :   1.0910 B( 28-C , 29-H ) :   0.9690
B( 28-C , 30-H ) :   0.9718 B( 28-C , 31-H ) :   0.9746

Dispersion correction           -0.013846989
FINAL SINGLE POINT ENERGY     -1339.870012777377

DIPOLE MOMENT
-------------
                                X             Y             Z
Electronic contribution:     15.74935      -6.44685      28.11792
Nuclear contribution   :    -16.12587       6.84892     -28.66538
                        -----------------------------------------
Total Dipole Moment    :     -0.37652       0.40208      -0.54746
                        -----------------------------------------
Magnitude (a.u.)       :      0.77662
Magnitude (Debye)      :      1.97402

Rotational constants in cm-1:     0.017414     0.008680     0.006204
Rotational constants in MHz :   522.054870   260.217115   186.003841

                             ****ORCA TERMINATED NORMALLY****
TOTAL RUN TIME: 0 days 0 hours 0 minutes 21 seconds 486 msec
