                         Program Version 4.2.1 -  RELEASE  -
|  1> ! wB97X-D3 SP def2-SVP
|  2> %pal
|  3> nprocs 24
|  4> end
|  5>
|  6> * xyz 0 1
|  7> S 	 -119.216 	 60.724 	 -34.5122
|  8> C 	 -119.437 	 62.4548 	 -34.2767
|  9> C 	 -118.474 	 63.204 	 -35.0187
| 10> C 	 -117.571 	 62.3012 	 -35.7652
| 11> C 	 -117.738 	 60.9718 	 -35.5423
| 12> H 	 -116.779 	 62.5901 	 -36.4024
| 13> C 	 -118.267 	 64.7581 	 -34.9183
| 14> H 	 -117.296 	 65.0062 	 -34.485
| 15> H 	 -119.046 	 65.0244 	 -34.1485
| 16> C 	 -118.62 	 65.51 	 -36.2108
| 17> H 	 -118.402 	 66.5878 	 -36.0761
| 18> H 	 -117.93 	 65.175 	 -36.9819
| 19> C 	 -120.022 	 65.2171 	 -36.8539
| 20> H 	 -120.175 	 64.1707 	 -36.9695
| 21> H 	 -120.868 	 65.6372 	 -36.2098
| 22> H 	 -120.133 	 65.6195 	 -37.8256
| 23> S 	 -117.934 	 58.8359 	 -37.1775
| 24> C 	 -116.449 	 57.8646 	 -37.3852
| 25> C 	 -115.464 	 58.1896 	 -36.4736
| 26> C 	 -115.77 	 59.3178 	 -35.6659
| 27> C 	 -116.969 	 59.8265 	 -36.0471
| 28> H 	 -114.571 	 57.5481 	 -36.441
| 29> C 	 -114.832 	 59.9182 	 -34.6366
| 30> H 	 -114.515 	 59.1153 	 -33.9732
| 31> H 	 -115.338 	 60.567 	 -33.9413
| 32> C 	 -113.632 	 60.7301 	 -35.2165
| 33> H 	 -113.205 	 61.2818 	 -34.4232
| 34> H 	 -114.105 	 61.299 	 -36.0153
| 35> C 	 -112.614 	 59.8787 	 -35.8941
| 36> H 	 -111.795 	 60.4659 	 -36.2245
| 37> H 	 -112.911 	 59.222 	 -36.7158
| 38> H 	 -112.225 	 59.2141 	 -35.1538
| 39> H 	 -120.13 	 62.8708 	 -33.5743
| 40> H 	 -116.424 	 56.9903 	 -38.0207
| 41> *
| 42>
| 43>                          ****END OF INPUT****

CARTESIAN COORDINATES (ANGSTROEM)
---------------------------------
  S    -119.216000   60.724000  -34.512200
  C    -119.437000   62.454800  -34.276700
  C    -118.474000   63.204000  -35.018700
  C    -117.571000   62.301200  -35.765200
  C    -117.738000   60.971800  -35.542300
  H    -116.779000   62.590100  -36.402400
  C    -118.267000   64.758100  -34.918300
  H    -117.296000   65.006200  -34.485000
  H    -119.046000   65.024400  -34.148500
  C    -118.620000   65.510000  -36.210800
  H    -118.402000   66.587800  -36.076100
  H    -117.930000   65.175000  -36.981900
  C    -120.022000   65.217100  -36.853900
  H    -120.175000   64.170700  -36.969500
  H    -120.868000   65.637200  -36.209800
  H    -120.133000   65.619500  -37.825600
  S    -117.934000   58.835900  -37.177500
  C    -116.449000   57.864600  -37.385200
  C    -115.464000   58.189600  -36.473600
  C    -115.770000   59.317800  -35.665900
  C    -116.969000   59.826500  -36.047100
  H    -114.571000   57.548100  -36.441000
  C    -114.832000   59.918200  -34.636600
  H    -114.515000   59.115300  -33.973200
  H    -115.338000   60.567000  -33.941300
  C    -113.632000   60.730100  -35.216500
  H    -113.205000   61.281800  -34.423200
  H    -114.105000   61.299000  -36.015300
  C    -112.614000   59.878700  -35.894100
  H    -111.795000   60.465900  -36.224500
  H    -112.911000   59.222000  -36.715800
  H    -112.225000   59.214100  -35.153800
  H    -120.130000   62.870800  -33.574300
  H    -116.424000   56.990300  -38.020700

 Total Charge           Charge          ....    0
 Multiplicity           Mult            ....    1
 Number of Electrons    NEL             ....  134
 Basis Dimension        Dim             ....  322

ORBITAL ENERGIES
----------------

  NO   OCC          E(Eh)            E(eV)
   0   2.0000     -88.966374     -2420.8981
   1   2.0000     -88.961530     -2420.7663
   2   2.0000     -10.329758      -281.0870
   3   2.0000     -10.327142      -281.0158
   4   2.0000     -10.320062      -280.8232
   5   2.0000     -10.319814      -280.8164
   6   2.0000     -10.312696      -280.6227
   7   2.0000     -10.305723      -280.4330
   8   2.0000     -10.302113      -280.3348
   9   2.0000     -10.297739      -280.2157
  10   2.0000     -10.293936      -280.1122
  11   2.0000     -10.291113      -280.0354
  12   2.0000     -10.290411      -280.0163
  13   2.0000     -10.283957      -279.8407
  14   2.0000     -10.275711      -279.6163
  15   2.0000     -10.268132      -279.4101
  16   2.0000      -8.080349      -219.8775
  17   2.0000      -8.075259      -219.7390
  18   2.0000      -6.038785      -164.3237
  19   2.0000      -6.035287      -164.2285
  20   2.0000      -6.033880      -164.1902
  21   2.0000      -6.030879      -164.1086
  22   2.0000      -6.029952      -164.0833
  23   2.0000      -6.025904      -163.9732
  24   2.0000      -1.001036       -27.2396
  25   2.0000      -0.972059       -26.4511
  26   2.0000      -0.913372       -24.8541
  27   2.0000      -0.900105       -24.4931
  28   2.0000      -0.864453       -23.5230
  29   2.0000      -0.854532       -23.2530
  30   2.0000      -0.835303       -22.7298
  31   2.0000      -0.813885       -22.1469
  32   2.0000      -0.787048       -21.4167
  33   2.0000      -0.771251       -20.9868
  34   2.0000      -0.707321       -19.2472
  35   2.0000      -0.697008       -18.9666
  36   2.0000      -0.688515       -18.7355
  37   2.0000      -0.662088       -18.0163
  38   2.0000      -0.643843       -17.5199
  39   2.0000      -0.614219       -16.7137
  40   2.0000      -0.602138       -16.3850
  41   2.0000      -0.561926       -15.2908
  42   2.0000      -0.556494       -15.1430
  43   2.0000      -0.547978       -14.9112
  44   2.0000      -0.544351       -14.8126
  45   2.0000      -0.534831       -14.5535
  46   2.0000      -0.519831       -14.1453
  47   2.0000      -0.508654       -13.8412
  48   2.0000      -0.497039       -13.5251
  49   2.0000      -0.494745       -13.4627
  50   2.0000      -0.486559       -13.2399
  51   2.0000      -0.482948       -13.1417
  52   2.0000      -0.464262       -12.6332
  53   2.0000      -0.461284       -12.5522
  54   2.0000      -0.456548       -12.4233
  55   2.0000      -0.444860       -12.1053
  56   2.0000      -0.442801       -12.0492
  57   2.0000      -0.439725       -11.9655
  58   2.0000      -0.437632       -11.9086
  59   2.0000      -0.428165       -11.6509
  60   2.0000      -0.418047       -11.3756
  61   2.0000      -0.413639       -11.2557
  62   2.0000      -0.407337       -11.0842
  63   2.0000      -0.340940        -9.2775
  64   2.0000      -0.333320        -9.0701
  65   2.0000      -0.322954        -8.7880
  66   2.0000      -0.301172        -8.1953
  67   0.0000       0.038947         1.0598
  68   0.0000       0.052704         1.4342
  69   0.0000       0.100857         2.7445
  70   0.0000       0.122575         3.3354
  71   0.0000       0.123936         3.3725

MULLIKEN ATOMIC CHARGES
-----------------------
   0 S :    0.090633
   1 C :   -0.110238
   2 C :   -0.125796
   3 C :    0.064903
   4 C :   -0.160811
   5 H :   -0.000205
   6 C :    0.063951
   7 H :    0.048328
   8 H :    0.020302
   9 C :   -0.088571
  10 H :    0.038937
  11 H :    0.026435
  12 C :   -0.051816
  13 H :    0.040965
  14 H :    0.035386
  15 H :    0.027558
  16 S :    0.100413
  17 C :   -0.082557
  18 C :   -0.055207
  19 C :    0.007318
  20 C :   -0.200729
  21 H :    0.031688
  22 C :    0.068355
  23 H :    0.021014
  24 H :    0.022820
  25 C :   -0.026549
  26 H :    0.030667
  27 H :    0.028356
  28 C :   -0.036075
  29 H :    0.025041
  30 H :    0.035654
  31 H :    0.006064
  32 H :    0.051639
  33 H :    0.052126
Sum of atomic charges:   -0.0000000

LOEWDIN ATOMIC CHARGES
----------------------
   0 S :    0.361786
   1 C :   -0.191011
   2 C :   -0.059500
   3 C :   -0.059860
   4 C :   -0.176874
   5 H :    0.025263
   6 C :   -0.031908
   7 H :    0.033449
   8 H :    0.032449
   9 C :   -0.046827
  10 H :    0.027146
  11 H :    0.021885
  12 C :   -0.063051
  13 H :    0.024108
  14 H :    0.029903
  15 H :    0.021565
  16 S :    0.375212
  17 C :   -0.167412
  18 C :   -0.070814
  19 C :   -0.049714
  20 C :   -0.181093
  21 H :    0.036280
  22 C :   -0.027308
  23 H :    0.029521
  24 H :    0.030740
  25 C :   -0.026840
  26 H :    0.023704
  27 H :    0.026726
  28 C :   -0.066488
  29 H :    0.022968
  30 H :    0.027053
  31 H :    0.018795
  32 H :    0.025080
  33 H :    0.025067

  Mayer bond orders larger than 0.100000
B(  0-S ,  1-C ) :   1.1358 B(  0-S ,  4-C ) :   1.1107 B(  1-C ,  2-C ) :   1.6297
B(  1-C , 32-H ) :   0.9667 B(  2-C ,  3-C ) :   1.1841 B(  2-C ,  6-C ) :   1.0122
B(  3-C ,  4-C ) :   1.6571 B(  3-C ,  5-H ) :   0.9950 B(  4-C , 20-C ) :   1.0092
B(  6-C ,  7-H ) :   0.9507 B(  6-C ,  8-H ) :   0.9429 B(  6-C ,  9-C ) :   1.0581
B(  9-C , 10-H ) :   0.9589 B(  9-C , 11-H ) :   0.9584 B(  9-C , 12-C ) :   1.0708
B( 12-C , 13-H ) :   0.9718 B( 12-C , 14-H ) :   0.9767 B( 12-C , 15-H ) :   0.9751
B( 16-S , 17-C ) :   1.1282 B( 16-S , 20-C ) :   1.1352 B( 17-C , 18-C ) :   1.6550
B( 17-C , 33-H ) :   0.9667 B( 18-C , 19-C ) :   1.1904 B( 18-C , 21-H ) :   0.9799
B( 19-C , 20-C ) :   1.6494 B( 19-C , 22-C ) :   1.0507 B( 22-C , 23-H ) :   0.9317
B( 22-C , 24-H ) :   0.9267 B( 22-C , 25-C ) :   1.0656 B( 25-C , 26-H ) :   0.9541
B( 25-C , 27-H ) :   0.9505 B( 25-C , 28-C ) :   1.0942 B( 28-C , 29-H ) :   0.9683
B( 28-C , 30-H ) :   0.9685 B( 28-C , 31-H ) :   0.9711

Dispersion correction           -0.014705245
FINAL SINGLE POINT ENERGY     -1339.872608356890

DIPOLE MOMENT
-------------
                                X             Y             Z
Electronic contribution:    -13.36712     -17.84694       0.24282
Nuclear contribution   :     13.98657      18.11381      -0.13743
                        -----------------------------------------
Total Dipole Moment    :      0.61945       0.26687       0.10538
                        -----------------------------------------
Magnitude (a.u.)       :      0.68267
Magnitude (Debye)      :      1.73522

Rotational constants in cm-1:     0.019930     0.008114     0.006870
Rotational constants in MHz :   597.474504   243.249855   205.959605

                             ****ORCA TERMINATED NORMALLY****
TOTAL RUN TIME: 0 days 0 hours 0 minutes 20 seconds 284 msec
