                         Program Version 4.2.1 -  RELEASE  -
|  1> ! wB97X-D3 SP def2-SVP
|  2> %pal
|  3> nprocs 24
|  4> end
|  5>
|  6> * xyz 0 1
|  7> S 	 -83.7924 	 0.334793 	 -116.362
|  8> C 	 -83.6247 	 -1.41754 	 -116.324
|  9> C 	 -83.6157 	 -1.97463 	 -117.612
| 10> C 	 -83.736 	 -0.940836 	 -118.645
| 11> C 	 -83.8501 	 0.346379 	 -118.144
| 12> H 	 -83.7188 	 -1.07609 	 -119.742
| 13> C 	 -83.5232 	 -3.51172 	 -117.875
| 14> H 	 -83.1448 	 -3.92985 	 -116.871
| 15> H 	 -82.8198 	 -3.71355 	 -118.708
| 16> C 	 -84.7021 	 -4.4086 	 -118.273
| 17> H 	 -84.4108 	 -5.4432 	 -118.381
| 18> H 	 -85.369 	 -4.27604 	 -117.399
| 19> C 	 -85.3397 	 -3.92796 	 -119.603
| 20> H 	 -86.2792 	 -4.46241 	 -119.744
| 21> H 	 -85.595 	 -2.87829 	 -119.574
| 22> H 	 -84.6712 	 -4.12323 	 -120.459
| 23> S 	 -82.5139 	 2.55003 	 -119.227
| 24> C 	 -83.363 	 3.6015 	 -120.392
| 25> C 	 -84.7219 	 3.30087 	 -120.374
| 26> C 	 -85.0536 	 2.1146 	 -119.671
| 27> C 	 -83.934 	 1.56748 	 -118.992
| 28> H 	 -85.3565 	 3.81853 	 -121.03
| 29> C 	 -86.4816 	 1.56418 	 -119.597
| 30> H 	 -86.4721 	 0.49261 	 -119.513
| 31> H 	 -86.9498 	 1.87679 	 -120.541
| 32> C 	 -87.3817 	 1.98124 	 -118.446
| 33> H 	 -87.4599 	 3.0738 	 -118.433
| 34> H 	 -86.9089 	 1.71523 	 -117.534
| 35> C 	 -88.7574 	 1.38701 	 -118.467
| 36> H 	 -88.6073 	 0.257134 	 -118.511
| 37> H 	 -89.5271 	 1.73352 	 -119.213
| 38> H 	 -89.1925 	 1.67737 	 -117.508
| 39> H 	 -83.5557 	 -2.05546 	 -115.458
| 40> H 	 -83.057 	 4.44871 	 -120.986
| 41> *
| 42>
| 43>                          ****END OF INPUT****

CARTESIAN COORDINATES (ANGSTROEM)
---------------------------------
  S    -83.792400    0.334793  -116.362000
  C    -83.624700   -1.417540  -116.324000
  C    -83.615700   -1.974630  -117.612000
  C    -83.736000   -0.940836  -118.645000
  C    -83.850100    0.346379  -118.144000
  H    -83.718800   -1.076090  -119.742000
  C    -83.523200   -3.511720  -117.875000
  H    -83.144800   -3.929850  -116.871000
  H    -82.819800   -3.713550  -118.708000
  C    -84.702100   -4.408600  -118.273000
  H    -84.410800   -5.443200  -118.381000
  H    -85.369000   -4.276040  -117.399000
  C    -85.339700   -3.927960  -119.603000
  H    -86.279200   -4.462410  -119.744000
  H    -85.595000   -2.878290  -119.574000
  H    -84.671200   -4.123230  -120.459000
  S    -82.513900    2.550030  -119.227000
  C    -83.363000    3.601500  -120.392000
  C    -84.721900    3.300870  -120.374000
  C    -85.053600    2.114600  -119.671000
  C    -83.934000    1.567480  -118.992000
  H    -85.356500    3.818530  -121.030000
  C    -86.481600    1.564180  -119.597000
  H    -86.472100    0.492610  -119.513000
  H    -86.949800    1.876790  -120.541000
  C    -87.381700    1.981240  -118.446000
  H    -87.459900    3.073800  -118.433000
  H    -86.908900    1.715230  -117.534000
  C    -88.757400    1.387010  -118.467000
  H    -88.607300    0.257134  -118.511000
  H    -89.527100    1.733520  -119.213000
  H    -89.192500    1.677370  -117.508000
  H    -83.555700   -2.055460  -115.458000
  H    -83.057000    4.448710  -120.986000

 Total Charge           Charge          ....    0
 Multiplicity           Mult            ....    1
 Number of Electrons    NEL             ....  134
 Basis Dimension        Dim             ....  322

ORBITAL ENERGIES
----------------

  NO   OCC          E(Eh)            E(eV)
   0   2.0000     -88.971967     -2421.0503
   1   2.0000     -88.970727     -2421.0166
   2   2.0000     -10.336291      -281.2648
   3   2.0000     -10.331300      -281.1290
   4   2.0000     -10.321832      -280.8713
   5   2.0000     -10.321486      -280.8619
   6   2.0000     -10.313655      -280.6488
   7   2.0000     -10.306975      -280.4670
   8   2.0000     -10.303812      -280.3810
   9   2.0000     -10.302838      -280.3545
  10   2.0000     -10.291053      -280.0338
  11   2.0000     -10.290158      -280.0094
  12   2.0000     -10.287540      -279.9382
  13   2.0000     -10.283461      -279.8272
  14   2.0000     -10.279009      -279.7061
  15   2.0000     -10.277070      -279.6533
  16   2.0000      -8.085526      -220.0184
  17   2.0000      -8.084512      -219.9908
  18   2.0000      -6.044172      -164.4703
  19   2.0000      -6.043118      -164.4416
  20   2.0000      -6.040186      -164.3618
  21   2.0000      -6.038995      -164.3294
  22   2.0000      -6.036218      -164.2538
  23   2.0000      -6.035366      -164.2306
  24   2.0000      -0.998887       -27.1811
  25   2.0000      -0.977831       -26.6081
  26   2.0000      -0.910520       -24.7765
  27   2.0000      -0.906347       -24.6630
  28   2.0000      -0.867493       -23.6057
  29   2.0000      -0.850462       -23.1422
  30   2.0000      -0.841699       -22.9038
  31   2.0000      -0.816071       -22.2064
  32   2.0000      -0.780339       -21.2341
  33   2.0000      -0.768688       -20.9171
  34   2.0000      -0.703618       -19.1464
  35   2.0000      -0.695669       -18.9301
  36   2.0000      -0.687460       -18.7067
  37   2.0000      -0.660703       -17.9786
  38   2.0000      -0.639217       -17.3940
  39   2.0000      -0.610768       -16.6198
  40   2.0000      -0.592798       -16.1309
  41   2.0000      -0.577555       -15.7161
  42   2.0000      -0.568568       -15.4715
  43   2.0000      -0.549598       -14.9553
  44   2.0000      -0.540356       -14.7038
  45   2.0000      -0.518255       -14.1024
  46   2.0000      -0.516091       -14.0436
  47   2.0000      -0.508025       -13.8241
  48   2.0000      -0.504187       -13.7196
  49   2.0000      -0.499620       -13.5953
  50   2.0000      -0.487171       -13.2566
  51   2.0000      -0.478312       -13.0155
  52   2.0000      -0.470351       -12.7989
  53   2.0000      -0.464616       -12.6428
  54   2.0000      -0.462348       -12.5811
  55   2.0000      -0.448830       -12.2133
  56   2.0000      -0.446133       -12.1399
  57   2.0000      -0.432295       -11.7634
  58   2.0000      -0.426395       -11.6028
  59   2.0000      -0.424318       -11.5463
  60   2.0000      -0.421279       -11.4636
  61   2.0000      -0.414911       -11.2903
  62   2.0000      -0.409680       -11.1480
  63   2.0000      -0.340494        -9.2653
  64   2.0000      -0.331498        -9.0205
  65   2.0000      -0.322927        -8.7873
  66   2.0000      -0.306317        -8.3353
  67   0.0000       0.038928         1.0593
  68   0.0000       0.048206         1.3118
  69   0.0000       0.112911         3.0725
  70   0.0000       0.118273         3.2184
  71   0.0000       0.120043         3.2665

MULLIKEN ATOMIC CHARGES
-----------------------
   0 S :    0.118797
   1 C :   -0.110494
   2 C :   -0.088642
   3 C :    0.045785
   4 C :   -0.179473
   5 H :    0.034450
   6 C :    0.007993
   7 H :    0.031679
   8 H :    0.031346
   9 C :   -0.048406
  10 H :    0.039549
  11 H :    0.027302
  12 C :   -0.070938
  13 H :    0.035461
  14 H :    0.036503
  15 H :    0.035802
  16 S :    0.124739
  17 C :   -0.091893
  18 C :   -0.027166
  19 C :   -0.022450
  20 C :   -0.185529
  21 H :    0.003027
  22 C :    0.089984
  23 H :    0.011589
  24 H :    0.015347
  25 C :   -0.045915
  26 H :    0.016810
  27 H :    0.016393
  28 C :   -0.071955
  29 H :    0.039041
  30 H :    0.044763
  31 H :    0.034100
  32 H :    0.047107
  33 H :    0.055295
Sum of atomic charges:   -0.0000000

LOEWDIN ATOMIC CHARGES
----------------------
   0 S :    0.391518
   1 C :   -0.191336
   2 C :   -0.063879
   3 C :   -0.058682
   4 C :   -0.194849
   5 H :    0.039754
   6 C :   -0.041270
   7 H :    0.035794
   8 H :    0.029805
   9 C :   -0.040195
  10 H :    0.026658
  11 H :    0.024162
  12 C :   -0.068941
  13 H :    0.027495
  14 H :    0.023503
  15 H :    0.026936
  16 S :    0.410568
  17 C :   -0.179808
  18 C :   -0.066499
  19 C :   -0.049478
  20 C :   -0.210212
  21 H :    0.022680
  22 C :   -0.030875
  23 H :    0.025895
  24 H :    0.029055
  25 C :   -0.041286
  26 H :    0.021266
  27 H :    0.020189
  28 C :   -0.072207
  29 H :    0.031866
  30 H :    0.029767
  31 H :    0.029601
  32 H :    0.028879
  33 H :    0.034127

  Mayer bond orders larger than 0.100000
B(  0-S ,  1-C ) :   1.1360 B(  0-S ,  4-C ) :   1.1291 B(  1-C ,  2-C ) :   1.6309
B(  1-C , 32-H ) :   0.9639 B(  2-C ,  3-C ) :   1.2086 B(  2-C ,  6-C ) :   1.0211
B(  3-C ,  4-C ) :   1.6171 B(  3-C ,  5-H ) :   0.9833 B(  4-C , 20-C ) :   1.0146
B(  6-C ,  7-H ) :   0.9437 B(  6-C ,  8-H ) :   0.9443 B(  6-C ,  9-C ) :   1.0632
B(  9-C , 10-H ) :   0.9537 B(  9-C , 11-H ) :   0.9547 B(  9-C , 12-C ) :   1.0794
B( 12-C , 13-H ) :   0.9729 B( 12-C , 14-H ) :   0.9745 B( 12-C , 15-H ) :   0.9751
B( 16-S , 17-C ) :   1.1525 B( 16-S , 20-C ) :   1.1544 B( 17-C , 18-C ) :   1.6095
B( 17-C , 20-C ) :   0.1064 B( 17-C , 33-H ) :   0.9655 B( 18-C , 19-C ) :   1.2686
B( 18-C , 21-H ) :   0.9863 B( 19-C , 20-C ) :   1.5668 B( 19-C , 22-C ) :   1.0497
B( 22-C , 23-H ) :   0.9234 B( 22-C , 24-H ) :   0.9310 B( 22-C , 25-C ) :   1.0808
B( 25-C , 26-H ) :   0.9479 B( 25-C , 27-H ) :   0.9481 B( 25-C , 28-C ) :   1.0885
B( 28-C , 29-H ) :   0.9708 B( 28-C , 30-H ) :   0.9741 B( 28-C , 31-H ) :   0.9710

Dispersion correction           -0.014406731
FINAL SINGLE POINT ENERGY     -1339.875876971063

DIPOLE MOMENT
-------------
                                X             Y             Z
Electronic contribution:     20.60143      16.93534       5.79373
Nuclear contribution   :    -21.01002     -17.24003      -6.07361
                        -----------------------------------------
Total Dipole Moment    :     -0.40859      -0.30469      -0.27988
                        -----------------------------------------
Magnitude (a.u.)       :      0.58147
Magnitude (Debye)      :      1.47799

Rotational constants in cm-1:     0.016682     0.008869     0.007418
Rotational constants in MHz :   500.101447   265.875368   222.374710

                             ****ORCA TERMINATED NORMALLY****
TOTAL RUN TIME: 0 days 0 hours 0 minutes 21 seconds 447 msec
