                         Program Version 4.2.1 -  RELEASE  -
|  1> ! wB97X-D3 SP def2-SVP
|  2> %pal
|  3> nprocs 24
|  4> end
|  5>
|  6> * xyz 0 1
|  7> S 	 -109.769 	 59.7538 	 -13.9095
|  8> C 	 -109.538 	 60.3501 	 -12.3047
|  9> C 	 -108.26 	 60.081 	 -11.8203
| 10> C 	 -107.48 	 59.3133 	 -12.7679
| 11> C 	 -108.118 	 59.0887 	 -13.9855
| 12> H 	 -106.497 	 58.9634 	 -12.5948
| 13> C 	 -107.715 	 60.5126 	 -10.4639
| 14> H 	 -107.412 	 59.4705 	 -10.0033
| 15> H 	 -108.506 	 60.9117 	 -9.80327
| 16> C 	 -106.451 	 61.394 	 -10.5219
| 17> H 	 -105.637 	 60.9924 	 -11.1025
| 18> H 	 -106.752 	 62.2816 	 -10.9661
| 19> C 	 -105.768 	 61.671 	 -9.08865
| 20> H 	 -104.957 	 62.3317 	 -9.22399
| 21> H 	 -106.576 	 62.1055 	 -8.45489
| 22> H 	 -105.386 	 60.8447 	 -8.54443
| 23> S 	 -108.248 	 59.0474 	 -16.755
| 24> C 	 -107.248 	 57.9171 	 -17.6394
| 25> C 	 -106.503 	 57.1565 	 -16.7773
| 26> C 	 -106.697 	 57.4872 	 -15.3922
| 27> C 	 -107.623 	 58.4721 	 -15.2169
| 28> H 	 -105.876 	 56.3645 	 -17.1595
| 29> C 	 -106.163 	 56.5255 	 -14.3108
| 30> H 	 -106.528 	 55.5504 	 -14.4752
| 31> H 	 -106.47 	 56.8556 	 -13.2969
| 32> C 	 -104.646 	 56.4448 	 -14.4149
| 33> H 	 -104.281 	 57.3601 	 -14.9375
| 34> H 	 -104.294 	 55.6677 	 -15.0645
| 35> C 	 -103.923 	 56.3506 	 -13.0665
| 36> H 	 -102.861 	 56.1627 	 -13.2538
| 37> H 	 -104.165 	 55.4035 	 -12.5536
| 38> H 	 -104.1 	 57.1545 	 -12.4164
| 39> H 	 -110.26 	 60.8102 	 -11.6065
| 40> H 	 -107.219 	 57.9023 	 -18.6997
| 41> *
| 42>
| 43>                          ****END OF INPUT****

CARTESIAN COORDINATES (ANGSTROEM)
---------------------------------
  S    -109.769000   59.753800  -13.909500
  C    -109.538000   60.350100  -12.304700
  C    -108.260000   60.081000  -11.820300
  C    -107.480000   59.313300  -12.767900
  C    -108.118000   59.088700  -13.985500
  H    -106.497000   58.963400  -12.594800
  C    -107.715000   60.512600  -10.463900
  H    -107.412000   59.470500  -10.003300
  H    -108.506000   60.911700   -9.803270
  C    -106.451000   61.394000  -10.521900
  H    -105.637000   60.992400  -11.102500
  H    -106.752000   62.281600  -10.966100
  C    -105.768000   61.671000   -9.088650
  H    -104.957000   62.331700   -9.223990
  H    -106.576000   62.105500   -8.454890
  H    -105.386000   60.844700   -8.544430
  S    -108.248000   59.047400  -16.755000
  C    -107.248000   57.917100  -17.639400
  C    -106.503000   57.156500  -16.777300
  C    -106.697000   57.487200  -15.392200
  C    -107.623000   58.472100  -15.216900
  H    -105.876000   56.364500  -17.159500
  C    -106.163000   56.525500  -14.310800
  H    -106.528000   55.550400  -14.475200
  H    -106.470000   56.855600  -13.296900
  C    -104.646000   56.444800  -14.414900
  H    -104.281000   57.360100  -14.937500
  H    -104.294000   55.667700  -15.064500
  C    -103.923000   56.350600  -13.066500
  H    -102.861000   56.162700  -13.253800
  H    -104.165000   55.403500  -12.553600
  H    -104.100000   57.154500  -12.416400
  H    -110.260000   60.810200  -11.606500
  H    -107.219000   57.902300  -18.699700

 Total Charge           Charge          ....    0
 Multiplicity           Mult            ....    1
 Number of Electrons    NEL             ....  134
 Basis Dimension        Dim             ....  322

ORBITAL ENERGIES
----------------

  NO   OCC          E(Eh)            E(eV)
   0   2.0000     -88.967417     -2420.9265
   1   2.0000     -88.964342     -2420.8428
   2   2.0000     -10.335275      -281.2371
   3   2.0000     -10.328242      -281.0457
   4   2.0000     -10.316694      -280.7315
   5   2.0000     -10.313861      -280.6544
   6   2.0000     -10.305637      -280.4306
   7   2.0000     -10.303678      -280.3773
   8   2.0000     -10.301869      -280.3281
   9   2.0000     -10.295134      -280.1448
  10   2.0000     -10.294350      -280.1235
  11   2.0000     -10.290681      -280.0237
  12   2.0000     -10.287780      -279.9447
  13   2.0000     -10.283738      -279.8347
  14   2.0000     -10.279451      -279.7181
  15   2.0000     -10.276644      -279.6417
  16   2.0000      -8.081696      -219.9141
  17   2.0000      -8.079305      -219.8491
  18   2.0000      -6.040347      -164.3662
  19   2.0000      -6.037888      -164.2993
  20   2.0000      -6.036243      -164.2545
  21   2.0000      -6.033806      -164.1882
  22   2.0000      -6.032365      -164.1490
  23   2.0000      -6.029945      -164.0831
  24   2.0000      -1.006641       -27.3921
  25   2.0000      -0.982998       -26.7487
  26   2.0000      -0.911678       -24.8080
  27   2.0000      -0.904637       -24.6164
  28   2.0000      -0.869650       -23.6644
  29   2.0000      -0.851748       -23.1773
  30   2.0000      -0.842325       -22.9208
  31   2.0000      -0.815670       -22.1955
  32   2.0000      -0.784096       -21.3363
  33   2.0000      -0.773110       -21.0374
  34   2.0000      -0.711324       -19.3561
  35   2.0000      -0.700809       -19.0700
  36   2.0000      -0.697000       -18.9663
  37   2.0000      -0.663031       -18.0420
  38   2.0000      -0.636764       -17.3272
  39   2.0000      -0.623119       -16.9559
  40   2.0000      -0.601531       -16.3685
  41   2.0000      -0.573153       -15.5963
  42   2.0000      -0.563252       -15.3269
  43   2.0000      -0.558597       -15.2002
  44   2.0000      -0.529869       -14.4185
  45   2.0000      -0.522199       -14.2098
  46   2.0000      -0.515074       -14.0159
  47   2.0000      -0.509699       -13.8696
  48   2.0000      -0.503499       -13.7009
  49   2.0000      -0.502509       -13.6740
  50   2.0000      -0.496688       -13.5156
  51   2.0000      -0.481424       -13.1002
  52   2.0000      -0.478498       -13.0206
  53   2.0000      -0.467723       -12.7274
  54   2.0000      -0.458927       -12.4880
  55   2.0000      -0.453868       -12.3504
  56   2.0000      -0.445901       -12.1336
  57   2.0000      -0.441381       -12.0106
  58   2.0000      -0.433680       -11.8010
  59   2.0000      -0.424852       -11.5608
  60   2.0000      -0.418836       -11.3971
  61   2.0000      -0.413361       -11.2481
  62   2.0000      -0.410684       -11.1753
  63   2.0000      -0.360762        -9.8168
  64   2.0000      -0.331919        -9.0320
  65   2.0000      -0.326130        -8.8745
  66   2.0000      -0.285676        -7.7736
  67   0.0000       0.026009         0.7077
  68   0.0000       0.078806         2.1444
  69   0.0000       0.107334         2.9207
  70   0.0000       0.117985         3.2105
  71   0.0000       0.124000         3.3742

MULLIKEN ATOMIC CHARGES
-----------------------
   0 S :    0.106422
   1 C :   -0.116451
   2 C :   -0.094769
   3 C :    0.033331
   4 C :   -0.136407
   5 H :   -0.009711
   6 C :    0.017015
   7 H :    0.043895
   8 H :    0.028906
   9 C :   -0.050554
  10 H :    0.031768
  11 H :    0.022819
  12 C :   -0.051106
  13 H :    0.031366
  14 H :    0.032277
  15 H :    0.028301
  16 S :    0.095422
  17 C :   -0.080236
  18 C :   -0.020206
  19 C :   -0.063898
  20 C :   -0.123327
  21 H :    0.019118
  22 C :    0.103750
  23 H :    0.031969
  24 H :    0.022724
  25 C :   -0.116721
  26 H :    0.039479
  27 H :    0.023937
  28 C :   -0.036628
  29 H :    0.028241
  30 H :    0.022944
  31 H :    0.033041
  32 H :    0.053829
  33 H :    0.049460
Sum of atomic charges:   -0.0000000

LOEWDIN ATOMIC CHARGES
----------------------
   0 S :    0.399617
   1 C :   -0.217883
   2 C :   -0.065066
   3 C :   -0.061167
   4 C :   -0.172892
   5 H :    0.020345
   6 C :   -0.039253
   7 H :    0.041797
   8 H :    0.030046
   9 C :   -0.028854
  10 H :    0.023174
  11 H :    0.017114
  12 C :   -0.060156
  13 H :    0.021107
  14 H :    0.028068
  15 H :    0.019455
  16 S :    0.394765
  17 C :   -0.172640
  18 C :   -0.066348
  19 C :   -0.059165
  20 C :   -0.193110
  21 H :    0.031431
  22 C :   -0.020091
  23 H :    0.029115
  24 H :    0.030227
  25 C :   -0.046967
  26 H :    0.027742
  27 H :    0.019854
  28 C :   -0.063441
  29 H :    0.029566
  30 H :    0.026377
  31 H :    0.015611
  32 H :    0.037775
  33 H :    0.023846

  Mayer bond orders larger than 0.100000
B(  0-S ,  1-C ) :   1.1297 B(  0-S ,  4-C ) :   1.1410 B(  1-C ,  2-C ) :   1.6247
B(  1-C , 32-H ) :   0.9593 B(  2-C ,  3-C ) :   1.2361 B(  2-C ,  6-C ) :   1.0253
B(  3-C ,  4-C ) :   1.5742 B(  3-C ,  5-H ) :   0.9923 B(  4-C , 20-C ) :   1.0560
B(  6-C ,  7-H ) :   0.9409 B(  6-C ,  8-H ) :   0.9458 B(  6-C ,  9-C ) :   1.0522
B(  9-C , 10-H ) :   0.9593 B(  9-C , 11-H ) :   0.9577 B(  9-C , 12-C ) :   1.0724
B( 12-C , 13-H ) :   0.9779 B( 12-C , 14-H ) :   0.9779 B( 12-C , 15-H ) :   0.9793
B( 16-S , 17-C ) :   1.1432 B( 16-S , 20-C ) :   1.1278 B( 17-C , 18-C ) :   1.6215
B( 17-C , 33-H ) :   0.9753 B( 18-C , 19-C ) :   1.2142 B( 18-C , 21-H ) :   0.9929
B( 19-C , 20-C ) :   1.6321 B( 19-C , 22-C ) :   1.0407 B( 22-C , 23-H ) :   0.9382
B( 22-C , 24-H ) :   0.9479 B( 22-C , 25-C ) :   1.0264 B( 25-C , 26-H ) :   0.9676
B( 25-C , 27-H ) :   0.9509 B( 25-C , 28-C ) :   1.0974 B( 28-C , 29-H ) :   0.9706
B( 28-C , 30-H ) :   0.9689 B( 28-C , 31-H ) :   0.9781

Dispersion correction           -0.013720361
FINAL SINGLE POINT ENERGY     -1339.879647298346

DIPOLE MOMENT
-------------
                                X             Y             Z
Electronic contribution:    -22.55053       3.07419     -23.06843
Nuclear contribution   :     23.12614      -3.37417      23.41109
                        -----------------------------------------
Total Dipole Moment    :      0.57561      -0.29997       0.34265
                        -----------------------------------------
Magnitude (a.u.)       :      0.73397
Magnitude (Debye)      :      1.86561

Rotational constants in cm-1:     0.016665     0.009021     0.006348
Rotational constants in MHz :   499.616414   270.456203   190.301941

                             ****ORCA TERMINATED NORMALLY****
TOTAL RUN TIME: 0 days 0 hours 0 minutes 20 seconds 164 msec
