                         Program Version 4.2.1 -  RELEASE  -
|  1> ! wB97X-D3 SP def2-SVP
|  2> %pal
|  3> nprocs 24
|  4> end
|  5>
|  6> * xyz 0 1
|  7> S 	 -56.4664 	 18.5439 	 23.9801
|  8> C 	 -56.9079 	 17.5185 	 25.4198
|  9> C 	 -56.0276 	 17.7664 	 26.4286
| 10> C 	 -54.8305 	 18.4853 	 25.9639
| 11> C 	 -54.8487 	 18.8874 	 24.6418
| 12> H 	 -53.9937 	 18.7421 	 26.5373
| 13> C 	 -56.2527 	 17.3375 	 27.8356
| 14> H 	 -55.341 	 17.4971 	 28.3827
| 15> H 	 -56.3719 	 16.3004 	 27.6754
| 16> C 	 -57.5096 	 17.9258 	 28.581
| 17> H 	 -58.4175 	 17.9633 	 27.9013
| 18> H 	 -57.8372 	 17.2577 	 29.4472
| 19> C 	 -57.1641 	 19.2897 	 29.2432
| 20> H 	 -56.7435 	 19.3726 	 30.2101
| 21> H 	 -56.6586 	 19.9501 	 28.6459
| 22> H 	 -58.1662 	 19.685 	 29.3477
| 23> S 	 -53.7277 	 19.3986 	 22.117
| 24> C 	 -52.657 	 20.7694 	 22.0122
| 25> C 	 -52.3276 	 21.3096 	 23.2486
| 26> C 	 -53.0103 	 20.6427 	 24.3503
| 27> C 	 -53.902 	 19.6856 	 23.936
| 28> H 	 -51.6166 	 22.0947 	 23.3677
| 29> C 	 -52.6036 	 21.0203 	 25.7859
| 30> H 	 -53.4527 	 21.0803 	 26.3606
| 31> H 	 -52.2688 	 22.0737 	 25.7483
| 32> C 	 -51.4573 	 20.1999 	 26.3754
| 33> H 	 -51.6993 	 19.1275 	 26.4691
| 34> H 	 -51.3706 	 20.5129 	 27.438
| 35> C 	 -50.1573 	 20.195 	 25.5985
| 36> H 	 -50.33 	 19.8175 	 24.5529
| 37> H 	 -49.3999 	 19.4063 	 25.9311
| 38> H 	 -49.7493 	 21.2269 	 25.4622
| 39> H 	 -57.8104 	 16.9073 	 25.5522
| 40> H 	 -52.2906 	 21.1552 	 21.0819
| 41> *
| 42>
| 43>                          ****END OF INPUT****

CARTESIAN COORDINATES (ANGSTROEM)
---------------------------------
  S    -56.466400   18.543900   23.980100
  C    -56.907900   17.518500   25.419800
  C    -56.027600   17.766400   26.428600
  C    -54.830500   18.485300   25.963900
  C    -54.848700   18.887400   24.641800
  H    -53.993700   18.742100   26.537300
  C    -56.252700   17.337500   27.835600
  H    -55.341000   17.497100   28.382700
  H    -56.371900   16.300400   27.675400
  C    -57.509600   17.925800   28.581000
  H    -58.417500   17.963300   27.901300
  H    -57.837200   17.257700   29.447200
  C    -57.164100   19.289700   29.243200
  H    -56.743500   19.372600   30.210100
  H    -56.658600   19.950100   28.645900
  H    -58.166200   19.685000   29.347700
  S    -53.727700   19.398600   22.117000
  C    -52.657000   20.769400   22.012200
  C    -52.327600   21.309600   23.248600
  C    -53.010300   20.642700   24.350300
  C    -53.902000   19.685600   23.936000
  H    -51.616600   22.094700   23.367700
  C    -52.603600   21.020300   25.785900
  H    -53.452700   21.080300   26.360600
  H    -52.268800   22.073700   25.748300
  C    -51.457300   20.199900   26.375400
  H    -51.699300   19.127500   26.469100
  H    -51.370600   20.512900   27.438000
  C    -50.157300   20.195000   25.598500
  H    -50.330000   19.817500   24.552900
  H    -49.399900   19.406300   25.931100
  H    -49.749300   21.226900   25.462200
  H    -57.810400   16.907300   25.552200
  H    -52.290600   21.155200   21.081900

 Total Charge           Charge          ....    0
 Multiplicity           Mult            ....    1
 Number of Electrons    NEL             ....  134
 Basis Dimension        Dim             ....  322

ORBITAL ENERGIES
----------------

  NO   OCC          E(Eh)            E(eV)
   0   2.0000     -88.965929     -2420.8860
   1   2.0000     -88.960877     -2420.7485
   2   2.0000     -10.332048      -281.1493
   3   2.0000     -10.330287      -281.1014
   4   2.0000     -10.321003      -280.8488
   5   2.0000     -10.315478      -280.6984
   6   2.0000     -10.309229      -280.5284
   7   2.0000     -10.304874      -280.4099
   8   2.0000     -10.301804      -280.3263
   9   2.0000     -10.296599      -280.1847
  10   2.0000     -10.294361      -280.1238
  11   2.0000     -10.294298      -280.1221
  12   2.0000     -10.291983      -280.0591
  13   2.0000     -10.289441      -279.9899
  14   2.0000     -10.287026      -279.9242
  15   2.0000     -10.267289      -279.3871
  16   2.0000      -8.079573      -219.8564
  17   2.0000      -8.074177      -219.7095
  18   2.0000      -6.038196      -164.3077
  19   2.0000      -6.034375      -164.2037
  20   2.0000      -6.033022      -164.1669
  21   2.0000      -6.030119      -164.0879
  22   2.0000      -6.029099      -164.0601
  23   2.0000      -6.024420      -163.9328
  24   2.0000      -0.997884       -27.1538
  25   2.0000      -0.974270       -26.5112
  26   2.0000      -0.912592       -24.8329
  27   2.0000      -0.909600       -24.7515
  28   2.0000      -0.869365       -23.6566
  29   2.0000      -0.848924       -23.1004
  30   2.0000      -0.838046       -22.8044
  31   2.0000      -0.813606       -22.1394
  32   2.0000      -0.789879       -21.4937
  33   2.0000      -0.775568       -21.1043
  34   2.0000      -0.710968       -19.3464
  35   2.0000      -0.707787       -19.2599
  36   2.0000      -0.692494       -18.8437
  37   2.0000      -0.666530       -18.1372
  38   2.0000      -0.635870       -17.3029
  39   2.0000      -0.610191       -16.6041
  40   2.0000      -0.593911       -16.1611
  41   2.0000      -0.568756       -15.4766
  42   2.0000      -0.562120       -15.2961
  43   2.0000      -0.554194       -15.0804
  44   2.0000      -0.545638       -14.8476
  45   2.0000      -0.538261       -14.6468
  46   2.0000      -0.519459       -14.1352
  47   2.0000      -0.510257       -13.8848
  48   2.0000      -0.504169       -13.7191
  49   2.0000      -0.492915       -13.4129
  50   2.0000      -0.486762       -13.2455
  51   2.0000      -0.483083       -13.1454
  52   2.0000      -0.480477       -13.0744
  53   2.0000      -0.465804       -12.6752
  54   2.0000      -0.455426       -12.3928
  55   2.0000      -0.451258       -12.2793
  56   2.0000      -0.443231       -12.0609
  57   2.0000      -0.441225       -12.0063
  58   2.0000      -0.429860       -11.6971
  59   2.0000      -0.424475       -11.5506
  60   2.0000      -0.417274       -11.3546
  61   2.0000      -0.409887       -11.1536
  62   2.0000      -0.408050       -11.1036
  63   2.0000      -0.351127        -9.5546
  64   2.0000      -0.331933        -9.0324
  65   2.0000      -0.320689        -8.7264
  66   2.0000      -0.288252        -7.8437
  67   0.0000       0.017638         0.4799
  68   0.0000       0.073402         1.9974
  69   0.0000       0.094006         2.5580
  70   0.0000       0.108419         2.9502
  71   0.0000       0.130291         3.5454

MULLIKEN ATOMIC CHARGES
-----------------------
   0 S :    0.081537
   1 C :   -0.135688
   2 C :   -0.090162
   3 C :    0.025263
   4 C :   -0.100245
   5 H :   -0.031673
   6 C :    0.096971
   7 H :    0.016756
   8 H :    0.027720
   9 C :   -0.108772
  10 H :    0.044196
  11 H :    0.042276
  12 C :   -0.012964
  13 H :    0.030907
  14 H :    0.014037
  15 H :    0.020486
  16 S :    0.097057
  17 C :   -0.071815
  18 C :   -0.021550
  19 C :   -0.070743
  20 C :   -0.153272
  21 H :    0.008822
  22 C :    0.103937
  23 H :    0.011438
  24 H :    0.018360
  25 C :   -0.063733
  26 H :    0.036069
  27 H :    0.036900
  28 C :   -0.098201
  29 H :    0.049655
  30 H :    0.051868
  31 H :    0.036256
  32 H :    0.055032
  33 H :    0.053277
Sum of atomic charges:   -0.0000000

LOEWDIN ATOMIC CHARGES
----------------------
   0 S :    0.355536
   1 C :   -0.180945
   2 C :   -0.056875
   3 C :   -0.064565
   4 C :   -0.174859
   5 H :    0.016453
   6 C :   -0.035849
   7 H :    0.027948
   8 H :    0.032829
   9 C :   -0.036235
  10 H :    0.029802
  11 H :    0.033277
  12 C :   -0.063863
  13 H :    0.022965
  14 H :    0.012069
  15 H :    0.032253
  16 S :    0.366749
  17 C :   -0.172611
  18 C :   -0.068923
  19 C :   -0.041973
  20 C :   -0.172065
  21 H :    0.025829
  22 C :   -0.025403
  23 H :    0.019314
  24 H :    0.034988
  25 C :   -0.047565
  26 H :    0.025821
  27 H :    0.029236
  28 C :   -0.081089
  29 H :    0.034514
  30 H :    0.039228
  31 H :    0.024433
  32 H :    0.033644
  33 H :    0.025932

  Mayer bond orders larger than 0.100000
B(  0-S ,  1-C ) :   1.0978 B(  0-S ,  4-C ) :   1.1204 B(  1-C ,  2-C ) :   1.6463
B(  1-C , 32-H ) :   0.9674 B(  2-C ,  3-C ) :   1.1905 B(  2-C ,  6-C ) :   1.0156
B(  3-C ,  4-C ) :   1.5892 B(  3-C ,  5-H ) :   1.0044 B(  4-C , 20-C ) :   1.1009
B(  6-C ,  7-H ) :   0.9451 B(  6-C ,  8-H ) :   0.9311 B(  6-C ,  9-C ) :   1.0591
B(  9-C , 10-H ) :   0.9639 B(  9-C , 11-H ) :   0.9565 B(  9-C , 12-C ) :   1.0586
B( 12-C , 13-H ) :   0.9779 B( 12-C , 14-H ) :   0.9808 B( 12-C , 15-H ) :   0.9711
B( 16-S , 17-C ) :   1.1485 B( 16-S , 20-C ) :   1.0975 B( 17-C , 18-C ) :   1.6198
B( 17-C , 33-H ) :   0.9673 B( 18-C , 19-C ) :   1.2130 B( 18-C , 21-H ) :   0.9918
B( 19-C , 20-C ) :   1.6332 B( 19-C , 22-C ) :   1.0335 B( 22-C , 23-H ) :   0.9271
B( 22-C , 24-H ) :   0.9301 B( 22-C , 25-C ) :   1.0675 B( 25-C , 26-H ) :   0.9502
B( 25-C , 27-H ) :   0.9533 B( 25-C , 28-C ) :   1.0789 B( 28-C , 29-H ) :   0.9648
B( 28-C , 30-H ) :   0.9707 B( 28-C , 31-H ) :   0.9739

Dispersion correction           -0.014764597
FINAL SINGLE POINT ENERGY     -1339.854168679915

DIPOLE MOMENT
-------------
                                X             Y             Z
Electronic contribution:     -6.12731      -2.96859     -26.39700
Nuclear contribution   :      6.42102       3.17482      27.12784
                        -----------------------------------------
Total Dipole Moment    :      0.29371       0.20623       0.73084
                        -----------------------------------------
Magnitude (a.u.)       :      0.81420
Magnitude (Debye)      :      2.06953

Rotational constants in cm-1:     0.020129     0.008697     0.006607
Rotational constants in MHz :   603.457052   260.723826   198.085263

                             ****ORCA TERMINATED NORMALLY****
TOTAL RUN TIME: 0 days 0 hours 0 minutes 22 seconds 31 msec
