                         Program Version 4.2.1 -  RELEASE  -
|  1> ! wB97X-D3 SP def2-SVP
|  2> %pal
|  3> nprocs 24
|  4> end
|  5>
|  6> * xyz 0 1
|  7> S 	 -41.2466 	 -50.6528 	 -73.1169
|  8> C 	 -40.997 	 -49.5903 	 -74.4217
|  9> C 	 -39.7546 	 -49.1035 	 -74.4646
| 10> C 	 -38.9785 	 -49.551 	 -73.3405
| 11> C 	 -39.6202 	 -50.4246 	 -72.5106
| 12> H 	 -37.9603 	 -49.2539 	 -73.0905
| 13> C 	 -39.2397 	 -47.9876 	 -75.3395
| 14> H 	 -39.6541 	 -48.1912 	 -76.3354
| 15> H 	 -38.1653 	 -47.9872 	 -75.5694
| 16> C 	 -39.6579 	 -46.5939 	 -74.896
| 17> H 	 -39.1375 	 -45.8136 	 -75.4424
| 18> H 	 -40.746 	 -46.525 	 -75.1018
| 19> C 	 -39.325 	 -46.2517 	 -73.4274
| 20> H 	 -38.2306 	 -45.9906 	 -73.2691
| 21> H 	 -39.7856 	 -45.2899 	 -73.146
| 22> H 	 -39.7377 	 -46.9393 	 -72.654
| 23> S 	 -38.5583 	 -52.883 	 -71.662
| 24> C 	 -38.2137 	 -52.9848 	 -69.9506
| 25> C 	 -38.487 	 -51.8511 	 -69.2258
| 26> C 	 -38.9846 	 -50.8057 	 -70.0475
| 27> C 	 -39.0844 	 -51.1579 	 -71.3549
| 28> H 	 -38.3685 	 -51.8391 	 -68.1812
| 29> C 	 -39.526 	 -49.5051 	 -69.5564
| 30> H 	 -39.1442 	 -48.6675 	 -70.1057
| 31> H 	 -39.1587 	 -49.4289 	 -68.5321
| 32> C 	 -41.0571 	 -49.4258 	 -69.4928
| 33> H 	 -41.4027 	 -50.2651 	 -68.8962
| 34> H 	 -41.4694 	 -49.3342 	 -70.4972
| 35> C 	 -41.6694 	 -48.2875 	 -68.6879
| 36> H 	 -41.1654 	 -47.2861 	 -68.8585
| 37> H 	 -41.5252 	 -48.5321 	 -67.6316
| 38> H 	 -42.6939 	 -48.2371 	 -68.801
| 39> H 	 -41.6749 	 -49.2133 	 -75.1731
| 40> H 	 -37.917 	 -53.914 	 -69.4376
| 41> *
| 42>
| 43>                          ****END OF INPUT****

CARTESIAN COORDINATES (ANGSTROEM)
---------------------------------
  S    -41.246600  -50.652800  -73.116900
  C    -40.997000  -49.590300  -74.421700
  C    -39.754600  -49.103500  -74.464600
  C    -38.978500  -49.551000  -73.340500
  C    -39.620200  -50.424600  -72.510600
  H    -37.960300  -49.253900  -73.090500
  C    -39.239700  -47.987600  -75.339500
  H    -39.654100  -48.191200  -76.335400
  H    -38.165300  -47.987200  -75.569400
  C    -39.657900  -46.593900  -74.896000
  H    -39.137500  -45.813600  -75.442400
  H    -40.746000  -46.525000  -75.101800
  C    -39.325000  -46.251700  -73.427400
  H    -38.230600  -45.990600  -73.269100
  H    -39.785600  -45.289900  -73.146000
  H    -39.737700  -46.939300  -72.654000
  S    -38.558300  -52.883000  -71.662000
  C    -38.213700  -52.984800  -69.950600
  C    -38.487000  -51.851100  -69.225800
  C    -38.984600  -50.805700  -70.047500
  C    -39.084400  -51.157900  -71.354900
  H    -38.368500  -51.839100  -68.181200
  C    -39.526000  -49.505100  -69.556400
  H    -39.144200  -48.667500  -70.105700
  H    -39.158700  -49.428900  -68.532100
  C    -41.057100  -49.425800  -69.492800
  H    -41.402700  -50.265100  -68.896200
  H    -41.469400  -49.334200  -70.497200
  C    -41.669400  -48.287500  -68.687900
  H    -41.165400  -47.286100  -68.858500
  H    -41.525200  -48.532100  -67.631600
  H    -42.693900  -48.237100  -68.801000
  H    -41.674900  -49.213300  -75.173100
  H    -37.917000  -53.914000  -69.437600

 Total Charge           Charge          ....    0
 Multiplicity           Mult            ....    1
 Number of Electrons    NEL             ....  134
 Basis Dimension        Dim             ....  322

ORBITAL ENERGIES
----------------

  NO   OCC          E(Eh)            E(eV)
   0   2.0000     -88.965151     -2420.8648
   1   2.0000     -88.964668     -2420.8517
   2   2.0000     -10.324801      -280.9521
   3   2.0000     -10.324255      -280.9373
   4   2.0000     -10.319044      -280.7955
   5   2.0000     -10.307103      -280.4705
   6   2.0000     -10.299509      -280.2639
   7   2.0000     -10.292893      -280.0838
   8   2.0000     -10.291049      -280.0337
   9   2.0000     -10.290399      -280.0160
  10   2.0000     -10.290241      -280.0117
  11   2.0000     -10.290004      -280.0053
  12   2.0000     -10.286273      -279.9037
  13   2.0000     -10.283837      -279.8374
  14   2.0000     -10.279220      -279.7118
  15   2.0000     -10.272148      -279.5194
  16   2.0000      -8.079894      -219.8651
  17   2.0000      -8.078993      -219.8406
  18   2.0000      -6.038442      -164.3144
  19   2.0000      -6.037450      -164.2874
  20   2.0000      -6.034225      -164.1996
  21   2.0000      -6.033861      -164.1897
  22   2.0000      -6.030651      -164.1024
  23   2.0000      -6.029627      -164.0745
  24   2.0000      -1.010297       -27.4916
  25   2.0000      -0.987249       -26.8644
  26   2.0000      -0.912764       -24.8376
  27   2.0000      -0.909984       -24.7619
  28   2.0000      -0.869322       -23.6555
  29   2.0000      -0.854342       -23.2478
  30   2.0000      -0.843174       -22.9439
  31   2.0000      -0.816885       -22.2286
  32   2.0000      -0.786135       -21.3918
  33   2.0000      -0.774506       -21.0754
  34   2.0000      -0.704801       -19.1786
  35   2.0000      -0.696772       -18.9601
  36   2.0000      -0.686603       -18.6834
  37   2.0000      -0.664057       -18.0699
  38   2.0000      -0.641252       -17.4493
  39   2.0000      -0.611732       -16.6461
  40   2.0000      -0.596794       -16.2396
  41   2.0000      -0.581553       -15.8249
  42   2.0000      -0.574232       -15.6256
  43   2.0000      -0.550798       -14.9880
  44   2.0000      -0.542420       -14.7600
  45   2.0000      -0.524749       -14.2791
  46   2.0000      -0.514596       -14.0029
  47   2.0000      -0.509889       -13.8748
  48   2.0000      -0.499804       -13.6003
  49   2.0000      -0.492953       -13.4139
  50   2.0000      -0.489629       -13.3235
  51   2.0000      -0.480059       -13.0631
  52   2.0000      -0.469734       -12.7821
  53   2.0000      -0.464792       -12.6476
  54   2.0000      -0.460465       -12.5299
  55   2.0000      -0.451577       -12.2880
  56   2.0000      -0.439903       -11.9704
  57   2.0000      -0.435250       -11.8438
  58   2.0000      -0.433482       -11.7957
  59   2.0000      -0.422302       -11.4914
  60   2.0000      -0.417602       -11.3635
  61   2.0000      -0.412719       -11.2307
  62   2.0000      -0.409658       -11.1474
  63   2.0000      -0.337249        -9.1770
  64   2.0000      -0.332139        -9.0380
  65   2.0000      -0.322947        -8.7878
  66   2.0000      -0.312544        -8.5048
  67   0.0000       0.045282         1.2322
  68   0.0000       0.055389         1.5072
  69   0.0000       0.110331         3.0023
  70   0.0000       0.127547         3.4707
  71   0.0000       0.130462         3.5500

MULLIKEN ATOMIC CHARGES
-----------------------
   0 S :    0.126547
   1 C :   -0.098341
   2 C :   -0.094942
   3 C :    0.051714
   4 C :   -0.192385
   5 H :    0.010473
   6 C :    0.062760
   7 H :    0.018399
   8 H :    0.025729
   9 C :   -0.049008
  10 H :    0.031263
  11 H :    0.028473
  12 C :   -0.098326
  13 H :    0.037826
  14 H :    0.024859
  15 H :    0.057100
  16 S :    0.106941
  17 C :   -0.087132
  18 C :   -0.029674
  19 C :   -0.006495
  20 C :   -0.187643
  21 H :   -0.000531
  22 C :    0.125059
  23 H :    0.021818
  24 H :    0.000006
  25 C :   -0.081498
  26 H :    0.024664
  27 H :    0.040008
  28 C :   -0.037969
  29 H :    0.032315
  30 H :    0.017679
  31 H :    0.024251
  32 H :    0.034881
  33 H :    0.061177
Sum of atomic charges:    0.0000000

LOEWDIN ATOMIC CHARGES
----------------------
   0 S :    0.428702
   1 C :   -0.205094
   2 C :   -0.074519
   3 C :   -0.051573
   4 C :   -0.204079
   5 H :    0.032590
   6 C :   -0.039134
   7 H :    0.030927
   8 H :    0.031300
   9 C :   -0.039819
  10 H :    0.026994
  11 H :    0.025016
  12 C :   -0.081593
  13 H :    0.031294
  14 H :    0.026866
  15 H :    0.029156
  16 S :    0.373026
  17 C :   -0.174944
  18 C :   -0.070731
  19 C :   -0.048272
  20 C :   -0.175959
  21 H :    0.025639
  22 C :   -0.027174
  23 H :    0.029167
  24 H :    0.027096
  25 C :   -0.039215
  26 H :    0.027404
  27 H :    0.017189
  28 C :   -0.062416
  29 H :    0.027128
  30 H :    0.022018
  31 H :    0.016915
  32 H :    0.033022
  33 H :    0.033072

  Mayer bond orders larger than 0.100000
B(  0-S ,  1-C ) :   1.1422 B(  0-S ,  4-C ) :   1.1382 B(  1-C ,  2-C ) :   1.6428
B(  1-C , 32-H ) :   0.9596 B(  2-C ,  3-C ) :   1.2174 B(  2-C ,  6-C ) :   1.0287
B(  3-C ,  4-C ) :   1.6175 B(  3-C ,  5-H ) :   0.9966 B(  4-C , 20-C ) :   1.0105
B(  6-C ,  7-H ) :   0.9335 B(  6-C ,  8-H ) :   0.9428 B(  6-C ,  9-C ) :   1.0780
B(  9-C , 10-H ) :   0.9541 B(  9-C , 11-H ) :   0.9552 B(  9-C , 12-C ) :   1.0823
B( 12-C , 13-H ) :   0.9736 B( 12-C , 14-H ) :   0.9699 B( 12-C , 15-H ) :   0.9687
B( 16-S , 17-C ) :   1.1516 B( 16-S , 20-C ) :   1.1138 B( 17-C , 18-C ) :   1.6417
B( 17-C , 33-H ) :   0.9572 B( 18-C , 19-C ) :   1.2134 B( 18-C , 21-H ) :   0.9969
B( 19-C , 20-C ) :   1.6455 B( 19-C , 22-C ) :   1.0570 B( 22-C , 23-H ) :   0.9153
B( 22-C , 24-H ) :   0.9232 B( 22-C , 25-C ) :   1.0774 B( 25-C , 26-H ) :   0.9565
B( 25-C , 27-H ) :   0.9510 B( 25-C , 28-C ) :   1.0897 B( 28-C , 29-H ) :   0.9723
B( 28-C , 30-H ) :   0.9772 B( 28-C , 31-H ) :   0.9731

Dispersion correction           -0.015640960
FINAL SINGLE POINT ENERGY     -1339.881799603881

DIPOLE MOMENT
-------------
                                X             Y             Z
Electronic contribution:      3.02749     -25.70288      -5.09183
Nuclear contribution   :     -2.99312      26.24611       5.25793
                        -----------------------------------------
Total Dipole Moment    :      0.03438       0.54322       0.16610
                        -----------------------------------------
Magnitude (a.u.)       :      0.56909
Magnitude (Debye)      :      1.44651

Rotational constants in cm-1:     0.018634     0.009690     0.007818
Rotational constants in MHz :   558.640305   290.494829   234.367848

                             ****ORCA TERMINATED NORMALLY****
TOTAL RUN TIME: 0 days 0 hours 0 minutes 22 seconds 670 msec
