                         Program Version 4.2.1 -  RELEASE  -
|  1> ! wB97X-D3 SP def2-SVP
|  2> %pal
|  3> nprocs 24
|  4> end
|  5>
|  6> * xyz 0 1
|  7> S 	 -105.486 	 18.6191 	 -111.041
|  8> C 	 -105.271 	 17.8457 	 -109.508
|  9> C 	 -105.394 	 18.7136 	 -108.496
| 10> C 	 -105.824 	 20.0213 	 -108.967
| 11> C 	 -105.876 	 20.179 	 -110.337
| 12> H 	 -106.086 	 20.8131 	 -108.36
| 13> C 	 -105.503 	 18.3737 	 -107.067
| 14> H 	 -105.723 	 17.3076 	 -107.036
| 15> H 	 -106.41 	 18.7988 	 -106.652
| 16> C 	 -104.274 	 18.5791 	 -106.226
| 17> H 	 -104.298 	 18.0464 	 -105.299
| 18> H 	 -103.517 	 18.0554 	 -106.688
| 19> C 	 -104.154 	 20.0666 	 -105.88
| 20> H 	 -103.796 	 20.6935 	 -106.664
| 21> H 	 -104.99 	 20.4494 	 -105.293
| 22> H 	 -103.277 	 20.1115 	 -105.218
| 23> S 	 -107.768 	 20.8901 	 -112.156
| 24> C 	 -107.761 	 22.4442 	 -112.913
| 25> C 	 -106.833 	 23.2447 	 -112.391
| 26> C 	 -106.056 	 22.5931 	 -111.323
| 27> C 	 -106.413 	 21.2548 	 -111.167
| 28> H 	 -106.588 	 24.2319 	 -112.757
| 29> C 	 -104.932 	 23.3392 	 -110.633
| 30> H 	 -104.488 	 22.6546 	 -109.935
| 31> H 	 -105.294 	 24.1781 	 -110.017
| 32> C 	 -103.88 	 24.0084 	 -111.504
| 33> H 	 -104.159 	 25.0382 	 -111.633
| 34> H 	 -103.697 	 23.4506 	 -112.399
| 35> C 	 -102.474 	 24.0418 	 -110.795
| 36> H 	 -102.044 	 22.9924 	 -110.609
| 37> H 	 -102.391 	 24.5938 	 -109.797
| 38> H 	 -101.702 	 24.5221 	 -111.455
| 39> H 	 -105.06 	 16.7597 	 -109.363
| 40> H 	 -108.453 	 22.6425 	 -113.741
| 41> *
| 42>
| 43>                          ****END OF INPUT****

CARTESIAN COORDINATES (ANGSTROEM)
---------------------------------
  S    -105.486000   18.619100  -111.041000
  C    -105.271000   17.845700  -109.508000
  C    -105.394000   18.713600  -108.496000
  C    -105.824000   20.021300  -108.967000
  C    -105.876000   20.179000  -110.337000
  H    -106.086000   20.813100  -108.360000
  C    -105.503000   18.373700  -107.067000
  H    -105.723000   17.307600  -107.036000
  H    -106.410000   18.798800  -106.652000
  C    -104.274000   18.579100  -106.226000
  H    -104.298000   18.046400  -105.299000
  H    -103.517000   18.055400  -106.688000
  C    -104.154000   20.066600  -105.880000
  H    -103.796000   20.693500  -106.664000
  H    -104.990000   20.449400  -105.293000
  H    -103.277000   20.111500  -105.218000
  S    -107.768000   20.890100  -112.156000
  C    -107.761000   22.444200  -112.913000
  C    -106.833000   23.244700  -112.391000
  C    -106.056000   22.593100  -111.323000
  C    -106.413000   21.254800  -111.167000
  H    -106.588000   24.231900  -112.757000
  C    -104.932000   23.339200  -110.633000
  H    -104.488000   22.654600  -109.935000
  H    -105.294000   24.178100  -110.017000
  C    -103.880000   24.008400  -111.504000
  H    -104.159000   25.038200  -111.633000
  H    -103.697000   23.450600  -112.399000
  C    -102.474000   24.041800  -110.795000
  H    -102.044000   22.992400  -110.609000
  H    -102.391000   24.593800  -109.797000
  H    -101.702000   24.522100  -111.455000
  H    -105.060000   16.759700  -109.363000
  H    -108.453000   22.642500  -113.741000

 Total Charge           Charge          ....    0
 Multiplicity           Mult            ....    1
 Number of Electrons    NEL             ....  134
 Basis Dimension        Dim             ....  322

ORBITAL ENERGIES
----------------

  NO   OCC          E(Eh)            E(eV)
   0   2.0000     -88.960402     -2420.7356
   1   2.0000     -88.959705     -2420.7166
   2   2.0000     -10.328683      -281.0578
   3   2.0000     -10.326107      -280.9876
   4   2.0000     -10.313751      -280.6514
   5   2.0000     -10.312390      -280.6144
   6   2.0000     -10.306141      -280.4444
   7   2.0000     -10.292746      -280.0799
   8   2.0000     -10.292069      -280.0614
   9   2.0000     -10.291692      -280.0512
  10   2.0000     -10.288686      -279.9694
  11   2.0000     -10.286822      -279.9187
  12   2.0000     -10.286357      -279.9060
  13   2.0000     -10.281094      -279.7628
  14   2.0000     -10.275808      -279.6190
  15   2.0000     -10.275436      -279.6088
  16   2.0000      -8.075998      -219.7591
  17   2.0000      -8.075722      -219.7516
  18   2.0000      -6.034480      -164.2065
  19   2.0000      -6.034315      -164.2021
  20   2.0000      -6.030287      -164.0925
  21   2.0000      -6.030057      -164.0862
  22   2.0000      -6.026659      -163.9937
  23   2.0000      -6.026430      -163.9875
  24   2.0000      -1.010871       -27.5072
  25   2.0000      -0.990234       -26.9456
  26   2.0000      -0.920576       -25.0502
  27   2.0000      -0.908098       -24.7106
  28   2.0000      -0.875703       -23.8291
  29   2.0000      -0.846050       -23.0222
  30   2.0000      -0.841579       -22.9005
  31   2.0000      -0.820743       -22.3335
  32   2.0000      -0.782622       -21.2962
  33   2.0000      -0.769353       -20.9351
  34   2.0000      -0.712344       -19.3839
  35   2.0000      -0.702764       -19.1232
  36   2.0000      -0.695024       -18.9126
  37   2.0000      -0.657920       -17.9029
  38   2.0000      -0.642775       -17.4908
  39   2.0000      -0.618554       -16.8317
  40   2.0000      -0.602602       -16.3976
  41   2.0000      -0.580557       -15.7978
  42   2.0000      -0.571342       -15.5470
  43   2.0000      -0.550564       -14.9816
  44   2.0000      -0.546648       -14.8750
  45   2.0000      -0.519673       -14.1410
  46   2.0000      -0.516614       -14.0578
  47   2.0000      -0.511397       -13.9158
  48   2.0000      -0.504223       -13.7206
  49   2.0000      -0.499128       -13.5820
  50   2.0000      -0.487022       -13.2526
  51   2.0000      -0.482712       -13.1353
  52   2.0000      -0.477019       -12.9803
  53   2.0000      -0.467369       -12.7178
  54   2.0000      -0.459733       -12.5100
  55   2.0000      -0.444411       -12.0930
  56   2.0000      -0.441546       -12.0151
  57   2.0000      -0.433192       -11.7877
  58   2.0000      -0.429743       -11.6939
  59   2.0000      -0.423329       -11.5194
  60   2.0000      -0.415814       -11.3149
  61   2.0000      -0.414257       -11.2725
  62   2.0000      -0.410551       -11.1717
  63   2.0000      -0.349525        -9.5111
  64   2.0000      -0.328078        -8.9274
  65   2.0000      -0.323560        -8.8045
  66   2.0000      -0.301838        -8.2134
  67   0.0000       0.037448         1.0190
  68   0.0000       0.078041         2.1236
  69   0.0000       0.119322         3.2469
  70   0.0000       0.121615         3.3093
  71   0.0000       0.132471         3.6047

MULLIKEN ATOMIC CHARGES
-----------------------
   0 S :    0.099514
   1 C :   -0.134475
   2 C :   -0.063456
   3 C :    0.067602
   4 C :   -0.159806
   5 H :   -0.020288
   6 C :    0.036279
   7 H :    0.002933
   8 H :    0.024084
   9 C :    0.003029
  10 H :    0.012940
  11 H :   -0.001417
  12 C :   -0.046487
  13 H :    0.036744
  14 H :    0.040476
  15 H :    0.018132
  16 S :    0.105860
  17 C :   -0.089687
  18 C :   -0.008999
  19 C :   -0.056344
  20 C :   -0.158279
  21 H :    0.017254
  22 C :    0.085416
  23 H :    0.011704
  24 H :    0.031501
  25 C :   -0.048281
  26 H :    0.032829
  27 H :    0.040080
  28 C :   -0.140096
  29 H :    0.047678
  30 H :    0.042634
  31 H :    0.040421
  32 H :    0.063290
  33 H :    0.067218
Sum of atomic charges:    0.0000000

LOEWDIN ATOMIC CHARGES
----------------------
   0 S :    0.403181
   1 C :   -0.197763
   2 C :   -0.072406
   3 C :   -0.046212
   4 C :   -0.194727
   5 H :    0.016163
   6 C :   -0.033970
   7 H :    0.028106
   8 H :    0.029657
   9 C :   -0.033664
  10 H :    0.023781
  11 H :    0.016490
  12 C :   -0.065648
  13 H :    0.023072
  14 H :    0.029776
  15 H :    0.028235
  16 S :    0.421256
  17 C :   -0.185838
  18 C :   -0.071732
  19 C :   -0.050644
  20 C :   -0.215062
  21 H :    0.031349
  22 C :   -0.037768
  23 H :    0.024976
  24 H :    0.037512
  25 C :   -0.035788
  26 H :    0.023342
  27 H :    0.026163
  28 C :   -0.082825
  29 H :    0.031156
  30 H :    0.027884
  31 H :    0.027399
  32 H :    0.040282
  33 H :    0.034266

  Mayer bond orders larger than 0.100000
B(  0-S ,  1-C ) :   1.1410 B(  0-S ,  4-C ) :   1.1409 B(  1-C ,  2-C ) :   1.6405
B(  1-C , 32-H ) :   0.9557 B(  2-C ,  3-C ) :   1.2148 B(  2-C ,  6-C ) :   1.0232
B(  3-C ,  4-C ) :   1.5928 B(  3-C ,  5-H ) :   1.0084 B(  4-C , 20-C ) :   1.0152
B(  6-C ,  7-H ) :   0.9355 B(  6-C ,  8-H ) :   0.9472 B(  6-C ,  9-C ) :   1.0832
B(  9-C , 10-H ) :   0.9494 B(  9-C , 11-H ) :   0.9469 B(  9-C , 12-C ) :   1.0802
B( 12-C , 13-H ) :   0.9743 B( 12-C , 14-H ) :   0.9734 B( 12-C , 15-H ) :   0.9699
B( 16-S , 17-C ) :   1.1485 B( 16-S , 20-C ) :   1.1524 B( 17-C , 18-C ) :   1.6205
B( 17-C , 33-H ) :   0.9666 B( 18-C , 19-C ) :   1.2154 B( 18-C , 21-H ) :   0.9954
B( 19-C , 20-C ) :   1.6100 B( 19-C , 22-C ) :   1.0659 B( 22-C , 23-H ) :   0.9368
B( 22-C , 24-H ) :   0.9272 B( 22-C , 25-C ) :   1.0555 B( 25-C , 26-H ) :   0.9521
B( 25-C , 27-H ) :   0.9614 B( 25-C , 28-C ) :   1.0811 B( 28-C , 29-H ) :   0.9754
B( 28-C , 30-H ) :   0.9750 B( 28-C , 31-H ) :   0.9758

Dispersion correction           -0.013797439
FINAL SINGLE POINT ENERGY     -1339.870440524435

DIPOLE MOMENT
-------------
                                X             Y             Z
Electronic contribution:    -17.63922     -10.99840     -19.15427
Nuclear contribution   :     17.84162      11.25815      19.59675
                        -----------------------------------------
Total Dipole Moment    :      0.20240       0.25974       0.44248
                        -----------------------------------------
Magnitude (a.u.)       :      0.55156
Magnitude (Debye)      :      1.40196

Rotational constants in cm-1:     0.017326     0.008972     0.006767
Rotational constants in MHz :   519.416676   268.967137   202.863475

                             ****ORCA TERMINATED NORMALLY****
TOTAL RUN TIME: 0 days 0 hours 0 minutes 21 seconds 391 msec
