                         Program Version 4.2.1 -  RELEASE  -
|  1> ! wB97X-D3 SP def2-SVP
|  2> %pal
|  3> nprocs 24
|  4> end
|  5>
|  6> * xyz 0 1
|  7> S 	 -132.592 	 23.3257 	 -22.5008
|  8> C 	 -133.505 	 21.8856 	 -23.0054
|  9> C 	 -133.167 	 21.595 	 -24.2885
| 10> C 	 -132.173 	 22.464 	 -24.8393
| 11> C 	 -131.726 	 23.439 	 -23.992
| 12> H 	 -131.641 	 22.3514 	 -25.7355
| 13> C 	 -133.863 	 20.5178 	 -25.0821
| 14> H 	 -134.515 	 20.9973 	 -25.8026
| 15> H 	 -134.637 	 20.1612 	 -24.3929
| 16> C 	 -133.022 	 19.4097 	 -25.5372
| 17> H 	 -132.291 	 19.7139 	 -26.3211
| 18> H 	 -132.406 	 19.002 	 -24.665
| 19> C 	 -133.911 	 18.2532 	 -25.968
| 20> H 	 -134.26 	 17.6724 	 -25.149
| 21> H 	 -134.886 	 18.7046 	 -26.4223
| 22> H 	 -133.353 	 17.6178 	 -26.7049
| 23> S 	 -130.703 	 25.8584 	 -24.7738
| 24> C 	 -128.952 	 26.0822 	 -24.6791
| 25> C 	 -128.339 	 24.8977 	 -24.3115
| 26> C 	 -129.235 	 23.8785 	 -23.9959
| 27> C 	 -130.53 	 24.1963 	 -24.2344
| 28> H 	 -127.294 	 24.8574 	 -24.197
| 29> C 	 -128.795 	 22.5434 	 -23.3789
| 30> H 	 -129.559 	 22.2206 	 -22.5909
| 31> H 	 -127.894 	 22.7383 	 -22.8559
| 32> C 	 -128.406 	 21.44 	 -24.3392
| 33> H 	 -127.333 	 21.4943 	 -24.6172
| 34> H 	 -128.955 	 21.8232 	 -25.2576
| 35> C 	 -128.873 	 20.0355 	 -23.8761
| 36> H 	 -130.005 	 19.8523 	 -23.7666
| 37> H 	 -128.411 	 19.684 	 -23.0016
| 38> H 	 -128.563 	 19.3012 	 -24.5729
| 39> H 	 -134.18 	 21.3064 	 -22.4586
| 40> H 	 -128.424 	 26.9213 	 -24.9947
| 41> *
| 42>
| 43>                          ****END OF INPUT****

CARTESIAN COORDINATES (ANGSTROEM)
---------------------------------
  S    -132.592000   23.325700  -22.500800
  C    -133.505000   21.885600  -23.005400
  C    -133.167000   21.595000  -24.288500
  C    -132.173000   22.464000  -24.839300
  C    -131.726000   23.439000  -23.992000
  H    -131.641000   22.351400  -25.735500
  C    -133.863000   20.517800  -25.082100
  H    -134.515000   20.997300  -25.802600
  H    -134.637000   20.161200  -24.392900
  C    -133.022000   19.409700  -25.537200
  H    -132.291000   19.713900  -26.321100
  H    -132.406000   19.002000  -24.665000
  C    -133.911000   18.253200  -25.968000
  H    -134.260000   17.672400  -25.149000
  H    -134.886000   18.704600  -26.422300
  H    -133.353000   17.617800  -26.704900
  S    -130.703000   25.858400  -24.773800
  C    -128.952000   26.082200  -24.679100
  C    -128.339000   24.897700  -24.311500
  C    -129.235000   23.878500  -23.995900
  C    -130.530000   24.196300  -24.234400
  H    -127.294000   24.857400  -24.197000
  C    -128.795000   22.543400  -23.378900
  H    -129.559000   22.220600  -22.590900
  H    -127.894000   22.738300  -22.855900
  C    -128.406000   21.440000  -24.339200
  H    -127.333000   21.494300  -24.617200
  H    -128.955000   21.823200  -25.257600
  C    -128.873000   20.035500  -23.876100
  H    -130.005000   19.852300  -23.766600
  H    -128.411000   19.684000  -23.001600
  H    -128.563000   19.301200  -24.572900
  H    -134.180000   21.306400  -22.458600
  H    -128.424000   26.921300  -24.994700

 Total Charge           Charge          ....    0
 Multiplicity           Mult            ....    1
 Number of Electrons    NEL             ....  134
 Basis Dimension        Dim             ....  322

ORBITAL ENERGIES
----------------

  NO   OCC          E(Eh)            E(eV)
   0   2.0000     -88.964807     -2420.8555
   1   2.0000     -88.963801     -2420.8281
   2   2.0000     -10.321905      -280.8733
   3   2.0000     -10.319854      -280.8175
   4   2.0000     -10.314889      -280.6824
   5   2.0000     -10.311038      -280.5776
   6   2.0000     -10.296055      -280.1699
   7   2.0000     -10.295682      -280.1598
   8   2.0000     -10.290724      -280.0248
   9   2.0000     -10.290635      -280.0224
  10   2.0000     -10.288099      -279.9534
  11   2.0000     -10.286703      -279.9154
  12   2.0000     -10.286076      -279.8984
  13   2.0000     -10.285975      -279.8956
  14   2.0000     -10.285569      -279.8846
  15   2.0000     -10.276796      -279.6458
  16   2.0000      -8.079284      -219.8485
  17   2.0000      -8.078258      -219.8206
  18   2.0000      -6.037754      -164.2956
  19   2.0000      -6.036872      -164.2716
  20   2.0000      -6.033802      -164.1881
  21   2.0000      -6.032671      -164.1573
  22   2.0000      -6.030132      -164.0882
  23   2.0000      -6.029012      -164.0578
  24   2.0000      -1.011285       -27.5185
  25   2.0000      -0.987815       -26.8798
  26   2.0000      -0.923513       -25.1301
  27   2.0000      -0.905726       -24.6461
  28   2.0000      -0.876681       -23.8557
  29   2.0000      -0.848296       -23.0833
  30   2.0000      -0.845373       -23.0038
  31   2.0000      -0.818854       -22.2821
  32   2.0000      -0.783181       -21.3114
  33   2.0000      -0.773757       -21.0550
  34   2.0000      -0.713405       -19.4127
  35   2.0000      -0.695744       -18.9322
  36   2.0000      -0.692253       -18.8372
  37   2.0000      -0.670085       -18.2339
  38   2.0000      -0.648363       -17.6428
  39   2.0000      -0.617899       -16.8139
  40   2.0000      -0.595762       -16.2115
  41   2.0000      -0.578150       -15.7322
  42   2.0000      -0.567364       -15.4388
  43   2.0000      -0.558947       -15.2097
  44   2.0000      -0.534188       -14.5360
  45   2.0000      -0.523286       -14.2393
  46   2.0000      -0.516718       -14.0606
  47   2.0000      -0.513658       -13.9773
  48   2.0000      -0.509067       -13.8524
  49   2.0000      -0.498396       -13.5620
  50   2.0000      -0.496044       -13.4981
  51   2.0000      -0.482367       -13.1259
  52   2.0000      -0.474794       -12.9198
  53   2.0000      -0.471416       -12.8279
  54   2.0000      -0.461670       -12.5627
  55   2.0000      -0.445009       -12.1093
  56   2.0000      -0.439555       -11.9609
  57   2.0000      -0.434985       -11.8365
  58   2.0000      -0.433168       -11.7871
  59   2.0000      -0.423130       -11.5139
  60   2.0000      -0.416966       -11.3462
  61   2.0000      -0.406173       -11.0525
  62   2.0000      -0.399891       -10.8816
  63   2.0000      -0.336460        -9.1556
  64   2.0000      -0.330036        -8.9807
  65   2.0000      -0.324294        -8.8245
  66   2.0000      -0.315414        -8.5829
  67   0.0000       0.047717         1.2985
  68   0.0000       0.052119         1.4182
  69   0.0000       0.117974         3.2102
  70   0.0000       0.123388         3.3575
  71   0.0000       0.131168         3.5693

MULLIKEN ATOMIC CHARGES
-----------------------
   0 S :    0.106968
   1 C :   -0.094045
   2 C :   -0.099381
   3 C :    0.066989
   4 C :   -0.144921
   5 H :   -0.006703
   6 C :    0.074679
   7 H :    0.038744
   8 H :   -0.005540
   9 C :   -0.090930
  10 H :    0.044781
  11 H :    0.046400
  12 C :   -0.065922
  13 H :    0.034724
  14 H :    0.035567
  15 H :    0.046620
  16 S :    0.107264
  17 C :   -0.067619
  18 C :   -0.021284
  19 C :   -0.028682
  20 C :   -0.210497
  21 H :   -0.000477
  22 C :    0.096733
  23 H :    0.047167
  24 H :    0.003286
  25 C :   -0.083897
  26 H :    0.035539
  27 H :    0.033317
  28 C :   -0.041400
  29 H :    0.049978
  30 H :    0.020182
  31 H :    0.015242
  32 H :    0.022145
  33 H :    0.034973
Sum of atomic charges:   -0.0000000

LOEWDIN ATOMIC CHARGES
----------------------
   0 S :    0.401486
   1 C :   -0.178262
   2 C :   -0.062315
   3 C :   -0.052715
   4 C :   -0.204668
   5 H :    0.022099
   6 C :   -0.039729
   7 H :    0.034450
   8 H :    0.028566
   9 C :   -0.052547
  10 H :    0.027866
  11 H :    0.034747
  12 C :   -0.067514
  13 H :    0.019761
  14 H :    0.032628
  15 H :    0.031938
  16 S :    0.400775
  17 C :   -0.164547
  18 C :   -0.064395
  19 C :   -0.057036
  20 C :   -0.199345
  21 H :    0.024778
  22 C :   -0.033791
  23 H :    0.040035
  24 H :    0.022966
  25 C :   -0.046856
  26 H :    0.027582
  27 H :    0.029002
  28 C :   -0.068444
  29 H :    0.038318
  30 H :    0.018015
  31 H :    0.020693
  32 H :    0.019475
  33 H :    0.016985

  Mayer bond orders larger than 0.100000
B(  0-S ,  1-C ) :   1.1204 B(  0-S ,  4-C ) :   1.1420 B(  1-C ,  2-C ) :   1.6360
B(  1-C , 32-H ) :   0.9741 B(  2-C ,  3-C ) :   1.2093 B(  2-C ,  6-C ) :   1.0228
B(  3-C ,  4-C ) :   1.6035 B(  3-C ,  5-H ) :   1.0011 B(  4-C , 20-C ) :   1.0087
B(  6-C ,  7-H ) :   0.9258 B(  6-C ,  8-H ) :   0.9355 B(  6-C ,  9-C ) :   1.0647
B(  9-C , 10-H ) :   0.9554 B(  9-C , 11-H ) :   0.9502 B(  9-C , 12-C ) :   1.0731
B( 12-C , 13-H ) :   0.9761 B( 12-C , 14-H ) :   0.9723 B( 12-C , 15-H ) :   0.9737
B( 16-S , 17-C ) :   1.1579 B( 16-S , 20-C ) :   1.1406 B( 17-C , 18-C ) :   1.6032
B( 17-C , 20-C ) :   0.1035 B( 17-C , 33-H ) :   0.9745 B( 18-C , 19-C ) :   1.2530
B( 18-C , 21-H ) :   0.9941 B( 19-C , 20-C ) :   1.6183 B( 19-C , 22-C ) :   1.0498
B( 22-C , 23-H ) :   0.9358 B( 22-C , 24-H ) :   0.9221 B( 22-C , 25-C ) :   1.0385
B( 25-C , 26-H ) :   0.9528 B( 25-C , 27-H ) :   0.9651 B( 25-C , 28-C ) :   1.0792
B( 28-C , 29-H ) :   0.9728 B( 28-C , 30-H ) :   0.9729 B( 28-C , 31-H ) :   0.9709

Dispersion correction           -0.015631822
FINAL SINGLE POINT ENERGY     -1339.863058563458

DIPOLE MOMENT
-------------
                                X             Y             Z
Electronic contribution:     -2.42870      29.84500       6.96810
Nuclear contribution   :      2.70050     -30.49240      -7.13755
                        -----------------------------------------
Total Dipole Moment    :      0.27179      -0.64740      -0.16945
                        -----------------------------------------
Magnitude (a.u.)       :      0.72230
Magnitude (Debye)      :      1.83594

Rotational constants in cm-1:     0.020116     0.008904     0.007365
Rotational constants in MHz :   603.064624   266.923862   220.802816

                             ****ORCA TERMINATED NORMALLY****
TOTAL RUN TIME: 0 days 0 hours 0 minutes 21 seconds 630 msec
