                         Program Version 4.2.1 -  RELEASE  -
|  1> ! wB97X-D3 SP def2-SVP
|  2> %pal
|  3> nprocs 24
|  4> end
|  5>
|  6> * xyz 0 1
|  7> S 	 -110.85 	 61.3592 	 -70.71
|  8> C 	 -109.589 	 62.4466 	 -70.9375
|  9> C 	 -110.059 	 63.7745 	 -71.0767
| 10> C 	 -111.489 	 63.8239 	 -71.1017
| 11> C 	 -112.039 	 62.5782 	 -71.1161
| 12> H 	 -112.133 	 64.7102 	 -71.1371
| 13> C 	 -109.112 	 65.0171 	 -71.1465
| 14> H 	 -108.389 	 64.9521 	 -70.4049
| 15> H 	 -109.702 	 65.8708 	 -70.7679
| 16> C 	 -108.382 	 65.2569 	 -72.5321
| 17> H 	 -107.678 	 66.1018 	 -72.4687
| 18> H 	 -107.78 	 64.372 	 -72.6686
| 19> C 	 -109.287 	 65.3026 	 -73.7399
| 20> H 	 -109.855 	 64.3526 	 -73.7654
| 21> H 	 -109.988 	 66.0938 	 -73.449
| 22> H 	 -108.868 	 65.4106 	 -74.7323
| 23> S 	 -113.844 	 60.552 	 -70.6755
| 24> C 	 -115.549 	 60.8255 	 -71.0768
| 25> C 	 -115.727 	 62.0219 	 -71.731
| 26> C 	 -114.501 	 62.7622 	 -71.8285
| 27> C 	 -113.411 	 62.1656 	 -71.2582
| 28> H 	 -116.679 	 62.2001 	 -72.1656
| 29> C 	 -114.448 	 64.1748 	 -72.5149
| 30> H 	 -114.132 	 64.8439 	 -71.693
| 31> H 	 -115.43 	 64.6148 	 -72.6985
| 32> C 	 -113.628 	 64.387 	 -73.8737
| 33> H 	 -112.589 	 64.0549 	 -73.7501
| 34> H 	 -113.54 	 65.4678 	 -74.0616
| 35> C 	 -114.247 	 63.6436 	 -75.0894
| 36> H 	 -113.651 	 63.6565 	 -75.9684
| 37> H 	 -115.094 	 64.223 	 -75.2893
| 38> H 	 -114.474 	 62.6271 	 -75.0217
| 39> H 	 -108.507 	 62.1742 	 -70.7331
| 40> H 	 -116.421 	 60.2295 	 -70.7503
| 41> *
| 42>
| 43>                          ****END OF INPUT****

CARTESIAN COORDINATES (ANGSTROEM)
---------------------------------
  S    -110.850000   61.359200  -70.710000
  C    -109.589000   62.446600  -70.937500
  C    -110.059000   63.774500  -71.076700
  C    -111.489000   63.823900  -71.101700
  C    -112.039000   62.578200  -71.116100
  H    -112.133000   64.710200  -71.137100
  C    -109.112000   65.017100  -71.146500
  H    -108.389000   64.952100  -70.404900
  H    -109.702000   65.870800  -70.767900
  C    -108.382000   65.256900  -72.532100
  H    -107.678000   66.101800  -72.468700
  H    -107.780000   64.372000  -72.668600
  C    -109.287000   65.302600  -73.739900
  H    -109.855000   64.352600  -73.765400
  H    -109.988000   66.093800  -73.449000
  H    -108.868000   65.410600  -74.732300
  S    -113.844000   60.552000  -70.675500
  C    -115.549000   60.825500  -71.076800
  C    -115.727000   62.021900  -71.731000
  C    -114.501000   62.762200  -71.828500
  C    -113.411000   62.165600  -71.258200
  H    -116.679000   62.200100  -72.165600
  C    -114.448000   64.174800  -72.514900
  H    -114.132000   64.843900  -71.693000
  H    -115.430000   64.614800  -72.698500
  C    -113.628000   64.387000  -73.873700
  H    -112.589000   64.054900  -73.750100
  H    -113.540000   65.467800  -74.061600
  C    -114.247000   63.643600  -75.089400
  H    -113.651000   63.656500  -75.968400
  H    -115.094000   64.223000  -75.289300
  H    -114.474000   62.627100  -75.021700
  H    -108.507000   62.174200  -70.733100
  H    -116.421000   60.229500  -70.750300

 Total Charge           Charge          ....    0
 Multiplicity           Mult            ....    1
 Number of Electrons    NEL             ....  134
 Basis Dimension        Dim             ....  322

ORBITAL ENERGIES
----------------

  NO   OCC          E(Eh)            E(eV)
   0   2.0000     -88.966115     -2420.8911
   1   2.0000     -88.964940     -2420.8591
   2   2.0000     -10.326964      -281.0110
   3   2.0000     -10.326739      -281.0049
   4   2.0000     -10.320799      -280.8432
   5   2.0000     -10.316977      -280.7392
   6   2.0000     -10.307811      -280.4898
   7   2.0000     -10.307013      -280.4681
   8   2.0000     -10.300639      -280.2946
   9   2.0000     -10.295785      -280.1626
  10   2.0000     -10.294665      -280.1321
  11   2.0000     -10.293613      -280.1034
  12   2.0000     -10.292839      -280.0824
  13   2.0000     -10.287593      -279.9396
  14   2.0000     -10.273569      -279.5580
  15   2.0000     -10.263671      -279.2887
  16   2.0000      -8.082450      -219.9346
  17   2.0000      -8.079290      -219.8487
  18   2.0000      -6.040864      -164.3803
  19   2.0000      -6.037998      -164.3023
  20   2.0000      -6.036811      -164.2700
  21   2.0000      -6.033977      -164.1929
  22   2.0000      -6.033136      -164.1700
  23   2.0000      -6.029747      -164.0777
  24   2.0000      -1.013378       -27.5754
  25   2.0000      -0.985157       -26.8075
  26   2.0000      -0.905110       -24.6293
  27   2.0000      -0.894297       -24.3350
  28   2.0000      -0.872491       -23.7417
  29   2.0000      -0.855141       -23.2696
  30   2.0000      -0.842617       -22.9288
  31   2.0000      -0.816969       -22.2309
  32   2.0000      -0.784352       -21.3433
  33   2.0000      -0.772098       -21.0099
  34   2.0000      -0.707551       -19.2534
  35   2.0000      -0.698186       -18.9986
  36   2.0000      -0.689688       -18.7674
  37   2.0000      -0.667290       -18.1579
  38   2.0000      -0.638025       -17.3616
  39   2.0000      -0.616980       -16.7889
  40   2.0000      -0.587374       -15.9833
  41   2.0000      -0.569255       -15.4902
  42   2.0000      -0.552886       -15.0448
  43   2.0000      -0.549428       -14.9507
  44   2.0000      -0.543813       -14.7979
  45   2.0000      -0.539500       -14.6806
  46   2.0000      -0.511960       -13.9311
  47   2.0000      -0.510662       -13.8958
  48   2.0000      -0.500776       -13.6268
  49   2.0000      -0.499768       -13.5994
  50   2.0000      -0.485074       -13.1995
  51   2.0000      -0.476451       -12.9649
  52   2.0000      -0.473396       -12.8818
  53   2.0000      -0.468705       -12.7541
  54   2.0000      -0.456356       -12.4181
  55   2.0000      -0.450923       -12.2702
  56   2.0000      -0.447774       -12.1845
  57   2.0000      -0.435201       -11.8424
  58   2.0000      -0.432569       -11.7708
  59   2.0000      -0.420216       -11.4347
  60   2.0000      -0.416867       -11.3435
  61   2.0000      -0.411003       -11.1839
  62   2.0000      -0.406811       -11.0699
  63   2.0000      -0.365147        -9.9362
  64   2.0000      -0.338736        -9.2175
  65   2.0000      -0.326673        -8.8892
  66   2.0000      -0.279301        -7.6002
  67   0.0000       0.018227         0.4960
  68   0.0000       0.077567         2.1107
  69   0.0000       0.093540         2.5453
  70   0.0000       0.119412         3.2494
  71   0.0000       0.131563         3.5800

MULLIKEN ATOMIC CHARGES
-----------------------
   0 S :    0.109813
   1 C :   -0.121233
   2 C :   -0.136491
   3 C :    0.001815
   4 C :   -0.115429
   5 H :    0.016648
   6 C :    0.087699
   7 H :    0.009031
   8 H :    0.020714
   9 C :   -0.064572
  10 H :    0.035750
  11 H :    0.016137
  12 C :   -0.060502
  13 H :    0.049846
  14 H :    0.025140
  15 H :    0.042226
  16 S :    0.081880
  17 C :   -0.099393
  18 C :   -0.021811
  19 C :   -0.051999
  20 C :   -0.099779
  21 H :    0.012095
  22 C :    0.010119
  23 H :    0.037411
  24 H :    0.010870
  25 C :   -0.070989
  26 H :    0.041954
  27 H :    0.032445
  28 C :   -0.003521
  29 H :    0.018360
  30 H :    0.011014
  31 H :    0.029460
  32 H :    0.074528
  33 H :    0.070766
Sum of atomic charges:    0.0000000

LOEWDIN ATOMIC CHARGES
----------------------
   0 S :    0.430945
   1 C :   -0.229330
   2 C :   -0.064553
   3 C :   -0.065580
   4 C :   -0.184880
   5 H :    0.036077
   6 C :   -0.025538
   7 H :    0.020944
   8 H :    0.029752
   9 C :   -0.038986
  10 H :    0.024263
  11 H :    0.018723
  12 C :   -0.070743
  13 H :    0.030863
  14 H :    0.024512
  15 H :    0.026319
  16 S :    0.375182
  17 C :   -0.178984
  18 C :   -0.068132
  19 C :   -0.059404
  20 C :   -0.184585
  21 H :    0.030201
  22 C :   -0.037966
  23 H :    0.030993
  24 H :    0.026579
  25 C :   -0.034542
  26 H :    0.021390
  27 H :    0.027659
  28 C :   -0.057443
  29 H :    0.024892
  30 H :    0.018249
  31 H :    0.021737
  32 H :    0.041801
  33 H :    0.039587

  Mayer bond orders larger than 0.100000
B(  0-S ,  1-C ) :   1.1683 B(  0-S ,  4-C ) :   1.1511 B(  1-C ,  2-C ) :   1.5776
B(  1-C , 32-H ) :   0.9602 B(  2-C ,  3-C ) :   1.2570 B(  2-C ,  6-C ) :   1.0106
B(  3-C ,  4-C ) :   1.5496 B(  3-C ,  5-H ) :   0.9929 B(  4-C , 20-C ) :   1.0930
B(  6-C ,  7-H ) :   0.9405 B(  6-C ,  8-H ) :   0.9451 B(  6-C ,  9-C ) :   1.0586
B(  9-C , 10-H ) :   0.9586 B(  9-C , 11-H ) :   0.9562 B(  9-C , 12-C ) :   1.0724
B( 12-C , 13-H ) :   0.9675 B( 12-C , 14-H ) :   0.9796 B( 12-C , 15-H ) :   0.9734
B( 16-S , 17-C ) :   1.1380 B( 16-S , 20-C ) :   1.1090 B( 17-C , 18-C ) :   1.6418
B( 17-C , 33-H ) :   0.9598 B( 18-C , 19-C ) :   1.2187 B( 18-C , 21-H ) :   0.9968
B( 19-C , 20-C ) :   1.6281 B( 19-C , 22-C ) :   1.0171 B( 22-C , 23-H ) :   0.9415
B( 22-C , 24-H ) :   0.9401 B( 22-C , 25-C ) :   1.0529 B( 25-C , 26-H ) :   0.9585
B( 25-C , 27-H ) :   0.9568 B( 25-C , 28-C ) :   1.0663 B( 28-C , 29-H ) :   0.9723
B( 28-C , 30-H ) :   0.9770 B( 28-C , 31-H ) :   0.9789

Dispersion correction           -0.015568440
FINAL SINGLE POINT ENERGY     -1339.863447162241

DIPOLE MOMENT
-------------
                                X             Y             Z
Electronic contribution:     -5.32699     -22.50747      18.20150
Nuclear contribution   :      5.26350      23.05022     -18.39701
                        -----------------------------------------
Total Dipole Moment    :     -0.06349       0.54275      -0.19551
                        -----------------------------------------
Magnitude (a.u.)       :      0.58038
Magnitude (Debye)      :      1.47520

Rotational constants in cm-1:     0.019522     0.010008     0.007241
Rotational constants in MHz :   585.253341   300.026831   217.074927

                             ****ORCA TERMINATED NORMALLY****
TOTAL RUN TIME: 0 days 0 hours 0 minutes 22 seconds 641 msec
