                         Program Version 4.2.1 -  RELEASE  -
|  1> ! wB97X-D3 SP def2-SVP
|  2> %pal
|  3> nprocs 24
|  4> end
|  5>
|  6> * xyz 0 1
|  7> S 	 -64.7185 	 14.3298 	 -75.7305
|  8> C 	 -65.8489 	 13.5917 	 -74.5737
|  9> C 	 -65.3983 	 13.8429 	 -73.3028
| 10> C 	 -64.0432 	 14.3582 	 -73.2619
| 11> C 	 -63.5204 	 14.6149 	 -74.5419
| 12> H 	 -63.4633 	 14.6134 	 -72.3788
| 13> C 	 -66.2107 	 13.464 	 -72.1166
| 14> H 	 -65.5742 	 12.9506 	 -71.3642
| 15> H 	 -66.9732 	 12.7569 	 -72.4382
| 16> C 	 -66.9926 	 14.6164 	 -71.4686
| 17> H 	 -67.3187 	 14.292 	 -70.3962
| 18> H 	 -66.419 	 15.491 	 -71.3237
| 19> C 	 -68.2935 	 14.9558 	 -72.2447
| 20> H 	 -68.7333 	 15.7786 	 -71.7634
| 21> H 	 -67.8796 	 15.3694 	 -73.1935
| 22> H 	 -68.9787 	 14.1299 	 -72.4664
| 23> S 	 -61.1995 	 14.0548 	 -75.7959
| 24> C 	 -59.7588 	 14.8873 	 -75.4824
| 25> C 	 -60.0384 	 15.995 	 -74.7497
| 26> C 	 -61.3962 	 16.0213 	 -74.2574
| 27> C 	 -62.1683 	 15.0074 	 -74.8235
| 28> H 	 -59.2975 	 16.7462 	 -74.4602
| 29> C 	 -61.9236 	 17.0504 	 -73.2833
| 30> H 	 -61.0703 	 17.5355 	 -72.7581
| 31> H 	 -62.221 	 16.5188 	 -72.4377
| 32> C 	 -62.9159 	 18.1851 	 -73.6943
| 33> H 	 -63.8082 	 17.7974 	 -74.1324
| 34> H 	 -62.3217 	 18.7891 	 -74.3797
| 35> C 	 -63.3189 	 19.0066 	 -72.4978
| 36> H 	 -64.0009 	 19.8508 	 -72.8444
| 37> H 	 -62.4303 	 19.4127 	 -71.9105
| 38> H 	 -63.9414 	 18.441 	 -71.8764
| 39> H 	 -66.8108 	 13.301 	 -74.714
| 40> H 	 -58.7355 	 14.6727 	 -75.7691
| 41> *
| 42>
| 43>                          ****END OF INPUT****

CARTESIAN COORDINATES (ANGSTROEM)
---------------------------------
  S    -64.718500   14.329800  -75.730500
  C    -65.848900   13.591700  -74.573700
  C    -65.398300   13.842900  -73.302800
  C    -64.043200   14.358200  -73.261900
  C    -63.520400   14.614900  -74.541900
  H    -63.463300   14.613400  -72.378800
  C    -66.210700   13.464000  -72.116600
  H    -65.574200   12.950600  -71.364200
  H    -66.973200   12.756900  -72.438200
  C    -66.992600   14.616400  -71.468600
  H    -67.318700   14.292000  -70.396200
  H    -66.419000   15.491000  -71.323700
  C    -68.293500   14.955800  -72.244700
  H    -68.733300   15.778600  -71.763400
  H    -67.879600   15.369400  -73.193500
  H    -68.978700   14.129900  -72.466400
  S    -61.199500   14.054800  -75.795900
  C    -59.758800   14.887300  -75.482400
  C    -60.038400   15.995000  -74.749700
  C    -61.396200   16.021300  -74.257400
  C    -62.168300   15.007400  -74.823500
  H    -59.297500   16.746200  -74.460200
  C    -61.923600   17.050400  -73.283300
  H    -61.070300   17.535500  -72.758100
  H    -62.221000   16.518800  -72.437700
  C    -62.915900   18.185100  -73.694300
  H    -63.808200   17.797400  -74.132400
  H    -62.321700   18.789100  -74.379700
  C    -63.318900   19.006600  -72.497800
  H    -64.000900   19.850800  -72.844400
  H    -62.430300   19.412700  -71.910500
  H    -63.941400   18.441000  -71.876400
  H    -66.810800   13.301000  -74.714000
  H    -58.735500   14.672700  -75.769100

 Total Charge           Charge          ....    0
 Multiplicity           Mult            ....    1
 Number of Electrons    NEL             ....  134
 Basis Dimension        Dim             ....  322

ORBITAL ENERGIES
----------------

  NO   OCC          E(Eh)            E(eV)
   0   2.0000     -88.966889     -2420.9121
   1   2.0000     -88.964233     -2420.8399
   2   2.0000     -10.331295      -281.1288
   3   2.0000     -10.319907      -280.8189
   4   2.0000     -10.311584      -280.5925
   5   2.0000     -10.307330      -280.4767
   6   2.0000     -10.302275      -280.3391
   7   2.0000     -10.300804      -280.2991
   8   2.0000     -10.297346      -280.2050
   9   2.0000     -10.292142      -280.0634
  10   2.0000     -10.291949      -280.0582
  11   2.0000     -10.291629      -280.0495
  12   2.0000     -10.286436      -279.9082
  13   2.0000     -10.283758      -279.8353
  14   2.0000     -10.281536      -279.7748
  15   2.0000     -10.277818      -279.6736
  16   2.0000      -8.081702      -219.9143
  17   2.0000      -8.081474      -219.9081
  18   2.0000      -6.040273      -164.3642
  19   2.0000      -6.039834      -164.3522
  20   2.0000      -6.036129      -164.2514
  21   2.0000      -6.035339      -164.2299
  22   2.0000      -6.032494      -164.1525
  23   2.0000      -6.032450      -164.1513
  24   2.0000      -1.020658       -27.7735
  25   2.0000      -0.991550       -26.9814
  26   2.0000      -0.916763       -24.9464
  27   2.0000      -0.909699       -24.7542
  28   2.0000      -0.875739       -23.8301
  29   2.0000      -0.855031       -23.2666
  30   2.0000      -0.844576       -22.9821
  31   2.0000      -0.819062       -22.2878
  32   2.0000      -0.783506       -21.3203
  33   2.0000      -0.773928       -21.0596
  34   2.0000      -0.714212       -19.4347
  35   2.0000      -0.698467       -19.0063
  36   2.0000      -0.694975       -18.9112
  37   2.0000      -0.662847       -18.0370
  38   2.0000      -0.642065       -17.4715
  39   2.0000      -0.620638       -16.8884
  40   2.0000      -0.598191       -16.2776
  41   2.0000      -0.578534       -15.7427
  42   2.0000      -0.569838       -15.5061
  43   2.0000      -0.553102       -15.0507
  44   2.0000      -0.537083       -14.6148
  45   2.0000      -0.527310       -14.3488
  46   2.0000      -0.520648       -14.1675
  47   2.0000      -0.517864       -14.0918
  48   2.0000      -0.508630       -13.8405
  49   2.0000      -0.504586       -13.7305
  50   2.0000      -0.489569       -13.3219
  51   2.0000      -0.479211       -13.0400
  52   2.0000      -0.478281       -13.0147
  53   2.0000      -0.471451       -12.8288
  54   2.0000      -0.461433       -12.5562
  55   2.0000      -0.446925       -12.1614
  56   2.0000      -0.445136       -12.1128
  57   2.0000      -0.435458       -11.8494
  58   2.0000      -0.430836       -11.7236
  59   2.0000      -0.427908       -11.6440
  60   2.0000      -0.423546       -11.5253
  61   2.0000      -0.414969       -11.2919
  62   2.0000      -0.403052       -10.9676
  63   2.0000      -0.351088        -9.5536
  64   2.0000      -0.329315        -8.9611
  65   2.0000      -0.326347        -8.8803
  66   2.0000      -0.296855        -8.0778
  67   0.0000       0.032365         0.8807
  68   0.0000       0.073255         1.9934
  69   0.0000       0.111320         3.0292
  70   0.0000       0.125151         3.4055
  71   0.0000       0.130160         3.5418

MULLIKEN ATOMIC CHARGES
-----------------------
   0 S :    0.110858
   1 C :   -0.061476
   2 C :   -0.107528
   3 C :    0.035019
   4 C :   -0.157928
   5 H :    0.012495
   6 C :    0.065583
   7 H :    0.038323
   8 H :    0.014350
   9 C :   -0.090683
  10 H :    0.034249
  11 H :    0.021967
  12 C :   -0.050051
  13 H :    0.027431
  14 H :    0.031202
  15 H :    0.043378
  16 S :    0.133656
  17 C :   -0.083456
  18 C :   -0.038207
  19 C :   -0.061773
  20 C :   -0.132782
  21 H :    0.020491
  22 C :    0.063182
  23 H :   -0.004324
  24 H :   -0.012203
  25 C :   -0.008977
  26 H :    0.032418
  27 H :    0.030621
  28 C :   -0.070454
  29 H :    0.042415
  30 H :    0.041330
  31 H :    0.017495
  32 H :    0.006966
  33 H :    0.056412
Sum of atomic charges:   -0.0000000

LOEWDIN ATOMIC CHARGES
----------------------
   0 S :    0.411092
   1 C :   -0.179412
   2 C :   -0.058778
   3 C :   -0.064041
   4 C :   -0.201037
   5 H :    0.029266
   6 C :   -0.035153
   7 H :    0.035716
   8 H :    0.030357
   9 C :   -0.037718
  10 H :    0.028010
  11 H :    0.015474
  12 C :   -0.066332
  13 H :    0.020219
  14 H :    0.029806
  15 H :    0.025897
  16 S :    0.472187
  17 C :   -0.209300
  18 C :   -0.075141
  19 C :   -0.056155
  20 C :   -0.232652
  21 H :    0.032391
  22 C :   -0.042846
  23 H :    0.032223
  24 H :    0.017615
  25 C :   -0.029234
  26 H :    0.023483
  27 H :    0.025745
  28 C :   -0.067208
  29 H :    0.035667
  30 H :    0.030967
  31 H :    0.013935
  32 H :    0.007843
  33 H :    0.037115

  Mayer bond orders larger than 0.100000
B(  0-S ,  1-C ) :   1.1173 B(  0-S ,  4-C ) :   1.1672 B(  1-C ,  2-C ) :   1.6143
B(  1-C , 32-H ) :   0.9725 B(  2-C ,  3-C ) :   1.2308 B(  2-C ,  6-C ) :   1.0403
B(  3-C ,  4-C ) :   1.5527 B(  3-C ,  5-H ) :   0.9940 B(  4-C , 20-C ) :   1.0366
B(  6-C ,  7-H ) :   0.9415 B(  6-C ,  8-H ) :   0.9415 B(  6-C ,  9-C ) :   1.0563
B(  9-C , 10-H ) :   0.9567 B(  9-C , 11-H ) :   0.9599 B(  9-C , 12-C ) :   1.0735
B( 12-C , 13-H ) :   0.9724 B( 12-C , 14-H ) :   0.9743 B( 12-C , 15-H ) :   0.9762
B( 16-S , 17-C ) :   1.1829 B( 16-S , 20-C ) :   1.1715 B( 17-C , 18-C ) :   1.5655
B( 17-C , 33-H ) :   0.9691 B( 18-C , 19-C ) :   1.2917 B( 18-C , 21-H ) :   0.9869
B( 19-C , 20-C ) :   1.5449 B( 19-C , 22-C ) :   1.0467 B( 22-C , 23-H ) :   0.9195
B( 22-C , 24-H ) :   0.9214 B( 22-C , 25-C ) :   1.0528 B( 25-C , 26-H ) :   0.9536
B( 25-C , 27-H ) :   0.9557 B( 25-C , 28-C ) :   1.0879 B( 28-C , 29-H ) :   0.9709
B( 28-C , 30-H ) :   0.9725 B( 28-C , 31-H ) :   0.9749

Dispersion correction           -0.014619802
FINAL SINGLE POINT ENERGY     -1339.866963651106

DIPOLE MOMENT
-------------
                                X             Y             Z
Electronic contribution:     14.82459     -14.74923     -21.09212
Nuclear contribution   :    -14.85796      15.06630      21.71915
                        -----------------------------------------
Total Dipole Moment    :     -0.03336       0.31707       0.62703
                        -----------------------------------------
Magnitude (a.u.)       :      0.70343
Magnitude (Debye)      :      1.78798

Rotational constants in cm-1:     0.019372     0.009151     0.007011
Rotational constants in MHz :   580.749704   274.333684   210.169556

                             ****ORCA TERMINATED NORMALLY****
TOTAL RUN TIME: 0 days 0 hours 0 minutes 22 seconds 84 msec
