                         Program Version 4.2.1 -  RELEASE  -
|  1> ! wB97X-D3 SP def2-SVP
|  2> %pal
|  3> nprocs 24
|  4> end
|  5>
|  6> * xyz 0 1
|  7> S 	 -2.89858 	 -25.7059 	 -108.503
|  8> C 	 -3.13393 	 -24.0472 	 -109.204
|  9> C 	 -3.97558 	 -23.304 	 -108.425
| 10> C 	 -4.43525 	 -23.9866 	 -107.237
| 11> C 	 -3.97553 	 -25.3509 	 -107.172
| 12> H 	 -5.10349 	 -23.6127 	 -106.507
| 13> C 	 -4.3369 	 -21.8958 	 -108.708
| 14> H 	 -3.67578 	 -21.4553 	 -109.546
| 15> H 	 -3.9778 	 -21.2753 	 -107.891
| 16> C 	 -5.80978 	 -21.5034 	 -108.89
| 17> H 	 -6.35588 	 -21.5279 	 -107.913
| 18> H 	 -5.85865 	 -20.4398 	 -109.171
| 19> C 	 -6.49101 	 -22.3544 	 -109.917
| 20> H 	 -7.45064 	 -21.9461 	 -110.279
| 21> H 	 -5.87608 	 -22.6589 	 -110.794
| 22> H 	 -6.65987 	 -23.2702 	 -109.425
| 23> S 	 -2.78819 	 -26.8898 	 -105.224
| 24> C 	 -3.85455 	 -27.9505 	 -104.27
| 25> C 	 -5.22794 	 -27.825 	 -104.58
| 26> C 	 -5.42598 	 -26.8557 	 -105.599
| 27> C 	 -4.20733 	 -26.3731 	 -106.115
| 28> H 	 -5.99757 	 -28.3152 	 -103.989
| 29> C 	 -6.7599 	 -26.4728 	 -106.152
| 30> H 	 -6.7706 	 -25.387 	 -106.205
| 31> H 	 -7.54535 	 -26.6633 	 -105.446
| 32> C 	 -7.04064 	 -27.0933 	 -107.503
| 33> H 	 -6.11259 	 -27.1369 	 -108.107
| 34> H 	 -7.8241 	 -26.5682 	 -108.098
| 35> C 	 -7.61545 	 -28.5119 	 -107.292
| 36> H 	 -6.96805 	 -29.2842 	 -106.853
| 37> H 	 -7.90031 	 -29.0281 	 -108.183
| 38> H 	 -8.43609 	 -28.5087 	 -106.567
| 39> H 	 -2.45061 	 -23.5723 	 -109.966
| 40> H 	 -3.47274 	 -28.6696 	 -103.536
| 41> *
| 42>
| 43>                          ****END OF INPUT****

CARTESIAN COORDINATES (ANGSTROEM)
---------------------------------
  S     -2.898580  -25.705900  -108.503000
  C     -3.133930  -24.047200  -109.204000
  C     -3.975580  -23.304000  -108.425000
  C     -4.435250  -23.986600  -107.237000
  C     -3.975530  -25.350900  -107.172000
  H     -5.103490  -23.612700  -106.507000
  C     -4.336900  -21.895800  -108.708000
  H     -3.675780  -21.455300  -109.546000
  H     -3.977800  -21.275300  -107.891000
  C     -5.809780  -21.503400  -108.890000
  H     -6.355880  -21.527900  -107.913000
  H     -5.858650  -20.439800  -109.171000
  C     -6.491010  -22.354400  -109.917000
  H     -7.450640  -21.946100  -110.279000
  H     -5.876080  -22.658900  -110.794000
  H     -6.659870  -23.270200  -109.425000
  S     -2.788190  -26.889800  -105.224000
  C     -3.854550  -27.950500  -104.270000
  C     -5.227940  -27.825000  -104.580000
  C     -5.425980  -26.855700  -105.599000
  C     -4.207330  -26.373100  -106.115000
  H     -5.997570  -28.315200  -103.989000
  C     -6.759900  -26.472800  -106.152000
  H     -6.770600  -25.387000  -106.205000
  H     -7.545350  -26.663300  -105.446000
  C     -7.040640  -27.093300  -107.503000
  H     -6.112590  -27.136900  -108.107000
  H     -7.824100  -26.568200  -108.098000
  C     -7.615450  -28.511900  -107.292000
  H     -6.968050  -29.284200  -106.853000
  H     -7.900310  -29.028100  -108.183000
  H     -8.436090  -28.508700  -106.567000
  H     -2.450610  -23.572300  -109.966000
  H     -3.472740  -28.669600  -103.536000

 Total Charge           Charge          ....    0
 Multiplicity           Mult            ....    1
 Number of Electrons    NEL             ....  134
 Basis Dimension        Dim             ....  322

ORBITAL ENERGIES
----------------

  NO   OCC          E(Eh)            E(eV)
   0   2.0000     -88.973317     -2421.0871
   1   2.0000     -88.967674     -2420.9335
   2   2.0000     -10.339386      -281.3490
   3   2.0000     -10.329039      -281.0674
   4   2.0000     -10.325234      -280.9639
   5   2.0000     -10.319930      -280.8196
   6   2.0000     -10.305983      -280.4401
   7   2.0000     -10.303458      -280.3713
   8   2.0000     -10.300576      -280.2929
   9   2.0000     -10.300030      -280.2781
  10   2.0000     -10.295076      -280.1433
  11   2.0000     -10.289992      -280.0049
  12   2.0000     -10.288717      -279.9702
  13   2.0000     -10.286798      -279.9180
  14   2.0000     -10.271549      -279.5031
  15   2.0000     -10.270301      -279.4691
  16   2.0000      -8.087156      -220.0627
  17   2.0000      -8.081276      -219.9027
  18   2.0000      -6.045505      -164.5066
  19   2.0000      -6.041877      -164.4078
  20   2.0000      -6.039844      -164.3525
  21   2.0000      -6.038045      -164.3036
  22   2.0000      -6.035875      -164.2445
  23   2.0000      -6.032097      -164.1417
  24   2.0000      -0.999417       -27.1955
  25   2.0000      -0.976857       -26.5816
  26   2.0000      -0.914840       -24.8941
  27   2.0000      -0.912114       -24.8199
  28   2.0000      -0.865960       -23.5640
  29   2.0000      -0.847676       -23.0664
  30   2.0000      -0.840756       -22.8781
  31   2.0000      -0.808905       -22.0114
  32   2.0000      -0.784658       -21.3516
  33   2.0000      -0.771578       -20.9957
  34   2.0000      -0.709686       -19.3115
  35   2.0000      -0.696649       -18.9568
  36   2.0000      -0.687098       -18.6969
  37   2.0000      -0.663651       -18.0589
  38   2.0000      -0.634141       -17.2558
  39   2.0000      -0.616356       -16.7719
  40   2.0000      -0.597200       -16.2506
  41   2.0000      -0.564399       -15.3581
  42   2.0000      -0.556193       -15.1348
  43   2.0000      -0.548517       -14.9259
  44   2.0000      -0.544761       -14.8237
  45   2.0000      -0.540783       -14.7155
  46   2.0000      -0.516595       -14.0573
  47   2.0000      -0.503522       -13.7015
  48   2.0000      -0.498551       -13.5663
  49   2.0000      -0.492417       -13.3993
  50   2.0000      -0.482500       -13.1295
  51   2.0000      -0.473049       -12.8723
  52   2.0000      -0.471331       -12.8256
  53   2.0000      -0.463963       -12.6251
  54   2.0000      -0.458270       -12.4702
  55   2.0000      -0.448687       -12.2094
  56   2.0000      -0.444665       -12.0999
  57   2.0000      -0.441325       -12.0091
  58   2.0000      -0.430591       -11.7170
  59   2.0000      -0.424652       -11.5554
  60   2.0000      -0.419569       -11.4171
  61   2.0000      -0.414018       -11.2660
  62   2.0000      -0.410981       -11.1834
  63   2.0000      -0.340664        -9.2700
  64   2.0000      -0.331534        -9.0215
  65   2.0000      -0.327921        -8.9232
  66   2.0000      -0.294471        -8.0130
  67   0.0000       0.023905         0.6505
  68   0.0000       0.061370         1.6700
  69   0.0000       0.103201         2.8083
  70   0.0000       0.114776         3.1232
  71   0.0000       0.118925         3.2361

MULLIKEN ATOMIC CHARGES
-----------------------
   0 S :    0.097926
   1 C :   -0.144276
   2 C :   -0.074632
   3 C :    0.065980
   4 C :   -0.184353
   5 H :    0.004953
   6 C :    0.024036
   7 H :    0.027735
   8 H :    0.031334
   9 C :   -0.082651
  10 H :    0.032773
  11 H :    0.029669
  12 C :   -0.029629
  13 H :    0.036206
  14 H :    0.032550
  15 H :    0.021525
  16 S :    0.129054
  17 C :   -0.109215
  18 C :   -0.027162
  19 C :   -0.048155
  20 C :   -0.169292
  21 H :    0.026605
  22 C :    0.113254
  23 H :    0.012953
  24 H :    0.006200
  25 C :   -0.053999
  26 H :    0.050164
  27 H :    0.039651
  28 C :   -0.062004
  29 H :    0.024277
  30 H :    0.025399
  31 H :    0.015114
  32 H :    0.074126
  33 H :    0.063883
Sum of atomic charges:    0.0000000

LOEWDIN ATOMIC CHARGES
----------------------
   0 S :    0.382211
   1 C :   -0.195431
   2 C :   -0.065710
   3 C :   -0.059132
   4 C :   -0.189552
   5 H :    0.022804
   6 C :   -0.043018
   7 H :    0.037210
   8 H :    0.034135
   9 C :   -0.045518
  10 H :    0.026615
  11 H :    0.025844
  12 C :   -0.069350
  13 H :    0.027475
  14 H :    0.030760
  15 H :    0.021485
  16 S :    0.409111
  17 C :   -0.178178
  18 C :   -0.067520
  19 C :   -0.046564
  20 C :   -0.210967
  21 H :    0.035895
  22 C :   -0.032775
  23 H :    0.030305
  24 H :    0.025901
  25 C :   -0.034271
  26 H :    0.032058
  27 H :    0.030224
  28 C :   -0.073939
  29 H :    0.025440
  30 H :    0.021093
  31 H :    0.020885
  32 H :    0.043342
  33 H :    0.029130

  Mayer bond orders larger than 0.100000
B(  0-S ,  1-C ) :   1.1078 B(  0-S ,  4-C ) :   1.1677 B(  1-C ,  2-C ) :   1.6336
B(  1-C , 32-H ) :   0.9547 B(  2-C ,  3-C ) :   1.2184 B(  2-C ,  6-C ) :   1.0311
B(  3-C ,  4-C ) :   1.5556 B(  3-C ,  5-H ) :   0.9963 B(  4-C , 20-C ) :   1.0164
B(  6-C ,  7-H ) :   0.9427 B(  6-C ,  8-H ) :   0.9327 B(  6-C ,  9-C ) :   1.0769
B(  9-C , 10-H ) :   0.9530 B(  9-C , 11-H ) :   0.9538 B(  9-C , 12-C ) :   1.0733
B( 12-C , 13-H ) :   0.9738 B( 12-C , 14-H ) :   0.9751 B( 12-C , 15-H ) :   0.9666
B( 16-S , 17-C ) :   1.1612 B( 16-S , 20-C ) :   1.1582 B( 17-C , 18-C ) :   1.5892
B( 17-C , 20-C ) :   0.1088 B( 17-C , 33-H ) :   0.9644 B( 18-C , 19-C ) :   1.2630
B( 18-C , 21-H ) :   0.9865 B( 19-C , 20-C ) :   1.5715 B( 19-C , 22-C ) :   1.0519
B( 22-C , 23-H ) :   0.9188 B( 22-C , 24-H ) :   0.9316 B( 22-C , 25-C ) :   1.0638
B( 25-C , 26-H ) :   0.9571 B( 25-C , 27-H ) :   0.9544 B( 25-C , 28-C ) :   1.0677
B( 28-C , 29-H ) :   0.9739 B( 28-C , 30-H ) :   0.9742 B( 28-C , 31-H ) :   0.9749

Dispersion correction           -0.015402507
FINAL SINGLE POINT ENERGY     -1339.878323469510

DIPOLE MOMENT
-------------
                                X             Y             Z
Electronic contribution:     23.15991      -8.79472       9.17812
Nuclear contribution   :    -23.61728       9.10500      -8.98239
                        -----------------------------------------
Total Dipole Moment    :     -0.45737       0.31028       0.19573
                        -----------------------------------------
Magnitude (a.u.)       :      0.58632
Magnitude (Debye)      :      1.49031

Rotational constants in cm-1:     0.019615     0.009204     0.007391
Rotational constants in MHz :   588.036092   275.916497   221.567756

                             ****ORCA TERMINATED NORMALLY****
TOTAL RUN TIME: 0 days 0 hours 0 minutes 22 seconds 369 msec
