                         Program Version 4.2.1 -  RELEASE  -
|  1> ! wB97X-D3 SP def2-SVP
|  2> %pal
|  3> nprocs 24
|  4> end
|  5>
|  6> * xyz 0 1
|  7> S 	 -38.7792 	 9.98061 	 -7.70687
|  8> C 	 -38.939 	 8.73813 	 -8.91244
|  9> C 	 -39.5954 	 7.63032 	 -8.38063
| 10> C 	 -39.7511 	 7.74942 	 -6.97796
| 11> C 	 -39.2739 	 8.94129 	 -6.45938
| 12> H 	 -40.3201 	 6.97522 	 -6.40389
| 13> C 	 -39.9981 	 6.3557 	 -8.95651
| 14> H 	 -40.2962 	 6.56173 	 -9.9551
| 15> H 	 -40.9334 	 5.98474 	 -8.45851
| 16> C 	 -38.9295 	 5.24954 	 -9.00113
| 17> H 	 -38.2241 	 5.60056 	 -9.71025
| 18> H 	 -38.2976 	 5.18127 	 -8.14327
| 19> C 	 -39.3852 	 3.79418 	 -9.37887
| 20> H 	 -40.1349 	 3.74846 	 -10.0707
| 21> H 	 -38.5859 	 3.2652 	 -9.81566
| 22> H 	 -39.7356 	 3.23101 	 -8.51557
| 23> S 	 -39.8629 	 11.1239 	 -4.98805
| 24> C 	 -39.8631 	 10.9403 	 -3.20653
| 25> C 	 -39.684 	 9.6531 	 -2.74778
| 26> C 	 -39.3843 	 8.79239 	 -3.80155
| 27> C 	 -39.4074 	 9.40507 	 -5.06714
| 28> H 	 -39.6476 	 9.44559 	 -1.66805
| 29> C 	 -38.8858 	 7.44401 	 -3.58267
| 30> H 	 -38.5009 	 7.07081 	 -4.54793
| 31> H 	 -39.7854 	 6.82558 	 -3.39741
| 32> C 	 -37.776 	 7.30841 	 -2.5087
| 33> H 	 -37.6632 	 6.2152 	 -2.52715
| 34> H 	 -38.0695 	 7.67031 	 -1.50883
| 35> C 	 -36.5022 	 8.03547 	 -2.94828
| 36> H 	 -35.9019 	 7.58128 	 -3.7527
| 37> H 	 -35.862 	 8.27902 	 -2.08425
| 38> H 	 -36.7704 	 9.03135 	 -3.30686
| 39> H 	 -38.7861 	 8.84012 	 -9.98473
| 40> H 	 -40.1568 	 11.8124 	 -2.63186
| 41> *
| 42>
| 43>                          ****END OF INPUT****

CARTESIAN COORDINATES (ANGSTROEM)
---------------------------------
  S    -38.779200    9.980610   -7.706870
  C    -38.939000    8.738130   -8.912440
  C    -39.595400    7.630320   -8.380630
  C    -39.751100    7.749420   -6.977960
  C    -39.273900    8.941290   -6.459380
  H    -40.320100    6.975220   -6.403890
  C    -39.998100    6.355700   -8.956510
  H    -40.296200    6.561730   -9.955100
  H    -40.933400    5.984740   -8.458510
  C    -38.929500    5.249540   -9.001130
  H    -38.224100    5.600560   -9.710250
  H    -38.297600    5.181270   -8.143270
  C    -39.385200    3.794180   -9.378870
  H    -40.134900    3.748460  -10.070700
  H    -38.585900    3.265200   -9.815660
  H    -39.735600    3.231010   -8.515570
  S    -39.862900   11.123900   -4.988050
  C    -39.863100   10.940300   -3.206530
  C    -39.684000    9.653100   -2.747780
  C    -39.384300    8.792390   -3.801550
  C    -39.407400    9.405070   -5.067140
  H    -39.647600    9.445590   -1.668050
  C    -38.885800    7.444010   -3.582670
  H    -38.500900    7.070810   -4.547930
  H    -39.785400    6.825580   -3.397410
  C    -37.776000    7.308410   -2.508700
  H    -37.663200    6.215200   -2.527150
  H    -38.069500    7.670310   -1.508830
  C    -36.502200    8.035470   -2.948280
  H    -35.901900    7.581280   -3.752700
  H    -35.862000    8.279020   -2.084250
  H    -36.770400    9.031350   -3.306860
  H    -38.786100    8.840120   -9.984730
  H    -40.156800   11.812400   -2.631860

 Total Charge           Charge          ....    0
 Multiplicity           Mult            ....    1
 Number of Electrons    NEL             ....  134
 Basis Dimension        Dim             ....  322

ORBITAL ENERGIES
----------------

  NO   OCC          E(Eh)            E(eV)
   0   2.0000     -88.968780     -2420.9636
   1   2.0000     -88.964503     -2420.8472
   2   2.0000     -10.328174      -281.0439
   3   2.0000     -10.326515      -280.9988
   4   2.0000     -10.319863      -280.8178
   5   2.0000     -10.314068      -280.6601
   6   2.0000     -10.297711      -280.2150
   7   2.0000     -10.295749      -280.1616
   8   2.0000     -10.294864      -280.1375
   9   2.0000     -10.291858      -280.0557
  10   2.0000     -10.289396      -279.9887
  11   2.0000     -10.288389      -279.9613
  12   2.0000     -10.287571      -279.9390
  13   2.0000     -10.283181      -279.8196
  14   2.0000     -10.275152      -279.6011
  15   2.0000     -10.270439      -279.4728
  16   2.0000      -8.084388      -219.9874
  17   2.0000      -8.078569      -219.8290
  18   2.0000      -6.042958      -164.4373
  19   2.0000      -6.038736      -164.3224
  20   2.0000      -6.036896      -164.2723
  21   2.0000      -6.035075      -164.2227
  22   2.0000      -6.033447      -164.1784
  23   2.0000      -6.029298      -164.0655
  24   2.0000      -1.011792       -27.5322
  25   2.0000      -0.985888       -26.8274
  26   2.0000      -0.917930       -24.9782
  27   2.0000      -0.910253       -24.7693
  28   2.0000      -0.868169       -23.6241
  29   2.0000      -0.852114       -23.1872
  30   2.0000      -0.846918       -23.0458
  31   2.0000      -0.812813       -22.1178
  32   2.0000      -0.786000       -21.3882
  33   2.0000      -0.770620       -20.9696
  34   2.0000      -0.715392       -19.4668
  35   2.0000      -0.705330       -19.1930
  36   2.0000      -0.694398       -18.8955
  37   2.0000      -0.660326       -17.9684
  38   2.0000      -0.636416       -17.3178
  39   2.0000      -0.623513       -16.9666
  40   2.0000      -0.599449       -16.3118
  41   2.0000      -0.567026       -15.4296
  42   2.0000      -0.554949       -15.1009
  43   2.0000      -0.554299       -15.0832
  44   2.0000      -0.536447       -14.5975
  45   2.0000      -0.527710       -14.3597
  46   2.0000      -0.526386       -14.3237
  47   2.0000      -0.506617       -13.7858
  48   2.0000      -0.503365       -13.6973
  49   2.0000      -0.492722       -13.4077
  50   2.0000      -0.491274       -13.3682
  51   2.0000      -0.472171       -12.8484
  52   2.0000      -0.469942       -12.7878
  53   2.0000      -0.465163       -12.6577
  54   2.0000      -0.459897       -12.5144
  55   2.0000      -0.455623       -12.3981
  56   2.0000      -0.445584       -12.1250
  57   2.0000      -0.443250       -12.0614
  58   2.0000      -0.435114       -11.8401
  59   2.0000      -0.429220       -11.6797
  60   2.0000      -0.426248       -11.5988
  61   2.0000      -0.412873       -11.2348
  62   2.0000      -0.407200       -11.0805
  63   2.0000      -0.352972        -9.6049
  64   2.0000      -0.333576        -9.0771
  65   2.0000      -0.328700        -8.9444
  66   2.0000      -0.281545        -7.6612
  67   0.0000       0.023539         0.6405
  68   0.0000       0.072384         1.9697
  69   0.0000       0.096112         2.6153
  70   0.0000       0.124326         3.3831
  71   0.0000       0.132928         3.6172

MULLIKEN ATOMIC CHARGES
-----------------------
   0 S :    0.114346
   1 C :   -0.113144
   2 C :   -0.102981
   3 C :   -0.017191
   4 C :   -0.109429
   5 H :    0.027939
   6 C :    0.075463
   7 H :    0.005355
   8 H :    0.028045
   9 C :   -0.048039
  10 H :    0.007399
  11 H :    0.017602
  12 C :    0.000061
  13 H :    0.003781
  14 H :    0.022247
  15 H :    0.032590
  16 S :    0.073449
  17 C :   -0.095743
  18 C :   -0.031904
  19 C :   -0.057545
  20 C :   -0.131812
  21 H :    0.033024
  22 C :    0.038308
  23 H :    0.024382
  24 H :    0.038250
  25 C :   -0.058432
  26 H :    0.036509
  27 H :    0.034110
  28 C :   -0.062419
  29 H :    0.042566
  30 H :    0.033100
  31 H :    0.036834
  32 H :    0.046734
  33 H :    0.056546
Sum of atomic charges:    0.0000000

LOEWDIN ATOMIC CHARGES
----------------------
   0 S :    0.434831
   1 C :   -0.209775
   2 C :   -0.064003
   3 C :   -0.073260
   4 C :   -0.213045
   5 H :    0.037533
   6 C :   -0.035144
   7 H :    0.024427
   8 H :    0.034847
   9 C :   -0.032106
  10 H :    0.020179
  11 H :    0.021004
  12 C :   -0.053706
  13 H :    0.011356
  14 H :    0.025143
  15 H :    0.027819
  16 S :    0.367166
  17 C :   -0.160125
  18 C :   -0.070698
  19 C :   -0.066090
  20 C :   -0.179913
  21 H :    0.041407
  22 C :   -0.040501
  23 H :    0.032926
  24 H :    0.035621
  25 C :   -0.036840
  26 H :    0.029819
  27 H :    0.023610
  28 C :   -0.072283
  29 H :    0.029717
  30 H :    0.028699
  31 H :    0.028688
  32 H :    0.030338
  33 H :    0.022359

  Mayer bond orders larger than 0.100000
B(  0-S ,  1-C ) :   1.1353 B(  0-S ,  4-C ) :   1.1751 B(  1-C ,  2-C ) :   1.5809
B(  1-C , 32-H ) :   0.9690 B(  2-C ,  3-C ) :   1.2753 B(  2-C ,  6-C ) :   1.0481
B(  3-C ,  4-C ) :   1.5161 B(  3-C ,  5-H ) :   0.9903 B(  4-C , 20-C ) :   1.0451
B(  6-C ,  7-H ) :   0.9213 B(  6-C ,  8-H ) :   0.9405 B(  6-C ,  9-C ) :   1.0557
B(  9-C , 10-H ) :   0.9522 B(  9-C , 11-H ) :   0.9608 B(  9-C , 12-C ) :   1.0750
B( 12-C , 13-H ) :   0.9758 B( 12-C , 14-H ) :   0.9733 B( 12-C , 15-H ) :   0.9771
B( 16-S , 17-C ) :   1.1504 B( 16-S , 20-C ) :   1.1293 B( 17-C , 18-C ) :   1.6095
B( 17-C , 20-C ) :   0.1064 B( 17-C , 33-H ) :   0.9674 B( 18-C , 19-C ) :   1.2264
B( 18-C , 21-H ) :   0.9909 B( 19-C , 20-C ) :   1.5945 B( 19-C , 22-C ) :   1.0571
B( 22-C , 23-H ) :   0.9347 B( 22-C , 24-H ) :   0.9181 B( 22-C , 25-C ) :   1.0658
B( 25-C , 26-H ) :   0.9552 B( 25-C , 27-H ) :   0.9565 B( 25-C , 28-C ) :   1.0678
B( 28-C , 29-H ) :   0.9748 B( 28-C , 30-H ) :   0.9743 B( 28-C , 31-H ) :   0.9741

Dispersion correction           -0.014281606
FINAL SINGLE POINT ENERGY     -1339.869454137678

DIPOLE MOMENT
-------------
                                X             Y             Z
Electronic contribution:     -6.35549      26.97260      -1.06016
Nuclear contribution   :      6.27953     -27.56231       1.16683
                        -----------------------------------------
Total Dipole Moment    :     -0.07596      -0.58971       0.10667
                        -----------------------------------------
Magnitude (a.u.)       :      0.60408
Magnitude (Debye)      :      1.53544

Rotational constants in cm-1:     0.019610     0.008479     0.006633
Rotational constants in MHz :   587.904581   254.185695   198.866135

                             ****ORCA TERMINATED NORMALLY****
TOTAL RUN TIME: 0 days 0 hours 0 minutes 23 seconds 243 msec
