                         Program Version 4.2.1 -  RELEASE  -
|  1> ! wB97X-D3 SP def2-SVP
|  2> %pal
|  3> nprocs 24
|  4> end
|  5>
|  6> * xyz 0 1
|  7> S 	 -52.6868 	 8.83858 	 -101.794
|  8> C 	 -53.6058 	 8.8074 	 -103.307
|  9> C 	 -54.1676 	 10.0182 	 -103.63
| 10> C 	 -54.0137 	 11.0115 	 -102.594
| 11> C 	 -53.3527 	 10.5199 	 -101.519
| 12> H 	 -54.4684 	 12.0197 	 -102.48
| 13> C 	 -54.8716 	 10.3729 	 -104.952
| 14> H 	 -55.9249 	 10.0422 	 -104.91
| 15> H 	 -54.3539 	 9.85028 	 -105.73
| 16> C 	 -54.8966 	 11.8835 	 -105.28
| 17> H 	 -55.5303 	 12.4035 	 -104.51
| 18> H 	 -53.9088 	 12.3955 	 -105.069
| 19> C 	 -55.3987 	 12.251 	 -106.692
| 20> H 	 -56.0204 	 13.1652 	 -106.574
| 21> H 	 -54.5393 	 12.3659 	 -107.347
| 22> H 	 -56.0513 	 11.4579 	 -107.084
| 23> S 	 -53.201 	 10.551 	 -98.7599
| 24> C 	 -52.4126 	 11.9402 	 -97.9966
| 25> C 	 -52.023 	 12.9065 	 -98.9018
| 26> C 	 -52.3621 	 12.5452 	 -100.223
| 27> C 	 -52.9833 	 11.2917 	 -100.378
| 28> H 	 -51.5974 	 13.8802 	 -98.6656
| 29> C 	 -52.0072 	 13.4945 	 -101.415
| 30> H 	 -51.8314 	 12.9674 	 -102.364
| 31> H 	 -51.0488 	 14.0892 	 -101.219
| 32> C 	 -53.1192 	 14.5824 	 -101.624
| 33> H 	 -53.204 	 15.1186 	 -100.688
| 34> H 	 -54.1069 	 14.1484 	 -101.719
| 35> C 	 -52.9312 	 15.4364 	 -102.967
| 36> H 	 -52.0609 	 16.0587 	 -102.885
| 37> H 	 -53.8258 	 16.0496 	 -103.168
| 38> H 	 -52.6283 	 14.7124 	 -103.788
| 39> H 	 -53.4974 	 7.93811 	 -103.947
| 40> H 	 -52.082 	 11.9943 	 -96.9712
| 41> *
| 42>
| 43>                          ****END OF INPUT****

CARTESIAN COORDINATES (ANGSTROEM)
---------------------------------
  S    -52.686800    8.838580  -101.794000
  C    -53.605800    8.807400  -103.307000
  C    -54.167600   10.018200  -103.630000
  C    -54.013700   11.011500  -102.594000
  C    -53.352700   10.519900  -101.519000
  H    -54.468400   12.019700  -102.480000
  C    -54.871600   10.372900  -104.952000
  H    -55.924900   10.042200  -104.910000
  H    -54.353900    9.850280  -105.730000
  C    -54.896600   11.883500  -105.280000
  H    -55.530300   12.403500  -104.510000
  H    -53.908800   12.395500  -105.069000
  C    -55.398700   12.251000  -106.692000
  H    -56.020400   13.165200  -106.574000
  H    -54.539300   12.365900  -107.347000
  H    -56.051300   11.457900  -107.084000
  S    -53.201000   10.551000  -98.759900
  C    -52.412600   11.940200  -97.996600
  C    -52.023000   12.906500  -98.901800
  C    -52.362100   12.545200  -100.223000
  C    -52.983300   11.291700  -100.378000
  H    -51.597400   13.880200  -98.665600
  C    -52.007200   13.494500  -101.415000
  H    -51.831400   12.967400  -102.364000
  H    -51.048800   14.089200  -101.219000
  C    -53.119200   14.582400  -101.624000
  H    -53.204000   15.118600  -100.688000
  H    -54.106900   14.148400  -101.719000
  C    -52.931200   15.436400  -102.967000
  H    -52.060900   16.058700  -102.885000
  H    -53.825800   16.049600  -103.168000
  H    -52.628300   14.712400  -103.788000
  H    -53.497400    7.938110  -103.947000
  H    -52.082000   11.994300  -96.971200

 Total Charge           Charge          ....    0
 Multiplicity           Mult            ....    1
 Number of Electrons    NEL             ....  134
 Basis Dimension        Dim             ....  322

ORBITAL ENERGIES
----------------

  NO   OCC          E(Eh)            E(eV)
   0   2.0000     -88.966749     -2420.9083
   1   2.0000     -88.964843     -2420.8564
   2   2.0000     -10.328462      -281.0518
   3   2.0000     -10.327584      -281.0278
   4   2.0000     -10.319944      -280.8200
   5   2.0000     -10.315902      -280.7100
   6   2.0000     -10.308186      -280.5000
   7   2.0000     -10.305612      -280.4300
   8   2.0000     -10.302342      -280.3410
   9   2.0000     -10.296417      -280.1798
  10   2.0000     -10.295338      -280.1504
  11   2.0000     -10.295013      -280.1415
  12   2.0000     -10.294893      -280.1383
  13   2.0000     -10.291011      -280.0326
  14   2.0000     -10.289750      -279.9983
  15   2.0000     -10.284880      -279.8658
  16   2.0000      -8.080470      -219.8808
  17   2.0000      -8.078452      -219.8259
  18   2.0000      -6.039046      -164.3308
  19   2.0000      -6.037041      -164.2763
  20   2.0000      -6.035087      -164.2231
  21   2.0000      -6.033437      -164.1782
  22   2.0000      -6.031251      -164.1187
  23   2.0000      -6.028863      -164.0537
  24   2.0000      -1.000149       -27.2154
  25   2.0000      -0.976877       -26.5822
  26   2.0000      -0.906244       -24.6601
  27   2.0000      -0.896176       -24.3862
  28   2.0000      -0.872642       -23.7458
  29   2.0000      -0.847053       -23.0495
  30   2.0000      -0.841443       -22.8968
  31   2.0000      -0.813499       -22.1364
  32   2.0000      -0.778570       -21.1860
  33   2.0000      -0.766175       -20.8487
  34   2.0000      -0.710217       -19.3260
  35   2.0000      -0.697350       -18.9759
  36   2.0000      -0.688131       -18.7250
  37   2.0000      -0.661635       -18.0040
  38   2.0000      -0.644280       -17.5318
  39   2.0000      -0.615702       -16.7541
  40   2.0000      -0.593632       -16.1535
  41   2.0000      -0.568637       -15.4734
  42   2.0000      -0.558945       -15.2097
  43   2.0000      -0.553262       -15.0550
  44   2.0000      -0.526118       -14.3164
  45   2.0000      -0.518202       -14.1010
  46   2.0000      -0.514866       -14.0102
  47   2.0000      -0.510107       -13.8807
  48   2.0000      -0.503737       -13.7074
  49   2.0000      -0.499007       -13.5787
  50   2.0000      -0.487873       -13.2757
  51   2.0000      -0.478431       -13.0188
  52   2.0000      -0.468506       -12.7487
  53   2.0000      -0.465037       -12.6543
  54   2.0000      -0.455439       -12.3931
  55   2.0000      -0.453676       -12.3452
  56   2.0000      -0.442270       -12.0348
  57   2.0000      -0.437569       -11.9069
  58   2.0000      -0.431904       -11.7527
  59   2.0000      -0.426527       -11.6064
  60   2.0000      -0.420534       -11.4433
  61   2.0000      -0.414930       -11.2908
  62   2.0000      -0.410719       -11.1762
  63   2.0000      -0.348117        -9.4727
  64   2.0000      -0.334043        -9.0898
  65   2.0000      -0.330213        -8.9856
  66   2.0000      -0.290029        -7.8921
  67   0.0000       0.023684         0.6445
  68   0.0000       0.065348         1.7782
  69   0.0000       0.102257         2.7826
  70   0.0000       0.113850         3.0980
  71   0.0000       0.122176         3.3246

MULLIKEN ATOMIC CHARGES
-----------------------
   0 S :    0.092910
   1 C :   -0.132870
   2 C :   -0.071448
   3 C :   -0.018103
   4 C :   -0.098671
   5 H :    0.031326
   6 C :    0.104676
   7 H :    0.049123
   8 H :    0.022736
   9 C :   -0.177692
  10 H :    0.034142
  11 H :    0.037515
  12 C :   -0.022098
  13 H :    0.042836
  14 H :    0.045725
  15 H :    0.032695
  16 S :    0.101211
  17 C :   -0.080332
  18 C :   -0.028339
  19 C :   -0.017393
  20 C :   -0.192220
  21 H :    0.024675
  22 C :    0.013544
  23 H :    0.035030
  24 H :    0.036066
  25 C :   -0.082965
  26 H :    0.021351
  27 H :    0.022147
  28 C :   -0.056013
  29 H :    0.026651
  30 H :    0.054235
  31 H :    0.040105
  32 H :    0.050399
  33 H :    0.059047
Sum of atomic charges:   -0.0000000

LOEWDIN ATOMIC CHARGES
----------------------
   0 S :    0.356871
   1 C :   -0.184773
   2 C :   -0.060272
   3 C :   -0.061881
   4 C :   -0.167208
   5 H :    0.043373
   6 C :   -0.030078
   7 H :    0.038522
   8 H :    0.025722
   9 C :   -0.057169
  10 H :    0.022598
  11 H :    0.025724
  12 C :   -0.065473
  13 H :    0.035160
  14 H :    0.028456
  15 H :    0.026762
  16 S :    0.384922
  17 C :   -0.174461
  18 C :   -0.073688
  19 C :   -0.049151
  20 C :   -0.191817
  21 H :    0.035772
  22 C :   -0.034368
  23 H :    0.026697
  24 H :    0.035227
  25 C :   -0.042945
  26 H :    0.020104
  27 H :    0.015631
  28 C :   -0.068872
  29 H :    0.019218
  30 H :    0.031617
  31 H :    0.033368
  32 H :    0.026675
  33 H :    0.029736

  Mayer bond orders larger than 0.100000
B(  0-S ,  1-C ) :   1.1160 B(  0-S ,  4-C ) :   1.1106 B(  1-C ,  2-C ) :   1.6616
B(  1-C , 32-H ) :   0.9701 B(  2-C ,  3-C ) :   1.1839 B(  2-C ,  6-C ) :   1.0067
B(  3-C ,  4-C ) :   1.6217 B(  3-C ,  5-H ) :   0.9879 B(  4-C , 20-C ) :   1.0769
B(  6-C ,  7-H ) :   0.9275 B(  6-C ,  8-H ) :   0.9459 B(  6-C ,  9-C ) :   1.0816
B(  9-C , 10-H ) :   0.9495 B(  9-C , 11-H ) :   0.9593 B(  9-C , 12-C ) :   1.0632
B( 12-C , 13-H ) :   0.9763 B( 12-C , 14-H ) :   0.9766 B( 12-C , 15-H ) :   0.9762
B( 16-S , 17-C ) :   1.1567 B( 16-S , 20-C ) :   1.1201 B( 17-C , 18-C ) :   1.5958
B( 17-C , 20-C ) :   0.1027 B( 17-C , 33-H ) :   0.9636 B( 18-C , 19-C ) :   1.2699
B( 18-C , 21-H ) :   0.9842 B( 19-C , 20-C ) :   1.5775 B( 19-C , 22-C ) :   1.0355
B( 22-C , 23-H ) :   0.9406 B( 22-C , 24-H ) :   0.9443 B( 22-C , 25-C ) :   1.0466
B( 25-C , 26-H ) :   0.9559 B( 25-C , 27-H ) :   0.9580 B( 25-C , 28-C ) :   1.0588
B( 28-C , 29-H ) :   0.9772 B( 28-C , 30-H ) :   0.9770 B( 28-C , 31-H ) :   0.9731

Dispersion correction           -0.014898903
FINAL SINGLE POINT ENERGY     -1339.879067165075

DIPOLE MOMENT
-------------
                                X             Y             Z
Electronic contribution:      6.30082     -22.98152      24.34967
Nuclear contribution   :     -6.32181      23.58275     -24.83951
                        -----------------------------------------
Total Dipole Moment    :     -0.02099       0.60124      -0.48984
                        -----------------------------------------
Magnitude (a.u.)       :      0.77580
Magnitude (Debye)      :      1.97193

Rotational constants in cm-1:     0.016984     0.009961     0.006703
Rotational constants in MHz :   509.153798   298.623570   200.944471

                             ****ORCA TERMINATED NORMALLY****
TOTAL RUN TIME: 0 days 0 hours 0 minutes 20 seconds 990 msec
