                         Program Version 4.2.1 -  RELEASE  -
|  1> ! wB97X-D3 SP def2-SVP
|  2> %pal
|  3> nprocs 24
|  4> end
|  5>
|  6> * xyz 0 1
|  7> S 	 -1.33686 	 -26.7794 	 -107.849
|  8> C 	 -0.0646925 	 -26.4523 	 -109.09
|  9> C 	 -0.158496 	 -25.1205 	 -109.548
| 10> C 	 -1.19951 	 -24.4183 	 -108.895
| 11> C 	 -1.99219 	 -25.1485 	 -107.957
| 12> H 	 -1.37781 	 -23.3097 	 -108.953
| 13> C 	 0.727274 	 -24.3719 	 -110.538
| 14> H 	 0.695469 	 -24.8002 	 -111.539
| 15> H 	 1.80654 	 -24.5336 	 -110.325
| 16> C 	 0.396651 	 -22.8199 	 -110.742
| 17> H 	 -0.629924 	 -22.49 	 -110.861
| 18> H 	 0.755636 	 -22.35 	 -109.771
| 19> C 	 1.17538 	 -22.1942 	 -111.882
| 20> H 	 1.13743 	 -21.1091 	 -111.865
| 21> H 	 2.2112 	 -22.5344 	 -111.728
| 22> H 	 0.728717 	 -22.6266 	 -112.727
| 23> S 	 -2.22323 	 -23.2569 	 -106.002
| 24> C 	 -3.4734 	 -23.5564 	 -104.788
| 25> C 	 -4.4487 	 -24.415 	 -105.2
| 26> C 	 -4.14814 	 -24.9922 	 -106.481
| 27> C 	 -2.88438 	 -24.5973 	 -106.992
| 28> H 	 -5.40647 	 -24.538 	 -104.691
| 29> C 	 -5.14067 	 -25.8681 	 -107.184
| 30> H 	 -5.04373 	 -25.5112 	 -108.257
| 31> H 	 -6.15356 	 -25.5868 	 -106.819
| 32> C 	 -4.81132 	 -27.3155 	 -106.892
| 33> H 	 -3.7978 	 -27.539 	 -107.053
| 34> H 	 -5.35468 	 -27.9347 	 -107.615
| 35> C 	 -5.17277 	 -27.7747 	 -105.501
| 36> H 	 -6.26219 	 -27.6976 	 -105.358
| 37> H 	 -4.67485 	 -27.221 	 -104.645
| 38> H 	 -5.0089 	 -28.8526 	 -105.615
| 39> H 	 0.730406 	 -27.1435 	 -109.328
| 40> H 	 -3.54627 	 -23.0914 	 -103.787
| 41> *
| 42>
| 43>                          ****END OF INPUT****

CARTESIAN COORDINATES (ANGSTROEM)
---------------------------------
  S     -1.336860  -26.779400  -107.849000
  C     -0.064693  -26.452300  -109.090000
  C     -0.158496  -25.120500  -109.548000
  C     -1.199510  -24.418300  -108.895000
  C     -1.992190  -25.148500  -107.957000
  H     -1.377810  -23.309700  -108.953000
  C      0.727274  -24.371900  -110.538000
  H      0.695469  -24.800200  -111.539000
  H      1.806540  -24.533600  -110.325000
  C      0.396651  -22.819900  -110.742000
  H     -0.629924  -22.490000  -110.861000
  H      0.755636  -22.350000  -109.771000
  C      1.175380  -22.194200  -111.882000
  H      1.137430  -21.109100  -111.865000
  H      2.211200  -22.534400  -111.728000
  H      0.728717  -22.626600  -112.727000
  S     -2.223230  -23.256900  -106.002000
  C     -3.473400  -23.556400  -104.788000
  C     -4.448700  -24.415000  -105.200000
  C     -4.148140  -24.992200  -106.481000
  C     -2.884380  -24.597300  -106.992000
  H     -5.406470  -24.538000  -104.691000
  C     -5.140670  -25.868100  -107.184000
  H     -5.043730  -25.511200  -108.257000
  H     -6.153560  -25.586800  -106.819000
  C     -4.811320  -27.315500  -106.892000
  H     -3.797800  -27.539000  -107.053000
  H     -5.354680  -27.934700  -107.615000
  C     -5.172770  -27.774700  -105.501000
  H     -6.262190  -27.697600  -105.358000
  H     -4.674850  -27.221000  -104.645000
  H     -5.008900  -28.852600  -105.615000
  H      0.730406  -27.143500  -109.328000
  H     -3.546270  -23.091400  -103.787000

 Total Charge           Charge          ....    0
 Multiplicity           Mult            ....    1
 Number of Electrons    NEL             ....  134
 Basis Dimension        Dim             ....  322

ORBITAL ENERGIES
----------------

  NO   OCC          E(Eh)            E(eV)
   0   2.0000     -88.970438     -2421.0087
   1   2.0000     -88.965575     -2420.8764
   2   2.0000     -10.331379      -281.1311
   3   2.0000     -10.326542      -280.9995
   4   2.0000     -10.321781      -280.8700
   5   2.0000     -10.320191      -280.8267
   6   2.0000     -10.309067      -280.5240
   7   2.0000     -10.304393      -280.3968
   8   2.0000     -10.303232      -280.3652
   9   2.0000     -10.296561      -280.1837
  10   2.0000     -10.293086      -280.0891
  11   2.0000     -10.293059      -280.0884
  12   2.0000     -10.291899      -280.0568
  13   2.0000     -10.279131      -279.7094
  14   2.0000     -10.276623      -279.6411
  15   2.0000     -10.275542      -279.6117
  16   2.0000      -8.083066      -219.9514
  17   2.0000      -8.079399      -219.8516
  18   2.0000      -6.041665      -164.4021
  19   2.0000      -6.038048      -164.3036
  20   2.0000      -6.037743      -164.2954
  21   2.0000      -6.034177      -164.1983
  22   2.0000      -6.033965      -164.1925
  23   2.0000      -6.029910      -164.0822
  24   2.0000      -0.998270       -27.1643
  25   2.0000      -0.973961       -26.5028
  26   2.0000      -0.914318       -24.8799
  27   2.0000      -0.908048       -24.7092
  28   2.0000      -0.871488       -23.7144
  29   2.0000      -0.848994       -23.1023
  30   2.0000      -0.843783       -22.9605
  31   2.0000      -0.807126       -21.9630
  32   2.0000      -0.782402       -21.2902
  33   2.0000      -0.765975       -20.8432
  34   2.0000      -0.711868       -19.3709
  35   2.0000      -0.694047       -18.8860
  36   2.0000      -0.686269       -18.6743
  37   2.0000      -0.663129       -18.0447
  38   2.0000      -0.630131       -17.1467
  39   2.0000      -0.611913       -16.6510
  40   2.0000      -0.593245       -16.1430
  41   2.0000      -0.569621       -15.5002
  42   2.0000      -0.567122       -15.4322
  43   2.0000      -0.555414       -15.1136
  44   2.0000      -0.542183       -14.7536
  45   2.0000      -0.530645       -14.4396
  46   2.0000      -0.518387       -14.1060
  47   2.0000      -0.505616       -13.7585
  48   2.0000      -0.498254       -13.5582
  49   2.0000      -0.489496       -13.3199
  50   2.0000      -0.488678       -13.2976
  51   2.0000      -0.480557       -13.0766
  52   2.0000      -0.479553       -13.0493
  53   2.0000      -0.461320       -12.5532
  54   2.0000      -0.454424       -12.3655
  55   2.0000      -0.449832       -12.2405
  56   2.0000      -0.441600       -12.0166
  57   2.0000      -0.433780       -11.8038
  58   2.0000      -0.430663       -11.7189
  59   2.0000      -0.421968       -11.4823
  60   2.0000      -0.416203       -11.3255
  61   2.0000      -0.412681       -11.2296
  62   2.0000      -0.407460       -11.0875
  63   2.0000      -0.342861        -9.3297
  64   2.0000      -0.331311        -9.0154
  65   2.0000      -0.325246        -8.8504
  66   2.0000      -0.281778        -7.6676
  67   0.0000       0.020722         0.5639
  68   0.0000       0.052543         1.4298
  69   0.0000       0.094442         2.5699
  70   0.0000       0.111193         3.0257
  71   0.0000       0.134560         3.6616

MULLIKEN ATOMIC CHARGES
-----------------------
   0 S :    0.100634
   1 C :   -0.137348
   2 C :   -0.039031
   3 C :   -0.043137
   4 C :   -0.103516
   5 H :    0.037812
   6 C :    0.040835
   7 H :    0.028493
   8 H :    0.036941
   9 C :   -0.152333
  10 H :    0.046729
  11 H :    0.037517
  12 C :   -0.003479
  13 H :    0.041461
  14 H :    0.028158
  15 H :    0.026955
  16 S :    0.108067
  17 C :   -0.096146
  18 C :   -0.026519
  19 C :   -0.083873
  20 C :   -0.175272
  21 H :    0.027444
  22 C :    0.054855
  23 H :    0.052686
  24 H :    0.023467
  25 C :   -0.032341
  26 H :    0.010320
  27 H :    0.023190
  28 C :   -0.071817
  29 H :    0.020451
  30 H :    0.062357
  31 H :    0.039414
  32 H :    0.051669
  33 H :    0.065358
Sum of atomic charges:   -0.0000000

LOEWDIN ATOMIC CHARGES
----------------------
   0 S :    0.406216
   1 C :   -0.187900
   2 C :   -0.060289
   3 C :   -0.076658
   4 C :   -0.200584
   5 H :    0.036930
   6 C :   -0.035235
   7 H :    0.030284
   8 H :    0.038055
   9 C :   -0.048147
  10 H :    0.022294
  11 H :    0.025874
  12 C :   -0.056397
  13 H :    0.029384
  14 H :    0.027118
  15 H :    0.018788
  16 S :    0.386205
  17 C :   -0.177245
  18 C :   -0.081209
  19 C :   -0.044144
  20 C :   -0.199717
  21 H :    0.035577
  22 C :   -0.037652
  23 H :    0.043339
  24 H :    0.031343
  25 C :   -0.040821
  26 H :    0.004514
  27 H :    0.025901
  28 C :   -0.070607
  29 H :    0.021358
  30 H :    0.034879
  31 H :    0.034151
  32 H :    0.027804
  33 H :    0.036592

  Mayer bond orders larger than 0.100000
B(  0-S ,  1-C ) :   1.1462 B(  0-S ,  4-C ) :   1.1482 B(  1-C ,  2-C ) :   1.5660
B(  1-C ,  4-C ) :   0.1110 B(  1-C , 32-H ) :   0.9755 B(  2-C ,  3-C ) :   1.3005
B(  2-C ,  6-C ) :   1.0010 B(  3-C ,  4-C ) :   1.5009 B(  3-C ,  5-H ) :   0.9759
B(  4-C , 20-C ) :   1.0966 B(  6-C ,  7-H ) :   0.9414 B(  6-C ,  8-H ) :   0.9356
B(  6-C ,  9-C ) :   1.0625 B(  9-C , 10-H ) :   0.9555 B(  9-C , 11-H ) :   0.9534
B(  9-C , 12-C ) :   1.0761 B( 12-C , 13-H ) :   0.9715 B( 12-C , 14-H ) :   0.9741
B( 12-C , 15-H ) :   0.9773 B( 16-S , 17-C ) :   1.1537 B( 16-S , 20-C ) :   1.1008
B( 17-C , 18-C ) :   1.6219 B( 17-C , 33-H ) :   0.9572 B( 18-C , 19-C ) :   1.2412
B( 18-C , 21-H ) :   0.9813 B( 19-C , 20-C ) :   1.5772 B( 19-C , 22-C ) :   1.0241
B( 22-C , 23-H ) :   0.9373 B( 22-C , 24-H ) :   0.9419 B( 22-C , 25-C ) :   1.0613
B( 25-C , 26-H ) :   0.9498 B( 25-C , 27-H ) :   0.9488 B( 25-C , 28-C ) :   1.0786
B( 28-C , 29-H ) :   0.9736 B( 28-C , 30-H ) :   0.9680 B( 28-C , 31-H ) :   0.9717

Dispersion correction           -0.014452403
FINAL SINGLE POINT ENERGY     -1339.853822895202

DIPOLE MOMENT
-------------
                                X             Y             Z
Electronic contribution:      1.10516      -0.18751      10.82718
Nuclear contribution   :     -1.15896       0.29234     -10.98084
                        -----------------------------------------
Total Dipole Moment    :     -0.05380       0.10483      -0.15366
                        -----------------------------------------
Magnitude (a.u.)       :      0.19364
Magnitude (Debye)      :      0.49219

Rotational constants in cm-1:     0.023455     0.007808     0.006516
Rotational constants in MHz :   703.171102   234.078592   195.356440

                             ****ORCA TERMINATED NORMALLY****
TOTAL RUN TIME: 0 days 0 hours 0 minutes 20 seconds 214 msec
