                         Program Version 4.2.1 -  RELEASE  -
|  1> ! wB97X-D3 SP def2-SVP
|  2> %pal
|  3> nprocs 24
|  4> end
|  5>
|  6> * xyz 0 1
|  7> S 	 -31.4421 	 13.5297 	 -0.772991
|  8> C 	 -31.2095 	 11.7575 	 -0.928403
|  9> C 	 -32.3082 	 11.097 	 -0.429011
| 10> C 	 -33.3166 	 12.0024 	 0.0484089
| 11> C 	 -33.0825 	 13.3295 	 -0.125228
| 12> H 	 -34.1334 	 11.6518 	 0.518205
| 13> C 	 -32.4132 	 9.63082 	 -0.262022
| 14> H 	 -33.3488 	 9.31845 	 -0.821404
| 15> H 	 -32.6641 	 9.39115 	 0.782283
| 16> C 	 -31.2508 	 8.68212 	 -0.714415
| 17> H 	 -30.8907 	 8.92452 	 -1.69225
| 18> H 	 -30.4242 	 8.89656 	 0.0531557
| 19> C 	 -31.783 	 7.26604 	 -0.738154
| 20> H 	 -31.077 	 6.48592 	 -0.645825
| 21> H 	 -32.4524 	 7.10497 	 0.176373
| 22> H 	 -32.409 	 7.05178 	 -1.58745
| 23> S 	 -33.2372 	 15.2271 	 1.91118
| 24> C 	 -34.6308 	 16.253 	 1.89945
| 25> C 	 -35.4323 	 16.0497 	 0.851734
| 26> C 	 -34.975 	 15.0342 	 -0.0367001
| 27> C 	 -33.7916 	 14.4943 	 0.399786
| 28> H 	 -36.3798 	 16.5691 	 0.830111
| 29> C 	 -35.7553 	 14.7392 	 -1.29771
| 30> H 	 -36.5197 	 14.0232 	 -0.983214
| 31> H 	 -35.0948 	 14.201 	 -2.04231
| 32> C 	 -36.3429 	 15.9368 	 -2.05961
| 33> H 	 -37.112 	 16.5184 	 -1.51373
| 34> H 	 -36.8194 	 15.3647 	 -2.84307
| 35> C 	 -35.3153 	 16.8958 	 -2.72289
| 36> H 	 -34.499 	 16.4123 	 -3.17729
| 37> H 	 -34.7907 	 17.4389 	 -1.93556
| 38> H 	 -35.6911 	 17.6792 	 -3.37004
| 39> H 	 -30.3246 	 11.3646 	 -1.23704
| 40> H 	 -34.8299 	 17.0321 	 2.58604
| 41> *
| 42>
| 43>                          ****END OF INPUT****

CARTESIAN COORDINATES (ANGSTROEM)
---------------------------------
  S    -31.442100   13.529700   -0.772991
  C    -31.209500   11.757500   -0.928403
  C    -32.308200   11.097000   -0.429011
  C    -33.316600   12.002400    0.048409
  C    -33.082500   13.329500   -0.125228
  H    -34.133400   11.651800    0.518205
  C    -32.413200    9.630820   -0.262022
  H    -33.348800    9.318450   -0.821404
  H    -32.664100    9.391150    0.782283
  C    -31.250800    8.682120   -0.714415
  H    -30.890700    8.924520   -1.692250
  H    -30.424200    8.896560    0.053156
  C    -31.783000    7.266040   -0.738154
  H    -31.077000    6.485920   -0.645825
  H    -32.452400    7.104970    0.176373
  H    -32.409000    7.051780   -1.587450
  S    -33.237200   15.227100    1.911180
  C    -34.630800   16.253000    1.899450
  C    -35.432300   16.049700    0.851734
  C    -34.975000   15.034200   -0.036700
  C    -33.791600   14.494300    0.399786
  H    -36.379800   16.569100    0.830111
  C    -35.755300   14.739200   -1.297710
  H    -36.519700   14.023200   -0.983214
  H    -35.094800   14.201000   -2.042310
  C    -36.342900   15.936800   -2.059610
  H    -37.112000   16.518400   -1.513730
  H    -36.819400   15.364700   -2.843070
  C    -35.315300   16.895800   -2.722890
  H    -34.499000   16.412300   -3.177290
  H    -34.790700   17.438900   -1.935560
  H    -35.691100   17.679200   -3.370040
  H    -30.324600   11.364600   -1.237040
  H    -34.829900   17.032100    2.586040

 Total Charge           Charge          ....    0
 Multiplicity           Mult            ....    1
 Number of Electrons    NEL             ....  134
 Basis Dimension        Dim             ....  322

ORBITAL ENERGIES
----------------

  NO   OCC          E(Eh)            E(eV)
   0   2.0000     -88.963062     -2420.8080
   1   2.0000     -88.956463     -2420.6284
   2   2.0000     -10.327203      -281.0175
   3   2.0000     -10.322593      -280.8920
   4   2.0000     -10.308741      -280.5151
   5   2.0000     -10.307507      -280.4815
   6   2.0000     -10.298927      -280.2481
   7   2.0000     -10.298917      -280.2478
   8   2.0000     -10.297002      -280.1957
   9   2.0000     -10.296778      -280.1896
  10   2.0000     -10.296324      -280.1772
  11   2.0000     -10.290948      -280.0309
  12   2.0000     -10.284713      -279.8613
  13   2.0000     -10.283876      -279.8385
  14   2.0000     -10.280891      -279.7573
  15   2.0000     -10.270873      -279.4847
  16   2.0000      -8.078111      -219.8166
  17   2.0000      -8.070680      -219.6144
  18   2.0000      -6.036632      -164.2651
  19   2.0000      -6.032665      -164.1572
  20   2.0000      -6.029310      -164.0659
  21   2.0000      -6.028738      -164.0503
  22   2.0000      -6.025302      -163.9568
  23   2.0000      -6.021308      -163.8481
  24   2.0000      -1.005915       -27.3723
  25   2.0000      -0.982921       -26.7466
  26   2.0000      -0.912574       -24.8324
  27   2.0000      -0.907825       -24.7032
  28   2.0000      -0.871155       -23.7053
  29   2.0000      -0.848416       -23.0866
  30   2.0000      -0.845268       -23.0009
  31   2.0000      -0.819430       -22.2978
  32   2.0000      -0.785385       -21.3714
  33   2.0000      -0.770861       -20.9762
  34   2.0000      -0.714897       -19.4533
  35   2.0000      -0.705338       -19.1932
  36   2.0000      -0.694946       -18.9104
  37   2.0000      -0.654409       -17.8074
  38   2.0000      -0.650072       -17.6894
  39   2.0000      -0.617783       -16.8107
  40   2.0000      -0.600852       -16.3500
  41   2.0000      -0.575055       -15.6480
  42   2.0000      -0.567552       -15.4439
  43   2.0000      -0.555423       -15.1138
  44   2.0000      -0.533372       -14.5138
  45   2.0000      -0.522247       -14.2111
  46   2.0000      -0.518487       -14.1087
  47   2.0000      -0.515640       -14.0313
  48   2.0000      -0.504440       -13.7265
  49   2.0000      -0.499530       -13.5929
  50   2.0000      -0.489328       -13.3153
  51   2.0000      -0.481042       -13.0898
  52   2.0000      -0.468282       -12.7426
  53   2.0000      -0.463572       -12.6144
  54   2.0000      -0.458863       -12.4863
  55   2.0000      -0.449228       -12.2241
  56   2.0000      -0.445472       -12.1219
  57   2.0000      -0.441505       -12.0140
  58   2.0000      -0.429311       -11.6821
  59   2.0000      -0.426757       -11.6126
  60   2.0000      -0.420295       -11.4368
  61   2.0000      -0.417850       -11.3703
  62   2.0000      -0.407798       -11.0968
  63   2.0000      -0.337729        -9.1901
  64   2.0000      -0.326981        -8.8976
  65   2.0000      -0.321113        -8.7379
  66   2.0000      -0.308679        -8.3996
  67   0.0000       0.043625         1.1871
  68   0.0000       0.064266         1.7488
  69   0.0000       0.119952         3.2641
  70   0.0000       0.124797         3.3959
  71   0.0000       0.133751         3.6395

MULLIKEN ATOMIC CHARGES
-----------------------
   0 S :    0.070982
   1 C :   -0.098165
   2 C :   -0.048490
   3 C :    0.085081
   4 C :   -0.150742
   5 H :   -0.044019
   6 C :   -0.018655
   7 H :    0.037238
   8 H :    0.038962
   9 C :   -0.062357
  10 H :    0.031827
  11 H :    0.048628
  12 C :   -0.038898
  13 H :    0.024453
  14 H :    0.025559
  15 H :    0.036930
  16 S :    0.119182
  17 C :   -0.065378
  18 C :   -0.040957
  19 C :   -0.009568
  20 C :   -0.178042
  21 H :    0.014488
  22 C :    0.043372
  23 H :    0.043219
  24 H :    0.041130
  25 C :   -0.071391
  26 H :    0.036738
  27 H :    0.030328
  28 C :   -0.027765
  29 H :    0.017386
  30 H :    0.022413
  31 H :    0.038629
  32 H :    0.011142
  33 H :    0.036741
Sum of atomic charges:   -0.0000000

LOEWDIN ATOMIC CHARGES
----------------------
   0 S :    0.364442
   1 C :   -0.164659
   2 C :   -0.062956
   3 C :   -0.042472
   4 C :   -0.179569
   5 H :    0.011111
   6 C :   -0.041872
   7 H :    0.037142
   8 H :    0.034781
   9 C :   -0.041534
  10 H :    0.019467
  11 H :    0.034875
  12 C :   -0.063989
  13 H :    0.019467
  14 H :    0.031933
  15 H :    0.026476
  16 S :    0.401636
  17 C :   -0.176366
  18 C :   -0.076799
  19 C :   -0.053291
  20 C :   -0.205066
  21 H :    0.032260
  22 C :   -0.032910
  23 H :    0.038371
  24 H :    0.039591
  25 C :   -0.040030
  26 H :    0.024059
  27 H :    0.027619
  28 C :   -0.066947
  29 H :    0.020576
  30 H :    0.028229
  31 H :    0.028026
  32 H :    0.004913
  33 H :    0.023485

  Mayer bond orders larger than 0.100000
B(  0-S ,  1-C ) :   1.1197 B(  0-S ,  4-C ) :   1.1315 B(  1-C ,  2-C ) :   1.6254
B(  1-C , 32-H ) :   0.9800 B(  2-C ,  3-C ) :   1.2232 B(  2-C ,  6-C ) :   1.0160
B(  3-C ,  4-C ) :   1.6098 B(  3-C ,  5-H ) :   1.0198 B(  4-C , 20-C ) :   1.0040
B(  6-C ,  7-H ) :   0.9387 B(  6-C ,  8-H ) :   0.9349 B(  6-C ,  9-C ) :   1.0666
B(  9-C , 10-H ) :   0.9540 B(  9-C , 11-H ) :   0.9519 B(  9-C , 12-C ) :   1.0800
B( 12-C , 13-H ) :   0.9718 B( 12-C , 14-H ) :   0.9725 B( 12-C , 15-H ) :   0.9743
B( 16-S , 17-C ) :   1.1442 B( 16-S , 20-C ) :   1.1294 B( 17-C , 18-C ) :   1.6610
B( 17-C , 33-H ) :   0.9631 B( 18-C , 19-C ) :   1.2096 B( 18-C , 21-H ) :   0.9883
B( 19-C , 20-C ) :   1.6390 B( 19-C , 22-C ) :   1.0325 B( 22-C , 23-H ) :   0.9266
B( 22-C , 24-H ) :   0.9370 B( 22-C , 25-C ) :   1.0747 B( 25-C , 26-H ) :   0.9522
B( 25-C , 27-H ) :   0.9538 B( 25-C , 28-C ) :   1.0710 B( 28-C , 29-H ) :   0.9724
B( 28-C , 30-H ) :   0.9706 B( 28-C , 31-H ) :   0.9771

Dispersion correction           -0.013824638
FINAL SINGLE POINT ENERGY     -1339.874588755529

DIPOLE MOMENT
-------------
                                X             Y             Z
Electronic contribution:      8.09179      14.01726      12.20367
Nuclear contribution   :     -8.58649     -14.42347     -12.26242
                        -----------------------------------------
Total Dipole Moment    :     -0.49470      -0.40621      -0.05875
                        -----------------------------------------
Magnitude (a.u.)       :      0.64280
Magnitude (Debye)      :      1.63387

Rotational constants in cm-1:     0.023897     0.006640     0.006091
Rotational constants in MHz :   716.405211   199.070905   182.615551

                             ****ORCA TERMINATED NORMALLY****
TOTAL RUN TIME: 0 days 0 hours 0 minutes 21 seconds 124 msec
