                         Program Version 4.2.1 -  RELEASE  -
|  1> ! wB97X-D3 SP def2-SVP
|  2> %pal
|  3> nprocs 24
|  4> end
|  5>
|  6> * xyz 0 1
|  7> S 	 18.7688 	 -6.46864 	 -113.186
|  8> C 	 18.332 	 -7.66896 	 -112.098
|  9> C 	 17.0014 	 -8.08843 	 -112.236
| 10> C 	 16.3724 	 -7.36032 	 -113.331
| 11> C 	 17.1414 	 -6.25867 	 -113.822
| 12> H 	 15.4298 	 -7.4703 	 -113.854
| 13> C 	 16.2779 	 -9.18951 	 -111.463
| 14> H 	 15.3443 	 -8.7808 	 -111.13
| 15> H 	 16.9028 	 -9.26155 	 -110.623
| 16> C 	 16.186 	 -10.5791 	 -112.091
| 17> H 	 17.1484 	 -10.8846 	 -112.478
| 18> H 	 15.957 	 -11.2231 	 -111.248
| 19> C 	 15.2388 	 -10.8055 	 -113.283
| 20> H 	 15.0424 	 -11.891 	 -113.592
| 21> H 	 14.2119 	 -10.3748 	 -113.163
| 22> H 	 15.6412 	 -10.4269 	 -114.223
| 23> S 	 17.9904 	 -4.83382 	 -116.16
| 24> C 	 16.8716 	 -3.71049 	 -117.008
| 25> C 	 15.7137 	 -3.56335 	 -116.283
| 26> C 	 15.6937 	 -4.47644 	 -115.157
| 27> C 	 16.8481 	 -5.28646 	 -114.943
| 28> H 	 15.0057 	 -2.73187 	 -116.597
| 29> C 	 14.572 	 -4.41713 	 -114.063
| 30> H 	 14.7172 	 -3.58131 	 -113.455
| 31> H 	 14.7325 	 -5.16086 	 -113.324
| 32> C 	 13.0982 	 -4.47265 	 -114.403
| 33> H 	 12.7758 	 -3.6011 	 -115.024
| 34> H 	 12.4855 	 -4.30873 	 -113.482
| 35> C 	 12.6372 	 -5.85562 	 -114.918
| 36> H 	 13.2069 	 -6.07989 	 -115.766
| 37> H 	 11.6082 	 -5.90452 	 -115.23
| 38> H 	 12.7873 	 -6.62118 	 -114.098
| 39> H 	 18.947 	 -7.97099 	 -111.288
| 40> H 	 17.1346 	 -3.05434 	 -117.812
| 41> *
| 42>
| 43>                          ****END OF INPUT****

CARTESIAN COORDINATES (ANGSTROEM)
---------------------------------
  S     18.768800   -6.468640  -113.186000
  C     18.332000   -7.668960  -112.098000
  C     17.001400   -8.088430  -112.236000
  C     16.372400   -7.360320  -113.331000
  C     17.141400   -6.258670  -113.822000
  H     15.429800   -7.470300  -113.854000
  C     16.277900   -9.189510  -111.463000
  H     15.344300   -8.780800  -111.130000
  H     16.902800   -9.261550  -110.623000
  C     16.186000  -10.579100  -112.091000
  H     17.148400  -10.884600  -112.478000
  H     15.957000  -11.223100  -111.248000
  C     15.238800  -10.805500  -113.283000
  H     15.042400  -11.891000  -113.592000
  H     14.211900  -10.374800  -113.163000
  H     15.641200  -10.426900  -114.223000
  S     17.990400   -4.833820  -116.160000
  C     16.871600   -3.710490  -117.008000
  C     15.713700   -3.563350  -116.283000
  C     15.693700   -4.476440  -115.157000
  C     16.848100   -5.286460  -114.943000
  H     15.005700   -2.731870  -116.597000
  C     14.572000   -4.417130  -114.063000
  H     14.717200   -3.581310  -113.455000
  H     14.732500   -5.160860  -113.324000
  C     13.098200   -4.472650  -114.403000
  H     12.775800   -3.601100  -115.024000
  H     12.485500   -4.308730  -113.482000
  C     12.637200   -5.855620  -114.918000
  H     13.206900   -6.079890  -115.766000
  H     11.608200   -5.904520  -115.230000
  H     12.787300   -6.621180  -114.098000
  H     18.947000   -7.970990  -111.288000
  H     17.134600   -3.054340  -117.812000

 Total Charge           Charge          ....    0
 Multiplicity           Mult            ....    1
 Number of Electrons    NEL             ....  134
 Basis Dimension        Dim             ....  322

ORBITAL ENERGIES
----------------

  NO   OCC          E(Eh)            E(eV)
   0   2.0000     -88.968433     -2420.9541
   1   2.0000     -88.967225     -2420.9213
   2   2.0000     -10.340961      -281.3919
   3   2.0000     -10.339172      -281.3432
   4   2.0000     -10.321930      -280.8740
   5   2.0000     -10.313860      -280.6544
   6   2.0000     -10.313744      -280.6512
   7   2.0000     -10.308868      -280.5186
   8   2.0000     -10.305829      -280.4359
   9   2.0000     -10.302547      -280.3466
  10   2.0000     -10.291069      -280.0342
  11   2.0000     -10.290229      -280.0114
  12   2.0000     -10.287661      -279.9415
  13   2.0000     -10.285856      -279.8924
  14   2.0000     -10.278684      -279.6972
  15   2.0000     -10.273019      -279.5431
  16   2.0000      -8.084161      -219.9812
  17   2.0000      -8.081399      -219.9060
  18   2.0000      -6.042502      -164.4249
  19   2.0000      -6.040058      -164.3583
  20   2.0000      -6.038448      -164.3145
  21   2.0000      -6.035901      -164.2452
  22   2.0000      -6.035116      -164.2238
  23   2.0000      -6.032086      -164.1414
  24   2.0000      -1.003407       -27.3041
  25   2.0000      -0.983908       -26.7735
  26   2.0000      -0.912041       -24.8179
  27   2.0000      -0.902831       -24.5673
  28   2.0000      -0.868864       -23.6430
  29   2.0000      -0.846633       -23.0381
  30   2.0000      -0.838688       -22.8218
  31   2.0000      -0.819561       -22.3014
  32   2.0000      -0.785461       -21.3735
  33   2.0000      -0.774295       -21.0696
  34   2.0000      -0.705782       -19.2053
  35   2.0000      -0.699239       -19.0273
  36   2.0000      -0.692391       -18.8409
  37   2.0000      -0.653870       -17.7927
  38   2.0000      -0.643016       -17.4973
  39   2.0000      -0.614921       -16.7329
  40   2.0000      -0.592742       -16.1293
  41   2.0000      -0.577677       -15.7194
  42   2.0000      -0.552371       -15.0308
  43   2.0000      -0.549225       -14.9452
  44   2.0000      -0.538607       -14.6562
  45   2.0000      -0.535609       -14.5747
  46   2.0000      -0.522542       -14.2191
  47   2.0000      -0.512862       -13.9557
  48   2.0000      -0.506904       -13.7935
  49   2.0000      -0.491673       -13.3791
  50   2.0000      -0.486393       -13.2354
  51   2.0000      -0.481002       -13.0887
  52   2.0000      -0.468985       -12.7617
  53   2.0000      -0.465827       -12.6758
  54   2.0000      -0.463554       -12.6140
  55   2.0000      -0.443632       -12.0718
  56   2.0000      -0.439791       -11.9673
  57   2.0000      -0.436163       -11.8686
  58   2.0000      -0.430651       -11.7186
  59   2.0000      -0.426629       -11.6092
  60   2.0000      -0.417798       -11.3689
  61   2.0000      -0.415983       -11.3195
  62   2.0000      -0.403210       -10.9719
  63   2.0000      -0.357341        -9.7237
  64   2.0000      -0.331701        -9.0261
  65   2.0000      -0.325548        -8.8586
  66   2.0000      -0.288907        -7.8616
  67   0.0000       0.022966         0.6250
  68   0.0000       0.070447         1.9169
  69   0.0000       0.110446         3.0054
  70   0.0000       0.113567         3.0903
  71   0.0000       0.126466         3.4413

MULLIKEN ATOMIC CHARGES
-----------------------
   0 S :    0.118093
   1 C :   -0.094163
   2 C :   -0.139300
   3 C :    0.034243
   4 C :   -0.179201
   5 H :    0.019236
   6 C :    0.126134
   7 H :    0.027126
   8 H :   -0.002717
   9 C :   -0.028085
  10 H :    0.024486
  11 H :    0.033847
  12 C :   -0.095952
  13 H :    0.040223
  14 H :    0.032930
  15 H :    0.037600
  16 S :    0.089163
  17 C :   -0.097243
  18 C :   -0.038437
  19 C :   -0.071815
  20 C :   -0.108241
  21 H :    0.058033
  22 C :    0.100035
  23 H :    0.017410
  24 H :   -0.008936
  25 C :   -0.100147
  26 H :    0.027256
  27 H :    0.026040
  28 C :   -0.041151
  29 H :    0.027327
  30 H :    0.029474
  31 H :    0.035735
  32 H :    0.043977
  33 H :    0.057021
Sum of atomic charges:   -0.0000000

LOEWDIN ATOMIC CHARGES
----------------------
   0 S :    0.437060
   1 C :   -0.215345
   2 C :   -0.063105
   3 C :   -0.059572
   4 C :   -0.193800
   5 H :    0.031014
   6 C :   -0.023668
   7 H :    0.029943
   8 H :    0.026647
   9 C :   -0.035910
  10 H :    0.028194
  11 H :    0.027438
  12 C :   -0.082032
  13 H :    0.036116
  14 H :    0.024347
  15 H :    0.025514
  16 S :    0.394078
  17 C :   -0.170497
  18 C :   -0.078237
  19 C :   -0.057495
  20 C :   -0.209678
  21 H :    0.051198
  22 C :   -0.035731
  23 H :    0.028555
  24 H :    0.023969
  25 C :   -0.047629
  26 H :    0.020993
  27 H :    0.028479
  28 C :   -0.064440
  29 H :    0.016535
  30 H :    0.023719
  31 H :    0.030070
  32 H :    0.024364
  33 H :    0.028906

  Mayer bond orders larger than 0.100000
B(  0-S ,  1-C ) :   1.1781 B(  0-S ,  4-C ) :   1.1651 B(  1-C ,  2-C ) :   1.5750
B(  1-C ,  4-C ) :   0.1003 B(  1-C , 32-H ) :   0.9669 B(  2-C ,  3-C ) :   1.2519
B(  2-C ,  6-C ) :   1.0182 B(  3-C ,  4-C ) :   1.5420 B(  3-C ,  5-H ) :   0.9879
B(  4-C , 20-C ) :   1.0438 B(  6-C ,  7-H ) :   0.9384 B(  6-C ,  8-H ) :   0.9251
B(  6-C ,  9-C ) :   1.0765 B(  9-C , 10-H ) :   0.9515 B(  9-C , 11-H ) :   0.9560
B(  9-C , 12-C ) :   1.0725 B( 12-C , 13-H ) :   0.9727 B( 12-C , 14-H ) :   0.9770
B( 12-C , 15-H ) :   0.9742 B( 16-S , 17-C ) :   1.1504 B( 16-S , 20-C ) :   1.1356
B( 17-C , 18-C ) :   1.6150 B( 17-C , 33-H ) :   0.9670 B( 18-C , 19-C ) :   1.2457
B( 18-C , 21-H ) :   0.9797 B( 19-C , 20-C ) :   1.5723 B( 19-C , 22-C ) :   1.0288
B( 22-C , 23-H ) :   0.9284 B( 22-C , 24-H ) :   0.9284 B( 22-C , 25-C ) :   1.0840
B( 25-C , 26-H ) :   0.9541 B( 25-C , 27-H ) :   0.9513 B( 25-C , 28-C ) :   1.0712
B( 28-C , 29-H ) :   0.9796 B( 28-C , 30-H ) :   0.9730 B( 28-C , 31-H ) :   0.9711

Dispersion correction           -0.014434798
FINAL SINGLE POINT ENERGY     -1339.856822664018

DIPOLE MOMENT
-------------
                                X             Y             Z
Electronic contribution:     24.76508      13.77192      -6.80174
Nuclear contribution   :    -25.23480     -13.84583       7.09750
                        -----------------------------------------
Total Dipole Moment    :     -0.46973      -0.07391       0.29576
                        -----------------------------------------
Magnitude (a.u.)       :      0.55998
Magnitude (Debye)      :      1.42337

Rotational constants in cm-1:     0.017639     0.009077     0.006838
Rotational constants in MHz :   528.815983   272.130249   205.004917

                             ****ORCA TERMINATED NORMALLY****
TOTAL RUN TIME: 0 days 0 hours 0 minutes 21 seconds 538 msec
