                         Program Version 4.2.1 -  RELEASE  -
|  1> ! wB97X-D3 SP def2-SVP
|  2> %pal
|  3> nprocs 24
|  4> end
|  5>
|  6> * xyz 0 1
|  7> S 	 -65.6414 	 13.0841 	 -73.0846
|  8> C 	 -66.0469 	 12.395 	 -71.4998
|  9> C 	 -65.5006 	 12.9913 	 -70.385
| 10> C 	 -64.7192 	 14.1116 	 -70.8533
| 11> C 	 -64.5675 	 14.1509 	 -72.2472
| 12> H 	 -64.2438 	 14.7782 	 -70.2064
| 13> C 	 -65.6297 	 12.6579 	 -68.9173
| 14> H 	 -64.5863 	 12.2485 	 -68.7458
| 15> H 	 -66.3789 	 11.8729 	 -68.7489
| 16> C 	 -65.893 	 13.8812 	 -68.0305
| 17> H 	 -65.6065 	 13.5916 	 -67.0701
| 18> H 	 -65.2041 	 14.7737 	 -68.1474
| 19> C 	 -67.35 	 14.363 	 -68.1957
| 20> H 	 -67.5722 	 14.7308 	 -69.1807
| 21> H 	 -68.1387 	 13.6607 	 -67.7976
| 22> H 	 -67.3307 	 15.2179 	 -67.5815
| 23> S 	 -62.1793 	 14.5304 	 -73.4595
| 24> C 	 -61.777 	 16.0371 	 -74.2162
| 25> C 	 -62.7669 	 16.9979 	 -74.0916
| 26> C 	 -63.9185 	 16.477 	 -73.4077
| 27> C 	 -63.7402 	 15.1345 	 -72.9797
| 28> H 	 -62.7332 	 17.8687 	 -74.6823
| 29> C 	 -65.193 	 17.2717 	 -73.4092
| 30> H 	 -65.0348 	 18.0243 	 -72.5967
| 31> H 	 -66.0091 	 16.6265 	 -73.0607
| 32> C 	 -65.5432 	 17.6926 	 -74.7818
| 33> H 	 -65.512 	 16.7294 	 -75.2169
| 34> H 	 -64.8394 	 18.3656 	 -75.158
| 35> C 	 -66.9602 	 18.257 	 -74.841
| 36> H 	 -67.6207 	 17.4276 	 -74.5449
| 37> H 	 -67.0951 	 18.5743 	 -75.9063
| 38> H 	 -67.2226 	 19.1835 	 -74.2802
| 39> H 	 -66.6781 	 11.5428 	 -71.4221
| 40> H 	 -60.8137 	 16.2127 	 -74.707
| 41> *
| 42>
| 43>                          ****END OF INPUT****

CARTESIAN COORDINATES (ANGSTROEM)
---------------------------------
  S    -65.641400   13.084100  -73.084600
  C    -66.046900   12.395000  -71.499800
  C    -65.500600   12.991300  -70.385000
  C    -64.719200   14.111600  -70.853300
  C    -64.567500   14.150900  -72.247200
  H    -64.243800   14.778200  -70.206400
  C    -65.629700   12.657900  -68.917300
  H    -64.586300   12.248500  -68.745800
  H    -66.378900   11.872900  -68.748900
  C    -65.893000   13.881200  -68.030500
  H    -65.606500   13.591600  -67.070100
  H    -65.204100   14.773700  -68.147400
  C    -67.350000   14.363000  -68.195700
  H    -67.572200   14.730800  -69.180700
  H    -68.138700   13.660700  -67.797600
  H    -67.330700   15.217900  -67.581500
  S    -62.179300   14.530400  -73.459500
  C    -61.777000   16.037100  -74.216200
  C    -62.766900   16.997900  -74.091600
  C    -63.918500   16.477000  -73.407700
  C    -63.740200   15.134500  -72.979700
  H    -62.733200   17.868700  -74.682300
  C    -65.193000   17.271700  -73.409200
  H    -65.034800   18.024300  -72.596700
  H    -66.009100   16.626500  -73.060700
  C    -65.543200   17.692600  -74.781800
  H    -65.512000   16.729400  -75.216900
  H    -64.839400   18.365600  -75.158000
  C    -66.960200   18.257000  -74.841000
  H    -67.620700   17.427600  -74.544900
  H    -67.095100   18.574300  -75.906300
  H    -67.222600   19.183500  -74.280200
  H    -66.678100   11.542800  -71.422100
  H    -60.813700   16.212700  -74.707000

 Total Charge           Charge          ....    0
 Multiplicity           Mult            ....    1
 Number of Electrons    NEL             ....  134
 Basis Dimension        Dim             ....  322

ORBITAL ENERGIES
----------------

  NO   OCC          E(Eh)            E(eV)
   0   2.0000     -88.967102     -2420.9179
   1   2.0000     -88.961227     -2420.7580
   2   2.0000     -10.326724      -281.0044
   3   2.0000     -10.322451      -280.8882
   4   2.0000     -10.314796      -280.6799
   5   2.0000     -10.308229      -280.5012
   6   2.0000     -10.301290      -280.3123
   7   2.0000     -10.301193      -280.3097
   8   2.0000     -10.299679      -280.2685
   9   2.0000     -10.291927      -280.0576
  10   2.0000     -10.289767      -279.9988
  11   2.0000     -10.287577      -279.9392
  12   2.0000     -10.282837      -279.8102
  13   2.0000     -10.281600      -279.7766
  14   2.0000     -10.277730      -279.6713
  15   2.0000     -10.273907      -279.5672
  16   2.0000      -8.081714      -219.9146
  17   2.0000      -8.076485      -219.7723
  18   2.0000      -6.040113      -164.3598
  19   2.0000      -6.036478      -164.2609
  20   2.0000      -6.034788      -164.2149
  21   2.0000      -6.032387      -164.1496
  22   2.0000      -6.030811      -164.1067
  23   2.0000      -6.027553      -164.0181
  24   2.0000      -1.001116       -27.2418
  25   2.0000      -0.980364       -26.6771
  26   2.0000      -0.922574       -25.1045
  27   2.0000      -0.914864       -24.8947
  28   2.0000      -0.863991       -23.5104
  29   2.0000      -0.847545       -23.0629
  30   2.0000      -0.844821       -22.9887
  31   2.0000      -0.808437       -21.9987
  32   2.0000      -0.785020       -21.3615
  33   2.0000      -0.767167       -20.8757
  34   2.0000      -0.710061       -19.3217
  35   2.0000      -0.700813       -19.0701
  36   2.0000      -0.688426       -18.7330
  37   2.0000      -0.654137       -17.8000
  38   2.0000      -0.637726       -17.3534
  39   2.0000      -0.622826       -16.9480
  40   2.0000      -0.598422       -16.2839
  41   2.0000      -0.579514       -15.7694
  42   2.0000      -0.562069       -15.2947
  43   2.0000      -0.557534       -15.1713
  44   2.0000      -0.536442       -14.5973
  45   2.0000      -0.522714       -14.2238
  46   2.0000      -0.515043       -14.0150
  47   2.0000      -0.512107       -13.9351
  48   2.0000      -0.506348       -13.7784
  49   2.0000      -0.492527       -13.4023
  50   2.0000      -0.486107       -13.2276
  51   2.0000      -0.473231       -12.8773
  52   2.0000      -0.465051       -12.6547
  53   2.0000      -0.463359       -12.6086
  54   2.0000      -0.456016       -12.4088
  55   2.0000      -0.454125       -12.3574
  56   2.0000      -0.446151       -12.1404
  57   2.0000      -0.438337       -11.9278
  58   2.0000      -0.428185       -11.6515
  59   2.0000      -0.426493       -11.6055
  60   2.0000      -0.423086       -11.5128
  61   2.0000      -0.419446       -11.4137
  62   2.0000      -0.410970       -11.1831
  63   2.0000      -0.333351        -9.0709
  64   2.0000      -0.326146        -8.8749
  65   2.0000      -0.312334        -8.4991
  66   2.0000      -0.306164        -8.3312
  67   0.0000       0.049511         1.3473
  68   0.0000       0.057375         1.5613
  69   0.0000       0.108413         2.9501
  70   0.0000       0.124550         3.3892
  71   0.0000       0.128414         3.4943

MULLIKEN ATOMIC CHARGES
-----------------------
   0 S :    0.124391
   1 C :   -0.124739
   2 C :   -0.079158
   3 C :    0.058786
   4 C :   -0.169061
   5 H :   -0.017068
   6 C :    0.066810
   7 H :    0.054252
   8 H :    0.028896
   9 C :   -0.080412
  10 H :    0.011145
  11 H :    0.036296
  12 C :   -0.029274
  13 H :    0.043744
  14 H :    0.046090
  15 H :    0.018032
  16 S :    0.115828
  17 C :   -0.104771
  18 C :   -0.025910
  19 C :   -0.047946
  20 C :   -0.200511
  21 H :    0.011806
  22 C :    0.077308
  23 H :    0.035148
  24 H :    0.012484
  25 C :   -0.060295
  26 H :    0.032692
  27 H :    0.022338
  28 C :   -0.054927
  29 H :    0.039089
  30 H :    0.035071
  31 H :    0.039763
  32 H :    0.022084
  33 H :    0.062019
Sum of atomic charges:   -0.0000000

LOEWDIN ATOMIC CHARGES
----------------------
   0 S :    0.401756
   1 C :   -0.189169
   2 C :   -0.060097
   3 C :   -0.045725
   4 C :   -0.211589
   5 H :    0.017074
   6 C :   -0.031596
   7 H :    0.045661
   8 H :    0.032588
   9 C :   -0.040194
  10 H :    0.016698
  11 H :    0.033009
  12 C :   -0.061331
  13 H :    0.027648
  14 H :    0.033287
  15 H :    0.021733
  16 S :    0.422055
  17 C :   -0.188193
  18 C :   -0.074840
  19 C :   -0.051594
  20 C :   -0.219328
  21 H :    0.024762
  22 C :   -0.036608
  23 H :    0.032847
  24 H :    0.027710
  25 C :   -0.035586
  26 H :    0.032347
  27 H :    0.013676
  28 C :   -0.067877
  29 H :    0.028902
  30 H :    0.030272
  31 H :    0.028672
  32 H :    0.013097
  33 H :    0.029933

  Mayer bond orders larger than 0.100000
B(  0-S ,  1-C ) :   1.1282 B(  0-S ,  4-C ) :   1.1535 B(  1-C ,  2-C ) :   1.6396
B(  1-C , 32-H ) :   0.9643 B(  2-C ,  3-C ) :   1.2159 B(  2-C ,  6-C ) :   1.0082
B(  3-C ,  4-C ) :   1.6004 B(  3-C ,  5-H ) :   1.0004 B(  4-C , 20-C ) :   0.9963
B(  6-C ,  7-H ) :   0.9300 B(  6-C ,  8-H ) :   0.9438 B(  6-C ,  9-C ) :   1.0759
B(  9-C , 10-H ) :   0.9508 B(  9-C , 11-H ) :   0.9531 B(  9-C , 12-C ) :   1.0644
B( 12-C , 13-H ) :   0.9750 B( 12-C , 14-H ) :   0.9748 B( 12-C , 15-H ) :   0.9721
B( 16-S , 17-C ) :   1.1776 B( 16-S , 20-C ) :   1.1616 B( 17-C , 18-C ) :   1.6012
B( 17-C , 20-C ) :   0.1011 B( 17-C , 33-H ) :   0.9634 B( 18-C , 19-C ) :   1.2435
B( 18-C , 21-H ) :   0.9915 B( 19-C , 20-C ) :   1.5884 B( 19-C , 22-C ) :   1.0457
B( 22-C , 23-H ) :   0.9192 B( 22-C , 24-H ) :   0.9394 B( 22-C , 25-C ) :   1.0572
B( 25-C , 26-H ) :   0.9531 B( 25-C , 27-H ) :   0.9516 B( 25-C , 28-C ) :   1.0939
B( 28-C , 29-H ) :   0.9724 B( 28-C , 30-H ) :   0.9738 B( 28-C , 31-H ) :   0.9745

Dispersion correction           -0.014233203
FINAL SINGLE POINT ENERGY     -1339.859469009003

DIPOLE MOMENT
-------------
                                X             Y             Z
Electronic contribution:     15.84370     -12.89639     -11.08741
Nuclear contribution   :    -16.06148      13.20525      11.48536
                        -----------------------------------------
Total Dipole Moment    :     -0.21778       0.30886       0.39795
                        -----------------------------------------
Magnitude (a.u.)       :      0.54881
Magnitude (Debye)      :      1.39495

Rotational constants in cm-1:     0.018370     0.008315     0.007098
Rotational constants in MHz :   550.711180   249.292402   212.794535

                             ****ORCA TERMINATED NORMALLY****
TOTAL RUN TIME: 0 days 0 hours 0 minutes 21 seconds 460 msec
