                         Program Version 4.2.1 -  RELEASE  -
|  1> ! wB97X-D3 SP def2-SVP
|  2> %pal
|  3> nprocs 24
|  4> end
|  5>
|  6> * xyz 0 1
|  7> S 	 -46.0314 	 13.8748 	 26.1667
|  8> C 	 -45.5705 	 13.0696 	 24.6695
|  9> C 	 -46.6728 	 12.4402 	 24.1775
| 10> C 	 -47.8443 	 12.4002 	 25.011
| 11> C 	 -47.697 	 13.0192 	 26.2481
| 12> H 	 -48.7721 	 11.8301 	 24.89
| 13> C 	 -46.5814 	 11.6402 	 22.9337
| 14> H 	 -47.3654 	 10.8611 	 22.9659
| 15> H 	 -45.6169 	 11.0889 	 22.928
| 16> C 	 -46.8751 	 12.4177 	 21.6316
| 17> H 	 -46.0306 	 13.1044 	 21.5598
| 18> H 	 -46.8048 	 11.6405 	 20.8521
| 19> C 	 -48.213 	 13.1374 	 21.5594
| 20> H 	 -48.5046 	 13.833 	 22.3351
| 21> H 	 -48.3339 	 13.636 	 20.5574
| 22> H 	 -49.037 	 12.4602 	 21.5271
| 23> S 	 -48.942 	 11.5959 	 28.2722
| 24> C 	 -50.396 	 12.2909 	 28.8854
| 25> C 	 -50.6692 	 13.5627 	 28.4159
| 26> C 	 -49.7269 	 14.0645 	 27.4622
| 27> C 	 -48.6774 	 13.1044 	 27.3041
| 28> H 	 -51.6153 	 13.9274 	 28.7026
| 29> C 	 -49.9247 	 15.3532 	 26.6703
| 30> H 	 -50.9534 	 15.2285 	 26.2487
| 31> H 	 -49.1566 	 15.4205 	 25.8204
| 32> C 	 -49.6567 	 16.6772 	 27.4174
| 33> H 	 -49.7565 	 17.5339 	 26.6729
| 34> H 	 -48.6911 	 16.6789 	 27.9837
| 35> C 	 -50.7422 	 16.9845 	 28.4524
| 36> H 	 -51.758 	 16.8708 	 28.0962
| 37> H 	 -50.5328 	 17.8819 	 29.0324
| 38> H 	 -50.6518 	 16.2344 	 29.2564
| 39> H 	 -44.5797 	 13.0916 	 24.1142
| 40> H 	 -51.0225 	 11.8103 	 29.5962
| 41> *
| 42>
| 43>                          ****END OF INPUT****

CARTESIAN COORDINATES (ANGSTROEM)
---------------------------------
  S    -46.031400   13.874800   26.166700
  C    -45.570500   13.069600   24.669500
  C    -46.672800   12.440200   24.177500
  C    -47.844300   12.400200   25.011000
  C    -47.697000   13.019200   26.248100
  H    -48.772100   11.830100   24.890000
  C    -46.581400   11.640200   22.933700
  H    -47.365400   10.861100   22.965900
  H    -45.616900   11.088900   22.928000
  C    -46.875100   12.417700   21.631600
  H    -46.030600   13.104400   21.559800
  H    -46.804800   11.640500   20.852100
  C    -48.213000   13.137400   21.559400
  H    -48.504600   13.833000   22.335100
  H    -48.333900   13.636000   20.557400
  H    -49.037000   12.460200   21.527100
  S    -48.942000   11.595900   28.272200
  C    -50.396000   12.290900   28.885400
  C    -50.669200   13.562700   28.415900
  C    -49.726900   14.064500   27.462200
  C    -48.677400   13.104400   27.304100
  H    -51.615300   13.927400   28.702600
  C    -49.924700   15.353200   26.670300
  H    -50.953400   15.228500   26.248700
  H    -49.156600   15.420500   25.820400
  C    -49.656700   16.677200   27.417400
  H    -49.756500   17.533900   26.672900
  H    -48.691100   16.678900   27.983700
  C    -50.742200   16.984500   28.452400
  H    -51.758000   16.870800   28.096200
  H    -50.532800   17.881900   29.032400
  H    -50.651800   16.234400   29.256400
  H    -44.579700   13.091600   24.114200
  H    -51.022500   11.810300   29.596200

 Total Charge           Charge          ....    0
 Multiplicity           Mult            ....    1
 Number of Electrons    NEL             ....  134
 Basis Dimension        Dim             ....  322

ORBITAL ENERGIES
----------------

  NO   OCC          E(Eh)            E(eV)
   0   2.0000     -88.971649     -2421.0417
   1   2.0000     -88.958429     -2420.6819
   2   2.0000     -10.335052      -281.2311
   3   2.0000     -10.334147      -281.2064
   4   2.0000     -10.318411      -280.7782
   5   2.0000     -10.317698      -280.7588
   6   2.0000     -10.317209      -280.7455
   7   2.0000     -10.305180      -280.4182
   8   2.0000     -10.298538      -280.2375
   9   2.0000     -10.296757      -280.1890
  10   2.0000     -10.293762      -280.1075
  11   2.0000     -10.293705      -280.1059
  12   2.0000     -10.288063      -279.9524
  13   2.0000     -10.286715      -279.9157
  14   2.0000     -10.276681      -279.6427
  15   2.0000     -10.273532      -279.5570
  16   2.0000      -8.085839      -220.0269
  17   2.0000      -8.071343      -219.6324
  18   2.0000      -6.044156      -164.4698
  19   2.0000      -6.040495      -164.3702
  20   2.0000      -6.036742      -164.2681
  21   2.0000      -6.030076      -164.0867
  22   2.0000      -6.026134      -163.9795
  23   2.0000      -6.021904      -163.8643
  24   2.0000      -0.996926       -27.1277
  25   2.0000      -0.976972       -26.5848
  26   2.0000      -0.908204       -24.7135
  27   2.0000      -0.907408       -24.6918
  28   2.0000      -0.870640       -23.6913
  29   2.0000      -0.850976       -23.1562
  30   2.0000      -0.837311       -22.7844
  31   2.0000      -0.814755       -22.1706
  32   2.0000      -0.783875       -21.3303
  33   2.0000      -0.767560       -20.8864
  34   2.0000      -0.710373       -19.3302
  35   2.0000      -0.696655       -18.9569
  36   2.0000      -0.687884       -18.7183
  37   2.0000      -0.658848       -17.9282
  38   2.0000      -0.633509       -17.2387
  39   2.0000      -0.608432       -16.5563
  40   2.0000      -0.592828       -16.1317
  41   2.0000      -0.574681       -15.6379
  42   2.0000      -0.554960       -15.1012
  43   2.0000      -0.541766       -14.7422
  44   2.0000      -0.540456       -14.7066
  45   2.0000      -0.533859       -14.5270
  46   2.0000      -0.526641       -14.3306
  47   2.0000      -0.510233       -13.8841
  48   2.0000      -0.497450       -13.5363
  49   2.0000      -0.495021       -13.4702
  50   2.0000      -0.490969       -13.3599
  51   2.0000      -0.477657       -12.9977
  52   2.0000      -0.472811       -12.8659
  53   2.0000      -0.465855       -12.6766
  54   2.0000      -0.456269       -12.4157
  55   2.0000      -0.445398       -12.1199
  56   2.0000      -0.441127       -12.0037
  57   2.0000      -0.438544       -11.9334
  58   2.0000      -0.432267       -11.7626
  59   2.0000      -0.417207       -11.3528
  60   2.0000      -0.412601       -11.2275
  61   2.0000      -0.410087       -11.1590
  62   2.0000      -0.402816       -10.9612
  63   2.0000      -0.340041        -9.2530
  64   2.0000      -0.330706        -8.9990
  65   2.0000      -0.316345        -8.6082
  66   2.0000      -0.304446        -8.2844
  67   0.0000       0.034816         0.9474
  68   0.0000       0.042396         1.1536
  69   0.0000       0.104919         2.8550
  70   0.0000       0.110934         3.0187
  71   0.0000       0.128538         3.4977

MULLIKEN ATOMIC CHARGES
-----------------------
   0 S :    0.070806
   1 C :   -0.127293
   2 C :   -0.077555
   3 C :    0.052043
   4 C :   -0.172859
   5 H :    0.025735
   6 C :    0.010473
   7 H :    0.014525
   8 H :    0.037538
   9 C :   -0.037062
  10 H :    0.022200
  11 H :    0.032972
  12 C :   -0.055558
  13 H :    0.046471
  14 H :    0.036952
  15 H :    0.010207
  16 S :    0.120658
  17 C :   -0.086395
  18 C :   -0.023161
  19 C :    0.000519
  20 C :   -0.199339
  21 H :    0.003232
  22 C :    0.028013
  23 H :    0.048956
  24 H :    0.053292
  25 C :   -0.078708
  26 H :    0.047123
  27 H :    0.051172
  28 C :   -0.061192
  29 H :    0.027661
  30 H :    0.035131
  31 H :    0.019599
  32 H :    0.077013
  33 H :    0.046831
Sum of atomic charges:   -0.0000000

LOEWDIN ATOMIC CHARGES
----------------------
   0 S :    0.336310
   1 C :   -0.194877
   2 C :   -0.080856
   3 C :   -0.055197
   4 C :   -0.167424
   5 H :    0.037365
   6 C :   -0.040674
   7 H :    0.025214
   8 H :    0.034792
   9 C :   -0.036213
  10 H :    0.019466
  11 H :    0.028045
  12 C :   -0.072798
  13 H :    0.027414
  14 H :    0.036250
  15 H :    0.019751
  16 S :    0.405408
  17 C :   -0.180170
  18 C :   -0.074246
  19 C :   -0.035100
  20 C :   -0.194907
  21 H :    0.024363
  22 C :   -0.039526
  23 H :    0.040435
  24 H :    0.043575
  25 C :   -0.042085
  26 H :    0.032459
  27 H :    0.037153
  28 C :   -0.078086
  29 H :    0.020131
  30 H :    0.027086
  31 H :    0.023530
  32 H :    0.050484
  33 H :    0.022928

  Mayer bond orders larger than 0.100000
B(  0-S ,  1-C ) :   1.1216 B(  0-S ,  4-C ) :   1.0901 B(  1-C ,  2-C ) :   1.6370
B(  1-C , 32-H ) :   0.9581 B(  2-C ,  3-C ) :   1.1998 B(  2-C ,  6-C ) :   1.0239
B(  3-C ,  4-C ) :   1.6159 B(  3-C ,  5-H ) :   0.9884 B(  4-C , 20-C ) :   1.0543
B(  6-C ,  7-H ) :   0.9438 B(  6-C ,  8-H ) :   0.9494 B(  6-C ,  9-C ) :   1.0632
B(  9-C , 10-H ) :   0.9573 B(  9-C , 11-H ) :   0.9554 B(  9-C , 12-C ) :   1.0790
B( 12-C , 13-H ) :   0.9735 B( 12-C , 14-H ) :   0.9708 B( 12-C , 15-H ) :   0.9706
B( 16-S , 17-C ) :   1.1657 B( 16-S , 20-C ) :   1.1383 B( 17-C , 18-C ) :   1.6235
B( 17-C , 33-H ) :   0.9654 B( 18-C , 19-C ) :   1.2266 B( 18-C , 21-H ) :   0.9916
B( 19-C , 20-C ) :   1.5739 B( 19-C , 22-C ) :   1.0293 B( 22-C , 23-H ) :   0.9395
B( 22-C , 24-H ) :   0.9310 B( 22-C , 25-C ) :   1.0641 B( 25-C , 26-H ) :   0.9572
B( 25-C , 27-H ) :   0.9514 B( 25-C , 28-C ) :   1.0817 B( 28-C , 29-H ) :   0.9750
B( 28-C , 30-H ) :   0.9704 B( 28-C , 31-H ) :   0.9676

Dispersion correction           -0.014805789
FINAL SINGLE POINT ENERGY     -1339.861941691601

DIPOLE MOMENT
-------------
                                X             Y             Z
Electronic contribution:      9.05178     -11.27681      15.35883
Nuclear contribution   :     -9.60750      11.22098     -15.70890
                        -----------------------------------------
Total Dipole Moment    :     -0.55572      -0.05583      -0.35007
                        -----------------------------------------
Magnitude (a.u.)       :      0.65916
Magnitude (Debye)      :      1.67546

Rotational constants in cm-1:     0.019493     0.007972     0.007124
Rotational constants in MHz :   584.381056   239.004154   213.579966

                             ****ORCA TERMINATED NORMALLY****
TOTAL RUN TIME: 0 days 0 hours 0 minutes 21 seconds 494 msec
