                         Program Version 4.2.1 -  RELEASE  -
|  1> ! wB97X-D3 SP def2-SVP
|  2> %pal
|  3> nprocs 24
|  4> end
|  5>
|  6> * xyz 0 1
|  7> S 	 -84.4112 	 2.70073 	 -116.177
|  8> C 	 -84.2991 	 3.30126 	 -117.798
|  9> C 	 -85.5427 	 3.54205 	 -118.341
| 10> C 	 -86.5977 	 3.36049 	 -117.375
| 11> C 	 -86.2128 	 2.9226 	 -116.152
| 12> H 	 -87.616 	 3.6032 	 -117.504
| 13> C 	 -85.843 	 4.06982 	 -119.685
| 14> H 	 -85.3942 	 5.1295 	 -119.627
| 15> H 	 -86.9074 	 4.30383 	 -119.714
| 16> C 	 -85.3714 	 3.28703 	 -120.953
| 17> H 	 -85.5885 	 3.75557 	 -121.936
| 18> H 	 -84.2766 	 3.42515 	 -120.773
| 19> C 	 -85.7544 	 1.83649 	 -120.909
| 20> H 	 -85.5408 	 1.34354 	 -119.946
| 21> H 	 -86.8975 	 1.74275 	 -120.91
| 22> H 	 -85.2652 	 1.20976 	 -121.638
| 23> S 	 -86.4796 	 1.06005 	 -114.227
| 24> C 	 -87.8357 	 0.989863 	 -113.229
| 25> C 	 -88.6883 	 2.09228 	 -113.461
| 26> C 	 -88.2988 	 2.90212 	 -114.547
| 27> C 	 -87.0161 	 2.52426 	 -114.997
| 28> H 	 -89.6154 	 2.0489 	 -112.979
| 29> C 	 -89.0681 	 4.13675 	 -115.086
| 30> H 	 -88.466 	 4.84235 	 -115.626
| 31> H 	 -89.451 	 4.66043 	 -114.198
| 32> C 	 -90.3719 	 3.88805 	 -115.928
| 33> H 	 -90.9883 	 3.19407 	 -115.392
| 34> H 	 -90.1206 	 3.36527 	 -116.922
| 35> C 	 -91.1047 	 5.2364 	 -116.288
| 36> H 	 -91.3467 	 5.63907 	 -115.338
| 37> H 	 -91.9263 	 5.11934 	 -116.984
| 38> H 	 -90.2904 	 5.88171 	 -116.753
| 39> H 	 -83.3852 	 3.5199 	 -118.396
| 40> H 	 -88.014 	 0.297084 	 -112.442
| 41> *
| 42>
| 43>                          ****END OF INPUT****

CARTESIAN COORDINATES (ANGSTROEM)
---------------------------------
  S    -84.411200    2.700730  -116.177000
  C    -84.299100    3.301260  -117.798000
  C    -85.542700    3.542050  -118.341000
  C    -86.597700    3.360490  -117.375000
  C    -86.212800    2.922600  -116.152000
  H    -87.616000    3.603200  -117.504000
  C    -85.843000    4.069820  -119.685000
  H    -85.394200    5.129500  -119.627000
  H    -86.907400    4.303830  -119.714000
  C    -85.371400    3.287030  -120.953000
  H    -85.588500    3.755570  -121.936000
  H    -84.276600    3.425150  -120.773000
  C    -85.754400    1.836490  -120.909000
  H    -85.540800    1.343540  -119.946000
  H    -86.897500    1.742750  -120.910000
  H    -85.265200    1.209760  -121.638000
  S    -86.479600    1.060050  -114.227000
  C    -87.835700    0.989863  -113.229000
  C    -88.688300    2.092280  -113.461000
  C    -88.298800    2.902120  -114.547000
  C    -87.016100    2.524260  -114.997000
  H    -89.615400    2.048900  -112.979000
  C    -89.068100    4.136750  -115.086000
  H    -88.466000    4.842350  -115.626000
  H    -89.451000    4.660430  -114.198000
  C    -90.371900    3.888050  -115.928000
  H    -90.988300    3.194070  -115.392000
  H    -90.120600    3.365270  -116.922000
  C    -91.104700    5.236400  -116.288000
  H    -91.346700    5.639070  -115.338000
  H    -91.926300    5.119340  -116.984000
  H    -90.290400    5.881710  -116.753000
  H    -83.385200    3.519900  -118.396000
  H    -88.014000    0.297084  -112.442000

 Total Charge           Charge          ....    0
 Multiplicity           Mult            ....    1
 Number of Electrons    NEL             ....  134
 Basis Dimension        Dim             ....  322

ORBITAL ENERGIES
----------------

  NO   OCC          E(Eh)            E(eV)
   0   2.0000     -88.969373     -2420.9797
   1   2.0000     -88.965051     -2420.8621
   2   2.0000     -10.332125      -281.1514
   3   2.0000     -10.329623      -281.0833
   4   2.0000     -10.315120      -280.6887
   5   2.0000     -10.314724      -280.6779
   6   2.0000     -10.312009      -280.6040
   7   2.0000     -10.300115      -280.2804
   8   2.0000     -10.299237      -280.2565
   9   2.0000     -10.296631      -280.1856
  10   2.0000     -10.295648      -280.1588
  11   2.0000     -10.294939      -280.1395
  12   2.0000     -10.292641      -280.0770
  13   2.0000     -10.288574      -279.9663
  14   2.0000     -10.287272      -279.9309
  15   2.0000     -10.278664      -279.6967
  16   2.0000      -8.085290      -220.0119
  17   2.0000      -8.079045      -219.8420
  18   2.0000      -6.043563      -164.4537
  19   2.0000      -6.039391      -164.3402
  20   2.0000      -6.037782      -164.2964
  21   2.0000      -6.036455      -164.2603
  22   2.0000      -6.033710      -164.1856
  23   2.0000      -6.029554      -164.0725
  24   2.0000      -1.010595       -27.4997
  25   2.0000      -0.986695       -26.8493
  26   2.0000      -0.911474       -24.8025
  27   2.0000      -0.905469       -24.6391
  28   2.0000      -0.869849       -23.6698
  29   2.0000      -0.856179       -23.2978
  30   2.0000      -0.846929       -23.0461
  31   2.0000      -0.815604       -22.1937
  32   2.0000      -0.782990       -21.3062
  33   2.0000      -0.769421       -20.9370
  34   2.0000      -0.706006       -19.2114
  35   2.0000      -0.703224       -19.1357
  36   2.0000      -0.694721       -18.9043
  37   2.0000      -0.666069       -18.1247
  38   2.0000      -0.636294       -17.3144
  39   2.0000      -0.616322       -16.7710
  40   2.0000      -0.597534       -16.2597
  41   2.0000      -0.572044       -15.5661
  42   2.0000      -0.566545       -15.4165
  43   2.0000      -0.553044       -15.0491
  44   2.0000      -0.541630       -14.7385
  45   2.0000      -0.525547       -14.3009
  46   2.0000      -0.516695       -14.0600
  47   2.0000      -0.512473       -13.9451
  48   2.0000      -0.504249       -13.7213
  49   2.0000      -0.500954       -13.6317
  50   2.0000      -0.488756       -13.2997
  51   2.0000      -0.481089       -13.0911
  52   2.0000      -0.475921       -12.9505
  53   2.0000      -0.470706       -12.8086
  54   2.0000      -0.460266       -12.5245
  55   2.0000      -0.448759       -12.2114
  56   2.0000      -0.440221       -11.9790
  57   2.0000      -0.435640       -11.8544
  58   2.0000      -0.435203       -11.8425
  59   2.0000      -0.429279       -11.6813
  60   2.0000      -0.422216       -11.4891
  61   2.0000      -0.414889       -11.2897
  62   2.0000      -0.400800       -10.9063
  63   2.0000      -0.359043        -9.7701
  64   2.0000      -0.336433        -9.1548
  65   2.0000      -0.326396        -8.8817
  66   2.0000      -0.283930        -7.7261
  67   0.0000       0.025228         0.6865
  68   0.0000       0.071330         1.9410
  69   0.0000       0.107657         2.9295
  70   0.0000       0.115748         3.1497
  71   0.0000       0.126180         3.4335

MULLIKEN ATOMIC CHARGES
-----------------------
   0 S :    0.093653
   1 C :   -0.117977
   2 C :   -0.108811
   3 C :    0.032187
   4 C :   -0.122745
   5 H :   -0.020118
   6 C :    0.018624
   7 H :    0.053076
   8 H :    0.013853
   9 C :   -0.054222
  10 H :    0.045284
  11 H :    0.023067
  12 C :   -0.061267
  13 H :    0.041114
  14 H :    0.033527
  15 H :    0.039506
  16 S :    0.124362
  17 C :   -0.088621
  18 C :   -0.025760
  19 C :   -0.009131
  20 C :   -0.138001
  21 H :    0.002005
  22 C :    0.033898
  23 H :    0.023726
  24 H :    0.027023
  25 C :   -0.111525
  26 H :    0.025615
  27 H :    0.038013
  28 C :   -0.038352
  29 H :    0.027177
  30 H :    0.050830
  31 H :    0.037024
  32 H :    0.062100
  33 H :    0.050865
Sum of atomic charges:   -0.0000000

LOEWDIN ATOMIC CHARGES
----------------------
   0 S :    0.376110
   1 C :   -0.207378
   2 C :   -0.070721
   3 C :   -0.061241
   4 C :   -0.168078
   5 H :    0.023194
   6 C :   -0.043885
   7 H :    0.046927
   8 H :    0.022722
   9 C :   -0.046170
  10 H :    0.031145
  11 H :    0.025409
  12 C :   -0.076288
  13 H :    0.030969
  14 H :    0.033168
  15 H :    0.024825
  16 S :    0.452763
  17 C :   -0.203564
  18 C :   -0.068704
  19 C :   -0.052158
  20 C :   -0.200476
  21 H :    0.022002
  22 C :   -0.030301
  23 H :    0.023753
  24 H :    0.034232
  25 C :   -0.042411
  26 H :    0.014902
  27 H :    0.023685
  28 C :   -0.060470
  29 H :    0.018635
  30 H :    0.028163
  31 H :    0.033429
  32 H :    0.040123
  33 H :    0.025691

  Mayer bond orders larger than 0.100000
B(  0-S ,  1-C ) :   1.1290 B(  0-S ,  4-C ) :   1.1174 B(  1-C ,  2-C ) :   1.6230
B(  1-C , 32-H ) :   0.9605 B(  2-C ,  3-C ) :   1.2162 B(  2-C ,  6-C ) :   1.0177
B(  3-C ,  4-C ) :   1.6144 B(  3-C ,  5-H ) :   0.9962 B(  4-C , 20-C ) :   1.0433
B(  6-C ,  7-H ) :   0.9405 B(  6-C ,  8-H ) :   0.9427 B(  6-C ,  9-C ) :   1.0430
B(  9-C , 10-H ) :   0.9580 B(  9-C , 11-H ) :   0.9538 B(  9-C , 12-C ) :   1.0826
B( 12-C , 13-H ) :   0.9665 B( 12-C , 14-H ) :   0.9722 B( 12-C , 15-H ) :   0.9739
B( 16-S , 17-C ) :   1.1929 B( 16-S , 20-C ) :   1.1715 B( 17-C , 18-C ) :   1.5611
B( 17-C , 20-C ) :   0.1088 B( 17-C , 33-H ) :   0.9700 B( 18-C , 19-C ) :   1.2847
B( 18-C , 21-H ) :   0.9943 B( 19-C , 20-C ) :   1.5424 B( 19-C , 22-C ) :   1.0288
B( 22-C , 23-H ) :   0.9462 B( 22-C , 24-H ) :   0.9387 B( 22-C , 25-C ) :   1.0489
B( 25-C , 26-H ) :   0.9584 B( 25-C , 27-H ) :   0.9559 B( 25-C , 28-C ) :   1.0641
B( 28-C , 29-H ) :   0.9778 B( 28-C , 30-H ) :   0.9757 B( 28-C , 31-H ) :   0.9752

Dispersion correction           -0.014143341
FINAL SINGLE POINT ENERGY     -1339.870545523175

DIPOLE MOMENT
-------------
                                X             Y             Z
Electronic contribution:     16.14607     -10.88141      19.84164
Nuclear contribution   :    -16.69140      11.10759     -20.11885
                        -----------------------------------------
Total Dipole Moment    :     -0.54533       0.22617      -0.27721
                        -----------------------------------------
Magnitude (a.u.)       :      0.65221
Magnitude (Debye)      :      1.65780

Rotational constants in cm-1:     0.016831     0.009170     0.006677
Rotational constants in MHz :   504.572295   274.916167   200.168585

                             ****ORCA TERMINATED NORMALLY****
TOTAL RUN TIME: 0 days 0 hours 0 minutes 21 seconds 423 msec
