                         Program Version 4.2.1 -  RELEASE  -
|  1> ! wB97X-D3 SP def2-SVP
|  2> %pal
|  3> nprocs 24
|  4> end
|  5>
|  6> * xyz 0 1
|  7> S 	 -142.67 	 26.1649 	 -16.3504
|  8> C 	 -143.791 	 25.9956 	 -17.7088
|  9> C 	 -144.16 	 27.2943 	 -18.2024
| 10> C 	 -143.656 	 28.3483 	 -17.3892
| 11> C 	 -142.726 	 27.9687 	 -16.4682
| 12> H 	 -143.804 	 29.3713 	 -17.4183
| 13> C 	 -144.96 	 27.5389 	 -19.4815
| 14> H 	 -144.782 	 28.5869 	 -19.8279
| 15> H 	 -146.004 	 27.4275 	 -19.1244
| 16> C 	 -144.752 	 26.6422 	 -20.6644
| 17> H 	 -143.688 	 26.5544 	 -20.8228
| 18> H 	 -145.012 	 25.6389 	 -20.3618
| 19> C 	 -145.406 	 27.0331 	 -21.9286
| 20> H 	 -146.404 	 26.8108 	 -21.813
| 21> H 	 -145.33 	 28.0591 	 -22.0931
| 22> H 	 -145.016 	 26.5511 	 -22.8102
| 23> S 	 -141.588 	 28.2725 	 -13.9307
| 24> C 	 -140.704 	 29.7255 	 -13.5617
| 25> C 	 -140.58 	 30.5276 	 -14.6839
| 26> C 	 -141.18 	 29.9504 	 -15.8714
| 27> C 	 -141.81 	 28.7462 	 -15.6349
| 28> H 	 -140.112 	 31.492 	 -14.628
| 29> C 	 -141.378 	 30.867 	 -17.0369
| 30> H 	 -141.625 	 30.3606 	 -17.976
| 31> H 	 -140.419 	 31.2468 	 -17.1602
| 32> C 	 -142.304 	 32.0728 	 -16.744
| 33> H 	 -141.86 	 32.9125 	 -17.2533
| 34> H 	 -142.342 	 32.2811 	 -15.6533
| 35> C 	 -143.803 	 32.0082 	 -16.9851
| 36> H 	 -144.407 	 31.3835 	 -16.3181
| 37> H 	 -143.977 	 31.6986 	 -17.989
| 38> H 	 -144.151 	 33.0624 	 -16.9672
| 39> H 	 -143.913 	 25.0912 	 -18.2614
| 40> H 	 -140.22 	 29.969 	 -12.6074
| 41> *
| 42>
| 43>                          ****END OF INPUT****

CARTESIAN COORDINATES (ANGSTROEM)
---------------------------------
  S    -142.670000   26.164900  -16.350400
  C    -143.791000   25.995600  -17.708800
  C    -144.160000   27.294300  -18.202400
  C    -143.656000   28.348300  -17.389200
  C    -142.726000   27.968700  -16.468200
  H    -143.804000   29.371300  -17.418300
  C    -144.960000   27.538900  -19.481500
  H    -144.782000   28.586900  -19.827900
  H    -146.004000   27.427500  -19.124400
  C    -144.752000   26.642200  -20.664400
  H    -143.688000   26.554400  -20.822800
  H    -145.012000   25.638900  -20.361800
  C    -145.406000   27.033100  -21.928600
  H    -146.404000   26.810800  -21.813000
  H    -145.330000   28.059100  -22.093100
  H    -145.016000   26.551100  -22.810200
  S    -141.588000   28.272500  -13.930700
  C    -140.704000   29.725500  -13.561700
  C    -140.580000   30.527600  -14.683900
  C    -141.180000   29.950400  -15.871400
  C    -141.810000   28.746200  -15.634900
  H    -140.112000   31.492000  -14.628000
  C    -141.378000   30.867000  -17.036900
  H    -141.625000   30.360600  -17.976000
  H    -140.419000   31.246800  -17.160200
  C    -142.304000   32.072800  -16.744000
  H    -141.860000   32.912500  -17.253300
  H    -142.342000   32.281100  -15.653300
  C    -143.803000   32.008200  -16.985100
  H    -144.407000   31.383500  -16.318100
  H    -143.977000   31.698600  -17.989000
  H    -144.151000   33.062400  -16.967200
  H    -143.913000   25.091200  -18.261400
  H    -140.220000   29.969000  -12.607400

 Total Charge           Charge          ....    0
 Multiplicity           Mult            ....    1
 Number of Electrons    NEL             ....  134
 Basis Dimension        Dim             ....  322

ORBITAL ENERGIES
----------------

  NO   OCC          E(Eh)            E(eV)
   0   2.0000     -88.964812     -2420.8556
   1   2.0000     -88.962606     -2420.7956
   2   2.0000     -10.332957      -281.1741
   3   2.0000     -10.329662      -281.0844
   4   2.0000     -10.321195      -280.8540
   5   2.0000     -10.316914      -280.7375
   6   2.0000     -10.310374      -280.5595
   7   2.0000     -10.303553      -280.3739
   8   2.0000     -10.295647      -280.1588
   9   2.0000     -10.295053      -280.1426
  10   2.0000     -10.289733      -279.9979
  11   2.0000     -10.288978      -279.9773
  12   2.0000     -10.287641      -279.9409
  13   2.0000     -10.280410      -279.7442
  14   2.0000     -10.277500      -279.6650
  15   2.0000     -10.264438      -279.3096
  16   2.0000      -8.079285      -219.8485
  17   2.0000      -8.076219      -219.7651
  18   2.0000      -6.037946      -164.3009
  19   2.0000      -6.034783      -164.2148
  20   2.0000      -6.033825      -164.1887
  21   2.0000      -6.030907      -164.1093
  22   2.0000      -6.029890      -164.0817
  23   2.0000      -6.026972      -164.0022
  24   2.0000      -1.001545       -27.2534
  25   2.0000      -0.977254       -26.5924
  26   2.0000      -0.919899       -25.0317
  27   2.0000      -0.913697       -24.8630
  28   2.0000      -0.869428       -23.6583
  29   2.0000      -0.855927       -23.2910
  30   2.0000      -0.849624       -23.1194
  31   2.0000      -0.819634       -22.3034
  32   2.0000      -0.788500       -21.4562
  33   2.0000      -0.772052       -21.0086
  34   2.0000      -0.709801       -19.3147
  35   2.0000      -0.704516       -19.1708
  36   2.0000      -0.691646       -18.8206
  37   2.0000      -0.662047       -18.0152
  38   2.0000      -0.646094       -17.5811
  39   2.0000      -0.615946       -16.7607
  40   2.0000      -0.598828       -16.2949
  41   2.0000      -0.580530       -15.7970
  42   2.0000      -0.566291       -15.4096
  43   2.0000      -0.559705       -15.2303
  44   2.0000      -0.540407       -14.7052
  45   2.0000      -0.527827       -14.3629
  46   2.0000      -0.523216       -14.2374
  47   2.0000      -0.519202       -14.1282
  48   2.0000      -0.508692       -13.8422
  49   2.0000      -0.503326       -13.6962
  50   2.0000      -0.495265       -13.4768
  51   2.0000      -0.484291       -13.1782
  52   2.0000      -0.476008       -12.9528
  53   2.0000      -0.465635       -12.6706
  54   2.0000      -0.456114       -12.4115
  55   2.0000      -0.452706       -12.3188
  56   2.0000      -0.447137       -12.1672
  57   2.0000      -0.440582       -11.9888
  58   2.0000      -0.434182       -11.8147
  59   2.0000      -0.421915       -11.4809
  60   2.0000      -0.414899       -11.2900
  61   2.0000      -0.414694       -11.2844
  62   2.0000      -0.410111       -11.1597
  63   2.0000      -0.351915        -9.5761
  64   2.0000      -0.328830        -8.9479
  65   2.0000      -0.326564        -8.8862
  66   2.0000      -0.285926        -7.7804
  67   0.0000       0.024397         0.6639
  68   0.0000       0.069439         1.8895
  69   0.0000       0.102653         2.7933
  70   0.0000       0.115492         3.1427
  71   0.0000       0.133538         3.6338

MULLIKEN ATOMIC CHARGES
-----------------------
   0 S :    0.084385
   1 C :   -0.106356
   2 C :   -0.098775
   3 C :    0.085771
   4 C :   -0.134616
   5 H :   -0.082510
   6 C :    0.044576
   7 H :    0.026336
   8 H :    0.047767
   9 C :   -0.090408
  10 H :    0.019614
  11 H :    0.015139
  12 C :    0.042687
  13 H :    0.008592
  14 H :    0.006026
  15 H :    0.031093
  16 S :    0.099143
  17 C :   -0.090575
  18 C :   -0.052390
  19 C :   -0.056975
  20 C :   -0.120487
  21 H :    0.019465
  22 C :    0.102505
  23 H :    0.029146
  24 H :    0.004627
  25 C :   -0.102201
  26 H :    0.029113
  27 H :    0.039282
  28 C :   -0.035228
  29 H :    0.058202
  30 H :    0.018303
  31 H :    0.037567
  32 H :    0.053044
  33 H :    0.068139
Sum of atomic charges:   -0.0000000

LOEWDIN ATOMIC CHARGES
----------------------
   0 S :    0.368690
   1 C :   -0.198435
   2 C :   -0.049775
   3 C :   -0.059992
   4 C :   -0.158065
   5 H :    0.019700
   6 C :   -0.035053
   7 H :    0.030724
   8 H :    0.039806
   9 C :   -0.046747
  10 H :    0.021787
  11 H :    0.018846
  12 C :   -0.047140
  13 H :    0.018222
  14 H :    0.018433
  15 H :    0.031307
  16 S :    0.391714
  17 C :   -0.186447
  18 C :   -0.071052
  19 C :   -0.055391
  20 C :   -0.192752
  21 H :    0.028980
  22 C :   -0.032406
  23 H :    0.030897
  24 H :    0.026395
  25 C :   -0.040792
  26 H :    0.024490
  27 H :    0.033855
  28 C :   -0.068823
  29 H :    0.029015
  30 H :    0.012958
  31 H :    0.037568
  32 H :    0.022376
  33 H :    0.037105

  Mayer bond orders larger than 0.100000
B(  0-S ,  1-C ) :   1.1335 B(  0-S ,  4-C ) :   1.1325 B(  1-C ,  2-C ) :   1.5974
B(  1-C ,  4-C ) :   0.1061 B(  1-C , 32-H ) :   0.9693 B(  2-C ,  3-C ) :   1.2157
B(  2-C ,  6-C ) :   1.0131 B(  3-C ,  4-C ) :   1.6048 B(  3-C ,  5-H ) :   0.9986
B(  4-C , 20-C ) :   1.0381 B(  6-C ,  7-H ) :   0.9488 B(  6-C ,  8-H ) :   0.9286
B(  6-C ,  9-C ) :   1.0753 B(  9-C , 10-H ) :   0.9568 B(  9-C , 11-H ) :   0.9431
B(  9-C , 12-C ) :   1.0957 B( 12-C , 13-H ) :   0.9701 B( 12-C , 14-H ) :   0.9694
B( 12-C , 15-H ) :   0.9688 B( 16-S , 17-C ) :   1.1500 B( 16-S , 20-C ) :   1.1183
B( 17-C , 18-C ) :   1.6196 B( 17-C , 33-H ) :   0.9647 B( 18-C , 19-C ) :   1.2157
B( 18-C , 21-H ) :   0.9906 B( 19-C , 20-C ) :   1.6113 B( 19-C , 22-C ) :   1.0659
B( 22-C , 23-H ) :   0.9358 B( 22-C , 24-H ) :   0.9129 B( 22-C , 25-C ) :   1.0580
B( 25-C , 26-H ) :   0.9573 B( 25-C , 27-H ) :   0.9552 B( 25-C , 28-C ) :   1.0927
B( 28-C , 29-H ) :   0.9650 B( 28-C , 30-H ) :   0.9617 B( 28-C , 31-H ) :   0.9630

Dispersion correction           -0.014495949
FINAL SINGLE POINT ENERGY     -1339.861876488386

DIPOLE MOMENT
-------------
                                X             Y             Z
Electronic contribution:     12.23194     -13.72438      24.13482
Nuclear contribution   :    -12.33275      14.46905     -24.69448
                        -----------------------------------------
Total Dipole Moment    :     -0.10081       0.74467      -0.55965
                        -----------------------------------------
Magnitude (a.u.)       :      0.93697
Magnitude (Debye)      :      2.38159

Rotational constants in cm-1:     0.021007     0.008329     0.006320
Rotational constants in MHz :   629.760359   249.706494   189.460274

                             ****ORCA TERMINATED NORMALLY****
TOTAL RUN TIME: 0 days 0 hours 0 minutes 20 seconds 751 msec
