                         Program Version 4.2.1 -  RELEASE  -
|  1> ! wB97X-D3 SP def2-SVP
|  2> %pal
|  3> nprocs 24
|  4> end
|  5>
|  6> * xyz 0 1
|  7> S 	 -144.405 	 5.97168 	 2.14434
|  8> C 	 -143.368 	 5.77212 	 0.775839
|  9> C 	 -142 	 6.0678 	 1.02878
| 10> C 	 -141.819 	 6.33318 	 2.39207
| 11> C 	 -143.004 	 6.29926 	 3.18995
| 12> H 	 -140.844 	 6.32337 	 2.89678
| 13> C 	 -140.901 	 6.10798 	 -0.0237949
| 14> H 	 -141.279 	 5.46354 	 -0.749185
| 15> H 	 -139.96 	 5.56978 	 0.254348
| 16> C 	 -140.535 	 7.51982 	 -0.544434
| 17> H 	 -141.438 	 8.07334 	 -0.787398
| 18> H 	 -140.044 	 8.11514 	 0.287544
| 19> C 	 -139.675 	 7.37686 	 -1.77003
| 20> H 	 -139.789 	 8.30111 	 -2.37914
| 21> H 	 -138.63 	 7.2064 	 -1.39054
| 22> H 	 -139.978 	 6.57185 	 -2.46029
| 23> S 	 -142.519 	 7.88115 	 5.3773
| 24> C 	 -143.138 	 7.42715 	 6.94978
| 25> C 	 -143.375 	 6.06032 	 6.96946
| 26> C 	 -143.402 	 5.49245 	 5.62634
| 27> C 	 -143.12 	 6.40728 	 4.65124
| 28> H 	 -143.594 	 5.55485 	 7.86283
| 29> C 	 -143.735 	 4.0267 	 5.42718
| 30> H 	 -143.791 	 3.79111 	 4.43512
| 31> H 	 -144.703 	 3.88973 	 5.96396
| 32> C 	 -142.723 	 3.14711 	 6.15295
| 33> H 	 -142.696 	 3.3776 	 7.18361
| 34> H 	 -141.646 	 3.41115 	 5.72863
| 35> C 	 -142.989 	 1.73341 	 6.15647
| 36> H 	 -142.549 	 1.3547 	 7.01501
| 37> H 	 -142.651 	 1.21856 	 5.27933
| 38> H 	 -144.056 	 1.54283 	 6.30578
| 39> H 	 -143.738 	 5.28971 	 -0.107326
| 40> H 	 -143.123 	 8.05975 	 7.82691
| 41> *
| 42>
| 43>                          ****END OF INPUT****

CARTESIAN COORDINATES (ANGSTROEM)
---------------------------------
  S    -144.405000    5.971680    2.144340
  C    -143.368000    5.772120    0.775839
  C    -142.000000    6.067800    1.028780
  C    -141.819000    6.333180    2.392070
  C    -143.004000    6.299260    3.189950
  H    -140.844000    6.323370    2.896780
  C    -140.901000    6.107980   -0.023795
  H    -141.279000    5.463540   -0.749185
  H    -139.960000    5.569780    0.254348
  C    -140.535000    7.519820   -0.544434
  H    -141.438000    8.073340   -0.787398
  H    -140.044000    8.115140    0.287544
  C    -139.675000    7.376860   -1.770030
  H    -139.789000    8.301110   -2.379140
  H    -138.630000    7.206400   -1.390540
  H    -139.978000    6.571850   -2.460290
  S    -142.519000    7.881150    5.377300
  C    -143.138000    7.427150    6.949780
  C    -143.375000    6.060320    6.969460
  C    -143.402000    5.492450    5.626340
  C    -143.120000    6.407280    4.651240
  H    -143.594000    5.554850    7.862830
  C    -143.735000    4.026700    5.427180
  H    -143.791000    3.791110    4.435120
  H    -144.703000    3.889730    5.963960
  C    -142.723000    3.147110    6.152950
  H    -142.696000    3.377600    7.183610
  H    -141.646000    3.411150    5.728630
  C    -142.989000    1.733410    6.156470
  H    -142.549000    1.354700    7.015010
  H    -142.651000    1.218560    5.279330
  H    -144.056000    1.542830    6.305780
  H    -143.738000    5.289710   -0.107326
  H    -143.123000    8.059750    7.826910

 Total Charge           Charge          ....    0
 Multiplicity           Mult            ....    1
 Number of Electrons    NEL             ....  134
 Basis Dimension        Dim             ....  322

ORBITAL ENERGIES
----------------

  NO   OCC          E(Eh)            E(eV)
   0   2.0000     -88.970496     -2421.0103
   1   2.0000     -88.957759     -2420.6637
   2   2.0000     -10.333005      -281.1754
   3   2.0000     -10.322201      -280.8814
   4   2.0000     -10.318419      -280.7784
   5   2.0000     -10.314286      -280.6660
   6   2.0000     -10.303046      -280.3601
   7   2.0000     -10.302201      -280.3371
   8   2.0000     -10.295596      -280.1574
   9   2.0000     -10.292876      -280.0834
  10   2.0000     -10.291063      -280.0341
  11   2.0000     -10.288919      -279.9757
  12   2.0000     -10.283560      -279.8299
  13   2.0000     -10.283074      -279.8167
  14   2.0000     -10.281299      -279.7684
  15   2.0000     -10.262890      -279.2674
  16   2.0000      -8.084520      -219.9910
  17   2.0000      -8.073006      -219.6777
  18   2.0000      -6.042844      -164.4341
  19   2.0000      -6.039006      -164.3297
  20   2.0000      -6.035662      -164.2387
  21   2.0000      -6.031649      -164.1295
  22   2.0000      -6.027567      -164.0184
  23   2.0000      -6.023458      -163.9066
  24   2.0000      -1.001754       -27.2591
  25   2.0000      -0.980696       -26.6861
  26   2.0000      -0.920697       -25.0534
  27   2.0000      -0.911124       -24.7929
  28   2.0000      -0.866271       -23.5724
  29   2.0000      -0.855757       -23.2863
  30   2.0000      -0.851156       -23.1611
  31   2.0000      -0.809980       -22.0407
  32   2.0000      -0.783516       -21.3205
  33   2.0000      -0.767441       -20.8831
  34   2.0000      -0.701042       -19.0763
  35   2.0000      -0.693944       -18.8832
  36   2.0000      -0.690158       -18.7801
  37   2.0000      -0.662448       -18.0261
  38   2.0000      -0.640281       -17.4229
  39   2.0000      -0.615605       -16.7515
  40   2.0000      -0.599629       -16.3167
  41   2.0000      -0.574538       -15.6340
  42   2.0000      -0.572968       -15.5913
  43   2.0000      -0.556588       -15.1455
  44   2.0000      -0.537290       -14.6204
  45   2.0000      -0.523910       -14.2563
  46   2.0000      -0.517833       -14.0909
  47   2.0000      -0.512943       -13.9579
  48   2.0000      -0.507213       -13.8020
  49   2.0000      -0.504877       -13.7384
  50   2.0000      -0.486401       -13.2356
  51   2.0000      -0.475244       -12.9321
  52   2.0000      -0.469365       -12.7721
  53   2.0000      -0.466488       -12.6938
  54   2.0000      -0.458444       -12.4749
  55   2.0000      -0.452816       -12.3218
  56   2.0000      -0.442895       -12.0518
  57   2.0000      -0.439007       -11.9460
  58   2.0000      -0.426162       -11.5965
  59   2.0000      -0.420186       -11.4338
  60   2.0000      -0.416636       -11.3372
  61   2.0000      -0.415998       -11.3199
  62   2.0000      -0.411901       -11.2084
  63   2.0000      -0.339105        -9.2275
  64   2.0000      -0.330718        -8.9993
  65   2.0000      -0.320277        -8.7152
  66   2.0000      -0.292261        -7.9528
  67   0.0000       0.032541         0.8855
  68   0.0000       0.060165         1.6372
  69   0.0000       0.104393         2.8407
  70   0.0000       0.118990         3.2379
  71   0.0000       0.129509         3.5241

MULLIKEN ATOMIC CHARGES
-----------------------
   0 S :    0.126773
   1 C :   -0.133841
   2 C :   -0.089347
   3 C :    0.034797
   4 C :   -0.195724
   5 H :    0.026034
   6 C :    0.070265
   7 H :   -0.003967
   8 H :    0.027461
   9 C :   -0.074115
  10 H :    0.030045
  11 H :    0.044909
  12 C :   -0.060480
  13 H :    0.041335
  14 H :    0.045609
  15 H :    0.035741
  16 S :    0.095598
  17 C :   -0.083126
  18 C :   -0.023078
  19 C :   -0.035105
  20 C :   -0.166448
  21 H :    0.004266
  22 C :    0.152950
  23 H :   -0.002162
  24 H :    0.026515
  25 C :   -0.149239
  26 H :    0.009434
  27 H :    0.041934
  28 C :    0.043168
  29 H :    0.009165
  30 H :    0.031429
  31 H :    0.011751
  32 H :    0.049245
  33 H :    0.058205
Sum of atomic charges:    0.0000000

LOEWDIN ATOMIC CHARGES
----------------------
   0 S :    0.418911
   1 C :   -0.207229
   2 C :   -0.061377
   3 C :   -0.065841
   4 C :   -0.195692
   5 H :    0.035436
   6 C :   -0.032768
   7 H :    0.019282
   8 H :    0.033966
   9 C :   -0.042770
  10 H :    0.022718
  11 H :    0.033396
  12 C :   -0.072570
  13 H :    0.031712
  14 H :    0.033285
  15 H :    0.026819
  16 S :    0.396449
  17 C :   -0.173658
  18 C :   -0.064481
  19 C :   -0.045919
  20 C :   -0.209406
  21 H :    0.020786
  22 C :   -0.019013
  23 H :    0.012240
  24 H :    0.036260
  25 C :   -0.046835
  26 H :    0.015887
  27 H :    0.035462
  28 C :   -0.057683
  29 H :    0.021026
  30 H :    0.023657
  31 H :    0.027607
  32 H :    0.021392
  33 H :    0.028954

  Mayer bond orders larger than 0.100000
B(  0-S ,  1-C ) :   1.1739 B(  0-S ,  4-C ) :   1.1587 B(  1-C ,  2-C ) :   1.5533
B(  1-C ,  4-C ) :   0.1159 B(  1-C , 32-H ) :   0.9664 B(  2-C ,  3-C ) :   1.2996
B(  2-C ,  6-C ) :   1.0229 B(  3-C ,  4-C ) :   1.5419 B(  3-C ,  5-H ) :   0.9837
B(  4-C , 20-C ) :   1.0278 B(  6-C ,  7-H ) :   0.9353 B(  6-C ,  8-H ) :   0.9414
B(  6-C ,  9-C ) :   1.0519 B(  9-C , 10-H ) :   0.9587 B(  9-C , 11-H ) :   0.9550
B(  9-C , 12-C ) :   1.0755 B( 12-C , 13-H ) :   0.9751 B( 12-C , 14-H ) :   0.9748
B( 12-C , 15-H ) :   0.9747 B( 16-S , 17-C ) :   1.1541 B( 16-S , 20-C ) :   1.1192
B( 17-C , 18-C ) :   1.6155 B( 17-C , 33-H ) :   0.9705 B( 18-C , 19-C ) :   1.2038
B( 18-C , 21-H ) :   0.9975 B( 19-C , 20-C ) :   1.6212 B( 19-C , 22-C ) :   1.0520
B( 22-C , 23-H ) :   0.9292 B( 22-C , 24-H ) :   0.9222 B( 22-C , 25-C ) :   1.0779
B( 25-C , 26-H ) :   0.9553 B( 25-C , 27-H ) :   0.9458 B( 25-C , 28-C ) :   1.1061
B( 28-C , 29-H ) :   0.9687 B( 28-C , 30-H ) :   0.9691 B( 28-C , 31-H ) :   0.9588

Dispersion correction           -0.013640554
FINAL SINGLE POINT ENERGY     -1339.857025228241

DIPOLE MOMENT
-------------
                                X             Y             Z
Electronic contribution:    -12.09146      13.08823       8.11629
Nuclear contribution   :     12.35129     -13.58927      -8.06981
                        -----------------------------------------
Total Dipole Moment    :      0.25983      -0.50104       0.04648
                        -----------------------------------------
Magnitude (a.u.)       :      0.56631
Magnitude (Debye)      :      1.43946

Rotational constants in cm-1:     0.020437     0.007133     0.006276
Rotational constants in MHz :   612.680330   213.828454   188.136159

                             ****ORCA TERMINATED NORMALLY****
TOTAL RUN TIME: 0 days 0 hours 0 minutes 21 seconds 147 msec
