                         Program Version 4.2.1 -  RELEASE  -
|  1> ! wB97X-D3 SP def2-SVP
|  2> %pal
|  3> nprocs 24
|  4> end
|  5>
|  6> * xyz 0 1
|  7> S 	 -123.01 	 62.3187 	 -59.9311
|  8> C 	 -124.381 	 62.3015 	 -61.0212
|  9> C 	 -125.25 	 61.2561 	 -60.6088
| 10> C 	 -124.834 	 60.5948 	 -59.4023
| 11> C 	 -123.693 	 61.1545 	 -58.8157
| 12> H 	 -125.339 	 59.8145 	 -58.9291
| 13> C 	 -126.536 	 60.8861 	 -61.3071
| 14> H 	 -126.409 	 59.948 	 -61.8076
| 15> H 	 -126.717 	 61.6234 	 -62.1087
| 16> C 	 -127.699 	 60.8521 	 -60.3726
| 17> H 	 -128.649 	 60.6482 	 -60.9028
| 18> H 	 -127.561 	 60.1825 	 -59.5344
| 19> C 	 -127.911 	 62.1313 	 -59.672
| 20> H 	 -127.682 	 63.0401 	 -60.3399
| 21> H 	 -128.943 	 62.2457 	 -59.2986
| 22> H 	 -127.319 	 62.2772 	 -58.7662
| 23> S 	 -123.456 	 62.1835 	 -56.2654
| 24> C 	 -123.031 	 61.1071 	 -54.9696
| 25> C 	 -122.978 	 59.8437 	 -55.4537
| 26> C 	 -123.017 	 59.6147 	 -56.8556
| 27> C 	 -123.326 	 60.8595 	 -57.482
| 28> H 	 -122.677 	 59.1055 	 -54.6567
| 29> C 	 -122.769 	 58.3497 	 -57.58
| 30> H 	 -123.453 	 58.1776 	 -58.336
| 31> H 	 -123.011 	 57.6006 	 -56.8762
| 32> C 	 -121.386 	 58.1852 	 -58.2044
| 33> H 	 -121.066 	 59.0342 	 -58.9032
| 34> H 	 -121.326 	 57.2749 	 -58.7868
| 35> C 	 -120.368 	 58.12 	 -57.0849
| 36> H 	 -120.685 	 57.3816 	 -56.3062
| 37> H 	 -120.262 	 59.1047 	 -56.5602
| 38> H 	 -119.348 	 57.8399 	 -57.4513
| 39> H 	 -124.643 	 62.9933 	 -61.7847
| 40> H 	 -123.018 	 61.3006 	 -53.8752
| 41> *
| 42>
| 43>                          ****END OF INPUT****

CARTESIAN COORDINATES (ANGSTROEM)
---------------------------------
  S    -123.010000   62.318700  -59.931100
  C    -124.381000   62.301500  -61.021200
  C    -125.250000   61.256100  -60.608800
  C    -124.834000   60.594800  -59.402300
  C    -123.693000   61.154500  -58.815700
  H    -125.339000   59.814500  -58.929100
  C    -126.536000   60.886100  -61.307100
  H    -126.409000   59.948000  -61.807600
  H    -126.717000   61.623400  -62.108700
  C    -127.699000   60.852100  -60.372600
  H    -128.649000   60.648200  -60.902800
  H    -127.561000   60.182500  -59.534400
  C    -127.911000   62.131300  -59.672000
  H    -127.682000   63.040100  -60.339900
  H    -128.943000   62.245700  -59.298600
  H    -127.319000   62.277200  -58.766200
  S    -123.456000   62.183500  -56.265400
  C    -123.031000   61.107100  -54.969600
  C    -122.978000   59.843700  -55.453700
  C    -123.017000   59.614700  -56.855600
  C    -123.326000   60.859500  -57.482000
  H    -122.677000   59.105500  -54.656700
  C    -122.769000   58.349700  -57.580000
  H    -123.453000   58.177600  -58.336000
  H    -123.011000   57.600600  -56.876200
  C    -121.386000   58.185200  -58.204400
  H    -121.066000   59.034200  -58.903200
  H    -121.326000   57.274900  -58.786800
  C    -120.368000   58.120000  -57.084900
  H    -120.685000   57.381600  -56.306200
  H    -120.262000   59.104700  -56.560200
  H    -119.348000   57.839900  -57.451300
  H    -124.643000   62.993300  -61.784700
  H    -123.018000   61.300600  -53.875200

 Total Charge           Charge          ....    0
 Multiplicity           Mult            ....    1
 Number of Electrons    NEL             ....  134
 Basis Dimension        Dim             ....  322

ORBITAL ENERGIES
----------------

  NO   OCC          E(Eh)            E(eV)
   0   2.0000     -88.968390     -2420.9530
   1   2.0000     -88.965365     -2420.8707
   2   2.0000     -10.331279      -281.1284
   3   2.0000     -10.328279      -281.0467
   4   2.0000     -10.317419      -280.7513
   5   2.0000     -10.316715      -280.7321
   6   2.0000     -10.308514      -280.5089
   7   2.0000     -10.304418      -280.3975
   8   2.0000     -10.293766      -280.1076
   9   2.0000     -10.292247      -280.0663
  10   2.0000     -10.288760      -279.9714
  11   2.0000     -10.288573      -279.9663
  12   2.0000     -10.282641      -279.8049
  13   2.0000     -10.279831      -279.7284
  14   2.0000     -10.278760      -279.6993
  15   2.0000     -10.272907      -279.5400
  16   2.0000      -8.082563      -219.9377
  17   2.0000      -8.079561      -219.8560
  18   2.0000      -6.041156      -164.3882
  19   2.0000      -6.038112      -164.3054
  20   2.0000      -6.036958      -164.2740
  21   2.0000      -6.034062      -164.1952
  22   2.0000      -6.033446      -164.1784
  23   2.0000      -6.030356      -164.0943
  24   2.0000      -1.005119       -27.3507
  25   2.0000      -0.982189       -26.7267
  26   2.0000      -0.923280       -25.1237
  27   2.0000      -0.917732       -24.9728
  28   2.0000      -0.874813       -23.8049
  29   2.0000      -0.848165       -23.0797
  30   2.0000      -0.843072       -22.9412
  31   2.0000      -0.813490       -22.1362
  32   2.0000      -0.785357       -21.3706
  33   2.0000      -0.772430       -21.0189
  34   2.0000      -0.715859       -19.4795
  35   2.0000      -0.692631       -18.8475
  36   2.0000      -0.688946       -18.7472
  37   2.0000      -0.651522       -17.7288
  38   2.0000      -0.640065       -17.4171
  39   2.0000      -0.624868       -17.0035
  40   2.0000      -0.596970       -16.2444
  41   2.0000      -0.569433       -15.4951
  42   2.0000      -0.561073       -15.2676
  43   2.0000      -0.553082       -15.0501
  44   2.0000      -0.551737       -15.0135
  45   2.0000      -0.544910       -14.8278
  46   2.0000      -0.519449       -14.1349
  47   2.0000      -0.516290       -14.0490
  48   2.0000      -0.506581       -13.7848
  49   2.0000      -0.491508       -13.3746
  50   2.0000      -0.489808       -13.3284
  51   2.0000      -0.480526       -13.0758
  52   2.0000      -0.473264       -12.8782
  53   2.0000      -0.458059       -12.4644
  54   2.0000      -0.454811       -12.3760
  55   2.0000      -0.440915       -11.9979
  56   2.0000      -0.439370       -11.9559
  57   2.0000      -0.436804       -11.8860
  58   2.0000      -0.427882       -11.6433
  59   2.0000      -0.427453       -11.6316
  60   2.0000      -0.415491       -11.3061
  61   2.0000      -0.414484       -11.2787
  62   2.0000      -0.409983       -11.1562
  63   2.0000      -0.341412        -9.2903
  64   2.0000      -0.331349        -9.0165
  65   2.0000      -0.324785        -8.8378
  66   2.0000      -0.293698        -7.9919
  67   0.0000       0.020818         0.5665
  68   0.0000       0.063235         1.7207
  69   0.0000       0.113861         3.0983
  70   0.0000       0.119712         3.2575
  71   0.0000       0.137018         3.7284

MULLIKEN ATOMIC CHARGES
-----------------------
   0 S :    0.122028
   1 C :   -0.107534
   2 C :   -0.129105
   3 C :    0.059226
   4 C :   -0.168357
   5 H :   -0.003752
   6 C :    0.114577
   7 H :    0.033938
   8 H :    0.013792
   9 C :   -0.070134
  10 H :    0.036452
  11 H :    0.029363
  12 C :   -0.084734
  13 H :    0.025728
  14 H :    0.030477
  15 H :    0.036758
  16 S :    0.109057
  17 C :   -0.100444
  18 C :   -0.073482
  19 C :   -0.036067
  20 C :   -0.179814
  21 H :    0.031385
  22 C :    0.153501
  23 H :   -0.003134
  24 H :    0.006310
  25 C :   -0.062814
  26 H :    0.051130
  27 H :    0.029654
  28 C :   -0.096120
  29 H :    0.026026
  30 H :    0.052872
  31 H :    0.036660
  32 H :    0.044368
  33 H :    0.072188
Sum of atomic charges:    0.0000000

LOEWDIN ATOMIC CHARGES
----------------------
   0 S :    0.411372
   1 C :   -0.201103
   2 C :   -0.055177
   3 C :   -0.047289
   4 C :   -0.206113
   5 H :    0.019435
   6 C :   -0.030714
   7 H :    0.031284
   8 H :    0.030244
   9 C :   -0.052214
  10 H :    0.030711
  11 H :    0.025595
  12 C :   -0.073171
  13 H :    0.026531
  14 H :    0.026454
  15 H :    0.024732
  16 S :    0.394765
  17 C :   -0.201734
  18 C :   -0.087164
  19 C :   -0.047860
  20 C :   -0.178632
  21 H :    0.036906
  22 C :   -0.027629
  23 H :    0.022842
  24 H :    0.029513
  25 C :   -0.037389
  26 H :    0.037432
  27 H :    0.023294
  28 C :   -0.076355
  29 H :    0.022918
  30 H :    0.031196
  31 H :    0.025952
  32 H :    0.026918
  33 H :    0.044452

  Mayer bond orders larger than 0.100000
B(  0-S ,  1-C ) :   1.1400 B(  0-S ,  4-C ) :   1.1488 B(  1-C ,  2-C ) :   1.5765
B(  1-C , 32-H ) :   0.9719 B(  2-C ,  3-C ) :   1.2603 B(  2-C ,  6-C ) :   1.0235
B(  3-C ,  4-C ) :   1.5295 B(  3-C ,  5-H ) :   0.9984 B(  4-C , 20-C ) :   1.0960
B(  6-C ,  7-H ) :   0.9334 B(  6-C ,  8-H ) :   0.9398 B(  6-C ,  9-C ) :   1.0856
B(  9-C , 10-H ) :   0.9550 B(  9-C , 11-H ) :   0.9501 B(  9-C , 12-C ) :   1.0757
B( 12-C , 13-H ) :   0.9745 B( 12-C , 14-H ) :   0.9723 B( 12-C , 15-H ) :   0.9696
B( 16-S , 17-C ) :   1.1390 B( 16-S , 20-C ) :   1.1475 B( 17-C , 18-C ) :   1.6424
B( 17-C , 20-C ) :   0.1021 B( 17-C , 33-H ) :   0.9578 B( 18-C , 19-C ) :   1.2410
B( 18-C , 21-H ) :   0.9696 B( 19-C , 20-C ) :   1.5399 B( 19-C , 22-C ) :   1.0482
B( 22-C , 23-H ) :   0.9112 B( 22-C , 24-H ) :   0.9232 B( 22-C , 25-C ) :   1.0733
B( 25-C , 26-H ) :   0.9547 B( 25-C , 27-H ) :   0.9538 B( 25-C , 28-C ) :   1.0736
B( 28-C , 29-H ) :   0.9741 B( 28-C , 30-H ) :   0.9733 B( 28-C , 31-H ) :   0.9732

Dispersion correction           -0.015429283
FINAL SINGLE POINT ENERGY     -1339.866474283109

DIPOLE MOMENT
-------------
                                X             Y             Z
Electronic contribution:      7.34329      13.89264       3.82868
Nuclear contribution   :     -7.71447     -14.42827      -3.82744
                        -----------------------------------------
Total Dipole Moment    :     -0.37118      -0.53563       0.00124
                        -----------------------------------------
Magnitude (a.u.)       :      0.65167
Magnitude (Debye)      :      1.65641

Rotational constants in cm-1:     0.020523     0.008627     0.007957
Rotational constants in MHz :   615.266120   258.629486   238.556355

                             ****ORCA TERMINATED NORMALLY****
TOTAL RUN TIME: 0 days 0 hours 0 minutes 23 seconds 427 msec
