                         Program Version 4.2.1 -  RELEASE  -
|  1> ! wB97X-D3 SP def2-SVP
|  2> %pal
|  3> nprocs 24
|  4> end
|  5>
|  6> * xyz 0 1
|  7> S 	 -29.3975 	 18.0201 	 5.61991
|  8> C 	 -31.0791 	 17.8435 	 6.02751
|  9> C 	 -31.4212 	 18.6971 	 7.05674
| 10> C 	 -30.4094 	 19.6469 	 7.37043
| 11> C 	 -29.2179 	 19.4488 	 6.70764
| 12> H 	 -30.5817 	 20.4502 	 8.10832
| 13> C 	 -32.7161 	 18.7989 	 7.72602
| 14> H 	 -33.3456 	 18.2219 	 7.11515
| 15> H 	 -33.1344 	 19.7896 	 7.66353
| 16> C 	 -32.6544 	 18.2955 	 9.17488
| 17> H 	 -32.6506 	 17.1422 	 9.17102
| 18> H 	 -31.6938 	 18.6402 	 9.65631
| 19> C 	 -33.865 	 18.6814 	 9.95716
| 20> H 	 -34.7745 	 18.3333 	 9.47138
| 21> H 	 -33.7672 	 18.2831 	 11.0048
| 22> H 	 -33.9972 	 19.7866 	 10.0681
| 23> S 	 -27.3278 	 19.807 	 8.69771
| 24> C 	 -25.908 	 20.8147 	 8.40049
| 25> C 	 -25.8094 	 21.0197 	 7.02101
| 26> C 	 -26.8768 	 20.5432 	 6.2847
| 27> C 	 -27.869 	 19.908 	 7.06811
| 28> H 	 -24.9147 	 21.5763 	 6.69463
| 29> C 	 -27.0442 	 20.8304 	 4.81465
| 30> H 	 -27.632 	 21.7642 	 4.85887
| 31> H 	 -27.7288 	 20.1345 	 4.36611
| 32> C 	 -25.7848 	 20.8123 	 3.99399
| 33> H 	 -25.3483 	 19.87 	 4.15396
| 34> H 	 -25.1063 	 21.4645 	 4.29888
| 35> C 	 -26.0855 	 21.1155 	 2.48698
| 36> H 	 -26.7767 	 20.3173 	 2.11982
| 37> H 	 -25.2186 	 21.274 	 1.7892
| 38> H 	 -26.5159 	 22.1003 	 2.40199
| 39> H 	 -31.613 	 17.0768 	 5.57903
| 40> H 	 -25.1334 	 21.1992 	 9.11432
| 41> *
| 42>
| 43>                          ****END OF INPUT****

CARTESIAN COORDINATES (ANGSTROEM)
---------------------------------
  S    -29.397500   18.020100    5.619910
  C    -31.079100   17.843500    6.027510
  C    -31.421200   18.697100    7.056740
  C    -30.409400   19.646900    7.370430
  C    -29.217900   19.448800    6.707640
  H    -30.581700   20.450200    8.108320
  C    -32.716100   18.798900    7.726020
  H    -33.345600   18.221900    7.115150
  H    -33.134400   19.789600    7.663530
  C    -32.654400   18.295500    9.174880
  H    -32.650600   17.142200    9.171020
  H    -31.693800   18.640200    9.656310
  C    -33.865000   18.681400    9.957160
  H    -34.774500   18.333300    9.471380
  H    -33.767200   18.283100   11.004800
  H    -33.997200   19.786600   10.068100
  S    -27.327800   19.807000    8.697710
  C    -25.908000   20.814700    8.400490
  C    -25.809400   21.019700    7.021010
  C    -26.876800   20.543200    6.284700
  C    -27.869000   19.908000    7.068110
  H    -24.914700   21.576300    6.694630
  C    -27.044200   20.830400    4.814650
  H    -27.632000   21.764200    4.858870
  H    -27.728800   20.134500    4.366110
  C    -25.784800   20.812300    3.993990
  H    -25.348300   19.870000    4.153960
  H    -25.106300   21.464500    4.298880
  C    -26.085500   21.115500    2.486980
  H    -26.776700   20.317300    2.119820
  H    -25.218600   21.274000    1.789200
  H    -26.515900   22.100300    2.401990
  H    -31.613000   17.076800    5.579030
  H    -25.133400   21.199200    9.114320

 Total Charge           Charge          ....    0
 Multiplicity           Mult            ....    1
 Number of Electrons    NEL             ....  134
 Basis Dimension        Dim             ....  322

ORBITAL ENERGIES
----------------

  NO   OCC          E(Eh)            E(eV)
   0   2.0000     -88.967872     -2420.9389
   1   2.0000     -88.961434     -2420.7637
   2   2.0000     -10.333395      -281.1860
   3   2.0000     -10.323990      -280.9301
   4   2.0000     -10.322146      -280.8799
   5   2.0000     -10.312043      -280.6049
   6   2.0000     -10.298638      -280.2402
   7   2.0000     -10.296424      -280.1799
   8   2.0000     -10.295998      -280.1684
   9   2.0000     -10.294014      -280.1144
  10   2.0000     -10.291562      -280.0476
  11   2.0000     -10.282596      -279.8037
  12   2.0000     -10.282006      -279.7876
  13   2.0000     -10.281557      -279.7754
  14   2.0000     -10.280621      -279.7499
  15   2.0000     -10.271162      -279.4925
  16   2.0000      -8.082181      -219.9273
  17   2.0000      -8.075750      -219.7523
  18   2.0000      -6.040592      -164.3729
  19   2.0000      -6.036542      -164.2627
  20   2.0000      -6.034228      -164.1997
  21   2.0000      -6.033262      -164.1734
  22   2.0000      -6.030330      -164.0936
  23   2.0000      -6.026547      -163.9907
  24   2.0000      -1.005517       -27.3615
  25   2.0000      -0.985850       -26.8263
  26   2.0000      -0.917348       -24.9623
  27   2.0000      -0.912799       -24.8385
  28   2.0000      -0.869659       -23.6646
  29   2.0000      -0.851978       -23.1835
  30   2.0000      -0.846059       -23.0224
  31   2.0000      -0.817368       -22.2417
  32   2.0000      -0.778025       -21.1711
  33   2.0000      -0.764730       -20.8094
  34   2.0000      -0.713429       -19.4134
  35   2.0000      -0.703163       -19.1340
  36   2.0000      -0.691838       -18.8259
  37   2.0000      -0.658110       -17.9081
  38   2.0000      -0.642083       -17.4720
  39   2.0000      -0.623184       -16.9577
  40   2.0000      -0.597328       -16.2541
  41   2.0000      -0.573519       -15.6062
  42   2.0000      -0.567894       -15.4532
  43   2.0000      -0.558977       -15.2105
  44   2.0000      -0.531705       -14.4684
  45   2.0000      -0.526332       -14.3222
  46   2.0000      -0.518790       -14.1170
  47   2.0000      -0.513477       -13.9724
  48   2.0000      -0.507059       -13.7978
  49   2.0000      -0.503640       -13.7047
  50   2.0000      -0.486817       -13.2470
  51   2.0000      -0.477637       -12.9972
  52   2.0000      -0.468478       -12.7479
  53   2.0000      -0.461313       -12.5530
  54   2.0000      -0.453480       -12.3398
  55   2.0000      -0.449613       -12.2346
  56   2.0000      -0.442398       -12.0383
  57   2.0000      -0.436624       -11.8811
  58   2.0000      -0.429815       -11.6959
  59   2.0000      -0.429041       -11.6748
  60   2.0000      -0.419012       -11.4019
  61   2.0000      -0.415312       -11.3012
  62   2.0000      -0.412671       -11.2294
  63   2.0000      -0.338867        -9.2210
  64   2.0000      -0.335662        -9.1338
  65   2.0000      -0.325619        -8.8606
  66   2.0000      -0.291713        -7.9379
  67   0.0000       0.025877         0.7042
  68   0.0000       0.067191         1.8284
  69   0.0000       0.110344         3.0026
  70   0.0000       0.119960         3.2643
  71   0.0000       0.133313         3.6276

MULLIKEN ATOMIC CHARGES
-----------------------
   0 S :    0.085117
   1 C :   -0.092498
   2 C :   -0.107877
   3 C :    0.005593
   4 C :   -0.129747
   5 H :    0.029296
   6 C :    0.112559
   7 H :   -0.006496
   8 H :    0.023327
   9 C :   -0.115326
  10 H :    0.041821
  11 H :    0.044719
  12 C :   -0.049936
  13 H :    0.030608
  14 H :    0.044528
  15 H :    0.031054
  16 S :    0.128243
  17 C :   -0.130006
  18 C :   -0.068676
  19 C :   -0.031548
  20 C :   -0.151168
  21 H :    0.030417
  22 C :    0.083223
  23 H :    0.040556
  24 H :    0.002278
  25 C :   -0.003795
  26 H :    0.020103
  27 H :   -0.006045
  28 C :   -0.068600
  29 H :    0.045389
  30 H :    0.036986
  31 H :    0.023907
  32 H :    0.026448
  33 H :    0.075545
Sum of atomic charges:   -0.0000000

LOEWDIN ATOMIC CHARGES
----------------------
   0 S :    0.386482
   1 C :   -0.180070
   2 C :   -0.064621
   3 C :   -0.059001
   4 C :   -0.176879
   5 H :    0.038202
   6 C :   -0.033763
   7 H :    0.023270
   8 H :    0.030102
   9 C :   -0.046037
  10 H :    0.035480
  11 H :    0.028851
  12 C :   -0.073731
  13 H :    0.024410
  14 H :    0.033454
  15 H :    0.024682
  16 S :    0.429093
  17 C :   -0.197311
  18 C :   -0.082422
  19 C :   -0.057551
  20 C :   -0.223624
  21 H :    0.037067
  22 C :   -0.030611
  23 H :    0.040339
  24 H :    0.019680
  25 C :   -0.025885
  26 H :    0.024067
  27 H :    0.001917
  28 C :   -0.067731
  29 H :    0.030793
  30 H :    0.030581
  31 H :    0.022943
  32 H :    0.013717
  33 H :    0.044106

  Mayer bond orders larger than 0.100000
B(  0-S ,  1-C ) :   1.1440 B(  0-S ,  4-C ) :   1.1381 B(  1-C ,  2-C ) :   1.5921
B(  1-C , 32-H ) :   0.9820 B(  2-C ,  3-C ) :   1.2355 B(  2-C ,  6-C ) :   1.0424
B(  3-C ,  4-C ) :   1.5724 B(  3-C ,  5-H ) :   0.9950 B(  4-C , 20-C ) :   1.0332
B(  6-C ,  7-H ) :   0.9224 B(  6-C ,  8-H ) :   0.9438 B(  6-C ,  9-C ) :   1.0430
B(  9-C , 10-H ) :   0.9486 B(  9-C , 11-H ) :   0.9626 B(  9-C , 12-C ) :   1.0887
B( 12-C , 13-H ) :   0.9687 B( 12-C , 14-H ) :   0.9713 B( 12-C , 15-H ) :   0.9736
B( 16-S , 17-C ) :   1.1787 B( 16-S , 20-C ) :   1.1616 B( 17-C , 18-C ) :   1.5555
B( 17-C , 20-C ) :   0.1121 B( 17-C , 33-H ) :   0.9609 B( 18-C , 19-C ) :   1.3035
B( 18-C , 21-H ) :   0.9887 B( 19-C , 20-C ) :   1.5111 B( 19-C , 22-C ) :   1.0400
B( 22-C , 23-H ) :   0.9251 B( 22-C , 24-H ) :   0.9250 B( 22-C , 25-C ) :   1.0611
B( 25-C , 26-H ) :   0.9573 B( 25-C , 27-H ) :   0.9464 B( 25-C , 28-C ) :   1.0807
B( 28-C , 29-H ) :   0.9771 B( 28-C , 30-H ) :   0.9754 B( 28-C , 31-H ) :   0.9739

Dispersion correction           -0.013694790
FINAL SINGLE POINT ENERGY     -1339.866517982147

DIPOLE MOMENT
-------------
                                X             Y             Z
Electronic contribution:      8.90148      -5.09891       4.85790
Nuclear contribution   :     -9.09027       5.36332      -4.81846
                        -----------------------------------------
Total Dipole Moment    :     -0.18879       0.26441       0.03944
                        -----------------------------------------
Magnitude (a.u.)       :      0.32728
Magnitude (Debye)      :      0.83187

Rotational constants in cm-1:     0.022934     0.007380     0.006004
Rotational constants in MHz :   687.554638   221.246725   180.007370

                             ****ORCA TERMINATED NORMALLY****
TOTAL RUN TIME: 0 days 0 hours 0 minutes 20 seconds 804 msec
