                         Program Version 4.2.1 -  RELEASE  -
|  1> ! wB97X-D3 SP def2-SVP
|  2> %pal
|  3> nprocs 24
|  4> end
|  5>
|  6> * xyz 0 1
|  7> S 	 -41.9024 	 14.1192 	 21.3148
|  8> C 	 -42.9911 	 15.445 	 21.6686
|  9> C 	 -43.9662 	 15.5408 	 20.6803
| 10> C 	 -43.8866 	 14.446 	 19.7282
| 11> C 	 -42.7704 	 13.5854 	 19.8451
| 12> H 	 -44.5962 	 14.2296 	 18.9469
| 13> C 	 -45.1166 	 16.4682 	 20.6426
| 14> H 	 -45.7112 	 16.0993 	 19.7702
| 15> H 	 -44.6979 	 17.4392 	 20.4632
| 16> C 	 -45.9638 	 16.6061 	 21.9419
| 17> H 	 -46.3279 	 15.5909 	 22.1763
| 18> H 	 -45.4196 	 16.7629 	 22.9007
| 19> C 	 -47.057 	 17.7187 	 21.7132
| 20> H 	 -47.7945 	 17.6742 	 20.8304
| 21> H 	 -47.5353 	 17.8341 	 22.6938
| 22> H 	 -46.4663 	 18.6967 	 21.4958
| 23> S 	 -42.3839 	 10.8826 	 20.0119
| 24> C 	 -42.0009 	 10.0515 	 18.5443
| 25> C 	 -41.8239 	 10.8717 	 17.4839
| 26> C 	 -42.1732 	 12.2091 	 17.7284
| 27> C 	 -42.5172 	 12.3278 	 19.049
| 28> H 	 -41.3744 	 10.5749 	 16.5819
| 29> C 	 -42.1866 	 13.3326 	 16.6858
| 30> H 	 -42.6747 	 14.1844 	 17.163
| 31> H 	 -42.7999 	 12.8368 	 15.9779
| 32> C 	 -40.7194 	 13.6231 	 16.1606
| 33> H 	 -40.3652 	 12.7049 	 15.7018
| 34> H 	 -40.0161 	 13.7316 	 16.9789
| 35> C 	 -40.5974 	 14.706 	 15.0813
| 36> H 	 -40.9845 	 14.115 	 14.2053
| 37> H 	 -39.5766 	 14.9779 	 14.9722
| 38> H 	 -41.1593 	 15.6324 	 15.2276
| 39> H 	 -42.9885 	 16.0039 	 22.5858
| 40> H 	 -41.739 	 9.03196 	 18.5733
| 41> *
| 42>
| 43>                          ****END OF INPUT****

CARTESIAN COORDINATES (ANGSTROEM)
---------------------------------
  S    -41.902400   14.119200   21.314800
  C    -42.991100   15.445000   21.668600
  C    -43.966200   15.540800   20.680300
  C    -43.886600   14.446000   19.728200
  C    -42.770400   13.585400   19.845100
  H    -44.596200   14.229600   18.946900
  C    -45.116600   16.468200   20.642600
  H    -45.711200   16.099300   19.770200
  H    -44.697900   17.439200   20.463200
  C    -45.963800   16.606100   21.941900
  H    -46.327900   15.590900   22.176300
  H    -45.419600   16.762900   22.900700
  C    -47.057000   17.718700   21.713200
  H    -47.794500   17.674200   20.830400
  H    -47.535300   17.834100   22.693800
  H    -46.466300   18.696700   21.495800
  S    -42.383900   10.882600   20.011900
  C    -42.000900   10.051500   18.544300
  C    -41.823900   10.871700   17.483900
  C    -42.173200   12.209100   17.728400
  C    -42.517200   12.327800   19.049000
  H    -41.374400   10.574900   16.581900
  C    -42.186600   13.332600   16.685800
  H    -42.674700   14.184400   17.163000
  H    -42.799900   12.836800   15.977900
  C    -40.719400   13.623100   16.160600
  H    -40.365200   12.704900   15.701800
  H    -40.016100   13.731600   16.978900
  C    -40.597400   14.706000   15.081300
  H    -40.984500   14.115000   14.205300
  H    -39.576600   14.977900   14.972200
  H    -41.159300   15.632400   15.227600
  H    -42.988500   16.003900   22.585800
  H    -41.739000    9.031960   18.573300

 Total Charge           Charge          ....    0
 Multiplicity           Mult            ....    1
 Number of Electrons    NEL             ....  134
 Basis Dimension        Dim             ....  322

ORBITAL ENERGIES
----------------

  NO   OCC          E(Eh)            E(eV)
   0   2.0000     -88.965837     -2420.8835
   1   2.0000     -88.963139     -2420.8101
   2   2.0000     -10.333296      -281.1833
   3   2.0000     -10.324667      -280.9485
   4   2.0000     -10.312689      -280.6225
   5   2.0000     -10.309685      -280.5408
   6   2.0000     -10.299495      -280.2635
   7   2.0000     -10.299031      -280.2509
   8   2.0000     -10.297492      -280.2090
   9   2.0000     -10.297318      -280.2043
  10   2.0000     -10.295228      -280.1474
  11   2.0000     -10.293593      -280.1029
  12   2.0000     -10.290321      -280.0139
  13   2.0000     -10.289681      -279.9964
  14   2.0000     -10.285935      -279.8945
  15   2.0000     -10.279717      -279.7253
  16   2.0000      -8.081400      -219.9061
  17   2.0000      -8.076890      -219.7833
  18   2.0000      -6.039696      -164.3485
  19   2.0000      -6.036069      -164.2498
  20   2.0000      -6.035531      -164.2351
  21   2.0000      -6.032060      -164.1407
  22   2.0000      -6.031337      -164.1210
  23   2.0000      -6.027762      -164.0238
  24   2.0000      -1.008206       -27.4347
  25   2.0000      -0.979862       -26.6634
  26   2.0000      -0.907631       -24.6979
  27   2.0000      -0.906152       -24.6576
  28   2.0000      -0.862308       -23.4646
  29   2.0000      -0.857727       -23.3399
  30   2.0000      -0.840807       -22.8795
  31   2.0000      -0.811958       -22.0945
  32   2.0000      -0.782470       -21.2921
  33   2.0000      -0.764745       -20.8098
  34   2.0000      -0.706903       -19.2358
  35   2.0000      -0.703274       -19.1371
  36   2.0000      -0.692267       -18.8375
  37   2.0000      -0.665794       -18.1172
  38   2.0000      -0.639165       -17.3926
  39   2.0000      -0.612495       -16.6668
  40   2.0000      -0.598130       -16.2759
  41   2.0000      -0.569317       -15.4919
  42   2.0000      -0.564151       -15.3513
  43   2.0000      -0.553787       -15.0693
  44   2.0000      -0.533223       -14.5097
  45   2.0000      -0.521489       -14.1904
  46   2.0000      -0.519000       -14.1227
  47   2.0000      -0.509606       -13.8671
  48   2.0000      -0.499388       -13.5891
  49   2.0000      -0.488488       -13.2924
  50   2.0000      -0.485006       -13.1977
  51   2.0000      -0.480673       -13.0798
  52   2.0000      -0.474115       -12.9013
  53   2.0000      -0.469997       -12.7893
  54   2.0000      -0.456475       -12.4213
  55   2.0000      -0.453016       -12.3272
  56   2.0000      -0.446966       -12.1626
  57   2.0000      -0.438336       -11.9277
  58   2.0000      -0.432902       -11.7799
  59   2.0000      -0.426905       -11.6167
  60   2.0000      -0.414475       -11.2784
  61   2.0000      -0.413375       -11.2485
  62   2.0000      -0.410077       -11.1588
  63   2.0000      -0.340974        -9.2784
  64   2.0000      -0.333597        -9.0776
  65   2.0000      -0.321298        -8.7430
  66   2.0000      -0.294846        -8.0232
  67   0.0000       0.034274         0.9327
  68   0.0000       0.068062         1.8521
  69   0.0000       0.115141         3.1331
  70   0.0000       0.128127         3.4865
  71   0.0000       0.129282         3.5180

MULLIKEN ATOMIC CHARGES
-----------------------
   0 S :    0.096442
   1 C :   -0.130410
   2 C :   -0.083392
   3 C :    0.013571
   4 C :   -0.154257
   5 H :    0.012731
   6 C :    0.082283
   7 H :    0.034131
   8 H :    0.029338
   9 C :   -0.100928
  10 H :    0.031053
  11 H :    0.034688
  12 C :   -0.090075
  13 H :    0.058774
  14 H :    0.045182
  15 H :    0.037544
  16 S :    0.119549
  17 C :   -0.062970
  18 C :   -0.021326
  19 C :   -0.052748
  20 C :   -0.201739
  21 H :   -0.005829
  22 C :    0.138012
  23 H :    0.029753
  24 H :    0.027771
  25 C :   -0.109532
  26 H :    0.016991
  27 H :    0.034498
  28 C :   -0.025206
  29 H :    0.036680
  30 H :    0.032440
  31 H :    0.040513
  32 H :    0.048708
  33 H :    0.037761
Sum of atomic charges:    0.0000000

LOEWDIN ATOMIC CHARGES
----------------------
   0 S :    0.387198
   1 C :   -0.201047
   2 C :   -0.067444
   3 C :   -0.071726
   4 C :   -0.190028
   5 H :    0.025578
   6 C :   -0.036790
   7 H :    0.038861
   8 H :    0.030421
   9 C :   -0.047174
  10 H :    0.024726
  11 H :    0.028775
  12 C :   -0.080317
  13 H :    0.036670
  14 H :    0.027549
  15 H :    0.033132
  16 S :    0.418721
  17 C :   -0.176022
  18 C :   -0.067116
  19 C :   -0.049014
  20 C :   -0.202801
  21 H :    0.022770
  22 C :   -0.016288
  23 H :    0.032047
  24 H :    0.029810
  25 C :   -0.038892
  26 H :    0.020987
  27 H :    0.022714
  28 C :   -0.064710
  29 H :    0.035183
  30 H :    0.023612
  31 H :    0.025847
  32 H :    0.027169
  33 H :    0.017600

  Mayer bond orders larger than 0.100000
B(  0-S ,  1-C ) :   1.1419 B(  0-S ,  4-C ) :   1.1495 B(  1-C ,  2-C ) :   1.5789
B(  1-C , 32-H ) :   0.9740 B(  2-C ,  3-C ) :   1.2573 B(  2-C ,  6-C ) :   1.0284
B(  3-C ,  4-C ) :   1.5718 B(  3-C ,  5-H ) :   0.9835 B(  4-C , 20-C ) :   1.0073
B(  6-C ,  7-H ) :   0.9462 B(  6-C ,  8-H ) :   0.9258 B(  6-C ,  9-C ) :   1.0564
B(  9-C , 10-H ) :   0.9571 B(  9-C , 11-H ) :   0.9551 B(  9-C , 12-C ) :   1.0583
B( 12-C , 13-H ) :   0.9762 B( 12-C , 14-H ) :   0.9751 B( 12-C , 15-H ) :   0.9739
B( 16-S , 17-C ) :   1.1545 B( 16-S , 20-C ) :   1.1552 B( 17-C , 18-C ) :   1.6121
B( 17-C , 33-H ) :   0.9722 B( 18-C , 19-C ) :   1.2458 B( 18-C , 21-H ) :   0.9967
B( 19-C , 20-C ) :   1.6170 B( 19-C , 22-C ) :   1.0078 B( 22-C , 23-H ) :   0.9288
B( 22-C , 24-H ) :   0.9333 B( 22-C , 25-C ) :   1.0537 B( 25-C , 26-H ) :   0.9593
B( 25-C , 27-H ) :   0.9619 B( 25-C , 28-C ) :   1.0728 B( 28-C , 29-H ) :   0.9792
B( 28-C , 30-H ) :   0.9744 B( 28-C , 31-H ) :   0.9786

Dispersion correction           -0.013478370
FINAL SINGLE POINT ENERGY     -1339.858143505834

DIPOLE MOMENT
-------------
                                X             Y             Z
Electronic contribution:      9.31964     -19.62918      11.79350
Nuclear contribution   :     -9.47409      19.82633     -12.17229
                        -----------------------------------------
Total Dipole Moment    :     -0.15445       0.19715      -0.37879
                        -----------------------------------------
Magnitude (a.u.)       :      0.45410
Magnitude (Debye)      :      1.15423

Rotational constants in cm-1:     0.019114     0.007300     0.006096
Rotational constants in MHz :   573.017341   218.836483   182.743553

                             ****ORCA TERMINATED NORMALLY****
TOTAL RUN TIME: 0 days 0 hours 0 minutes 20 seconds 699 msec
