                         Program Version 4.2.1 -  RELEASE  -
|  1> ! wB97X-D3 SP def2-SVP
|  2> %pal
|  3> nprocs 24
|  4> end
|  5>
|  6> * xyz 0 1
|  7> S 	 -111.454 	 55.7292 	 -91.3986
|  8> C 	 -110.753 	 54.7433 	 -90.0951
|  9> C 	 -109.485 	 54.3203 	 -90.4871
| 10> C 	 -109.088 	 54.8748 	 -91.8065
| 11> C 	 -110.008 	 55.7419 	 -92.376
| 12> H 	 -108.087 	 54.6663 	 -92.1698
| 13> C 	 -108.691 	 53.4034 	 -89.5629
| 14> H 	 -109.133 	 52.4523 	 -89.8234
| 15> H 	 -108.885 	 53.5455 	 -88.4327
| 16> C 	 -107.139 	 53.3558 	 -89.8275
| 17> H 	 -106.933 	 53.4102 	 -90.8838
| 18> H 	 -106.832 	 54.2759 	 -89.3717
| 19> C 	 -106.573 	 52.1707 	 -89.0121
| 20> H 	 -105.466 	 52.2705 	 -89.0722
| 21> H 	 -106.822 	 52.2229 	 -87.9685
| 22> H 	 -106.758 	 51.2235 	 -89.295
| 23> S 	 -110.969 	 56.3632 	 -94.9346
| 24> C 	 -109.826 	 57.2823 	 -95.9976
| 25> C 	 -108.838 	 57.8966 	 -95.2389
| 26> C 	 -108.855 	 57.4723 	 -93.8517
| 27> C 	 -109.878 	 56.5242 	 -93.5951
| 28> H 	 -108.261 	 58.7159 	 -95.6329
| 29> C 	 -107.992 	 58.0826 	 -92.8476
| 30> H 	 -107.366 	 58.7313 	 -93.3153
| 31> H 	 -107.252 	 57.4298 	 -92.3567
| 32> C 	 -108.674 	 58.8105 	 -91.7369
| 33> H 	 -109.177 	 58.0368 	 -91.1522
| 34> H 	 -109.323 	 59.5468 	 -92.0672
| 35> C 	 -107.575 	 59.4504 	 -90.8351
| 36> H 	 -108.058 	 60.0752 	 -90.0762
| 37> H 	 -106.788 	 60.0093 	 -91.2809
| 38> H 	 -107.174 	 58.7014 	 -90.1902
| 39> H 	 -111.179 	 54.153 	 -89.281
| 40> H 	 -110.097 	 57.7196 	 -96.8705
| 41> *
| 42>
| 43>                          ****END OF INPUT****

CARTESIAN COORDINATES (ANGSTROEM)
---------------------------------
  S    -111.454000   55.729200  -91.398600
  C    -110.753000   54.743300  -90.095100
  C    -109.485000   54.320300  -90.487100
  C    -109.088000   54.874800  -91.806500
  C    -110.008000   55.741900  -92.376000
  H    -108.087000   54.666300  -92.169800
  C    -108.691000   53.403400  -89.562900
  H    -109.133000   52.452300  -89.823400
  H    -108.885000   53.545500  -88.432700
  C    -107.139000   53.355800  -89.827500
  H    -106.933000   53.410200  -90.883800
  H    -106.832000   54.275900  -89.371700
  C    -106.573000   52.170700  -89.012100
  H    -105.466000   52.270500  -89.072200
  H    -106.822000   52.222900  -87.968500
  H    -106.758000   51.223500  -89.295000
  S    -110.969000   56.363200  -94.934600
  C    -109.826000   57.282300  -95.997600
  C    -108.838000   57.896600  -95.238900
  C    -108.855000   57.472300  -93.851700
  C    -109.878000   56.524200  -93.595100
  H    -108.261000   58.715900  -95.632900
  C    -107.992000   58.082600  -92.847600
  H    -107.366000   58.731300  -93.315300
  H    -107.252000   57.429800  -92.356700
  C    -108.674000   58.810500  -91.736900
  H    -109.177000   58.036800  -91.152200
  H    -109.323000   59.546800  -92.067200
  C    -107.575000   59.450400  -90.835100
  H    -108.058000   60.075200  -90.076200
  H    -106.788000   60.009300  -91.280900
  H    -107.174000   58.701400  -90.190200
  H    -111.179000   54.153000  -89.281000
  H    -110.097000   57.719600  -96.870500

 Total Charge           Charge          ....    0
 Multiplicity           Mult            ....    1
 Number of Electrons    NEL             ....  134
 Basis Dimension        Dim             ....  322

ORBITAL ENERGIES
----------------

  NO   OCC          E(Eh)            E(eV)
   0   2.0000     -88.969706     -2420.9888
   1   2.0000     -88.965506     -2420.8745
   2   2.0000     -10.334891      -281.2267
   3   2.0000     -10.330128      -281.0971
   4   2.0000     -10.315933      -280.7108
   5   2.0000     -10.313444      -280.6431
   6   2.0000     -10.306097      -280.4432
   7   2.0000     -10.304586      -280.4020
   8   2.0000     -10.302213      -280.3375
   9   2.0000     -10.300538      -280.2919
  10   2.0000     -10.300055      -280.2787
  11   2.0000     -10.292619      -280.0764
  12   2.0000     -10.275434      -279.6088
  13   2.0000     -10.273931      -279.5679
  14   2.0000     -10.273807      -279.5645
  15   2.0000     -10.269657      -279.4516
  16   2.0000      -8.083532      -219.9641
  17   2.0000      -8.079457      -219.8532
  18   2.0000      -6.042185      -164.4162
  19   2.0000      -6.038262      -164.3095
  20   2.0000      -6.038215      -164.3082
  21   2.0000      -6.034089      -164.1959
  22   2.0000      -6.033919      -164.1913
  23   2.0000      -6.030117      -164.0878
  24   2.0000      -1.001827       -27.2611
  25   2.0000      -0.977295       -26.5936
  26   2.0000      -0.918172       -24.9847
  27   2.0000      -0.910366       -24.7723
  28   2.0000      -0.872170       -23.7330
  29   2.0000      -0.848862       -23.0987
  30   2.0000      -0.841450       -22.8970
  31   2.0000      -0.818583       -22.2748
  32   2.0000      -0.781285       -21.2598
  33   2.0000      -0.771230       -20.9862
  34   2.0000      -0.722835       -19.6694
  35   2.0000      -0.705952       -19.2099
  36   2.0000      -0.692222       -18.8363
  37   2.0000      -0.664056       -18.0699
  38   2.0000      -0.632873       -17.2214
  39   2.0000      -0.619869       -16.8675
  40   2.0000      -0.602697       -16.4002
  41   2.0000      -0.576357       -15.6835
  42   2.0000      -0.571877       -15.5616
  43   2.0000      -0.562646       -15.3104
  44   2.0000      -0.524546       -14.2736
  45   2.0000      -0.519583       -14.1386
  46   2.0000      -0.518357       -14.1052
  47   2.0000      -0.511843       -13.9279
  48   2.0000      -0.504001       -13.7146
  49   2.0000      -0.499534       -13.5930
  50   2.0000      -0.492672       -13.4063
  51   2.0000      -0.485829       -13.2201
  52   2.0000      -0.473496       -12.8845
  53   2.0000      -0.466397       -12.6913
  54   2.0000      -0.458128       -12.4663
  55   2.0000      -0.452562       -12.3149
  56   2.0000      -0.447771       -12.1845
  57   2.0000      -0.438195       -11.9239
  58   2.0000      -0.432498       -11.7689
  59   2.0000      -0.429372       -11.6838
  60   2.0000      -0.422905       -11.5078
  61   2.0000      -0.415911       -11.3175
  62   2.0000      -0.402598       -10.9553
  63   2.0000      -0.343671        -9.3518
  64   2.0000      -0.328259        -8.9324
  65   2.0000      -0.321778        -8.7560
  66   2.0000      -0.297358        -8.0915
  67   0.0000       0.021965         0.5977
  68   0.0000       0.061665         1.6780
  69   0.0000       0.099420         2.7054
  70   0.0000       0.121537         3.3072
  71   0.0000       0.132048         3.5932

MULLIKEN ATOMIC CHARGES
-----------------------
   0 S :    0.103468
   1 C :   -0.103139
   2 C :   -0.139250
   3 C :    0.059636
   4 C :   -0.168038
   5 H :    0.008493
   6 C :   -0.012943
   7 H :    0.039752
   8 H :    0.051697
   9 C :   -0.066735
  10 H :    0.040516
  11 H :    0.031474
  12 C :   -0.008130
  13 H :    0.029567
  14 H :    0.023915
  15 H :    0.011092
  16 S :    0.107943
  17 C :   -0.043894
  18 C :   -0.039088
  19 C :   -0.030358
  20 C :   -0.141447
  21 H :    0.026926
  22 C :    0.110995
  23 H :   -0.032768
  24 H :    0.016691
  25 C :   -0.048665
  26 H :    0.044655
  27 H :    0.018972
  28 C :   -0.043061
  29 H :    0.023280
  30 H :    0.029445
  31 H :    0.016819
  32 H :    0.054788
  33 H :    0.027389
Sum of atomic charges:    0.0000000

LOEWDIN ATOMIC CHARGES
----------------------
   0 S :    0.395540
   1 C :   -0.209381
   2 C :   -0.060339
   3 C :   -0.065583
   4 C :   -0.194877
   5 H :    0.026713
   6 C :   -0.043283
   7 H :    0.030341
   8 H :    0.040812
   9 C :   -0.031140
  10 H :    0.021784
  11 H :    0.025913
  12 C :   -0.054076
  13 H :    0.032660
  14 H :    0.026515
  15 H :    0.008302
  16 S :    0.397156
  17 C :   -0.158703
  18 C :   -0.054087
  19 C :   -0.044372
  20 C :   -0.207127
  21 H :    0.032977
  22 C :   -0.040044
  23 H :    0.013244
  24 H :    0.036523
  25 C :   -0.020293
  26 H :    0.030825
  27 H :    0.013135
  28 C :   -0.064104
  29 H :    0.028362
  30 H :    0.018367
  31 H :    0.022690
  32 H :    0.037904
  33 H :    0.007648

  Mayer bond orders larger than 0.100000
B(  0-S ,  1-C ) :   1.1161 B(  0-S ,  4-C ) :   1.1438 B(  1-C ,  2-C ) :   1.6398
B(  1-C , 32-H ) :   0.9620 B(  2-C ,  3-C ) :   1.2359 B(  2-C ,  6-C ) :   0.9980
B(  3-C ,  4-C ) :   1.5712 B(  3-C ,  5-H ) :   0.9897 B(  4-C , 20-C ) :   1.0441
B(  6-C ,  7-H ) :   0.9385 B(  6-C ,  8-H ) :   0.9547 B(  6-C ,  9-C ) :   1.0571
B(  9-C , 10-H ) :   0.9562 B(  9-C , 11-H ) :   0.9595 B(  9-C , 12-C ) :   1.0793
B( 12-C , 13-H ) :   0.9725 B( 12-C , 14-H ) :   0.9714 B( 12-C , 15-H ) :   0.9805
B( 16-S , 17-C ) :   1.1404 B( 16-S , 20-C ) :   1.1415 B( 17-C , 18-C ) :   1.6144
B( 17-C , 20-C ) :   0.1012 B( 17-C , 33-H ) :   0.9683 B( 18-C , 19-C ) :   1.2636
B( 18-C , 21-H ) :   0.9807 B( 19-C , 20-C ) :   1.5444 B( 19-C , 22-C ) :   1.0630
B( 22-C , 23-H ) :   0.9171 B( 22-C , 24-H ) :   0.9122 B( 22-C , 25-C ) :   1.0720
B( 25-C , 26-H ) :   0.9494 B( 25-C , 27-H ) :   0.9597 B( 25-C , 28-C ) :   1.0861
B( 28-C , 29-H ) :   0.9715 B( 28-C , 30-H ) :   0.9777 B( 28-C , 31-H ) :   0.9715

Dispersion correction           -0.014367456
FINAL SINGLE POINT ENERGY     -1339.835846855040

DIPOLE MOMENT
-------------
                                X             Y             Z
Electronic contribution:    -22.89309       1.03567     -18.76598
Nuclear contribution   :     23.56270      -1.01433      19.09375
                        -----------------------------------------
Total Dipole Moment    :      0.66960       0.02134       0.32777
                        -----------------------------------------
Magnitude (a.u.)       :      0.74583
Magnitude (Debye)      :      1.89574

Rotational constants in cm-1:     0.018230     0.008334     0.007257
Rotational constants in MHz :   546.510938   249.834086   217.560218

                             ****ORCA TERMINATED NORMALLY****
TOTAL RUN TIME: 0 days 0 hours 0 minutes 21 seconds 884 msec
