                         Program Version 4.2.1 -  RELEASE  -
|  1> ! wB97X-D3 SP def2-SVP
|  2> %pal
|  3> nprocs 24
|  4> end
|  5>
|  6> * xyz 0 1
|  7> S 	 -33.8709 	 -37.3626 	 -83.9246
|  8> C 	 -33.3774 	 -35.6986 	 -83.8546
|  9> C 	 -32.5185 	 -35.3532 	 -84.8659
| 10> C 	 -32.3492 	 -36.4188 	 -85.791
| 11> C 	 -33.1365 	 -37.5189 	 -85.4794
| 12> H 	 -31.8175 	 -36.5058 	 -86.7171
| 13> C 	 -31.8553 	 -33.9825 	 -85.0649
| 14> H 	 -32.2856 	 -33.5489 	 -85.997
| 15> H 	 -30.8661 	 -34.1923 	 -85.4309
| 16> C 	 -31.9389 	 -32.9315 	 -83.8877
| 17> H 	 -33.0151 	 -32.5931 	 -83.7844
| 18> H 	 -31.7244 	 -33.3731 	 -82.9087
| 19> C 	 -30.8963 	 -31.8059 	 -83.9023
| 20> H 	 -31.086 	 -31.1437 	 -83.1008
| 21> H 	 -29.8684 	 -32.2485 	 -83.723
| 22> H 	 -30.8974 	 -31.2699 	 -84.829
| 23> S 	 -33.4994 	 -40.2115 	 -85.2772
| 24> C 	 -34.0976 	 -41.1007 	 -86.6187
| 25> C 	 -34.0511 	 -40.3638 	 -87.7768
| 26> C 	 -33.681 	 -38.9931 	 -87.62
| 27> C 	 -33.4397 	 -38.7311 	 -86.2169
| 28> H 	 -34.1811 	 -40.8967 	 -88.7139
| 29> C 	 -33.5731 	 -38.0277 	 -88.7831
| 30> H 	 -33.1804 	 -38.5183 	 -89.6804
| 31> H 	 -32.8313 	 -37.3065 	 -88.5502
| 32> C 	 -34.8417 	 -37.3193 	 -89.246
| 33> H 	 -35.2892 	 -36.7943 	 -88.3762
| 34> H 	 -35.5976 	 -38.071 	 -89.5239
| 35> C 	 -34.5922 	 -36.4911 	 -90.5645
| 36> H 	 -34.344 	 -37.0947 	 -91.4506
| 37> H 	 -33.787 	 -35.8013 	 -90.3482
| 38> H 	 -35.4957 	 -35.9226 	 -90.7571
| 39> H 	 -33.5437 	 -35.1077 	 -82.9554
| 40> H 	 -34.1344 	 -42.1735 	 -86.5349
| 41> *
| 42>
| 43>                          ****END OF INPUT****

CARTESIAN COORDINATES (ANGSTROEM)
---------------------------------
  S    -33.870900  -37.362600  -83.924600
  C    -33.377400  -35.698600  -83.854600
  C    -32.518500  -35.353200  -84.865900
  C    -32.349200  -36.418800  -85.791000
  C    -33.136500  -37.518900  -85.479400
  H    -31.817500  -36.505800  -86.717100
  C    -31.855300  -33.982500  -85.064900
  H    -32.285600  -33.548900  -85.997000
  H    -30.866100  -34.192300  -85.430900
  C    -31.938900  -32.931500  -83.887700
  H    -33.015100  -32.593100  -83.784400
  H    -31.724400  -33.373100  -82.908700
  C    -30.896300  -31.805900  -83.902300
  H    -31.086000  -31.143700  -83.100800
  H    -29.868400  -32.248500  -83.723000
  H    -30.897400  -31.269900  -84.829000
  S    -33.499400  -40.211500  -85.277200
  C    -34.097600  -41.100700  -86.618700
  C    -34.051100  -40.363800  -87.776800
  C    -33.681000  -38.993100  -87.620000
  C    -33.439700  -38.731100  -86.216900
  H    -34.181100  -40.896700  -88.713900
  C    -33.573100  -38.027700  -88.783100
  H    -33.180400  -38.518300  -89.680400
  H    -32.831300  -37.306500  -88.550200
  C    -34.841700  -37.319300  -89.246000
  H    -35.289200  -36.794300  -88.376200
  H    -35.597600  -38.071000  -89.523900
  C    -34.592200  -36.491100  -90.564500
  H    -34.344000  -37.094700  -91.450600
  H    -33.787000  -35.801300  -90.348200
  H    -35.495700  -35.922600  -90.757100
  H    -33.543700  -35.107700  -82.955400
  H    -34.134400  -42.173500  -86.534900

 Total Charge           Charge          ....    0
 Multiplicity           Mult            ....    1
 Number of Electrons    NEL             ....  134
 Basis Dimension        Dim             ....  322

ORBITAL ENERGIES
----------------

  NO   OCC          E(Eh)            E(eV)
   0   2.0000     -88.965753     -2420.8812
   1   2.0000     -88.961443     -2420.7639
   2   2.0000     -10.332025      -281.1487
   3   2.0000     -10.325515      -280.9715
   4   2.0000     -10.311707      -280.5958
   5   2.0000     -10.311169      -280.5812
   6   2.0000     -10.307207      -280.4734
   7   2.0000     -10.303251      -280.3657
   8   2.0000     -10.299176      -280.2548
   9   2.0000     -10.297115      -280.1987
  10   2.0000     -10.293600      -280.1031
  11   2.0000     -10.291873      -280.0561
  12   2.0000     -10.289714      -279.9974
  13   2.0000     -10.288767      -279.9716
  14   2.0000     -10.282399      -279.7983
  15   2.0000     -10.280956      -279.7590
  16   2.0000      -8.081159      -219.8995
  17   2.0000      -8.077195      -219.7916
  18   2.0000      -6.039526      -164.3439
  19   2.0000      -6.035570      -164.2362
  20   2.0000      -6.035552      -164.2357
  21   2.0000      -6.032056      -164.1406
  22   2.0000      -6.031705      -164.1310
  23   2.0000      -6.027870      -164.0267
  24   2.0000      -1.009604       -27.4727
  25   2.0000      -0.985204       -26.8088
  26   2.0000      -0.909022       -24.7357
  27   2.0000      -0.904886       -24.6232
  28   2.0000      -0.869185       -23.6517
  29   2.0000      -0.852799       -23.2058
  30   2.0000      -0.846640       -23.0383
  31   2.0000      -0.813057       -22.1244
  32   2.0000      -0.785329       -21.3699
  33   2.0000      -0.770760       -20.9735
  34   2.0000      -0.709361       -19.3027
  35   2.0000      -0.702378       -19.1127
  36   2.0000      -0.689033       -18.7496
  37   2.0000      -0.662099       -18.0166
  38   2.0000      -0.640088       -17.4177
  39   2.0000      -0.613654       -16.6984
  40   2.0000      -0.598986       -16.2992
  41   2.0000      -0.566093       -15.4042
  42   2.0000      -0.559101       -15.2139
  43   2.0000      -0.558650       -15.2017
  44   2.0000      -0.529513       -14.4088
  45   2.0000      -0.523695       -14.2505
  46   2.0000      -0.518243       -14.1021
  47   2.0000      -0.514296       -13.9947
  48   2.0000      -0.504644       -13.7321
  49   2.0000      -0.492670       -13.4062
  50   2.0000      -0.491901       -13.3853
  51   2.0000      -0.482432       -13.1277
  52   2.0000      -0.476442       -12.9647
  53   2.0000      -0.461356       -12.5541
  54   2.0000      -0.458698       -12.4818
  55   2.0000      -0.449989       -12.2448
  56   2.0000      -0.446502       -12.1500
  57   2.0000      -0.440238       -11.9795
  58   2.0000      -0.434865       -11.8333
  59   2.0000      -0.432623       -11.7723
  60   2.0000      -0.420893       -11.4531
  61   2.0000      -0.416027       -11.3207
  62   2.0000      -0.412602       -11.2275
  63   2.0000      -0.349947        -9.5225
  64   2.0000      -0.331739        -9.0271
  65   2.0000      -0.329436        -8.9644
  66   2.0000      -0.282726        -7.6934
  67   0.0000       0.023229         0.6321
  68   0.0000       0.077072         2.0972
  69   0.0000       0.103001         2.8028
  70   0.0000       0.122179         3.3247
  71   0.0000       0.139224         3.7885

MULLIKEN ATOMIC CHARGES
-----------------------
   0 S :    0.107410
   1 C :   -0.135790
   2 C :   -0.070798
   3 C :    0.022489
   4 C :   -0.150521
   5 H :    0.004137
   6 C :    0.078312
   7 H :    0.037705
   8 H :    0.014804
   9 C :   -0.116304
  10 H :    0.045002
  11 H :    0.031734
  12 C :   -0.028524
  13 H :    0.029123
  14 H :    0.040789
  15 H :    0.029708
  16 S :    0.104179
  17 C :   -0.088301
  18 C :   -0.043439
  19 C :   -0.012124
  20 C :   -0.168378
  21 H :    0.020357
  22 C :    0.088050
  23 H :    0.015448
  24 H :   -0.007019
  25 C :   -0.094599
  26 H :    0.044130
  27 H :    0.026447
  28 C :   -0.044699
  29 H :    0.042962
  30 H :    0.028333
  31 H :    0.039668
  32 H :    0.050989
  33 H :    0.058720
Sum of atomic charges:   -0.0000000

LOEWDIN ATOMIC CHARGES
----------------------
   0 S :    0.415097
   1 C :   -0.208810
   2 C :   -0.059176
   3 C :   -0.069119
   4 C :   -0.194457
   5 H :    0.028045
   6 C :   -0.034235
   7 H :    0.039204
   8 H :    0.027659
   9 C :   -0.049519
  10 H :    0.030180
  11 H :    0.024271
  12 C :   -0.058853
  13 H :    0.023158
  14 H :    0.034412
  15 H :    0.018757
  16 S :    0.420062
  17 C :   -0.199221
  18 C :   -0.070059
  19 C :   -0.050303
  20 C :   -0.198187
  21 H :    0.032648
  22 C :   -0.035876
  23 H :    0.033317
  24 H :    0.019558
  25 C :   -0.040438
  26 H :    0.030055
  27 H :    0.023317
  28 C :   -0.063224
  29 H :    0.029055
  30 H :    0.021734
  31 H :    0.028664
  32 H :    0.026194
  33 H :    0.026090

  Mayer bond orders larger than 0.100000
B(  0-S ,  1-C ) :   1.1296 B(  0-S ,  4-C ) :   1.1613 B(  1-C ,  2-C ) :   1.6338
B(  1-C , 32-H ) :   0.9598 B(  2-C ,  3-C ) :   1.2198 B(  2-C ,  6-C ) :   1.0096
B(  3-C ,  4-C ) :   1.5789 B(  3-C ,  5-H ) :   0.9994 B(  4-C , 20-C ) :   1.0543
B(  6-C ,  7-H ) :   0.9326 B(  6-C ,  8-H ) :   0.9408 B(  6-C ,  9-C ) :   1.0519
B(  9-C , 10-H ) :   0.9523 B(  9-C , 11-H ) :   0.9616 B(  9-C , 12-C ) :   1.0817
B( 12-C , 13-H ) :   0.9727 B( 12-C , 14-H ) :   0.9755 B( 12-C , 15-H ) :   0.9776
B( 16-S , 17-C ) :   1.1587 B( 16-S , 20-C ) :   1.1764 B( 17-C , 18-C ) :   1.5856
B( 17-C , 20-C ) :   0.1067 B( 17-C , 33-H ) :   0.9681 B( 18-C , 19-C ) :   1.2675
B( 18-C , 21-H ) :   0.9883 B( 19-C , 20-C ) :   1.5243 B( 19-C , 22-C ) :   1.0471
B( 22-C , 23-H ) :   0.9305 B( 22-C , 24-H ) :   0.9281 B( 22-C , 25-C ) :   1.0647
B( 25-C , 26-H ) :   0.9562 B( 25-C , 27-H ) :   0.9556 B( 25-C , 28-C ) :   1.0679
B( 28-C , 29-H ) :   0.9745 B( 28-C , 30-H ) :   0.9783 B( 28-C , 31-H ) :   0.9751

Dispersion correction           -0.013367894
FINAL SINGLE POINT ENERGY     -1339.882420545696

DIPOLE MOMENT
-------------
                                X             Y             Z
Electronic contribution:     -4.67721     -25.20302      14.44277
Nuclear contribution   :      4.93576      25.57096     -14.92046
                        -----------------------------------------
Total Dipole Moment    :      0.25855       0.36794      -0.47770
                        -----------------------------------------
Magnitude (a.u.)       :      0.65606
Magnitude (Debye)      :      1.66758

Rotational constants in cm-1:     0.018973     0.007782     0.005868
Rotational constants in MHz :   568.787009   233.294836   175.918177

                             ****ORCA TERMINATED NORMALLY****
TOTAL RUN TIME: 0 days 0 hours 0 minutes 20 seconds 829 msec
