                         Program Version 4.2.1 -  RELEASE  -
|  1> ! wB97X-D3 SP def2-SVP
|  2> %pal
|  3> nprocs 24
|  4> end
|  5>
|  6> * xyz 0 1
|  7> S 	 -102.516 	 44.0761 	 -84.0417
|  8> C 	 -101.627 	 43.7635 	 -85.5704
|  9> C 	 -102.324 	 44.301 	 -86.6352
| 10> C 	 -103.446 	 45.0954 	 -86.2539
| 11> C 	 -103.737 	 45.0514 	 -84.9114
| 12> H 	 -104.138 	 45.6033 	 -86.9457
| 13> C 	 -101.998 	 44.0657 	 -88.0829
| 14> H 	 -100.967 	 43.909 	 -88.2148
| 15> H 	 -102.282 	 45.0058 	 -88.6267
| 16> C 	 -102.841 	 43.0057 	 -88.7928
| 17> H 	 -102.286 	 42.756 	 -89.7691
| 18> H 	 -102.769 	 42.055 	 -88.3758
| 19> C 	 -104.265 	 43.3126 	 -89.2384
| 20> H 	 -104.307 	 44.2212 	 -89.8883
| 21> H 	 -104.723 	 42.601 	 -89.8773
| 22> H 	 -104.849 	 43.5685 	 -88.3545
| 23> S 	 -105.504 	 47.2082 	 -84.4842
| 24> C 	 -106.932 	 46.9909 	 -83.6678
| 25> C 	 -107.015 	 45.6723 	 -83.2224
| 26> C 	 -106.028 	 44.8302 	 -83.7511
| 27> C 	 -104.995 	 45.5122 	 -84.312
| 28> H 	 -107.865 	 45.3115 	 -82.6739
| 29> C 	 -105.961 	 43.2931 	 -83.651
| 30> H 	 -106.702 	 43.069 	 -82.7957
| 31> H 	 -104.99 	 42.8372 	 -83.23
| 32> C 	 -106.364 	 42.4749 	 -84.8709
| 33> H 	 -105.878 	 42.7789 	 -85.8384
| 34> H 	 -107.393 	 42.7108 	 -85.1405
| 35> C 	 -106.244 	 40.9819 	 -84.5977
| 36> H 	 -105.195 	 40.7259 	 -84.8699
| 37> H 	 -106.79 	 40.6377 	 -85.4553
| 38> H 	 -106.652 	 40.5235 	 -83.6896
| 39> H 	 -100.874 	 43.0142 	 -85.6115
| 40> H 	 -107.657 	 47.7693 	 -83.2961
| 41> *
| 42>
| 43>                          ****END OF INPUT****

CARTESIAN COORDINATES (ANGSTROEM)
---------------------------------
  S    -102.516000   44.076100  -84.041700
  C    -101.627000   43.763500  -85.570400
  C    -102.324000   44.301000  -86.635200
  C    -103.446000   45.095400  -86.253900
  C    -103.737000   45.051400  -84.911400
  H    -104.138000   45.603300  -86.945700
  C    -101.998000   44.065700  -88.082900
  H    -100.967000   43.909000  -88.214800
  H    -102.282000   45.005800  -88.626700
  C    -102.841000   43.005700  -88.792800
  H    -102.286000   42.756000  -89.769100
  H    -102.769000   42.055000  -88.375800
  C    -104.265000   43.312600  -89.238400
  H    -104.307000   44.221200  -89.888300
  H    -104.723000   42.601000  -89.877300
  H    -104.849000   43.568500  -88.354500
  S    -105.504000   47.208200  -84.484200
  C    -106.932000   46.990900  -83.667800
  C    -107.015000   45.672300  -83.222400
  C    -106.028000   44.830200  -83.751100
  C    -104.995000   45.512200  -84.312000
  H    -107.865000   45.311500  -82.673900
  C    -105.961000   43.293100  -83.651000
  H    -106.702000   43.069000  -82.795700
  H    -104.990000   42.837200  -83.230000
  C    -106.364000   42.474900  -84.870900
  H    -105.878000   42.778900  -85.838400
  H    -107.393000   42.710800  -85.140500
  C    -106.244000   40.981900  -84.597700
  H    -105.195000   40.725900  -84.869900
  H    -106.790000   40.637700  -85.455300
  H    -106.652000   40.523500  -83.689600
  H    -100.874000   43.014200  -85.611500
  H    -107.657000   47.769300  -83.296100

 Total Charge           Charge          ....    0
 Multiplicity           Mult            ....    1
 Number of Electrons    NEL             ....  134
 Basis Dimension        Dim             ....  322

ORBITAL ENERGIES
----------------

  NO   OCC          E(Eh)            E(eV)
   0   2.0000     -88.967173     -2420.9198
   1   2.0000     -88.964619     -2420.8503
   2   2.0000     -10.334416      -281.2137
   3   2.0000     -10.323036      -280.9041
   4   2.0000     -10.317477      -280.7528
   5   2.0000     -10.317261      -280.7470
   6   2.0000     -10.303317      -280.3675
   7   2.0000     -10.298630      -280.2400
   8   2.0000     -10.297972      -280.2221
   9   2.0000     -10.297006      -280.1958
  10   2.0000     -10.293643      -280.1043
  11   2.0000     -10.289423      -279.9894
  12   2.0000     -10.287777      -279.9447
  13   2.0000     -10.285277      -279.8766
  14   2.0000     -10.280463      -279.7456
  15   2.0000     -10.276212      -279.6299
  16   2.0000      -8.080559      -219.8832
  17   2.0000      -8.080335      -219.8771
  18   2.0000      -6.039029      -164.3303
  19   2.0000      -6.038860      -164.3257
  20   2.0000      -6.035039      -164.2217
  21   2.0000      -6.034713      -164.2129
  22   2.0000      -6.031628      -164.1290
  23   2.0000      -6.031007      -164.1121
  24   2.0000      -1.011271       -27.5181
  25   2.0000      -0.985725       -26.8229
  26   2.0000      -0.914152       -24.8753
  27   2.0000      -0.905963       -24.6525
  28   2.0000      -0.870419       -23.6853
  29   2.0000      -0.855050       -23.2671
  30   2.0000      -0.846272       -23.0282
  31   2.0000      -0.813827       -22.1454
  32   2.0000      -0.783771       -21.3275
  33   2.0000      -0.773156       -21.0387
  34   2.0000      -0.705611       -19.2007
  35   2.0000      -0.702798       -19.1241
  36   2.0000      -0.687267       -18.7015
  37   2.0000      -0.663489       -18.0545
  38   2.0000      -0.640324       -17.4241
  39   2.0000      -0.617259       -16.7965
  40   2.0000      -0.597585       -16.2611
  41   2.0000      -0.571431       -15.5494
  42   2.0000      -0.560298       -15.2465
  43   2.0000      -0.554875       -15.0989
  44   2.0000      -0.540121       -14.6974
  45   2.0000      -0.521979       -14.2038
  46   2.0000      -0.515425       -14.0254
  47   2.0000      -0.509975       -13.8771
  48   2.0000      -0.508819       -13.8457
  49   2.0000      -0.497928       -13.5493
  50   2.0000      -0.491224       -13.3669
  51   2.0000      -0.488208       -13.2848
  52   2.0000      -0.475470       -12.9382
  53   2.0000      -0.462397       -12.5825
  54   2.0000      -0.457877       -12.4595
  55   2.0000      -0.456283       -12.4161
  56   2.0000      -0.446829       -12.1588
  57   2.0000      -0.434187       -11.8148
  58   2.0000      -0.429929       -11.6990
  59   2.0000      -0.426777       -11.6132
  60   2.0000      -0.413040       -11.2394
  61   2.0000      -0.404798       -11.0151
  62   2.0000      -0.395669       -10.7667
  63   2.0000      -0.344748        -9.3811
  64   2.0000      -0.332393        -9.0449
  65   2.0000      -0.328504        -8.9390
  66   2.0000      -0.297363        -8.0917
  67   0.0000       0.028306         0.7703
  68   0.0000       0.065531         1.7832
  69   0.0000       0.111414         3.0317
  70   0.0000       0.113265         3.0821
  71   0.0000       0.132025         3.5926

MULLIKEN ATOMIC CHARGES
-----------------------
   0 S :    0.091663
   1 C :   -0.111870
   2 C :   -0.083766
   3 C :    0.020535
   4 C :   -0.131189
   5 H :    0.027944
   6 C :    0.092426
   7 H :    0.018095
   8 H :    0.026554
   9 C :   -0.071490
  10 H :    0.022866
  11 H :    0.008789
  12 C :   -0.044959
  13 H :    0.020870
  14 H :    0.034056
  15 H :    0.038964
  16 S :    0.118426
  17 C :   -0.103282
  18 C :   -0.039913
  19 C :   -0.010823
  20 C :   -0.171864
  21 H :    0.009653
  22 C :   -0.001464
  23 H :    0.021128
  24 H :    0.045936
  25 C :   -0.080841
  26 H :    0.036770
  27 H :    0.012008
  28 C :   -0.032562
  29 H :    0.040015
  30 H :    0.020126
  31 H :    0.050229
  32 H :    0.043690
  33 H :    0.083280
Sum of atomic charges:   -0.0000000

LOEWDIN ATOMIC CHARGES
----------------------
   0 S :    0.378947
   1 C :   -0.178434
   2 C :   -0.061405
   3 C :   -0.064419
   4 C :   -0.174549
   5 H :    0.035855
   6 C :   -0.026939
   7 H :    0.026750
   8 H :    0.038645
   9 C :   -0.043730
  10 H :    0.032796
  11 H :    0.012502
  12 C :   -0.066962
  13 H :    0.027910
  14 H :    0.025676
  15 H :    0.022850
  16 S :    0.437070
  17 C :   -0.224635
  18 C :   -0.079656
  19 C :   -0.063144
  20 C :   -0.193407
  21 H :    0.026522
  22 C :   -0.046385
  23 H :    0.032951
  24 H :    0.030140
  25 C :   -0.047296
  26 H :    0.031036
  27 H :    0.017633
  28 C :   -0.069007
  29 H :    0.033697
  30 H :    0.028121
  31 H :    0.029802
  32 H :    0.021851
  33 H :    0.049216

  Mayer bond orders larger than 0.100000
B(  0-S ,  1-C ) :   1.1175 B(  0-S ,  4-C ) :   1.1426 B(  1-C ,  2-C ) :   1.6286
B(  1-C , 32-H ) :   0.9734 B(  2-C ,  3-C ) :   1.2263 B(  2-C ,  6-C ) :   1.0314
B(  3-C ,  4-C ) :   1.5946 B(  3-C ,  5-H ) :   0.9824 B(  4-C , 20-C ) :   1.0176
B(  6-C ,  7-H ) :   0.9387 B(  6-C ,  8-H ) :   0.9386 B(  6-C ,  9-C ) :   1.0664
B(  9-C , 10-H ) :   0.9494 B(  9-C , 11-H ) :   0.9536 B(  9-C , 12-C ) :   1.0828
B( 12-C , 13-H ) :   0.9691 B( 12-C , 14-H ) :   0.9708 B( 12-C , 15-H ) :   0.9729
B( 16-S , 17-C ) :   1.1987 B( 16-S , 20-C ) :   1.1411 B( 17-C , 18-C ) :   1.5553
B( 17-C , 20-C ) :   0.1008 B( 17-C , 33-H ) :   0.9568 B( 18-C , 19-C ) :   1.2968
B( 18-C , 21-H ) :   0.9861 B( 19-C , 20-C ) :   1.5789 B( 19-C , 22-C ) :   1.0191
B( 22-C , 23-H ) :   0.9342 B( 22-C , 24-H ) :   0.9452 B( 22-C , 25-C ) :   1.0566
B( 25-C , 26-H ) :   0.9514 B( 25-C , 27-H ) :   0.9531 B( 25-C , 28-C ) :   1.0745
B( 28-C , 29-H ) :   0.9727 B( 28-C , 30-H ) :   0.9714 B( 28-C , 31-H ) :   0.9753

Dispersion correction           -0.015537221
FINAL SINGLE POINT ENERGY     -1339.861394278576

DIPOLE MOMENT
-------------
                                X             Y             Z
Electronic contribution:      5.84830      19.83389      16.34571
Nuclear contribution   :     -6.14077     -20.29945     -16.83607
                        -----------------------------------------
Total Dipole Moment    :     -0.29247      -0.46556      -0.49036
                        -----------------------------------------
Magnitude (a.u.)       :      0.73671
Magnitude (Debye)      :      1.87256

Rotational constants in cm-1:     0.017123     0.009673     0.008589
Rotational constants in MHz :   513.329548   289.989986   257.486487

                             ****ORCA TERMINATED NORMALLY****
TOTAL RUN TIME: 0 days 0 hours 0 minutes 23 seconds 567 msec
