                         Program Version 4.2.1 -  RELEASE  -
|  1> ! wB97X-D3 SP def2-SVP
|  2> %pal
|  3> nprocs 24
|  4> end
|  5>
|  6> * xyz 0 1
|  7> S 	 42.3354 	 -16.2532 	 -113.431
|  8> C 	 42.9623 	 -15.0394 	 -112.289
|  9> C 	 43.7829 	 -15.5965 	 -111.305
| 10> C 	 43.9629 	 -17.0197 	 -111.523
| 11> C 	 43.2046 	 -17.5183 	 -112.604
| 12> H 	 44.584 	 -17.7395 	 -110.921
| 13> C 	 44.4853 	 -14.7567 	 -110.236
| 14> H 	 44.7213 	 -13.6991 	 -110.46
| 15> H 	 45.3698 	 -15.3289 	 -110.046
| 16> C 	 43.6378 	 -14.7962 	 -108.98
| 17> H 	 42.9227 	 -13.9173 	 -108.865
| 18> H 	 43.0442 	 -15.7224 	 -108.951
| 19> C 	 44.4062 	 -14.6538 	 -107.66
| 20> H 	 45.1905 	 -13.8855 	 -107.674
| 21> H 	 43.6926 	 -14.5527 	 -106.812
| 22> H 	 44.9474 	 -15.5813 	 -107.339
| 23> S 	 43.9115 	 -19.1474 	 -114.752
| 24> C 	 43.3465 	 -20.8039 	 -114.7
| 25> C 	 42.6589 	 -21.1076 	 -113.599
| 26> C 	 42.5144 	 -20.0559 	 -112.676
| 27> C 	 43.1629 	 -18.8567 	 -113.147
| 28> H 	 42.2516 	 -22.0895 	 -113.402
| 29> C 	 41.7722 	 -20.1543 	 -111.345
| 30> H 	 40.9947 	 -20.8552 	 -111.502
| 31> H 	 41.1703 	 -19.2458 	 -111.283
| 32> C 	 42.6716 	 -20.5475 	 -110.115
| 33> H 	 43.2096 	 -19.5502 	 -109.931
| 34> H 	 43.3052 	 -21.3415 	 -110.22
| 35> C 	 41.8761 	 -20.7098 	 -108.778
| 36> H 	 42.3441 	 -21.481 	 -108.188
| 37> H 	 40.8884 	 -21.1096 	 -108.843
| 38> H 	 41.8749 	 -19.7735 	 -108.215
| 39> H 	 42.796 	 -13.9755 	 -112.391
| 40> H 	 43.4003 	 -21.4814 	 -115.515
| 41> *
| 42>
| 43>                          ****END OF INPUT****

CARTESIAN COORDINATES (ANGSTROEM)
---------------------------------
  S     42.335400  -16.253200  -113.431000
  C     42.962300  -15.039400  -112.289000
  C     43.782900  -15.596500  -111.305000
  C     43.962900  -17.019700  -111.523000
  C     43.204600  -17.518300  -112.604000
  H     44.584000  -17.739500  -110.921000
  C     44.485300  -14.756700  -110.236000
  H     44.721300  -13.699100  -110.460000
  H     45.369800  -15.328900  -110.046000
  C     43.637800  -14.796200  -108.980000
  H     42.922700  -13.917300  -108.865000
  H     43.044200  -15.722400  -108.951000
  C     44.406200  -14.653800  -107.660000
  H     45.190500  -13.885500  -107.674000
  H     43.692600  -14.552700  -106.812000
  H     44.947400  -15.581300  -107.339000
  S     43.911500  -19.147400  -114.752000
  C     43.346500  -20.803900  -114.700000
  C     42.658900  -21.107600  -113.599000
  C     42.514400  -20.055900  -112.676000
  C     43.162900  -18.856700  -113.147000
  H     42.251600  -22.089500  -113.402000
  C     41.772200  -20.154300  -111.345000
  H     40.994700  -20.855200  -111.502000
  H     41.170300  -19.245800  -111.283000
  C     42.671600  -20.547500  -110.115000
  H     43.209600  -19.550200  -109.931000
  H     43.305200  -21.341500  -110.220000
  C     41.876100  -20.709800  -108.778000
  H     42.344100  -21.481000  -108.188000
  H     40.888400  -21.109600  -108.843000
  H     41.874900  -19.773500  -108.215000
  H     42.796000  -13.975500  -112.391000
  H     43.400300  -21.481400  -115.515000

 Total Charge           Charge          ....    0
 Multiplicity           Mult            ....    1
 Number of Electrons    NEL             ....  134
 Basis Dimension        Dim             ....  322

ORBITAL ENERGIES
----------------

  NO   OCC          E(Eh)            E(eV)
   0   2.0000     -88.966546     -2420.9028
   1   2.0000     -88.965343     -2420.8701
   2   2.0000     -10.330327      -281.1025
   3   2.0000     -10.328547      -281.0541
   4   2.0000     -10.315833      -280.7081
   5   2.0000     -10.309826      -280.5446
   6   2.0000     -10.308401      -280.5059
   7   2.0000     -10.306408      -280.4516
   8   2.0000     -10.305381      -280.4237
   9   2.0000     -10.295386      -280.1517
  10   2.0000     -10.291848      -280.0554
  11   2.0000     -10.290892      -280.0294
  12   2.0000     -10.289839      -280.0007
  13   2.0000     -10.285565      -279.8844
  14   2.0000     -10.282550      -279.8024
  15   2.0000     -10.274526      -279.5841
  16   2.0000      -8.080850      -219.8911
  17   2.0000      -8.079443      -219.8528
  18   2.0000      -6.039354      -164.3392
  19   2.0000      -6.037895      -164.2995
  20   2.0000      -6.035357      -164.2304
  21   2.0000      -6.034095      -164.1961
  22   2.0000      -6.031704      -164.1310
  23   2.0000      -6.030246      -164.0913
  24   2.0000      -0.999411       -27.1954
  25   2.0000      -0.977955       -26.6115
  26   2.0000      -0.914643       -24.8887
  27   2.0000      -0.901118       -24.5207
  28   2.0000      -0.867400       -23.6032
  29   2.0000      -0.849126       -23.1059
  30   2.0000      -0.842600       -22.9283
  31   2.0000      -0.812439       -22.1076
  32   2.0000      -0.784746       -21.3540
  33   2.0000      -0.768112       -20.9014
  34   2.0000      -0.709365       -19.3028
  35   2.0000      -0.697850       -18.9895
  36   2.0000      -0.692027       -18.8310
  37   2.0000      -0.655427       -17.8351
  38   2.0000      -0.642585       -17.4856
  39   2.0000      -0.614691       -16.7266
  40   2.0000      -0.595619       -16.2076
  41   2.0000      -0.567596       -15.4451
  42   2.0000      -0.563471       -15.3328
  43   2.0000      -0.557938       -15.1823
  44   2.0000      -0.526116       -14.3163
  45   2.0000      -0.523617       -14.2483
  46   2.0000      -0.521907       -14.2018
  47   2.0000      -0.510438       -13.8897
  48   2.0000      -0.503643       -13.7048
  49   2.0000      -0.494748       -13.4628
  50   2.0000      -0.491869       -13.3844
  51   2.0000      -0.477464       -12.9925
  52   2.0000      -0.467355       -12.7174
  53   2.0000      -0.463897       -12.6233
  54   2.0000      -0.457744       -12.4559
  55   2.0000      -0.448638       -12.2081
  56   2.0000      -0.443538       -12.0693
  57   2.0000      -0.441949       -12.0260
  58   2.0000      -0.437595       -11.9076
  59   2.0000      -0.420940       -11.4543
  60   2.0000      -0.417789       -11.3686
  61   2.0000      -0.409888       -11.1536
  62   2.0000      -0.409813       -11.1516
  63   2.0000      -0.339571        -9.2402
  64   2.0000      -0.329039        -8.9536
  65   2.0000      -0.323948        -8.8151
  66   2.0000      -0.298869        -8.1326
  67   0.0000       0.032114         0.8739
  68   0.0000       0.059577         1.6212
  69   0.0000       0.116647         3.1741
  70   0.0000       0.118966         3.2372
  71   0.0000       0.121000         3.2926

MULLIKEN ATOMIC CHARGES
-----------------------
   0 S :    0.117802
   1 C :   -0.122408
   2 C :   -0.112630
   3 C :    0.032969
   4 C :   -0.188191
   5 H :    0.041886
   6 C :    0.115697
   7 H :    0.041883
   8 H :    0.018209
   9 C :   -0.105018
  10 H :    0.040908
  11 H :    0.041183
  12 C :   -0.082205
  13 H :    0.035422
  14 H :    0.037143
  15 H :    0.024914
  16 S :    0.109157
  17 C :   -0.063445
  18 C :   -0.024773
  19 C :   -0.043610
  20 C :   -0.194297
  21 H :    0.010567
  22 C :    0.101019
  23 H :   -0.002447
  24 H :    0.033695
  25 C :   -0.057693
  26 H :    0.040911
  27 H :    0.022353
  28 C :   -0.042453
  29 H :    0.021276
  30 H :    0.022172
  31 H :    0.040991
  32 H :    0.047511
  33 H :    0.041501
Sum of atomic charges:    0.0000000

LOEWDIN ATOMIC CHARGES
----------------------
   0 S :    0.402689
   1 C :   -0.190163
   2 C :   -0.058682
   3 C :   -0.066530
   4 C :   -0.205063
   5 H :    0.039977
   6 C :   -0.027707
   7 H :    0.037599
   8 H :    0.029653
   9 C :   -0.049469
  10 H :    0.032268
  11 H :    0.027429
  12 C :   -0.078295
  13 H :    0.023386
  14 H :    0.029703
  15 H :    0.022443
  16 S :    0.391148
  17 C :   -0.175631
  18 C :   -0.077281
  19 C :   -0.043163
  20 C :   -0.200633
  21 H :    0.032552
  22 C :   -0.031476
  23 H :    0.019455
  24 H :    0.038092
  25 C :   -0.027535
  26 H :    0.038268
  27 H :    0.011850
  28 C :   -0.068464
  29 H :    0.025419
  30 H :    0.019371
  31 H :    0.028445
  32 H :    0.026154
  33 H :    0.024187

  Mayer bond orders larger than 0.100000
B(  0-S ,  1-C ) :   1.1353 B(  0-S ,  4-C ) :   1.1609 B(  1-C ,  2-C ) :   1.6136
B(  1-C , 32-H ) :   0.9692 B(  2-C ,  3-C ) :   1.2323 B(  2-C ,  6-C ) :   1.0245
B(  3-C ,  4-C ) :   1.5798 B(  3-C ,  5-H ) :   0.9749 B(  4-C , 20-C ) :   1.0492
B(  6-C ,  7-H ) :   0.9437 B(  6-C ,  8-H ) :   0.9399 B(  6-C ,  9-C ) :   1.0488
B(  9-C , 10-H ) :   0.9568 B(  9-C , 11-H ) :   0.9608 B(  9-C , 12-C ) :   1.0754
B( 12-C , 13-H ) :   0.9741 B( 12-C , 14-H ) :   0.9752 B( 12-C , 15-H ) :   0.9744
B( 16-S , 17-C ) :   1.1483 B( 16-S , 20-C ) :   1.1431 B( 17-C , 18-C ) :   1.6170
B( 17-C , 20-C ) :   0.1004 B( 17-C , 33-H ) :   0.9643 B( 18-C , 19-C ) :   1.2715
B( 18-C , 21-H ) :   0.9864 B( 19-C , 20-C ) :   1.5599 B( 19-C , 22-C ) :   1.0375
B( 22-C , 23-H ) :   0.9290 B( 22-C , 24-H ) :   0.9312 B( 22-C , 25-C ) :   1.0437
B( 25-C , 26-H ) :   0.9609 B( 25-C , 27-H ) :   0.9703 B( 25-C , 28-C ) :   1.0655
B( 28-C , 29-H ) :   0.9767 B( 28-C , 30-H ) :   0.9756 B( 28-C , 31-H ) :   0.9833

Dispersion correction           -0.014056930
FINAL SINGLE POINT ENERGY     -1339.864392333222

DIPOLE MOMENT
-------------
                                X             Y             Z
Electronic contribution:      0.12225      -0.86238     -32.09961
Nuclear contribution   :     -0.15560       0.70561      32.68417
                        -----------------------------------------
Total Dipole Moment    :     -0.03335      -0.15676       0.58455
                        -----------------------------------------
Magnitude (a.u.)       :      0.60613
Magnitude (Debye)      :      1.54065

Rotational constants in cm-1:     0.017397     0.008898     0.006508
Rotational constants in MHz :   521.543897   266.752100   195.115768

                             ****ORCA TERMINATED NORMALLY****
TOTAL RUN TIME: 0 days 0 hours 0 minutes 21 seconds 529 msec
