                         Program Version 4.2.1 -  RELEASE  -
|  1> ! wB97X-D3 SP def2-SVP
|  2> %pal
|  3> nprocs 24
|  4> end
|  5>
|  6> * xyz 0 1
|  7> S 	 -120.426 	 62.5268 	 -61.006
|  8> C 	 -121.696 	 62.1671 	 -62.1856
|  9> C 	 -122.925 	 62.1596 	 -61.5691
| 10> C 	 -122.849 	 62.4215 	 -60.1533
| 11> C 	 -121.587 	 62.6525 	 -59.684
| 12> H 	 -123.717 	 62.5476 	 -59.4963
| 13> C 	 -124.197 	 61.8817 	 -62.3376
| 14> H 	 -124.349 	 60.8383 	 -62.1381
| 15> H 	 -124.084 	 62.0162 	 -63.3801
| 16> C 	 -125.352 	 62.8693 	 -62.0666
| 17> H 	 -125.681 	 62.7163 	 -61.0024
| 18> H 	 -125.098 	 63.8933 	 -62.0844
| 19> C 	 -126.583 	 62.6735 	 -62.8322
| 20> H 	 -126.914 	 61.6582 	 -62.9043
| 21> H 	 -127.376 	 63.2892 	 -62.4271
| 22> H 	 -126.404 	 62.9153 	 -63.9052
| 23> S 	 -120.799 	 64.6182 	 -57.8705
| 24> C 	 -120.559 	 64.1266 	 -56.2358
| 25> C 	 -120.85 	 62.816 	 -56.0425
| 26> C 	 -121.214 	 62.1035 	 -57.1934
| 27> C 	 -121.222 	 62.937 	 -58.3142
| 28> H 	 -120.732 	 62.4255 	 -55.0633
| 29> C 	 -121.606 	 60.6368 	 -57.179
| 30> H 	 -122.24 	 60.2678 	 -58.0361
| 31> H 	 -122.087 	 60.4387 	 -56.2337
| 32> C 	 -120.4 	 59.6496 	 -57.2736
| 33> H 	 -120.053 	 59.7802 	 -58.2441
| 34> H 	 -120.667 	 58.5641 	 -57.1663
| 35> C 	 -119.418 	 59.9115 	 -56.1888
| 36> H 	 -118.781 	 60.7612 	 -56.3707
| 37> H 	 -118.764 	 59.056 	 -56.1194
| 38> H 	 -119.848 	 60.1441 	 -55.165
| 39> H 	 -121.57 	 61.8939 	 -63.2217
| 40> H 	 -120.283 	 64.7108 	 -55.4527
| 41> *
| 42>
| 43>                          ****END OF INPUT****

CARTESIAN COORDINATES (ANGSTROEM)
---------------------------------
  S    -120.426000   62.526800  -61.006000
  C    -121.696000   62.167100  -62.185600
  C    -122.925000   62.159600  -61.569100
  C    -122.849000   62.421500  -60.153300
  C    -121.587000   62.652500  -59.684000
  H    -123.717000   62.547600  -59.496300
  C    -124.197000   61.881700  -62.337600
  H    -124.349000   60.838300  -62.138100
  H    -124.084000   62.016200  -63.380100
  C    -125.352000   62.869300  -62.066600
  H    -125.681000   62.716300  -61.002400
  H    -125.098000   63.893300  -62.084400
  C    -126.583000   62.673500  -62.832200
  H    -126.914000   61.658200  -62.904300
  H    -127.376000   63.289200  -62.427100
  H    -126.404000   62.915300  -63.905200
  S    -120.799000   64.618200  -57.870500
  C    -120.559000   64.126600  -56.235800
  C    -120.850000   62.816000  -56.042500
  C    -121.214000   62.103500  -57.193400
  C    -121.222000   62.937000  -58.314200
  H    -120.732000   62.425500  -55.063300
  C    -121.606000   60.636800  -57.179000
  H    -122.240000   60.267800  -58.036100
  H    -122.087000   60.438700  -56.233700
  C    -120.400000   59.649600  -57.273600
  H    -120.053000   59.780200  -58.244100
  H    -120.667000   58.564100  -57.166300
  C    -119.418000   59.911500  -56.188800
  H    -118.781000   60.761200  -56.370700
  H    -118.764000   59.056000  -56.119400
  H    -119.848000   60.144100  -55.165000
  H    -121.570000   61.893900  -63.221700
  H    -120.283000   64.710800  -55.452700

 Total Charge           Charge          ....    0
 Multiplicity           Mult            ....    1
 Number of Electrons    NEL             ....  134
 Basis Dimension        Dim             ....  322

ORBITAL ENERGIES
----------------

  NO   OCC          E(Eh)            E(eV)
   0   2.0000     -88.965940     -2420.8863
   1   2.0000     -88.963137     -2420.8100
   2   2.0000     -10.327015      -281.0124
   3   2.0000     -10.326797      -281.0064
   4   2.0000     -10.312876      -280.6276
   5   2.0000     -10.306853      -280.4637
   6   2.0000     -10.304702      -280.4052
   7   2.0000     -10.299596      -280.2663
   8   2.0000     -10.294245      -280.1206
   9   2.0000     -10.292227      -280.0657
  10   2.0000     -10.288507      -279.9645
  11   2.0000     -10.285390      -279.8797
  12   2.0000     -10.282173      -279.7922
  13   2.0000     -10.278480      -279.6917
  14   2.0000     -10.273584      -279.5584
  15   2.0000     -10.270573      -279.4765
  16   2.0000      -8.080598      -219.8843
  17   2.0000      -8.077346      -219.7958
  18   2.0000      -6.038987      -164.3292
  19   2.0000      -6.035981      -164.2474
  20   2.0000      -6.035170      -164.2253
  21   2.0000      -6.031873      -164.1356
  22   2.0000      -6.031432      -164.1236
  23   2.0000      -6.028049      -164.0315
  24   2.0000      -1.005662       -27.3654
  25   2.0000      -0.984384       -26.7865
  26   2.0000      -0.918028       -24.9808
  27   2.0000      -0.911251       -24.7964
  28   2.0000      -0.875719       -23.8295
  29   2.0000      -0.850890       -23.1539
  30   2.0000      -0.847560       -23.0633
  31   2.0000      -0.818394       -22.2696
  32   2.0000      -0.784854       -21.3570
  33   2.0000      -0.772629       -21.0243
  34   2.0000      -0.715276       -19.4637
  35   2.0000      -0.697259       -18.9734
  36   2.0000      -0.690037       -18.7769
  37   2.0000      -0.661841       -18.0096
  38   2.0000      -0.642197       -17.4751
  39   2.0000      -0.619502       -16.8575
  40   2.0000      -0.594859       -16.1869
  41   2.0000      -0.572001       -15.5649
  42   2.0000      -0.568815       -15.4783
  43   2.0000      -0.561609       -15.2822
  44   2.0000      -0.544611       -14.8196
  45   2.0000      -0.533179       -14.5085
  46   2.0000      -0.516999       -14.0683
  47   2.0000      -0.508898       -13.8478
  48   2.0000      -0.506841       -13.7919
  49   2.0000      -0.503909       -13.7121
  50   2.0000      -0.493243       -13.4218
  51   2.0000      -0.481721       -13.1083
  52   2.0000      -0.474083       -12.9005
  53   2.0000      -0.471377       -12.8268
  54   2.0000      -0.456429       -12.4201
  55   2.0000      -0.452557       -12.3147
  56   2.0000      -0.442569       -12.0429
  57   2.0000      -0.437933       -11.9168
  58   2.0000      -0.435463       -11.8495
  59   2.0000      -0.419494       -11.4150
  60   2.0000      -0.417416       -11.3585
  61   2.0000      -0.409663       -11.1475
  62   2.0000      -0.400339       -10.8938
  63   2.0000      -0.337107        -9.1731
  64   2.0000      -0.330885        -9.0038
  65   2.0000      -0.326329        -8.8799
  66   2.0000      -0.304773        -8.2933
  67   0.0000       0.040273         1.0959
  68   0.0000       0.058482         1.5914
  69   0.0000       0.118127         3.2144
  70   0.0000       0.128489         3.4964
  71   0.0000       0.132592         3.6080

MULLIKEN ATOMIC CHARGES
-----------------------
   0 S :    0.104148
   1 C :   -0.120781
   2 C :   -0.103765
   3 C :    0.047509
   4 C :   -0.167908
   5 H :    0.022211
   6 C :    0.108470
   7 H :    0.041155
   8 H :    0.003836
   9 C :   -0.098380
  10 H :    0.021534
  11 H :    0.029025
  12 C :   -0.023329
  13 H :    0.016823
  14 H :    0.038079
  15 H :    0.020888
  16 S :    0.119120
  17 C :   -0.037036
  18 C :   -0.045498
  19 C :    0.026068
  20 C :   -0.208198
  21 H :    0.000591
  22 C :    0.053526
  23 H :    0.043012
  24 H :    0.022119
  25 C :   -0.051757
  26 H :    0.018161
  27 H :    0.034693
  28 C :   -0.062339
  29 H :    0.036481
  30 H :    0.027138
  31 H :    0.027182
  32 H :    0.045549
  33 H :    0.011669
Sum of atomic charges:   -0.0000000

LOEWDIN ATOMIC CHARGES
----------------------
   0 S :    0.386573
   1 C :   -0.191592
   2 C :   -0.062693
   3 C :   -0.059543
   4 C :   -0.196203
   5 H :    0.035646
   6 C :   -0.025377
   7 H :    0.035533
   8 H :    0.023193
   9 C :   -0.044781
  10 H :    0.024099
  11 H :    0.023757
  12 C :   -0.063446
  13 H :    0.020817
  14 H :    0.030355
  15 H :    0.023961
  16 S :    0.405664
  17 C :   -0.172346
  18 C :   -0.068906
  19 C :   -0.046063
  20 C :   -0.192109
  21 H :    0.025655
  22 C :   -0.029630
  23 H :    0.039315
  24 H :    0.025477
  25 C :   -0.036553
  26 H :    0.016042
  27 H :    0.029936
  28 C :   -0.072336
  29 H :    0.024092
  30 H :    0.023679
  31 H :    0.026850
  32 H :    0.029783
  33 H :    0.011149

  Mayer bond orders larger than 0.100000
B(  0-S ,  1-C ) :   1.1226 B(  0-S ,  4-C ) :   1.1385 B(  1-C ,  2-C ) :   1.6366
B(  1-C , 32-H ) :   0.9694 B(  2-C ,  3-C ) :   1.2169 B(  2-C ,  6-C ) :   1.0194
B(  3-C ,  4-C ) :   1.6040 B(  3-C ,  5-H ) :   0.9929 B(  4-C , 20-C ) :   1.0312
B(  6-C ,  7-H ) :   0.9322 B(  6-C ,  8-H ) :   0.9454 B(  6-C ,  9-C ) :   1.0529
B(  9-C , 10-H ) :   0.9470 B(  9-C , 11-H ) :   0.9585 B(  9-C , 12-C ) :   1.1102
B( 12-C , 13-H ) :   0.9693 B( 12-C , 14-H ) :   0.9702 B( 12-C , 15-H ) :   0.9671
B( 16-S , 17-C ) :   1.1539 B( 16-S , 20-C ) :   1.1464 B( 17-C , 18-C ) :   1.6258
B( 17-C , 20-C ) :   0.1016 B( 17-C , 33-H ) :   0.9733 B( 18-C , 19-C ) :   1.2353
B( 18-C , 21-H ) :   0.9923 B( 19-C , 20-C ) :   1.5907 B( 19-C , 22-C ) :   1.0365
B( 22-C , 23-H ) :   0.9396 B( 22-C , 24-H ) :   0.9376 B( 22-C , 25-C ) :   1.0712
B( 25-C , 26-H ) :   0.9520 B( 25-C , 27-H ) :   0.9611 B( 25-C , 28-C ) :   1.0853
B( 28-C , 29-H ) :   0.9658 B( 28-C , 30-H ) :   0.9723 B( 28-C , 31-H ) :   0.9730

Dispersion correction           -0.014435880
FINAL SINGLE POINT ENERGY     -1339.873722955249

DIPOLE MOMENT
-------------
                                X             Y             Z
Electronic contribution:     14.62324      14.35293       1.13610
Nuclear contribution   :    -15.08447     -14.71539      -1.03841
                        -----------------------------------------
Total Dipole Moment    :     -0.46123      -0.36246       0.09769
                        -----------------------------------------
Magnitude (a.u.)       :      0.59469
Magnitude (Debye)      :      1.51158

Rotational constants in cm-1:     0.021162     0.007356     0.006924
Rotational constants in MHz :   634.425284   220.519395   207.581503

                             ****ORCA TERMINATED NORMALLY****
TOTAL RUN TIME: 0 days 0 hours 0 minutes 21 seconds 624 msec
