                         Program Version 4.2.1 -  RELEASE  -
|  1> ! wB97X-D3 SP def2-SVP
|  2> %pal
|  3> nprocs 24
|  4> end
|  5>
|  6> * xyz 0 1
|  7> S 	 31.1922 	 -37.0602 	 -128.474
|  8> C 	 31.7009 	 -35.9173 	 -127.259
|  9> C 	 31.5884 	 -34.6141 	 -127.623
| 10> C 	 31.274 	 -34.5071 	 -129.032
| 11> C 	 31.1512 	 -35.7207 	 -129.645
| 12> H 	 31.3065 	 -33.6237 	 -129.636
| 13> C 	 31.7842 	 -33.4473 	 -126.72
| 14> H 	 32.5936 	 -32.9922 	 -127.285
| 15> H 	 32.2969 	 -33.782 	 -125.787
| 16> C 	 30.613 	 -32.4496 	 -126.52
| 17> H 	 31.0803 	 -31.5658 	 -126.286
| 18> H 	 30.1167 	 -32.3169 	 -127.466
| 19> C 	 29.6718 	 -32.8354 	 -125.401
| 20> H 	 29.0837 	 -31.9456 	 -125.052
| 21> H 	 29.0992 	 -33.6777 	 -125.778
| 22> H 	 30.2854 	 -33.1842 	 -124.6
| 23> S 	 29.1864 	 -36.4056 	 -131.504
| 24> C 	 29.5576 	 -36.1147 	 -133.197
| 25> C 	 30.8877 	 -35.8359 	 -133.368
| 26> C 	 31.5261 	 -35.4432 	 -132.196
| 27> C 	 30.7526 	 -35.833 	 -131.057
| 28> H 	 31.1327 	 -35.7904 	 -134.431
| 29> C 	 32.9569 	 -34.9082 	 -132.111
| 30> H 	 33.183 	 -34.5378 	 -131.113
| 31> H 	 32.9921 	 -34.1766 	 -132.889
| 32> C 	 34.0794 	 -35.9065 	 -132.485
| 33> H 	 33.6509 	 -36.4837 	 -133.27
| 34> H 	 34.3342 	 -36.5602 	 -131.623
| 35> C 	 35.3854 	 -35.1794 	 -132.982
| 36> H 	 36.1912 	 -35.8167 	 -133.111
| 37> H 	 35.7415 	 -34.4746 	 -132.202
| 38> H 	 35.3342 	 -34.5261 	 -133.901
| 39> H 	 31.8766 	 -36.1287 	 -126.218
| 40> H 	 28.9797 	 -36.4215 	 -134.033
| 41> *
| 42>
| 43>                          ****END OF INPUT****

CARTESIAN COORDINATES (ANGSTROEM)
---------------------------------
  S     31.192200  -37.060200  -128.474000
  C     31.700900  -35.917300  -127.259000
  C     31.588400  -34.614100  -127.623000
  C     31.274000  -34.507100  -129.032000
  C     31.151200  -35.720700  -129.645000
  H     31.306500  -33.623700  -129.636000
  C     31.784200  -33.447300  -126.720000
  H     32.593600  -32.992200  -127.285000
  H     32.296900  -33.782000  -125.787000
  C     30.613000  -32.449600  -126.520000
  H     31.080300  -31.565800  -126.286000
  H     30.116700  -32.316900  -127.466000
  C     29.671800  -32.835400  -125.401000
  H     29.083700  -31.945600  -125.052000
  H     29.099200  -33.677700  -125.778000
  H     30.285400  -33.184200  -124.600000
  S     29.186400  -36.405600  -131.504000
  C     29.557600  -36.114700  -133.197000
  C     30.887700  -35.835900  -133.368000
  C     31.526100  -35.443200  -132.196000
  C     30.752600  -35.833000  -131.057000
  H     31.132700  -35.790400  -134.431000
  C     32.956900  -34.908200  -132.111000
  H     33.183000  -34.537800  -131.113000
  H     32.992100  -34.176600  -132.889000
  C     34.079400  -35.906500  -132.485000
  H     33.650900  -36.483700  -133.270000
  H     34.334200  -36.560200  -131.623000
  C     35.385400  -35.179400  -132.982000
  H     36.191200  -35.816700  -133.111000
  H     35.741500  -34.474600  -132.202000
  H     35.334200  -34.526100  -133.901000
  H     31.876600  -36.128700  -126.218000
  H     28.979700  -36.421500  -134.033000

 Total Charge           Charge          ....    0
 Multiplicity           Mult            ....    1
 Number of Electrons    NEL             ....  134
 Basis Dimension        Dim             ....  322

ORBITAL ENERGIES
----------------

  NO   OCC          E(Eh)            E(eV)
   0   2.0000     -88.967371     -2420.9252
   1   2.0000     -88.966573     -2420.9035
   2   2.0000     -10.328348      -281.0486
   3   2.0000     -10.326623      -281.0017
   4   2.0000     -10.309897      -280.5466
   5   2.0000     -10.306469      -280.4533
   6   2.0000     -10.304222      -280.3921
   7   2.0000     -10.296422      -280.1799
   8   2.0000     -10.292625      -280.0766
   9   2.0000     -10.291365      -280.0423
  10   2.0000     -10.290739      -280.0253
  11   2.0000     -10.287292      -279.9314
  12   2.0000     -10.287191      -279.9287
  13   2.0000     -10.279958      -279.7319
  14   2.0000     -10.279004      -279.7059
  15   2.0000     -10.276514      -279.6382
  16   2.0000      -8.082159      -219.9267
  17   2.0000      -8.080961      -219.8941
  18   2.0000      -6.040499      -164.3703
  19   2.0000      -6.039607      -164.3461
  20   2.0000      -6.036676      -164.2663
  21   2.0000      -6.035770      -164.2417
  22   2.0000      -6.033090      -164.1687
  23   2.0000      -6.031353      -164.1214
  24   2.0000      -1.006651       -27.3924
  25   2.0000      -0.986371       -26.8405
  26   2.0000      -0.915586       -24.9144
  27   2.0000      -0.903853       -24.5951
  28   2.0000      -0.872470       -23.7411
  29   2.0000      -0.852161       -23.1885
  30   2.0000      -0.847213       -23.0539
  31   2.0000      -0.816831       -22.2271
  32   2.0000      -0.782401       -21.2902
  33   2.0000      -0.770985       -20.9796
  34   2.0000      -0.712025       -19.3752
  35   2.0000      -0.699310       -19.0292
  36   2.0000      -0.695426       -18.9235
  37   2.0000      -0.653411       -17.7802
  38   2.0000      -0.638723       -17.3805
  39   2.0000      -0.621513       -16.9122
  40   2.0000      -0.594513       -16.1775
  41   2.0000      -0.573251       -15.5989
  42   2.0000      -0.563471       -15.3328
  43   2.0000      -0.555607       -15.1188
  44   2.0000      -0.539753       -14.6874
  45   2.0000      -0.517223       -14.0743
  46   2.0000      -0.515999       -14.0410
  47   2.0000      -0.511901       -13.9295
  48   2.0000      -0.499913       -13.6033
  49   2.0000      -0.495276       -13.4772
  50   2.0000      -0.487815       -13.2741
  51   2.0000      -0.475929       -12.9507
  52   2.0000      -0.469635       -12.7794
  53   2.0000      -0.465091       -12.6558
  54   2.0000      -0.460897       -12.5416
  55   2.0000      -0.451685       -12.2910
  56   2.0000      -0.446207       -12.1419
  57   2.0000      -0.435631       -11.8541
  58   2.0000      -0.434998       -11.8369
  59   2.0000      -0.434162       -11.8141
  60   2.0000      -0.422006       -11.4834
  61   2.0000      -0.418046       -11.3756
  62   2.0000      -0.417292       -11.3551
  63   2.0000      -0.345823        -9.4103
  64   2.0000      -0.331533        -9.0215
  65   2.0000      -0.323300        -8.7974
  66   2.0000      -0.293254        -7.9798
  67   0.0000       0.037421         1.0183
  68   0.0000       0.062136         1.6908
  69   0.0000       0.115388         3.1399
  70   0.0000       0.119514         3.2521
  71   0.0000       0.126919         3.4536

MULLIKEN ATOMIC CHARGES
-----------------------
   0 S :    0.111004
   1 C :   -0.105365
   2 C :   -0.094768
   3 C :    0.038382
   4 C :   -0.166951
   5 H :    0.015331
   6 C :    0.023896
   7 H :    0.029152
   8 H :    0.018197
   9 C :   -0.011438
  10 H :    0.005898
  11 H :    0.025043
  12 C :   -0.030171
  13 H :    0.050039
  14 H :    0.042054
  15 H :    0.014383
  16 S :    0.122772
  17 C :   -0.099160
  18 C :   -0.050916
  19 C :   -0.040525
  20 C :   -0.166296
  21 H :    0.026477
  22 C :    0.101755
  23 H :    0.026473
  24 H :    0.013623
  25 C :   -0.064730
  26 H :    0.020625
  27 H :    0.044872
  28 C :   -0.060245
  29 H :    0.020756
  30 H :    0.024757
  31 H :    0.037561
  32 H :    0.031722
  33 H :    0.045791
Sum of atomic charges:   -0.0000000

LOEWDIN ATOMIC CHARGES
----------------------
   0 S :    0.385457
   1 C :   -0.201076
   2 C :   -0.066169
   3 C :   -0.054611
   4 C :   -0.184222
   5 H :    0.029337
   6 C :   -0.035719
   7 H :    0.036722
   8 H :    0.031172
   9 C :   -0.029137
  10 H :    0.013720
  11 H :    0.024187
  12 C :   -0.060357
  13 H :    0.035035
  14 H :    0.030227
  15 H :    0.019409
  16 S :    0.418029
  17 C :   -0.187681
  18 C :   -0.073216
  19 C :   -0.056273
  20 C :   -0.206939
  21 H :    0.037537
  22 C :   -0.026509
  23 H :    0.028577
  24 H :    0.027174
  25 C :   -0.031311
  26 H :    0.016896
  27 H :    0.031999
  28 C :   -0.071820
  29 H :    0.014807
  30 H :    0.027463
  31 H :    0.030103
  32 H :    0.024369
  33 H :    0.022818

  Mayer bond orders larger than 0.100000
B(  0-S ,  1-C ) :   1.1126 B(  0-S ,  4-C ) :   1.1254 B(  1-C ,  2-C ) :   1.6686
B(  1-C , 32-H ) :   0.9599 B(  2-C ,  3-C ) :   1.1929 B(  2-C ,  6-C ) :   1.0139
B(  3-C ,  4-C ) :   1.6198 B(  3-C ,  5-H ) :   0.9913 B(  4-C , 20-C ) :   1.0342
B(  6-C ,  7-H ) :   0.9317 B(  6-C ,  8-H ) :   0.9404 B(  6-C ,  9-C ) :   1.0680
B(  9-C , 10-H ) :   0.9486 B(  9-C , 11-H ) :   0.9556 B(  9-C , 12-C ) :   1.0757
B( 12-C , 13-H ) :   0.9731 B( 12-C , 14-H ) :   0.9783 B( 12-C , 15-H ) :   0.9738
B( 16-S , 17-C ) :   1.1518 B( 16-S , 20-C ) :   1.1731 B( 17-C , 18-C ) :   1.6318
B( 17-C , 20-C ) :   0.1088 B( 17-C , 33-H ) :   0.9642 B( 18-C , 19-C ) :   1.2481
B( 18-C , 21-H ) :   0.9815 B( 19-C , 20-C ) :   1.5471 B( 19-C , 22-C ) :   1.0552
B( 22-C , 23-H ) :   0.9281 B( 22-C , 24-H ) :   0.9292 B( 22-C , 25-C ) :   1.0666
B( 25-C , 26-H ) :   0.9597 B( 25-C , 27-H ) :   0.9563 B( 25-C , 28-C ) :   1.0723
B( 28-C , 29-H ) :   0.9761 B( 28-C , 30-H ) :   0.9746 B( 28-C , 31-H ) :   0.9756

Dispersion correction           -0.013987942
FINAL SINGLE POINT ENERGY     -1339.860400889740

DIPOLE MOMENT
-------------
                                X             Y             Z
Electronic contribution:    -14.51879     -16.45478      -4.27819
Nuclear contribution   :     14.85421      16.96972       4.25569
                        -----------------------------------------
Total Dipole Moment    :      0.33542       0.51495      -0.02249
                        -----------------------------------------
Magnitude (a.u.)       :      0.61497
Magnitude (Debye)      :      1.56312

Rotational constants in cm-1:     0.018285     0.008038     0.006832
Rotational constants in MHz :   548.158631   240.960825   204.814201

                             ****ORCA TERMINATED NORMALLY****
TOTAL RUN TIME: 0 days 0 hours 0 minutes 21 seconds 333 msec
