                         Program Version 4.2.1 -  RELEASE  -
|  1> ! wB97X-D3 SP def2-SVP
|  2> %pal
|  3> nprocs 24
|  4> end
|  5>
|  6> * xyz 0 1
|  7> S 	 -105.396 	 14.3692 	 -122.258
|  8> C 	 -105.858 	 13.0284 	 -121.284
|  9> C 	 -105.919 	 11.8227 	 -121.997
| 10> C 	 -105.465 	 12.0124 	 -123.338
| 11> C 	 -105.084 	 13.3181 	 -123.588
| 12> H 	 -105.255 	 11.2881 	 -124.091
| 13> C 	 -106.509 	 10.47 	 -121.557
| 14> H 	 -106.779 	 9.86078 	 -122.432
| 15> H 	 -107.475 	 10.7406 	 -121.162
| 16> C 	 -105.737 	 9.44609 	 -120.578
| 17> H 	 -105.624 	 9.88877 	 -119.666
| 18> H 	 -106.395 	 8.51188 	 -120.475
| 19> C 	 -104.321 	 9.01259 	 -121.053
| 20> H 	 -103.798 	 8.26462 	 -120.466
| 21> H 	 -104.366 	 8.58109 	 -122.095
| 22> H 	 -103.695 	 9.9148 	 -121.139
| 23> S 	 -103.062 	 14.8656 	 -124.64
| 24> C 	 -103.152 	 15.3026 	 -126.357
| 25> C 	 -104.173 	 14.6711 	 -127.004
| 26> C 	 -104.966 	 13.8212 	 -126.13
| 27> C 	 -104.469 	 13.8141 	 -124.846
| 28> H 	 -104.412 	 14.8644 	 -128.051
| 29> C 	 -106.263 	 13.1711 	 -126.54
| 30> H 	 -106.897 	 13.7661 	 -127.098
| 31> H 	 -106.769 	 13.0179 	 -125.604
| 32> C 	 -106.108 	 11.7844 	 -127.124
| 33> H 	 -105.569 	 11.2584 	 -126.391
| 34> H 	 -105.52 	 11.7139 	 -128.014
| 35> C 	 -107.552 	 11.205 	 -127.312
| 36> H 	 -108.183 	 11.994 	 -127.664
| 37> H 	 -107.942 	 10.8802 	 -126.347
| 38> H 	 -107.438 	 10.3944 	 -127.933
| 39> H 	 -106.229 	 13.0839 	 -120.233
| 40> H 	 -102.44 	 15.9241 	 -126.906
| 41> *
| 42>
| 43>                          ****END OF INPUT****

CARTESIAN COORDINATES (ANGSTROEM)
---------------------------------
  S    -105.396000   14.369200  -122.258000
  C    -105.858000   13.028400  -121.284000
  C    -105.919000   11.822700  -121.997000
  C    -105.465000   12.012400  -123.338000
  C    -105.084000   13.318100  -123.588000
  H    -105.255000   11.288100  -124.091000
  C    -106.509000   10.470000  -121.557000
  H    -106.779000    9.860780  -122.432000
  H    -107.475000   10.740600  -121.162000
  C    -105.737000    9.446090  -120.578000
  H    -105.624000    9.888770  -119.666000
  H    -106.395000    8.511880  -120.475000
  C    -104.321000    9.012590  -121.053000
  H    -103.798000    8.264620  -120.466000
  H    -104.366000    8.581090  -122.095000
  H    -103.695000    9.914800  -121.139000
  S    -103.062000   14.865600  -124.640000
  C    -103.152000   15.302600  -126.357000
  C    -104.173000   14.671100  -127.004000
  C    -104.966000   13.821200  -126.130000
  C    -104.469000   13.814100  -124.846000
  H    -104.412000   14.864400  -128.051000
  C    -106.263000   13.171100  -126.540000
  H    -106.897000   13.766100  -127.098000
  H    -106.769000   13.017900  -125.604000
  C    -106.108000   11.784400  -127.124000
  H    -105.569000   11.258400  -126.391000
  H    -105.520000   11.713900  -128.014000
  C    -107.552000   11.205000  -127.312000
  H    -108.183000   11.994000  -127.664000
  H    -107.942000   10.880200  -126.347000
  H    -107.438000   10.394400  -127.933000
  H    -106.229000   13.083900  -120.233000
  H    -102.440000   15.924100  -126.906000

 Total Charge           Charge          ....    0
 Multiplicity           Mult            ....    1
 Number of Electrons    NEL             ....  134
 Basis Dimension        Dim             ....  322

ORBITAL ENERGIES
----------------

  NO   OCC          E(Eh)            E(eV)
   0   2.0000     -88.971948     -2421.0498
   1   2.0000     -88.964979     -2420.8601
   2   2.0000     -10.326634      -281.0020
   3   2.0000     -10.326121      -280.9880
   4   2.0000     -10.318003      -280.7671
   5   2.0000     -10.316784      -280.7340
   6   2.0000     -10.306651      -280.4582
   7   2.0000     -10.301896      -280.3289
   8   2.0000     -10.299242      -280.2566
   9   2.0000     -10.294380      -280.1243
  10   2.0000     -10.294072      -280.1160
  11   2.0000     -10.291050      -280.0337
  12   2.0000     -10.281274      -279.7677
  13   2.0000     -10.278370      -279.6887
  14   2.0000     -10.277356      -279.6611
  15   2.0000     -10.271132      -279.4917
  16   2.0000      -8.087214      -220.0643
  17   2.0000      -8.079117      -219.8440
  18   2.0000      -6.045623      -164.5098
  19   2.0000      -6.041613      -164.4007
  20   2.0000      -6.038070      -164.3042
  21   2.0000      -6.037739      -164.2952
  22   2.0000      -6.033810      -164.1883
  23   2.0000      -6.029691      -164.0762
  24   2.0000      -1.008138       -27.4328
  25   2.0000      -0.982810       -26.7436
  26   2.0000      -0.915592       -24.9145
  27   2.0000      -0.899000       -24.4630
  28   2.0000      -0.864613       -23.5273
  29   2.0000      -0.852680       -23.2026
  30   2.0000      -0.846150       -23.0249
  31   2.0000      -0.813667       -22.1410
  32   2.0000      -0.781958       -21.2782
  33   2.0000      -0.770832       -20.9754
  34   2.0000      -0.708040       -19.2667
  35   2.0000      -0.703302       -19.1378
  36   2.0000      -0.692547       -18.8451
  37   2.0000      -0.662623       -18.0309
  38   2.0000      -0.641534       -17.4570
  39   2.0000      -0.612845       -16.6763
  40   2.0000      -0.597220       -16.2512
  41   2.0000      -0.572416       -15.5762
  42   2.0000      -0.569458       -15.4957
  43   2.0000      -0.542912       -14.7734
  44   2.0000      -0.539416       -14.6783
  45   2.0000      -0.532728       -14.4963
  46   2.0000      -0.514951       -14.0125
  47   2.0000      -0.503994       -13.7144
  48   2.0000      -0.502506       -13.6739
  49   2.0000      -0.489533       -13.3209
  50   2.0000      -0.487694       -13.2708
  51   2.0000      -0.478379       -13.0174
  52   2.0000      -0.471100       -12.8193
  53   2.0000      -0.464223       -12.6321
  54   2.0000      -0.458886       -12.4869
  55   2.0000      -0.449754       -12.2384
  56   2.0000      -0.446803       -12.1581
  57   2.0000      -0.443733       -12.0746
  58   2.0000      -0.440365       -11.9829
  59   2.0000      -0.425287       -11.5727
  60   2.0000      -0.423487       -11.5237
  61   2.0000      -0.417144       -11.3511
  62   2.0000      -0.413777       -11.2594
  63   2.0000      -0.347002        -9.4424
  64   2.0000      -0.334216        -9.0945
  65   2.0000      -0.329168        -8.9571
  66   2.0000      -0.294160        -8.0045
  67   0.0000       0.033752         0.9184
  68   0.0000       0.070046         1.9060
  69   0.0000       0.107074         2.9136
  70   0.0000       0.116137         3.1603
  71   0.0000       0.131802         3.5865

MULLIKEN ATOMIC CHARGES
-----------------------
   0 S :    0.146063
   1 C :   -0.139459
   2 C :   -0.075632
   3 C :    0.019688
   4 C :   -0.161444
   5 H :    0.006942
   6 C :    0.040873
   7 H :    0.024287
   8 H :    0.030955
   9 C :   -0.046521
  10 H :    0.015948
  11 H :    0.043257
  12 C :   -0.085988
  13 H :    0.042008
  14 H :    0.027772
  15 H :    0.046359
  16 S :    0.095084
  17 C :   -0.090040
  18 C :   -0.021968
  19 C :   -0.039887
  20 C :   -0.168603
  21 H :    0.021764
  22 C :    0.085387
  23 H :    0.003576
  24 H :    0.014482
  25 C :   -0.063105
  26 H :    0.001292
  27 H :    0.022328
  28 C :    0.010421
  29 H :    0.027564
  30 H :    0.027769
  31 H :    0.019512
  32 H :    0.060209
  33 H :    0.059107
Sum of atomic charges:   -0.0000000

LOEWDIN ATOMIC CHARGES
----------------------
   0 S :    0.439949
   1 C :   -0.219905
   2 C :   -0.064362
   3 C :   -0.064509
   4 C :   -0.203837
   5 H :    0.027217
   6 C :   -0.033567
   7 H :    0.031699
   8 H :    0.031813
   9 C :   -0.030514
  10 H :    0.007007
  11 H :    0.033794
  12 C :   -0.075023
  13 H :    0.025595
  14 H :    0.026790
  15 H :    0.029701
  16 S :    0.380130
  17 C :   -0.177518
  18 C :   -0.070014
  19 C :   -0.049009
  20 C :   -0.193056
  21 H :    0.033702
  22 C :   -0.025906
  23 H :    0.016249
  24 H :    0.031844
  25 C :   -0.026117
  26 H :    0.012758
  27 H :    0.017259
  28 C :   -0.046184
  29 H :    0.022928
  30 H :    0.027206
  31 H :    0.014554
  32 H :    0.036456
  33 H :    0.032871

  Mayer bond orders larger than 0.100000
B(  0-S ,  1-C ) :   1.1497 B(  0-S ,  4-C ) :   1.1724 B(  1-C ,  2-C ) :   1.5979
B(  1-C , 32-H ) :   0.9616 B(  2-C ,  3-C ) :   1.2484 B(  2-C ,  6-C ) :   1.0047
B(  3-C ,  4-C ) :   1.5620 B(  3-C ,  5-H ) :   0.9982 B(  4-C , 20-C ) :   1.0168
B(  6-C ,  7-H ) :   0.9505 B(  6-C ,  8-H ) :   0.9426 B(  6-C ,  9-C ) :   1.0583
B(  9-C , 10-H ) :   0.9615 B(  9-C , 11-H ) :   0.9577 B(  9-C , 12-C ) :   1.0684
B( 12-C , 13-H ) :   0.9771 B( 12-C , 14-H ) :   0.9769 B( 12-C , 15-H ) :   0.9750
B( 16-S , 17-C ) :   1.1291 B( 16-S , 20-C ) :   1.1236 B( 17-C , 18-C ) :   1.6510
B( 17-C , 33-H ) :   0.9628 B( 18-C , 19-C ) :   1.2126 B( 18-C , 21-H ) :   0.9874
B( 19-C , 20-C ) :   1.6308 B( 19-C , 22-C ) :   1.0393 B( 22-C , 23-H ) :   0.9368
B( 22-C , 24-H ) :   0.9250 B( 22-C , 25-C ) :   1.0613 B( 25-C , 26-H ) :   0.9505
B( 25-C , 27-H ) :   0.9598 B( 25-C , 28-C ) :   1.0752 B( 28-C , 29-H ) :   0.9757
B( 28-C , 30-H ) :   0.9747 B( 28-C , 31-H ) :   0.9748

Dispersion correction           -0.014439720
FINAL SINGLE POINT ENERGY     -1339.872552844208

DIPOLE MOMENT
-------------
                                X             Y             Z
Electronic contribution:     11.35083      25.48014       3.27396
Nuclear contribution   :    -11.73632     -25.85982      -3.49929
                        -----------------------------------------
Total Dipole Moment    :     -0.38549      -0.37968      -0.22533
                        -----------------------------------------
Magnitude (a.u.)       :      0.58612
Magnitude (Debye)      :      1.48980

Rotational constants in cm-1:     0.017422     0.008987     0.006979
Rotational constants in MHz :   522.300462   269.430087   209.221386

                             ****ORCA TERMINATED NORMALLY****
TOTAL RUN TIME: 0 days 0 hours 0 minutes 21 seconds 657 msec
