                         Program Version 4.2.1 -  RELEASE  -
|  1> ! wB97X-D3 SP def2-SVP
|  2> %pal
|  3> nprocs 24
|  4> end
|  5>
|  6> * xyz 0 1
|  7> S 	 -69.0819 	 10.0044 	 -74.3938
|  8> C 	 -68.3147 	 10.0714 	 -72.7901
|  9> C 	 -68.8848 	 11.141 	 -72.0524
| 10> C 	 -69.9495 	 11.7673 	 -72.765
| 11> C 	 -70.1344 	 11.2964 	 -74.0491
| 12> H 	 -70.5797 	 12.5434 	 -72.4843
| 13> C 	 -68.4429 	 11.4629 	 -70.6604
| 14> H 	 -67.3918 	 11.7325 	 -70.7557
| 15> H 	 -68.4483 	 10.5065 	 -70.1704
| 16> C 	 -69.2576 	 12.4598 	 -69.8687
| 17> H 	 -68.8771 	 12.6098 	 -68.9062
| 18> H 	 -69.2098 	 13.4687 	 -70.3239
| 19> C 	 -70.7193 	 12.1316 	 -69.6443
| 20> H 	 -71.3025 	 12.1273 	 -70.5832
| 21> H 	 -70.8859 	 11.0946 	 -69.2111
| 22> H 	 -71.0822 	 12.8767 	 -68.9249
| 23> S 	 -70.8734 	 13.0928 	 -76.0643
| 24> C 	 -72.2881 	 12.8097 	 -76.9563
| 25> C 	 -73.0367 	 11.7977 	 -76.3837
| 26> C 	 -72.434 	 11.2246 	 -75.2126
| 27> C 	 -71.161 	 11.7157 	 -75.0013
| 28> H 	 -73.9392 	 11.5663 	 -76.9268
| 29> C 	 -73.1038 	 10.0749 	 -74.5029
| 30> H 	 -72.8404 	 10.2196 	 -73.4366
| 31> H 	 -72.6665 	 9.14119 	 -74.89
| 32> C 	 -74.6429 	 10.0006 	 -74.545
| 33> H 	 -74.9621 	 9.8442 	 -75.652
| 34> H 	 -74.9433 	 10.9876 	 -74.286
| 35> C 	 -75.3636 	 8.94124 	 -73.7843
| 36> H 	 -76.3535 	 9.04926 	 -74.1881
| 37> H 	 -75.3068 	 9.28526 	 -72.735
| 38> H 	 -75.0133 	 7.9369 	 -73.8107
| 39> H 	 -67.6735 	 9.37245 	 -72.3891
| 40> H 	 -72.6434 	 13.4802 	 -77.7265
| 41> *
| 42>
| 43>                          ****END OF INPUT****

CARTESIAN COORDINATES (ANGSTROEM)
---------------------------------
  S    -69.081900   10.004400  -74.393800
  C    -68.314700   10.071400  -72.790100
  C    -68.884800   11.141000  -72.052400
  C    -69.949500   11.767300  -72.765000
  C    -70.134400   11.296400  -74.049100
  H    -70.579700   12.543400  -72.484300
  C    -68.442900   11.462900  -70.660400
  H    -67.391800   11.732500  -70.755700
  H    -68.448300   10.506500  -70.170400
  C    -69.257600   12.459800  -69.868700
  H    -68.877100   12.609800  -68.906200
  H    -69.209800   13.468700  -70.323900
  C    -70.719300   12.131600  -69.644300
  H    -71.302500   12.127300  -70.583200
  H    -70.885900   11.094600  -69.211100
  H    -71.082200   12.876700  -68.924900
  S    -70.873400   13.092800  -76.064300
  C    -72.288100   12.809700  -76.956300
  C    -73.036700   11.797700  -76.383700
  C    -72.434000   11.224600  -75.212600
  C    -71.161000   11.715700  -75.001300
  H    -73.939200   11.566300  -76.926800
  C    -73.103800   10.074900  -74.502900
  H    -72.840400   10.219600  -73.436600
  H    -72.666500    9.141190  -74.890000
  C    -74.642900   10.000600  -74.545000
  H    -74.962100    9.844200  -75.652000
  H    -74.943300   10.987600  -74.286000
  C    -75.363600    8.941240  -73.784300
  H    -76.353500    9.049260  -74.188100
  H    -75.306800    9.285260  -72.735000
  H    -75.013300    7.936900  -73.810700
  H    -67.673500    9.372450  -72.389100
  H    -72.643400   13.480200  -77.726500

 Total Charge           Charge          ....    0
 Multiplicity           Mult            ....    1
 Number of Electrons    NEL             ....  134
 Basis Dimension        Dim             ....  322

ORBITAL ENERGIES
----------------

  NO   OCC          E(Eh)            E(eV)
   0   2.0000     -88.965572     -2420.8763
   1   2.0000     -88.961410     -2420.7630
   2   2.0000     -10.323101      -280.9058
   3   2.0000     -10.322496      -280.8894
   4   2.0000     -10.311065      -280.5783
   5   2.0000     -10.310856      -280.5727
   6   2.0000     -10.304178      -280.3909
   7   2.0000     -10.303968      -280.3852
   8   2.0000     -10.289654      -279.9957
   9   2.0000     -10.288911      -279.9755
  10   2.0000     -10.288075      -279.9527
  11   2.0000     -10.287156      -279.9277
  12   2.0000     -10.286999      -279.9235
  13   2.0000     -10.282802      -279.8093
  14   2.0000     -10.282217      -279.7934
  15   2.0000     -10.275213      -279.6028
  16   2.0000      -8.080311      -219.8764
  17   2.0000      -8.077056      -219.7879
  18   2.0000      -6.038636      -164.3196
  19   2.0000      -6.035357      -164.2304
  20   2.0000      -6.034663      -164.2115
  21   2.0000      -6.031412      -164.1231
  22   2.0000      -6.031371      -164.1219
  23   2.0000      -6.028052      -164.0316
  24   2.0000      -1.007586       -27.4178
  25   2.0000      -0.985518       -26.8173
  26   2.0000      -0.918646       -24.9976
  27   2.0000      -0.911766       -24.8104
  28   2.0000      -0.870607       -23.6904
  29   2.0000      -0.855167       -23.2703
  30   2.0000      -0.844773       -22.9874
  31   2.0000      -0.818196       -22.2642
  32   2.0000      -0.787531       -21.4298
  33   2.0000      -0.773983       -21.0611
  34   2.0000      -0.707092       -19.2410
  35   2.0000      -0.696597       -18.9554
  36   2.0000      -0.692847       -18.8533
  37   2.0000      -0.650522       -17.7016
  38   2.0000      -0.644418       -17.5355
  39   2.0000      -0.621342       -16.9076
  40   2.0000      -0.595909       -16.2155
  41   2.0000      -0.572953       -15.5908
  42   2.0000      -0.568848       -15.4791
  43   2.0000      -0.558297       -15.1920
  44   2.0000      -0.543728       -14.7956
  45   2.0000      -0.535400       -14.5690
  46   2.0000      -0.519364       -14.1326
  47   2.0000      -0.513681       -13.9780
  48   2.0000      -0.508171       -13.8280
  49   2.0000      -0.503126       -13.6908
  50   2.0000      -0.491332       -13.3698
  51   2.0000      -0.487337       -13.2611
  52   2.0000      -0.475870       -12.9491
  53   2.0000      -0.468194       -12.7402
  54   2.0000      -0.455716       -12.4007
  55   2.0000      -0.447664       -12.1816
  56   2.0000      -0.441823       -12.0226
  57   2.0000      -0.437861       -11.9148
  58   2.0000      -0.427144       -11.6232
  59   2.0000      -0.422297       -11.4913
  60   2.0000      -0.417810       -11.3692
  61   2.0000      -0.416411       -11.3311
  62   2.0000      -0.402679       -10.9575
  63   2.0000      -0.332049        -9.0355
  64   2.0000      -0.326543        -8.8857
  65   2.0000      -0.316840        -8.6217
  66   2.0000      -0.311057        -8.4643
  67   0.0000       0.044587         1.2133
  68   0.0000       0.054398         1.4803
  69   0.0000       0.117808         3.2057
  70   0.0000       0.130336         3.5466
  71   0.0000       0.133828         3.6416

MULLIKEN ATOMIC CHARGES
-----------------------
   0 S :    0.125575
   1 C :   -0.108331
   2 C :   -0.101652
   3 C :    0.057480
   4 C :   -0.182912
   5 H :   -0.014203
   6 C :    0.096346
   7 H :    0.042718
   8 H :    0.023366
   9 C :   -0.042635
  10 H :    0.013202
  11 H :    0.029360
  12 C :   -0.088243
  13 H :    0.035744
  14 H :    0.035583
  15 H :    0.041348
  16 S :    0.117192
  17 C :   -0.093375
  18 C :   -0.059400
  19 C :   -0.010992
  20 C :   -0.195009
  21 H :    0.018901
  22 C :    0.096953
  23 H :    0.025514
  24 H :    0.043050
  25 C :   -0.148996
  26 H :    0.029382
  27 H :    0.022935
  28 C :    0.013219
  29 H :    0.036497
  30 H :    0.028838
  31 H :    0.033708
  32 H :    0.019244
  33 H :    0.059594
Sum of atomic charges:   -0.0000000

LOEWDIN ATOMIC CHARGES
----------------------
   0 S :    0.429618
   1 C :   -0.188925
   2 C :   -0.050130
   3 C :   -0.064386
   4 C :   -0.212311
   5 H :    0.020175
   6 C :   -0.036437
   7 H :    0.039858
   8 H :    0.033028
   9 C :   -0.045427
  10 H :    0.021202
  11 H :    0.029292
  12 C :   -0.069296
  13 H :    0.022992
  14 H :    0.029716
  15 H :    0.030171
  16 S :    0.423349
  17 C :   -0.199314
  18 C :   -0.081058
  19 C :   -0.050577
  20 C :   -0.209681
  21 H :    0.030316
  22 C :   -0.036581
  23 H :    0.033076
  24 H :    0.035814
  25 C :   -0.046937
  26 H :    0.023823
  27 H :    0.019938
  28 C :   -0.058248
  29 H :    0.032733
  30 H :    0.029614
  31 H :    0.023203
  32 H :    0.011162
  33 H :    0.030227

  Mayer bond orders larger than 0.100000
B(  0-S ,  1-C ) :   1.1501 B(  0-S ,  4-C ) :   1.1824 B(  1-C ,  2-C ) :   1.5722
B(  1-C ,  4-C ) :   0.1100 B(  1-C , 32-H ) :   0.9862 B(  2-C ,  3-C ) :   1.2515
B(  2-C ,  6-C ) :   0.9981 B(  3-C ,  4-C ) :   1.5649 B(  3-C ,  5-H ) :   1.0001
B(  4-C , 20-C ) :   1.0037 B(  6-C ,  7-H ) :   0.9320 B(  6-C ,  8-H ) :   0.9335
B(  6-C ,  9-C ) :   1.0971 B(  9-C , 10-H ) :   0.9487 B(  9-C , 11-H ) :   0.9450
B(  9-C , 12-C ) :   1.0786 B( 12-C , 13-H ) :   0.9740 B( 12-C , 14-H ) :   0.9718
B( 12-C , 15-H ) :   0.9727 B( 16-S , 17-C ) :   1.1802 B( 16-S , 20-C ) :   1.1500
B( 17-C , 18-C ) :   1.5986 B( 17-C , 33-H ) :   0.9642 B( 18-C , 19-C ) :   1.2294
B( 18-C , 21-H ) :   0.9944 B( 19-C , 20-C ) :   1.5944 B( 19-C , 22-C ) :   1.0421
B( 22-C , 23-H ) :   0.9271 B( 22-C , 24-H ) :   0.9264 B( 22-C , 25-C ) :   1.0753
B( 25-C , 26-H ) :   0.9485 B( 25-C , 27-H ) :   0.9587 B( 25-C , 28-C ) :   1.0778
B( 28-C , 29-H ) :   0.9714 B( 28-C , 30-H ) :   0.9706 B( 28-C , 31-H ) :   0.9746

Dispersion correction           -0.014197931
FINAL SINGLE POINT ENERGY     -1339.871480416139

DIPOLE MOMENT
-------------
                                X             Y             Z
Electronic contribution:     15.11255       4.79270     -20.00471
Nuclear contribution   :    -15.48195      -4.86960      20.49645
                        -----------------------------------------
Total Dipole Moment    :     -0.36940      -0.07691       0.49174
                        -----------------------------------------
Magnitude (a.u.)       :      0.61982
Magnitude (Debye)      :      1.57546

Rotational constants in cm-1:     0.016582     0.008722     0.007312
Rotational constants in MHz :   497.118247   261.480130   219.207797

                             ****ORCA TERMINATED NORMALLY****
TOTAL RUN TIME: 0 days 0 hours 0 minutes 21 seconds 467 msec
