                         Program Version 4.2.1 -  RELEASE  -
|  1> ! wB97X-D3 SP def2-SVP
|  2> %pal
|  3> nprocs 24
|  4> end
|  5>
|  6> * xyz 0 1
|  7> S 	 -67.5864 	 6.71558 	 -69.2568
|  8> C 	 -67.603 	 7.76783 	 -70.6325
|  9> C 	 -67.8949 	 7.05969 	 -71.8393
| 10> C 	 -67.8682 	 5.66914 	 -71.5413
| 11> C 	 -67.71 	 5.2907 	 -70.2588
| 12> H 	 -68.1804 	 4.88402 	 -72.243
| 13> C 	 -68.315 	 7.54183 	 -73.2411
| 14> H 	 -68.2124 	 6.8477 	 -74.0463
| 15> H 	 -67.6878 	 8.37598 	 -73.5524
| 16> C 	 -69.7254 	 8.07289 	 -73.3255
| 17> H 	 -69.8681 	 8.99243 	 -72.7162
| 18> H 	 -69.7928 	 8.29918 	 -74.4127
| 19> C 	 -70.7722 	 6.99514 	 -72.9364
| 20> H 	 -70.7153 	 6.83869 	 -71.8792
| 21> H 	 -71.8398 	 7.31747 	 -73.0078
| 22> H 	 -70.6091 	 6.03711 	 -73.4146
| 23> S 	 -68.3762 	 3.77987 	 -68.0968
| 24> C 	 -68.4789 	 2.05864 	 -68.3238
| 25> C 	 -67.844 	 1.60324 	 -69.4263
| 26> C 	 -67.4611 	 2.64304 	 -70.2544
| 27> C 	 -67.7918 	 3.90226 	 -69.7469
| 28> H 	 -67.6386 	 0.570548 	 -69.6122
| 29> C 	 -66.6994 	 2.47218 	 -71.5591
| 30> H 	 -65.8207 	 1.84758 	 -71.4072
| 31> H 	 -66.2698 	 3.46336 	 -71.8699
| 32> C 	 -67.6047 	 1.97839 	 -72.7158
| 33> H 	 -68.4292 	 2.72446 	 -72.8378
| 34> H 	 -68.0553 	 1.04373 	 -72.4804
| 35> C 	 -66.8255 	 1.94201 	 -74.0254
| 36> H 	 -66.2431 	 0.976242 	 -74.121
| 37> H 	 -66.2769 	 2.85205 	 -74.1236
| 38> H 	 -67.5861 	 1.95009 	 -74.8724
| 39> H 	 -67.703 	 8.84449 	 -70.4603
| 40> H 	 -68.8827 	 1.39649 	 -67.5864
| 41> *
| 42>
| 43>                          ****END OF INPUT****

CARTESIAN COORDINATES (ANGSTROEM)
---------------------------------
  S    -67.586400    6.715580  -69.256800
  C    -67.603000    7.767830  -70.632500
  C    -67.894900    7.059690  -71.839300
  C    -67.868200    5.669140  -71.541300
  C    -67.710000    5.290700  -70.258800
  H    -68.180400    4.884020  -72.243000
  C    -68.315000    7.541830  -73.241100
  H    -68.212400    6.847700  -74.046300
  H    -67.687800    8.375980  -73.552400
  C    -69.725400    8.072890  -73.325500
  H    -69.868100    8.992430  -72.716200
  H    -69.792800    8.299180  -74.412700
  C    -70.772200    6.995140  -72.936400
  H    -70.715300    6.838690  -71.879200
  H    -71.839800    7.317470  -73.007800
  H    -70.609100    6.037110  -73.414600
  S    -68.376200    3.779870  -68.096800
  C    -68.478900    2.058640  -68.323800
  C    -67.844000    1.603240  -69.426300
  C    -67.461100    2.643040  -70.254400
  C    -67.791800    3.902260  -69.746900
  H    -67.638600    0.570548  -69.612200
  C    -66.699400    2.472180  -71.559100
  H    -65.820700    1.847580  -71.407200
  H    -66.269800    3.463360  -71.869900
  C    -67.604700    1.978390  -72.715800
  H    -68.429200    2.724460  -72.837800
  H    -68.055300    1.043730  -72.480400
  C    -66.825500    1.942010  -74.025400
  H    -66.243100    0.976242  -74.121000
  H    -66.276900    2.852050  -74.123600
  H    -67.586100    1.950090  -74.872400
  H    -67.703000    8.844490  -70.460300
  H    -68.882700    1.396490  -67.586400

 Total Charge           Charge          ....    0
 Multiplicity           Mult            ....    1
 Number of Electrons    NEL             ....  134
 Basis Dimension        Dim             ....  322

ORBITAL ENERGIES
----------------

  NO   OCC          E(Eh)            E(eV)
   0   2.0000     -88.967618     -2420.9320
   1   2.0000     -88.966199     -2420.8933
   2   2.0000     -10.328358      -281.0489
   3   2.0000     -10.326557      -280.9999
   4   2.0000     -10.320550      -280.8364
   5   2.0000     -10.312410      -280.6149
   6   2.0000     -10.309644      -280.5397
   7   2.0000     -10.299940      -280.2756
   8   2.0000     -10.293133      -280.0904
   9   2.0000     -10.292947      -280.0853
  10   2.0000     -10.291316      -280.0409
  11   2.0000     -10.287549      -279.9384
  12   2.0000     -10.287317      -279.9321
  13   2.0000     -10.286502      -279.9100
  14   2.0000     -10.284775      -279.8630
  15   2.0000     -10.274503      -279.5835
  16   2.0000      -8.082669      -219.9406
  17   2.0000      -8.081431      -219.9069
  18   2.0000      -6.041220      -164.3900
  19   2.0000      -6.039746      -164.3499
  20   2.0000      -6.037175      -164.2799
  21   2.0000      -6.036193      -164.2532
  22   2.0000      -6.033349      -164.1758
  23   2.0000      -6.032066      -164.1409
  24   2.0000      -1.011888       -27.5349
  25   2.0000      -0.989946       -26.9378
  26   2.0000      -0.914676       -24.8896
  27   2.0000      -0.909546       -24.7500
  28   2.0000      -0.869587       -23.6627
  29   2.0000      -0.856041       -23.2941
  30   2.0000      -0.843446       -22.9513
  31   2.0000      -0.813916       -22.1478
  32   2.0000      -0.785418       -21.3723
  33   2.0000      -0.769372       -20.9357
  34   2.0000      -0.700314       -19.0565
  35   2.0000      -0.698091       -18.9960
  36   2.0000      -0.691029       -18.8039
  37   2.0000      -0.666986       -18.1496
  38   2.0000      -0.642690       -17.4885
  39   2.0000      -0.617471       -16.8022
  40   2.0000      -0.600469       -16.3396
  41   2.0000      -0.580710       -15.8019
  42   2.0000      -0.569499       -15.4969
  43   2.0000      -0.549423       -14.9505
  44   2.0000      -0.534711       -14.5502
  45   2.0000      -0.524087       -14.2611
  46   2.0000      -0.512088       -13.9346
  47   2.0000      -0.510010       -13.8781
  48   2.0000      -0.504533       -13.7290
  49   2.0000      -0.496509       -13.5107
  50   2.0000      -0.485897       -13.2219
  51   2.0000      -0.479797       -13.0559
  52   2.0000      -0.470833       -12.8120
  53   2.0000      -0.469030       -12.7630
  54   2.0000      -0.460639       -12.5346
  55   2.0000      -0.455863       -12.4047
  56   2.0000      -0.443440       -12.0666
  57   2.0000      -0.437245       -11.8980
  58   2.0000      -0.431957       -11.7541
  59   2.0000      -0.426291       -11.6000
  60   2.0000      -0.420784       -11.4501
  61   2.0000      -0.416890       -11.3442
  62   2.0000      -0.413650       -11.2560
  63   2.0000      -0.358591        -9.7578
  64   2.0000      -0.338719        -9.2170
  65   2.0000      -0.328067        -8.9272
  66   2.0000      -0.281425        -7.6580
  67   0.0000       0.023047         0.6272
  68   0.0000       0.071344         1.9414
  69   0.0000       0.100103         2.7239
  70   0.0000       0.121552         3.3076
  71   0.0000       0.126585         3.4446

MULLIKEN ATOMIC CHARGES
-----------------------
   0 S :    0.101674
   1 C :   -0.135170
   2 C :   -0.069383
   3 C :   -0.034414
   4 C :   -0.084538
   5 H :    0.002049
   6 C :    0.071176
   7 H :    0.019512
   8 H :    0.027740
   9 C :   -0.083360
  10 H :    0.037465
  11 H :    0.034080
  12 C :   -0.058206
  13 H :    0.035081
  14 H :    0.037100
  15 H :    0.028271
  16 S :    0.095895
  17 C :   -0.069836
  18 C :   -0.015767
  19 C :   -0.030213
  20 C :   -0.150407
  21 H :    0.008640
  22 C :    0.025180
  23 H :    0.030346
  24 H :    0.030441
  25 C :   -0.082008
  26 H :    0.032559
  27 H :    0.021108
  28 C :   -0.044323
  29 H :    0.049488
  30 H :    0.029591
  31 H :    0.034577
  32 H :    0.061302
  33 H :    0.044351
Sum of atomic charges:    0.0000000

LOEWDIN ATOMIC CHARGES
----------------------
   0 S :    0.409655
   1 C :   -0.208003
   2 C :   -0.054739
   3 C :   -0.080695
   4 C :   -0.195396
   5 H :    0.030364
   6 C :   -0.032304
   7 H :    0.027435
   8 H :    0.034809
   9 C :   -0.037859
  10 H :    0.026014
  11 H :    0.027069
  12 C :   -0.072922
  13 H :    0.025562
  14 H :    0.031144
  15 H :    0.021932
  16 S :    0.402125
  17 C :   -0.174000
  18 C :   -0.068650
  19 C :   -0.058140
  20 C :   -0.183719
  21 H :    0.032934
  22 C :   -0.033777
  23 H :    0.029439
  24 H :    0.032926
  25 C :   -0.040191
  26 H :    0.024232
  27 H :    0.016607
  28 C :   -0.068398
  29 H :    0.033339
  30 H :    0.020582
  31 H :    0.031378
  32 H :    0.028301
  33 H :    0.022947

  Mayer bond orders larger than 0.100000
B(  0-S ,  1-C ) :   1.1581 B(  0-S ,  4-C ) :   1.1403 B(  1-C ,  2-C ) :   1.5696
B(  1-C , 32-H ) :   0.9670 B(  2-C ,  3-C ) :   1.2639 B(  2-C ,  6-C ) :   1.0153
B(  3-C ,  4-C ) :   1.5837 B(  3-C ,  5-H ) :   0.9879 B(  4-C , 20-C ) :   1.0451
B(  6-C ,  7-H ) :   0.9487 B(  6-C ,  8-H ) :   0.9341 B(  6-C ,  9-C ) :   1.0777
B(  9-C , 10-H ) :   0.9571 B(  9-C , 11-H ) :   0.9570 B(  9-C , 12-C ) :   1.0718
B( 12-C , 13-H ) :   0.9705 B( 12-C , 14-H ) :   0.9743 B( 12-C , 15-H ) :   0.9751
B( 16-S , 17-C ) :   1.1616 B( 16-S , 20-C ) :   1.1363 B( 17-C , 18-C ) :   1.5954
B( 17-C , 20-C ) :   0.1020 B( 17-C , 33-H ) :   0.9682 B( 18-C , 19-C ) :   1.2582
B( 18-C , 21-H ) :   0.9990 B( 19-C , 20-C ) :   1.5837 B( 19-C , 22-C ) :   1.0373
B( 22-C , 23-H ) :   0.9384 B( 22-C , 24-H ) :   0.9353 B( 22-C , 25-C ) :   1.0558
B( 25-C , 26-H ) :   0.9523 B( 25-C , 27-H ) :   0.9551 B( 25-C , 28-C ) :   1.0826
B( 28-C , 29-H ) :   0.9745 B( 28-C , 30-H ) :   0.9715 B( 28-C , 31-H ) :   0.9758

Dispersion correction           -0.014851908
FINAL SINGLE POINT ENERGY     -1339.878494525935

DIPOLE MOMENT
-------------
                                X             Y             Z
Electronic contribution:      4.50878       2.65980      28.10401
Nuclear contribution   :     -4.66029      -2.90873     -28.63368
                        -----------------------------------------
Total Dipole Moment    :     -0.15151      -0.24893      -0.52967
                        -----------------------------------------
Magnitude (a.u.)       :      0.60454
Magnitude (Debye)      :      1.53662

Rotational constants in cm-1:     0.016665     0.010172     0.007353
Rotational constants in MHz :   499.606191   304.941151   220.439413

                             ****ORCA TERMINATED NORMALLY****
TOTAL RUN TIME: 0 days 0 hours 0 minutes 23 seconds 775 msec
