                         Program Version 4.2.1 -  RELEASE  -
|  1> ! wB97X-D3 SP def2-SVP
|  2> %pal
|  3> nprocs 24
|  4> end
|  5>
|  6> * xyz 0 1
|  7> S 	 -2.79783 	 -26.7254 	 -107.423
|  8> C 	 -3.85564 	 -25.6637 	 -108.467
|  9> C 	 -4.14128 	 -26.4487 	 -109.59
| 10> C 	 -3.71371 	 -27.8111 	 -109.512
| 11> C 	 -3.06123 	 -28.1674 	 -108.329
| 12> H 	 -3.85984 	 -28.5316 	 -110.271
| 13> C 	 -4.85084 	 -25.8846 	 -110.801
| 14> H 	 -5.13643 	 -24.8596 	 -110.466
| 15> H 	 -5.82452 	 -26.4425 	 -110.794
| 16> C 	 -4.23567 	 -26.0281 	 -112.212
| 17> H 	 -4.13444 	 -27.0733 	 -112.356
| 18> H 	 -4.87412 	 -25.7316 	 -113.046
| 19> C 	 -2.96182 	 -25.2719 	 -112.381
| 20> H 	 -2.3248 	 -25.3263 	 -111.492
| 21> H 	 -2.57093 	 -25.6467 	 -113.287
| 22> H 	 -3.19555 	 -24.2231 	 -112.495
| 23> S 	 -0.646321 	 -29.4961 	 -107.839
| 24> C 	 -0.751331 	 -31.2938 	 -107.966
| 25> C 	 -1.98307 	 -31.8111 	 -108.047
| 26> C 	 -2.95121 	 -30.7688 	 -108.253
| 27> C 	 -2.39231 	 -29.4538 	 -108.179
| 28> H 	 -2.20643 	 -32.8968 	 -108.046
| 29> C 	 -4.43655 	 -31.0677 	 -108.156
| 30> H 	 -4.89286 	 -30.3825 	 -107.504
| 31> H 	 -4.63108 	 -32.0469 	 -107.702
| 32> C 	 -5.28248 	 -30.9062 	 -109.423
| 33> H 	 -5.44599 	 -29.9169 	 -109.728
| 34> H 	 -6.22798 	 -31.2007 	 -109.253
| 35> C 	 -4.92324 	 -31.8677 	 -110.544
| 36> H 	 -5.55824 	 -31.9163 	 -111.378
| 37> H 	 -4.77945 	 -32.8596 	 -110.213
| 38> H 	 -3.93623 	 -31.5381 	 -111.007
| 39> H 	 -3.92404 	 -24.6276 	 -108.365
| 40> H 	 0.088124 	 -31.9345 	 -107.921
| 41> *
| 42>
| 43>                          ****END OF INPUT****

CARTESIAN COORDINATES (ANGSTROEM)
---------------------------------
  S     -2.797830  -26.725400  -107.423000
  C     -3.855640  -25.663700  -108.467000
  C     -4.141280  -26.448700  -109.590000
  C     -3.713710  -27.811100  -109.512000
  C     -3.061230  -28.167400  -108.329000
  H     -3.859840  -28.531600  -110.271000
  C     -4.850840  -25.884600  -110.801000
  H     -5.136430  -24.859600  -110.466000
  H     -5.824520  -26.442500  -110.794000
  C     -4.235670  -26.028100  -112.212000
  H     -4.134440  -27.073300  -112.356000
  H     -4.874120  -25.731600  -113.046000
  C     -2.961820  -25.271900  -112.381000
  H     -2.324800  -25.326300  -111.492000
  H     -2.570930  -25.646700  -113.287000
  H     -3.195550  -24.223100  -112.495000
  S     -0.646321  -29.496100  -107.839000
  C     -0.751331  -31.293800  -107.966000
  C     -1.983070  -31.811100  -108.047000
  C     -2.951210  -30.768800  -108.253000
  C     -2.392310  -29.453800  -108.179000
  H     -2.206430  -32.896800  -108.046000
  C     -4.436550  -31.067700  -108.156000
  H     -4.892860  -30.382500  -107.504000
  H     -4.631080  -32.046900  -107.702000
  C     -5.282480  -30.906200  -109.423000
  H     -5.445990  -29.916900  -109.728000
  H     -6.227980  -31.200700  -109.253000
  C     -4.923240  -31.867700  -110.544000
  H     -5.558240  -31.916300  -111.378000
  H     -4.779450  -32.859600  -110.213000
  H     -3.936230  -31.538100  -111.007000
  H     -3.924040  -24.627600  -108.365000
  H      0.088124  -31.934500  -107.921000

 Total Charge           Charge          ....    0
 Multiplicity           Mult            ....    1
 Number of Electrons    NEL             ....  134
 Basis Dimension        Dim             ....  322

ORBITAL ENERGIES
----------------

  NO   OCC          E(Eh)            E(eV)
   0   2.0000     -88.970663     -2421.0148
   1   2.0000     -88.965718     -2420.8802
   2   2.0000     -10.335488      -281.2429
   3   2.0000     -10.333019      -281.1757
   4   2.0000     -10.320257      -280.8285
   5   2.0000     -10.315796      -280.7071
   6   2.0000     -10.308931      -280.5203
   7   2.0000     -10.307213      -280.4735
   8   2.0000     -10.296475      -280.1813
   9   2.0000     -10.295888      -280.1654
  10   2.0000     -10.291047      -280.0336
  11   2.0000     -10.287610      -279.9401
  12   2.0000     -10.283742      -279.8349
  13   2.0000     -10.269327      -279.4426
  14   2.0000     -10.268837      -279.4292
  15   2.0000     -10.268017      -279.4069
  16   2.0000      -8.084096      -219.9794
  17   2.0000      -8.079665      -219.8589
  18   2.0000      -6.042709      -164.4305
  19   2.0000      -6.039101      -164.3323
  20   2.0000      -6.038342      -164.3116
  21   2.0000      -6.034507      -164.2073
  22   2.0000      -6.034200      -164.1989
  23   2.0000      -6.030333      -164.0937
  24   2.0000      -1.001852       -27.2618
  25   2.0000      -0.978695       -26.6317
  26   2.0000      -0.914759       -24.8919
  27   2.0000      -0.911576       -24.8052
  28   2.0000      -0.874705       -23.8019
  29   2.0000      -0.849578       -23.1182
  30   2.0000      -0.846065       -23.0226
  31   2.0000      -0.819070       -22.2880
  32   2.0000      -0.783397       -21.3173
  33   2.0000      -0.773726       -21.0542
  34   2.0000      -0.719346       -19.5744
  35   2.0000      -0.702939       -19.1279
  36   2.0000      -0.695231       -18.9182
  37   2.0000      -0.658170       -17.9097
  38   2.0000      -0.641781       -17.4637
  39   2.0000      -0.617654       -16.8072
  40   2.0000      -0.594602       -16.1800
  41   2.0000      -0.566158       -15.4059
  42   2.0000      -0.561145       -15.2695
  43   2.0000      -0.558263       -15.1911
  44   2.0000      -0.549417       -14.9504
  45   2.0000      -0.541724       -14.7411
  46   2.0000      -0.525756       -14.3065
  47   2.0000      -0.514468       -13.9994
  48   2.0000      -0.506689       -13.7877
  49   2.0000      -0.491950       -13.3866
  50   2.0000      -0.487445       -13.2641
  51   2.0000      -0.482853       -13.1391
  52   2.0000      -0.473343       -12.8803
  53   2.0000      -0.466737       -12.7006
  54   2.0000      -0.454672       -12.3722
  55   2.0000      -0.448721       -12.2103
  56   2.0000      -0.445123       -12.1124
  57   2.0000      -0.437830       -11.9139
  58   2.0000      -0.433763       -11.8033
  59   2.0000      -0.429115       -11.6768
  60   2.0000      -0.416987       -11.3468
  61   2.0000      -0.410063       -11.1584
  62   2.0000      -0.406847       -11.0709
  63   2.0000      -0.351760        -9.5719
  64   2.0000      -0.331646        -9.0245
  65   2.0000      -0.325454        -8.8561
  66   2.0000      -0.289635        -7.8814
  67   0.0000       0.020501         0.5579
  68   0.0000       0.063364         1.7242
  69   0.0000       0.097593         2.6556
  70   0.0000       0.116494         3.1700
  71   0.0000       0.127332         3.4649

MULLIKEN ATOMIC CHARGES
-----------------------
   0 S :    0.080297
   1 C :   -0.104857
   2 C :   -0.101135
   3 C :    0.026786
   4 C :   -0.118993
   5 H :    0.007305
   6 C :    0.037694
   7 H :    0.011392
   8 H :    0.041141
   9 C :   -0.049086
  10 H :    0.014753
  11 H :    0.027507
  12 C :   -0.015108
  13 H :    0.042882
  14 H :    0.026731
  15 H :    0.020607
  16 S :    0.108788
  17 C :   -0.071204
  18 C :   -0.024240
  19 C :   -0.037686
  20 C :   -0.154549
  21 H :    0.038520
  22 C :    0.068435
  23 H :    0.025087
  24 H :    0.022119
  25 C :   -0.000769
  26 H :    0.004200
  27 H :   -0.013531
  28 C :   -0.048161
  29 H :    0.019504
  30 H :    0.012228
  31 H :    0.025860
  32 H :    0.040634
  33 H :    0.036852
Sum of atomic charges:    0.0000000

LOEWDIN ATOMIC CHARGES
----------------------
   0 S :    0.387078
   1 C :   -0.175409
   2 C :   -0.058128
   3 C :   -0.062506
   4 C :   -0.199907
   5 H :    0.021856
   6 C :   -0.038707
   7 H :    0.027295
   8 H :    0.038954
   9 C :   -0.040418
  10 H :    0.017262
  11 H :    0.029742
  12 C :   -0.057531
  13 H :    0.029071
  14 H :    0.023464
  15 H :    0.024184
  16 S :    0.373356
  17 C :   -0.155585
  18 C :   -0.069053
  19 C :   -0.050000
  20 C :   -0.184213
  21 H :    0.043718
  22 C :   -0.022939
  23 H :    0.031233
  24 H :    0.032959
  25 C :   -0.033204
  26 H :    0.016113
  27 H :    0.012638
  28 C :   -0.061414
  29 H :    0.016962
  30 H :    0.016788
  31 H :    0.027074
  32 H :    0.019465
  33 H :    0.019802

  Mayer bond orders larger than 0.100000
B(  0-S ,  1-C ) :   1.1159 B(  0-S ,  4-C ) :   1.1592 B(  1-C ,  2-C ) :   1.5735
B(  1-C , 32-H ) :   0.9799 B(  2-C ,  3-C ) :   1.2540 B(  2-C ,  6-C ) :   1.0255
B(  3-C ,  4-C ) :   1.5316 B(  3-C ,  5-H ) :   0.9925 B(  4-C , 20-C ) :   1.0641
B(  6-C ,  7-H ) :   0.9436 B(  6-C ,  8-H ) :   0.9360 B(  6-C ,  9-C ) :   1.0653
B(  9-C , 10-H ) :   0.9527 B(  9-C , 11-H ) :   0.9514 B(  9-C , 12-C ) :   1.0800
B( 12-C , 13-H ) :   0.9783 B( 12-C , 14-H ) :   0.9717 B( 12-C , 15-H ) :   0.9731
B( 16-S , 17-C ) :   1.1266 B( 16-S , 20-C ) :   1.1211 B( 17-C , 18-C ) :   1.6584
B( 17-C , 33-H ) :   0.9657 B( 18-C , 19-C ) :   1.2225 B( 18-C , 21-H ) :   0.9802
B( 19-C , 20-C ) :   1.5998 B( 19-C , 22-C ) :   1.0326 B( 22-C , 23-H ) :   0.9298
B( 22-C , 24-H ) :   0.9469 B( 22-C , 25-C ) :   1.0880 B( 25-C , 26-H ) :   0.9484
B( 25-C , 27-H ) :   0.9363 B( 25-C , 28-C ) :   1.0703 B( 28-C , 29-H ) :   0.9757
B( 28-C , 30-H ) :   0.9738 B( 28-C , 31-H ) :   0.9728

Dispersion correction           -0.015096584
FINAL SINGLE POINT ENERGY     -1339.843768163440

DIPOLE MOMENT
-------------
                                X             Y             Z
Electronic contribution:     15.98596       2.26961      21.04598
Nuclear contribution   :    -16.41093      -2.53572     -21.55035
                        -----------------------------------------
Total Dipole Moment    :     -0.42497      -0.26611      -0.50437
                        -----------------------------------------
Magnitude (a.u.)       :      0.71120
Magnitude (Debye)      :      1.80772

Rotational constants in cm-1:     0.017805     0.009446     0.007621
Rotational constants in MHz :   533.783020   283.186945   228.466830

                             ****ORCA TERMINATED NORMALLY****
TOTAL RUN TIME: 0 days 0 hours 0 minutes 23 seconds 554 msec
