                         Program Version 4.2.1 -  RELEASE  -
|  1> ! wB97X-D3 SP def2-SVP
|  2> %pal
|  3> nprocs 24
|  4> end
|  5>
|  6> * xyz 0 1
|  7> S 	 -103.106 	 -5.29858 	 -110.99
|  8> C 	 -103.911 	 -6.80016 	 -110.529
|  9> C 	 -104.015 	 -6.89903 	 -109.159
| 10> C 	 -103.135 	 -6.01202 	 -108.48
| 11> C 	 -102.511 	 -5.0571 	 -109.343
| 12> H 	 -103.109 	 -5.84046 	 -107.398
| 13> C 	 -104.922 	 -7.86829 	 -108.413
| 14> H 	 -105.858 	 -8.01942 	 -109.042
| 15> H 	 -105.302 	 -7.25516 	 -107.591
| 16> C 	 -104.336 	 -9.1838 	 -108.02
| 17> H 	 -103.429 	 -9.06957 	 -107.416
| 18> H 	 -105.007 	 -9.7642 	 -107.394
| 19> C 	 -104.07 	 -10.0529 	 -109.228
| 20> H 	 -104.869 	 -10.7747 	 -109.536
| 21> H 	 -103.886 	 -9.46527 	 -110.124
| 22> H 	 -103.199 	 -10.5704 	 -108.959
| 23> S 	 -101.05 	 -2.78755 	 -110.299
| 24> C 	 -100.107 	 -1.97043 	 -109.007
| 25> C 	 -99.9136 	 -2.70617 	 -107.91
| 26> C 	 -100.739 	 -3.90494 	 -107.912
| 27> C 	 -101.625 	 -3.95872 	 -109.006
| 28> H 	 -99.2673 	 -2.49196 	 -107.065
| 29> C 	 -100.689 	 -4.78673 	 -106.674
| 30> H 	 -99.6509 	 -4.77766 	 -106.266
| 31> H 	 -100.898 	 -5.8581 	 -107.03
| 32> C 	 -101.668 	 -4.51985 	 -105.541
| 33> H 	 -102.635 	 -4.27224 	 -105.852
| 34> H 	 -101.388 	 -3.63776 	 -105.029
| 35> C 	 -101.723 	 -5.58927 	 -104.538
| 36> H 	 -102.249 	 -5.32618 	 -103.66
| 37> H 	 -100.638 	 -5.75559 	 -104.31
| 38> H 	 -102.13 	 -6.5097 	 -104.93
| 39> H 	 -104.472 	 -7.42596 	 -111.22
| 40> H 	 -99.6188 	 -1.05091 	 -109.086
| 41> *
| 42>
| 43>                          ****END OF INPUT****

CARTESIAN COORDINATES (ANGSTROEM)
---------------------------------
  S    -103.106000   -5.298580  -110.990000
  C    -103.911000   -6.800160  -110.529000
  C    -104.015000   -6.899030  -109.159000
  C    -103.135000   -6.012020  -108.480000
  C    -102.511000   -5.057100  -109.343000
  H    -103.109000   -5.840460  -107.398000
  C    -104.922000   -7.868290  -108.413000
  H    -105.858000   -8.019420  -109.042000
  H    -105.302000   -7.255160  -107.591000
  C    -104.336000   -9.183800  -108.020000
  H    -103.429000   -9.069570  -107.416000
  H    -105.007000   -9.764200  -107.394000
  C    -104.070000  -10.052900  -109.228000
  H    -104.869000  -10.774700  -109.536000
  H    -103.886000   -9.465270  -110.124000
  H    -103.199000  -10.570400  -108.959000
  S    -101.050000   -2.787550  -110.299000
  C    -100.107000   -1.970430  -109.007000
  C    -99.913600   -2.706170  -107.910000
  C    -100.739000   -3.904940  -107.912000
  C    -101.625000   -3.958720  -109.006000
  H    -99.267300   -2.491960  -107.065000
  C    -100.689000   -4.786730  -106.674000
  H    -99.650900   -4.777660  -106.266000
  H    -100.898000   -5.858100  -107.030000
  C    -101.668000   -4.519850  -105.541000
  H    -102.635000   -4.272240  -105.852000
  H    -101.388000   -3.637760  -105.029000
  C    -101.723000   -5.589270  -104.538000
  H    -102.249000   -5.326180  -103.660000
  H    -100.638000   -5.755590  -104.310000
  H    -102.130000   -6.509700  -104.930000
  H    -104.472000   -7.425960  -111.220000
  H    -99.618800   -1.050910  -109.086000

 Total Charge           Charge          ....    0
 Multiplicity           Mult            ....    1
 Number of Electrons    NEL             ....  134
 Basis Dimension        Dim             ....  322

ORBITAL ENERGIES
----------------

  NO   OCC          E(Eh)            E(eV)
   0   2.0000     -88.968419     -2420.9538
   1   2.0000     -88.967465     -2420.9278
   2   2.0000     -10.338027      -281.3120
   3   2.0000     -10.337647      -281.3017
   4   2.0000     -10.316440      -280.7246
   5   2.0000     -10.314531      -280.6727
   6   2.0000     -10.310079      -280.5515
   7   2.0000     -10.302327      -280.3406
   8   2.0000     -10.301738      -280.3245
   9   2.0000     -10.298567      -280.2383
  10   2.0000     -10.295120      -280.1445
  11   2.0000     -10.294471      -280.1268
  12   2.0000     -10.283820      -279.8370
  13   2.0000     -10.276387      -279.6347
  14   2.0000     -10.275748      -279.6173
  15   2.0000     -10.270368      -279.4709
  16   2.0000      -8.081625      -219.9122
  17   2.0000      -8.081343      -219.9045
  18   2.0000      -6.040248      -164.3635
  19   2.0000      -6.040200      -164.3622
  20   2.0000      -6.036675      -164.2663
  21   2.0000      -6.036363      -164.2578
  22   2.0000      -6.032209      -164.1447
  23   2.0000      -6.031233      -164.1182
  24   2.0000      -0.999745       -27.2044
  25   2.0000      -0.978613       -26.6294
  26   2.0000      -0.921556       -25.0768
  27   2.0000      -0.917509       -24.9667
  28   2.0000      -0.871695       -23.7200
  29   2.0000      -0.856849       -23.3160
  30   2.0000      -0.844730       -22.9863
  31   2.0000      -0.812840       -22.1185
  32   2.0000      -0.784121       -21.3370
  33   2.0000      -0.772938       -21.0327
  34   2.0000      -0.713922       -19.4268
  35   2.0000      -0.700324       -19.0568
  36   2.0000      -0.696106       -18.9420
  37   2.0000      -0.663175       -18.0459
  38   2.0000      -0.636892       -17.3307
  39   2.0000      -0.617417       -16.8008
  40   2.0000      -0.601804       -16.3759
  41   2.0000      -0.575722       -15.6662
  42   2.0000      -0.568984       -15.4828
  43   2.0000      -0.556451       -15.1418
  44   2.0000      -0.542143       -14.7525
  45   2.0000      -0.532621       -14.4934
  46   2.0000      -0.520969       -14.1763
  47   2.0000      -0.513110       -13.9624
  48   2.0000      -0.501658       -13.6508
  49   2.0000      -0.498388       -13.5618
  50   2.0000      -0.486184       -13.2297
  51   2.0000      -0.482774       -13.1370
  52   2.0000      -0.475877       -12.9493
  53   2.0000      -0.465354       -12.6629
  54   2.0000      -0.459407       -12.5011
  55   2.0000      -0.450762       -12.2659
  56   2.0000      -0.442522       -12.0416
  57   2.0000      -0.440167       -11.9775
  58   2.0000      -0.432002       -11.7554
  59   2.0000      -0.426619       -11.6089
  60   2.0000      -0.418660       -11.3923
  61   2.0000      -0.417038       -11.3482
  62   2.0000      -0.407504       -11.0887
  63   2.0000      -0.364301        -9.9131
  64   2.0000      -0.334418        -9.1000
  65   2.0000      -0.328736        -8.9454
  66   2.0000      -0.277652        -7.5553
  67   0.0000       0.009710         0.2642
  68   0.0000       0.068860         1.8738
  69   0.0000       0.089800         2.4436
  70   0.0000       0.107424         2.9231
  71   0.0000       0.129141         3.5141

MULLIKEN ATOMIC CHARGES
-----------------------
   0 S :    0.096248
   1 C :   -0.118322
   2 C :   -0.101644
   3 C :    0.000538
   4 C :   -0.132988
   5 H :    0.007608
   6 C :    0.034346
   7 H :    0.031050
   8 H :    0.026176
   9 C :   -0.029488
  10 H :    0.028334
  11 H :    0.027834
  12 C :   -0.048215
  13 H :    0.039431
  14 H :    0.017844
  15 H :    0.022716
  16 S :    0.074496
  17 C :   -0.036104
  18 C :   -0.008233
  19 C :   -0.066149
  20 C :   -0.088551
  21 H :    0.022409
  22 C :   -0.021035
  23 H :    0.033839
  24 H :    0.039593
  25 C :   -0.011176
  26 H :    0.010891
  27 H :    0.002285
  28 C :   -0.015564
  29 H :    0.030230
  30 H :    0.021921
  31 H :    0.022248
  32 H :    0.055970
  33 H :    0.031461
Sum of atomic charges:   -0.0000000

LOEWDIN ATOMIC CHARGES
----------------------
   0 S :    0.390427
   1 C :   -0.198063
   2 C :   -0.061742
   3 C :   -0.077583
   4 C :   -0.173163
   5 H :    0.032289
   6 C :   -0.036632
   7 H :    0.036442
   8 H :    0.031633
   9 C :   -0.042365
  10 H :    0.025416
  11 H :    0.026993
  12 C :   -0.064682
  13 H :    0.030434
  14 H :    0.022025
  15 H :    0.023065
  16 S :    0.338159
  17 C :   -0.147340
  18 C :   -0.065288
  19 C :   -0.043247
  20 C :   -0.170238
  21 H :    0.035024
  22 C :   -0.039802
  23 H :    0.034391
  24 H :    0.036724
  25 C :   -0.044760
  26 H :    0.013830
  27 H :    0.021555
  28 C :   -0.053574
  29 H :    0.022958
  30 H :    0.030822
  31 H :    0.019096
  32 H :    0.027376
  33 H :    0.019822

  Mayer bond orders larger than 0.100000
B(  0-S ,  1-C ) :   1.1280 B(  0-S ,  4-C ) :   1.1502 B(  1-C ,  2-C ) :   1.6020
B(  1-C , 32-H ) :   0.9601 B(  2-C ,  3-C ) :   1.2648 B(  2-C ,  6-C ) :   1.0178
B(  3-C ,  4-C ) :   1.5208 B(  3-C ,  5-H ) :   0.9823 B(  4-C , 20-C ) :   1.1376
B(  6-C ,  7-H ) :   0.9440 B(  6-C ,  8-H ) :   0.9356 B(  6-C ,  9-C ) :   1.0807
B(  9-C , 10-H ) :   0.9612 B(  9-C , 11-H ) :   0.9497 B(  9-C , 12-C ) :   1.0626
B( 12-C , 13-H ) :   0.9749 B( 12-C , 14-H ) :   0.9778 B( 12-C , 15-H ) :   0.9728
B( 16-S , 17-C ) :   1.1094 B( 16-S , 20-C ) :   1.0855 B( 17-C , 18-C ) :   1.6711
B( 17-C , 33-H ) :   0.9669 B( 18-C , 19-C ) :   1.1952 B( 18-C , 21-H ) :   0.9887
B( 19-C , 20-C ) :   1.5984 B( 19-C , 22-C ) :   1.0592 B( 22-C , 23-H ) :   0.9303
B( 22-C , 24-H ) :   0.9283 B( 22-C , 25-C ) :   1.0617 B( 25-C , 26-H ) :   0.9453
B( 25-C , 27-H ) :   0.9372 B( 25-C , 28-C ) :   1.0958 B( 28-C , 29-H ) :   0.9694
B( 28-C , 30-H ) :   0.9696 B( 28-C , 31-H ) :   0.9720

Dispersion correction           -0.014426173
FINAL SINGLE POINT ENERGY     -1339.856565951500

DIPOLE MOMENT
-------------
                                X             Y             Z
Electronic contribution:      5.40964      20.71730     -22.67839
Nuclear contribution   :     -5.43134     -20.91933      23.49466
                        -----------------------------------------
Total Dipole Moment    :     -0.02170      -0.20203       0.81628
                        -----------------------------------------
Magnitude (a.u.)       :      0.84118
Magnitude (Debye)      :      2.13812

Rotational constants in cm-1:     0.018533     0.009433     0.006572
Rotational constants in MHz :   555.604890   282.799866   197.012704

                             ****ORCA TERMINATED NORMALLY****
TOTAL RUN TIME: 0 days 0 hours 0 minutes 22 seconds 275 msec
