                         Program Version 4.2.1 -  RELEASE  -
|  1> ! wB97X-D3 SP def2-SVP
|  2> %pal
|  3> nprocs 24
|  4> end
|  5>
|  6> * xyz 0 1
|  7> S 	 -71.5765 	 10.4099 	 -75.2927
|  8> C 	 -71.5874 	 11.4562 	 -76.7148
|  9> C 	 -71.0899 	 12.7406 	 -76.428
| 10> C 	 -70.5211 	 12.7807 	 -75.1234
| 11> C 	 -70.674 	 11.6335 	 -74.3424
| 12> H 	 -70.0102 	 13.6245 	 -74.6944
| 13> C 	 -70.9423 	 13.9171 	 -77.4354
| 14> H 	 -71.718 	 13.81 	 -78.1909
| 15> H 	 -69.9249 	 13.8213 	 -77.8679
| 16> C 	 -71.0575 	 15.3818 	 -76.7884
| 17> H 	 -70.2095 	 15.461 	 -76.0811
| 18> H 	 -70.9333 	 16.2025 	 -77.4882
| 19> C 	 -72.3288 	 15.5628 	 -75.9573
| 20> H 	 -72.5234 	 14.7876 	 -75.2933
| 21> H 	 -72.3246 	 16.3968 	 -75.2011
| 22> H 	 -73.1856 	 15.7517 	 -76.5853
| 23> S 	 -69.9428 	 9.76729 	 -72.4987
| 24> C 	 -69.4461 	 10.2754 	 -70.8646
| 25> C 	 -69.8827 	 11.5938 	 -70.6959
| 26> C 	 -70.3357 	 12.309 	 -71.8958
| 27> C 	 -70.2972 	 11.4356 	 -72.935
| 28> H 	 -69.6452 	 12.0936 	 -69.7975
| 29> C 	 -70.9289 	 13.6997 	 -71.8947
| 30> H 	 -71.8754 	 13.5769 	 -71.5048
| 31> H 	 -71.099 	 13.9137 	 -72.9481
| 32> C 	 -70.1192 	 14.8279 	 -71.2693
| 33> H 	 -69.2053 	 15.1105 	 -71.839
| 34> H 	 -69.7558 	 14.526 	 -70.2985
| 35> C 	 -70.7749 	 16.2574 	 -71.15
| 36> H 	 -70.9509 	 16.6419 	 -72.1473
| 37> H 	 -70.184 	 17.0068 	 -70.6658
| 38> H 	 -71.665 	 16.0797 	 -70.5776
| 39> H 	 -71.8681 	 11.1728 	 -77.7172
| 40> H 	 -69.0037 	 9.64594 	 -70.1539
| 41> *
| 42>
| 43>                          ****END OF INPUT****

CARTESIAN COORDINATES (ANGSTROEM)
---------------------------------
  S    -71.576500   10.409900  -75.292700
  C    -71.587400   11.456200  -76.714800
  C    -71.089900   12.740600  -76.428000
  C    -70.521100   12.780700  -75.123400
  C    -70.674000   11.633500  -74.342400
  H    -70.010200   13.624500  -74.694400
  C    -70.942300   13.917100  -77.435400
  H    -71.718000   13.810000  -78.190900
  H    -69.924900   13.821300  -77.867900
  C    -71.057500   15.381800  -76.788400
  H    -70.209500   15.461000  -76.081100
  H    -70.933300   16.202500  -77.488200
  C    -72.328800   15.562800  -75.957300
  H    -72.523400   14.787600  -75.293300
  H    -72.324600   16.396800  -75.201100
  H    -73.185600   15.751700  -76.585300
  S    -69.942800    9.767290  -72.498700
  C    -69.446100   10.275400  -70.864600
  C    -69.882700   11.593800  -70.695900
  C    -70.335700   12.309000  -71.895800
  C    -70.297200   11.435600  -72.935000
  H    -69.645200   12.093600  -69.797500
  C    -70.928900   13.699700  -71.894700
  H    -71.875400   13.576900  -71.504800
  H    -71.099000   13.913700  -72.948100
  C    -70.119200   14.827900  -71.269300
  H    -69.205300   15.110500  -71.839000
  H    -69.755800   14.526000  -70.298500
  C    -70.774900   16.257400  -71.150000
  H    -70.950900   16.641900  -72.147300
  H    -70.184000   17.006800  -70.665800
  H    -71.665000   16.079700  -70.577600
  H    -71.868100   11.172800  -77.717200
  H    -69.003700    9.645940  -70.153900

 Total Charge           Charge          ....    0
 Multiplicity           Mult            ....    1
 Number of Electrons    NEL             ....  134
 Basis Dimension        Dim             ....  322

ORBITAL ENERGIES
----------------

  NO   OCC          E(Eh)            E(eV)
   0   2.0000     -88.968964     -2420.9686
   1   2.0000     -88.964145     -2420.8375
   2   2.0000     -10.334479      -281.2155
   3   2.0000     -10.329309      -281.0748
   4   2.0000     -10.322502      -280.8896
   5   2.0000     -10.317367      -280.7498
   6   2.0000     -10.308273      -280.5024
   7   2.0000     -10.307400      -280.4786
   8   2.0000     -10.304833      -280.4088
   9   2.0000     -10.298286      -280.2306
  10   2.0000     -10.296811      -280.1905
  11   2.0000     -10.293995      -280.1138
  12   2.0000     -10.292351      -280.0691
  13   2.0000     -10.291429      -280.0440
  14   2.0000     -10.279747      -279.7261
  15   2.0000     -10.273273      -279.5500
  16   2.0000      -8.082369      -219.9324
  17   2.0000      -8.078597      -219.8298
  18   2.0000      -6.041039      -164.3850
  19   2.0000      -6.037266      -164.2824
  20   2.0000      -6.037068      -164.2770
  21   2.0000      -6.033300      -164.1744
  22   2.0000      -6.033043      -164.1674
  23   2.0000      -6.029043      -164.0586
  24   2.0000      -1.002829       -27.2884
  25   2.0000      -0.977074       -26.5875
  26   2.0000      -0.911246       -24.7963
  27   2.0000      -0.902294       -24.5527
  28   2.0000      -0.867510       -23.6061
  29   2.0000      -0.853178       -23.2162
  30   2.0000      -0.840268       -22.8649
  31   2.0000      -0.814287       -22.1579
  32   2.0000      -0.788828       -21.4651
  33   2.0000      -0.774863       -21.0851
  34   2.0000      -0.710184       -19.3251
  35   2.0000      -0.705251       -19.1909
  36   2.0000      -0.696981       -18.9658
  37   2.0000      -0.664518       -18.0825
  38   2.0000      -0.637680       -17.3522
  39   2.0000      -0.621839       -16.9211
  40   2.0000      -0.599377       -16.3099
  41   2.0000      -0.571776       -15.5588
  42   2.0000      -0.558024       -15.1846
  43   2.0000      -0.550023       -14.9669
  44   2.0000      -0.540135       -14.6978
  45   2.0000      -0.533358       -14.5134
  46   2.0000      -0.523235       -14.2379
  47   2.0000      -0.516563       -14.0564
  48   2.0000      -0.505735       -13.7617
  49   2.0000      -0.498184       -13.5563
  50   2.0000      -0.492596       -13.4042
  51   2.0000      -0.480235       -13.0679
  52   2.0000      -0.471562       -12.8319
  53   2.0000      -0.468882       -12.7589
  54   2.0000      -0.464039       -12.6271
  55   2.0000      -0.451427       -12.2840
  56   2.0000      -0.445971       -12.1355
  57   2.0000      -0.437576       -11.9070
  58   2.0000      -0.433698       -11.8015
  59   2.0000      -0.423008       -11.5106
  60   2.0000      -0.419423       -11.4131
  61   2.0000      -0.412815       -11.2333
  62   2.0000      -0.411360       -11.1937
  63   2.0000      -0.353308        -9.6140
  64   2.0000      -0.333035        -9.0623
  65   2.0000      -0.328489        -8.9386
  66   2.0000      -0.286915        -7.8073
  67   0.0000       0.021174         0.5762
  68   0.0000       0.070562         1.9201
  69   0.0000       0.096878         2.6362
  70   0.0000       0.114347         3.1115
  71   0.0000       0.121868         3.3162

MULLIKEN ATOMIC CHARGES
-----------------------
   0 S :    0.105170
   1 C :   -0.117106
   2 C :   -0.106982
   3 C :   -0.001306
   4 C :   -0.129437
   5 H :    0.013195
   6 C :    0.073047
   7 H :    0.029964
   8 H :    0.059657
   9 C :   -0.088335
  10 H :    0.027507
  11 H :    0.038853
  12 C :   -0.053944
  13 H :    0.029192
  14 H :    0.026884
  15 H :    0.031972
  16 S :    0.085359
  17 C :   -0.075714
  18 C :   -0.013534
  19 C :   -0.070868
  20 C :   -0.140044
  21 H :    0.009267
  22 C :    0.160167
  23 H :    0.022111
  24 H :   -0.008547
  25 C :   -0.109452
  26 H :    0.031073
  27 H :    0.024050
  28 C :   -0.037896
  29 H :    0.030980
  30 H :    0.034830
  31 H :    0.029251
  32 H :    0.044154
  33 H :    0.046480
Sum of atomic charges:   -0.0000000

LOEWDIN ATOMIC CHARGES
----------------------
   0 S :    0.382248
   1 C :   -0.194738
   2 C :   -0.062687
   3 C :   -0.071805
   4 C :   -0.175980
   5 H :    0.026314
   6 C :   -0.024922
   7 H :    0.026972
   8 H :    0.040862
   9 C :   -0.040262
  10 H :    0.022183
  11 H :    0.026715
  12 C :   -0.071020
  13 H :    0.016488
  14 H :    0.031431
  15 H :    0.024360
  16 S :    0.378296
  17 C :   -0.160450
  18 C :   -0.059059
  19 C :   -0.049393
  20 C :   -0.185534
  21 H :    0.019125
  22 C :   -0.024199
  23 H :    0.029126
  24 H :    0.031708
  25 C :   -0.041392
  26 H :    0.028362
  27 H :    0.016567
  28 C :   -0.058104
  29 H :    0.023480
  30 H :    0.025554
  31 H :    0.021085
  32 H :    0.027257
  33 H :    0.021411

  Mayer bond orders larger than 0.100000
B(  0-S ,  1-C ) :   1.1370 B(  0-S ,  4-C ) :   1.1344 B(  1-C ,  2-C ) :   1.6092
B(  1-C ,  4-C ) :   0.1046 B(  1-C , 32-H ) :   0.9686 B(  2-C ,  3-C ) :   1.2460
B(  2-C ,  6-C ) :   1.0050 B(  3-C ,  4-C ) :   1.5852 B(  3-C ,  5-H ) :   0.9853
B(  4-C , 20-C ) :   1.0480 B(  6-C ,  7-H ) :   0.9479 B(  6-C ,  8-H ) :   0.9449
B(  6-C ,  9-C ) :   1.0587 B(  9-C , 10-H ) :   0.9546 B(  9-C , 11-H ) :   0.9610
B(  9-C , 12-C ) :   1.0753 B( 12-C , 13-H ) :   0.9704 B( 12-C , 14-H ) :   0.9729
B( 12-C , 15-H ) :   0.9758 B( 16-S , 17-C ) :   1.1274 B( 16-S , 20-C ) :   1.1262
B( 17-C , 18-C ) :   1.6355 B( 17-C , 33-H ) :   0.9813 B( 18-C , 19-C ) :   1.1915
B( 18-C , 21-H ) :   0.9851 B( 19-C , 20-C ) :   1.6311 B( 19-C , 22-C ) :   1.0347
B( 22-C , 23-H ) :   0.9208 B( 22-C , 24-H ) :   0.9190 B( 22-C , 25-C ) :   1.0505
B( 25-C , 26-H ) :   0.9585 B( 25-C , 27-H ) :   0.9617 B( 25-C , 28-C ) :   1.0782
B( 28-C , 29-H ) :   0.9778 B( 28-C , 30-H ) :   0.9757 B( 28-C , 31-H ) :   0.9780

Dispersion correction           -0.014813523
FINAL SINGLE POINT ENERGY     -1339.865109024031

DIPOLE MOMENT
-------------
                                X             Y             Z
Electronic contribution:      2.68246     -32.74379       0.04358
Nuclear contribution   :     -2.62037      33.50697       0.08862
                        -----------------------------------------
Total Dipole Moment    :      0.06209       0.76319       0.13219
                        -----------------------------------------
Magnitude (a.u.)       :      0.77703
Magnitude (Debye)      :      1.97506

Rotational constants in cm-1:     0.015445     0.011070     0.006785
Rotational constants in MHz :   463.026119   331.880976   203.399076

                             ****ORCA TERMINATED NORMALLY****
TOTAL RUN TIME: 0 days 0 hours 0 minutes 21 seconds 224 msec
