                         Program Version 4.2.1 -  RELEASE  -
|  1> ! wB97X-D3 SP def2-SVP
|  2> %pal
|  3> nprocs 24
|  4> end
|  5>
|  6> * xyz 0 1
|  7> S 	 -38.5187 	 10.5076 	 -8.1526
|  8> C 	 -38.428 	 9.01542 	 -8.83698
|  9> C 	 -39.1571 	 8.09114 	 -8.13172
| 10> C 	 -39.7075 	 8.61394 	 -6.94788
| 11> C 	 -39.5088 	 9.93493 	 -6.75887
| 12> H 	 -40.3177 	 8.16673 	 -6.20484
| 13> C 	 -39.1306 	 6.67987 	 -8.46417
| 14> H 	 -38.3054 	 6.07273 	 -8.1375
| 15> H 	 -38.9262 	 6.68738 	 -9.60093
| 16> C 	 -40.4646 	 5.84359 	 -8.32054
| 17> H 	 -40.7851 	 5.63281 	 -7.28312
| 18> H 	 -41.317 	 6.38289 	 -8.63535
| 19> C 	 -40.5434 	 4.49777 	 -9.08585
| 20> H 	 -39.7928 	 3.7802 	 -8.71859
| 21> H 	 -41.4677 	 3.94759 	 -9.0004
| 22> H 	 -40.378 	 4.73178 	 -10.1095
| 23> S 	 -41.3697 	 11.891 	 -6.47041
| 24> C 	 -41.913 	 12.303 	 -4.91714
| 25> C 	 -41.3238 	 11.6221 	 -3.86546
| 26> C 	 -40.3971 	 10.6572 	 -4.37546
| 27> C 	 -40.2486 	 10.7763 	 -5.79739
| 28> H 	 -41.6412 	 11.777 	 -2.80241
| 29> C 	 -39.6591 	 9.67591 	 -3.49837
| 30> H 	 -39.4178 	 8.91975 	 -4.27291
| 31> H 	 -40.3364 	 9.27331 	 -2.73734
| 32> C 	 -38.3392 	 10.3605 	 -2.98368
| 33> H 	 -38.011 	 9.83091 	 -2.11985
| 34> H 	 -38.524 	 11.2698 	 -2.55061
| 35> C 	 -37.1719 	 10.3739 	 -3.97219
| 36> H 	 -37.018 	 9.3446 	 -4.36539
| 37> H 	 -36.2774 	 10.7539 	 -3.50388
| 38> H 	 -37.4495 	 10.9476 	 -4.84038
| 39> H 	 -37.74 	 8.7154 	 -9.64991
| 40> H 	 -42.5812 	 13.0936 	 -4.70832
| 41> *
| 42>
| 43>                          ****END OF INPUT****

CARTESIAN COORDINATES (ANGSTROEM)
---------------------------------
  S    -38.518700   10.507600   -8.152600
  C    -38.428000    9.015420   -8.836980
  C    -39.157100    8.091140   -8.131720
  C    -39.707500    8.613940   -6.947880
  C    -39.508800    9.934930   -6.758870
  H    -40.317700    8.166730   -6.204840
  C    -39.130600    6.679870   -8.464170
  H    -38.305400    6.072730   -8.137500
  H    -38.926200    6.687380   -9.600930
  C    -40.464600    5.843590   -8.320540
  H    -40.785100    5.632810   -7.283120
  H    -41.317000    6.382890   -8.635350
  C    -40.543400    4.497770   -9.085850
  H    -39.792800    3.780200   -8.718590
  H    -41.467700    3.947590   -9.000400
  H    -40.378000    4.731780  -10.109500
  S    -41.369700   11.891000   -6.470410
  C    -41.913000   12.303000   -4.917140
  C    -41.323800   11.622100   -3.865460
  C    -40.397100   10.657200   -4.375460
  C    -40.248600   10.776300   -5.797390
  H    -41.641200   11.777000   -2.802410
  C    -39.659100    9.675910   -3.498370
  H    -39.417800    8.919750   -4.272910
  H    -40.336400    9.273310   -2.737340
  C    -38.339200   10.360500   -2.983680
  H    -38.011000    9.830910   -2.119850
  H    -38.524000   11.269800   -2.550610
  C    -37.171900   10.373900   -3.972190
  H    -37.018000    9.344600   -4.365390
  H    -36.277400   10.753900   -3.503880
  H    -37.449500   10.947600   -4.840380
  H    -37.740000    8.715400   -9.649910
  H    -42.581200   13.093600   -4.708320

 Total Charge           Charge          ....    0
 Multiplicity           Mult            ....    1
 Number of Electrons    NEL             ....  134
 Basis Dimension        Dim             ....  322

ORBITAL ENERGIES
----------------

  NO   OCC          E(Eh)            E(eV)
   0   2.0000     -88.968198     -2420.9478
   1   2.0000     -88.964877     -2420.8574
   2   2.0000     -10.327333      -281.0210
   3   2.0000     -10.325612      -280.9742
   4   2.0000     -10.310345      -280.5587
   5   2.0000     -10.308203      -280.5005
   6   2.0000     -10.305494      -280.4267
   7   2.0000     -10.295182      -280.1462
   8   2.0000     -10.294994      -280.1410
   9   2.0000     -10.293770      -280.1077
  10   2.0000     -10.293514      -280.1007
  11   2.0000     -10.286073      -279.8983
  12   2.0000     -10.285828      -279.8916
  13   2.0000     -10.275754      -279.6175
  14   2.0000     -10.274721      -279.5894
  15   2.0000     -10.270360      -279.4707
  16   2.0000      -8.084186      -219.9819
  17   2.0000      -8.080897      -219.8924
  18   2.0000      -6.042444      -164.4233
  19   2.0000      -6.039177      -164.3343
  20   2.0000      -6.038493      -164.3157
  21   2.0000      -6.035182      -164.2257
  22   2.0000      -6.035094      -164.2232
  23   2.0000      -6.031913      -164.1367
  24   2.0000      -1.015825       -27.6420
  25   2.0000      -0.994719       -27.0677
  26   2.0000      -0.908045       -24.7092
  27   2.0000      -0.907048       -24.6820
  28   2.0000      -0.876792       -23.8587
  29   2.0000      -0.855102       -23.2685
  30   2.0000      -0.848990       -23.1022
  31   2.0000      -0.819600       -22.3025
  32   2.0000      -0.779761       -21.2184
  33   2.0000      -0.763705       -20.7815
  34   2.0000      -0.711928       -19.3726
  35   2.0000      -0.704026       -19.1575
  36   2.0000      -0.690739       -18.7960
  37   2.0000      -0.658426       -17.9167
  38   2.0000      -0.648528       -17.6473
  39   2.0000      -0.623499       -16.9663
  40   2.0000      -0.591949       -16.1078
  41   2.0000      -0.574422       -15.6308
  42   2.0000      -0.557981       -15.1834
  43   2.0000      -0.554063       -15.0768
  44   2.0000      -0.535967       -14.5844
  45   2.0000      -0.521953       -14.2031
  46   2.0000      -0.516180       -14.0460
  47   2.0000      -0.509523       -13.8648
  48   2.0000      -0.506228       -13.7752
  49   2.0000      -0.501768       -13.6538
  50   2.0000      -0.492878       -13.4119
  51   2.0000      -0.482525       -13.1302
  52   2.0000      -0.467339       -12.7169
  53   2.0000      -0.461570       -12.5600
  54   2.0000      -0.457715       -12.4551
  55   2.0000      -0.454162       -12.3584
  56   2.0000      -0.449059       -12.2195
  57   2.0000      -0.438143       -11.9225
  58   2.0000      -0.430396       -11.7117
  59   2.0000      -0.426881       -11.6160
  60   2.0000      -0.419794       -11.4232
  61   2.0000      -0.411701       -11.2030
  62   2.0000      -0.408674       -11.1206
  63   2.0000      -0.355828        -9.6826
  64   2.0000      -0.331501        -9.0206
  65   2.0000      -0.322143        -8.7659
  66   2.0000      -0.291073        -7.9205
  67   0.0000       0.038056         1.0356
  68   0.0000       0.065036         1.7697
  69   0.0000       0.114910         3.1269
  70   0.0000       0.125934         3.4268
  71   0.0000       0.136548         3.7157

MULLIKEN ATOMIC CHARGES
-----------------------
   0 S :    0.117507
   1 C :   -0.109503
   2 C :   -0.058921
   3 C :    0.068126
   4 C :   -0.194290
   5 H :    0.009151
   6 C :    0.028844
   7 H :    0.041714
   8 H :    0.018595
   9 C :   -0.079028
  10 H :    0.023853
  11 H :    0.015370
  12 C :   -0.051161
  13 H :    0.029417
  14 H :    0.032982
  15 H :    0.025994
  16 S :    0.141042
  17 C :   -0.075460
  18 C :   -0.050982
  19 C :   -0.082601
  20 C :   -0.171812
  21 H :    0.037178
  22 C :    0.073672
  23 H :    0.012577
  24 H :    0.037050
  25 C :   -0.015218
  26 H :    0.006804
  27 H :   -0.000950
  28 C :   -0.031522
  29 H :    0.031195
  30 H :    0.036936
  31 H :    0.031021
  32 H :    0.065196
  33 H :    0.037225
Sum of atomic charges:    0.0000000

LOEWDIN ATOMIC CHARGES
----------------------
   0 S :    0.426922
   1 C :   -0.221855
   2 C :   -0.082772
   3 C :   -0.053021
   4 C :   -0.190352
   5 H :    0.028928
   6 C :   -0.037524
   7 H :    0.029863
   8 H :    0.038243
   9 C :   -0.044407
  10 H :    0.021262
  11 H :    0.018616
  12 C :   -0.063000
  13 H :    0.024807
  14 H :    0.027190
  15 H :    0.018917
  16 S :    0.454002
  17 C :   -0.198973
  18 C :   -0.079188
  19 C :   -0.050235
  20 C :   -0.225106
  21 H :    0.042092
  22 C :   -0.031042
  23 H :    0.032941
  24 H :    0.033759
  25 C :   -0.029679
  26 H :    0.018349
  27 H :    0.010606
  28 C :   -0.057036
  29 H :    0.029635
  30 H :    0.026160
  31 H :    0.021230
  32 H :    0.042002
  33 H :    0.018664

  Mayer bond orders larger than 0.100000
B(  0-S ,  1-C ) :   1.1765 B(  0-S ,  4-C ) :   1.1397 B(  1-C ,  2-C ) :   1.5764
B(  1-C , 32-H ) :   0.9609 B(  2-C ,  3-C ) :   1.2498 B(  2-C ,  6-C ) :   1.0384
B(  3-C ,  4-C ) :   1.5796 B(  3-C ,  5-H ) :   0.9929 B(  4-C , 20-C ) :   1.0133
B(  6-C ,  7-H ) :   0.9405 B(  6-C ,  8-H ) :   0.9396 B(  6-C ,  9-C ) :   1.0441
B(  9-C , 10-H ) :   0.9524 B(  9-C , 11-H ) :   0.9596 B(  9-C , 12-C ) :   1.0885
B( 12-C , 13-H ) :   0.9762 B( 12-C , 14-H ) :   0.9741 B( 12-C , 15-H ) :   0.9775
B( 16-S , 17-C ) :   1.1840 B( 16-S , 20-C ) :   1.1708 B( 17-C , 18-C ) :   1.5905
B( 17-C , 33-H ) :   0.9667 B( 18-C , 19-C ) :   1.2697 B( 18-C , 21-H ) :   0.9838
B( 19-C , 20-C ) :   1.5570 B( 19-C , 22-C ) :   1.0330 B( 22-C , 23-H ) :   0.9318
B( 22-C , 24-H ) :   0.9379 B( 22-C , 25-C ) :   1.0600 B( 25-C , 26-H ) :   0.9510
B( 25-C , 27-H ) :   0.9551 B( 25-C , 28-C ) :   1.0806 B( 28-C , 29-H ) :   0.9733
B( 28-C , 30-H ) :   0.9722 B( 28-C , 31-H ) :   0.9735

Dispersion correction           -0.014829795
FINAL SINGLE POINT ENERGY     -1339.860018371463

DIPOLE MOMENT
-------------
                                X             Y             Z
Electronic contribution:     -5.04806      22.17070      -5.92624
Nuclear contribution   :      4.97669     -22.60870       6.22565
                        -----------------------------------------
Total Dipole Moment    :     -0.07137      -0.43801       0.29941
                        -----------------------------------------
Magnitude (a.u.)       :      0.53534
Magnitude (Debye)      :      1.36073

Rotational constants in cm-1:     0.019206     0.007990     0.007618
Rotational constants in MHz :   575.767978   239.538859   228.391211

                             ****ORCA TERMINATED NORMALLY****
TOTAL RUN TIME: 0 days 0 hours 0 minutes 22 seconds 67 msec
