                         Program Version 4.2.1 -  RELEASE  -
|  1> ! wB97X-D3 SP def2-SVP
|  2> %pal
|  3> nprocs 24
|  4> end
|  5>
|  6> * xyz 0 1
|  7> S 	 47.399 	 -12.7165 	 -110.673
|  8> C 	 48.4972 	 -12.133 	 -111.831
|  9> C 	 49.2159 	 -11.0771 	 -111.331
| 10> C 	 48.8063 	 -10.6879 	 -109.971
| 11> C 	 47.6989 	 -11.407 	 -109.534
| 12> H 	 49.2213 	 -9.83755 	 -109.427
| 13> C 	 50.1768 	 -10.2198 	 -112.135
| 14> H 	 50.8304 	 -10.8629 	 -112.723
| 15> H 	 50.8126 	 -9.67364 	 -111.429
| 16> C 	 49.615 	 -9.11289 	 -113.019
| 17> H 	 49.0451 	 -9.61369 	 -113.827
| 18> H 	 48.7448 	 -8.49758 	 -112.594
| 19> C 	 50.5675 	 -8.0836 	 -113.631
| 20> H 	 50.1682 	 -7.46286 	 -114.462
| 21> H 	 50.8338 	 -7.31508 	 -112.875
| 22> H 	 51.425 	 -8.57559 	 -114.061
| 23> S 	 45.161 	 -11.5393 	 -108.42
| 24> C 	 44.874 	 -11.1822 	 -106.76
| 25> C 	 45.965 	 -10.4905 	 -106.195
| 26> C 	 47.1295 	 -10.5457 	 -107.068
| 27> C 	 46.8918 	 -11.1214 	 -108.341
| 28> H 	 45.9658 	 -10.0952 	 -105.127
| 29> C 	 48.4537 	 -9.9552 	 -106.612
| 30> H 	 49.2599 	 -10.4047 	 -107.232
| 31> H 	 48.5876 	 -10.2894 	 -105.601
| 32> C 	 48.5357 	 -8.42118 	 -106.631
| 33> H 	 49.5193 	 -8.05579 	 -106.324
| 34> H 	 47.9745 	 -8.03414 	 -105.727
| 35> C 	 48.0675 	 -7.7201 	 -107.873
| 36> H 	 48.8444 	 -7.8244 	 -108.67
| 37> H 	 48.099 	 -6.69271 	 -107.695
| 38> H 	 47.0658 	 -7.89615 	 -108.147
| 39> H 	 48.8159 	 -12.6291 	 -112.67
| 40> H 	 43.9296 	 -11.244 	 -106.31
| 41> *
| 42>
| 43>                          ****END OF INPUT****

CARTESIAN COORDINATES (ANGSTROEM)
---------------------------------
  S     47.399000  -12.716500  -110.673000
  C     48.497200  -12.133000  -111.831000
  C     49.215900  -11.077100  -111.331000
  C     48.806300  -10.687900  -109.971000
  C     47.698900  -11.407000  -109.534000
  H     49.221300   -9.837550  -109.427000
  C     50.176800  -10.219800  -112.135000
  H     50.830400  -10.862900  -112.723000
  H     50.812600   -9.673640  -111.429000
  C     49.615000   -9.112890  -113.019000
  H     49.045100   -9.613690  -113.827000
  H     48.744800   -8.497580  -112.594000
  C     50.567500   -8.083600  -113.631000
  H     50.168200   -7.462860  -114.462000
  H     50.833800   -7.315080  -112.875000
  H     51.425000   -8.575590  -114.061000
  S     45.161000  -11.539300  -108.420000
  C     44.874000  -11.182200  -106.760000
  C     45.965000  -10.490500  -106.195000
  C     47.129500  -10.545700  -107.068000
  C     46.891800  -11.121400  -108.341000
  H     45.965800  -10.095200  -105.127000
  C     48.453700   -9.955200  -106.612000
  H     49.259900  -10.404700  -107.232000
  H     48.587600  -10.289400  -105.601000
  C     48.535700   -8.421180  -106.631000
  H     49.519300   -8.055790  -106.324000
  H     47.974500   -8.034140  -105.727000
  C     48.067500   -7.720100  -107.873000
  H     48.844400   -7.824400  -108.670000
  H     48.099000   -6.692710  -107.695000
  H     47.065800   -7.896150  -108.147000
  H     48.815900  -12.629100  -112.670000
  H     43.929600  -11.244000  -106.310000

 Total Charge           Charge          ....    0
 Multiplicity           Mult            ....    1
 Number of Electrons    NEL             ....  134
 Basis Dimension        Dim             ....  322

ORBITAL ENERGIES
----------------

  NO   OCC          E(Eh)            E(eV)
   0   2.0000     -88.967582     -2420.9310
   1   2.0000     -88.965168     -2420.8653
   2   2.0000     -10.337221      -281.2901
   3   2.0000     -10.335908      -281.2544
   4   2.0000     -10.318397      -280.7779
   5   2.0000     -10.310620      -280.5662
   6   2.0000     -10.306117      -280.4437
   7   2.0000     -10.306030      -280.4413
   8   2.0000     -10.303837      -280.3817
   9   2.0000     -10.299267      -280.2573
  10   2.0000     -10.294498      -280.1275
  11   2.0000     -10.291196      -280.0377
  12   2.0000     -10.290885      -280.0292
  13   2.0000     -10.289892      -280.0022
  14   2.0000     -10.282531      -279.8019
  15   2.0000     -10.269940      -279.4593
  16   2.0000      -8.082851      -219.9455
  17   2.0000      -8.079920      -219.8658
  18   2.0000      -6.041454      -164.3963
  19   2.0000      -6.038418      -164.3137
  20   2.0000      -6.037195      -164.2804
  21   2.0000      -6.034365      -164.2034
  22   2.0000      -6.033532      -164.1808
  23   2.0000      -6.030745      -164.1049
  24   2.0000      -1.005625       -27.3645
  25   2.0000      -0.983482       -26.7619
  26   2.0000      -0.910965       -24.7886
  27   2.0000      -0.908499       -24.7215
  28   2.0000      -0.871284       -23.7088
  29   2.0000      -0.851172       -23.1616
  30   2.0000      -0.845318       -23.0023
  31   2.0000      -0.815097       -22.1799
  32   2.0000      -0.785360       -21.3707
  33   2.0000      -0.775955       -21.1148
  34   2.0000      -0.708852       -19.2888
  35   2.0000      -0.697786       -18.9877
  36   2.0000      -0.692774       -18.8513
  37   2.0000      -0.660592       -17.9756
  38   2.0000      -0.643459       -17.5094
  39   2.0000      -0.618288       -16.8245
  40   2.0000      -0.589098       -16.0302
  41   2.0000      -0.570536       -15.5251
  42   2.0000      -0.560101       -15.2411
  43   2.0000      -0.554592       -15.0912
  44   2.0000      -0.550196       -14.9716
  45   2.0000      -0.523969       -14.2579
  46   2.0000      -0.519702       -14.1418
  47   2.0000      -0.512202       -13.9377
  48   2.0000      -0.510280       -13.8854
  49   2.0000      -0.503136       -13.6910
  50   2.0000      -0.489660       -13.3243
  51   2.0000      -0.481512       -13.1026
  52   2.0000      -0.471554       -12.8316
  53   2.0000      -0.463773       -12.6199
  54   2.0000      -0.460348       -12.5267
  55   2.0000      -0.454942       -12.3796
  56   2.0000      -0.447624       -12.1805
  57   2.0000      -0.439664       -11.9639
  58   2.0000      -0.433697       -11.8015
  59   2.0000      -0.418653       -11.3921
  60   2.0000      -0.414939       -11.2911
  61   2.0000      -0.404449       -11.0056
  62   2.0000      -0.401619       -10.9286
  63   2.0000      -0.361787        -9.8447
  64   2.0000      -0.328280        -8.9329
  65   2.0000      -0.326954        -8.8969
  66   2.0000      -0.286627        -7.7995
  67   0.0000       0.020318         0.5529
  68   0.0000       0.078028         2.1232
  69   0.0000       0.106696         2.9033
  70   0.0000       0.111324         3.0293
  71   0.0000       0.132374         3.6021

MULLIKEN ATOMIC CHARGES
-----------------------
   0 S :    0.122595
   1 C :   -0.069632
   2 C :   -0.110196
   3 C :    0.024850
   4 C :   -0.119604
   5 H :   -0.001308
   6 C :    0.084451
   7 H :    0.024207
   8 H :    0.012678
   9 C :   -0.096327
  10 H :    0.018002
  11 H :    0.035933
  12 C :   -0.059404
  13 H :    0.038143
  14 H :    0.038383
  15 H :    0.028653
  16 S :    0.096479
  17 C :   -0.070886
  18 C :   -0.057935
  19 C :   -0.089000
  20 C :   -0.136421
  21 H :    0.051306
  22 C :    0.080577
  23 H :    0.034525
  24 H :    0.019700
  25 C :   -0.096878
  26 H :    0.021201
  27 H :    0.018059
  28 C :    0.002046
  29 H :    0.033770
  30 H :    0.007678
  31 H :    0.044350
  32 H :    0.021916
  33 H :    0.048091
Sum of atomic charges:    0.0000000

LOEWDIN ATOMIC CHARGES
----------------------
   0 S :    0.423893
   1 C :   -0.200252
   2 C :   -0.059307
   3 C :   -0.060006
   4 C :   -0.189211
   5 H :    0.027069
   6 C :   -0.034336
   7 H :    0.029569
   8 H :    0.028107
   9 C :   -0.056500
  10 H :    0.021000
  11 H :    0.032955
  12 C :   -0.072372
  13 H :    0.033987
  14 H :    0.028300
  15 H :    0.020923
  16 S :    0.406458
  17 C :   -0.184472
  18 C :   -0.079873
  19 C :   -0.055850
  20 C :   -0.188938
  21 H :    0.044969
  22 C :   -0.035262
  23 H :    0.032091
  24 H :    0.029791
  25 C :   -0.046531
  26 H :    0.024922
  27 H :    0.025177
  28 C :   -0.060890
  29 H :    0.029493
  30 H :    0.022654
  31 H :    0.025932
  32 H :    0.016573
  33 H :    0.019935

  Mayer bond orders larger than 0.100000
B(  0-S ,  1-C ) :   1.1372 B(  0-S ,  4-C ) :   1.1508 B(  1-C ,  2-C ) :   1.6085
B(  1-C , 32-H ) :   0.9756 B(  2-C ,  3-C ) :   1.2431 B(  2-C ,  6-C ) :   1.0446
B(  3-C ,  4-C ) :   1.5489 B(  3-C ,  5-H ) :   0.9865 B(  4-C , 20-C ) :   1.0802
B(  6-C ,  7-H ) :   0.9335 B(  6-C ,  8-H ) :   0.9405 B(  6-C ,  9-C ) :   1.0529
B(  9-C , 10-H ) :   0.9511 B(  9-C , 11-H ) :   0.9568 B(  9-C , 12-C ) :   1.0808
B( 12-C , 13-H ) :   0.9727 B( 12-C , 14-H ) :   0.9748 B( 12-C , 15-H ) :   0.9756
B( 16-S , 17-C ) :   1.1757 B( 16-S , 20-C ) :   1.1344 B( 17-C , 18-C ) :   1.5756
B( 17-C , 20-C ) :   0.1006 B( 17-C , 33-H ) :   0.9736 B( 18-C , 19-C ) :   1.2572
B( 18-C , 21-H ) :   0.9769 B( 19-C , 20-C ) :   1.5599 B( 19-C , 22-C ) :   1.0484
B( 22-C , 23-H ) :   0.9344 B( 22-C , 24-H ) :   0.9289 B( 22-C , 25-C ) :   1.0723
B( 25-C , 26-H ) :   0.9526 B( 25-C , 27-H ) :   0.9505 B( 25-C , 28-C ) :   1.0950
B( 28-C , 29-H ) :   0.9647 B( 28-C , 30-H ) :   0.9597 B( 28-C , 31-H ) :   0.9688

Dispersion correction           -0.014767796
FINAL SINGLE POINT ENERGY     -1339.871471950034

DIPOLE MOMENT
-------------
                                X             Y             Z
Electronic contribution:    -18.30054     -23.48417       5.00112
Nuclear contribution   :     18.67854      24.08687      -4.86178
                        -----------------------------------------
Total Dipole Moment    :      0.37800       0.60270       0.13934
                        -----------------------------------------
Magnitude (a.u.)       :      0.72495
Magnitude (Debye)      :      1.84267

Rotational constants in cm-1:     0.019432     0.008834     0.006740
Rotational constants in MHz :   582.543905   264.829914   202.047025

                             ****ORCA TERMINATED NORMALLY****
TOTAL RUN TIME: 0 days 0 hours 0 minutes 21 seconds 958 msec
