                         Program Version 4.2.1 -  RELEASE  -
|  1> ! wB97X-D3 SP def2-SVP
|  2> %pal
|  3> nprocs 24
|  4> end
|  5>
|  6> * xyz 0 1
|  7> S 	 -106.197 	 53.0489 	 -110.965
|  8> C 	 -105.766 	 54.689 	 -111.016
|  9> C 	 -106.517 	 55.4884 	 -110.242
| 10> C 	 -107.672 	 54.7462 	 -109.834
| 11> C 	 -107.669 	 53.4313 	 -110.13
| 12> H 	 -108.455 	 55.1476 	 -109.152
| 13> C 	 -106.422 	 57 	 -110.059
| 14> H 	 -107.37 	 57.501 	 -109.749
| 15> H 	 -106.357 	 57.3786 	 -111.075
| 16> C 	 -105.193 	 57.5098 	 -109.33
| 17> H 	 -104.351 	 57.075 	 -109.942
| 18> H 	 -105.133 	 58.6277 	 -109.444
| 19> C 	 -105.212 	 57.3072 	 -107.788
| 20> H 	 -104.422 	 57.8496 	 -107.302
| 21> H 	 -106.208 	 57.4596 	 -107.419
| 22> H 	 -105.073 	 56.2748 	 -107.698
| 23> S 	 -107.911 	 50.7531 	 -109.344
| 24> C 	 -109.283 	 50.1201 	 -108.493
| 25> C 	 -110.235 	 51.1745 	 -108.448
| 26> C 	 -109.815 	 52.4394 	 -108.982
| 27> C 	 -108.521 	 52.4328 	 -109.491
| 28> H 	 -111.273 	 50.8246 	 -108.153
| 29> C 	 -110.739 	 53.6498 	 -108.89
| 30> H 	 -110.629 	 54.2787 	 -109.822
| 31> H 	 -110.571 	 54.1465 	 -107.93
| 32> C 	 -112.234 	 53.3289 	 -108.828
| 33> H 	 -112.59 	 52.8161 	 -107.945
| 34> H 	 -112.486 	 52.6073 	 -109.632
| 35> C 	 -113.144 	 54.4953 	 -109.225
| 36> H 	 -112.929 	 54.8467 	 -110.233
| 37> H 	 -113.047 	 55.4145 	 -108.57
| 38> H 	 -114.286 	 54.2728 	 -109.244
| 39> H 	 -104.773 	 54.924 	 -111.421
| 40> H 	 -109.541 	 49.0889 	 -108.484
| 41> *
| 42>
| 43>                          ****END OF INPUT****

CARTESIAN COORDINATES (ANGSTROEM)
---------------------------------
  S    -106.197000   53.048900  -110.965000
  C    -105.766000   54.689000  -111.016000
  C    -106.517000   55.488400  -110.242000
  C    -107.672000   54.746200  -109.834000
  C    -107.669000   53.431300  -110.130000
  H    -108.455000   55.147600  -109.152000
  C    -106.422000   57.000000  -110.059000
  H    -107.370000   57.501000  -109.749000
  H    -106.357000   57.378600  -111.075000
  C    -105.193000   57.509800  -109.330000
  H    -104.351000   57.075000  -109.942000
  H    -105.133000   58.627700  -109.444000
  C    -105.212000   57.307200  -107.788000
  H    -104.422000   57.849600  -107.302000
  H    -106.208000   57.459600  -107.419000
  H    -105.073000   56.274800  -107.698000
  S    -107.911000   50.753100  -109.344000
  C    -109.283000   50.120100  -108.493000
  C    -110.235000   51.174500  -108.448000
  C    -109.815000   52.439400  -108.982000
  C    -108.521000   52.432800  -109.491000
  H    -111.273000   50.824600  -108.153000
  C    -110.739000   53.649800  -108.890000
  H    -110.629000   54.278700  -109.822000
  H    -110.571000   54.146500  -107.930000
  C    -112.234000   53.328900  -108.828000
  H    -112.590000   52.816100  -107.945000
  H    -112.486000   52.607300  -109.632000
  C    -113.144000   54.495300  -109.225000
  H    -112.929000   54.846700  -110.233000
  H    -113.047000   55.414500  -108.570000
  H    -114.286000   54.272800  -109.244000
  H    -104.773000   54.924000  -111.421000
  H    -109.541000   49.088900  -108.484000

 Total Charge           Charge          ....    0
 Multiplicity           Mult            ....    1
 Number of Electrons    NEL             ....  134
 Basis Dimension        Dim             ....  322

ORBITAL ENERGIES
----------------

  NO   OCC          E(Eh)            E(eV)
   0   2.0000     -88.967183     -2420.9201
   1   2.0000     -88.962154     -2420.7833
   2   2.0000     -10.336159      -281.2612
   3   2.0000     -10.327477      -281.0249
   4   2.0000     -10.317135      -280.7435
   5   2.0000     -10.312684      -280.6224
   6   2.0000     -10.308315      -280.5035
   7   2.0000     -10.303112      -280.3619
   8   2.0000     -10.301796      -280.3261
   9   2.0000     -10.300895      -280.3016
  10   2.0000     -10.296169      -280.1730
  11   2.0000     -10.294580      -280.1298
  12   2.0000     -10.293698      -280.1058
  13   2.0000     -10.290235      -280.0115
  14   2.0000     -10.288119      -279.9540
  15   2.0000     -10.271357      -279.4978
  16   2.0000      -8.083549      -219.9646
  17   2.0000      -8.076573      -219.7747
  18   2.0000      -6.042023      -164.4118
  19   2.0000      -6.037953      -164.3010
  20   2.0000      -6.035185      -164.2257
  21   2.0000      -6.034108      -164.1964
  22   2.0000      -6.030976      -164.1112
  23   2.0000      -6.027386      -164.0135
  24   2.0000      -1.018758       -27.7218
  25   2.0000      -0.986809       -26.8524
  26   2.0000      -0.914841       -24.8941
  27   2.0000      -0.910467       -24.7751
  28   2.0000      -0.874995       -23.8098
  29   2.0000      -0.855086       -23.2681
  30   2.0000      -0.842818       -22.9342
  31   2.0000      -0.814892       -22.1743
  32   2.0000      -0.786229       -21.3944
  33   2.0000      -0.774390       -21.0722
  34   2.0000      -0.704217       -19.1627
  35   2.0000      -0.703263       -19.1368
  36   2.0000      -0.694984       -18.9115
  37   2.0000      -0.658235       -17.9115
  38   2.0000      -0.638284       -17.3686
  39   2.0000      -0.617406       -16.8005
  40   2.0000      -0.595875       -16.2146
  41   2.0000      -0.577335       -15.7101
  42   2.0000      -0.575714       -15.6660
  43   2.0000      -0.555531       -15.1168
  44   2.0000      -0.541009       -14.7216
  45   2.0000      -0.524538       -14.2734
  46   2.0000      -0.515488       -14.0271
  47   2.0000      -0.509396       -13.8614
  48   2.0000      -0.502258       -13.6671
  49   2.0000      -0.499167       -13.5830
  50   2.0000      -0.491547       -13.3757
  51   2.0000      -0.483252       -13.1500
  52   2.0000      -0.475145       -12.9294
  53   2.0000      -0.469317       -12.7708
  54   2.0000      -0.463717       -12.6184
  55   2.0000      -0.451140       -12.2762
  56   2.0000      -0.445346       -12.1185
  57   2.0000      -0.436087       -11.8665
  58   2.0000      -0.428968       -11.6728
  59   2.0000      -0.426790       -11.6136
  60   2.0000      -0.412194       -11.2164
  61   2.0000      -0.407816       -11.0972
  62   2.0000      -0.403982       -10.9929
  63   2.0000      -0.366881        -9.9833
  64   2.0000      -0.335092        -9.1183
  65   2.0000      -0.326663        -8.8890
  66   2.0000      -0.287475        -7.8226
  67   0.0000       0.018817         0.5120
  68   0.0000       0.077988         2.1222
  69   0.0000       0.104549         2.8449
  70   0.0000       0.116221         3.1625
  71   0.0000       0.139230         3.7886

MULLIKEN ATOMIC CHARGES
-----------------------
   0 S :    0.109596
   1 C :   -0.126629
   2 C :   -0.043868
   3 C :   -0.056273
   4 C :   -0.084883
   5 H :    0.027326
   6 C :    0.032109
   7 H :    0.027598
   8 H :    0.035997
   9 C :   -0.124590
  10 H :    0.034092
  11 H :    0.031853
  12 C :    0.011595
  13 H :    0.043593
  14 H :    0.022278
  15 H :    0.019015
  16 S :    0.069476
  17 C :   -0.079995
  18 C :   -0.088825
  19 C :   -0.055642
  20 C :   -0.122883
  21 H :    0.047989
  22 C :    0.053308
  23 H :    0.047320
  24 H :    0.055879
  25 C :   -0.094661
  26 H :    0.035117
  27 H :    0.029744
  28 C :   -0.090701
  29 H :    0.030468
  30 H :    0.032496
  31 H :    0.047832
  32 H :    0.057647
  33 H :    0.066622
Sum of atomic charges:    0.0000000

LOEWDIN ATOMIC CHARGES
----------------------
   0 S :    0.430425
   1 C :   -0.201389
   2 C :   -0.068403
   3 C :   -0.063810
   4 C :   -0.201881
   5 H :    0.036630
   6 C :   -0.039359
   7 H :    0.032015
   8 H :    0.038671
   9 C :   -0.045982
  10 H :    0.027061
  11 H :    0.025318
  12 C :   -0.056604
  13 H :    0.027230
  14 H :    0.025437
  15 H :    0.021025
  16 S :    0.389389
  17 C :   -0.200682
  18 C :   -0.078641
  19 C :   -0.070794
  20 C :   -0.170210
  21 H :    0.041108
  22 C :   -0.035872
  23 H :    0.041522
  24 H :    0.038867
  25 C :   -0.052731
  26 H :    0.020351
  27 H :    0.028571
  28 C :   -0.077555
  29 H :    0.021158
  30 H :    0.023425
  31 H :    0.037545
  32 H :    0.029008
  33 H :    0.029155

  Mayer bond orders larger than 0.100000
B(  0-S ,  1-C ) :   1.1607 B(  0-S ,  4-C ) :   1.1338 B(  1-C ,  2-C ) :   1.6154
B(  1-C , 32-H ) :   0.9578 B(  2-C ,  3-C ) :   1.2438 B(  2-C ,  6-C ) :   0.9992
B(  3-C ,  4-C ) :   1.5734 B(  3-C ,  5-H ) :   0.9861 B(  4-C , 20-C ) :   1.0809
B(  6-C ,  7-H ) :   0.9486 B(  6-C ,  8-H ) :   0.9409 B(  6-C ,  9-C ) :   1.0787
B(  9-C , 10-H ) :   0.9589 B(  9-C , 11-H ) :   0.9562 B(  9-C , 12-C ) :   1.0577
B( 12-C , 13-H ) :   0.9768 B( 12-C , 14-H ) :   0.9711 B( 12-C , 15-H ) :   0.9756
B( 16-S , 17-C ) :   1.1653 B( 16-S , 20-C ) :   1.1354 B( 17-C , 18-C ) :   1.5803
B( 17-C , 20-C ) :   0.1065 B( 17-C , 33-H ) :   0.9649 B( 18-C , 19-C ) :   1.2724
B( 18-C , 21-H ) :   0.9726 B( 19-C , 20-C ) :   1.5754 B( 19-C , 22-C ) :   1.0413
B( 22-C , 23-H ) :   0.9365 B( 22-C , 24-H ) :   0.9247 B( 22-C , 25-C ) :   1.0681
B( 25-C , 26-H ) :   0.9469 B( 25-C , 27-H ) :   0.9571 B( 25-C , 28-C ) :   1.0758
B( 28-C , 29-H ) :   0.9736 B( 28-C , 30-H ) :   0.9742 B( 28-C , 31-H ) :   0.9740

Dispersion correction           -0.013396220
FINAL SINGLE POINT ENERGY     -1339.858609686156

DIPOLE MOMENT
-------------
                                X             Y             Z
Electronic contribution:     12.12844     -23.28535      -7.75151
Nuclear contribution   :    -12.43394      23.83589       7.82323
                        -----------------------------------------
Total Dipole Moment    :     -0.30550       0.55055       0.07171
                        -----------------------------------------
Magnitude (a.u.)       :      0.63370
Magnitude (Debye)      :      1.61074

Rotational constants in cm-1:     0.017457     0.008305     0.006345
Rotational constants in MHz :   523.355811   248.989721   190.221296

                             ****ORCA TERMINATED NORMALLY****
TOTAL RUN TIME: 0 days 0 hours 0 minutes 21 seconds 198 msec
