                         Program Version 4.2.1 -  RELEASE  -
|  1> ! wB97X-D3 SP def2-SVP
|  2> %pal
|  3> nprocs 24
|  4> end
|  5>
|  6> * xyz 0 1
|  7> S 	 31.9343 	 -30.5994 	 -116.589
|  8> C 	 32.2193 	 -29.0171 	 -116.033
|  9> C 	 32.8961 	 -28.2401 	 -117.031
| 10> C 	 33.2824 	 -29.0844 	 -118.124
| 11> C 	 32.8964 	 -30.38 	 -118.013
| 12> H 	 33.9339 	 -28.7167 	 -118.964
| 13> C 	 33.3656 	 -26.8098 	 -116.814
| 14> H 	 32.9417 	 -26.5665 	 -115.798
| 15> H 	 32.8907 	 -26.1089 	 -117.435
| 16> C 	 34.8611 	 -26.5562 	 -116.74
| 17> H 	 35.2579 	 -26.6544 	 -117.802
| 18> H 	 34.9957 	 -25.5156 	 -116.348
| 19> C 	 35.6251 	 -27.4556 	 -115.838
| 20> H 	 35.5447 	 -28.5092 	 -116.167
| 21> H 	 36.6581 	 -27.1932 	 -115.962
| 22> H 	 35.2639 	 -27.491 	 -114.825
| 23> S 	 31.8984 	 -31.6853 	 -120.241
| 24> C 	 32.8231 	 -32.9862 	 -120.939
| 25> C 	 33.9322 	 -33.271 	 -120.191
| 26> C 	 34.0831 	 -32.3525 	 -119.075
| 27> C 	 32.9706 	 -31.4953 	 -118.91
| 28> H 	 34.6363 	 -34.0521 	 -120.412
| 29> C 	 35.3962 	 -32.1857 	 -118.288
| 30> H 	 35.3151 	 -31.4395 	 -117.532
| 31> H 	 36.1131 	 -31.6822 	 -119.018
| 32> C 	 35.9937 	 -33.5084 	 -117.745
| 33> H 	 36.0266 	 -34.1298 	 -118.557
| 34> H 	 35.3821 	 -34.0013 	 -116.96
| 35> C 	 37.3857 	 -33.2922 	 -117.051
| 36> H 	 37.3715 	 -32.4863 	 -116.31
| 37> H 	 38.2017 	 -33.0953 	 -117.726
| 38> H 	 37.5694 	 -34.2492 	 -116.555
| 39> H 	 31.8318 	 -28.4975 	 -115.164
| 40> H 	 32.5813 	 -33.4608 	 -121.873
| 41> *
| 42>
| 43>                          ****END OF INPUT****

CARTESIAN COORDINATES (ANGSTROEM)
---------------------------------
  S     31.934300  -30.599400  -116.589000
  C     32.219300  -29.017100  -116.033000
  C     32.896100  -28.240100  -117.031000
  C     33.282400  -29.084400  -118.124000
  C     32.896400  -30.380000  -118.013000
  H     33.933900  -28.716700  -118.964000
  C     33.365600  -26.809800  -116.814000
  H     32.941700  -26.566500  -115.798000
  H     32.890700  -26.108900  -117.435000
  C     34.861100  -26.556200  -116.740000
  H     35.257900  -26.654400  -117.802000
  H     34.995700  -25.515600  -116.348000
  C     35.625100  -27.455600  -115.838000
  H     35.544700  -28.509200  -116.167000
  H     36.658100  -27.193200  -115.962000
  H     35.263900  -27.491000  -114.825000
  S     31.898400  -31.685300  -120.241000
  C     32.823100  -32.986200  -120.939000
  C     33.932200  -33.271000  -120.191000
  C     34.083100  -32.352500  -119.075000
  C     32.970600  -31.495300  -118.910000
  H     34.636300  -34.052100  -120.412000
  C     35.396200  -32.185700  -118.288000
  H     35.315100  -31.439500  -117.532000
  H     36.113100  -31.682200  -119.018000
  C     35.993700  -33.508400  -117.745000
  H     36.026600  -34.129800  -118.557000
  H     35.382100  -34.001300  -116.960000
  C     37.385700  -33.292200  -117.051000
  H     37.371500  -32.486300  -116.310000
  H     38.201700  -33.095300  -117.726000
  H     37.569400  -34.249200  -116.555000
  H     31.831800  -28.497500  -115.164000
  H     32.581300  -33.460800  -121.873000

 Total Charge           Charge          ....    0
 Multiplicity           Mult            ....    1
 Number of Electrons    NEL             ....  134
 Basis Dimension        Dim             ....  322

ORBITAL ENERGIES
----------------

  NO   OCC          E(Eh)            E(eV)
   0   2.0000     -88.965006     -2420.8609
   1   2.0000     -88.964783     -2420.8548
   2   2.0000     -10.321585      -280.8646
   3   2.0000     -10.319690      -280.8130
   4   2.0000     -10.317973      -280.7663
   5   2.0000     -10.314339      -280.6674
   6   2.0000     -10.306598      -280.4568
   7   2.0000     -10.302745      -280.3519
   8   2.0000     -10.296159      -280.1727
   9   2.0000     -10.295111      -280.1442
  10   2.0000     -10.293023      -280.0874
  11   2.0000     -10.290502      -280.0188
  12   2.0000     -10.289495      -279.9914
  13   2.0000     -10.284544      -279.8567
  14   2.0000     -10.278799      -279.7003
  15   2.0000     -10.269835      -279.4564
  16   2.0000      -8.080741      -219.8881
  17   2.0000      -8.080089      -219.8704
  18   2.0000      -6.039079      -164.3317
  19   2.0000      -6.038569      -164.3178
  20   2.0000      -6.034896      -164.2179
  21   2.0000      -6.034397      -164.2043
  22   2.0000      -6.031820      -164.1342
  23   2.0000      -6.030958      -164.1107
  24   2.0000      -1.010688       -27.5022
  25   2.0000      -0.986159       -26.8348
  26   2.0000      -0.916091       -24.9281
  27   2.0000      -0.902292       -24.5526
  28   2.0000      -0.872774       -23.7494
  29   2.0000      -0.847807       -23.0700
  30   2.0000      -0.844738       -22.9865
  31   2.0000      -0.817844       -22.2547
  32   2.0000      -0.785557       -21.3761
  33   2.0000      -0.767931       -20.8965
  34   2.0000      -0.707145       -19.2424
  35   2.0000      -0.703201       -19.1351
  36   2.0000      -0.685136       -18.6435
  37   2.0000      -0.655032       -17.8243
  38   2.0000      -0.637792       -17.3552
  39   2.0000      -0.620158       -16.8754
  40   2.0000      -0.599241       -16.3062
  41   2.0000      -0.568821       -15.4784
  42   2.0000      -0.561229       -15.2718
  43   2.0000      -0.558772       -15.2049
  44   2.0000      -0.547385       -14.8951
  45   2.0000      -0.525297       -14.2941
  46   2.0000      -0.518579       -14.1113
  47   2.0000      -0.517377       -14.0786
  48   2.0000      -0.504942       -13.7402
  49   2.0000      -0.496605       -13.5133
  50   2.0000      -0.482340       -13.1251
  51   2.0000      -0.474383       -12.9086
  52   2.0000      -0.470142       -12.7932
  53   2.0000      -0.464726       -12.6458
  54   2.0000      -0.460817       -12.5395
  55   2.0000      -0.448362       -12.2006
  56   2.0000      -0.444962       -12.1080
  57   2.0000      -0.438298       -11.9267
  58   2.0000      -0.435753       -11.8574
  59   2.0000      -0.428291       -11.6544
  60   2.0000      -0.416531       -11.3344
  61   2.0000      -0.410129       -11.1602
  62   2.0000      -0.407876       -11.0989
  63   2.0000      -0.340902        -9.2764
  64   2.0000      -0.329852        -8.9757
  65   2.0000      -0.312235        -8.4963
  66   2.0000      -0.311969        -8.4891
  67   0.0000       0.049896         1.3577
  68   0.0000       0.053120         1.4455
  69   0.0000       0.114628         3.1192
  70   0.0000       0.123504         3.3607
  71   0.0000       0.132517         3.6060

MULLIKEN ATOMIC CHARGES
-----------------------
   0 S :    0.133748
   1 C :   -0.097860
   2 C :   -0.155946
   3 C :    0.039295
   4 C :   -0.207511
   5 H :    0.029665
   6 C :    0.095470
   7 H :    0.003401
   8 H :    0.026033
   9 C :   -0.110995
  10 H :    0.036170
  11 H :    0.038828
  12 C :   -0.022745
  13 H :    0.031968
  14 H :    0.031975
  15 H :    0.025897
  16 S :    0.123526
  17 C :   -0.090760
  18 C :   -0.013186
  19 C :   -0.051064
  20 C :   -0.143839
  21 H :    0.020072
  22 C :    0.060484
  23 H :    0.019002
  24 H :    0.042111
  25 C :   -0.069813
  26 H :    0.007329
  27 H :    0.041579
  28 C :   -0.045510
  29 H :    0.034712
  30 H :    0.029382
  31 H :    0.033613
  32 H :    0.048381
  33 H :    0.056589
Sum of atomic charges:   -0.0000000

LOEWDIN ATOMIC CHARGES
----------------------
   0 S :    0.446091
   1 C :   -0.217895
   2 C :   -0.066713
   3 C :   -0.065854
   4 C :   -0.209083
   5 H :    0.040802
   6 C :   -0.036416
   7 H :    0.030990
   8 H :    0.024505
   9 C :   -0.047247
  10 H :    0.027842
  11 H :    0.031659
  12 C :   -0.066379
  13 H :    0.028249
  14 H :    0.026868
  15 H :    0.023155
  16 S :    0.426376
  17 C :   -0.180140
  18 C :   -0.073935
  19 C :   -0.042654
  20 C :   -0.237351
  21 H :    0.029056
  22 C :   -0.032727
  23 H :    0.021032
  24 H :    0.041516
  25 C :   -0.031592
  26 H :    0.007100
  27 H :    0.032454
  28 C :   -0.062391
  29 H :    0.026049
  30 H :    0.020227
  31 H :    0.028349
  32 H :    0.028906
  33 H :    0.029148

  Mayer bond orders larger than 0.100000
B(  0-S ,  1-C ) :   1.1749 B(  0-S ,  4-C ) :   1.1657 B(  1-C ,  2-C ) :   1.5748
B(  1-C ,  4-C ) :   0.1058 B(  1-C , 32-H ) :   0.9615 B(  2-C ,  3-C ) :   1.2564
B(  2-C ,  6-C ) :   1.0272 B(  3-C ,  4-C ) :   1.5886 B(  3-C ,  5-H ) :   0.9909
B(  4-C , 20-C ) :   1.0046 B(  6-C ,  7-H ) :   0.9341 B(  6-C ,  8-H ) :   0.9365
B(  6-C ,  9-C ) :   1.0763 B(  9-C , 10-H ) :   0.9507 B(  9-C , 11-H ) :   0.9526
B(  9-C , 12-C ) :   1.0895 B( 12-C , 13-H ) :   0.9649 B( 12-C , 14-H ) :   0.9694
B( 12-C , 15-H ) :   0.9725 B( 16-S , 17-C ) :   1.1719 B( 16-S , 20-C ) :   1.1467
B( 17-C , 18-C ) :   1.5954 B( 17-C , 33-H ) :   0.9686 B( 18-C , 19-C ) :   1.2530
B( 18-C , 21-H ) :   0.9903 B( 19-C , 20-C ) :   1.5803 B( 19-C , 22-C ) :   1.0438
B( 22-C , 23-H ) :   0.9320 B( 22-C , 24-H ) :   0.9387 B( 22-C , 25-C ) :   1.0499
B( 25-C , 26-H ) :   0.9596 B( 25-C , 27-H ) :   0.9604 B( 25-C , 28-C ) :   1.0782
B( 28-C , 29-H ) :   0.9771 B( 28-C , 30-H ) :   0.9770 B( 28-C , 31-H ) :   0.9776

Dispersion correction           -0.014686961
FINAL SINGLE POINT ENERGY     -1339.880193061735

DIPOLE MOMENT
-------------
                                X             Y             Z
Electronic contribution:    -24.96288      -6.81408     -10.11688
Nuclear contribution   :     25.55989       6.99333      10.05688
                        -----------------------------------------
Total Dipole Moment    :      0.59702       0.17925      -0.06000
                        -----------------------------------------
Magnitude (a.u.)       :      0.62623
Magnitude (Debye)      :      1.59174

Rotational constants in cm-1:     0.016920     0.009385     0.007196
Rotational constants in MHz :   507.242771   281.340657   215.731772

                             ****ORCA TERMINATED NORMALLY****
TOTAL RUN TIME: 0 days 0 hours 0 minutes 22 seconds 858 msec
