                         Program Version 4.2.1 -  RELEASE  -
|  1> ! wB97X-D3 SP def2-SVP
|  2> %pal
|  3> nprocs 24
|  4> end
|  5>
|  6> * xyz 0 1
|  7> S 	 -101.452 	 12.4342 	 -124.047
|  8> C 	 -102.54 	 13.8173 	 -124.178
|  9> C 	 -102.059 	 14.8823 	 -123.441
| 10> C 	 -100.869 	 14.599 	 -122.725
| 11> C 	 -100.429 	 13.3196 	 -122.968
| 12> H 	 -100.325 	 15.342 	 -122.101
| 13> C 	 -102.735 	 16.1872 	 -123.257
| 14> H 	 -103.359 	 16.385 	 -124.139
| 15> H 	 -101.856 	 16.9216 	 -123.295
| 16> C 	 -103.517 	 16.3259 	 -121.903
| 17> H 	 -102.919 	 16.2203 	 -121.032
| 18> H 	 -103.953 	 17.3159 	 -122.033
| 19> C 	 -104.751 	 15.3436 	 -121.833
| 20> H 	 -105.499 	 15.5965 	 -122.584
| 21> H 	 -104.336 	 14.3076 	 -121.93
| 22> H 	 -105.142 	 15.387 	 -120.803
| 23> S 	 -98.147 	 11.9645 	 -123.975
| 24> C 	 -96.6337 	 11.926 	 -123.046
| 25> C 	 -96.7335 	 12.7239 	 -121.935
| 26> C 	 -98.0957 	 13.139 	 -121.646
| 27> C 	 -99.0508 	 12.843 	 -122.675
| 28> H 	 -95.8738 	 13.0097 	 -121.328
| 29> C 	 -98.4109 	 13.7075 	 -120.301
| 30> H 	 -99.2533 	 14.4519 	 -120.507
| 31> H 	 -97.5673 	 14.3673 	 -119.918
| 32> C 	 -98.677 	 12.7114 	 -119.227
| 33> H 	 -98.8649 	 13.2916 	 -118.346
| 34> H 	 -97.8208 	 12.0441 	 -119.069
| 35> C 	 -99.992 	 11.8534 	 -119.52
| 36> H 	 -99.9111 	 11.3376 	 -120.468
| 37> H 	 -100.832 	 12.4912 	 -119.577
| 38> H 	 -100.139 	 11.2079 	 -118.577
| 39> H 	 -103.308 	 13.9909 	 -124.891
| 40> H 	 -95.6966 	 11.5204 	 -123.367
| 41> *
| 42>
| 43>                          ****END OF INPUT****

CARTESIAN COORDINATES (ANGSTROEM)
---------------------------------
  S    -101.452000   12.434200  -124.047000
  C    -102.540000   13.817300  -124.178000
  C    -102.059000   14.882300  -123.441000
  C    -100.869000   14.599000  -122.725000
  C    -100.429000   13.319600  -122.968000
  H    -100.325000   15.342000  -122.101000
  C    -102.735000   16.187200  -123.257000
  H    -103.359000   16.385000  -124.139000
  H    -101.856000   16.921600  -123.295000
  C    -103.517000   16.325900  -121.903000
  H    -102.919000   16.220300  -121.032000
  H    -103.953000   17.315900  -122.033000
  C    -104.751000   15.343600  -121.833000
  H    -105.499000   15.596500  -122.584000
  H    -104.336000   14.307600  -121.930000
  H    -105.142000   15.387000  -120.803000
  S    -98.147000   11.964500  -123.975000
  C    -96.633700   11.926000  -123.046000
  C    -96.733500   12.723900  -121.935000
  C    -98.095700   13.139000  -121.646000
  C    -99.050800   12.843000  -122.675000
  H    -95.873800   13.009700  -121.328000
  C    -98.410900   13.707500  -120.301000
  H    -99.253300   14.451900  -120.507000
  H    -97.567300   14.367300  -119.918000
  C    -98.677000   12.711400  -119.227000
  H    -98.864900   13.291600  -118.346000
  H    -97.820800   12.044100  -119.069000
  C    -99.992000   11.853400  -119.520000
  H    -99.911100   11.337600  -120.468000
  H    -100.832000   12.491200  -119.577000
  H    -100.139000   11.207900  -118.577000
  H    -103.308000   13.990900  -124.891000
  H    -95.696600   11.520400  -123.367000

 Total Charge           Charge          ....    0
 Multiplicity           Mult            ....    1
 Number of Electrons    NEL             ....  134
 Basis Dimension        Dim             ....  322

ORBITAL ENERGIES
----------------

  NO   OCC          E(Eh)            E(eV)
   0   2.0000     -88.971476     -2421.0369
   1   2.0000     -88.964797     -2420.8552
   2   2.0000     -10.339928      -281.3638
   3   2.0000     -10.336114      -281.2600
   4   2.0000     -10.319469      -280.8070
   5   2.0000     -10.312446      -280.6159
   6   2.0000     -10.307681      -280.4862
   7   2.0000     -10.298616      -280.2396
   8   2.0000     -10.297060      -280.1973
   9   2.0000     -10.296725      -280.1881
  10   2.0000     -10.296568      -280.1839
  11   2.0000     -10.295087      -280.1436
  12   2.0000     -10.291595      -280.0485
  13   2.0000     -10.284353      -279.8515
  14   2.0000     -10.282214      -279.7933
  15   2.0000     -10.274592      -279.5859
  16   2.0000      -8.086078      -220.0334
  17   2.0000      -8.078115      -219.8167
  18   2.0000      -6.044673      -164.4839
  19   2.0000      -6.040562      -164.3721
  20   2.0000      -6.036884      -164.2720
  21   2.0000      -6.036790      -164.2694
  22   2.0000      -6.032797      -164.1607
  23   2.0000      -6.028681      -164.0488
  24   2.0000      -1.006477       -27.3876
  25   2.0000      -0.977999       -26.6127
  26   2.0000      -0.912051       -24.8182
  27   2.0000      -0.908114       -24.7110
  28   2.0000      -0.864949       -23.5364
  29   2.0000      -0.850278       -23.1372
  30   2.0000      -0.835592       -22.7376
  31   2.0000      -0.813294       -22.1308
  32   2.0000      -0.778623       -21.1874
  33   2.0000      -0.770124       -20.9562
  34   2.0000      -0.709999       -19.3201
  35   2.0000      -0.698233       -18.9999
  36   2.0000      -0.691315       -18.8116
  37   2.0000      -0.655704       -17.8426
  38   2.0000      -0.636961       -17.3326
  39   2.0000      -0.623874       -16.9765
  40   2.0000      -0.591917       -16.1069
  41   2.0000      -0.570841       -15.5334
  42   2.0000      -0.551327       -15.0024
  43   2.0000      -0.545556       -14.8453
  44   2.0000      -0.543683       -14.7944
  45   2.0000      -0.531576       -14.4649
  46   2.0000      -0.518973       -14.1220
  47   2.0000      -0.510121       -13.8811
  48   2.0000      -0.502666       -13.6782
  49   2.0000      -0.495797       -13.4913
  50   2.0000      -0.490817       -13.3558
  51   2.0000      -0.478205       -13.0126
  52   2.0000      -0.468930       -12.7602
  53   2.0000      -0.461474       -12.5574
  54   2.0000      -0.458316       -12.4714
  55   2.0000      -0.450142       -12.2490
  56   2.0000      -0.445075       -12.1111
  57   2.0000      -0.442184       -12.0324
  58   2.0000      -0.431226       -11.7343
  59   2.0000      -0.429157       -11.6780
  60   2.0000      -0.412137       -11.2148
  61   2.0000      -0.409142       -11.1333
  62   2.0000      -0.402055       -10.9405
  63   2.0000      -0.354280        -9.6404
  64   2.0000      -0.332545        -9.0490
  65   2.0000      -0.326227        -8.8771
  66   2.0000      -0.286773        -7.8035
  67   0.0000       0.018047         0.4911
  68   0.0000       0.075941         2.0665
  69   0.0000       0.099095         2.6965
  70   0.0000       0.115898         3.1537
  71   0.0000       0.124048         3.3755

MULLIKEN ATOMIC CHARGES
-----------------------
   0 S :    0.109474
   1 C :   -0.087923
   2 C :   -0.120782
   3 C :    0.001604
   4 C :   -0.117785
   5 H :    0.038772
   6 C :    0.021887
   7 H :    0.021988
   8 H :    0.040126
   9 C :   -0.047688
  10 H :    0.031919
  11 H :    0.035777
  12 C :   -0.084752
  13 H :    0.041003
  14 H :    0.053344
  15 H :    0.039236
  16 S :    0.079120
  17 C :   -0.075652
  18 C :   -0.024791
  19 C :   -0.084018
  20 C :   -0.118863
  21 H :    0.028106
  22 C :    0.010003
  23 H :    0.016153
  24 H :    0.029720
  25 C :   -0.035053
  26 H :    0.024954
  27 H :    0.034928
  28 C :   -0.069444
  29 H :    0.056958
  30 H :    0.018338
  31 H :    0.044960
  32 H :    0.034701
  33 H :    0.053680
Sum of atomic charges:   -0.0000000

LOEWDIN ATOMIC CHARGES
----------------------
   0 S :    0.412196
   1 C :   -0.198045
   2 C :   -0.066157
   3 C :   -0.065748
   4 C :   -0.193561
   5 H :    0.038685
   6 C :   -0.038585
   7 H :    0.028832
   8 H :    0.039144
   9 C :   -0.029718
  10 H :    0.019191
  11 H :    0.027020
  12 C :   -0.069997
  13 H :    0.024514
  14 H :    0.031452
  15 H :    0.028465
  16 S :    0.366811
  17 C :   -0.172943
  18 C :   -0.070299
  19 C :   -0.060302
  20 C :   -0.181585
  21 H :    0.034675
  22 C :   -0.049794
  23 H :    0.030763
  24 H :    0.035488
  25 C :   -0.035470
  26 H :    0.022667
  27 H :    0.026247
  28 C :   -0.064097
  29 H :    0.026339
  30 H :    0.015421
  31 H :    0.035471
  32 H :    0.024321
  33 H :    0.028600

  Mayer bond orders larger than 0.100000
B(  0-S ,  1-C ) :   1.1140 B(  0-S ,  4-C ) :   1.1614 B(  1-C ,  2-C ) :   1.6176
B(  1-C , 32-H ) :   0.9665 B(  2-C ,  3-C ) :   1.2543 B(  2-C ,  6-C ) :   1.0348
B(  3-C ,  4-C ) :   1.5537 B(  3-C ,  5-H ) :   0.9765 B(  4-C , 20-C ) :   1.0471
B(  6-C ,  7-H ) :   0.9413 B(  6-C ,  8-H ) :   0.9373 B(  6-C ,  9-C ) :   1.0568
B(  9-C , 10-H ) :   0.9608 B(  9-C , 11-H ) :   0.9578 B(  9-C , 12-C ) :   1.0701
B( 12-C , 13-H ) :   0.9777 B( 12-C , 14-H ) :   0.9750 B( 12-C , 15-H ) :   0.9747
B( 16-S , 17-C ) :   1.1414 B( 16-S , 20-C ) :   1.1144 B( 17-C , 18-C ) :   1.6176
B( 17-C , 33-H ) :   0.9672 B( 18-C , 19-C ) :   1.2449 B( 18-C , 21-H ) :   0.9856
B( 19-C , 20-C ) :   1.5801 B( 19-C , 22-C ) :   1.0505 B( 22-C , 23-H ) :   0.9315
B( 22-C , 24-H ) :   0.9304 B( 22-C , 25-C ) :   1.0829 B( 25-C , 26-H ) :   0.9505
B( 25-C , 27-H ) :   0.9528 B( 25-C , 28-C ) :   1.0701 B( 28-C , 29-H ) :   0.9754
B( 28-C , 30-H ) :   0.9764 B( 28-C , 31-H ) :   0.9756

Dispersion correction           -0.015290859
FINAL SINGLE POINT ENERGY     -1339.870020367886

DIPOLE MOMENT
-------------
                                X             Y             Z
Electronic contribution:     11.79480     -12.09411     -19.40507
Nuclear contribution   :    -11.74616      12.75452      19.78656
                        -----------------------------------------
Total Dipole Moment    :      0.04865       0.66041       0.38149
                        -----------------------------------------
Magnitude (a.u.)       :      0.76423
Magnitude (Debye)      :      1.94251

Rotational constants in cm-1:     0.021076     0.008930     0.007314
Rotational constants in MHz :   631.840472   267.719478   219.265957

                             ****ORCA TERMINATED NORMALLY****
TOTAL RUN TIME: 0 days 0 hours 0 minutes 22 seconds 429 msec
