                         Program Version 4.2.1 -  RELEASE  -
|  1> ! wB97X-D3 SP def2-SVP
|  2> %pal
|  3> nprocs 24
|  4> end
|  5>
|  6> * xyz 0 1
|  7> S 	 -90.3047 	 -9.0537 	 -115.383
|  8> C 	 -91.649 	 -9.74003 	 -116.357
|  9> C 	 -92.0097 	 -8.92727 	 -117.412
| 10> C 	 -91.3537 	 -7.65257 	 -117.3
| 11> C 	 -90.3909 	 -7.626 	 -116.323
| 12> H 	 -91.5686 	 -6.90091 	 -117.948
| 13> C 	 -93.1464 	 -9.26609 	 -118.433
| 14> H 	 -93.1345 	 -10.3868 	 -118.575
| 15> H 	 -92.8654 	 -8.72705 	 -119.315
| 16> C 	 -94.5828 	 -8.92292 	 -118.093
| 17> H 	 -94.7747 	 -7.85303 	 -118.09
| 18> H 	 -95.1468 	 -9.39112 	 -118.966
| 19> C 	 -95.0949 	 -9.56451 	 -116.748
| 20> H 	 -96.2057 	 -9.40705 	 -116.532
| 21> H 	 -94.892 	 -10.6313 	 -116.501
| 22> H 	 -94.6953 	 -8.99936 	 -115.912
| 23> S 	 -87.7682 	 -7.04084 	 -115.965
| 24> C 	 -87.2588 	 -5.36339 	 -115.874
| 25> C 	 -88.3616 	 -4.57474 	 -116.052
| 26> C 	 -89.5935 	 -5.22417 	 -116.026
| 27> C 	 -89.4557 	 -6.57643 	 -115.927
| 28> H 	 -88.1715 	 -3.51878 	 -116.242
| 29> C 	 -90.9724 	 -4.48717 	 -116.212
| 30> H 	 -91.3846 	 -4.51443 	 -117.24
| 31> H 	 -90.7989 	 -3.46518 	 -115.997
| 32> C 	 -92.138 	 -4.85557 	 -115.285
| 33> H 	 -92.4145 	 -5.85309 	 -115.587
| 34> H 	 -92.9227 	 -4.18089 	 -115.651
| 35> C 	 -91.8072 	 -4.65495 	 -113.793
| 36> H 	 -92.7629 	 -4.65059 	 -113.179
| 37> H 	 -91.3335 	 -3.72325 	 -113.727
| 38> H 	 -91.1623 	 -5.43594 	 -113.391
| 39> H 	 -92.1391 	 -10.7094 	 -116.173
| 40> H 	 -86.2799 	 -4.9437 	 -116.064
| 41> *
| 42>
| 43>                          ****END OF INPUT****

CARTESIAN COORDINATES (ANGSTROEM)
---------------------------------
  S    -90.304700   -9.053700  -115.383000
  C    -91.649000   -9.740030  -116.357000
  C    -92.009700   -8.927270  -117.412000
  C    -91.353700   -7.652570  -117.300000
  C    -90.390900   -7.626000  -116.323000
  H    -91.568600   -6.900910  -117.948000
  C    -93.146400   -9.266090  -118.433000
  H    -93.134500  -10.386800  -118.575000
  H    -92.865400   -8.727050  -119.315000
  C    -94.582800   -8.922920  -118.093000
  H    -94.774700   -7.853030  -118.090000
  H    -95.146800   -9.391120  -118.966000
  C    -95.094900   -9.564510  -116.748000
  H    -96.205700   -9.407050  -116.532000
  H    -94.892000  -10.631300  -116.501000
  H    -94.695300   -8.999360  -115.912000
  S    -87.768200   -7.040840  -115.965000
  C    -87.258800   -5.363390  -115.874000
  C    -88.361600   -4.574740  -116.052000
  C    -89.593500   -5.224170  -116.026000
  C    -89.455700   -6.576430  -115.927000
  H    -88.171500   -3.518780  -116.242000
  C    -90.972400   -4.487170  -116.212000
  H    -91.384600   -4.514430  -117.240000
  H    -90.798900   -3.465180  -115.997000
  C    -92.138000   -4.855570  -115.285000
  H    -92.414500   -5.853090  -115.587000
  H    -92.922700   -4.180890  -115.651000
  C    -91.807200   -4.654950  -113.793000
  H    -92.762900   -4.650590  -113.179000
  H    -91.333500   -3.723250  -113.727000
  H    -91.162300   -5.435940  -113.391000
  H    -92.139100  -10.709400  -116.173000
  H    -86.279900   -4.943700  -116.064000

 Total Charge           Charge          ....    0
 Multiplicity           Mult            ....    1
 Number of Electrons    NEL             ....  134
 Basis Dimension        Dim             ....  322

ORBITAL ENERGIES
----------------

  NO   OCC          E(Eh)            E(eV)
   0   2.0000     -88.966742     -2420.9081
   1   2.0000     -88.965715     -2420.8802
   2   2.0000     -10.327546      -281.0268
   3   2.0000     -10.322182      -280.8809
   4   2.0000     -10.315251      -280.6922
   5   2.0000     -10.314224      -280.6643
   6   2.0000     -10.302717      -280.3512
   7   2.0000     -10.301019      -280.3050
   8   2.0000     -10.300259      -280.2843
   9   2.0000     -10.299815      -280.2722
  10   2.0000     -10.291662      -280.0504
  11   2.0000     -10.290111      -280.0082
  12   2.0000     -10.288881      -279.9747
  13   2.0000     -10.287124      -279.9269
  14   2.0000     -10.280106      -279.7359
  15   2.0000     -10.273478      -279.5556
  16   2.0000      -8.081568      -219.9106
  17   2.0000      -8.080406      -219.8790
  18   2.0000      -6.040037      -164.3578
  19   2.0000      -6.038933      -164.3277
  20   2.0000      -6.036132      -164.2515
  21   2.0000      -6.034980      -164.2201
  22   2.0000      -6.032289      -164.1469
  23   2.0000      -6.031043      -164.1130
  24   2.0000      -1.013105       -27.5680
  25   2.0000      -0.985631       -26.8204
  26   2.0000      -0.910448       -24.7746
  27   2.0000      -0.906091       -24.6560
  28   2.0000      -0.867981       -23.6190
  29   2.0000      -0.848585       -23.0912
  30   2.0000      -0.841794       -22.9064
  31   2.0000      -0.811022       -22.0690
  32   2.0000      -0.785892       -21.3852
  33   2.0000      -0.779076       -21.1997
  34   2.0000      -0.710346       -19.3295
  35   2.0000      -0.697630       -18.9835
  36   2.0000      -0.685515       -18.6538
  37   2.0000      -0.661896       -18.0111
  38   2.0000      -0.637418       -17.3450
  39   2.0000      -0.626677       -17.0527
  40   2.0000      -0.590601       -16.0711
  41   2.0000      -0.564289       -15.3551
  42   2.0000      -0.559889       -15.2353
  43   2.0000      -0.554229       -15.0813
  44   2.0000      -0.541086       -14.7237
  45   2.0000      -0.533404       -14.5146
  46   2.0000      -0.515089       -14.0163
  47   2.0000      -0.507205       -13.8017
  48   2.0000      -0.497796       -13.5457
  49   2.0000      -0.491486       -13.3740
  50   2.0000      -0.488578       -13.2949
  51   2.0000      -0.478353       -13.0166
  52   2.0000      -0.471349       -12.8261
  53   2.0000      -0.465928       -12.6785
  54   2.0000      -0.458978       -12.4894
  55   2.0000      -0.451016       -12.2728
  56   2.0000      -0.439850       -11.9689
  57   2.0000      -0.435515       -11.8510
  58   2.0000      -0.434552       -11.8248
  59   2.0000      -0.430094       -11.7035
  60   2.0000      -0.418761       -11.3951
  61   2.0000      -0.412661       -11.2291
  62   2.0000      -0.409862       -11.1529
  63   2.0000      -0.348894        -9.4939
  64   2.0000      -0.335873        -9.1396
  65   2.0000      -0.331556        -9.0221
  66   2.0000      -0.291439        -7.9305
  67   0.0000       0.028190         0.7671
  68   0.0000       0.067631         1.8403
  69   0.0000       0.102095         2.7781
  70   0.0000       0.116784         3.1778
  71   0.0000       0.124678         3.3927

MULLIKEN ATOMIC CHARGES
-----------------------
   0 S :    0.108930
   1 C :   -0.131588
   2 C :   -0.100014
   3 C :    0.058841
   4 C :   -0.141564
   5 H :   -0.042378
   6 C :    0.059814
   7 H :    0.039570
   8 H :    0.024623
   9 C :   -0.055995
  10 H :    0.033751
  11 H :    0.046504
  12 C :   -0.103382
  13 H :    0.039321
  14 H :    0.039377
  15 H :    0.037520
  16 S :    0.098371
  17 C :   -0.073193
  18 C :   -0.079669
  19 C :   -0.021123
  20 C :   -0.107558
  21 H :    0.021460
  22 C :    0.036169
  23 H :    0.041287
  24 H :    0.000921
  25 C :   -0.066064
  26 H :    0.030405
  27 H :    0.024583
  28 C :   -0.029837
  29 H :    0.041928
  30 H :    0.014718
  31 H :    0.047234
  32 H :    0.048818
  33 H :    0.058222
Sum of atomic charges:    0.0000000

LOEWDIN ATOMIC CHARGES
----------------------
   0 S :    0.405186
   1 C :   -0.188125
   2 C :   -0.059675
   3 C :   -0.056227
   4 C :   -0.193124
   5 H :    0.011485
   6 C :   -0.030022
   7 H :    0.039510
   8 H :    0.028478
   9 C :   -0.040188
  10 H :    0.024074
  11 H :    0.034955
  12 C :   -0.086198
  13 H :    0.034382
  14 H :    0.026602
  15 H :    0.026029
  16 S :    0.407981
  17 C :   -0.190646
  18 C :   -0.070555
  19 C :   -0.063752
  20 C :   -0.201288
  21 H :    0.033044
  22 C :   -0.028838
  23 H :    0.032332
  24 H :    0.018539
  25 C :   -0.040219
  26 H :    0.017321
  27 H :    0.026383
  28 C :   -0.060800
  29 H :    0.034335
  30 H :    0.016080
  31 H :    0.030437
  32 H :    0.028416
  33 H :    0.034087

  Mayer bond orders larger than 0.100000
B(  0-S ,  1-C ) :   1.1233 B(  0-S ,  4-C ) :   1.1599 B(  1-C ,  2-C ) :   1.6400
B(  1-C , 32-H ) :   0.9639 B(  2-C ,  3-C ) :   1.2261 B(  2-C ,  6-C ) :   1.0143
B(  3-C ,  4-C ) :   1.5734 B(  3-C ,  5-H ) :   1.0142 B(  4-C , 20-C ) :   0.9993
B(  6-C ,  7-H ) :   0.9441 B(  6-C ,  8-H ) :   0.9361 B(  6-C ,  9-C ) :   1.0782
B(  9-C , 10-H ) :   0.9554 B(  9-C , 11-H ) :   0.9548 B(  9-C , 12-C ) :   1.0621
B( 12-C , 13-H ) :   0.9743 B( 12-C , 14-H ) :   0.9777 B( 12-C , 15-H ) :   0.9720
B( 16-S , 17-C ) :   1.1445 B( 16-S , 20-C ) :   1.1538 B( 17-C , 18-C ) :   1.6164
B( 17-C , 33-H ) :   0.9634 B( 18-C , 19-C ) :   1.2666 B( 18-C , 21-H ) :   0.9868
B( 19-C , 20-C ) :   1.5999 B( 19-C , 22-C ) :   1.0126 B( 22-C , 23-H ) :   0.9392
B( 22-C , 24-H ) :   0.9362 B( 22-C , 25-C ) :   1.0829 B( 25-C , 26-H ) :   0.9501
B( 25-C , 27-H ) :   0.9528 B( 25-C , 28-C ) :   1.0720 B( 28-C , 29-H ) :   0.9754
B( 28-C , 30-H ) :   0.9761 B( 28-C , 31-H ) :   0.9730

Dispersion correction           -0.015503059
FINAL SINGLE POINT ENERGY     -1339.866062762298

DIPOLE MOMENT
-------------
                                X             Y             Z
Electronic contribution:     26.43822      -6.08310       2.41559
Nuclear contribution   :    -26.95455       6.47533      -2.88505
                        -----------------------------------------
Total Dipole Moment    :     -0.51633       0.39224      -0.46946
                        -----------------------------------------
Magnitude (a.u.)       :      0.80052
Magnitude (Debye)      :      2.03476

Rotational constants in cm-1:     0.021624     0.009015     0.007487
Rotational constants in MHz :   648.280689   270.254192   224.453615

                             ****ORCA TERMINATED NORMALLY****
TOTAL RUN TIME: 0 days 0 hours 0 minutes 22 seconds 839 msec
