                         Program Version 4.2.1 -  RELEASE  -
|  1> ! wB97X-D3 SP def2-SVP
|  2> %pal
|  3> nprocs 24
|  4> end
|  5>
|  6> * xyz 0 1
|  7> S 	 -115.011 	 22.706 	 -114.669
|  8> C 	 -116.596 	 22.1109 	 -115.444
|  9> C 	 -117.648 	 22.9634 	 -115.015
| 10> C 	 -117.172 	 24.0519 	 -114.254
| 11> C 	 -115.883 	 23.9845 	 -113.896
| 12> H 	 -117.732 	 24.8296 	 -113.807
| 13> C 	 -119.106 	 22.8859 	 -115.473
| 14> H 	 -119.366 	 23.7777 	 -116.032
| 15> H 	 -119.64 	 23.1141 	 -114.598
| 16> C 	 -119.523 	 21.5901 	 -116.093
| 17> H 	 -118.904 	 21.4435 	 -116.911
| 18> H 	 -119.234 	 20.7959 	 -115.351
| 19> C 	 -121.018 	 21.5879 	 -116.401
| 20> H 	 -121.589 	 21.4597 	 -115.49
| 21> H 	 -121.278 	 22.4571 	 -117.018
| 22> H 	 -121.346 	 20.7403 	 -117.024
| 23> S 	 -114.022 	 25.9158 	 -113.906
| 24> C 	 -113.526 	 26.6713 	 -112.406
| 25> C 	 -114.328 	 26.3358 	 -111.367
| 26> C 	 -115.311 	 25.3798 	 -111.715
| 27> C 	 -115.176 	 24.9219 	 -113.028
| 28> H 	 -114.117 	 26.8339 	 -110.492
| 29> C 	 -116.335 	 24.9639 	 -110.795
| 30> H 	 -116.689 	 23.934 	 -110.961
| 31> H 	 -117.211 	 25.5044 	 -111.162
| 32> C 	 -116.145 	 25.1639 	 -109.337
| 33> H 	 -117.032 	 24.958 	 -108.761
| 34> H 	 -115.949 	 26.22 	 -109.152
| 35> C 	 -115 	 24.347 	 -108.771
| 36> H 	 -113.995 	 24.4728 	 -109.241
| 37> H 	 -115.164 	 23.2755 	 -108.794
| 38> H 	 -114.846 	 24.6698 	 -107.723
| 39> H 	 -116.84 	 21.2747 	 -115.983
| 40> H 	 -112.836 	 27.5252 	 -112.406
| 41> *
| 42>
| 43>                          ****END OF INPUT****

CARTESIAN COORDINATES (ANGSTROEM)
---------------------------------
  S    -115.011000   22.706000  -114.669000
  C    -116.596000   22.110900  -115.444000
  C    -117.648000   22.963400  -115.015000
  C    -117.172000   24.051900  -114.254000
  C    -115.883000   23.984500  -113.896000
  H    -117.732000   24.829600  -113.807000
  C    -119.106000   22.885900  -115.473000
  H    -119.366000   23.777700  -116.032000
  H    -119.640000   23.114100  -114.598000
  C    -119.523000   21.590100  -116.093000
  H    -118.904000   21.443500  -116.911000
  H    -119.234000   20.795900  -115.351000
  C    -121.018000   21.587900  -116.401000
  H    -121.589000   21.459700  -115.490000
  H    -121.278000   22.457100  -117.018000
  H    -121.346000   20.740300  -117.024000
  S    -114.022000   25.915800  -113.906000
  C    -113.526000   26.671300  -112.406000
  C    -114.328000   26.335800  -111.367000
  C    -115.311000   25.379800  -111.715000
  C    -115.176000   24.921900  -113.028000
  H    -114.117000   26.833900  -110.492000
  C    -116.335000   24.963900  -110.795000
  H    -116.689000   23.934000  -110.961000
  H    -117.211000   25.504400  -111.162000
  C    -116.145000   25.163900  -109.337000
  H    -117.032000   24.958000  -108.761000
  H    -115.949000   26.220000  -109.152000
  C    -115.000000   24.347000  -108.771000
  H    -113.995000   24.472800  -109.241000
  H    -115.164000   23.275500  -108.794000
  H    -114.846000   24.669800  -107.723000
  H    -116.840000   21.274700  -115.983000
  H    -112.836000   27.525200  -112.406000

 Total Charge           Charge          ....    0
 Multiplicity           Mult            ....    1
 Number of Electrons    NEL             ....  134
 Basis Dimension        Dim             ....  322

ORBITAL ENERGIES
----------------

  NO   OCC          E(Eh)            E(eV)
   0   2.0000     -88.966397     -2420.8987
   1   2.0000     -88.959453     -2420.7098
   2   2.0000     -10.323027      -280.9038
   3   2.0000     -10.321962      -280.8749
   4   2.0000     -10.315795      -280.7070
   5   2.0000     -10.313134      -280.6346
   6   2.0000     -10.303809      -280.3809
   7   2.0000     -10.303110      -280.3619
   8   2.0000     -10.285724      -279.8888
   9   2.0000     -10.284936      -279.8673
  10   2.0000     -10.284644      -279.8594
  11   2.0000     -10.283645      -279.8322
  12   2.0000     -10.283160      -279.8190
  13   2.0000     -10.282720      -279.8070
  14   2.0000     -10.282603      -279.8038
  15   2.0000     -10.277164      -279.6559
  16   2.0000      -8.079619      -219.8576
  17   2.0000      -8.074489      -219.7180
  18   2.0000      -6.038326      -164.3112
  19   2.0000      -6.034417      -164.2048
  20   2.0000      -6.032901      -164.1636
  21   2.0000      -6.030143      -164.0885
  22   2.0000      -6.028971      -164.0566
  23   2.0000      -6.025324      -163.9574
  24   2.0000      -1.007866       -27.4254
  25   2.0000      -0.981797       -26.7161
  26   2.0000      -0.923909       -25.1409
  27   2.0000      -0.919563       -25.0226
  28   2.0000      -0.869569       -23.6622
  29   2.0000      -0.851945       -23.1826
  30   2.0000      -0.845486       -23.0068
  31   2.0000      -0.818805       -22.2808
  32   2.0000      -0.786753       -21.4086
  33   2.0000      -0.774297       -21.0697
  34   2.0000      -0.723379       -19.6842
  35   2.0000      -0.707639       -19.2558
  36   2.0000      -0.693074       -18.8595
  37   2.0000      -0.658645       -17.9226
  38   2.0000      -0.642804       -17.4916
  39   2.0000      -0.615512       -16.7489
  40   2.0000      -0.603442       -16.4205
  41   2.0000      -0.577035       -15.7019
  42   2.0000      -0.575053       -15.6480
  43   2.0000      -0.560366       -15.2483
  44   2.0000      -0.540137       -14.6979
  45   2.0000      -0.522794       -14.2260
  46   2.0000      -0.522359       -14.2141
  47   2.0000      -0.518606       -14.1120
  48   2.0000      -0.506259       -13.7760
  49   2.0000      -0.498687       -13.5700
  50   2.0000      -0.494051       -13.4438
  51   2.0000      -0.479332       -13.0433
  52   2.0000      -0.468683       -12.7535
  53   2.0000      -0.466728       -12.7003
  54   2.0000      -0.459610       -12.5066
  55   2.0000      -0.446942       -12.1619
  56   2.0000      -0.443820       -12.0769
  57   2.0000      -0.431909       -11.7528
  58   2.0000      -0.430404       -11.7119
  59   2.0000      -0.428425       -11.6580
  60   2.0000      -0.422689       -11.5019
  61   2.0000      -0.422028       -11.4840
  62   2.0000      -0.419434       -11.4134
  63   2.0000      -0.339659        -9.2426
  64   2.0000      -0.329664        -8.9706
  65   2.0000      -0.321896        -8.7592
  66   2.0000      -0.296495        -8.0680
  67   0.0000       0.036142         0.9835
  68   0.0000       0.062757         1.7077
  69   0.0000       0.105136         2.8609
  70   0.0000       0.117168         3.1883
  71   0.0000       0.134169         3.6509

MULLIKEN ATOMIC CHARGES
-----------------------
   0 S :    0.110310
   1 C :   -0.090736
   2 C :   -0.102825
   3 C :    0.051296
   4 C :   -0.149594
   5 H :   -0.008943
   6 C :    0.088930
   7 H :    0.026692
   8 H :   -0.001278
   9 C :   -0.079123
  10 H :    0.021055
  11 H :    0.037872
  12 C :   -0.026219
  13 H :    0.037419
  14 H :    0.035515
  15 H :    0.028861
  16 S :    0.094757
  17 C :   -0.083844
  18 C :   -0.033866
  19 C :    0.011798
  20 C :   -0.186040
  21 H :   -0.012818
  22 C :    0.063087
  23 H :    0.026021
  24 H :    0.031917
  25 C :   -0.033916
  26 H :    0.025003
  27 H :    0.018444
  28 C :   -0.077362
  29 H :    0.042412
  30 H :    0.031809
  31 H :    0.032637
  32 H :    0.011459
  33 H :    0.059271
Sum of atomic charges:   -0.0000000

LOEWDIN ATOMIC CHARGES
----------------------
   0 S :    0.379009
   1 C :   -0.170444
   2 C :   -0.043868
   3 C :   -0.068059
   4 C :   -0.197173
   5 H :    0.026087
   6 C :   -0.032047
   7 H :    0.033915
   8 H :    0.024211
   9 C :   -0.041921
  10 H :    0.013413
  11 H :    0.033270
  12 C :   -0.062729
  13 H :    0.028216
  14 H :    0.029072
  15 H :    0.028538
  16 S :    0.399652
  17 C :   -0.176087
  18 C :   -0.069837
  19 C :   -0.046883
  20 C :   -0.200179
  21 H :    0.021669
  22 C :   -0.044984
  23 H :    0.037008
  24 H :    0.040201
  25 C :   -0.042012
  26 H :    0.028975
  27 H :    0.022238
  28 C :   -0.070618
  29 H :    0.030116
  30 H :    0.023983
  31 H :    0.028883
  32 H :    0.007845
  33 H :    0.030541

  Mayer bond orders larger than 0.100000
B(  0-S ,  1-C ) :   1.0980 B(  0-S ,  4-C ) :   1.1407 B(  1-C ,  2-C ) :   1.6373
B(  1-C , 32-H ) :   0.9707 B(  2-C ,  3-C ) :   1.2089 B(  2-C ,  6-C ) :   1.0079
B(  3-C ,  4-C ) :   1.6235 B(  3-C ,  5-H ) :   0.9976 B(  4-C , 20-C ) :   0.9996
B(  6-C ,  7-H ) :   0.9304 B(  6-C ,  8-H ) :   0.9263 B(  6-C ,  9-C ) :   1.0680
B(  9-C , 10-H ) :   0.9478 B(  9-C , 11-H ) :   0.9556 B(  9-C , 12-C ) :   1.0862
B( 12-C , 13-H ) :   0.9747 B( 12-C , 14-H ) :   0.9726 B( 12-C , 15-H ) :   0.9720
B( 16-S , 17-C ) :   1.1575 B( 16-S , 20-C ) :   1.1517 B( 17-C , 18-C ) :   1.6202
B( 17-C , 20-C ) :   0.1016 B( 17-C , 33-H ) :   0.9591 B( 18-C , 19-C ) :   1.2066
B( 18-C , 21-H ) :   1.0092 B( 19-C , 20-C ) :   1.5924 B( 19-C , 22-C ) :   1.0566
B( 22-C , 23-H ) :   0.9230 B( 22-C , 24-H ) :   0.9065 B( 22-C , 25-C ) :   1.1013
B( 25-C , 26-H ) :   0.9451 B( 25-C , 27-H ) :   0.9399 B( 25-C , 28-C ) :   1.0829
B( 28-C , 29-H ) :   0.9736 B( 28-C , 30-H ) :   0.9732 B( 28-C , 31-H ) :   0.9732

Dispersion correction           -0.013772646
FINAL SINGLE POINT ENERGY     -1339.858363379480

DIPOLE MOMENT
-------------
                                X             Y             Z
Electronic contribution:     21.07389       6.44208      -9.53606
Nuclear contribution   :    -21.83120      -6.23423       9.92608
                        -----------------------------------------
Total Dipole Moment    :     -0.75731       0.20785       0.39001
                        -----------------------------------------
Magnitude (a.u.)       :      0.87683
Magnitude (Debye)      :      2.22873

Rotational constants in cm-1:     0.022508     0.007052     0.006054
Rotational constants in MHz :   674.785977   211.418008   181.496875

                             ****ORCA TERMINATED NORMALLY****
TOTAL RUN TIME: 0 days 0 hours 0 minutes 21 seconds 302 msec
