                         Program Version 4.2.1 -  RELEASE  -
|  1> ! wB97X-D3 SP def2-SVP
|  2> %pal
|  3> nprocs 24
|  4> end
|  5>
|  6> * xyz 0 1
|  7> S 	 31.7682 	 -36.8931 	 -129.753
|  8> C 	 32.014 	 -35.1246 	 -129.808
|  9> C 	 31.4429 	 -34.718 	 -131.028
| 10> C 	 30.5046 	 -35.6332 	 -131.554
| 11> C 	 30.3831 	 -36.7796 	 -130.83
| 12> H 	 29.8715 	 -35.4803 	 -132.392
| 13> C 	 31.5898 	 -33.3161 	 -131.637
| 14> H 	 31.5725 	 -33.5453 	 -132.769
| 15> H 	 32.6122 	 -33.1424 	 -131.46
| 16> C 	 30.6428 	 -32.2369 	 -131.121
| 17> H 	 30.7026 	 -31.4233 	 -131.811
| 18> H 	 29.6025 	 -32.6198 	 -131.277
| 19> C 	 30.943 	 -31.7256 	 -129.612
| 20> H 	 30.4161 	 -30.8221 	 -129.192
| 21> H 	 30.7447 	 -32.5933 	 -128.978
| 22> H 	 31.947 	 -31.5026 	 -129.426
| 23> S 	 30.1252 	 -39.4071 	 -131.401
| 24> C 	 28.5414 	 -40.0099 	 -131.803
| 25> C 	 27.5889 	 -39.029 	 -131.925
| 26> C 	 28.1263 	 -37.7466 	 -131.548
| 27> C 	 29.4913 	 -37.7945 	 -131.172
| 28> H 	 26.5982 	 -39.2479 	 -132.227
| 29> C 	 27.2729 	 -36.4943 	 -131.641
| 30> H 	 26.5631 	 -36.6659 	 -132.426
| 31> H 	 27.8154 	 -35.6364 	 -132.1
| 32> C 	 26.544 	 -35.8724 	 -130.393
| 33> H 	 27.2019 	 -35.1783 	 -129.918
| 34> H 	 26.2368 	 -36.5683 	 -129.629
| 35> C 	 25.2364 	 -35.0725 	 -130.8
| 36> H 	 25.3972 	 -34.314 	 -131.483
| 37> H 	 24.6989 	 -34.6981 	 -129.94
| 38> H 	 24.7073 	 -35.8247 	 -131.395
| 39> H 	 32.7619 	 -34.5421 	 -129.286
| 40> H 	 28.2712 	 -41.1043 	 -131.773
| 41> *
| 42>
| 43>                          ****END OF INPUT****

CARTESIAN COORDINATES (ANGSTROEM)
---------------------------------
  S     31.768200  -36.893100  -129.753000
  C     32.014000  -35.124600  -129.808000
  C     31.442900  -34.718000  -131.028000
  C     30.504600  -35.633200  -131.554000
  C     30.383100  -36.779600  -130.830000
  H     29.871500  -35.480300  -132.392000
  C     31.589800  -33.316100  -131.637000
  H     31.572500  -33.545300  -132.769000
  H     32.612200  -33.142400  -131.460000
  C     30.642800  -32.236900  -131.121000
  H     30.702600  -31.423300  -131.811000
  H     29.602500  -32.619800  -131.277000
  C     30.943000  -31.725600  -129.612000
  H     30.416100  -30.822100  -129.192000
  H     30.744700  -32.593300  -128.978000
  H     31.947000  -31.502600  -129.426000
  S     30.125200  -39.407100  -131.401000
  C     28.541400  -40.009900  -131.803000
  C     27.588900  -39.029000  -131.925000
  C     28.126300  -37.746600  -131.548000
  C     29.491300  -37.794500  -131.172000
  H     26.598200  -39.247900  -132.227000
  C     27.272900  -36.494300  -131.641000
  H     26.563100  -36.665900  -132.426000
  H     27.815400  -35.636400  -132.100000
  C     26.544000  -35.872400  -130.393000
  H     27.201900  -35.178300  -129.918000
  H     26.236800  -36.568300  -129.629000
  C     25.236400  -35.072500  -130.800000
  H     25.397200  -34.314000  -131.483000
  H     24.698900  -34.698100  -129.940000
  H     24.707300  -35.824700  -131.395000
  H     32.761900  -34.542100  -129.286000
  H     28.271200  -41.104300  -131.773000

 Total Charge           Charge          ....    0
 Multiplicity           Mult            ....    1
 Number of Electrons    NEL             ....  134
 Basis Dimension        Dim             ....  322

ORBITAL ENERGIES
----------------

  NO   OCC          E(Eh)            E(eV)
   0   2.0000     -88.966255     -2420.8949
   1   2.0000     -88.964210     -2420.8392
   2   2.0000     -10.324828      -280.9528
   3   2.0000     -10.322963      -280.9021
   4   2.0000     -10.319547      -280.8091
   5   2.0000     -10.319196      -280.7996
   6   2.0000     -10.308984      -280.5217
   7   2.0000     -10.302209      -280.3374
   8   2.0000     -10.299274      -280.2575
   9   2.0000     -10.295912      -280.1660
  10   2.0000     -10.294341      -280.1233
  11   2.0000     -10.294179      -280.1188
  12   2.0000     -10.286534      -279.9108
  13   2.0000     -10.285402      -279.8800
  14   2.0000     -10.285326      -279.8779
  15   2.0000     -10.273951      -279.5684
  16   2.0000      -8.081385      -219.9057
  17   2.0000      -8.078389      -219.8242
  18   2.0000      -6.039880      -164.3535
  19   2.0000      -6.037066      -164.2769
  20   2.0000      -6.035870      -164.2444
  21   2.0000      -6.033332      -164.1753
  22   2.0000      -6.032118      -164.1423
  23   2.0000      -6.028613      -164.0469
  24   2.0000      -1.011124       -27.5141
  25   2.0000      -0.983480       -26.7619
  26   2.0000      -0.908056       -24.7095
  27   2.0000      -0.900569       -24.5057
  28   2.0000      -0.873750       -23.7759
  29   2.0000      -0.851997       -23.1840
  30   2.0000      -0.839953       -22.8563
  31   2.0000      -0.813018       -22.1233
  32   2.0000      -0.784060       -21.3353
  33   2.0000      -0.771570       -20.9955
  34   2.0000      -0.717227       -19.5167
  35   2.0000      -0.708649       -19.2833
  36   2.0000      -0.696675       -18.9575
  37   2.0000      -0.663683       -18.0597
  38   2.0000      -0.637919       -17.3587
  39   2.0000      -0.621905       -16.9229
  40   2.0000      -0.595652       -16.2085
  41   2.0000      -0.566122       -15.4050
  42   2.0000      -0.557797       -15.1784
  43   2.0000      -0.542314       -14.7571
  44   2.0000      -0.533795       -14.5253
  45   2.0000      -0.526829       -14.3358
  46   2.0000      -0.519478       -14.1357
  47   2.0000      -0.511665       -13.9231
  48   2.0000      -0.506241       -13.7755
  49   2.0000      -0.497395       -13.5348
  50   2.0000      -0.492168       -13.3926
  51   2.0000      -0.484862       -13.1938
  52   2.0000      -0.472362       -12.8536
  53   2.0000      -0.465858       -12.6766
  54   2.0000      -0.457556       -12.4507
  55   2.0000      -0.448940       -12.2163
  56   2.0000      -0.445368       -12.1191
  57   2.0000      -0.440546       -11.9879
  58   2.0000      -0.434705       -11.8289
  59   2.0000      -0.429721       -11.6933
  60   2.0000      -0.423259       -11.5175
  61   2.0000      -0.411317       -11.1925
  62   2.0000      -0.404681       -11.0119
  63   2.0000      -0.350844        -9.5469
  64   2.0000      -0.333531        -9.0758
  65   2.0000      -0.324366        -8.8264
  66   2.0000      -0.284197        -7.7334
  67   0.0000       0.013685         0.3724
  68   0.0000       0.065597         1.7850
  69   0.0000       0.096239         2.6188
  70   0.0000       0.116054         3.1580
  71   0.0000       0.130304         3.5458

MULLIKEN ATOMIC CHARGES
-----------------------
   0 S :    0.097519
   1 C :   -0.102855
   2 C :   -0.123349
   3 C :    0.020828
   4 C :   -0.114170
   5 H :    0.002820
   6 C :    0.033736
   7 H :    0.044029
   8 H :    0.009310
   9 C :   -0.016874
  10 H :    0.027286
  11 H :    0.032839
  12 C :   -0.067806
  13 H :    0.050498
  14 H :    0.041865
  15 H :    0.014288
  16 S :    0.106051
  17 C :   -0.108196
  18 C :   -0.016352
  19 C :   -0.033001
  20 C :   -0.145157
  21 H :    0.008953
  22 C :    0.031666
  23 H :    0.005011
  24 H :    0.020072
  25 C :   -0.040249
  26 H :    0.028940
  27 H :    0.031592
  28 C :   -0.050468
  29 H :    0.012727
  30 H :    0.044896
  31 H :    0.022592
  32 H :    0.052342
  33 H :    0.078618
Sum of atomic charges:   -0.0000000

LOEWDIN ATOMIC CHARGES
----------------------
   0 S :    0.380528
   1 C :   -0.189660
   2 C :   -0.059207
   3 C :   -0.056133
   4 C :   -0.188451
   5 H :    0.025103
   6 C :   -0.039017
   7 H :    0.044805
   8 H :    0.019867
   9 C :   -0.032757
  10 H :    0.019987
  11 H :    0.030084
  12 C :   -0.070711
  13 H :    0.036916
  14 H :    0.028742
  15 H :    0.014630
  16 S :    0.409120
  17 C :   -0.195632
  18 C :   -0.064431
  19 C :   -0.054235
  20 C :   -0.194365
  21 H :    0.028737
  22 C :   -0.040076
  23 H :    0.024694
  24 H :    0.033020
  25 C :   -0.028909
  26 H :    0.018971
  27 H :    0.022463
  28 C :   -0.058484
  29 H :    0.010947
  30 H :    0.028077
  31 H :    0.025022
  32 H :    0.028879
  33 H :    0.041477

  Mayer bond orders larger than 0.100000
B(  0-S ,  1-C ) :   1.1168 B(  0-S ,  4-C ) :   1.1274 B(  1-C ,  2-C ) :   1.5910
B(  1-C ,  4-C ) :   0.1067 B(  1-C , 32-H ) :   0.9717 B(  2-C ,  3-C ) :   1.2355
B(  2-C ,  6-C ) :   1.0152 B(  3-C ,  4-C ) :   1.5397 B(  3-C ,  5-H ) :   1.0042
B(  4-C , 20-C ) :   1.1292 B(  6-C ,  7-H ) :   0.9445 B(  6-C ,  8-H ) :   0.9377
B(  6-C ,  9-C ) :   1.0558 B(  9-C , 10-H ) :   0.9568 B(  9-C , 11-H ) :   0.9590
B(  9-C , 12-C ) :   1.0497 B( 12-C , 13-H ) :   0.9785 B( 12-C , 14-H ) :   0.9758
B( 12-C , 15-H ) :   0.9784 B( 16-S , 17-C ) :   1.1554 B( 16-S , 20-C ) :   1.1366
B( 17-C , 18-C ) :   1.6085 B( 17-C , 33-H ) :   0.9560 B( 18-C , 19-C ) :   1.2475
B( 18-C , 21-H ) :   0.9987 B( 19-C , 20-C ) :   1.5650 B( 19-C , 22-C ) :   1.0479
B( 22-C , 23-H ) :   0.9390 B( 22-C , 24-H ) :   0.9325 B( 22-C , 25-C ) :   1.0446
B( 25-C , 26-H ) :   0.9585 B( 25-C , 27-H ) :   0.9648 B( 25-C , 28-C ) :   1.0703
B( 28-C , 29-H ) :   0.9797 B( 28-C , 30-H ) :   0.9761 B( 28-C , 31-H ) :   0.9782

Dispersion correction           -0.014455513
FINAL SINGLE POINT ENERGY     -1339.837807238566

DIPOLE MOMENT
-------------
                                X             Y             Z
Electronic contribution:     15.38312     -26.95658       0.39376
Nuclear contribution   :    -15.71417      27.51369      -0.69251
                        -----------------------------------------
Total Dipole Moment    :     -0.33105       0.55711      -0.29875
                        -----------------------------------------
Magnitude (a.u.)       :      0.71360
Magnitude (Debye)      :      1.81382

Rotational constants in cm-1:     0.017100     0.009758     0.006829
Rotational constants in MHz :   512.645955   292.530845   204.734858

                             ****ORCA TERMINATED NORMALLY****
TOTAL RUN TIME: 0 days 0 hours 0 minutes 21 seconds 937 msec
