                         Program Version 4.2.1 -  RELEASE  -
|  1> ! wB97X-D3 SP def2-SVP
|  2> %pal
|  3> nprocs 24
|  4> end
|  5>
|  6> * xyz 0 1
|  7> S 	 -130.292 	 58.8514 	 -60.2006
|  8> C 	 -131.291 	 59.4066 	 -58.9999
|  9> C 	 -130.589 	 59.665 	 -57.8574
| 10> C 	 -129.206 	 59.6888 	 -58.1139
| 11> C 	 -128.853 	 59.2368 	 -59.3717
| 12> H 	 -128.471 	 59.9951 	 -57.3916
| 13> C 	 -131.239 	 60.1194 	 -56.5166
| 14> H 	 -131.273 	 59.3343 	 -55.7662
| 15> H 	 -132.286 	 60.2734 	 -56.7198
| 16> C 	 -130.721 	 61.3944 	 -55.8577
| 17> H 	 -129.659 	 61.2624 	 -55.7305
| 18> H 	 -130.691 	 62.2362 	 -56.576
| 19> C 	 -131.404 	 61.7327 	 -54.5846
| 20> H 	 -131.172 	 62.6878 	 -54.18
| 21> H 	 -132.514 	 61.7343 	 -54.6937
| 22> H 	 -131.236 	 61.0145 	 -53.7736
| 23> S 	 -127.122 	 57.4917 	 -60.568
| 24> C 	 -125.557 	 58.1955 	 -60.865
| 25> C 	 -125.339 	 59.4156 	 -60.3092
| 26> C 	 -126.507 	 59.9787 	 -59.8161
| 27> C 	 -127.534 	 59.0376 	 -59.8237
| 28> H 	 -124.414 	 59.9818 	 -60.4089
| 29> C 	 -126.537 	 61.3719 	 -59.1685
| 30> H 	 -125.616 	 61.9074 	 -59.4635
| 31> H 	 -126.403 	 61.2474 	 -58.1195
| 32> C 	 -127.601 	 62.3123 	 -59.6964
| 33> H 	 -128.604 	 61.8414 	 -59.762
| 34> H 	 -127.279 	 62.537 	 -60.7645
| 35> C 	 -127.771 	 63.5425 	 -58.7898
| 36> H 	 -128.628 	 64.051 	 -59.0043
| 37> H 	 -126.88 	 64.2066 	 -58.8814
| 38> H 	 -127.8 	 63.1267 	 -57.7856
| 39> H 	 -132.368 	 59.274 	 -58.9962
| 40> H 	 -124.636 	 57.6785 	 -61.2621
| 41> *
| 42>
| 43>                          ****END OF INPUT****

CARTESIAN COORDINATES (ANGSTROEM)
---------------------------------
  S    -130.292000   58.851400  -60.200600
  C    -131.291000   59.406600  -58.999900
  C    -130.589000   59.665000  -57.857400
  C    -129.206000   59.688800  -58.113900
  C    -128.853000   59.236800  -59.371700
  H    -128.471000   59.995100  -57.391600
  C    -131.239000   60.119400  -56.516600
  H    -131.273000   59.334300  -55.766200
  H    -132.286000   60.273400  -56.719800
  C    -130.721000   61.394400  -55.857700
  H    -129.659000   61.262400  -55.730500
  H    -130.691000   62.236200  -56.576000
  C    -131.404000   61.732700  -54.584600
  H    -131.172000   62.687800  -54.180000
  H    -132.514000   61.734300  -54.693700
  H    -131.236000   61.014500  -53.773600
  S    -127.122000   57.491700  -60.568000
  C    -125.557000   58.195500  -60.865000
  C    -125.339000   59.415600  -60.309200
  C    -126.507000   59.978700  -59.816100
  C    -127.534000   59.037600  -59.823700
  H    -124.414000   59.981800  -60.408900
  C    -126.537000   61.371900  -59.168500
  H    -125.616000   61.907400  -59.463500
  H    -126.403000   61.247400  -58.119500
  C    -127.601000   62.312300  -59.696400
  H    -128.604000   61.841400  -59.762000
  H    -127.279000   62.537000  -60.764500
  C    -127.771000   63.542500  -58.789800
  H    -128.628000   64.051000  -59.004300
  H    -126.880000   64.206600  -58.881400
  H    -127.800000   63.126700  -57.785600
  H    -132.368000   59.274000  -58.996200
  H    -124.636000   57.678500  -61.262100

 Total Charge           Charge          ....    0
 Multiplicity           Mult            ....    1
 Number of Electrons    NEL             ....  134
 Basis Dimension        Dim             ....  322

ORBITAL ENERGIES
----------------

  NO   OCC          E(Eh)            E(eV)
   0   2.0000     -88.972411     -2421.0624
   1   2.0000     -88.964205     -2420.8391
   2   2.0000     -10.320744      -280.8417
   3   2.0000     -10.316839      -280.7355
   4   2.0000     -10.314563      -280.6735
   5   2.0000     -10.303945      -280.3846
   6   2.0000     -10.297263      -280.2028
   7   2.0000     -10.296532      -280.1829
   8   2.0000     -10.291032      -280.0332
   9   2.0000     -10.290753      -280.0256
  10   2.0000     -10.285729      -279.8889
  11   2.0000     -10.285646      -279.8866
  12   2.0000     -10.285583      -279.8849
  13   2.0000     -10.284429      -279.8535
  14   2.0000     -10.278420      -279.6900
  15   2.0000     -10.272032      -279.5162
  16   2.0000      -8.086863      -220.0547
  17   2.0000      -8.081418      -219.9066
  18   2.0000      -6.045188      -164.4979
  19   2.0000      -6.041720      -164.4036
  20   2.0000      -6.039633      -164.3468
  21   2.0000      -6.037533      -164.2896
  22   2.0000      -6.035447      -164.2329
  23   2.0000      -6.032459      -164.1516
  24   2.0000      -1.021754       -27.8033
  25   2.0000      -0.994960       -27.0742
  26   2.0000      -0.914566       -24.8866
  27   2.0000      -0.910510       -24.7762
  28   2.0000      -0.879003       -23.9189
  29   2.0000      -0.857431       -23.3319
  30   2.0000      -0.851937       -23.1824
  31   2.0000      -0.813257       -22.1298
  32   2.0000      -0.787076       -21.4174
  33   2.0000      -0.772589       -21.0232
  34   2.0000      -0.713471       -19.4145
  35   2.0000      -0.699766       -19.0416
  36   2.0000      -0.685553       -18.6548
  37   2.0000      -0.662751       -18.0344
  38   2.0000      -0.642047       -17.4710
  39   2.0000      -0.624532       -16.9944
  40   2.0000      -0.598137       -16.2761
  41   2.0000      -0.571523       -15.5519
  42   2.0000      -0.565644       -15.3920
  43   2.0000      -0.556793       -15.1511
  44   2.0000      -0.531569       -14.4647
  45   2.0000      -0.527718       -14.3599
  46   2.0000      -0.514176       -13.9914
  47   2.0000      -0.509878       -13.8745
  48   2.0000      -0.503047       -13.6886
  49   2.0000      -0.498380       -13.5616
  50   2.0000      -0.493029       -13.4160
  51   2.0000      -0.486679       -13.2432
  52   2.0000      -0.474692       -12.9170
  53   2.0000      -0.471391       -12.8272
  54   2.0000      -0.462761       -12.5924
  55   2.0000      -0.456682       -12.4270
  56   2.0000      -0.443527       -12.0690
  57   2.0000      -0.438800       -11.9403
  58   2.0000      -0.433896       -11.8069
  59   2.0000      -0.425115       -11.5680
  60   2.0000      -0.422628       -11.5003
  61   2.0000      -0.409877       -11.1533
  62   2.0000      -0.408407       -11.1133
  63   2.0000      -0.348966        -9.4959
  64   2.0000      -0.339803        -9.2465
  65   2.0000      -0.331588        -9.0230
  66   2.0000      -0.285693        -7.7741
  67   0.0000       0.031006         0.8437
  68   0.0000       0.074701         2.0327
  69   0.0000       0.106781         2.9056
  70   0.0000       0.126810         3.4507
  71   0.0000       0.133181         3.6240

MULLIKEN ATOMIC CHARGES
-----------------------
   0 S :    0.134823
   1 C :   -0.121380
   2 C :   -0.068984
   3 C :    0.000732
   4 C :   -0.161790
   5 H :   -0.001254
   6 C :    0.074935
   7 H :    0.028471
   8 H :    0.001211
   9 C :   -0.073136
  10 H :    0.018122
  11 H :    0.029077
  12 C :   -0.032616
  13 H :    0.026615
  14 H :    0.025405
  15 H :    0.028848
  16 S :    0.134985
  17 C :   -0.093324
  18 C :   -0.038688
  19 C :   -0.034272
  20 C :   -0.165507
  21 H :    0.018556
  22 C :    0.057328
  23 H :    0.010362
  24 H :    0.033746
  25 C :   -0.126549
  26 H :    0.058165
  27 H :    0.038763
  28 C :    0.010498
  29 H :    0.020295
  30 H :    0.029616
  31 H :    0.020589
  32 H :    0.051828
  33 H :    0.064534
Sum of atomic charges:    0.0000000

LOEWDIN ATOMIC CHARGES
----------------------
   0 S :    0.465683
   1 C :   -0.229208
   2 C :   -0.066003
   3 C :   -0.063267
   4 C :   -0.219377
   5 H :    0.025283
   6 C :   -0.027442
   7 H :    0.029398
   8 H :    0.023633
   9 C :   -0.048546
  10 H :    0.018494
  11 H :    0.027717
  12 C :   -0.065115
  13 H :    0.023869
  14 H :    0.028929
  15 H :    0.027478
  16 S :    0.409346
  17 C :   -0.197595
  18 C :   -0.073940
  19 C :   -0.050036
  20 C :   -0.192541
  21 H :    0.034470
  22 C :   -0.033511
  23 H :    0.033437
  24 H :    0.023830
  25 C :   -0.045003
  26 H :    0.026659
  27 H :    0.030194
  28 C :   -0.052636
  29 H :    0.012755
  30 H :    0.027753
  31 H :    0.025253
  32 H :    0.030836
  33 H :    0.039204

  Mayer bond orders larger than 0.100000
B(  0-S ,  1-C ) :   1.1792 B(  0-S ,  4-C ) :   1.1689 B(  1-C ,  2-C ) :   1.5745
B(  1-C , 32-H ) :   0.9603 B(  2-C ,  3-C ) :   1.2942 B(  2-C ,  6-C ) :   1.0126
B(  3-C ,  4-C ) :   1.5076 B(  3-C ,  5-H ) :   1.0040 B(  4-C , 20-C ) :   1.0908
B(  6-C ,  7-H ) :   0.9371 B(  6-C ,  8-H ) :   0.9419 B(  6-C ,  9-C ) :   1.0623
B(  9-C , 10-H ) :   0.9464 B(  9-C , 11-H ) :   0.9542 B(  9-C , 12-C ) :   1.0916
B( 12-C , 13-H ) :   0.9708 B( 12-C , 14-H ) :   0.9724 B( 12-C , 15-H ) :   0.9709
B( 16-S , 17-C ) :   1.1419 B( 16-S , 20-C ) :   1.1382 B( 17-C , 18-C ) :   1.6312
B( 17-C , 33-H ) :   0.9509 B( 18-C , 19-C ) :   1.2684 B( 18-C , 21-H ) :   0.9794
B( 19-C , 20-C ) :   1.5835 B( 19-C , 22-C ) :   1.0287 B( 22-C , 23-H ) :   0.9333
B( 22-C , 24-H ) :   0.9405 B( 22-C , 25-C ) :   1.0395 B( 25-C , 26-H ) :   0.9609
B( 25-C , 27-H ) :   0.9550 B( 25-C , 28-C ) :   1.0744 B( 28-C , 29-H ) :   0.9737
B( 28-C , 30-H ) :   0.9732 B( 28-C , 31-H ) :   0.9748

Dispersion correction           -0.015195428
FINAL SINGLE POINT ENERGY     -1339.872699862150

DIPOLE MOMENT
-------------
                                X             Y             Z
Electronic contribution:      4.30135     -24.68383     -20.31899
Nuclear contribution   :     -4.20066      25.09975      20.79369
                        -----------------------------------------
Total Dipole Moment    :      0.10070       0.41592       0.47469
                        -----------------------------------------
Magnitude (a.u.)       :      0.63911
Magnitude (Debye)      :      1.62449

Rotational constants in cm-1:     0.019799     0.009213     0.007250
Rotational constants in MHz :   593.545554   276.194228   217.345306

                             ****ORCA TERMINATED NORMALLY****
TOTAL RUN TIME: 0 days 0 hours 0 minutes 22 seconds 668 msec
