                         Program Version 4.2.1 -  RELEASE  -
|  1> ! wB97X-D3 SP def2-SVP
|  2> %pal
|  3> nprocs 24
|  4> end
|  5>
|  6> * xyz 0 1
|  7> S 	 -104.345 	 61.3763 	 -97.1749
|  8> C 	 -105.371 	 60.8478 	 -98.445
|  9> C 	 -104.982 	 61.2336 	 -99.6807
| 10> C 	 -103.808 	 62.0521 	 -99.648
| 11> C 	 -103.28 	 62.1403 	 -98.3721
| 12> H 	 -103.346 	 62.6657 	 -100.439
| 13> C 	 -105.676 	 60.9332 	 -100.991
| 14> H 	 -105.534 	 61.6943 	 -101.712
| 15> H 	 -106.713 	 60.8685 	 -100.841
| 16> C 	 -105.111 	 59.6768 	 -101.715
| 17> H 	 -104.038 	 59.7153 	 -101.884
| 18> H 	 -105.268 	 58.8435 	 -100.965
| 19> C 	 -105.874 	 59.278 	 -102.971
| 20> H 	 -106.702 	 58.8764 	 -102.578
| 21> H 	 -106.067 	 60.0758 	 -103.694
| 22> H 	 -105.314 	 58.4564 	 -103.402
| 23> S 	 -102.376 	 64.2961 	 -96.9567
| 24> C 	 -100.727 	 64.6918 	 -96.9785
| 25> C 	 -99.9798 	 64.0138 	 -97.8748
| 26> C 	 -100.789 	 62.9294 	 -98.4515
| 27> C 	 -102.117 	 62.9164 	 -97.9931
| 28> H 	 -98.9508 	 64.3836 	 -98.1268
| 29> C 	 -100.178 	 61.9535 	 -99.4297
| 30> H 	 -100.396 	 60.9012 	 -99.2971
| 31> H 	 -99.1396 	 61.8934 	 -99.2082
| 32> C 	 -100.237 	 62.2729 	 -100.939
| 33> H 	 -99.6107 	 63.1404 	 -101.061
| 34> H 	 -101.238 	 62.5843 	 -101.298
| 35> C 	 -99.6875 	 61.1281 	 -101.819
| 36> H 	 -100.293 	 60.2422 	 -101.723
| 37> H 	 -98.6841 	 60.9001 	 -101.415
| 38> H 	 -99.67 	 61.4492 	 -102.86
| 39> H 	 -106.281 	 60.374 	 -98.2034
| 40> H 	 -100.307 	 65.6568 	 -96.6379
| 41> *
| 42>
| 43>                          ****END OF INPUT****

CARTESIAN COORDINATES (ANGSTROEM)
---------------------------------
  S    -104.345000   61.376300  -97.174900
  C    -105.371000   60.847800  -98.445000
  C    -104.982000   61.233600  -99.680700
  C    -103.808000   62.052100  -99.648000
  C    -103.280000   62.140300  -98.372100
  H    -103.346000   62.665700  -100.439000
  C    -105.676000   60.933200  -100.991000
  H    -105.534000   61.694300  -101.712000
  H    -106.713000   60.868500  -100.841000
  C    -105.111000   59.676800  -101.715000
  H    -104.038000   59.715300  -101.884000
  H    -105.268000   58.843500  -100.965000
  C    -105.874000   59.278000  -102.971000
  H    -106.702000   58.876400  -102.578000
  H    -106.067000   60.075800  -103.694000
  H    -105.314000   58.456400  -103.402000
  S    -102.376000   64.296100  -96.956700
  C    -100.727000   64.691800  -96.978500
  C    -99.979800   64.013800  -97.874800
  C    -100.789000   62.929400  -98.451500
  C    -102.117000   62.916400  -97.993100
  H    -98.950800   64.383600  -98.126800
  C    -100.178000   61.953500  -99.429700
  H    -100.396000   60.901200  -99.297100
  H    -99.139600   61.893400  -99.208200
  C    -100.237000   62.272900  -100.939000
  H    -99.610700   63.140400  -101.061000
  H    -101.238000   62.584300  -101.298000
  C    -99.687500   61.128100  -101.819000
  H    -100.293000   60.242200  -101.723000
  H    -98.684100   60.900100  -101.415000
  H    -99.670000   61.449200  -102.860000
  H    -106.281000   60.374000  -98.203400
  H    -100.307000   65.656800  -96.637900

 Total Charge           Charge          ....    0
 Multiplicity           Mult            ....    1
 Number of Electrons    NEL             ....  134
 Basis Dimension        Dim             ....  322

ORBITAL ENERGIES
----------------

  NO   OCC          E(Eh)            E(eV)
   0   2.0000     -88.965301     -2420.8689
   1   2.0000     -88.962936     -2420.8046
   2   2.0000     -10.327591      -281.0280
   3   2.0000     -10.324832      -280.9529
   4   2.0000     -10.309545      -280.5370
   5   2.0000     -10.309516      -280.5362
   6   2.0000     -10.306809      -280.4625
   7   2.0000     -10.298310      -280.2313
   8   2.0000     -10.296966      -280.1947
   9   2.0000     -10.296005      -280.1685
  10   2.0000     -10.287260      -279.9306
  11   2.0000     -10.285174      -279.8738
  12   2.0000     -10.284614      -279.8586
  13   2.0000     -10.283397      -279.8255
  14   2.0000     -10.279785      -279.7272
  15   2.0000     -10.268522      -279.4207
  16   2.0000      -8.080517      -219.8821
  17   2.0000      -8.078984      -219.8403
  18   2.0000      -6.038901      -164.3268
  19   2.0000      -6.037392      -164.2858
  20   2.0000      -6.035086      -164.2231
  21   2.0000      -6.033368      -164.1763
  22   2.0000      -6.031252      -164.1187
  23   2.0000      -6.029689      -164.0762
  24   2.0000      -1.009355       -27.4659
  25   2.0000      -0.989015       -26.9125
  26   2.0000      -0.912619       -24.8336
  27   2.0000      -0.907518       -24.6948
  28   2.0000      -0.874415       -23.7941
  29   2.0000      -0.854373       -23.2487
  30   2.0000      -0.847805       -23.0700
  31   2.0000      -0.817960       -22.2578
  32   2.0000      -0.785546       -21.3758
  33   2.0000      -0.771408       -20.9911
  34   2.0000      -0.705515       -19.1981
  35   2.0000      -0.695866       -18.9355
  36   2.0000      -0.692278       -18.8378
  37   2.0000      -0.658767       -17.9260
  38   2.0000      -0.644810       -17.5462
  39   2.0000      -0.619435       -16.8557
  40   2.0000      -0.598298       -16.2805
  41   2.0000      -0.575183       -15.6515
  42   2.0000      -0.565818       -15.3967
  43   2.0000      -0.556732       -15.1495
  44   2.0000      -0.528879       -14.3915
  45   2.0000      -0.524724       -14.2785
  46   2.0000      -0.516596       -14.0573
  47   2.0000      -0.515558       -14.0291
  48   2.0000      -0.504253       -13.7214
  49   2.0000      -0.498439       -13.5632
  50   2.0000      -0.488565       -13.2945
  51   2.0000      -0.481683       -13.1073
  52   2.0000      -0.472827       -12.8663
  53   2.0000      -0.471200       -12.8220
  54   2.0000      -0.462373       -12.5818
  55   2.0000      -0.451307       -12.2807
  56   2.0000      -0.438954       -11.9445
  57   2.0000      -0.437830       -11.9140
  58   2.0000      -0.436166       -11.8687
  59   2.0000      -0.426858       -11.6154
  60   2.0000      -0.425353       -11.5744
  61   2.0000      -0.413389       -11.2489
  62   2.0000      -0.409456       -11.1419
  63   2.0000      -0.346122        -9.4185
  64   2.0000      -0.330245        -8.9864
  65   2.0000      -0.326702        -8.8900
  66   2.0000      -0.297975        -8.1083
  67   0.0000       0.034659         0.9431
  68   0.0000       0.070713         1.9242
  69   0.0000       0.113234         3.0813
  70   0.0000       0.124129         3.3777
  71   0.0000       0.128416         3.4944

MULLIKEN ATOMIC CHARGES
-----------------------
   0 S :    0.116391
   1 C :   -0.112739
   2 C :   -0.060464
   3 C :    0.025721
   4 C :   -0.171267
   5 H :    0.032847
   6 C :    0.117855
   7 H :    0.004368
   8 H :    0.004846
   9 C :   -0.134077
  10 H :    0.028951
  11 H :    0.025201
  12 C :    0.025754
  13 H :    0.001843
  14 H :    0.038688
  15 H :    0.029488
  16 S :    0.113342
  17 C :   -0.075604
  18 C :   -0.068994
  19 C :   -0.028032
  20 C :   -0.153679
  21 H :    0.043978
  22 C :    0.065806
  23 H :    0.018758
  24 H :   -0.002942
  25 C :   -0.074065
  26 H :    0.016120
  27 H :    0.018388
  28 C :   -0.044188
  29 H :    0.034896
  30 H :    0.029060
  31 H :    0.042346
  32 H :    0.030453
  33 H :    0.060950
Sum of atomic charges:    0.0000000

LOEWDIN ATOMIC CHARGES
----------------------
   0 S :    0.407281
   1 C :   -0.193804
   2 C :   -0.062105
   3 C :   -0.052099
   4 C :   -0.192272
   5 H :    0.038432
   6 C :   -0.024322
   7 H :    0.023150
   8 H :    0.021529
   9 C :   -0.036794
  10 H :    0.018112
  11 H :    0.026293
  12 C :   -0.054875
  13 H :    0.010276
  14 H :    0.026382
  15 H :    0.031514
  16 S :    0.427070
  17 C :   -0.208778
  18 C :   -0.080617
  19 C :   -0.047474
  20 C :   -0.205023
  21 H :    0.044250
  22 C :   -0.041069
  23 H :    0.029708
  24 H :    0.026006
  25 C :   -0.036968
  26 H :    0.018143
  27 H :    0.016387
  28 C :   -0.060954
  29 H :    0.022541
  30 H :    0.026890
  31 H :    0.028954
  32 H :    0.018396
  33 H :    0.035842

  Mayer bond orders larger than 0.100000
B(  0-S ,  1-C ) :   1.1401 B(  0-S ,  4-C ) :   1.1448 B(  1-C ,  2-C ) :   1.6265
B(  1-C , 32-H ) :   0.9728 B(  2-C ,  3-C ) :   1.2192 B(  2-C ,  6-C ) :   1.0344
B(  3-C ,  4-C ) :   1.5988 B(  3-C ,  5-H ) :   0.9855 B(  4-C , 20-C ) :   1.0411
B(  6-C ,  7-H ) :   0.9351 B(  6-C ,  8-H ) :   0.9383 B(  6-C ,  9-C ) :   1.0543
B(  9-C , 10-H ) :   0.9616 B(  9-C , 11-H ) :   0.9601 B(  9-C , 12-C ) :   1.0708
B( 12-C , 13-H ) :   0.9744 B( 12-C , 14-H ) :   0.9752 B( 12-C , 15-H ) :   0.9700
B( 16-S , 17-C ) :   1.1636 B( 16-S , 20-C ) :   1.1436 B( 17-C , 18-C ) :   1.6461
B( 17-C , 33-H ) :   0.9519 B( 18-C , 19-C ) :   1.2241 B( 18-C , 21-H ) :   0.9809
B( 19-C , 20-C ) :   1.6056 B( 19-C , 22-C ) :   1.0480 B( 22-C , 23-H ) :   0.9411
B( 22-C , 24-H ) :   0.9249 B( 22-C , 25-C ) :   1.0529 B( 25-C , 26-H ) :   0.9532
B( 25-C , 27-H ) :   0.9561 B( 25-C , 28-C ) :   1.0821 B( 28-C , 29-H ) :   0.9763
B( 28-C , 30-H ) :   0.9733 B( 28-C , 31-H ) :   0.9736

Dispersion correction           -0.014009097
FINAL SINGLE POINT ENERGY     -1339.871552052163

DIPOLE MOMENT
-------------
                                X             Y             Z
Electronic contribution:     -3.72093      13.63389      29.26648
Nuclear contribution   :      3.81045     -13.65040     -29.95805
                        -----------------------------------------
Total Dipole Moment    :      0.08952      -0.01651      -0.69157
                        -----------------------------------------
Magnitude (a.u.)       :      0.69753
Magnitude (Debye)      :      1.77299

Rotational constants in cm-1:     0.017759     0.009143     0.006504
Rotational constants in MHz :   532.412441   274.102327   194.978929

                             ****ORCA TERMINATED NORMALLY****
TOTAL RUN TIME: 0 days 0 hours 0 minutes 21 seconds 604 msec
