                         Program Version 4.2.1 -  RELEASE  -
|  1> ! wB97X-D3 SP def2-SVP
|  2> %pal
|  3> nprocs 24
|  4> end
|  5>
|  6> * xyz 0 1
|  7> S 	 -42.0977 	 -11.1656 	 16.0105
|  8> C 	 -40.839 	 -12.2699 	 16.4975
|  9> C 	 -39.8191 	 -11.6102 	 17.2119
| 10> C 	 -40.0448 	 -10.1624 	 17.2491
| 11> C 	 -41.1851 	 -9.76768 	 16.555
| 12> H 	 -39.3538 	 -9.39606 	 17.6408
| 13> C 	 -38.6037 	 -12.1667 	 18.0512
| 14> H 	 -37.7411 	 -11.5552 	 17.9151
| 15> H 	 -38.3553 	 -13.2175 	 17.754
| 16> C 	 -38.8056 	 -12.3683 	 19.5166
| 17> H 	 -39.165 	 -11.5053 	 20.0416
| 18> H 	 -39.5592 	 -13.1394 	 19.7036
| 19> C 	 -37.5126 	 -12.8853 	 20.117
| 20> H 	 -37.5852 	 -12.9539 	 21.2104
| 21> H 	 -37.3128 	 -13.9235 	 19.7637
| 22> H 	 -36.6423 	 -12.1862 	 19.9562
| 23> S 	 -42.2882 	 -7.97837 	 14.8508
| 24> C 	 -42.7204 	 -6.29303 	 15.4123
| 25> C 	 -42.2523 	 -6.0957 	 16.6644
| 26> C 	 -41.6395 	 -7.2274 	 17.2387
| 27> C 	 -41.6573 	 -8.39213 	 16.3821
| 28> H 	 -42.3951 	 -5.07838 	 17.0712
| 29> C 	 -41.1009 	 -7.2347 	 18.605
| 30> H 	 -40.6375 	 -8.19025 	 18.8323
| 31> H 	 -41.923 	 -7.09746 	 19.2525
| 32> C 	 -39.9955 	 -6.19029 	 18.8178
| 33> H 	 -39.8868 	 -6.05416 	 19.8933
| 34> H 	 -40.44 	 -5.25064 	 18.4887
| 35> C 	 -38.6382 	 -6.28935 	 18.1236
| 36> H 	 -38.0009 	 -5.4679 	 18.2346
| 37> H 	 -38.8164 	 -6.58384 	 17.067
| 38> H 	 -38.1349 	 -7.23578 	 18.5172
| 39> H 	 -41.0201 	 -13.343 	 16.5758
| 40> H 	 -43.1408 	 -5.56846 	 14.7864
| 41> *
| 42>
| 43>                          ****END OF INPUT****

CARTESIAN COORDINATES (ANGSTROEM)
---------------------------------
  S    -42.097700  -11.165600   16.010500
  C    -40.839000  -12.269900   16.497500
  C    -39.819100  -11.610200   17.211900
  C    -40.044800  -10.162400   17.249100
  C    -41.185100   -9.767680   16.555000
  H    -39.353800   -9.396060   17.640800
  C    -38.603700  -12.166700   18.051200
  H    -37.741100  -11.555200   17.915100
  H    -38.355300  -13.217500   17.754000
  C    -38.805600  -12.368300   19.516600
  H    -39.165000  -11.505300   20.041600
  H    -39.559200  -13.139400   19.703600
  C    -37.512600  -12.885300   20.117000
  H    -37.585200  -12.953900   21.210400
  H    -37.312800  -13.923500   19.763700
  H    -36.642300  -12.186200   19.956200
  S    -42.288200   -7.978370   14.850800
  C    -42.720400   -6.293030   15.412300
  C    -42.252300   -6.095700   16.664400
  C    -41.639500   -7.227400   17.238700
  C    -41.657300   -8.392130   16.382100
  H    -42.395100   -5.078380   17.071200
  C    -41.100900   -7.234700   18.605000
  H    -40.637500   -8.190250   18.832300
  H    -41.923000   -7.097460   19.252500
  C    -39.995500   -6.190290   18.817800
  H    -39.886800   -6.054160   19.893300
  H    -40.440000   -5.250640   18.488700
  C    -38.638200   -6.289350   18.123600
  H    -38.000900   -5.467900   18.234600
  H    -38.816400   -6.583840   17.067000
  H    -38.134900   -7.235780   18.517200
  H    -41.020100  -13.343000   16.575800
  H    -43.140800   -5.568460   14.786400

 Total Charge           Charge          ....    0
 Multiplicity           Mult            ....    1
 Number of Electrons    NEL             ....  134
 Basis Dimension        Dim             ....  322

ORBITAL ENERGIES
----------------

  NO   OCC          E(Eh)            E(eV)
   0   2.0000     -88.970163     -2421.0012
   1   2.0000     -88.964029     -2420.8343
   2   2.0000     -10.334713      -281.2218
   3   2.0000     -10.331162      -281.1252
   4   2.0000     -10.320626      -280.8385
   5   2.0000     -10.316240      -280.7192
   6   2.0000     -10.314462      -280.6708
   7   2.0000     -10.303861      -280.3823
   8   2.0000     -10.300347      -280.2867
   9   2.0000     -10.296654      -280.1862
  10   2.0000     -10.296013      -280.1688
  11   2.0000     -10.285868      -279.8927
  12   2.0000     -10.284587      -279.8579
  13   2.0000     -10.282890      -279.8117
  14   2.0000     -10.282599      -279.8038
  15   2.0000     -10.282414      -279.7987
  16   2.0000      -8.084705      -219.9960
  17   2.0000      -8.078481      -219.8266
  18   2.0000      -6.043296      -164.4464
  19   2.0000      -6.039244      -164.3362
  20   2.0000      -6.036905      -164.2725
  21   2.0000      -6.035362      -164.2306
  22   2.0000      -6.032975      -164.1656
  23   2.0000      -6.029390      -164.0680
  24   2.0000      -1.004697       -27.3392
  25   2.0000      -0.980855       -26.6904
  26   2.0000      -0.918753       -25.0005
  27   2.0000      -0.913182       -24.8489
  28   2.0000      -0.875244       -23.8166
  29   2.0000      -0.849072       -23.1044
  30   2.0000      -0.843803       -22.9610
  31   2.0000      -0.817751       -22.2521
  32   2.0000      -0.779521       -21.2119
  33   2.0000      -0.771454       -20.9923
  34   2.0000      -0.705610       -19.2006
  35   2.0000      -0.698948       -19.0193
  36   2.0000      -0.696181       -18.9441
  37   2.0000      -0.656901       -17.8752
  38   2.0000      -0.641113       -17.4456
  39   2.0000      -0.622125       -16.9289
  40   2.0000      -0.600960       -16.3530
  41   2.0000      -0.576096       -15.6764
  42   2.0000      -0.569256       -15.4902
  43   2.0000      -0.563629       -15.3371
  44   2.0000      -0.534839       -14.5537
  45   2.0000      -0.525315       -14.2945
  46   2.0000      -0.517223       -14.0744
  47   2.0000      -0.509079       -13.8527
  48   2.0000      -0.503662       -13.7053
  49   2.0000      -0.497332       -13.5331
  50   2.0000      -0.495601       -13.4860
  51   2.0000      -0.479216       -13.0401
  52   2.0000      -0.472211       -12.8495
  53   2.0000      -0.467762       -12.7284
  54   2.0000      -0.461138       -12.5482
  55   2.0000      -0.453960       -12.3529
  56   2.0000      -0.445302       -12.1173
  57   2.0000      -0.438955       -11.9446
  58   2.0000      -0.435919       -11.8620
  59   2.0000      -0.421641       -11.4734
  60   2.0000      -0.420816       -11.4510
  61   2.0000      -0.410526       -11.1710
  62   2.0000      -0.407126       -11.0785
  63   2.0000      -0.358912        -9.7665
  64   2.0000      -0.331663        -9.0250
  65   2.0000      -0.328621        -8.9422
  66   2.0000      -0.285800        -7.7770
  67   0.0000       0.022267         0.6059
  68   0.0000       0.073069         1.9883
  69   0.0000       0.107253         2.9185
  70   0.0000       0.111460         3.0330
  71   0.0000       0.127712         3.4752

MULLIKEN ATOMIC CHARGES
-----------------------
   0 S :    0.118079
   1 C :   -0.117394
   2 C :   -0.068817
   3 C :   -0.000403
   4 C :   -0.132316
   5 H :    0.021155
   6 C :    0.047727
   7 H :    0.022019
   8 H :    0.019847
   9 C :   -0.049428
  10 H :    0.019615
  11 H :    0.024661
  12 C :   -0.081275
  13 H :    0.033137
  14 H :    0.039255
  15 H :    0.038892
  16 S :    0.088271
  17 C :   -0.084752
  18 C :   -0.038771
  19 C :   -0.054539
  20 C :   -0.141927
  21 H :    0.038645
  22 C :    0.119475
  23 H :    0.003279
  24 H :    0.025764
  25 C :   -0.096753
  26 H :    0.023518
  27 H :    0.009359
  28 C :   -0.038623
  29 H :    0.041500
  30 H :    0.043843
  31 H :    0.026728
  32 H :    0.062362
  33 H :    0.037871
Sum of atomic charges:   -0.0000000

LOEWDIN ATOMIC CHARGES
----------------------
   0 S :    0.412153
   1 C :   -0.208361
   2 C :   -0.053469
   3 C :   -0.069522
   4 C :   -0.193090
   5 H :    0.032947
   6 C :   -0.029473
   7 H :    0.025006
   8 H :    0.034434
   9 C :   -0.044364
  10 H :    0.016909
  11 H :    0.026123
  12 C :   -0.069232
  13 H :    0.026778
  14 H :    0.028670
  15 H :    0.028909
  16 S :    0.394448
  17 C :   -0.153967
  18 C :   -0.071195
  19 C :   -0.061497
  20 C :   -0.209651
  21 H :    0.043229
  22 C :   -0.028677
  23 H :    0.026454
  24 H :    0.032443
  25 C :   -0.041809
  26 H :    0.021826
  27 H :    0.016092
  28 C :   -0.063827
  29 H :    0.022083
  30 H :    0.032411
  31 H :    0.026516
  32 H :    0.032443
  33 H :    0.018260

  Mayer bond orders larger than 0.100000
B(  0-S ,  1-C ) :   1.1340 B(  0-S ,  4-C ) :   1.1558 B(  1-C ,  2-C ) :   1.6200
B(  1-C , 32-H ) :   0.9637 B(  2-C ,  3-C ) :   1.2338 B(  2-C ,  6-C ) :   1.0149
B(  3-C ,  4-C ) :   1.5724 B(  3-C ,  5-H ) :   0.9789 B(  4-C , 20-C ) :   1.0501
B(  6-C ,  7-H ) :   0.9475 B(  6-C ,  8-H ) :   0.9450 B(  6-C ,  9-C ) :   1.0675
B(  9-C , 10-H ) :   0.9515 B(  9-C , 11-H ) :   0.9511 B(  9-C , 12-C ) :   1.0866
B( 12-C , 13-H ) :   0.9721 B( 12-C , 14-H ) :   0.9731 B( 12-C , 15-H ) :   0.9733
B( 16-S , 17-C ) :   1.1370 B( 16-S , 20-C ) :   1.1656 B( 17-C , 18-C ) :   1.6153
B( 17-C , 20-C ) :   0.1043 B( 17-C , 33-H ) :   0.9755 B( 18-C , 19-C ) :   1.2451
B( 18-C , 21-H ) :   0.9827 B( 19-C , 20-C ) :   1.5279 B( 19-C , 22-C ) :   1.0579
B( 22-C , 23-H ) :   0.9308 B( 22-C , 24-H ) :   0.9213 B( 22-C , 25-C ) :   1.0703
B( 25-C , 26-H ) :   0.9540 B( 25-C , 27-H ) :   0.9548 B( 25-C , 28-C ) :   1.0745
B( 28-C , 29-H ) :   0.9721 B( 28-C , 30-H ) :   0.9720 B( 28-C , 31-H ) :   0.9679

Dispersion correction           -0.014362480
FINAL SINGLE POINT ENERGY     -1339.872710820959

DIPOLE MOMENT
-------------
                                X             Y             Z
Electronic contribution:    -21.75164       0.31960     -22.61428
Nuclear contribution   :     22.07102      -0.12071      23.28336
                        -----------------------------------------
Total Dipole Moment    :      0.31938       0.19889       0.66908
                        -----------------------------------------
Magnitude (a.u.)       :      0.76761
Magnitude (Debye)      :      1.95112

Rotational constants in cm-1:     0.018969     0.008923     0.006462
Rotational constants in MHz :   568.682353   267.517929   193.712291

                             ****ORCA TERMINATED NORMALLY****
TOTAL RUN TIME: 0 days 0 hours 0 minutes 21 seconds 766 msec
