                         Program Version 4.2.1 -  RELEASE  -
|  1> ! wB97X-D3 SP def2-SVP
|  2> %pal
|  3> nprocs 24
|  4> end
|  5>
|  6> * xyz 0 1
|  7> S 	 -147.793 	 17.1984 	 -5.2661
|  8> C 	 -147.033 	 16.9903 	 -6.75346
|  9> C 	 -146.504 	 15.6849 	 -6.78044
| 10> C 	 -147.074 	 14.8405 	 -5.77862
| 11> C 	 -147.751 	 15.5486 	 -4.8464
| 12> H 	 -147.09 	 13.7955 	 -5.70351
| 13> C 	 -145.71 	 15.1229 	 -7.98306
| 14> H 	 -145.197 	 15.9116 	 -8.45964
| 15> H 	 -146.375 	 14.6857 	 -8.68742
| 16> C 	 -144.705 	 13.993 	 -7.50113
| 17> H 	 -144.067 	 14.5117 	 -6.79187
| 18> H 	 -145.154 	 13.1118 	 -6.95209
| 19> C 	 -143.733 	 13.4731 	 -8.55492
| 20> H 	 -143.381 	 14.3505 	 -9.10708
| 21> H 	 -142.865 	 12.9725 	 -8.17574
| 22> H 	 -144.373 	 12.826 	 -9.219
| 23> S 	 -148.366 	 16.1844 	 -2.26435
| 24> C 	 -149.032 	 14.9007 	 -1.22346
| 25> C 	 -149.345 	 13.7524 	 -1.92581
| 26> C 	 -149.058 	 13.9068 	 -3.30443
| 27> C 	 -148.353 	 15.0573 	 -3.64479
| 28> H 	 -149.8 	 12.9665 	 -1.39649
| 29> C 	 -149.354 	 12.7117 	 -4.24975
| 30> H 	 -149.536 	 12.9557 	 -5.26152
| 31> H 	 -150.256 	 12.1845 	 -3.87108
| 32> C 	 -148.216 	 11.7078 	 -4.24395
| 33> H 	 -148.306 	 11.0399 	 -3.43737
| 34> H 	 -147.255 	 12.1312 	 -4.23086
| 35> C 	 -148.262 	 10.7367 	 -5.40234
| 36> H 	 -147.433 	 10.0321 	 -5.36167
| 37> H 	 -148.257 	 11.2052 	 -6.46009
| 38> H 	 -149.21 	 10.2158 	 -5.35349
| 39> H 	 -146.722 	 17.6916 	 -7.51386
| 40> H 	 -149.017 	 15.0287 	 -0.167219
| 41> *
| 42>
| 43>                          ****END OF INPUT****

CARTESIAN COORDINATES (ANGSTROEM)
---------------------------------
  S    -147.793000   17.198400   -5.266100
  C    -147.033000   16.990300   -6.753460
  C    -146.504000   15.684900   -6.780440
  C    -147.074000   14.840500   -5.778620
  C    -147.751000   15.548600   -4.846400
  H    -147.090000   13.795500   -5.703510
  C    -145.710000   15.122900   -7.983060
  H    -145.197000   15.911600   -8.459640
  H    -146.375000   14.685700   -8.687420
  C    -144.705000   13.993000   -7.501130
  H    -144.067000   14.511700   -6.791870
  H    -145.154000   13.111800   -6.952090
  C    -143.733000   13.473100   -8.554920
  H    -143.381000   14.350500   -9.107080
  H    -142.865000   12.972500   -8.175740
  H    -144.373000   12.826000   -9.219000
  S    -148.366000   16.184400   -2.264350
  C    -149.032000   14.900700   -1.223460
  C    -149.345000   13.752400   -1.925810
  C    -149.058000   13.906800   -3.304430
  C    -148.353000   15.057300   -3.644790
  H    -149.800000   12.966500   -1.396490
  C    -149.354000   12.711700   -4.249750
  H    -149.536000   12.955700   -5.261520
  H    -150.256000   12.184500   -3.871080
  C    -148.216000   11.707800   -4.243950
  H    -148.306000   11.039900   -3.437370
  H    -147.255000   12.131200   -4.230860
  C    -148.262000   10.736700   -5.402340
  H    -147.433000   10.032100   -5.361670
  H    -148.257000   11.205200   -6.460090
  H    -149.210000   10.215800   -5.353490
  H    -146.722000   17.691600   -7.513860
  H    -149.017000   15.028700   -0.167219

 Total Charge           Charge          ....    0
 Multiplicity           Mult            ....    1
 Number of Electrons    NEL             ....  134
 Basis Dimension        Dim             ....  322

ORBITAL ENERGIES
----------------

  NO   OCC          E(Eh)            E(eV)
   0   2.0000     -88.965894     -2420.8851
   1   2.0000     -88.963512     -2420.8202
   2   2.0000     -10.329491      -281.0797
   3   2.0000     -10.320984      -280.8482
   4   2.0000     -10.318267      -280.7743
   5   2.0000     -10.311141      -280.5804
   6   2.0000     -10.307466      -280.4804
   7   2.0000     -10.302879      -280.3556
   8   2.0000     -10.294110      -280.1170
   9   2.0000     -10.292336      -280.0687
  10   2.0000     -10.291388      -280.0429
  11   2.0000     -10.288935      -279.9761
  12   2.0000     -10.286106      -279.8992
  13   2.0000     -10.282355      -279.7971
  14   2.0000     -10.279233      -279.7121
  15   2.0000     -10.276008      -279.6244
  16   2.0000      -8.082462      -219.9350
  17   2.0000      -8.077715      -219.8058
  18   2.0000      -6.040918      -164.3817
  19   2.0000      -6.036610      -164.2645
  20   2.0000      -6.036276      -164.2554
  21   2.0000      -6.033254      -164.1732
  22   2.0000      -6.032420      -164.1505
  23   2.0000      -6.028348      -164.0397
  24   2.0000      -1.018468       -27.7139
  25   2.0000      -0.985875       -26.8270
  26   2.0000      -0.916364       -24.9355
  27   2.0000      -0.906361       -24.6633
  28   2.0000      -0.876753       -23.8577
  29   2.0000      -0.855389       -23.2763
  30   2.0000      -0.846591       -23.0369
  31   2.0000      -0.819962       -22.3123
  32   2.0000      -0.781685       -21.2707
  33   2.0000      -0.770427       -20.9644
  34   2.0000      -0.709451       -19.3052
  35   2.0000      -0.697954       -18.9923
  36   2.0000      -0.689107       -18.7516
  37   2.0000      -0.669123       -18.2078
  38   2.0000      -0.646915       -17.6035
  39   2.0000      -0.623396       -16.9635
  40   2.0000      -0.601046       -16.3553
  41   2.0000      -0.576439       -15.6857
  42   2.0000      -0.572360       -15.5747
  43   2.0000      -0.566369       -15.4117
  44   2.0000      -0.530099       -14.4247
  45   2.0000      -0.529120       -14.3981
  46   2.0000      -0.520849       -14.1730
  47   2.0000      -0.511891       -13.9293
  48   2.0000      -0.510869       -13.9015
  49   2.0000      -0.504920       -13.7396
  50   2.0000      -0.496434       -13.5086
  51   2.0000      -0.481638       -13.1060
  52   2.0000      -0.474460       -12.9107
  53   2.0000      -0.466605       -12.6970
  54   2.0000      -0.461679       -12.5629
  55   2.0000      -0.452099       -12.3022
  56   2.0000      -0.441178       -12.0051
  57   2.0000      -0.436868       -11.8878
  58   2.0000      -0.430337       -11.7101
  59   2.0000      -0.426115       -11.5952
  60   2.0000      -0.419763       -11.4223
  61   2.0000      -0.412302       -11.2193
  62   2.0000      -0.410188       -11.1618
  63   2.0000      -0.360321        -9.8048
  64   2.0000      -0.335282        -9.1235
  65   2.0000      -0.326874        -8.8947
  66   2.0000      -0.282833        -7.6963
  67   0.0000       0.025261         0.6874
  68   0.0000       0.071645         1.9496
  69   0.0000       0.106205         2.8900
  70   0.0000       0.115498         3.1429
  71   0.0000       0.126123         3.4320

MULLIKEN ATOMIC CHARGES
-----------------------
   0 S :    0.126504
   1 C :   -0.095088
   2 C :   -0.111215
   3 C :    0.021922
   4 C :   -0.096816
   5 H :   -0.034790
   6 C :    0.107543
   7 H :    0.005527
   8 H :    0.034613
   9 C :   -0.152674
  10 H :    0.027287
  11 H :    0.046925
  12 C :   -0.030190
  13 H :    0.023256
  14 H :    0.040000
  15 H :    0.035027
  16 S :    0.077680
  17 C :   -0.084541
  18 C :   -0.012663
  19 C :   -0.032226
  20 C :   -0.137175
  21 H :    0.009646
  22 C :    0.071449
  23 H :    0.015609
  24 H :    0.025406
  25 C :   -0.040814
  26 H :    0.012161
  27 H :    0.028050
  28 C :   -0.079131
  29 H :    0.038490
  30 H :    0.033874
  31 H :    0.023951
  32 H :    0.049465
  33 H :    0.052939
Sum of atomic charges:    0.0000000

LOEWDIN ATOMIC CHARGES
----------------------
   0 S :    0.452885
   1 C :   -0.224264
   2 C :   -0.056406
   3 C :   -0.062203
   4 C :   -0.205332
   5 H :    0.021627
   6 C :   -0.019988
   7 H :    0.021218
   8 H :    0.026103
   9 C :   -0.049725
  10 H :    0.021461
  11 H :    0.027319
  12 C :   -0.066270
  13 H :    0.024405
  14 H :    0.024299
  15 H :    0.028422
  16 S :    0.370864
  17 C :   -0.160061
  18 C :   -0.063153
  19 C :   -0.051577
  20 C :   -0.178263
  21 H :    0.029183
  22 C :   -0.024257
  23 H :    0.020723
  24 H :    0.035870
  25 C :   -0.040120
  26 H :    0.021614
  27 H :    0.015256
  28 C :   -0.067251
  29 H :    0.025817
  30 H :    0.025755
  31 H :    0.021248
  32 H :    0.033513
  33 H :    0.021286

  Mayer bond orders larger than 0.100000
B(  0-S ,  1-C ) :   1.1574 B(  0-S ,  4-C ) :   1.1563 B(  1-C ,  2-C ) :   1.5803
B(  1-C , 32-H ) :   0.9703 B(  2-C ,  3-C ) :   1.2369 B(  2-C ,  6-C ) :   1.0362
B(  3-C ,  4-C ) :   1.5627 B(  3-C ,  5-H ) :   1.0078 B(  4-C , 20-C ) :   1.0743
B(  6-C ,  7-H ) :   0.9365 B(  6-C ,  8-H ) :   0.9445 B(  6-C ,  9-C ) :   1.0500
B(  9-C , 10-H ) :   0.9609 B(  9-C , 11-H ) :   0.9561 B(  9-C , 12-C ) :   1.0855
B( 12-C , 13-H ) :   0.9722 B( 12-C , 14-H ) :   0.9751 B( 12-C , 15-H ) :   0.9765
B( 16-S , 17-C ) :   1.1475 B( 16-S , 20-C ) :   1.1200 B( 17-C , 18-C ) :   1.6188
B( 17-C , 20-C ) :   0.1088 B( 17-C , 33-H ) :   0.9707 B( 18-C , 19-C ) :   1.2105
B( 18-C , 21-H ) :   1.0022 B( 19-C , 20-C ) :   1.5986 B( 19-C , 22-C ) :   1.0557
B( 22-C , 23-H ) :   0.9455 B( 22-C , 24-H ) :   0.9293 B( 22-C , 25-C ) :   1.0587
B( 25-C , 26-H ) :   0.9455 B( 25-C , 27-H ) :   0.9572 B( 25-C , 28-C ) :   1.0860
B( 28-C , 29-H ) :   0.9738 B( 28-C , 30-H ) :   0.9728 B( 28-C , 31-H ) :   0.9727

Dispersion correction           -0.014287365
FINAL SINGLE POINT ENERGY     -1339.861301155468

DIPOLE MOMENT
-------------
                                X             Y             Z
Electronic contribution:    -11.00755      25.58896      17.48668
Nuclear contribution   :     11.14732     -26.23223     -17.68003
                        -----------------------------------------
Total Dipole Moment    :      0.13977      -0.64327      -0.19334
                        -----------------------------------------
Magnitude (a.u.)       :      0.68609
Magnitude (Debye)      :      1.74390

Rotational constants in cm-1:     0.017416     0.009689     0.006792
Rotational constants in MHz :   522.124603   290.456091   203.618909

                             ****ORCA TERMINATED NORMALLY****
TOTAL RUN TIME: 0 days 0 hours 0 minutes 20 seconds 934 msec
