                         Program Version 4.2.1 -  RELEASE  -
|  1> ! wB97X-D3 SP def2-SVP
|  2> %pal
|  3> nprocs 24
|  4> end
|  5>
|  6> * xyz 0 1
|  7> S 	 12.3556 	 -17.4037 	 -117.819
|  8> C 	 11.4504 	 -15.9319 	 -118.017
|  9> C 	 10.4802 	 -15.83 	 -116.992
| 10> C 	 10.4111 	 -16.9968 	 -116.214
| 11> C 	 11.3975 	 -17.9613 	 -116.454
| 12> H 	 9.67158 	 -17.1883 	 -115.414
| 13> C 	 9.53545 	 -14.6603 	 -116.809
| 14> H 	 9.60835 	 -13.8092 	 -117.494
| 15> H 	 9.9969 	 -14.2024 	 -115.961
| 16> C 	 8.00144 	 -14.8869 	 -116.517
| 17> H 	 7.54731 	 -15.6289 	 -117.176
| 18> H 	 8.02565 	 -15.3709 	 -115.577
| 19> C 	 7.26501 	 -13.5615 	 -116.481
| 20> H 	 6.27238 	 -13.5576 	 -116.04
| 21> H 	 7.85081 	 -12.8967 	 -115.856
| 22> H 	 7.13792 	 -13.1383 	 -117.477
| 23> S 	 10.7105 	 -20.6209 	 -116.623
| 24> C 	 10.9049 	 -21.7039 	 -115.297
| 25> C 	 11.5949 	 -21.0571 	 -114.273
| 26> C 	 11.8403 	 -19.6564 	 -114.446
| 27> C 	 11.5144 	 -19.2619 	 -115.763
| 28> H 	 11.9594 	 -21.5928 	 -113.378
| 29> C 	 12.6024 	 -18.8027 	 -113.47
| 30> H 	 12.4718 	 -17.7424 	 -113.818
| 31> H 	 13.5955 	 -19.0663 	 -113.652
| 32> C 	 12.0703 	 -18.9945 	 -112.017
| 33> H 	 12.7295 	 -18.4637 	 -111.315
| 34> H 	 12.1103 	 -20.0745 	 -111.677
| 35> C 	 10.6668 	 -18.4535 	 -111.752
| 36> H 	 9.94843 	 -19.0837 	 -112.24
| 37> H 	 10.6594 	 -17.4797 	 -112.218
| 38> H 	 10.4226 	 -18.4651 	 -110.688
| 39> H 	 11.4215 	 -15.3069 	 -118.825
| 40> H 	 10.4619 	 -22.6653 	 -115.139
| 41> *
| 42>
| 43>                          ****END OF INPUT****

CARTESIAN COORDINATES (ANGSTROEM)
---------------------------------
  S     12.355600  -17.403700  -117.819000
  C     11.450400  -15.931900  -118.017000
  C     10.480200  -15.830000  -116.992000
  C     10.411100  -16.996800  -116.214000
  C     11.397500  -17.961300  -116.454000
  H      9.671580  -17.188300  -115.414000
  C      9.535450  -14.660300  -116.809000
  H      9.608350  -13.809200  -117.494000
  H      9.996900  -14.202400  -115.961000
  C      8.001440  -14.886900  -116.517000
  H      7.547310  -15.628900  -117.176000
  H      8.025650  -15.370900  -115.577000
  C      7.265010  -13.561500  -116.481000
  H      6.272380  -13.557600  -116.040000
  H      7.850810  -12.896700  -115.856000
  H      7.137920  -13.138300  -117.477000
  S     10.710500  -20.620900  -116.623000
  C     10.904900  -21.703900  -115.297000
  C     11.594900  -21.057100  -114.273000
  C     11.840300  -19.656400  -114.446000
  C     11.514400  -19.261900  -115.763000
  H     11.959400  -21.592800  -113.378000
  C     12.602400  -18.802700  -113.470000
  H     12.471800  -17.742400  -113.818000
  H     13.595500  -19.066300  -113.652000
  C     12.070300  -18.994500  -112.017000
  H     12.729500  -18.463700  -111.315000
  H     12.110300  -20.074500  -111.677000
  C     10.666800  -18.453500  -111.752000
  H      9.948430  -19.083700  -112.240000
  H     10.659400  -17.479700  -112.218000
  H     10.422600  -18.465100  -110.688000
  H     11.421500  -15.306900  -118.825000
  H     10.461900  -22.665300  -115.139000

 Total Charge           Charge          ....    0
 Multiplicity           Mult            ....    1
 Number of Electrons    NEL             ....  134
 Basis Dimension        Dim             ....  322

ORBITAL ENERGIES
----------------

  NO   OCC          E(Eh)            E(eV)
   0   2.0000     -88.967579     -2420.9309
   1   2.0000     -88.964334     -2420.8426
   2   2.0000     -10.332165      -281.1525
   3   2.0000     -10.331750      -281.1412
   4   2.0000     -10.318571      -280.7826
   5   2.0000     -10.309919      -280.5472
   6   2.0000     -10.308045      -280.4962
   7   2.0000     -10.304081      -280.3883
   8   2.0000     -10.295236      -280.1476
   9   2.0000     -10.295050      -280.1426
  10   2.0000     -10.294305      -280.1223
  11   2.0000     -10.293415      -280.0981
  12   2.0000     -10.291860      -280.0557
  13   2.0000     -10.286613      -279.9130
  14   2.0000     -10.279527      -279.7202
  15   2.0000     -10.274760      -279.5904
  16   2.0000      -8.081813      -219.9173
  17   2.0000      -8.078732      -219.8335
  18   2.0000      -6.040261      -164.3639
  19   2.0000      -6.037206      -164.2807
  20   2.0000      -6.036162      -164.2523
  21   2.0000      -6.033118      -164.1695
  22   2.0000      -6.032886      -164.1632
  23   2.0000      -6.029691      -164.0762
  24   2.0000      -1.001040       -27.2397
  25   2.0000      -0.981950       -26.7202
  26   2.0000      -0.910867       -24.7859
  27   2.0000      -0.909765       -24.7560
  28   2.0000      -0.867397       -23.6031
  29   2.0000      -0.851094       -23.1594
  30   2.0000      -0.847525       -23.0623
  31   2.0000      -0.811090       -22.0709
  32   2.0000      -0.783649       -21.3242
  33   2.0000      -0.772303       -21.0154
  34   2.0000      -0.713043       -19.4029
  35   2.0000      -0.701376       -19.0854
  36   2.0000      -0.696855       -18.9624
  37   2.0000      -0.652501       -17.7555
  38   2.0000      -0.641272       -17.4499
  39   2.0000      -0.617113       -16.7925
  40   2.0000      -0.596080       -16.2202
  41   2.0000      -0.569620       -15.5001
  42   2.0000      -0.564424       -15.3587
  43   2.0000      -0.562477       -15.3058
  44   2.0000      -0.539300       -14.6751
  45   2.0000      -0.529405       -14.4058
  46   2.0000      -0.520036       -14.1509
  47   2.0000      -0.507625       -13.8132
  48   2.0000      -0.503088       -13.6897
  49   2.0000      -0.498807       -13.5732
  50   2.0000      -0.488457       -13.2916
  51   2.0000      -0.482609       -13.1325
  52   2.0000      -0.470885       -12.8134
  53   2.0000      -0.464153       -12.6302
  54   2.0000      -0.456643       -12.4259
  55   2.0000      -0.455023       -12.3818
  56   2.0000      -0.449443       -12.2300
  57   2.0000      -0.436990       -11.8911
  58   2.0000      -0.434990       -11.8367
  59   2.0000      -0.428562       -11.6618
  60   2.0000      -0.421555       -11.4711
  61   2.0000      -0.410478       -11.1697
  62   2.0000      -0.406909       -11.0725
  63   2.0000      -0.335739        -9.1359
  64   2.0000      -0.326912        -8.8957
  65   2.0000      -0.321433        -8.7466
  66   2.0000      -0.303014        -8.2454
  67   0.0000       0.036886         1.0037
  68   0.0000       0.050651         1.3783
  69   0.0000       0.119586         3.2541
  70   0.0000       0.125526         3.4157
  71   0.0000       0.131654         3.5825

MULLIKEN ATOMIC CHARGES
-----------------------
   0 S :    0.118633
   1 C :   -0.081330
   2 C :   -0.068085
   3 C :    0.018734
   4 C :   -0.177660
   5 H :    0.024682
   6 C :    0.023429
   7 H :    0.009910
   8 H :    0.029938
   9 C :   -0.046666
  10 H :    0.038055
  11 H :    0.019568
  12 C :   -0.044229
  13 H :    0.033943
  14 H :    0.022284
  15 H :    0.038106
  16 S :    0.109977
  17 C :   -0.075914
  18 C :   -0.062851
  19 C :   -0.047039
  20 C :   -0.176844
  21 H :    0.028780
  22 C :    0.091217
  23 H :    0.039281
  24 H :    0.039394
  25 C :   -0.120312
  26 H :    0.030232
  27 H :    0.034011
  28 C :   -0.026665
  29 H :    0.031848
  30 H :    0.028151
  31 H :    0.041313
  32 H :    0.017642
  33 H :    0.058465
Sum of atomic charges:   -0.0000000

LOEWDIN ATOMIC CHARGES
----------------------
   0 S :    0.417725
   1 C :   -0.193334
   2 C :   -0.059142
   3 C :   -0.065504
   4 C :   -0.211988
   5 H :    0.035521
   6 C :   -0.038432
   7 H :    0.026611
   8 H :    0.034827
   9 C :   -0.036134
  10 H :    0.025380
  11 H :    0.016965
  12 C :   -0.063593
  13 H :    0.028023
  14 H :    0.025011
  15 H :    0.027648
  16 S :    0.408921
  17 C :   -0.191626
  18 C :   -0.083505
  19 C :   -0.048527
  20 C :   -0.195756
  21 H :    0.031613
  22 C :   -0.025661
  23 H :    0.039399
  24 H :    0.032123
  25 C :   -0.046038
  26 H :    0.023227
  27 H :    0.025096
  28 C :   -0.059836
  29 H :    0.022229
  30 H :    0.024162
  31 H :    0.030052
  32 H :    0.012317
  33 H :    0.032227

  Mayer bond orders larger than 0.100000
B(  0-S ,  1-C ) :   1.1608 B(  0-S ,  4-C ) :   1.1607 B(  1-C ,  2-C ) :   1.5534
B(  1-C ,  4-C ) :   0.1086 B(  1-C , 32-H ) :   0.9808 B(  2-C ,  3-C ) :   1.2869
B(  2-C ,  6-C ) :   1.0098 B(  3-C ,  4-C ) :   1.5389 B(  3-C ,  5-H ) :   0.9901
B(  4-C , 20-C ) :   1.0124 B(  6-C ,  7-H ) :   0.9528 B(  6-C ,  8-H ) :   0.9273
B(  6-C ,  9-C ) :   1.0462 B(  9-C , 10-H ) :   0.9647 B(  9-C , 11-H ) :   0.9476
B(  9-C , 12-C ) :   1.0862 B( 12-C , 13-H ) :   0.9724 B( 12-C , 14-H ) :   0.9730
B( 12-C , 15-H ) :   0.9750 B( 16-S , 17-C ) :   1.1748 B( 16-S , 20-C ) :   1.1446
B( 17-C , 18-C ) :   1.5841 B( 17-C , 20-C ) :   0.1057 B( 17-C , 33-H ) :   0.9686
B( 18-C , 19-C ) :   1.2575 B( 18-C , 21-H ) :   0.9789 B( 19-C , 20-C ) :   1.5739
B( 19-C , 22-C ) :   1.0240 B( 22-C , 23-H ) :   0.9368 B( 22-C , 24-H ) :   0.9387
B( 22-C , 25-C ) :   1.0609 B( 25-C , 26-H ) :   0.9583 B( 25-C , 27-H ) :   0.9556
B( 25-C , 28-C ) :   1.0728 B( 28-C , 29-H ) :   0.9735 B( 28-C , 30-H ) :   0.9741
B( 28-C , 31-H ) :   0.9736

Dispersion correction           -0.014149140
FINAL SINGLE POINT ENERGY     -1339.868308128220

DIPOLE MOMENT
-------------
                                X             Y             Z
Electronic contribution:     12.57576     -16.62351     -18.00466
Nuclear contribution   :    -12.90688      16.89770      18.60373
                        -----------------------------------------
Total Dipole Moment    :     -0.33111       0.27419       0.59907
                        -----------------------------------------
Magnitude (a.u.)       :      0.73736
Magnitude (Debye)      :      1.87421

Rotational constants in cm-1:     0.017473     0.008146     0.006867
Rotational constants in MHz :   523.821954   244.218998   205.878641

                             ****ORCA TERMINATED NORMALLY****
TOTAL RUN TIME: 0 days 0 hours 0 minutes 21 seconds 330 msec
