                         Program Version 4.2.1 -  RELEASE  -
|  1> ! wB97X-D3 SP def2-SVP
|  2> %pal
|  3> nprocs 24
|  4> end
|  5>
|  6> * xyz 0 1
|  7> S 	 -142.753 	 26.4278 	 -18.7497
|  8> C 	 -143.994 	 25.31 	 -19.2957
|  9> C 	 -143.737 	 24.7093 	 -20.5172
| 10> C 	 -142.445 	 25.1506 	 -20.9673
| 11> C 	 -141.753 	 25.9464 	 -20.1153
| 12> H 	 -141.9 	 24.8303 	 -21.8714
| 13> C 	 -144.546 	 23.6569 	 -21.1283
| 14> H 	 -145.571 	 23.9222 	 -20.89
| 15> H 	 -144.467 	 22.7506 	 -20.533
| 16> C 	 -144.462 	 23.3993 	 -22.6377
| 17> H 	 -144.557 	 24.353 	 -23.2013
| 18> H 	 -143.505 	 22.8994 	 -22.8958
| 19> C 	 -145.606 	 22.4574 	 -23.0285
| 20> H 	 -146.601 	 22.9495 	 -22.9111
| 21> H 	 -145.617 	 22.0831 	 -24.0379
| 22> H 	 -145.396 	 21.5448 	 -22.4672
| 23> S 	 -140.296 	 28.208 	 -20.2227
| 24> C 	 -138.722 	 28.2124 	 -21.0323
| 25> C 	 -138.257 	 26.9025 	 -21.2069
| 26> C 	 -139.301 	 25.9076 	 -20.8891
| 27> C 	 -140.458 	 26.5124 	 -20.4787
| 28> H 	 -137.283 	 26.606 	 -21.4758
| 29> C 	 -139.012 	 24.4498 	 -20.911
| 30> H 	 -138.421 	 24.2866 	 -21.8134
| 31> H 	 -139.958 	 23.9081 	 -21.0083
| 32> C 	 -138.383 	 23.9479 	 -19.6293
| 33> H 	 -139.139 	 24.2016 	 -18.8607
| 34> H 	 -137.626 	 24.6358 	 -19.3159
| 35> C 	 -137.944 	 22.4786 	 -19.4193
| 36> H 	 -137.764 	 22.2051 	 -18.4158
| 37> H 	 -137.071 	 22.1734 	 -20.0208
| 38> H 	 -138.768 	 21.9083 	 -19.7296
| 39> H 	 -144.927 	 25.1303 	 -18.8222
| 40> H 	 -138.038 	 29.0321 	 -21.0589
| 41> *
| 42>
| 43>                          ****END OF INPUT****

CARTESIAN COORDINATES (ANGSTROEM)
---------------------------------
  S    -142.753000   26.427800  -18.749700
  C    -143.994000   25.310000  -19.295700
  C    -143.737000   24.709300  -20.517200
  C    -142.445000   25.150600  -20.967300
  C    -141.753000   25.946400  -20.115300
  H    -141.900000   24.830300  -21.871400
  C    -144.546000   23.656900  -21.128300
  H    -145.571000   23.922200  -20.890000
  H    -144.467000   22.750600  -20.533000
  C    -144.462000   23.399300  -22.637700
  H    -144.557000   24.353000  -23.201300
  H    -143.505000   22.899400  -22.895800
  C    -145.606000   22.457400  -23.028500
  H    -146.601000   22.949500  -22.911100
  H    -145.617000   22.083100  -24.037900
  H    -145.396000   21.544800  -22.467200
  S    -140.296000   28.208000  -20.222700
  C    -138.722000   28.212400  -21.032300
  C    -138.257000   26.902500  -21.206900
  C    -139.301000   25.907600  -20.889100
  C    -140.458000   26.512400  -20.478700
  H    -137.283000   26.606000  -21.475800
  C    -139.012000   24.449800  -20.911000
  H    -138.421000   24.286600  -21.813400
  H    -139.958000   23.908100  -21.008300
  C    -138.383000   23.947900  -19.629300
  H    -139.139000   24.201600  -18.860700
  H    -137.626000   24.635800  -19.315900
  C    -137.944000   22.478600  -19.419300
  H    -137.764000   22.205100  -18.415800
  H    -137.071000   22.173400  -20.020800
  H    -138.768000   21.908300  -19.729600
  H    -144.927000   25.130300  -18.822200
  H    -138.038000   29.032100  -21.058900

 Total Charge           Charge          ....    0
 Multiplicity           Mult            ....    1
 Number of Electrons    NEL             ....  134
 Basis Dimension        Dim             ....  322

ORBITAL ENERGIES
----------------

  NO   OCC          E(Eh)            E(eV)
   0   2.0000     -88.969988     -2420.9964
   1   2.0000     -88.964015     -2420.8339
   2   2.0000     -10.324446      -280.9424
   3   2.0000     -10.322885      -280.9000
   4   2.0000     -10.318199      -280.7725
   5   2.0000     -10.310306      -280.5577
   6   2.0000     -10.300359      -280.2870
   7   2.0000     -10.299710      -280.2694
   8   2.0000     -10.297711      -280.2149
   9   2.0000     -10.295219      -280.1472
  10   2.0000     -10.290176      -280.0099
  11   2.0000     -10.290162      -280.0095
  12   2.0000     -10.287983      -279.9502
  13   2.0000     -10.282017      -279.7879
  14   2.0000     -10.281032      -279.7611
  15   2.0000     -10.273174      -279.5473
  16   2.0000      -8.084139      -219.9806
  17   2.0000      -8.079129      -219.8443
  18   2.0000      -6.042742      -164.4314
  19   2.0000      -6.038898      -164.3268
  20   2.0000      -6.037741      -164.2953
  21   2.0000      -6.034687      -164.2122
  22   2.0000      -6.033752      -164.1867
  23   2.0000      -6.029587      -164.0734
  24   2.0000      -1.008693       -27.4479
  25   2.0000      -0.983275       -26.7563
  26   2.0000      -0.918934       -25.0055
  27   2.0000      -0.911038       -24.7906
  28   2.0000      -0.871913       -23.7260
  29   2.0000      -0.853472       -23.2242
  30   2.0000      -0.846817       -23.0431
  31   2.0000      -0.818123       -22.2623
  32   2.0000      -0.783835       -21.3292
  33   2.0000      -0.773136       -21.0381
  34   2.0000      -0.712351       -19.3841
  35   2.0000      -0.700331       -19.0570
  36   2.0000      -0.691474       -18.8160
  37   2.0000      -0.668898       -18.2016
  38   2.0000      -0.641964       -17.4687
  39   2.0000      -0.618313       -16.8251
  40   2.0000      -0.595241       -16.1973
  41   2.0000      -0.579374       -15.7656
  42   2.0000      -0.566390       -15.4122
  43   2.0000      -0.558451       -15.1962
  44   2.0000      -0.526944       -14.3389
  45   2.0000      -0.522815       -14.2265
  46   2.0000      -0.516922       -14.0662
  47   2.0000      -0.509021       -13.8512
  48   2.0000      -0.505400       -13.7526
  49   2.0000      -0.503794       -13.7089
  50   2.0000      -0.497477       -13.5370
  51   2.0000      -0.481188       -13.0938
  52   2.0000      -0.465241       -12.6599
  53   2.0000      -0.462973       -12.5981
  54   2.0000      -0.458488       -12.4761
  55   2.0000      -0.457599       -12.4519
  56   2.0000      -0.451087       -12.2747
  57   2.0000      -0.436314       -11.8727
  58   2.0000      -0.432856       -11.7786
  59   2.0000      -0.428508       -11.6603
  60   2.0000      -0.424628       -11.5547
  61   2.0000      -0.420738       -11.4489
  62   2.0000      -0.407588       -11.0910
  63   2.0000      -0.350509        -9.5378
  64   2.0000      -0.329922        -8.9776
  65   2.0000      -0.324652        -8.8342
  66   2.0000      -0.290552        -7.9063
  67   0.0000       0.031810         0.8656
  68   0.0000       0.067726         1.8429
  69   0.0000       0.103628         2.8199
  70   0.0000       0.116747         3.1769
  71   0.0000       0.131191         3.5699

MULLIKEN ATOMIC CHARGES
-----------------------
   0 S :    0.116284
   1 C :   -0.113615
   2 C :   -0.051860
   3 C :   -0.009325
   4 C :   -0.128122
   5 H :    0.027895
   6 C :    0.053710
   7 H :    0.006609
   8 H :    0.037582
   9 C :   -0.081170
  10 H :    0.043489
  11 H :    0.039583
  12 C :   -0.052612
  13 H :    0.045831
  14 H :    0.025449
  15 H :    0.029141
  16 S :    0.098679
  17 C :   -0.070753
  18 C :   -0.013309
  19 C :   -0.103427
  20 C :   -0.155911
  21 H :    0.003755
  22 C :    0.111965
  23 H :    0.021567
  24 H :    0.010237
  25 C :   -0.091705
  26 H :    0.021664
  27 H :    0.007445
  28 C :    0.019440
  29 H :    0.027508
  30 H :    0.032750
  31 H :    0.011802
  32 H :    0.026367
  33 H :    0.053057
Sum of atomic charges:    0.0000000

LOEWDIN ATOMIC CHARGES
----------------------
   0 S :    0.393763
   1 C :   -0.189679
   2 C :   -0.059985
   3 C :   -0.063757
   4 C :   -0.195504
   5 H :    0.034650
   6 C :   -0.042284
   7 H :    0.032649
   8 H :    0.038427
   9 C :   -0.040546
  10 H :    0.029604
  11 H :    0.027086
  12 C :   -0.068435
  13 H :    0.031582
  14 H :    0.022580
  15 H :    0.027827
  16 S :    0.403977
  17 C :   -0.181323
  18 C :   -0.051145
  19 C :   -0.059535
  20 C :   -0.196343
  21 H :    0.022140
  22 C :   -0.034442
  23 H :    0.027577
  24 H :    0.029023
  25 C :   -0.045792
  26 H :    0.032157
  27 H :    0.015684
  28 C :   -0.056202
  29 H :    0.024913
  30 H :    0.027635
  31 H :    0.019414
  32 H :    0.019567
  33 H :    0.024715

  Mayer bond orders larger than 0.100000
B(  0-S ,  1-C ) :   1.1272 B(  0-S ,  4-C ) :   1.1211 B(  1-C ,  2-C ) :   1.6268
B(  1-C , 32-H ) :   0.9700 B(  2-C ,  3-C ) :   1.2171 B(  2-C ,  6-C ) :   1.0273
B(  3-C ,  4-C ) :   1.6119 B(  3-C ,  5-H ) :   0.9843 B(  4-C , 20-C ) :   1.0301
B(  6-C ,  7-H ) :   0.9272 B(  6-C ,  8-H ) :   0.9272 B(  6-C ,  9-C ) :   1.0649
B(  9-C , 10-H ) :   0.9594 B(  9-C , 11-H ) :   0.9472 B(  9-C , 12-C ) :   1.0864
B( 12-C , 13-H ) :   0.9752 B( 12-C , 14-H ) :   0.9732 B( 12-C , 15-H ) :   0.9723
B( 16-S , 17-C ) :   1.1365 B( 16-S , 20-C ) :   1.1344 B( 17-C , 18-C ) :   1.6195
B( 17-C , 33-H ) :   0.9696 B( 18-C , 19-C ) :   1.2220 B( 18-C , 21-H ) :   0.9906
B( 19-C , 20-C ) :   1.6238 B( 19-C , 22-C ) :   1.0615 B( 22-C , 23-H ) :   0.9242
B( 22-C , 24-H ) :   0.9177 B( 22-C , 25-C ) :   1.0655 B( 25-C , 26-H ) :   0.9477
B( 25-C , 27-H ) :   0.9555 B( 25-C , 28-C ) :   1.0755 B( 28-C , 29-H ) :   0.9726
B( 28-C , 30-H ) :   0.9751 B( 28-C , 31-H ) :   0.9715

Dispersion correction           -0.013809752
FINAL SINGLE POINT ENERGY     -1339.872849197038

DIPOLE MOMENT
-------------
                                X             Y             Z
Electronic contribution:      1.47942      26.57613       9.74387
Nuclear contribution   :     -1.47379     -27.26176      -9.98222
                        -----------------------------------------
Total Dipole Moment    :      0.00563      -0.68563      -0.23835
                        -----------------------------------------
Magnitude (a.u.)       :      0.72590
Magnitude (Debye)      :      1.84510

Rotational constants in cm-1:     0.016960     0.008376     0.006927
Rotational constants in MHz :   508.434374   251.096018   207.660891

                             ****ORCA TERMINATED NORMALLY****
TOTAL RUN TIME: 0 days 0 hours 0 minutes 20 seconds 388 msec
