                         Program Version 4.2.1 -  RELEASE  -
|  1> ! wB97X-D3 SP def2-SVP
|  2> %pal
|  3> nprocs 24
|  4> end
|  5>
|  6> * xyz 0 1
|  7> S 	 -123.29 	 61.8187 	 -54.9849
|  8> C 	 -123.765 	 62.631 	 -56.4269
|  9> C 	 -124.666 	 63.6642 	 -56.1132
| 10> C 	 -125.203 	 63.487 	 -54.7818
| 11> C 	 -124.692 	 62.388 	 -54.1213
| 12> H 	 -125.981 	 64.057 	 -54.4265
| 13> C 	 -125.385 	 64.6728 	 -57.081
| 14> H 	 -124.641 	 65.3683 	 -57.5252
| 15> H 	 -126.065 	 65.2642 	 -56.4601
| 16> C 	 -126.164 	 64.0062 	 -58.2157
| 17> H 	 -126.441 	 64.8603 	 -58.8557
| 18> H 	 -125.527 	 63.3062 	 -58.7377
| 19> C 	 -127.521 	 63.3558 	 -57.8459
| 20> H 	 -128.172 	 63.3071 	 -58.7548
| 21> H 	 -127.378 	 62.3593 	 -57.4358
| 22> H 	 -128.145 	 64.049 	 -57.2714
| 23> S 	 -126.911 	 61.6856 	 -52.6785
| 24> C 	 -126.752 	 60.7674 	 -51.1934
| 25> C 	 -125.407 	 60.7636 	 -50.8223
| 26> C 	 -124.454 	 61.3428 	 -51.7373
| 27> C 	 -125.132 	 61.8801 	 -52.8222
| 28> H 	 -125.075 	 60.2553 	 -49.8387
| 29> C 	 -122.96 	 61.4225 	 -51.378
| 30> H 	 -122.458 	 61.7573 	 -52.3332
| 31> H 	 -122.662 	 60.4188 	 -51.1835
| 32> C 	 -122.563 	 62.2837 	 -50.1147
| 33> H 	 -122.645 	 61.6594 	 -49.2272
| 34> H 	 -123.246 	 63.1368 	 -50.0301
| 35> C 	 -121.148 	 62.7461 	 -50.108
| 36> H 	 -120.858 	 63.1631 	 -49.1673
| 37> H 	 -121.066 	 63.5251 	 -50.8291
| 38> H 	 -120.414 	 62.0188 	 -50.4017
| 39> H 	 -123.337 	 62.4118 	 -57.4232
| 40> H 	 -127.425 	 60.1845 	 -50.6596
| 41> *
| 42>
| 43>                          ****END OF INPUT****

CARTESIAN COORDINATES (ANGSTROEM)
---------------------------------
  S    -123.290000   61.818700  -54.984900
  C    -123.765000   62.631000  -56.426900
  C    -124.666000   63.664200  -56.113200
  C    -125.203000   63.487000  -54.781800
  C    -124.692000   62.388000  -54.121300
  H    -125.981000   64.057000  -54.426500
  C    -125.385000   64.672800  -57.081000
  H    -124.641000   65.368300  -57.525200
  H    -126.065000   65.264200  -56.460100
  C    -126.164000   64.006200  -58.215700
  H    -126.441000   64.860300  -58.855700
  H    -125.527000   63.306200  -58.737700
  C    -127.521000   63.355800  -57.845900
  H    -128.172000   63.307100  -58.754800
  H    -127.378000   62.359300  -57.435800
  H    -128.145000   64.049000  -57.271400
  S    -126.911000   61.685600  -52.678500
  C    -126.752000   60.767400  -51.193400
  C    -125.407000   60.763600  -50.822300
  C    -124.454000   61.342800  -51.737300
  C    -125.132000   61.880100  -52.822200
  H    -125.075000   60.255300  -49.838700
  C    -122.960000   61.422500  -51.378000
  H    -122.458000   61.757300  -52.333200
  H    -122.662000   60.418800  -51.183500
  C    -122.563000   62.283700  -50.114700
  H    -122.645000   61.659400  -49.227200
  H    -123.246000   63.136800  -50.030100
  C    -121.148000   62.746100  -50.108000
  H    -120.858000   63.163100  -49.167300
  H    -121.066000   63.525100  -50.829100
  H    -120.414000   62.018800  -50.401700
  H    -123.337000   62.411800  -57.423200
  H    -127.425000   60.184500  -50.659600

 Total Charge           Charge          ....    0
 Multiplicity           Mult            ....    1
 Number of Electrons    NEL             ....  134
 Basis Dimension        Dim             ....  322

ORBITAL ENERGIES
----------------

  NO   OCC          E(Eh)            E(eV)
   0   2.0000     -88.967292     -2420.9231
   1   2.0000     -88.966198     -2420.8933
   2   2.0000     -10.332566      -281.1634
   3   2.0000     -10.328824      -281.0616
   4   2.0000     -10.316993      -280.7396
   5   2.0000     -10.314344      -280.6676
   6   2.0000     -10.305795      -280.4349
   7   2.0000     -10.305627      -280.4304
   8   2.0000     -10.299890      -280.2742
   9   2.0000     -10.298472      -280.2357
  10   2.0000     -10.297797      -280.2173
  11   2.0000     -10.287806      -279.9454
  12   2.0000     -10.287745      -279.9438
  13   2.0000     -10.287301      -279.9317
  14   2.0000     -10.279383      -279.7162
  15   2.0000     -10.267579      -279.3950
  16   2.0000      -8.081221      -219.9012
  17   2.0000      -8.081004      -219.8953
  18   2.0000      -6.039847      -164.3526
  19   2.0000      -6.039713      -164.3489
  20   2.0000      -6.035781      -164.2420
  21   2.0000      -6.035713      -164.2401
  22   2.0000      -6.031759      -164.1325
  23   2.0000      -6.031540      -164.1265
  24   2.0000      -1.005051       -27.3488
  25   2.0000      -0.980265       -26.6744
  26   2.0000      -0.906690       -24.6723
  27   2.0000      -0.905531       -24.6408
  28   2.0000      -0.866583       -23.5809
  29   2.0000      -0.855431       -23.2774
  30   2.0000      -0.843738       -22.9593
  31   2.0000      -0.806311       -21.9408
  32   2.0000      -0.783310       -21.3149
  33   2.0000      -0.772836       -21.0299
  34   2.0000      -0.703988       -19.1565
  35   2.0000      -0.696065       -18.9409
  36   2.0000      -0.695405       -18.9229
  37   2.0000      -0.657751       -17.8983
  38   2.0000      -0.643011       -17.4972
  39   2.0000      -0.606850       -16.5132
  40   2.0000      -0.589819       -16.0498
  41   2.0000      -0.573341       -15.6014
  42   2.0000      -0.569129       -15.4868
  43   2.0000      -0.546358       -14.8672
  44   2.0000      -0.542492       -14.7620
  45   2.0000      -0.526626       -14.3302
  46   2.0000      -0.516531       -14.0555
  47   2.0000      -0.509732       -13.8705
  48   2.0000      -0.507333       -13.8052
  49   2.0000      -0.495595       -13.4858
  50   2.0000      -0.489724       -13.3261
  51   2.0000      -0.477567       -12.9953
  52   2.0000      -0.474845       -12.9212
  53   2.0000      -0.463876       -12.6227
  54   2.0000      -0.458597       -12.4791
  55   2.0000      -0.446022       -12.1369
  56   2.0000      -0.444171       -12.0865
  57   2.0000      -0.436585       -11.8801
  58   2.0000      -0.429241       -11.6802
  59   2.0000      -0.423807       -11.5324
  60   2.0000      -0.419719       -11.4211
  61   2.0000      -0.414518       -11.2796
  62   2.0000      -0.406602       -11.0642
  63   2.0000      -0.353176        -9.6104
  64   2.0000      -0.329955        -8.9785
  65   2.0000      -0.326805        -8.8928
  66   2.0000      -0.283078        -7.7029
  67   0.0000       0.025086         0.6826
  68   0.0000       0.062096         1.6897
  69   0.0000       0.096582         2.6281
  70   0.0000       0.120695         3.2843
  71   0.0000       0.130427         3.5491

MULLIKEN ATOMIC CHARGES
-----------------------
   0 S :    0.113621
   1 C :   -0.153382
   2 C :   -0.065423
   3 C :    0.022890
   4 C :   -0.111943
   5 H :   -0.016959
   6 C :    0.055612
   7 H :    0.041899
   8 H :    0.017110
   9 C :   -0.078227
  10 H :    0.030135
  11 H :    0.030106
  12 C :   -0.057947
  13 H :    0.030891
  14 H :    0.056202
  15 H :    0.022412
  16 S :    0.100161
  17 C :   -0.057326
  18 C :   -0.080551
  19 C :   -0.065974
  20 C :   -0.153989
  21 H :    0.042131
  22 C :    0.076139
  23 H :    0.024101
  24 H :    0.026093
  25 C :   -0.063938
  26 H :    0.024887
  27 H :    0.042593
  28 C :   -0.023192
  29 H :    0.026856
  30 H :    0.020527
  31 H :    0.024821
  32 H :    0.064828
  33 H :    0.034839
Sum of atomic charges:   -0.0000000

LOEWDIN ATOMIC CHARGES
----------------------
   0 S :    0.420629
   1 C :   -0.213311
   2 C :   -0.058544
   3 C :   -0.060922
   4 C :   -0.192290
   5 H :    0.013817
   6 C :   -0.030056
   7 H :    0.034940
   8 H :    0.026304
   9 C :   -0.041127
  10 H :    0.028055
  11 H :    0.020922
  12 C :   -0.070441
  13 H :    0.031773
  14 H :    0.028495
  15 H :    0.024717
  16 S :    0.392865
  17 C :   -0.185998
  18 C :   -0.074581
  19 C :   -0.067238
  20 C :   -0.175458
  21 H :    0.039476
  22 C :   -0.028848
  23 H :    0.024928
  24 H :    0.028853
  25 C :   -0.035394
  26 H :    0.022709
  27 H :    0.028972
  28 C :   -0.060184
  29 H :    0.024988
  30 H :    0.022215
  31 H :    0.024012
  32 H :    0.034032
  33 H :    0.021690

  Mayer bond orders larger than 0.100000
B(  0-S ,  1-C ) :   1.1527 B(  0-S ,  4-C ) :   1.1418 B(  1-C ,  2-C ) :   1.5776
B(  1-C , 32-H ) :   0.9706 B(  2-C ,  3-C ) :   1.2434 B(  2-C ,  6-C ) :   1.0154
B(  3-C ,  4-C ) :   1.5403 B(  3-C ,  5-H ) :   1.0096 B(  4-C , 20-C ) :   1.0609
B(  6-C ,  7-H ) :   0.9391 B(  6-C ,  8-H ) :   0.9473 B(  6-C ,  9-C ) :   1.0768
B(  9-C , 10-H ) :   0.9541 B(  9-C , 11-H ) :   0.9579 B(  9-C , 12-C ) :   1.0801
B( 12-C , 13-H ) :   0.9744 B( 12-C , 14-H ) :   0.9770 B( 12-C , 15-H ) :   0.9712
B( 16-S , 17-C ) :   1.1303 B( 16-S , 20-C ) :   1.1284 B( 17-C , 18-C ) :   1.6323
B( 17-C , 33-H ) :   0.9751 B( 18-C , 19-C ) :   1.2272 B( 18-C , 21-H ) :   0.9701
B( 19-C , 20-C ) :   1.6020 B( 19-C , 22-C ) :   1.0417 B( 22-C , 23-H ) :   0.9397
B( 22-C , 24-H ) :   0.9243 B( 22-C , 25-C ) :   1.0506 B( 25-C , 26-H ) :   0.9515
B( 25-C , 27-H ) :   0.9616 B( 25-C , 28-C ) :   1.0989 B( 28-C , 29-H ) :   0.9718
B( 28-C , 30-H ) :   0.9734 B( 28-C , 31-H ) :   0.9712

Dispersion correction           -0.013908537
FINAL SINGLE POINT ENERGY     -1339.862941265736

DIPOLE MOMENT
-------------
                                X             Y             Z
Electronic contribution:     -4.35058      -8.10146       2.09191
Nuclear contribution   :      4.42571       8.24564      -2.09619
                        -----------------------------------------
Total Dipole Moment    :      0.07513       0.14418      -0.00428
                        -----------------------------------------
Magnitude (a.u.)       :      0.16263
Magnitude (Debye)      :      0.41338

Rotational constants in cm-1:     0.021449     0.007957     0.006353
Rotational constants in MHz :   643.027275   238.557642   190.467628

                             ****ORCA TERMINATED NORMALLY****
TOTAL RUN TIME: 0 days 0 hours 0 minutes 19 seconds 923 msec
