                         Program Version 4.2.1 -  RELEASE  -
|  1> ! wB97X-D3 SP def2-SVP
|  2> %pal
|  3> nprocs 24
|  4> end
|  5>
|  6> * xyz 0 1
|  7> S 	 27.496 	 -6.61155 	 -117.658
|  8> C 	 26.7052 	 -8.05337 	 -118.191
|  9> C 	 27.1855 	 -8.44736 	 -119.412
| 10> C 	 28.2407 	 -7.54782 	 -119.932
| 11> C 	 28.5017 	 -6.46881 	 -119.098
| 12> H 	 28.8645 	 -7.63958 	 -120.817
| 13> C 	 26.5848 	 -9.56682 	 -120.233
| 14> H 	 25.905 	 -10.0633 	 -119.575
| 15> H 	 27.2861 	 -10.2696 	 -120.644
| 16> C 	 25.7768 	 -9.17726 	 -121.466
| 17> H 	 26.2929 	 -8.39013 	 -121.916
| 18> H 	 25.6892 	 -10.0503 	 -122.125
| 19> C 	 24.4145 	 -8.69798 	 -121.001
| 20> H 	 24.4324 	 -7.80165 	 -120.356
| 21> H 	 23.9887 	 -8.35259 	 -121.923
| 22> H 	 23.8293 	 -9.42736 	 -120.465
| 23> S 	 29.7398 	 -4.37174 	 -120.142
| 24> C 	 31.3433 	 -3.98638 	 -119.647
| 25> C 	 31.8488 	 -4.84422 	 -118.683
| 26> C 	 30.8304 	 -5.74324 	 -118.193
| 27> C 	 29.7089 	 -5.70098 	 -119.01
| 28> H 	 32.8851 	 -4.724 	 -118.301
| 29> C 	 31.1132 	 -6.70975 	 -117.027
| 30> H 	 32.1029 	 -7.15427 	 -117.234
| 31> H 	 30.3997 	 -7.51556 	 -116.948
| 32> C 	 31.1536 	 -5.99541 	 -115.729
| 33> H 	 30.3738 	 -5.2233 	 -115.824
| 34> H 	 32.0598 	 -5.33348 	 -115.809
| 35> C 	 30.9253 	 -6.70995 	 -114.337
| 36> H 	 31.5264 	 -6.25402 	 -113.582
| 37> H 	 31.1467 	 -7.78203 	 -114.443
| 38> H 	 29.8549 	 -6.56667 	 -113.952
| 39> H 	 25.985 	 -8.57132 	 -117.593
| 40> H 	 31.8972 	 -3.08399 	 -120.046
| 41> *
| 42>
| 43>                          ****END OF INPUT****

CARTESIAN COORDINATES (ANGSTROEM)
---------------------------------
  S     27.496000   -6.611550  -117.658000
  C     26.705200   -8.053370  -118.191000
  C     27.185500   -8.447360  -119.412000
  C     28.240700   -7.547820  -119.932000
  C     28.501700   -6.468810  -119.098000
  H     28.864500   -7.639580  -120.817000
  C     26.584800   -9.566820  -120.233000
  H     25.905000  -10.063300  -119.575000
  H     27.286100  -10.269600  -120.644000
  C     25.776800   -9.177260  -121.466000
  H     26.292900   -8.390130  -121.916000
  H     25.689200  -10.050300  -122.125000
  C     24.414500   -8.697980  -121.001000
  H     24.432400   -7.801650  -120.356000
  H     23.988700   -8.352590  -121.923000
  H     23.829300   -9.427360  -120.465000
  S     29.739800   -4.371740  -120.142000
  C     31.343300   -3.986380  -119.647000
  C     31.848800   -4.844220  -118.683000
  C     30.830400   -5.743240  -118.193000
  C     29.708900   -5.700980  -119.010000
  H     32.885100   -4.724000  -118.301000
  C     31.113200   -6.709750  -117.027000
  H     32.102900   -7.154270  -117.234000
  H     30.399700   -7.515560  -116.948000
  C     31.153600   -5.995410  -115.729000
  H     30.373800   -5.223300  -115.824000
  H     32.059800   -5.333480  -115.809000
  C     30.925300   -6.709950  -114.337000
  H     31.526400   -6.254020  -113.582000
  H     31.146700   -7.782030  -114.443000
  H     29.854900   -6.566670  -113.952000
  H     25.985000   -8.571320  -117.593000
  H     31.897200   -3.083990  -120.046000

 Total Charge           Charge          ....    0
 Multiplicity           Mult            ....    1
 Number of Electrons    NEL             ....  134
 Basis Dimension        Dim             ....  322

ORBITAL ENERGIES
----------------

  NO   OCC          E(Eh)            E(eV)
   0   2.0000     -88.964971     -2420.8599
   1   2.0000     -88.961533     -2420.7664
   2   2.0000     -10.326571      -281.0003
   3   2.0000     -10.324107      -280.9332
   4   2.0000     -10.319671      -280.8125
   5   2.0000     -10.315309      -280.6938
   6   2.0000     -10.309049      -280.5235
   7   2.0000     -10.306359      -280.4503
   8   2.0000     -10.301603      -280.3209
   9   2.0000     -10.299398      -280.2609
  10   2.0000     -10.288367      -279.9607
  11   2.0000     -10.285913      -279.8939
  12   2.0000     -10.283549      -279.8296
  13   2.0000     -10.281553      -279.7753
  14   2.0000     -10.278312      -279.6871
  15   2.0000     -10.269515      -279.4477
  16   2.0000      -8.080486      -219.8812
  17   2.0000      -8.076587      -219.7751
  18   2.0000      -6.038799      -164.3241
  19   2.0000      -6.035131      -164.2243
  20   2.0000      -6.034881      -164.2175
  21   2.0000      -6.031417      -164.1232
  22   2.0000      -6.030853      -164.1078
  23   2.0000      -6.027465      -164.0157
  24   2.0000      -1.008896       -27.4535
  25   2.0000      -0.984471       -26.7888
  26   2.0000      -0.917777       -24.9740
  27   2.0000      -0.909122       -24.7385
  28   2.0000      -0.874014       -23.7831
  29   2.0000      -0.845063       -22.9953
  30   2.0000      -0.840965       -22.8838
  31   2.0000      -0.812479       -22.1087
  32   2.0000      -0.785024       -21.3616
  33   2.0000      -0.773372       -21.0445
  34   2.0000      -0.707874       -19.2622
  35   2.0000      -0.692834       -18.8530
  36   2.0000      -0.685085       -18.6421
  37   2.0000      -0.660700       -17.9786
  38   2.0000      -0.646715       -17.5980
  39   2.0000      -0.616896       -16.7866
  40   2.0000      -0.598613       -16.2891
  41   2.0000      -0.571612       -15.5544
  42   2.0000      -0.556100       -15.1323
  43   2.0000      -0.549087       -14.9414
  44   2.0000      -0.542312       -14.7571
  45   2.0000      -0.524361       -14.2686
  46   2.0000      -0.521359       -14.1869
  47   2.0000      -0.516190       -14.0462
  48   2.0000      -0.506588       -13.7849
  49   2.0000      -0.496316       -13.5055
  50   2.0000      -0.490052       -13.3350
  51   2.0000      -0.478314       -13.0156
  52   2.0000      -0.473273       -12.8784
  53   2.0000      -0.463904       -12.6235
  54   2.0000      -0.458721       -12.4824
  55   2.0000      -0.451687       -12.2910
  56   2.0000      -0.441010       -12.0005
  57   2.0000      -0.437143       -11.8953
  58   2.0000      -0.432773       -11.7764
  59   2.0000      -0.421341       -11.4653
  60   2.0000      -0.415350       -11.3023
  61   2.0000      -0.411358       -11.1936
  62   2.0000      -0.396743       -10.7959
  63   2.0000      -0.342152        -9.3104
  64   2.0000      -0.334114        -9.0917
  65   2.0000      -0.320047        -8.7089
  66   2.0000      -0.302695        -8.2368
  67   0.0000       0.038723         1.0537
  68   0.0000       0.063999         1.7415
  69   0.0000       0.111968         3.0468
  70   0.0000       0.116685         3.1752
  71   0.0000       0.124505         3.3879

MULLIKEN ATOMIC CHARGES
-----------------------
   0 S :    0.091841
   1 C :   -0.103801
   2 C :   -0.095105
   3 C :    0.051722
   4 C :   -0.153166
   5 H :    0.021286
   6 C :    0.087202
   7 H :   -0.004490
   8 H :    0.020342
   9 C :   -0.046347
  10 H :    0.015823
  11 H :    0.034398
  12 C :   -0.057911
  13 H :    0.037655
  14 H :    0.024354
  15 H :    0.028657
  16 S :    0.116576
  17 C :   -0.115355
  18 C :   -0.049899
  19 C :   -0.040475
  20 C :   -0.198436
  21 H :    0.038228
  22 C :    0.121257
  23 H :    0.027875
  24 H :    0.017720
  25 C :   -0.130583
  26 H :    0.027213
  27 H :    0.019618
  28 C :   -0.033890
  29 H :    0.033944
  30 H :    0.039669
  31 H :    0.049242
  32 H :    0.047062
  33 H :    0.077772
Sum of atomic charges:   -0.0000000

LOEWDIN ATOMIC CHARGES
----------------------
   0 S :    0.406358
   1 C :   -0.192441
   2 C :   -0.062604
   3 C :   -0.051139
   4 C :   -0.207301
   5 H :    0.033664
   6 C :   -0.031591
   7 H :    0.020911
   8 H :    0.027135
   9 C :   -0.029563
  10 H :    0.016670
  11 H :    0.027808
  12 C :   -0.065398
  13 H :    0.029557
  14 H :    0.023987
  15 H :    0.020358
  16 S :    0.422983
  17 C :   -0.203046
  18 C :   -0.078276
  19 C :   -0.044336
  20 C :   -0.207610
  21 H :    0.039269
  22 C :   -0.031284
  23 H :    0.031469
  24 H :    0.023219
  25 C :   -0.058326
  26 H :    0.025202
  27 H :    0.023835
  28 C :   -0.066835
  29 H :    0.024841
  30 H :    0.027002
  31 H :    0.038660
  32 H :    0.027047
  33 H :    0.039774

  Mayer bond orders larger than 0.100000
B(  0-S ,  1-C ) :   1.1409 B(  0-S ,  4-C ) :   1.1363 B(  1-C ,  2-C ) :   1.6178
B(  1-C , 32-H ) :   0.9711 B(  2-C ,  3-C ) :   1.2051 B(  2-C ,  6-C ) :   1.0468
B(  3-C ,  4-C ) :   1.6068 B(  3-C ,  5-H ) :   0.9876 B(  4-C , 20-C ) :   0.9980
B(  6-C ,  7-H ) :   0.9396 B(  6-C ,  8-H ) :   0.9358 B(  6-C ,  9-C ) :   1.0692
B(  9-C , 10-H ) :   0.9526 B(  9-C , 11-H ) :   0.9547 B(  9-C , 12-C ) :   1.0846
B( 12-C , 13-H ) :   0.9753 B( 12-C , 14-H ) :   0.9722 B( 12-C , 15-H ) :   0.9754
B( 16-S , 17-C ) :   1.1659 B( 16-S , 20-C ) :   1.1512 B( 17-C , 18-C ) :   1.6158
B( 17-C , 33-H ) :   0.9584 B( 18-C , 19-C ) :   1.2229 B( 18-C , 21-H ) :   0.9821
B( 19-C , 20-C ) :   1.6159 B( 19-C , 22-C ) :   1.0427 B( 22-C , 23-H ) :   0.9334
B( 22-C , 24-H ) :   0.9345 B( 22-C , 25-C ) :   1.0536 B( 25-C , 26-H ) :   0.9597
B( 25-C , 27-H ) :   0.9589 B( 25-C , 28-C ) :   1.0560 B( 28-C , 29-H ) :   0.9758
B( 28-C , 30-H ) :   0.9790 B( 28-C , 31-H ) :   0.9786

Dispersion correction           -0.014604837
FINAL SINGLE POINT ENERGY     -1339.866374516132

DIPOLE MOMENT
-------------
                                X             Y             Z
Electronic contribution:      3.67353      13.64418      -5.37228
Nuclear contribution   :     -3.49670     -14.01043       5.39484
                        -----------------------------------------
Total Dipole Moment    :      0.17683      -0.36625       0.02256
                        -----------------------------------------
Magnitude (a.u.)       :      0.40733
Magnitude (Debye)      :      1.03536

Rotational constants in cm-1:     0.021039     0.008244     0.006547
Rotational constants in MHz :   630.723482   247.153060   196.275927

                             ****ORCA TERMINATED NORMALLY****
TOTAL RUN TIME: 0 days 0 hours 0 minutes 21 seconds 352 msec
