                         Program Version 4.2.1 -  RELEASE  -
|  1> ! wB97X-D3 SP def2-SVP
|  2> %pal
|  3> nprocs 24
|  4> end
|  5>
|  6> * xyz 0 1
|  7> S 	 -38.157 	 -8.80236 	 15.8201
|  8> C 	 -37.4838 	 -10.3404 	 16.5007
|  9> C 	 -38.4451 	 -11.1783 	 17.0459
| 10> C 	 -39.7241 	 -10.497 	 16.9951
| 11> C 	 -39.7049 	 -9.19008 	 16.5286
| 12> H 	 -40.6194 	 -10.889 	 17.4081
| 13> C 	 -38.1297 	 -12.4774 	 17.7072
| 14> H 	 -38.9874 	 -12.8263 	 18.3385
| 15> H 	 -37.3734 	 -12.408 	 18.4848
| 16> C 	 -37.765 	 -13.6049 	 16.7387
| 17> H 	 -37.7346 	 -14.6255 	 17.1559
| 18> H 	 -38.546 	 -13.6767 	 15.9727
| 19> C 	 -36.5062 	 -13.2884 	 15.9319
| 20> H 	 -35.8246 	 -12.8357 	 16.5965
| 21> H 	 -36.077 	 -14.2237 	 15.5479
| 22> H 	 -36.715 	 -12.6049 	 15.0783
| 23> S 	 -40.4321 	 -6.55345 	 17.1191
| 24> C 	 -42.0759 	 -6.33951 	 17.4708
| 25> C 	 -42.8263 	 -7.16141 	 16.6841
| 26> C 	 -42.1235 	 -8.29625 	 16.2247
| 27> C 	 -40.748 	 -8.20381 	 16.5598
| 28> H 	 -43.8575 	 -6.95053 	 16.6369
| 29> C 	 -42.7592 	 -9.37055 	 15.4333
| 30> H 	 -43.614 	 -9.6898 	 15.9528
| 31> H 	 -42.2775 	 -10.2671 	 15.5147
| 32> C 	 -43.2488 	 -8.95144 	 14.0876
| 33> H 	 -43.3461 	 -7.82837 	 14.1416
| 34> H 	 -44.2505 	 -9.27228 	 13.9162
| 35> C 	 -42.2075 	 -9.10323 	 12.8715
| 36> H 	 -41.8372 	 -10.0895 	 12.6402
| 37> H 	 -41.2927 	 -8.52541 	 13.0987
| 38> H 	 -42.726 	 -8.79294 	 11.9944
| 39> H 	 -36.4209 	 -10.5647 	 16.6241
| 40> H 	 -42.5115 	 -5.37713 	 17.7346
| 41> *
| 42>
| 43>                          ****END OF INPUT****

CARTESIAN COORDINATES (ANGSTROEM)
---------------------------------
  S    -38.157000   -8.802360   15.820100
  C    -37.483800  -10.340400   16.500700
  C    -38.445100  -11.178300   17.045900
  C    -39.724100  -10.497000   16.995100
  C    -39.704900   -9.190080   16.528600
  H    -40.619400  -10.889000   17.408100
  C    -38.129700  -12.477400   17.707200
  H    -38.987400  -12.826300   18.338500
  H    -37.373400  -12.408000   18.484800
  C    -37.765000  -13.604900   16.738700
  H    -37.734600  -14.625500   17.155900
  H    -38.546000  -13.676700   15.972700
  C    -36.506200  -13.288400   15.931900
  H    -35.824600  -12.835700   16.596500
  H    -36.077000  -14.223700   15.547900
  H    -36.715000  -12.604900   15.078300
  S    -40.432100   -6.553450   17.119100
  C    -42.075900   -6.339510   17.470800
  C    -42.826300   -7.161410   16.684100
  C    -42.123500   -8.296250   16.224700
  C    -40.748000   -8.203810   16.559800
  H    -43.857500   -6.950530   16.636900
  C    -42.759200   -9.370550   15.433300
  H    -43.614000   -9.689800   15.952800
  H    -42.277500  -10.267100   15.514700
  C    -43.248800   -8.951440   14.087600
  H    -43.346100   -7.828370   14.141600
  H    -44.250500   -9.272280   13.916200
  C    -42.207500   -9.103230   12.871500
  H    -41.837200  -10.089500   12.640200
  H    -41.292700   -8.525410   13.098700
  H    -42.726000   -8.792940   11.994400
  H    -36.420900  -10.564700   16.624100
  H    -42.511500   -5.377130   17.734600

 Total Charge           Charge          ....    0
 Multiplicity           Mult            ....    1
 Number of Electrons    NEL             ....  134
 Basis Dimension        Dim             ....  322

ORBITAL ENERGIES
----------------

  NO   OCC          E(Eh)            E(eV)
   0   2.0000     -88.965935     -2420.8862
   1   2.0000     -88.962530     -2420.7935
   2   2.0000     -10.329475      -281.0793
   3   2.0000     -10.327594      -281.0281
   4   2.0000     -10.316478      -280.7256
   5   2.0000     -10.310293      -280.5573
   6   2.0000     -10.305105      -280.4162
   7   2.0000     -10.304253      -280.3930
   8   2.0000     -10.296691      -280.1872
   9   2.0000     -10.294820      -280.1363
  10   2.0000     -10.289267      -279.9852
  11   2.0000     -10.287438      -279.9354
  12   2.0000     -10.285978      -279.8957
  13   2.0000     -10.275815      -279.6191
  14   2.0000     -10.273422      -279.5540
  15   2.0000     -10.273166      -279.5471
  16   2.0000      -8.079917      -219.8657
  17   2.0000      -8.078388      -219.8241
  18   2.0000      -6.038579      -164.3181
  19   2.0000      -6.036777      -164.2690
  20   2.0000      -6.034688      -164.2122
  21   2.0000      -6.033121      -164.1696
  22   2.0000      -6.030414      -164.0959
  23   2.0000      -6.028800      -164.0520
  24   2.0000      -1.010509       -27.4973
  25   2.0000      -0.983618       -26.7656
  26   2.0000      -0.917193       -24.9581
  27   2.0000      -0.917025       -24.9535
  28   2.0000      -0.868586       -23.6354
  29   2.0000      -0.846471       -23.0336
  30   2.0000      -0.841466       -22.8975
  31   2.0000      -0.812015       -22.0961
  32   2.0000      -0.790132       -21.5006
  33   2.0000      -0.779323       -21.2065
  34   2.0000      -0.712453       -19.3868
  35   2.0000      -0.703654       -19.1474
  36   2.0000      -0.693020       -18.8580
  37   2.0000      -0.655111       -17.8265
  38   2.0000      -0.639429       -17.3997
  39   2.0000      -0.621811       -16.9203
  40   2.0000      -0.608056       -16.5460
  41   2.0000      -0.577712       -15.7203
  42   2.0000      -0.557630       -15.1739
  43   2.0000      -0.549007       -14.9392
  44   2.0000      -0.543443       -14.7878
  45   2.0000      -0.524963       -14.2850
  46   2.0000      -0.515528       -14.0282
  47   2.0000      -0.509952       -13.8765
  48   2.0000      -0.504724       -13.7343
  49   2.0000      -0.494024       -13.4431
  50   2.0000      -0.489782       -13.3276
  51   2.0000      -0.482428       -13.1275
  52   2.0000      -0.473436       -12.8829
  53   2.0000      -0.468329       -12.7439
  54   2.0000      -0.456336       -12.4175
  55   2.0000      -0.455310       -12.3896
  56   2.0000      -0.448099       -12.1934
  57   2.0000      -0.434483       -11.8229
  58   2.0000      -0.431493       -11.7415
  59   2.0000      -0.421929       -11.4813
  60   2.0000      -0.415199       -11.2981
  61   2.0000      -0.414092       -11.2680
  62   2.0000      -0.411521       -11.1981
  63   2.0000      -0.345140        -9.3917
  64   2.0000      -0.332087        -9.0366
  65   2.0000      -0.324734        -8.8365
  66   2.0000      -0.285697        -7.7742
  67   0.0000       0.018533         0.5043
  68   0.0000       0.061288         1.6677
  69   0.0000       0.101170         2.7530
  70   0.0000       0.119397         3.2490
  71   0.0000       0.125249         3.4082

MULLIKEN ATOMIC CHARGES
-----------------------
   0 S :    0.099050
   1 C :   -0.123109
   2 C :   -0.080435
   3 C :    0.042801
   4 C :   -0.150472
   5 H :   -0.005233
   6 C :    0.041187
   7 H :    0.023952
   8 H :    0.038371
   9 C :   -0.074921
  10 H :    0.035633
  11 H :    0.022449
  12 C :   -0.055557
  13 H :    0.011797
  14 H :    0.034068
  15 H :    0.056389
  16 S :    0.111256
  17 C :   -0.072697
  18 C :   -0.049390
  19 C :   -0.057011
  20 C :   -0.152916
  21 H :    0.006396
  22 C :    0.192031
  23 H :   -0.006867
  24 H :   -0.022648
  25 C :   -0.092054
  26 H :    0.034002
  27 H :    0.020528
  28 C :   -0.035591
  29 H :    0.025182
  30 H :    0.042414
  31 H :    0.029760
  32 H :    0.052166
  33 H :    0.059467
Sum of atomic charges:    0.0000000

LOEWDIN ATOMIC CHARGES
----------------------
   0 S :    0.374357
   1 C :   -0.176112
   2 C :   -0.057347
   3 C :   -0.058441
   4 C :   -0.187214
   5 H :    0.021890
   6 C :   -0.038626
   7 H :    0.036723
   8 H :    0.032187
   9 C :   -0.043708
  10 H :    0.026327
  11 H :    0.025187
  12 C :   -0.065787
  13 H :    0.010414
  14 H :    0.028466
  15 H :    0.032689
  16 S :    0.414609
  17 C :   -0.198891
  18 C :   -0.067269
  19 C :   -0.042474
  20 C :   -0.197978
  21 H :    0.024445
  22 C :   -0.036554
  23 H :    0.032746
  24 H :    0.018965
  25 C :   -0.033162
  26 H :    0.034615
  27 H :    0.018945
  28 C :   -0.060940
  29 H :    0.018881
  30 H :    0.032322
  31 H :    0.021804
  32 H :    0.028194
  33 H :    0.030738

  Mayer bond orders larger than 0.100000
B(  0-S ,  1-C ) :   1.1114 B(  0-S ,  4-C ) :   1.1272 B(  1-C ,  2-C ) :   1.6516
B(  1-C , 32-H ) :   0.9563 B(  2-C ,  3-C ) :   1.2227 B(  2-C ,  6-C ) :   1.0175
B(  3-C ,  4-C ) :   1.5993 B(  3-C ,  5-H ) :   0.9935 B(  4-C , 20-C ) :   1.0831
B(  6-C ,  7-H ) :   0.9375 B(  6-C ,  8-H ) :   0.9472 B(  6-C ,  9-C ) :   1.0711
B(  9-C , 10-H ) :   0.9604 B(  9-C , 11-H ) :   0.9529 B(  9-C , 12-C ) :   1.0798
B( 12-C , 13-H ) :   0.9758 B( 12-C , 14-H ) :   0.9694 B( 12-C , 15-H ) :   0.9694
B( 16-S , 17-C ) :   1.1690 B( 16-S , 20-C ) :   1.1359 B( 17-C , 18-C ) :   1.6032
B( 17-C , 20-C ) :   0.1032 B( 17-C , 33-H ) :   0.9585 B( 18-C , 19-C ) :   1.2462
B( 18-C , 21-H ) :   0.9945 B( 19-C , 20-C ) :   1.5280 B( 19-C , 22-C ) :   1.0721
B( 22-C , 23-H ) :   0.9024 B( 22-C , 24-H ) :   0.9121 B( 22-C , 25-C ) :   1.0607
B( 25-C , 26-H ) :   0.9616 B( 25-C , 27-H ) :   0.9575 B( 25-C , 28-C ) :   1.0586
B( 28-C , 29-H ) :   0.9811 B( 28-C , 30-H ) :   0.9765 B( 28-C , 31-H ) :   0.9769

Dispersion correction           -0.014540433
FINAL SINGLE POINT ENERGY     -1339.840388117174

DIPOLE MOMENT
-------------
                                X             Y             Z
Electronic contribution:      3.07002      21.24879       8.82652
Nuclear contribution   :     -3.54695     -21.71732      -8.78884
                        -----------------------------------------
Total Dipole Moment    :     -0.47693      -0.46853       0.03769
                        -----------------------------------------
Magnitude (a.u.)       :      0.66963
Magnitude (Debye)      :      1.70206

Rotational constants in cm-1:     0.021877     0.007941     0.006889
Rotational constants in MHz :   655.848717   238.076520   206.520678

                             ****ORCA TERMINATED NORMALLY****
TOTAL RUN TIME: 0 days 0 hours 0 minutes 21 seconds 981 msec
