                         Program Version 4.2.1 -  RELEASE  -
|  1> ! wB97X-D3 SP def2-SVP
|  2> %pal
|  3> nprocs 24
|  4> end
|  5>
|  6> * xyz 0 1
|  7> S 	 -53.5569 	 23.0053 	 29.269
|  8> C 	 -53.5091 	 24.7215 	 29.5878
|  9> C 	 -52.3079 	 25.2725 	 29.296
| 10> C 	 -51.4268 	 24.3167 	 28.7213
| 11> C 	 -51.9053 	 23.003 	 28.7125
| 12> H 	 -50.5172 	 24.5398 	 28.2905
| 13> C 	 -51.9549 	 26.7594 	 29.3114
| 14> H 	 -52.8294 	 27.3807 	 29.2196
| 15> H 	 -51.3148 	 27.014 	 28.4848
| 16> C 	 -51.2313 	 27.1575 	 30.6861
| 17> H 	 -50.8429 	 28.1461 	 30.4916
| 18> H 	 -51.99 	 27.3787 	 31.4656
| 19> C 	 -50.1423 	 26.2448 	 31.2781
| 20> H 	 -49.4585 	 25.9642 	 30.544
| 21> H 	 -49.6226 	 26.8315 	 32.0567
| 22> H 	 -50.5995 	 25.2597 	 31.5514
| 23> S 	 -51.8873 	 20.2166 	 28.2724
| 24> C 	 -50.4616 	 19.4257 	 27.6722
| 25> C 	 -49.5037 	 20.3194 	 27.294
| 26> C 	 -49.9368 	 21.6698 	 27.6124
| 27> C 	 -51.2429 	 21.8052 	 28.1785
| 28> H 	 -48.5954 	 20.024 	 26.7642
| 29> C 	 -48.8948 	 22.8195 	 27.1858
| 30> H 	 -49.5043 	 23.6385 	 26.8267
| 31> H 	 -48.2714 	 22.5534 	 26.3972
| 32> C 	 -47.9635 	 23.2431 	 28.3943
| 33> H 	 -47.4441 	 22.3138 	 28.6974
| 34> H 	 -48.4973 	 23.7158 	 29.1693
| 35> C 	 -46.8908 	 24.2257 	 27.9034
| 36> H 	 -47.4109 	 25.2139 	 27.7306
| 37> H 	 -46.5012 	 23.8008 	 26.9532
| 38> H 	 -46.0279 	 24.4043 	 28.6222
| 39> H 	 -54.4768 	 25.241 	 29.8085
| 40> H 	 -50.4461 	 18.3781 	 27.4471
| 41> *
| 42>
| 43>                          ****END OF INPUT****

CARTESIAN COORDINATES (ANGSTROEM)
---------------------------------
  S    -53.556900   23.005300   29.269000
  C    -53.509100   24.721500   29.587800
  C    -52.307900   25.272500   29.296000
  C    -51.426800   24.316700   28.721300
  C    -51.905300   23.003000   28.712500
  H    -50.517200   24.539800   28.290500
  C    -51.954900   26.759400   29.311400
  H    -52.829400   27.380700   29.219600
  H    -51.314800   27.014000   28.484800
  C    -51.231300   27.157500   30.686100
  H    -50.842900   28.146100   30.491600
  H    -51.990000   27.378700   31.465600
  C    -50.142300   26.244800   31.278100
  H    -49.458500   25.964200   30.544000
  H    -49.622600   26.831500   32.056700
  H    -50.599500   25.259700   31.551400
  S    -51.887300   20.216600   28.272400
  C    -50.461600   19.425700   27.672200
  C    -49.503700   20.319400   27.294000
  C    -49.936800   21.669800   27.612400
  C    -51.242900   21.805200   28.178500
  H    -48.595400   20.024000   26.764200
  C    -48.894800   22.819500   27.185800
  H    -49.504300   23.638500   26.826700
  H    -48.271400   22.553400   26.397200
  C    -47.963500   23.243100   28.394300
  H    -47.444100   22.313800   28.697400
  H    -48.497300   23.715800   29.169300
  C    -46.890800   24.225700   27.903400
  H    -47.410900   25.213900   27.730600
  H    -46.501200   23.800800   26.953200
  H    -46.027900   24.404300   28.622200
  H    -54.476800   25.241000   29.808500
  H    -50.446100   18.378100   27.447100

 Total Charge           Charge          ....    0
 Multiplicity           Mult            ....    1
 Number of Electrons    NEL             ....  134
 Basis Dimension        Dim             ....  322

ORBITAL ENERGIES
----------------

  NO   OCC          E(Eh)            E(eV)
   0   2.0000     -88.967481     -2420.9282
   1   2.0000     -88.966566     -2420.9033
   2   2.0000     -10.336199      -281.2623
   3   2.0000     -10.335590      -281.2457
   4   2.0000     -10.316797      -280.7343
   5   2.0000     -10.315929      -280.7107
   6   2.0000     -10.313685      -280.6496
   7   2.0000     -10.300801      -280.2990
   8   2.0000     -10.298085      -280.2252
   9   2.0000     -10.296654      -280.1862
  10   2.0000     -10.295047      -280.1425
  11   2.0000     -10.289626      -279.9950
  12   2.0000     -10.289039      -279.9790
  13   2.0000     -10.288824      -279.9731
  14   2.0000     -10.286571      -279.9118
  15   2.0000     -10.277202      -279.6569
  16   2.0000      -8.082941      -219.9480
  17   2.0000      -8.081664      -219.9133
  18   2.0000      -6.041583      -164.3998
  19   2.0000      -6.040220      -164.3627
  20   2.0000      -6.037194      -164.2804
  21   2.0000      -6.036153      -164.2521
  22   2.0000      -6.033673      -164.1846
  23   2.0000      -6.032342      -164.1484
  24   2.0000      -1.009556       -27.4714
  25   2.0000      -0.989218       -26.9180
  26   2.0000      -0.905488       -24.6396
  27   2.0000      -0.902504       -24.5584
  28   2.0000      -0.871258       -23.7081
  29   2.0000      -0.849361       -23.1123
  30   2.0000      -0.842966       -22.9383
  31   2.0000      -0.816254       -22.2114
  32   2.0000      -0.785901       -21.3855
  33   2.0000      -0.769213       -20.9313
  34   2.0000      -0.702346       -19.1118
  35   2.0000      -0.699588       -19.0368
  36   2.0000      -0.691600       -18.8194
  37   2.0000      -0.667827       -18.1725
  38   2.0000      -0.639951       -17.4139
  39   2.0000      -0.622299       -16.9336
  40   2.0000      -0.592850       -16.1323
  41   2.0000      -0.575737       -15.6666
  42   2.0000      -0.572538       -15.5796
  43   2.0000      -0.546486       -14.8707
  44   2.0000      -0.544435       -14.8148
  45   2.0000      -0.516395       -14.0518
  46   2.0000      -0.515718       -14.0334
  47   2.0000      -0.510278       -13.8854
  48   2.0000      -0.508619       -13.8402
  49   2.0000      -0.499861       -13.6019
  50   2.0000      -0.494716       -13.4619
  51   2.0000      -0.480354       -13.0711
  52   2.0000      -0.475054       -12.9269
  53   2.0000      -0.471592       -12.8327
  54   2.0000      -0.458975       -12.4893
  55   2.0000      -0.450958       -12.2712
  56   2.0000      -0.441870       -12.0239
  57   2.0000      -0.437313       -11.8999
  58   2.0000      -0.428337       -11.6556
  59   2.0000      -0.426720       -11.6116
  60   2.0000      -0.421569       -11.4715
  61   2.0000      -0.412049       -11.2124
  62   2.0000      -0.407918       -11.1000
  63   2.0000      -0.367356        -9.9963
  64   2.0000      -0.335484        -9.1290
  65   2.0000      -0.328785        -8.9467
  66   2.0000      -0.282520        -7.6877
  67   0.0000       0.018000         0.4898
  68   0.0000       0.092369         2.5135
  69   0.0000       0.098935         2.6922
  70   0.0000       0.121323         3.3014
  71   0.0000       0.123170         3.3516

MULLIKEN ATOMIC CHARGES
-----------------------
   0 S :    0.097914
   1 C :   -0.158243
   2 C :   -0.049069
   3 C :    0.009887
   4 C :   -0.101571
   5 H :   -0.051577
   6 C :    0.091400
   7 H :    0.021313
   8 H :    0.025262
   9 C :   -0.116430
  10 H :    0.018768
  11 H :    0.032482
  12 C :   -0.024433
  13 H :    0.007989
  14 H :    0.047846
  15 H :    0.055911
  16 S :    0.100330
  17 C :   -0.082966
  18 C :   -0.015811
  19 C :   -0.100096
  20 C :   -0.080554
  21 H :    0.031229
  22 C :    0.040529
  23 H :    0.028696
  24 H :    0.000447
  25 C :   -0.057791
  26 H :    0.033778
  27 H :    0.029972
  28 C :   -0.079314
  29 H :    0.034517
  30 H :    0.029643
  31 H :    0.053028
  32 H :    0.070286
  33 H :    0.056629
Sum of atomic charges:   -0.0000000

LOEWDIN ATOMIC CHARGES
----------------------
   0 S :    0.404379
   1 C :   -0.199676
   2 C :   -0.066149
   3 C :   -0.058631
   4 C :   -0.181865
   5 H :    0.011449
   6 C :   -0.020664
   7 H :    0.029717
   8 H :    0.027411
   9 C :   -0.042080
  10 H :    0.017412
  11 H :    0.024497
  12 C :   -0.066358
  13 H :    0.011619
  14 H :    0.036110
  15 H :    0.037389
  16 S :    0.424261
  17 C :   -0.184302
  18 C :   -0.074485
  19 C :   -0.049644
  20 C :   -0.215329
  21 H :    0.037985
  22 C :   -0.021585
  23 H :    0.022500
  24 H :    0.016513
  25 C :   -0.035977
  26 H :    0.027958
  27 H :    0.014078
  28 C :   -0.074892
  29 H :    0.026899
  30 H :    0.023215
  31 H :    0.032376
  32 H :    0.038273
  33 H :    0.027593

  Mayer bond orders larger than 0.100000
B(  0-S ,  1-C ) :   1.1403 B(  0-S ,  4-C ) :   1.1514 B(  1-C ,  2-C ) :   1.6085
B(  1-C , 32-H ) :   0.9604 B(  2-C ,  3-C ) :   1.2495 B(  2-C ,  6-C ) :   1.0254
B(  3-C ,  4-C ) :   1.5452 B(  3-C ,  5-H ) :   1.0023 B(  4-C , 20-C ) :   1.0900
B(  6-C ,  7-H ) :   0.9446 B(  6-C ,  8-H ) :   0.9457 B(  6-C ,  9-C ) :   1.0556
B(  9-C , 10-H ) :   0.9582 B(  9-C , 11-H ) :   0.9588 B(  9-C , 12-C ) :   1.0837
B( 12-C , 13-H ) :   0.9742 B( 12-C , 14-H ) :   0.9697 B( 12-C , 15-H ) :   0.9673
B( 16-S , 17-C ) :   1.1709 B( 16-S , 20-C ) :   1.1355 B( 17-C , 18-C ) :   1.5795
B( 17-C , 33-H ) :   0.9672 B( 18-C , 19-C ) :   1.2775 B( 18-C , 21-H ) :   0.9904
B( 19-C , 20-C ) :   1.5546 B( 19-C , 22-C ) :   1.0224 B( 22-C , 23-H ) :   0.9439
B( 22-C , 24-H ) :   0.9418 B( 22-C , 25-C ) :   1.0554 B( 25-C , 26-H ) :   0.9536
B( 25-C , 27-H ) :   0.9592 B( 25-C , 28-C ) :   1.0778 B( 28-C , 29-H ) :   0.9747
B( 28-C , 30-H ) :   0.9733 B( 28-C , 31-H ) :   0.9744

Dispersion correction           -0.015026407
FINAL SINGLE POINT ENERGY     -1339.872422797369

DIPOLE MOMENT
-------------
                                X             Y             Z
Electronic contribution:    -22.27881     -22.57991      -3.34958
Nuclear contribution   :     22.75569      23.01097       3.07659
                        -----------------------------------------
Total Dipole Moment    :      0.47688       0.43107      -0.27299
                        -----------------------------------------
Magnitude (a.u.)       :      0.69839
Magnitude (Debye)      :      1.77518

Rotational constants in cm-1:     0.017058     0.010472     0.006950
Rotational constants in MHz :   511.372402   313.945096   208.368005

                             ****ORCA TERMINATED NORMALLY****
TOTAL RUN TIME: 0 days 0 hours 0 minutes 22 seconds 504 msec
