                         Program Version 4.2.1 -  RELEASE  -
|  1> ! wB97X-D3 SP def2-SVP
|  2> %pal
|  3> nprocs 24
|  4> end
|  5>
|  6> * xyz 0 1
|  7> S 	 -81.264 	 -6.20482 	 5.21464
|  8> C 	 -80.7856 	 -4.83795 	 4.24953
|  9> C 	 -79.8234 	 -5.15412 	 3.27616
| 10> C 	 -79.4838 	 -6.5224 	 3.36813
| 11> C 	 -80.1785 	 -7.28327 	 4.27611
| 12> H 	 -78.7608 	 -6.95887 	 2.6406
| 13> C 	 -79.2494 	 -4.24221 	 2.21961
| 14> H 	 -79.8738 	 -3.39095 	 2.25571
| 15> H 	 -79.406 	 -4.67331 	 1.25953
| 16> C 	 -77.6853 	 -3.9743 	 2.36969
| 17> H 	 -77.4486 	 -2.95067 	 1.99653
| 18> H 	 -77.5179 	 -3.82781 	 3.47697
| 19> C 	 -76.6744 	 -4.92128 	 1.71701
| 20> H 	 -76.8034 	 -5.13942 	 0.71944
| 21> H 	 -75.6644 	 -4.53227 	 1.76815
| 22> H 	 -76.5678 	 -5.89905 	 2.2852
| 23> S 	 -81.6264 	 -9.57384 	 3.68459
| 24> C 	 -80.7918 	 -11.1253 	 3.75142
| 25> C 	 -79.4645 	 -10.9575 	 3.90643
| 26> C 	 -79.0519 	 -9.57809 	 4.16857
| 27> C 	 -80.1654 	 -8.75975 	 4.20502
| 28> H 	 -78.8649 	 -11.8172 	 3.72104
| 29> C 	 -77.5923 	 -9.12149 	 4.39439
| 30> H 	 -77.1282 	 -9.87492 	 5.08387
| 31> H 	 -77.5701 	 -8.16048 	 4.8381
| 32> C 	 -76.759 	 -9.00264 	 3.16001
| 33> H 	 -77.4448 	 -8.7021 	 2.38977
| 34> H 	 -76.4783 	 -9.9996 	 2.94822
| 35> C 	 -75.5243 	 -8.18485 	 3.35057
| 36> H 	 -74.8226 	 -8.53151 	 4.10066
| 37> H 	 -75.7737 	 -7.24712 	 3.7298
| 38> H 	 -75.1345 	 -7.89106 	 2.40152
| 39> H 	 -81.3621 	 -3.87885 	 4.22318
| 40> H 	 -81.2318 	 -12.123 	 3.60662
| 41> *
| 42>
| 43>                          ****END OF INPUT****

CARTESIAN COORDINATES (ANGSTROEM)
---------------------------------
  S    -81.264000   -6.204820    5.214640
  C    -80.785600   -4.837950    4.249530
  C    -79.823400   -5.154120    3.276160
  C    -79.483800   -6.522400    3.368130
  C    -80.178500   -7.283270    4.276110
  H    -78.760800   -6.958870    2.640600
  C    -79.249400   -4.242210    2.219610
  H    -79.873800   -3.390950    2.255710
  H    -79.406000   -4.673310    1.259530
  C    -77.685300   -3.974300    2.369690
  H    -77.448600   -2.950670    1.996530
  H    -77.517900   -3.827810    3.476970
  C    -76.674400   -4.921280    1.717010
  H    -76.803400   -5.139420    0.719440
  H    -75.664400   -4.532270    1.768150
  H    -76.567800   -5.899050    2.285200
  S    -81.626400   -9.573840    3.684590
  C    -80.791800  -11.125300    3.751420
  C    -79.464500  -10.957500    3.906430
  C    -79.051900   -9.578090    4.168570
  C    -80.165400   -8.759750    4.205020
  H    -78.864900  -11.817200    3.721040
  C    -77.592300   -9.121490    4.394390
  H    -77.128200   -9.874920    5.083870
  H    -77.570100   -8.160480    4.838100
  C    -76.759000   -9.002640    3.160010
  H    -77.444800   -8.702100    2.389770
  H    -76.478300   -9.999600    2.948220
  C    -75.524300   -8.184850    3.350570
  H    -74.822600   -8.531510    4.100660
  H    -75.773700   -7.247120    3.729800
  H    -75.134500   -7.891060    2.401520
  H    -81.362100   -3.878850    4.223180
  H    -81.231800  -12.123000    3.606620

 Total Charge           Charge          ....    0
 Multiplicity           Mult            ....    1
 Number of Electrons    NEL             ....  134
 Basis Dimension        Dim             ....  322

ORBITAL ENERGIES
----------------

  NO   OCC          E(Eh)            E(eV)
   0   2.0000     -88.969848     -2420.9926
   1   2.0000     -88.962177     -2420.7839
   2   2.0000     -10.330350      -281.1031
   3   2.0000     -10.326828      -281.0073
   4   2.0000     -10.319692      -280.8131
   5   2.0000     -10.314564      -280.6736
   6   2.0000     -10.305685      -280.4319
   7   2.0000     -10.299984      -280.2768
   8   2.0000     -10.299624      -280.2670
   9   2.0000     -10.293042      -280.0879
  10   2.0000     -10.292815      -280.0817
  11   2.0000     -10.290225      -280.0113
  12   2.0000     -10.286946      -279.9220
  13   2.0000     -10.281550      -279.7752
  14   2.0000     -10.275647      -279.6146
  15   2.0000     -10.271026      -279.4888
  16   2.0000      -8.083668      -219.9678
  17   2.0000      -8.076998      -219.7863
  18   2.0000      -6.042291      -164.4191
  19   2.0000      -6.038244      -164.3090
  20   2.0000      -6.035691      -164.2395
  21   2.0000      -6.034413      -164.2047
  22   2.0000      -6.031679      -164.1303
  23   2.0000      -6.027361      -164.0128
  24   2.0000      -1.002948       -27.2916
  25   2.0000      -0.981734       -26.7143
  26   2.0000      -0.920846       -25.0575
  27   2.0000      -0.905415       -24.6376
  28   2.0000      -0.869036       -23.6477
  29   2.0000      -0.852317       -23.1927
  30   2.0000      -0.846521       -23.0350
  31   2.0000      -0.817888       -22.2559
  32   2.0000      -0.786883       -21.4122
  33   2.0000      -0.776034       -21.1170
  34   2.0000      -0.706757       -19.2318
  35   2.0000      -0.703912       -19.1544
  36   2.0000      -0.695177       -18.9167
  37   2.0000      -0.655857       -17.8468
  38   2.0000      -0.634257       -17.2590
  39   2.0000      -0.622174       -16.9302
  40   2.0000      -0.596590       -16.2340
  41   2.0000      -0.578797       -15.7499
  42   2.0000      -0.568767       -15.4769
  43   2.0000      -0.543994       -14.8028
  44   2.0000      -0.534250       -14.5377
  45   2.0000      -0.529045       -14.3960
  46   2.0000      -0.523171       -14.2362
  47   2.0000      -0.515997       -14.0410
  48   2.0000      -0.507010       -13.7964
  49   2.0000      -0.490544       -13.3484
  50   2.0000      -0.489218       -13.3123
  51   2.0000      -0.486251       -13.2316
  52   2.0000      -0.473867       -12.8946
  53   2.0000      -0.467472       -12.7206
  54   2.0000      -0.460089       -12.5197
  55   2.0000      -0.448924       -12.2158
  56   2.0000      -0.444476       -12.0948
  57   2.0000      -0.434914       -11.8346
  58   2.0000      -0.432277       -11.7629
  59   2.0000      -0.430055       -11.7024
  60   2.0000      -0.427014       -11.6196
  61   2.0000      -0.415498       -11.3063
  62   2.0000      -0.411118       -11.1871
  63   2.0000      -0.345519        -9.4020
  64   2.0000      -0.327989        -8.9250
  65   2.0000      -0.325820        -8.8660
  66   2.0000      -0.297251        -8.0886
  67   0.0000       0.029923         0.8142
  68   0.0000       0.071603         1.9484
  69   0.0000       0.112420         3.0591
  70   0.0000       0.122289         3.3277
  71   0.0000       0.124777         3.3953

MULLIKEN ATOMIC CHARGES
-----------------------
   0 S :    0.117491
   1 C :   -0.146207
   2 C :   -0.122527
   3 C :    0.029113
   4 C :   -0.156357
   5 H :    0.009827
   6 C :    0.133613
   7 H :    0.002839
   8 H :    0.023656
   9 C :   -0.104001
  10 H :    0.032230
  11 H :    0.040866
  12 C :   -0.020296
  13 H :    0.019769
  14 H :    0.028676
  15 H :    0.011529
  16 S :    0.101841
  17 C :   -0.099436
  18 C :   -0.019684
  19 C :   -0.059373
  20 C :   -0.144669
  21 H :    0.009004
  22 C :    0.071052
  23 H :    0.034962
  24 H :    0.011587
  25 C :   -0.059369
  26 H :    0.027950
  27 H :    0.009832
  28 C :    0.018925
  29 H :    0.032358
  30 H :    0.007094
  31 H :    0.027729
  32 H :    0.068106
  33 H :    0.061872
Sum of atomic charges:   -0.0000000

LOEWDIN ATOMIC CHARGES
----------------------
   0 S :    0.395935
   1 C :   -0.209497
   2 C :   -0.067818
   3 C :   -0.058220
   4 C :   -0.192119
   5 H :    0.033523
   6 C :   -0.023435
   7 H :    0.026269
   8 H :    0.028236
   9 C :   -0.043909
  10 H :    0.028103
  11 H :    0.032810
  12 C :   -0.068979
  13 H :    0.014498
  14 H :    0.031948
  15 H :    0.031347
  16 S :    0.390608
  17 C :   -0.182271
  18 C :   -0.071375
  19 C :   -0.052170
  20 C :   -0.191740
  21 H :    0.027800
  22 C :   -0.026379
  23 H :    0.035004
  24 H :    0.021112
  25 C :   -0.039509
  26 H :    0.020631
  27 H :    0.018910
  28 C :   -0.058401
  29 H :    0.032947
  30 H :    0.014185
  31 H :    0.027599
  32 H :    0.037539
  33 H :    0.036814

  Mayer bond orders larger than 0.100000
B(  0-S ,  1-C ) :   1.1526 B(  0-S ,  4-C ) :   1.1311 B(  1-C ,  2-C ) :   1.5969
B(  1-C , 32-H ) :   0.9516 B(  2-C ,  3-C ) :   1.2756 B(  2-C ,  6-C ) :   1.0334
B(  3-C ,  4-C ) :   1.5639 B(  3-C ,  5-H ) :   0.9746 B(  4-C , 20-C ) :   1.0352
B(  6-C ,  7-H ) :   0.9317 B(  6-C ,  8-H ) :   0.9411 B(  6-C ,  9-C ) :   1.0406
B(  9-C , 10-H ) :   0.9593 B(  9-C , 11-H ) :   0.9599 B(  9-C , 12-C ) :   1.0766
B( 12-C , 13-H ) :   0.9712 B( 12-C , 14-H ) :   0.9670 B( 12-C , 15-H ) :   0.9659
B( 16-S , 17-C ) :   1.1250 B( 16-S , 20-C ) :   1.1380 B( 17-C , 18-C ) :   1.6706
B( 17-C , 33-H ) :   0.9624 B( 18-C , 19-C ) :   1.1909 B( 18-C , 21-H ) :   0.9928
B( 19-C , 20-C ) :   1.6290 B( 19-C , 22-C ) :   1.0520 B( 22-C , 23-H ) :   0.9348
B( 22-C , 24-H ) :   0.9320 B( 22-C , 25-C ) :   1.0565 B( 25-C , 26-H ) :   0.9516
B( 25-C , 27-H ) :   0.9429 B( 25-C , 28-C ) :   1.0990 B( 28-C , 29-H ) :   0.9605
B( 28-C , 30-H ) :   0.9566 B( 28-C , 31-H ) :   0.9666

Dispersion correction           -0.016123542
FINAL SINGLE POINT ENERGY     -1339.861949168612

DIPOLE MOMENT
-------------
                                X             Y             Z
Electronic contribution:    -28.82872      -8.67836      11.44274
Nuclear contribution   :     29.45986       8.80640     -11.99000
                        -----------------------------------------
Total Dipole Moment    :      0.63114       0.12804      -0.54726
                        -----------------------------------------
Magnitude (a.u.)       :      0.84512
Magnitude (Debye)      :      2.14812

Rotational constants in cm-1:     0.016567     0.011061     0.007424
Rotational constants in MHz :   496.668644   331.604264   222.573688

                             ****ORCA TERMINATED NORMALLY****
TOTAL RUN TIME: 0 days 0 hours 0 minutes 23 seconds 265 msec
