                         Program Version 4.2.1 -  RELEASE  -
|  1> ! wB97X-D3 SP def2-SVP
|  2> %pal
|  3> nprocs 24
|  4> end
|  5>
|  6> * xyz 0 1
|  7> S 	 -137.555 	 67.4442 	 -65.2474
|  8> C 	 -136.405 	 68.7132 	 -65.597
|  9> C 	 -136.343 	 69.6623 	 -64.5932
| 10> C 	 -137.228 	 69.331 	 -63.5199
| 11> C 	 -137.979 	 68.1436 	 -63.6752
| 12> H 	 -137.373 	 70.0002 	 -62.7117
| 13> C 	 -135.586 	 70.9901 	 -64.5844
| 14> H 	 -134.639 	 70.7488 	 -65.1049
| 15> H 	 -135.331 	 71.0324 	 -63.4865
| 16> C 	 -136.296 	 72.2506 	 -65.0532
| 17> H 	 -137.213 	 72.4603 	 -64.5204
| 18> H 	 -135.619 	 73.1825 	 -64.8306
| 19> C 	 -136.667 	 72.2362 	 -66.5232
| 20> H 	 -137.262 	 71.324 	 -66.8341
| 21> H 	 -137.154 	 73.1685 	 -66.8025
| 22> H 	 -135.77 	 72.1986 	 -67.1083
| 23> S 	 -140.633 	 67.3505 	 -63.3731
| 24> C 	 -141.286 	 66.6759 	 -61.8077
| 25> C 	 -140.304 	 66.783 	 -60.8435
| 26> C 	 -139.078 	 67.3616 	 -61.3787
| 27> C 	 -139.02 	 67.5202 	 -62.7896
| 28> H 	 -140.565 	 66.4654 	 -59.8154
| 29> C 	 -137.815 	 67.5695 	 -60.6086
| 30> H 	 -138.036 	 67.7354 	 -59.5945
| 31> H 	 -137.369 	 68.4544 	 -61.021
| 32> C 	 -136.812 	 66.3885 	 -60.6695
| 33> H 	 -135.813 	 66.7393 	 -60.3151
| 34> H 	 -136.683 	 66.0763 	 -61.7229
| 35> C 	 -137.141 	 65.0581 	 -59.9264
| 36> H 	 -137.045 	 65.0814 	 -58.878
| 37> H 	 -136.234 	 64.3927 	 -60.2279
| 38> H 	 -138.023 	 64.5911 	 -60.1643
| 39> H 	 -135.651 	 68.6444 	 -66.354
| 40> H 	 -142.287 	 66.1578 	 -61.6714
| 41> *
| 42>
| 43>                          ****END OF INPUT****

CARTESIAN COORDINATES (ANGSTROEM)
---------------------------------
  S    -137.555000   67.444200  -65.247400
  C    -136.405000   68.713200  -65.597000
  C    -136.343000   69.662300  -64.593200
  C    -137.228000   69.331000  -63.519900
  C    -137.979000   68.143600  -63.675200
  H    -137.373000   70.000200  -62.711700
  C    -135.586000   70.990100  -64.584400
  H    -134.639000   70.748800  -65.104900
  H    -135.331000   71.032400  -63.486500
  C    -136.296000   72.250600  -65.053200
  H    -137.213000   72.460300  -64.520400
  H    -135.619000   73.182500  -64.830600
  C    -136.667000   72.236200  -66.523200
  H    -137.262000   71.324000  -66.834100
  H    -137.154000   73.168500  -66.802500
  H    -135.770000   72.198600  -67.108300
  S    -140.633000   67.350500  -63.373100
  C    -141.286000   66.675900  -61.807700
  C    -140.304000   66.783000  -60.843500
  C    -139.078000   67.361600  -61.378700
  C    -139.020000   67.520200  -62.789600
  H    -140.565000   66.465400  -59.815400
  C    -137.815000   67.569500  -60.608600
  H    -138.036000   67.735400  -59.594500
  H    -137.369000   68.454400  -61.021000
  C    -136.812000   66.388500  -60.669500
  H    -135.813000   66.739300  -60.315100
  H    -136.683000   66.076300  -61.722900
  C    -137.141000   65.058100  -59.926400
  H    -137.045000   65.081400  -58.878000
  H    -136.234000   64.392700  -60.227900
  H    -138.023000   64.591100  -60.164300
  H    -135.651000   68.644400  -66.354000
  H    -142.287000   66.157800  -61.671400

 Total Charge           Charge          ....    0
 Multiplicity           Mult            ....    1
 Number of Electrons    NEL             ....  134
 Basis Dimension        Dim             ....  322

ORBITAL ENERGIES
----------------

  NO   OCC          E(Eh)            E(eV)
   0   2.0000     -88.970985     -2421.0236
   1   2.0000     -88.962835     -2420.8018
   2   2.0000     -10.343848      -281.4704
   3   2.0000     -10.333363      -281.1851
   4   2.0000     -10.329379      -281.0767
   5   2.0000     -10.317125      -280.7432
   6   2.0000     -10.307549      -280.4827
   7   2.0000     -10.304932      -280.4114
   8   2.0000     -10.303908      -280.3836
   9   2.0000     -10.302078      -280.3338
  10   2.0000     -10.298544      -280.2376
  11   2.0000     -10.296908      -280.1931
  12   2.0000     -10.287701      -279.9426
  13   2.0000     -10.278776      -279.6997
  14   2.0000     -10.276574      -279.6398
  15   2.0000     -10.271972      -279.5146
  16   2.0000      -8.085182      -220.0090
  17   2.0000      -8.076925      -219.7843
  18   2.0000      -6.043681      -164.4569
  19   2.0000      -6.039613      -164.3462
  20   2.0000      -6.036117      -164.2511
  21   2.0000      -6.035590      -164.2368
  22   2.0000      -6.031445      -164.1240
  23   2.0000      -6.027586      -164.0190
  24   2.0000      -1.001154       -27.2428
  25   2.0000      -0.980653       -26.6849
  26   2.0000      -0.912333       -24.8258
  27   2.0000      -0.900672       -24.5085
  28   2.0000      -0.868325       -23.6283
  29   2.0000      -0.850272       -23.1371
  30   2.0000      -0.838766       -22.8240
  31   2.0000      -0.817790       -22.2532
  32   2.0000      -0.782848       -21.3024
  33   2.0000      -0.769366       -20.9355
  34   2.0000      -0.708331       -19.2747
  35   2.0000      -0.696702       -18.9582
  36   2.0000      -0.687058       -18.6958
  37   2.0000      -0.657875       -17.9017
  38   2.0000      -0.640581       -17.4311
  39   2.0000      -0.623274       -16.9601
  40   2.0000      -0.585097       -15.9213
  41   2.0000      -0.569862       -15.5067
  42   2.0000      -0.554550       -15.0901
  43   2.0000      -0.546275       -14.8649
  44   2.0000      -0.543005       -14.7759
  45   2.0000      -0.538840       -14.6626
  46   2.0000      -0.518379       -14.1058
  47   2.0000      -0.512905       -13.9569
  48   2.0000      -0.502332       -13.6691
  49   2.0000      -0.490884       -13.3576
  50   2.0000      -0.486002       -13.2248
  51   2.0000      -0.482427       -13.1275
  52   2.0000      -0.476211       -12.9584
  53   2.0000      -0.465186       -12.6583
  54   2.0000      -0.453050       -12.3281
  55   2.0000      -0.446238       -12.1428
  56   2.0000      -0.442864       -12.0509
  57   2.0000      -0.434351       -11.8193
  58   2.0000      -0.424802       -11.5594
  59   2.0000      -0.424001       -11.5376
  60   2.0000      -0.418736       -11.3944
  61   2.0000      -0.411811       -11.2059
  62   2.0000      -0.407661       -11.0930
  63   2.0000      -0.350912        -9.5488
  64   2.0000      -0.333653        -9.0792
  65   2.0000      -0.323698        -8.8083
  66   2.0000      -0.292614        -7.9624
  67   0.0000       0.022020         0.5992
  68   0.0000       0.062779         1.7083
  69   0.0000       0.109501         2.9797
  70   0.0000       0.116721         3.1761
  71   0.0000       0.125276         3.4089

MULLIKEN ATOMIC CHARGES
-----------------------
   0 S :    0.114795
   1 C :   -0.109272
   2 C :   -0.127093
   3 C :    0.044132
   4 C :   -0.166437
   5 H :    0.009554
   6 C :    0.049919
   7 H :    0.029620
   8 H :    0.034088
   9 C :   -0.057630
  10 H :    0.029462
  11 H :    0.045364
  12 C :   -0.060238
  13 H :    0.055960
  14 H :    0.036246
  15 H :    0.014209
  16 S :    0.088792
  17 C :   -0.134766
  18 C :   -0.021920
  19 C :   -0.090892
  20 C :   -0.112282
  21 H :    0.039206
  22 C :    0.137887
  23 H :   -0.000565
  24 H :    0.002164
  25 C :   -0.089937
  26 H :    0.029786
  27 H :    0.036615
  28 C :   -0.043232
  29 H :    0.016846
  30 H :    0.036914
  31 H :    0.027342
  32 H :    0.047279
  33 H :    0.088082
Sum of atomic charges:   -0.0000000

LOEWDIN ATOMIC CHARGES
----------------------
   0 S :    0.410438
   1 C :   -0.197175
   2 C :   -0.067891
   3 C :   -0.057461
   4 C :   -0.188841
   5 H :    0.023006
   6 C :   -0.037588
   7 H :    0.033342
   8 H :    0.039152
   9 C :   -0.046306
  10 H :    0.023672
  11 H :    0.038290
  12 C :   -0.070992
  13 H :    0.035808
  14 H :    0.027502
  15 H :    0.017992
  16 S :    0.387977
  17 C :   -0.178495
  18 C :   -0.076237
  19 C :   -0.056132
  20 C :   -0.212179
  21 H :    0.041841
  22 C :   -0.035374
  23 H :    0.020512
  24 H :    0.027893
  25 C :   -0.035296
  26 H :    0.026674
  27 H :    0.027131
  28 C :   -0.062636
  29 H :    0.013917
  30 H :    0.042333
  31 H :    0.010958
  32 H :    0.026021
  33 H :    0.048146

  Mayer bond orders larger than 0.100000
B(  0-S ,  1-C ) :   1.1504 B(  0-S ,  4-C ) :   1.1607 B(  1-C ,  2-C ) :   1.5951
B(  1-C ,  4-C ) :   0.1019 B(  1-C , 32-H ) :   0.9647 B(  2-C ,  3-C ) :   1.2779
B(  2-C ,  6-C ) :   1.0080 B(  3-C ,  4-C ) :   1.5461 B(  3-C ,  5-H ) :   0.9866
B(  4-C , 20-C ) :   1.0130 B(  6-C ,  7-H ) :   0.9419 B(  6-C ,  8-H ) :   0.9372
B(  6-C ,  9-C ) :   1.0670 B(  9-C , 10-H ) :   0.9544 B(  9-C , 11-H ) :   0.9505
B(  9-C , 12-C ) :   1.0786 B( 12-C , 13-H ) :   0.9721 B( 12-C , 14-H ) :   0.9719
B( 12-C , 15-H ) :   0.9736 B( 16-S , 17-C ) :   1.1471 B( 16-S , 20-C ) :   1.1483
B( 17-C , 18-C ) :   1.6096 B( 17-C , 20-C ) :   0.1041 B( 17-C , 33-H ) :   0.9584
B( 18-C , 19-C ) :   1.2304 B( 18-C , 21-H ) :   0.9871 B( 19-C , 20-C ) :   1.5620
B( 19-C , 22-C ) :   1.0704 B( 22-C , 23-H ) :   0.9269 B( 22-C , 24-H ) :   0.9214
B( 22-C , 25-C ) :   1.0676 B( 25-C , 26-H ) :   0.9559 B( 25-C , 27-H ) :   0.9607
B( 25-C , 28-C ) :   1.0736 B( 28-C , 29-H ) :   0.9759 B( 28-C , 30-H ) :   0.9734
B( 28-C , 31-H ) :   0.9782

Dispersion correction           -0.014690133
FINAL SINGLE POINT ENERGY     -1339.862325108839

DIPOLE MOMENT
-------------
                                X             Y             Z
Electronic contribution:    -15.03498      -9.48359      -7.44553
Nuclear contribution   :     15.38512       9.81749       7.84392
                        -----------------------------------------
Total Dipole Moment    :      0.35014       0.33390       0.39839
                        -----------------------------------------
Magnitude (a.u.)       :      0.62674
Magnitude (Debye)      :      1.59305

Rotational constants in cm-1:     0.021767     0.007752     0.006918
Rotational constants in MHz :   652.570989   232.386864   207.381935

                             ****ORCA TERMINATED NORMALLY****
TOTAL RUN TIME: 0 days 0 hours 0 minutes 21 seconds 781 msec
