                         Program Version 4.2.1 -  RELEASE  -
|  1> ! wB97X-D3 SP def2-SVP
|  2> %pal
|  3> nprocs 24
|  4> end
|  5>
|  6> * xyz 0 1
|  7> S 	 -102.424 	 -0.540076 	 -120.052
|  8> C 	 -103.851 	 -1.60127 	 -120.375
|  9> C 	 -103.4 	 -2.78927 	 -120.882
| 10> C 	 -101.976 	 -2.81481 	 -121.262
| 11> C 	 -101.296 	 -1.71707 	 -120.762
| 12> H 	 -101.399 	 -3.6084 	 -121.608
| 13> C 	 -104.261 	 -3.99506 	 -121.298
| 14> H 	 -105.113 	 -4.14886 	 -120.559
| 15> H 	 -103.747 	 -4.97012 	 -121.238
| 16> C 	 -104.788 	 -3.75084 	 -122.677
| 17> H 	 -105.45 	 -2.8296 	 -122.602
| 18> H 	 -103.954 	 -3.45812 	 -123.35
| 19> C 	 -105.455 	 -4.97933 	 -123.304
| 20> H 	 -104.79 	 -5.794 	 -123.453
| 21> H 	 -106.115 	 -5.3726 	 -122.549
| 22> H 	 -106.125 	 -4.82122 	 -124.124
| 23> S 	 -99.3491 	 0.0747651 	 -121.559
| 24> C 	 -97.6885 	 -0.498692 	 -121.651
| 25> C 	 -97.6025 	 -1.74688 	 -121.184
| 26> C 	 -98.8109 	 -2.3652 	 -120.782
| 27> C 	 -99.8997 	 -1.47352 	 -120.955
| 28> H 	 -96.6495 	 -2.24772 	 -121.005
| 29> C 	 -98.9413 	 -3.83478 	 -120.261
| 30> H 	 -99.1092 	 -4.52653 	 -121.105
| 31> H 	 -99.8697 	 -3.94967 	 -119.655
| 32> C 	 -97.7961 	 -4.35203 	 -119.414
| 33> H 	 -97.6046 	 -3.57823 	 -118.654
| 34> H 	 -96.8535 	 -4.44295 	 -119.958
| 35> C 	 -98.2086 	 -5.63506 	 -118.759
| 36> H 	 -97.3567 	 -6.26419 	 -118.419
| 37> H 	 -98.793 	 -6.16734 	 -119.465
| 38> H 	 -98.7116 	 -5.53575 	 -117.793
| 39> H 	 -104.911 	 -1.34107 	 -120.046
| 40> H 	 -96.887 	 0.177374 	 -121.953
| 41> *
| 42>
| 43>                          ****END OF INPUT****

CARTESIAN COORDINATES (ANGSTROEM)
---------------------------------
  S    -102.424000   -0.540076  -120.052000
  C    -103.851000   -1.601270  -120.375000
  C    -103.400000   -2.789270  -120.882000
  C    -101.976000   -2.814810  -121.262000
  C    -101.296000   -1.717070  -120.762000
  H    -101.399000   -3.608400  -121.608000
  C    -104.261000   -3.995060  -121.298000
  H    -105.113000   -4.148860  -120.559000
  H    -103.747000   -4.970120  -121.238000
  C    -104.788000   -3.750840  -122.677000
  H    -105.450000   -2.829600  -122.602000
  H    -103.954000   -3.458120  -123.350000
  C    -105.455000   -4.979330  -123.304000
  H    -104.790000   -5.794000  -123.453000
  H    -106.115000   -5.372600  -122.549000
  H    -106.125000   -4.821220  -124.124000
  S    -99.349100    0.074765  -121.559000
  C    -97.688500   -0.498692  -121.651000
  C    -97.602500   -1.746880  -121.184000
  C    -98.810900   -2.365200  -120.782000
  C    -99.899700   -1.473520  -120.955000
  H    -96.649500   -2.247720  -121.005000
  C    -98.941300   -3.834780  -120.261000
  H    -99.109200   -4.526530  -121.105000
  H    -99.869700   -3.949670  -119.655000
  C    -97.796100   -4.352030  -119.414000
  H    -97.604600   -3.578230  -118.654000
  H    -96.853500   -4.442950  -119.958000
  C    -98.208600   -5.635060  -118.759000
  H    -97.356700   -6.264190  -118.419000
  H    -98.793000   -6.167340  -119.465000
  H    -98.711600   -5.535750  -117.793000
  H    -104.911000   -1.341070  -120.046000
  H    -96.887000    0.177374  -121.953000

 Total Charge           Charge          ....    0
 Multiplicity           Mult            ....    1
 Number of Electrons    NEL             ....  134
 Basis Dimension        Dim             ....  322

ORBITAL ENERGIES
----------------

  NO   OCC          E(Eh)            E(eV)
   0   2.0000     -88.964741     -2420.8537
   1   2.0000     -88.964044     -2420.8347
   2   2.0000     -10.330879      -281.1175
   3   2.0000     -10.327948      -281.0377
   4   2.0000     -10.325528      -280.9719
   5   2.0000     -10.316595      -280.7288
   6   2.0000     -10.308929      -280.5202
   7   2.0000     -10.308002      -280.4950
   8   2.0000     -10.300292      -280.2852
   9   2.0000     -10.296948      -280.1942
  10   2.0000     -10.293426      -280.0984
  11   2.0000     -10.291461      -280.0449
  12   2.0000     -10.288877      -279.9746
  13   2.0000     -10.285973      -279.8955
  14   2.0000     -10.277173      -279.6561
  15   2.0000     -10.271132      -279.4917
  16   2.0000      -8.079593      -219.8569
  17   2.0000      -8.077633      -219.8036
  18   2.0000      -6.038077      -164.3044
  19   2.0000      -6.036509      -164.2618
  20   2.0000      -6.034095      -164.1961
  21   2.0000      -6.032313      -164.1476
  22   2.0000      -6.030351      -164.0942
  23   2.0000      -6.028056      -164.0318
  24   2.0000      -1.005048       -27.3488
  25   2.0000      -0.978877       -26.6366
  26   2.0000      -0.915809       -24.9204
  27   2.0000      -0.913869       -24.8676
  28   2.0000      -0.873939       -23.7811
  29   2.0000      -0.852325       -23.1930
  30   2.0000      -0.839848       -22.8534
  31   2.0000      -0.814731       -22.1700
  32   2.0000      -0.781787       -21.2735
  33   2.0000      -0.771575       -20.9956
  34   2.0000      -0.706254       -19.2181
  35   2.0000      -0.702018       -19.1029
  36   2.0000      -0.695550       -18.9269
  37   2.0000      -0.655040       -17.8246
  38   2.0000      -0.640133       -17.4189
  39   2.0000      -0.618232       -16.8229
  40   2.0000      -0.604991       -16.4626
  41   2.0000      -0.570817       -15.5327
  42   2.0000      -0.568910       -15.4808
  43   2.0000      -0.553698       -15.0669
  44   2.0000      -0.536861       -14.6087
  45   2.0000      -0.521864       -14.2007
  46   2.0000      -0.516726       -14.0608
  47   2.0000      -0.513392       -13.9701
  48   2.0000      -0.509694       -13.8695
  49   2.0000      -0.498779       -13.5725
  50   2.0000      -0.492435       -13.3998
  51   2.0000      -0.476642       -12.9701
  52   2.0000      -0.475829       -12.9480
  53   2.0000      -0.463285       -12.6066
  54   2.0000      -0.453718       -12.3463
  55   2.0000      -0.451897       -12.2967
  56   2.0000      -0.447097       -12.1661
  57   2.0000      -0.434422       -11.8212
  58   2.0000      -0.433579       -11.7983
  59   2.0000      -0.426487       -11.6053
  60   2.0000      -0.417450       -11.3594
  61   2.0000      -0.413468       -11.2510
  62   2.0000      -0.408255       -11.1092
  63   2.0000      -0.353816        -9.6278
  64   2.0000      -0.332247        -9.0409
  65   2.0000      -0.327170        -8.9028
  66   2.0000      -0.292478        -7.9587
  67   0.0000       0.024211         0.6588
  68   0.0000       0.077288         2.1031
  69   0.0000       0.103409         2.8139
  70   0.0000       0.125463         3.4140
  71   0.0000       0.133959         3.6452

MULLIKEN ATOMIC CHARGES
-----------------------
   0 S :    0.085871
   1 C :   -0.153620
   2 C :   -0.065199
   3 C :    0.047245
   4 C :   -0.142302
   5 H :   -0.006787
   6 C :    0.019494
   7 H :    0.032654
   8 H :    0.024603
   9 C :   -0.098423
  10 H :    0.034134
  11 H :    0.038155
  12 C :    0.009560
  13 H :    0.023464
  14 H :    0.002729
  15 H :    0.034259
  16 S :    0.104805
  17 C :   -0.097186
  18 C :   -0.017480
  19 C :   -0.032024
  20 C :   -0.155940
  21 H :    0.019390
  22 C :    0.004618
  23 H :    0.047318
  24 H :    0.045079
  25 C :   -0.076269
  26 H :    0.032528
  27 H :    0.035628
  28 C :   -0.035997
  29 H :    0.028004
  30 H :    0.023064
  31 H :    0.039247
  32 H :    0.083475
  33 H :    0.065904
Sum of atomic charges:    0.0000000

LOEWDIN ATOMIC CHARGES
----------------------
   0 S :    0.360184
   1 C :   -0.192604
   2 C :   -0.054331
   3 C :   -0.052749
   4 C :   -0.175947
   5 H :    0.021073
   6 C :   -0.040429
   7 H :    0.032366
   8 H :    0.027646
   9 C :   -0.046908
  10 H :    0.031033
  11 H :    0.027161
  12 C :   -0.066107
  13 H :    0.022327
  14 H :    0.022272
  15 H :    0.026498
  16 S :    0.402356
  17 C :   -0.179966
  18 C :   -0.076583
  19 C :   -0.053661
  20 C :   -0.198259
  21 H :    0.033943
  22 C :   -0.037229
  23 H :    0.029773
  24 H :    0.037431
  25 C :   -0.048268
  26 H :    0.028404
  27 H :    0.022187
  28 C :   -0.065555
  29 H :    0.031257
  30 H :    0.019128
  31 H :    0.031018
  32 H :    0.048170
  33 H :    0.034371

  Mayer bond orders larger than 0.100000
B(  0-S ,  1-C ) :   1.0995 B(  0-S ,  4-C ) :   1.1276 B(  1-C ,  2-C ) :   1.6550
B(  1-C , 32-H ) :   0.9604 B(  2-C ,  3-C ) :   1.1854 B(  2-C ,  6-C ) :   1.0305
B(  3-C ,  4-C ) :   1.6000 B(  3-C ,  5-H ) :   0.9934 B(  4-C , 20-C ) :   1.0780
B(  6-C ,  7-H ) :   0.9378 B(  6-C ,  8-H ) :   0.9477 B(  6-C ,  9-C ) :   1.0571
B(  9-C , 10-H ) :   0.9528 B(  9-C , 11-H ) :   0.9594 B(  9-C , 12-C ) :   1.0719
B( 12-C , 13-H ) :   0.9724 B( 12-C , 14-H ) :   0.9667 B( 12-C , 15-H ) :   0.9732
B( 16-S , 17-C ) :   1.1432 B( 16-S , 20-C ) :   1.1511 B( 17-C , 18-C ) :   1.5978
B( 17-C , 33-H ) :   0.9688 B( 18-C , 19-C ) :   1.2700 B( 18-C , 21-H ) :   0.9855
B( 19-C , 20-C ) :   1.5653 B( 19-C , 22-C ) :   1.0276 B( 22-C , 23-H ) :   0.9250
B( 22-C , 24-H ) :   0.9406 B( 22-C , 25-C ) :   1.0666 B( 25-C , 26-H ) :   0.9580
B( 25-C , 27-H ) :   0.9478 B( 25-C , 28-C ) :   1.0879 B( 28-C , 29-H ) :   0.9697
B( 28-C , 30-H ) :   0.9728 B( 28-C , 31-H ) :   0.9716

Dispersion correction           -0.013544980
FINAL SINGLE POINT ENERGY     -1339.879065491856

DIPOLE MOMENT
-------------
                                X             Y             Z
Electronic contribution:      5.35410      28.13053       0.83237
Nuclear contribution   :     -5.25006     -28.87826      -0.79584
                        -----------------------------------------
Total Dipole Moment    :      0.10404      -0.74773       0.03653
                        -----------------------------------------
Magnitude (a.u.)       :      0.75581
Magnitude (Debye)      :      1.92113

Rotational constants in cm-1:     0.016762     0.008264     0.006485
Rotational constants in MHz :   502.524916   247.751778   194.408871

                             ****ORCA TERMINATED NORMALLY****
TOTAL RUN TIME: 0 days 0 hours 0 minutes 21 seconds 161 msec
