                         Program Version 4.2.1 -  RELEASE  -
|  1> ! wB97X-D3 SP def2-SVP
|  2> %pal
|  3> nprocs 24
|  4> end
|  5>
|  6> * xyz 0 1
|  7> S 	 -51.8346 	 7.89738 	 -20.9479
|  8> C 	 -50.5061 	 8.87642 	 -20.4107
|  9> C 	 -50.8102 	 10.2119 	 -20.4441
| 10> C 	 -52.2399 	 10.4257 	 -20.6346
| 11> C 	 -52.9017 	 9.2878 	 -20.9218
| 12> H 	 -52.7776 	 11.3393 	 -20.6708
| 13> C 	 -49.8324 	 11.3097 	 -20.2213
| 14> H 	 -49.6939 	 11.9281 	 -21.0315
| 15> H 	 -48.8266 	 10.8057 	 -20.1325
| 16> C 	 -49.9329 	 12.2504 	 -19.003
| 17> H 	 -49.1825 	 13.0172 	 -19.1131
| 18> H 	 -50.8965 	 12.7411 	 -19.0628
| 19> C 	 -49.9947 	 11.5661 	 -17.6401
| 20> H 	 -49.1307 	 10.9079 	 -17.4848
| 21> H 	 -50.0349 	 12.2433 	 -16.7616
| 22> H 	 -50.8443 	 10.7861 	 -17.6498
| 23> S 	 -55.0502 	 8.41302 	 -19.5918
| 24> C 	 -56.6512 	 8.80933 	 -20.1613
| 25> C 	 -56.6265 	 9.56798 	 -21.2866
| 26> C 	 -55.2964 	 9.70936 	 -21.8305
| 27> C 	 -54.3325 	 9.16946 	 -20.9745
| 28> H 	 -57.5589 	 9.97398 	 -21.7547
| 29> C 	 -55.0971 	 10.3421 	 -23.1897
| 30> H 	 -54.0158 	 10.5266 	 -23.2687
| 31> H 	 -55.5482 	 11.3226 	 -23.2142
| 32> C 	 -55.5627 	 9.48612 	 -24.3389
| 33> H 	 -56.4732 	 9.05432 	 -24.0091
| 34> H 	 -54.864 	 8.6529 	 -24.5694
| 35> C 	 -55.8671 	 10.2074 	 -25.661
| 36> H 	 -56.7078 	 10.8756 	 -25.7192
| 37> H 	 -56.0497 	 9.61117 	 -26.5403
| 38> H 	 -54.9563 	 10.8243 	 -25.813
| 39> H 	 -49.5491 	 8.5086 	 -20.2069
| 40> H 	 -57.6033 	 8.37395 	 -19.7118
| 41> *
| 42>
| 43>                          ****END OF INPUT****

CARTESIAN COORDINATES (ANGSTROEM)
---------------------------------
  S    -51.834600    7.897380  -20.947900
  C    -50.506100    8.876420  -20.410700
  C    -50.810200   10.211900  -20.444100
  C    -52.239900   10.425700  -20.634600
  C    -52.901700    9.287800  -20.921800
  H    -52.777600   11.339300  -20.670800
  C    -49.832400   11.309700  -20.221300
  H    -49.693900   11.928100  -21.031500
  H    -48.826600   10.805700  -20.132500
  C    -49.932900   12.250400  -19.003000
  H    -49.182500   13.017200  -19.113100
  H    -50.896500   12.741100  -19.062800
  C    -49.994700   11.566100  -17.640100
  H    -49.130700   10.907900  -17.484800
  H    -50.034900   12.243300  -16.761600
  H    -50.844300   10.786100  -17.649800
  S    -55.050200    8.413020  -19.591800
  C    -56.651200    8.809330  -20.161300
  C    -56.626500    9.567980  -21.286600
  C    -55.296400    9.709360  -21.830500
  C    -54.332500    9.169460  -20.974500
  H    -57.558900    9.973980  -21.754700
  C    -55.097100   10.342100  -23.189700
  H    -54.015800   10.526600  -23.268700
  H    -55.548200   11.322600  -23.214200
  C    -55.562700    9.486120  -24.338900
  H    -56.473200    9.054320  -24.009100
  H    -54.864000    8.652900  -24.569400
  C    -55.867100   10.207400  -25.661000
  H    -56.707800   10.875600  -25.719200
  H    -56.049700    9.611170  -26.540300
  H    -54.956300   10.824300  -25.813000
  H    -49.549100    8.508600  -20.206900
  H    -57.603300    8.373950  -19.711800

 Total Charge           Charge          ....    0
 Multiplicity           Mult            ....    1
 Number of Electrons    NEL             ....  134
 Basis Dimension        Dim             ....  322

ORBITAL ENERGIES
----------------

  NO   OCC          E(Eh)            E(eV)
   0   2.0000     -88.963931     -2420.8316
   1   2.0000     -88.962895     -2420.8035
   2   2.0000     -10.323180      -280.9080
   3   2.0000     -10.322708      -280.8952
   4   2.0000     -10.319332      -280.8033
   5   2.0000     -10.310435      -280.5612
   6   2.0000     -10.304981      -280.4128
   7   2.0000     -10.301904      -280.3291
   8   2.0000     -10.295401      -280.1521
   9   2.0000     -10.290960      -280.0313
  10   2.0000     -10.288917      -279.9757
  11   2.0000     -10.287470      -279.9363
  12   2.0000     -10.284906      -279.8665
  13   2.0000     -10.282578      -279.8032
  14   2.0000     -10.281985      -279.7870
  15   2.0000     -10.275801      -279.6188
  16   2.0000      -8.079279      -219.8484
  17   2.0000      -8.078382      -219.8240
  18   2.0000      -6.037796      -164.2968
  19   2.0000      -6.036910      -164.2727
  20   2.0000      -6.033804      -164.1881
  21   2.0000      -6.032759      -164.1597
  22   2.0000      -6.029883      -164.0815
  23   2.0000      -6.029089      -164.0598
  24   2.0000      -1.012022       -27.5385
  25   2.0000      -0.987241       -26.8642
  26   2.0000      -0.913780       -24.8652
  27   2.0000      -0.911459       -24.8021
  28   2.0000      -0.875021       -23.8105
  29   2.0000      -0.849895       -23.1268
  30   2.0000      -0.844967       -22.9927
  31   2.0000      -0.818495       -22.2724
  32   2.0000      -0.784070       -21.3356
  33   2.0000      -0.773080       -21.0366
  34   2.0000      -0.709057       -19.2944
  35   2.0000      -0.697705       -18.9855
  36   2.0000      -0.693217       -18.8634
  37   2.0000      -0.657880       -17.9018
  38   2.0000      -0.648747       -17.6533
  39   2.0000      -0.620653       -16.8888
  40   2.0000      -0.598662       -16.2904
  41   2.0000      -0.569221       -15.4893
  42   2.0000      -0.559834       -15.2338
  43   2.0000      -0.548833       -14.9345
  44   2.0000      -0.541487       -14.7346
  45   2.0000      -0.529162       -14.3992
  46   2.0000      -0.523518       -14.2457
  47   2.0000      -0.514379       -13.9970
  48   2.0000      -0.506351       -13.7785
  49   2.0000      -0.500296       -13.6138
  50   2.0000      -0.491696       -13.3797
  51   2.0000      -0.478210       -13.0127
  52   2.0000      -0.464802       -12.6479
  53   2.0000      -0.461654       -12.5623
  54   2.0000      -0.456127       -12.4119
  55   2.0000      -0.452374       -12.3097
  56   2.0000      -0.442974       -12.0539
  57   2.0000      -0.438950       -11.9444
  58   2.0000      -0.433243       -11.7892
  59   2.0000      -0.426559       -11.6073
  60   2.0000      -0.424783       -11.5589
  61   2.0000      -0.410001       -11.1567
  62   2.0000      -0.406081       -11.0500
  63   2.0000      -0.344040        -9.3618
  64   2.0000      -0.327845        -8.9211
  65   2.0000      -0.324145        -8.8204
  66   2.0000      -0.306585        -8.3426
  67   0.0000       0.039296         1.0693
  68   0.0000       0.068570         1.8659
  69   0.0000       0.113568         3.0903
  70   0.0000       0.120560         3.2806
  71   0.0000       0.128682         3.5016

MULLIKEN ATOMIC CHARGES
-----------------------
   0 S :    0.112890
   1 C :   -0.095550
   2 C :   -0.082001
   3 C :    0.065215
   4 C :   -0.183585
   5 H :    0.004817
   6 C :    0.079780
   7 H :    0.015410
   8 H :    0.009971
   9 C :   -0.057222
  10 H :    0.028761
  11 H :    0.023147
  12 C :   -0.083774
  13 H :    0.017132
  14 H :    0.048217
  15 H :    0.050317
  16 S :    0.116396
  17 C :   -0.114446
  18 C :   -0.045670
  19 C :   -0.060265
  20 C :   -0.162599
  21 H :    0.037972
  22 C :    0.095995
  23 H :    0.020088
  24 H :    0.022246
  25 C :   -0.048697
  26 H :    0.011621
  27 H :    0.041527
  28 C :   -0.057239
  29 H :    0.022313
  30 H :    0.031691
  31 H :    0.028116
  32 H :    0.025818
  33 H :    0.081608
Sum of atomic charges:   -0.0000000

LOEWDIN ATOMIC CHARGES
----------------------
   0 S :    0.401093
   1 C :   -0.182588
   2 C :   -0.061806
   3 C :   -0.048057
   4 C :   -0.200699
   5 H :    0.029394
   6 C :   -0.031437
   7 H :    0.022920
   8 H :    0.033303
   9 C :   -0.040305
  10 H :    0.023324
  11 H :    0.021642
  12 C :   -0.077216
  13 H :    0.018440
  14 H :    0.030002
  15 H :    0.038313
  16 S :    0.416986
  17 C :   -0.196334
  18 C :   -0.079871
  19 C :   -0.053080
  20 C :   -0.208044
  21 H :    0.040066
  22 C :   -0.033126
  23 H :    0.030838
  24 H :    0.030627
  25 C :   -0.038721
  26 H :    0.015087
  27 H :    0.034352
  28 C :   -0.070691
  29 H :    0.019804
  30 H :    0.026327
  31 H :    0.028048
  32 H :    0.016741
  33 H :    0.044668

  Mayer bond orders larger than 0.100000
B(  0-S ,  1-C ) :   1.1330 B(  0-S ,  4-C ) :   1.1347 B(  1-C ,  2-C ) :   1.6346
B(  1-C , 32-H ) :   0.9713 B(  2-C ,  3-C ) :   1.1785 B(  2-C ,  6-C ) :   1.0374
B(  3-C ,  4-C ) :   1.6324 B(  3-C ,  5-H ) :   1.0001 B(  4-C , 20-C ) :   1.0109
B(  6-C ,  7-H ) :   0.9332 B(  6-C ,  8-H ) :   0.9351 B(  6-C ,  9-C ) :   1.0772
B(  9-C , 10-H ) :   0.9547 B(  9-C , 11-H ) :   0.9535 B(  9-C , 12-C ) :   1.0682
B( 12-C , 13-H ) :   0.9760 B( 12-C , 14-H ) :   0.9750 B( 12-C , 15-H ) :   0.9702
B( 16-S , 17-C ) :   1.1506 B( 16-S , 20-C ) :   1.1512 B( 17-C , 18-C ) :   1.6300
B( 17-C , 33-H ) :   0.9560 B( 18-C , 19-C ) :   1.2266 B( 18-C , 21-H ) :   0.9801
B( 19-C , 20-C ) :   1.6111 B( 19-C , 22-C ) :   1.0552 B( 22-C , 23-H ) :   0.9192
B( 22-C , 24-H ) :   0.9340 B( 22-C , 25-C ) :   1.0630 B( 25-C , 26-H ) :   0.9616
B( 25-C , 27-H ) :   0.9507 B( 25-C , 28-C ) :   1.0747 B( 28-C , 29-H ) :   0.9764
B( 28-C , 30-H ) :   0.9748 B( 28-C , 31-H ) :   0.9753

Dispersion correction           -0.014064135
FINAL SINGLE POINT ENERGY     -1339.878054808185

DIPOLE MOMENT
-------------
                                X             Y             Z
Electronic contribution:     -4.29821     -16.57038       8.34200
Nuclear contribution   :      4.25851      17.07543      -8.57971
                        -----------------------------------------
Total Dipole Moment    :     -0.03971       0.50505      -0.23771
                        -----------------------------------------
Magnitude (a.u.)       :      0.55960
Magnitude (Debye)      :      1.42240

Rotational constants in cm-1:     0.019807     0.007699     0.006874
Rotational constants in MHz :   593.802195   230.817134   206.082768

                             ****ORCA TERMINATED NORMALLY****
TOTAL RUN TIME: 0 days 0 hours 0 minutes 21 seconds 310 msec
