                         Program Version 4.2.1 -  RELEASE  -
|  1> ! wB97X-D3 SP def2-SVP
|  2> %pal
|  3> nprocs 24
|  4> end
|  5>
|  6> * xyz 0 1
|  7> S 	 -60.8522 	 -2.05661 	 -28.5216
|  8> C 	 -62.4528 	 -1.93892 	 -29.2357
|  9> C 	 -63.4801 	 -1.98521 	 -28.2941
| 10> C 	 -62.9755 	 -2.29575 	 -26.955
| 11> C 	 -61.5939 	 -2.23955 	 -26.919
| 12> H 	 -63.5886 	 -2.46635 	 -26.0723
| 13> C 	 -64.919 	 -1.86592 	 -28.6246
| 14> H 	 -64.9594 	 -1.59517 	 -29.728
| 15> H 	 -65.2665 	 -1.00255 	 -28.0964
| 16> C 	 -65.7375 	 -3.14181 	 -28.3969
| 17> H 	 -65.3146 	 -3.97186 	 -29.0382
| 18> H 	 -65.7531 	 -3.56442 	 -27.427
| 19> C 	 -67.2141 	 -2.92104 	 -28.8524
| 20> H 	 -67.2502 	 -2.76662 	 -29.9306
| 21> H 	 -67.8292 	 -3.80306 	 -28.6224
| 22> H 	 -67.6606 	 -2.06345 	 -28.3688
| 23> S 	 -59.7073 	 -3.76781 	 -25.6275
| 24> C 	 -59.4124 	 -3.44965 	 -23.9602
| 25> C 	 -60.0864 	 -2.28847 	 -23.4946
| 26> C 	 -60.8159 	 -1.66273 	 -24.5302
| 27> C 	 -60.7847 	 -2.37998 	 -25.6936
| 28> H 	 -59.8854 	 -1.75847 	 -22.5323
| 29> C 	 -61.6528 	 -0.401384 	 -24.2912
| 30> H 	 -62.2623 	 -0.444671 	 -23.3563
| 31> H 	 -62.5022 	 -0.293879 	 -24.9156
| 32> C 	 -60.8874 	 0.870619 	 -24.3101
| 33> H 	 -61.5678 	 1.67959 	 -24.4952
| 34> H 	 -60.2932 	 0.956405 	 -25.2478
| 35> C 	 -59.9508 	 1.27025 	 -23.1716
| 36> H 	 -60.4605 	 1.05193 	 -22.2169
| 37> H 	 -59.7684 	 2.41249 	 -23.1532
| 38> H 	 -58.9891 	 0.742812 	 -23.1345
| 39> H 	 -62.6281 	 -1.81529 	 -30.2657
| 40> H 	 -58.8995 	 -4.10729 	 -23.3246
| 41> *
| 42>
| 43>                          ****END OF INPUT****

CARTESIAN COORDINATES (ANGSTROEM)
---------------------------------
  S    -60.852200   -2.056610  -28.521600
  C    -62.452800   -1.938920  -29.235700
  C    -63.480100   -1.985210  -28.294100
  C    -62.975500   -2.295750  -26.955000
  C    -61.593900   -2.239550  -26.919000
  H    -63.588600   -2.466350  -26.072300
  C    -64.919000   -1.865920  -28.624600
  H    -64.959400   -1.595170  -29.728000
  H    -65.266500   -1.002550  -28.096400
  C    -65.737500   -3.141810  -28.396900
  H    -65.314600   -3.971860  -29.038200
  H    -65.753100   -3.564420  -27.427000
  C    -67.214100   -2.921040  -28.852400
  H    -67.250200   -2.766620  -29.930600
  H    -67.829200   -3.803060  -28.622400
  H    -67.660600   -2.063450  -28.368800
  S    -59.707300   -3.767810  -25.627500
  C    -59.412400   -3.449650  -23.960200
  C    -60.086400   -2.288470  -23.494600
  C    -60.815900   -1.662730  -24.530200
  C    -60.784700   -2.379980  -25.693600
  H    -59.885400   -1.758470  -22.532300
  C    -61.652800   -0.401384  -24.291200
  H    -62.262300   -0.444671  -23.356300
  H    -62.502200   -0.293879  -24.915600
  C    -60.887400    0.870619  -24.310100
  H    -61.567800    1.679590  -24.495200
  H    -60.293200    0.956405  -25.247800
  C    -59.950800    1.270250  -23.171600
  H    -60.460500    1.051930  -22.216900
  H    -59.768400    2.412490  -23.153200
  H    -58.989100    0.742812  -23.134500
  H    -62.628100   -1.815290  -30.265700
  H    -58.899500   -4.107290  -23.324600

 Total Charge           Charge          ....    0
 Multiplicity           Mult            ....    1
 Number of Electrons    NEL             ....  134
 Basis Dimension        Dim             ....  322

ORBITAL ENERGIES
----------------

  NO   OCC          E(Eh)            E(eV)
   0   2.0000     -88.968241     -2420.9489
   1   2.0000     -88.965833     -2420.8834
   2   2.0000     -10.330419      -281.1050
   3   2.0000     -10.322667      -280.8940
   4   2.0000     -10.317815      -280.7620
   5   2.0000     -10.310209      -280.5551
   6   2.0000     -10.301045      -280.3057
   7   2.0000     -10.300503      -280.2909
   8   2.0000     -10.298396      -280.2336
   9   2.0000     -10.297001      -280.1956
  10   2.0000     -10.294163      -280.1184
  11   2.0000     -10.290488      -280.0184
  12   2.0000     -10.288800      -279.9725
  13   2.0000     -10.283972      -279.8411
  14   2.0000     -10.279566      -279.7212
  15   2.0000     -10.279184      -279.7108
  16   2.0000      -8.083382      -219.9600
  17   2.0000      -8.080075      -219.8700
  18   2.0000      -6.041658      -164.4019
  19   2.0000      -6.038655      -164.3202
  20   2.0000      -6.037828      -164.2976
  21   2.0000      -6.034802      -164.2153
  22   2.0000      -6.034373      -164.2036
  23   2.0000      -6.030660      -164.1026
  24   2.0000      -1.004348       -27.3297
  25   2.0000      -0.979952       -26.6659
  26   2.0000      -0.912220       -24.8228
  27   2.0000      -0.911085       -24.7919
  28   2.0000      -0.863669       -23.5016
  29   2.0000      -0.851676       -23.1753
  30   2.0000      -0.844720       -22.9860
  31   2.0000      -0.810612       -22.0579
  32   2.0000      -0.787589       -21.4314
  33   2.0000      -0.768496       -20.9118
  34   2.0000      -0.707271       -19.2458
  35   2.0000      -0.698140       -18.9974
  36   2.0000      -0.689585       -18.7646
  37   2.0000      -0.664075       -18.0704
  38   2.0000      -0.641375       -17.4527
  39   2.0000      -0.617972       -16.8159
  40   2.0000      -0.603744       -16.4287
  41   2.0000      -0.567004       -15.4290
  42   2.0000      -0.557299       -15.1649
  43   2.0000      -0.545453       -14.8425
  44   2.0000      -0.542074       -14.7506
  45   2.0000      -0.524430       -14.2705
  46   2.0000      -0.514773       -14.0077
  47   2.0000      -0.507071       -13.7981
  48   2.0000      -0.504588       -13.7305
  49   2.0000      -0.498540       -13.5660
  50   2.0000      -0.485182       -13.2025
  51   2.0000      -0.481876       -13.1125
  52   2.0000      -0.470837       -12.8121
  53   2.0000      -0.460806       -12.5392
  54   2.0000      -0.460324       -12.5261
  55   2.0000      -0.450689       -12.2639
  56   2.0000      -0.446038       -12.1373
  57   2.0000      -0.438469       -11.9313
  58   2.0000      -0.433477       -11.7955
  59   2.0000      -0.425038       -11.5659
  60   2.0000      -0.419557       -11.4167
  61   2.0000      -0.418489       -11.3877
  62   2.0000      -0.404215       -10.9993
  63   2.0000      -0.339719        -9.2442
  64   2.0000      -0.336016        -9.1435
  65   2.0000      -0.325719        -8.8633
  66   2.0000      -0.294263        -8.0073
  67   0.0000       0.035874         0.9762
  68   0.0000       0.063767         1.7352
  69   0.0000       0.112221         3.0537
  70   0.0000       0.119236         3.2446
  71   0.0000       0.129903         3.5348

MULLIKEN ATOMIC CHARGES
-----------------------
   0 S :    0.105593
   1 C :   -0.098368
   2 C :   -0.108075
   3 C :    0.040565
   4 C :   -0.150930
   5 H :    0.024740
   6 C :    0.071978
   7 H :    0.021644
   8 H :    0.030194
   9 C :   -0.087176
  10 H :    0.038600
  11 H :    0.027919
  12 C :   -0.048647
  13 H :    0.030068
  14 H :    0.037214
  15 H :    0.027783
  16 S :    0.126090
  17 C :   -0.075920
  18 C :   -0.055156
  19 C :   -0.004270
  20 C :   -0.186257
  21 H :    0.040173
  22 C :    0.089847
  23 H :    0.019289
  24 H :    0.000107
  25 C :   -0.064614
  26 H :    0.014124
  27 H :    0.026075
  28 C :   -0.077276
  29 H :    0.019191
  30 H :    0.047302
  31 H :    0.047001
  32 H :    0.028127
  33 H :    0.043064
Sum of atomic charges:   -0.0000000

LOEWDIN ATOMIC CHARGES
----------------------
   0 S :    0.384809
   1 C :   -0.193450
   2 C :   -0.058680
   3 C :   -0.058966
   4 C :   -0.182803
   5 H :    0.034086
   6 C :   -0.035739
   7 H :    0.038278
   8 H :    0.029283
   9 C :   -0.038685
  10 H :    0.034185
  11 H :    0.016986
  12 C :   -0.065077
  13 H :    0.023608
  14 H :    0.027741
  15 H :    0.021133
  16 S :    0.423220
  17 C :   -0.183652
  18 C :   -0.073762
  19 C :   -0.054602
  20 C :   -0.200656
  21 H :    0.039839
  22 C :   -0.034449
  23 H :    0.034942
  24 H :    0.027875
  25 C :   -0.051433
  26 H :    0.024186
  27 H :    0.030574
  28 C :   -0.076245
  29 H :    0.019731
  30 H :    0.039277
  31 H :    0.025033
  32 H :    0.016425
  33 H :    0.016989

  Mayer bond orders larger than 0.100000
B(  0-S ,  1-C ) :   1.1167 B(  0-S ,  4-C ) :   1.1444 B(  1-C ,  2-C ) :   1.6421
B(  1-C , 32-H ) :   0.9692 B(  2-C ,  3-C ) :   1.1984 B(  2-C ,  6-C ) :   1.0404
B(  3-C ,  4-C ) :   1.6069 B(  3-C ,  5-H ) :   0.9888 B(  4-C , 20-C ) :   1.0046
B(  6-C ,  7-H ) :   0.9400 B(  6-C ,  8-H ) :   0.9284 B(  6-C ,  9-C ) :   1.0549
B(  9-C , 10-H ) :   0.9547 B(  9-C , 11-H ) :   0.9602 B(  9-C , 12-C ) :   1.0809
B( 12-C , 13-H ) :   0.9773 B( 12-C , 14-H ) :   0.9755 B( 12-C , 15-H ) :   0.9760
B( 16-S , 17-C ) :   1.1785 B( 16-S , 20-C ) :   1.1495 B( 17-C , 18-C ) :   1.5757
B( 17-C , 20-C ) :   0.1044 B( 17-C , 33-H ) :   0.9744 B( 18-C , 19-C ) :   1.2689
B( 18-C , 21-H ) :   0.9753 B( 19-C , 20-C ) :   1.6165 B( 19-C , 22-C ) :   1.0266
B( 22-C , 23-H ) :   0.9336 B( 22-C , 24-H ) :   0.9218 B( 22-C , 25-C ) :   1.0951
B( 25-C , 26-H ) :   0.9496 B( 25-C , 27-H ) :   0.9449 B( 25-C , 28-C ) :   1.0784
B( 28-C , 29-H ) :   0.9725 B( 28-C , 30-H ) :   0.9721 B( 28-C , 31-H ) :   0.9733

Dispersion correction           -0.014158582
FINAL SINGLE POINT ENERGY     -1339.882036557554

DIPOLE MOMENT
-------------
                                X             Y             Z
Electronic contribution:     20.15673     -12.36875      -4.98824
Nuclear contribution   :    -20.74595      12.58278       5.21935
                        -----------------------------------------
Total Dipole Moment    :     -0.58921       0.21403       0.23111
                        -----------------------------------------
Magnitude (a.u.)       :      0.66813
Magnitude (Debye)      :      1.69824

Rotational constants in cm-1:     0.019875     0.007451     0.006661
Rotational constants in MHz :   595.847352   223.369192   199.692989

                             ****ORCA TERMINATED NORMALLY****
TOTAL RUN TIME: 0 days 0 hours 0 minutes 21 seconds 215 msec
