                         Program Version 4.2.1 -  RELEASE  -
|  1> ! wB97X-D3 SP def2-SVP
|  2> %pal
|  3> nprocs 24
|  4> end
|  5>
|  6> * xyz 0 1
|  7> S 	 -127.94 	 60.1044 	 -55.3383
|  8> C 	 -126.456 	 60.8995 	 -55.0017
|  9> C 	 -126.551 	 61.8455 	 -53.9599
| 10> C 	 -127.861 	 61.7483 	 -53.4018
| 11> C 	 -128.737 	 60.8749 	 -53.99
| 12> H 	 -128.186 	 62.299 	 -52.5364
| 13> C 	 -125.42 	 62.6883 	 -53.4414
| 14> H 	 -124.503 	 62.5491 	 -54.0487
| 15> H 	 -125.133 	 62.245 	 -52.4281
| 16> C 	 -125.789 	 64.1683 	 -53.2735
| 17> H 	 -126.547 	 64.4077 	 -52.4833
| 18> H 	 -124.926 	 64.6385 	 -52.726
| 19> C 	 -126.159 	 64.953 	 -54.6196
| 20> H 	 -125.593 	 64.6761 	 -55.4866
| 21> H 	 -127.169 	 64.6573 	 -54.9198
| 22> H 	 -126.167 	 65.9515 	 -54.4184
| 23> S 	 -131.334 	 60.9774 	 -55.0446
| 24> C 	 -132.676 	 60.8203 	 -53.9438
| 25> C 	 -132.227 	 60.7111 	 -52.6278
| 26> C 	 -130.792 	 60.7664 	 -52.4541
| 27> C 	 -130.114 	 60.7753 	 -53.7125
| 28> H 	 -132.909 	 60.5687 	 -51.8131
| 29> C 	 -130.202 	 60.9047 	 -51.0159
| 30> H 	 -130.436 	 61.8525 	 -50.5142
| 31> H 	 -129.163 	 60.8912 	 -51.1347
| 32> C 	 -130.598 	 59.7174 	 -50.0286
| 33> H 	 -130.197 	 58.7674 	 -50.3813
| 34> H 	 -131.721 	 59.5254 	 -49.9754
| 35> C 	 -129.984 	 59.9034 	 -48.6048
| 36> H 	 -130.398 	 60.8048 	 -48.1858
| 37> H 	 -128.877 	 59.9574 	 -48.4935
| 38> H 	 -130.367 	 59.1261 	 -47.9521
| 39> H 	 -125.544 	 60.7832 	 -55.5674
| 40> H 	 -133.706 	 60.8994 	 -54.186
| 41> *
| 42>
| 43>                          ****END OF INPUT****

CARTESIAN COORDINATES (ANGSTROEM)
---------------------------------
  S    -127.940000   60.104400  -55.338300
  C    -126.456000   60.899500  -55.001700
  C    -126.551000   61.845500  -53.959900
  C    -127.861000   61.748300  -53.401800
  C    -128.737000   60.874900  -53.990000
  H    -128.186000   62.299000  -52.536400
  C    -125.420000   62.688300  -53.441400
  H    -124.503000   62.549100  -54.048700
  H    -125.133000   62.245000  -52.428100
  C    -125.789000   64.168300  -53.273500
  H    -126.547000   64.407700  -52.483300
  H    -124.926000   64.638500  -52.726000
  C    -126.159000   64.953000  -54.619600
  H    -125.593000   64.676100  -55.486600
  H    -127.169000   64.657300  -54.919800
  H    -126.167000   65.951500  -54.418400
  S    -131.334000   60.977400  -55.044600
  C    -132.676000   60.820300  -53.943800
  C    -132.227000   60.711100  -52.627800
  C    -130.792000   60.766400  -52.454100
  C    -130.114000   60.775300  -53.712500
  H    -132.909000   60.568700  -51.813100
  C    -130.202000   60.904700  -51.015900
  H    -130.436000   61.852500  -50.514200
  H    -129.163000   60.891200  -51.134700
  C    -130.598000   59.717400  -50.028600
  H    -130.197000   58.767400  -50.381300
  H    -131.721000   59.525400  -49.975400
  C    -129.984000   59.903400  -48.604800
  H    -130.398000   60.804800  -48.185800
  H    -128.877000   59.957400  -48.493500
  H    -130.367000   59.126100  -47.952100
  H    -125.544000   60.783200  -55.567400
  H    -133.706000   60.899400  -54.186000

 Total Charge           Charge          ....    0
 Multiplicity           Mult            ....    1
 Number of Electrons    NEL             ....  134
 Basis Dimension        Dim             ....  322

ORBITAL ENERGIES
----------------

  NO   OCC          E(Eh)            E(eV)
   0   2.0000     -88.967475     -2420.9281
   1   2.0000     -88.967147     -2420.9192
   2   2.0000     -10.333547      -281.1901
   3   2.0000     -10.323342      -280.9124
   4   2.0000     -10.316406      -280.7237
   5   2.0000     -10.313328      -280.6399
   6   2.0000     -10.311861      -280.6000
   7   2.0000     -10.304015      -280.3865
   8   2.0000     -10.302319      -280.3404
   9   2.0000     -10.299147      -280.2540
  10   2.0000     -10.298084      -280.2251
  11   2.0000     -10.297709      -280.2149
  12   2.0000     -10.293070      -280.0887
  13   2.0000     -10.291023      -280.0330
  14   2.0000     -10.280970      -279.7594
  15   2.0000     -10.272893      -279.5396
  16   2.0000      -8.082687      -219.9411
  17   2.0000      -8.080745      -219.8882
  18   2.0000      -6.041143      -164.3878
  19   2.0000      -6.039458      -164.3420
  20   2.0000      -6.037042      -164.2763
  21   2.0000      -6.035381      -164.2311
  22   2.0000      -6.033562      -164.1816
  23   2.0000      -6.031386      -164.1223
  24   2.0000      -1.006457       -27.3871
  25   2.0000      -0.976283       -26.5660
  26   2.0000      -0.908064       -24.7097
  27   2.0000      -0.897221       -24.4146
  28   2.0000      -0.871530       -23.7155
  29   2.0000      -0.847373       -23.0582
  30   2.0000      -0.840750       -22.8780
  31   2.0000      -0.810585       -22.0571
  32   2.0000      -0.786060       -21.3898
  33   2.0000      -0.772622       -21.0241
  34   2.0000      -0.712878       -19.3984
  35   2.0000      -0.699318       -19.0294
  36   2.0000      -0.696150       -18.9432
  37   2.0000      -0.655029       -17.8242
  38   2.0000      -0.640419       -17.4267
  39   2.0000      -0.622800       -16.9472
  40   2.0000      -0.594547       -16.1784
  41   2.0000      -0.562092       -15.2953
  42   2.0000      -0.558069       -15.1858
  43   2.0000      -0.554856       -15.0984
  44   2.0000      -0.527425       -14.3520
  45   2.0000      -0.521448       -14.1893
  46   2.0000      -0.516256       -14.0481
  47   2.0000      -0.514637       -14.0040
  48   2.0000      -0.504633       -13.7318
  49   2.0000      -0.494701       -13.4615
  50   2.0000      -0.488452       -13.2915
  51   2.0000      -0.481931       -13.1140
  52   2.0000      -0.474697       -12.9172
  53   2.0000      -0.464873       -12.6498
  54   2.0000      -0.462060       -12.5733
  55   2.0000      -0.451412       -12.2835
  56   2.0000      -0.444675       -12.1002
  57   2.0000      -0.436049       -11.8655
  58   2.0000      -0.430690       -11.7197
  59   2.0000      -0.426507       -11.6058
  60   2.0000      -0.421805       -11.4779
  61   2.0000      -0.417797       -11.3688
  62   2.0000      -0.408919       -11.1272
  63   2.0000      -0.353004        -9.6057
  64   2.0000      -0.328529        -8.9397
  65   2.0000      -0.327690        -8.9169
  66   2.0000      -0.283383        -7.7112
  67   0.0000       0.025313         0.6888
  68   0.0000       0.068572         1.8659
  69   0.0000       0.109793         2.9876
  70   0.0000       0.116470         3.1693
  71   0.0000       0.131146         3.5687

MULLIKEN ATOMIC CHARGES
-----------------------
   0 S :    0.126202
   1 C :   -0.119056
   2 C :   -0.088852
   3 C :    0.022683
   4 C :   -0.165110
   5 H :    0.004368
   6 C :    0.059323
   7 H :    0.027162
   8 H :    0.049257
   9 C :   -0.126773
  10 H :    0.036183
  11 H :    0.026985
  12 C :   -0.005250
  13 H :    0.028779
  14 H :    0.035960
  15 H :    0.023267
  16 S :    0.101939
  17 C :   -0.077300
  18 C :   -0.031356
  19 C :   -0.037616
  20 C :   -0.140091
  21 H :    0.012984
  22 C :    0.086091
  23 H :    0.042788
  24 H :    0.006128
  25 C :   -0.113673
  26 H :    0.034138
  27 H :    0.043325
  28 C :   -0.053735
  29 H :    0.018040
  30 H :    0.046544
  31 H :    0.033161
  32 H :    0.043405
  33 H :    0.050100
Sum of atomic charges:    0.0000000

LOEWDIN ATOMIC CHARGES
----------------------
   0 S :    0.425711
   1 C :   -0.206610
   2 C :   -0.066950
   3 C :   -0.055091
   4 C :   -0.207830
   5 H :    0.026002
   6 C :   -0.037959
   7 H :    0.033681
   8 H :    0.044012
   9 C :   -0.050945
  10 H :    0.028318
  11 H :    0.026417
  12 C :   -0.054207
  13 H :    0.024444
  14 H :    0.031633
  15 H :    0.014209
  16 S :    0.385213
  17 C :   -0.185796
  18 C :   -0.069027
  19 C :   -0.046930
  20 C :   -0.181011
  21 H :    0.025323
  22 C :   -0.026341
  23 H :    0.034160
  24 H :    0.019170
  25 C :   -0.040414
  26 H :    0.024260
  27 H :    0.029060
  28 C :   -0.071671
  29 H :    0.018888
  30 H :    0.030707
  31 H :    0.027716
  32 H :    0.025544
  33 H :    0.026316

  Mayer bond orders larger than 0.100000
B(  0-S ,  1-C ) :   1.1624 B(  0-S ,  4-C ) :   1.1365 B(  1-C ,  2-C ) :   1.5752
B(  1-C , 32-H ) :   0.9655 B(  2-C ,  3-C ) :   1.2639 B(  2-C ,  6-C ) :   1.0295
B(  3-C ,  4-C ) :   1.5525 B(  3-C ,  5-H ) :   0.9891 B(  4-C , 20-C ) :   1.1007
B(  6-C ,  7-H ) :   0.9419 B(  6-C ,  8-H ) :   0.9359 B(  6-C ,  9-C ) :   1.0734
B(  9-C , 10-H ) :   0.9548 B(  9-C , 11-H ) :   0.9569 B(  9-C , 12-C ) :   1.0534
B( 12-C , 13-H ) :   0.9799 B( 12-C , 14-H ) :   0.9735 B( 12-C , 15-H ) :   0.9769
B( 16-S , 17-C ) :   1.1457 B( 16-S , 20-C ) :   1.1249 B( 17-C , 18-C ) :   1.6074
B( 17-C , 20-C ) :   0.1021 B( 17-C , 33-H ) :   0.9717 B( 18-C , 19-C ) :   1.2459
B( 18-C , 21-H ) :   0.9883 B( 19-C , 20-C ) :   1.5727 B( 19-C , 22-C ) :   1.0382
B( 22-C , 23-H ) :   0.9465 B( 22-C , 24-H ) :   0.9263 B( 22-C , 25-C ) :   1.0488
B( 25-C , 26-H ) :   0.9577 B( 25-C , 27-H ) :   0.9597 B( 25-C , 28-C ) :   1.0764
B( 28-C , 29-H ) :   0.9748 B( 28-C , 30-H ) :   0.9768 B( 28-C , 31-H ) :   0.9737

Dispersion correction           -0.013888774
FINAL SINGLE POINT ENERGY     -1339.873013487074

DIPOLE MOMENT
-------------
                                X             Y             Z
Electronic contribution:     -9.70945     -10.60817     -21.95793
Nuclear contribution   :      9.92011      10.98450      22.59575
                        -----------------------------------------
Total Dipole Moment    :      0.21066       0.37634       0.63783
                        -----------------------------------------
Magnitude (a.u.)       :      0.76995
Magnitude (Debye)      :      1.95706

Rotational constants in cm-1:     0.016148     0.008745     0.006947
Rotational constants in MHz :   484.102205   262.161737   208.277835

                             ****ORCA TERMINATED NORMALLY****
TOTAL RUN TIME: 0 days 0 hours 0 minutes 20 seconds 122 msec
