                         Program Version 4.2.1 -  RELEASE  -
|  1> ! wB97X-D3 SP def2-SVP
|  2> %pal
|  3> nprocs 24
|  4> end
|  5>
|  6> * xyz 0 1
|  7> S 	 26.5613 	 -9.90862 	 -114.867
|  8> C 	 27.8302 	 -10.6911 	 -113.863
|  9> C 	 27.4785 	 -10.8121 	 -112.523
| 10> C 	 26.3309 	 -10.055 	 -112.211
| 11> C 	 25.6369 	 -9.50995 	 -113.335
| 12> H 	 25.7791 	 -10.0038 	 -111.273
| 13> C 	 28.2659 	 -11.5324 	 -111.43
| 14> H 	 28.9005 	 -12.2981 	 -111.87
| 15> H 	 27.5219 	 -12.047 	 -110.881
| 16> C 	 29.0935 	 -10.6602 	 -110.428
| 17> H 	 29.9104 	 -10.1499 	 -110.914
| 18> H 	 28.482 	 -9.88451 	 -109.884
| 19> C 	 29.8214 	 -11.542 	 -109.424
| 20> H 	 30.4658 	 -12.3169 	 -109.877
| 21> H 	 30.5085 	 -10.7969 	 -109.054
| 22> H 	 29.1871 	 -11.9291 	 -108.672
| 23> S 	 23.254 	 -9.19055 	 -114.631
| 24> C 	 21.9589 	 -8.43654 	 -113.822
| 25> C 	 22.355 	 -8.06224 	 -112.567
| 26> C 	 23.7502 	 -8.31077 	 -112.196
| 27> C 	 24.4005 	 -8.81614 	 -113.291
| 28> H 	 21.6209 	 -7.52561 	 -111.955
| 29> C 	 24.3356 	 -7.8502 	 -110.802
| 30> H 	 24.0844 	 -6.83434 	 -110.665
| 31> H 	 25.4032 	 -7.7673 	 -110.738
| 32> C 	 23.7698 	 -8.74734 	 -109.738
| 33> H 	 24.1244 	 -9.70119 	 -109.954
| 34> H 	 22.6906 	 -8.86124 	 -109.863
| 35> C 	 24.1407 	 -8.27638 	 -108.316
| 36> H 	 23.7547 	 -9.08884 	 -107.662
| 37> H 	 23.65 	 -7.34165 	 -108.031
| 38> H 	 25.2227 	 -8.07646 	 -108.132
| 39> H 	 28.7424 	 -11.1362 	 -114.31
| 40> H 	 21.033 	 -8.23756 	 -114.315
| 41> *
| 42>
| 43>                          ****END OF INPUT****

CARTESIAN COORDINATES (ANGSTROEM)
---------------------------------
  S     26.561300   -9.908620  -114.867000
  C     27.830200  -10.691100  -113.863000
  C     27.478500  -10.812100  -112.523000
  C     26.330900  -10.055000  -112.211000
  C     25.636900   -9.509950  -113.335000
  H     25.779100  -10.003800  -111.273000
  C     28.265900  -11.532400  -111.430000
  H     28.900500  -12.298100  -111.870000
  H     27.521900  -12.047000  -110.881000
  C     29.093500  -10.660200  -110.428000
  H     29.910400  -10.149900  -110.914000
  H     28.482000   -9.884510  -109.884000
  C     29.821400  -11.542000  -109.424000
  H     30.465800  -12.316900  -109.877000
  H     30.508500  -10.796900  -109.054000
  H     29.187100  -11.929100  -108.672000
  S     23.254000   -9.190550  -114.631000
  C     21.958900   -8.436540  -113.822000
  C     22.355000   -8.062240  -112.567000
  C     23.750200   -8.310770  -112.196000
  C     24.400500   -8.816140  -113.291000
  H     21.620900   -7.525610  -111.955000
  C     24.335600   -7.850200  -110.802000
  H     24.084400   -6.834340  -110.665000
  H     25.403200   -7.767300  -110.738000
  C     23.769800   -8.747340  -109.738000
  H     24.124400   -9.701190  -109.954000
  H     22.690600   -8.861240  -109.863000
  C     24.140700   -8.276380  -108.316000
  H     23.754700   -9.088840  -107.662000
  H     23.650000   -7.341650  -108.031000
  H     25.222700   -8.076460  -108.132000
  H     28.742400  -11.136200  -114.310000
  H     21.033000   -8.237560  -114.315000

 Total Charge           Charge          ....    0
 Multiplicity           Mult            ....    1
 Number of Electrons    NEL             ....  134
 Basis Dimension        Dim             ....  322

ORBITAL ENERGIES
----------------

  NO   OCC          E(Eh)            E(eV)
   0   2.0000     -88.967154     -2420.9193
   1   2.0000     -88.960288     -2420.7325
   2   2.0000     -10.334450      -281.2147
   3   2.0000     -10.326843      -281.0077
   4   2.0000     -10.318991      -280.7940
   5   2.0000     -10.314145      -280.6622
   6   2.0000     -10.311259      -280.5836
   7   2.0000     -10.301852      -280.3276
   8   2.0000     -10.297061      -280.1973
   9   2.0000     -10.295278      -280.1487
  10   2.0000     -10.293721      -280.1064
  11   2.0000     -10.291684      -280.0510
  12   2.0000     -10.291369      -280.0424
  13   2.0000     -10.287859      -279.9469
  14   2.0000     -10.284977      -279.8685
  15   2.0000     -10.275069      -279.5988
  16   2.0000      -8.079644      -219.8583
  17   2.0000      -8.075815      -219.7541
  18   2.0000      -6.038295      -164.3104
  19   2.0000      -6.034616      -164.2102
  20   2.0000      -6.034387      -164.2040
  21   2.0000      -6.030305      -164.0930
  22   2.0000      -6.030259      -164.0917
  23   2.0000      -6.026347      -163.9852
  24   2.0000      -1.002628       -27.2829
  25   2.0000      -0.972599       -26.4658
  26   2.0000      -0.917535       -24.9674
  27   2.0000      -0.908945       -24.7336
  28   2.0000      -0.874291       -23.7907
  29   2.0000      -0.852904       -23.2087
  30   2.0000      -0.840693       -22.8764
  31   2.0000      -0.806686       -21.9510
  32   2.0000      -0.787651       -21.4331
  33   2.0000      -0.771936       -21.0054
  34   2.0000      -0.711230       -19.3535
  35   2.0000      -0.702975       -19.1289
  36   2.0000      -0.696391       -18.9498
  37   2.0000      -0.663992       -18.0681
  38   2.0000      -0.632977       -17.2242
  39   2.0000      -0.617841       -16.8123
  40   2.0000      -0.601355       -16.3637
  41   2.0000      -0.573106       -15.5950
  42   2.0000      -0.563071       -15.3219
  43   2.0000      -0.553782       -15.0692
  44   2.0000      -0.534103       -14.5337
  45   2.0000      -0.527709       -14.3597
  46   2.0000      -0.519122       -14.1260
  47   2.0000      -0.514764       -14.0074
  48   2.0000      -0.506577       -13.7847
  49   2.0000      -0.493491       -13.4286
  50   2.0000      -0.488919       -13.3042
  51   2.0000      -0.479331       -13.0433
  52   2.0000      -0.471683       -12.8352
  53   2.0000      -0.466006       -12.6807
  54   2.0000      -0.459111       -12.4931
  55   2.0000      -0.457363       -12.4455
  56   2.0000      -0.440194       -11.9783
  57   2.0000      -0.438708       -11.9378
  58   2.0000      -0.433036       -11.7835
  59   2.0000      -0.428400       -11.6573
  60   2.0000      -0.424796       -11.5593
  61   2.0000      -0.415367       -11.3027
  62   2.0000      -0.409674       -11.1478
  63   2.0000      -0.360493        -9.8095
  64   2.0000      -0.332089        -9.0366
  65   2.0000      -0.328268        -8.9326
  66   2.0000      -0.277476        -7.5505
  67   0.0000       0.015832         0.4308
  68   0.0000       0.076638         2.0854
  69   0.0000       0.100754         2.7417
  70   0.0000       0.122810         3.3418
  71   0.0000       0.125518         3.4155

MULLIKEN ATOMIC CHARGES
-----------------------
   0 S :    0.092791
   1 C :   -0.142218
   2 C :   -0.053297
   3 C :    0.008270
   4 C :   -0.140187
   5 H :   -0.006022
   6 C :    0.093313
   7 H :    0.014607
   8 H :    0.015387
   9 C :   -0.092960
  10 H :    0.026199
  11 H :    0.038178
  12 C :   -0.037461
  13 H :    0.034533
  14 H :    0.026928
  15 H :    0.033875
  16 S :    0.074679
  17 C :   -0.073971
  18 C :   -0.043036
  19 C :   -0.077976
  20 C :   -0.098413
  21 H :    0.021031
  22 C :    0.089206
  23 H :    0.012932
  24 H :    0.021750
  25 C :   -0.063497
  26 H :    0.009996
  27 H :    0.030240
  28 C :   -0.049272
  29 H :    0.044668
  30 H :    0.035076
  31 H :    0.038184
  32 H :    0.058962
  33 H :    0.057506
Sum of atomic charges:   -0.0000000

LOEWDIN ATOMIC CHARGES
----------------------
   0 S :    0.350133
   1 C :   -0.187412
   2 C :   -0.064109
   3 C :   -0.062574
   4 C :   -0.163738
   5 H :    0.030153
   6 C :   -0.028523
   7 H :    0.028915
   8 H :    0.026937
   9 C :   -0.036372
  10 H :    0.022458
  11 H :    0.029440
  12 C :   -0.062122
  13 H :    0.027989
  14 H :    0.029505
  15 H :    0.017497
  16 S :    0.391723
  17 C :   -0.190491
  18 C :   -0.075269
  19 C :   -0.047680
  20 C :   -0.181123
  21 H :    0.029298
  22 C :   -0.021739
  23 H :    0.025157
  24 H :    0.027389
  25 C :   -0.038546
  26 H :    0.012751
  27 H :    0.029177
  28 C :   -0.068575
  29 H :    0.033503
  30 H :    0.025743
  31 H :    0.028779
  32 H :    0.032858
  33 H :    0.028865

  Mayer bond orders larger than 0.100000
B(  0-S ,  1-C ) :   1.1250 B(  0-S ,  4-C ) :   1.1161 B(  1-C ,  2-C ) :   1.6108
B(  1-C ,  4-C ) :   0.1033 B(  1-C , 32-H ) :   0.9614 B(  2-C ,  3-C ) :   1.2445
B(  2-C ,  6-C ) :   1.0252 B(  3-C ,  4-C ) :   1.5792 B(  3-C ,  5-H ) :   0.9708
B(  4-C , 20-C ) :   1.1047 B(  6-C ,  7-H ) :   0.9415 B(  6-C ,  8-H ) :   0.9337
B(  6-C ,  9-C ) :   1.0627 B(  9-C , 10-H ) :   0.9627 B(  9-C , 11-H ) :   0.9546
B(  9-C , 12-C ) :   1.0751 B( 12-C , 13-H ) :   0.9734 B( 12-C , 14-H ) :   0.9778
B( 12-C , 15-H ) :   0.9776 B( 16-S , 17-C ) :   1.1499 B( 16-S , 20-C ) :   1.1137
B( 17-C , 18-C ) :   1.6231 B( 17-C , 33-H ) :   0.9721 B( 18-C , 19-C ) :   1.2111
B( 18-C , 21-H ) :   0.9858 B( 19-C , 20-C ) :   1.6248 B( 19-C , 22-C ) :   1.0119
B( 22-C , 23-H ) :   0.9375 B( 22-C , 24-H ) :   0.9450 B( 22-C , 25-C ) :   1.0513
B( 25-C , 26-H ) :   0.9481 B( 25-C , 27-H ) :   0.9517 B( 25-C , 28-C ) :   1.0749
B( 28-C , 29-H ) :   0.9741 B( 28-C , 30-H ) :   0.9754 B( 28-C , 31-H ) :   0.9736

Dispersion correction           -0.013880032
FINAL SINGLE POINT ENERGY     -1339.864524868713

DIPOLE MOMENT
-------------
                                X             Y             Z
Electronic contribution:    -11.32429       2.15604     -32.19191
Nuclear contribution   :     11.35307      -2.14774      33.06132
                        -----------------------------------------
Total Dipole Moment    :      0.02878       0.00830       0.86941
                        -----------------------------------------
Magnitude (a.u.)       :      0.86993
Magnitude (Debye)      :      2.21118

Rotational constants in cm-1:     0.016659     0.009508     0.006277
Rotational constants in MHz :   499.416725   285.055127   188.188000

                             ****ORCA TERMINATED NORMALLY****
TOTAL RUN TIME: 0 days 0 hours 0 minutes 20 seconds 633 msec
