                         Program Version 4.2.1 -  RELEASE  -
|  1> ! wB97X-D3 SP def2-SVP
|  2> %pal
|  3> nprocs 24
|  4> end
|  5>
|  6> * xyz 0 1
|  7> S 	 22.3814 	 2.64383 	 -108.715
|  8> C 	 21.8648 	 1.39141 	 -107.578
|  9> C 	 20.7749 	 0.69068 	 -108.024
| 10> C 	 20.6008 	 0.949854 	 -109.418
| 11> C 	 21.5142 	 1.83526 	 -109.963
| 12> H 	 19.962 	 0.412874 	 -110.034
| 13> C 	 20.0014 	 -0.348167 	 -107.185
| 14> H 	 18.9574 	 -0.4423 	 -107.453
| 15> H 	 19.9947 	 0.0305454 	 -106.177
| 16> C 	 20.3377 	 -1.81805 	 -107.171
| 17> H 	 19.7349 	 -2.46852 	 -106.54
| 18> H 	 20.3702 	 -2.38654 	 -108.161
| 19> C 	 21.7327 	 -2.12472 	 -106.628
| 20> H 	 21.8172 	 -3.19349 	 -106.606
| 21> H 	 22.3811 	 -1.68896 	 -107.318
| 22> H 	 21.6769 	 -1.68008 	 -105.676
| 23> S 	 22.4121 	 3.81526 	 -111.67
| 24> C 	 22.3558 	 3.60227 	 -113.4
| 25> C 	 21.8092 	 2.35909 	 -113.675
| 26> C 	 21.4597 	 1.53721 	 -112.58
| 27> C 	 21.6969 	 2.21067 	 -111.356
| 28> H 	 21.6106 	 2.044 	 -114.665
| 29> C 	 20.7836 	 0.202907 	 -112.771
| 30> H 	 20.5603 	 -0.0194235 	 -113.804
| 31> H 	 19.8363 	 0.141396 	 -112.203
| 32> C 	 21.4961 	 -1.02171 	 -112.277
| 33> H 	 21.7134 	 -0.879806 	 -111.269
| 34> H 	 22.4596 	 -1.13536 	 -112.708
| 35> C 	 20.5934 	 -2.33315 	 -112.393
| 36> H 	 20.5612 	 -2.53396 	 -113.482
| 37> H 	 19.567 	 -2.03963 	 -111.997
| 38> H 	 20.9199 	 -3.12314 	 -111.779
| 39> H 	 22.2778 	 1.30118 	 -106.592
| 40> H 	 22.4504 	 4.3772 	 -114.127
| 41> *
| 42>
| 43>                          ****END OF INPUT****

CARTESIAN COORDINATES (ANGSTROEM)
---------------------------------
  S     22.381400    2.643830  -108.715000
  C     21.864800    1.391410  -107.578000
  C     20.774900    0.690680  -108.024000
  C     20.600800    0.949854  -109.418000
  C     21.514200    1.835260  -109.963000
  H     19.962000    0.412874  -110.034000
  C     20.001400   -0.348167  -107.185000
  H     18.957400   -0.442300  -107.453000
  H     19.994700    0.030545  -106.177000
  C     20.337700   -1.818050  -107.171000
  H     19.734900   -2.468520  -106.540000
  H     20.370200   -2.386540  -108.161000
  C     21.732700   -2.124720  -106.628000
  H     21.817200   -3.193490  -106.606000
  H     22.381100   -1.688960  -107.318000
  H     21.676900   -1.680080  -105.676000
  S     22.412100    3.815260  -111.670000
  C     22.355800    3.602270  -113.400000
  C     21.809200    2.359090  -113.675000
  C     21.459700    1.537210  -112.580000
  C     21.696900    2.210670  -111.356000
  H     21.610600    2.044000  -114.665000
  C     20.783600    0.202907  -112.771000
  H     20.560300   -0.019423  -113.804000
  H     19.836300    0.141396  -112.203000
  C     21.496100   -1.021710  -112.277000
  H     21.713400   -0.879806  -111.269000
  H     22.459600   -1.135360  -112.708000
  C     20.593400   -2.333150  -112.393000
  H     20.561200   -2.533960  -113.482000
  H     19.567000   -2.039630  -111.997000
  H     20.919900   -3.123140  -111.779000
  H     22.277800    1.301180  -106.592000
  H     22.450400    4.377200  -114.127000

 Total Charge           Charge          ....    0
 Multiplicity           Mult            ....    1
 Number of Electrons    NEL             ....  134
 Basis Dimension        Dim             ....  322

ORBITAL ENERGIES
----------------

  NO   OCC          E(Eh)            E(eV)
   0   2.0000     -88.968554     -2420.9574
   1   2.0000     -88.967182     -2420.9201
   2   2.0000     -10.336100      -281.2596
   3   2.0000     -10.331024      -281.1215
   4   2.0000     -10.318126      -280.7705
   5   2.0000     -10.315269      -280.6927
   6   2.0000     -10.308255      -280.5019
   7   2.0000     -10.307579      -280.4835
   8   2.0000     -10.296901      -280.1929
   9   2.0000     -10.292546      -280.0744
  10   2.0000     -10.292147      -280.0635
  11   2.0000     -10.291769      -280.0533
  12   2.0000     -10.287633      -279.9407
  13   2.0000     -10.287548      -279.9384
  14   2.0000     -10.275028      -279.5977
  15   2.0000     -10.261476      -279.2290
  16   2.0000      -8.082833      -219.9451
  17   2.0000      -8.082574      -219.9380
  18   2.0000      -6.041395      -164.3947
  19   2.0000      -6.041119      -164.3872
  20   2.0000      -6.037357      -164.2848
  21   2.0000      -6.037312      -164.2836
  22   2.0000      -6.033627      -164.1833
  23   2.0000      -6.032929      -164.1643
  24   2.0000      -1.011163       -27.5151
  25   2.0000      -0.986040       -26.8315
  26   2.0000      -0.919470       -25.0201
  27   2.0000      -0.914944       -24.8969
  28   2.0000      -0.874571       -23.7983
  29   2.0000      -0.853708       -23.2306
  30   2.0000      -0.846982       -23.0475
  31   2.0000      -0.816073       -22.2065
  32   2.0000      -0.790347       -21.5064
  33   2.0000      -0.777340       -21.1525
  34   2.0000      -0.712773       -19.3955
  35   2.0000      -0.696939       -18.9647
  36   2.0000      -0.690847       -18.7989
  37   2.0000      -0.666738       -18.1429
  38   2.0000      -0.643900       -17.5214
  39   2.0000      -0.627404       -17.0725
  40   2.0000      -0.605242       -16.4695
  41   2.0000      -0.574514       -15.6333
  42   2.0000      -0.572425       -15.5765
  43   2.0000      -0.557881       -15.1807
  44   2.0000      -0.553604       -15.0643
  45   2.0000      -0.530014       -14.4224
  46   2.0000      -0.519984       -14.1495
  47   2.0000      -0.518332       -14.1045
  48   2.0000      -0.503157       -13.6916
  49   2.0000      -0.501515       -13.6469
  50   2.0000      -0.495093       -13.4722
  51   2.0000      -0.489338       -13.3156
  52   2.0000      -0.474058       -12.8998
  53   2.0000      -0.468196       -12.7403
  54   2.0000      -0.457980       -12.4623
  55   2.0000      -0.451743       -12.2926
  56   2.0000      -0.445504       -12.1228
  57   2.0000      -0.442749       -12.0478
  58   2.0000      -0.431536       -11.7427
  59   2.0000      -0.427745       -11.6395
  60   2.0000      -0.419041       -11.4027
  61   2.0000      -0.414020       -11.2660
  62   2.0000      -0.402249       -10.9457
  63   2.0000      -0.360565        -9.8115
  64   2.0000      -0.338921        -9.2225
  65   2.0000      -0.330417        -8.9911
  66   2.0000      -0.280805        -7.6411
  67   0.0000       0.013046         0.3550
  68   0.0000       0.071164         1.9365
  69   0.0000       0.091738         2.4963
  70   0.0000       0.117824         3.2062
  71   0.0000       0.121639         3.3100

MULLIKEN ATOMIC CHARGES
-----------------------
   0 S :    0.105984
   1 C :   -0.124519
   2 C :   -0.056907
   3 C :    0.035228
   4 C :   -0.107829
   5 H :   -0.037564
   6 C :    0.098905
   7 H :    0.029595
   8 H :    0.023627
   9 C :   -0.126679
  10 H :    0.025432
  11 H :    0.027280
  12 C :   -0.013333
  13 H :    0.027147
  14 H :    0.031226
  15 H :    0.012069
  16 S :    0.088191
  17 C :   -0.068478
  18 C :   -0.029639
  19 C :   -0.008757
  20 C :   -0.134917
  21 H :   -0.001396
  22 C :    0.047460
  23 H :    0.009031
  24 H :    0.028601
  25 C :   -0.065373
  26 H :    0.010158
  27 H :    0.017729
  28 C :   -0.050605
  29 H :    0.045976
  30 H :    0.026780
  31 H :    0.037237
  32 H :    0.040770
  33 H :    0.057570
Sum of atomic charges:   -0.0000000

LOEWDIN ATOMIC CHARGES
----------------------
   0 S :    0.401784
   1 C :   -0.177973
   2 C :   -0.056177
   3 C :   -0.056991
   4 C :   -0.190875
   5 H :    0.014207
   6 C :   -0.033052
   7 H :    0.038560
   8 H :    0.032068
   9 C :   -0.047700
  10 H :    0.023477
  11 H :    0.026066
  12 C :   -0.053209
  13 H :    0.023075
  14 H :    0.015847
  15 H :    0.014198
  16 S :    0.395055
  17 C :   -0.187977
  18 C :   -0.062330
  19 C :   -0.056161
  20 C :   -0.176191
  21 H :    0.023103
  22 C :   -0.032121
  23 H :    0.027392
  24 H :    0.031569
  25 C :   -0.036449
  26 H :    0.010995
  27 H :    0.018005
  28 C :   -0.058200
  29 H :    0.029757
  30 H :    0.028289
  31 H :    0.019822
  32 H :    0.022470
  33 H :    0.029667

  Mayer bond orders larger than 0.100000
B(  0-S ,  1-C ) :   1.1318 B(  0-S ,  4-C ) :   1.1423 B(  1-C ,  2-C ) :   1.6151
B(  1-C , 32-H ) :   0.9737 B(  2-C ,  3-C ) :   1.2244 B(  2-C ,  6-C ) :   1.0214
B(  3-C ,  4-C ) :   1.5545 B(  3-C ,  5-H ) :   1.0104 B(  4-C , 20-C ) :   1.0898
B(  6-C ,  7-H ) :   0.9356 B(  6-C ,  8-H ) :   0.9371 B(  6-C ,  9-C ) :   1.0690
B(  9-C , 10-H ) :   0.9587 B(  9-C , 11-H ) :   0.9589 B(  9-C , 12-C ) :   1.0672
B( 12-C , 13-H ) :   0.9764 B( 12-C , 14-H ) :   0.9809 B( 12-C , 15-H ) :   0.9791
B( 16-S , 17-C ) :   1.1504 B( 16-S , 20-C ) :   1.1475 B( 17-C , 18-C ) :   1.5772
B( 17-C , 20-C ) :   0.1081 B( 17-C , 33-H ) :   0.9707 B( 18-C , 19-C ) :   1.2863
B( 18-C , 21-H ) :   0.9904 B( 19-C , 20-C ) :   1.5393 B( 19-C , 22-C ) :   1.0448
B( 22-C , 23-H ) :   0.9334 B( 22-C , 24-H ) :   0.9326 B( 22-C , 25-C ) :   1.0599
B( 25-C , 26-H ) :   0.9536 B( 25-C , 27-H ) :   0.9494 B( 25-C , 28-C ) :   1.0719
B( 28-C , 29-H ) :   0.9789 B( 28-C , 30-H ) :   0.9726 B( 28-C , 31-H ) :   0.9764

Dispersion correction           -0.014625518
FINAL SINGLE POINT ENERGY     -1339.850544665024

DIPOLE MOMENT
-------------
                                X             Y             Z
Electronic contribution:      9.14789      30.83592      -3.96606
Nuclear contribution   :     -9.53862     -31.42467       3.89323
                        -----------------------------------------
Total Dipole Moment    :     -0.39072      -0.58875      -0.07282
                        -----------------------------------------
Magnitude (a.u.)       :      0.71035
Magnitude (Debye)      :      1.80557

Rotational constants in cm-1:     0.019133     0.009607     0.006786
Rotational constants in MHz :   573.578610   288.008069   203.424219

                             ****ORCA TERMINATED NORMALLY****
TOTAL RUN TIME: 0 days 0 hours 0 minutes 22 seconds 610 msec
