                         Program Version 4.2.1 -  RELEASE  -
|  1> ! wB97X-D3 SP def2-SVP
|  2> %pal
|  3> nprocs 24
|  4> end
|  5>
|  6> * xyz 0 1
|  7> S 	 -67.7008 	 11.4051 	 -72.393
|  8> C 	 -67.7365 	 13.0124 	 -72.9917
|  9> C 	 -68.3568 	 13.9756 	 -72.0969
| 10> C 	 -68.9163 	 13.3293 	 -70.9747
| 11> C 	 -68.6421 	 11.9509 	 -71.0325
| 12> H 	 -69.3388 	 13.8002 	 -70.1022
| 13> C 	 -68.3756 	 15.4811 	 -72.2761
| 14> H 	 -68.9073 	 15.8628 	 -71.4532
| 15> H 	 -68.9436 	 15.6186 	 -73.2222
| 16> C 	 -67.0031 	 16.2137 	 -72.2904
| 17> H 	 -66.2545 	 15.7722 	 -72.9844
| 18> H 	 -67.1989 	 17.2265 	 -72.6016
| 19> C 	 -66.3068 	 16.3626 	 -70.8502
| 20> H 	 -65.3375 	 16.8216 	 -71.015
| 21> H 	 -66.8797 	 16.9802 	 -70.2104
| 22> H 	 -66.1181 	 15.4136 	 -70.35
| 23> S 	 -69.1958 	 9.27363 	 -70.6033
| 24> C 	 -69.6822 	 8.70999 	 -69.0189
| 25> C 	 -69.6933 	 9.71886 	 -68.0481
| 26> C 	 -69.5507 	 10.9991 	 -68.6404
| 27> C 	 -69.0169 	 10.9699 	 -69.9694
| 28> H 	 -70.1097 	 9.55225 	 -67.0171
| 29> C 	 -69.8687 	 12.1431 	 -67.6836
| 30> H 	 -70.6189 	 11.8938 	 -66.9156
| 31> H 	 -70.3259 	 12.9745 	 -68.2465
| 32> C 	 -68.6323 	 12.69 	 -66.949
| 33> H 	 -68.8366 	 13.6824 	 -66.5636
| 34> H 	 -67.826 	 12.7772 	 -67.6476
| 35> C 	 -68.151 	 11.9682 	 -65.7028
| 36> H 	 -67.2196 	 12.3824 	 -65.3356
| 37> H 	 -68.0668 	 10.9201 	 -65.7965
| 38> H 	 -68.8623 	 12.0527 	 -64.8741
| 39> H 	 -67.1082 	 13.2631 	 -73.8293
| 40> H 	 -69.8553 	 7.65123 	 -68.8414
| 41> *
| 42>
| 43>                          ****END OF INPUT****

CARTESIAN COORDINATES (ANGSTROEM)
---------------------------------
  S    -67.700800   11.405100  -72.393000
  C    -67.736500   13.012400  -72.991700
  C    -68.356800   13.975600  -72.096900
  C    -68.916300   13.329300  -70.974700
  C    -68.642100   11.950900  -71.032500
  H    -69.338800   13.800200  -70.102200
  C    -68.375600   15.481100  -72.276100
  H    -68.907300   15.862800  -71.453200
  H    -68.943600   15.618600  -73.222200
  C    -67.003100   16.213700  -72.290400
  H    -66.254500   15.772200  -72.984400
  H    -67.198900   17.226500  -72.601600
  C    -66.306800   16.362600  -70.850200
  H    -65.337500   16.821600  -71.015000
  H    -66.879700   16.980200  -70.210400
  H    -66.118100   15.413600  -70.350000
  S    -69.195800    9.273630  -70.603300
  C    -69.682200    8.709990  -69.018900
  C    -69.693300    9.718860  -68.048100
  C    -69.550700   10.999100  -68.640400
  C    -69.016900   10.969900  -69.969400
  H    -70.109700    9.552250  -67.017100
  C    -69.868700   12.143100  -67.683600
  H    -70.618900   11.893800  -66.915600
  H    -70.325900   12.974500  -68.246500
  C    -68.632300   12.690000  -66.949000
  H    -68.836600   13.682400  -66.563600
  H    -67.826000   12.777200  -67.647600
  C    -68.151000   11.968200  -65.702800
  H    -67.219600   12.382400  -65.335600
  H    -68.066800   10.920100  -65.796500
  H    -68.862300   12.052700  -64.874100
  H    -67.108200   13.263100  -73.829300
  H    -69.855300    7.651230  -68.841400

 Total Charge           Charge          ....    0
 Multiplicity           Mult            ....    1
 Number of Electrons    NEL             ....  134
 Basis Dimension        Dim             ....  322

ORBITAL ENERGIES
----------------

  NO   OCC          E(Eh)            E(eV)
   0   2.0000     -88.976208     -2421.1657
   1   2.0000     -88.965398     -2420.8716
   2   2.0000     -10.338412      -281.3225
   3   2.0000     -10.334197      -281.2078
   4   2.0000     -10.320173      -280.8262
   5   2.0000     -10.312786      -280.6252
   6   2.0000     -10.309842      -280.5451
   7   2.0000     -10.306977      -280.4671
   8   2.0000     -10.297923      -280.2207
   9   2.0000     -10.297393      -280.2063
  10   2.0000     -10.295202      -280.1467
  11   2.0000     -10.294981      -280.1407
  12   2.0000     -10.293230      -280.0930
  13   2.0000     -10.281605      -279.7767
  14   2.0000     -10.277650      -279.6691
  15   2.0000     -10.270985      -279.4877
  16   2.0000      -8.091014      -220.1677
  17   2.0000      -8.079202      -219.8462
  18   2.0000      -6.049212      -164.6074
  19   2.0000      -6.045627      -164.5099
  20   2.0000      -6.041999      -164.4112
  21   2.0000      -6.037743      -164.2953
  22   2.0000      -6.033895      -164.1906
  23   2.0000      -6.029955      -164.0834
  24   2.0000      -1.001563       -27.2539
  25   2.0000      -0.977341       -26.5948
  26   2.0000      -0.910173       -24.7671
  27   2.0000      -0.904926       -24.6243
  28   2.0000      -0.857374       -23.3303
  29   2.0000      -0.856113       -23.2960
  30   2.0000      -0.846810       -23.0429
  31   2.0000      -0.807071       -21.9615
  32   2.0000      -0.785261       -21.3680
  33   2.0000      -0.767925       -20.8963
  34   2.0000      -0.707917       -19.2634
  35   2.0000      -0.703735       -19.1496
  36   2.0000      -0.683019       -18.5859
  37   2.0000      -0.663582       -18.0570
  38   2.0000      -0.637964       -17.3599
  39   2.0000      -0.613431       -16.6923
  40   2.0000      -0.596266       -16.2252
  41   2.0000      -0.567745       -15.4491
  42   2.0000      -0.550449       -14.9785
  43   2.0000      -0.547610       -14.9012
  44   2.0000      -0.545349       -14.8397
  45   2.0000      -0.535042       -14.5592
  46   2.0000      -0.517046       -14.0695
  47   2.0000      -0.505802       -13.7636
  48   2.0000      -0.494086       -13.4448
  49   2.0000      -0.492492       -13.4014
  50   2.0000      -0.486761       -13.2454
  51   2.0000      -0.478334       -13.0161
  52   2.0000      -0.471946       -12.8423
  53   2.0000      -0.467265       -12.7149
  54   2.0000      -0.460492       -12.5306
  55   2.0000      -0.458029       -12.4636
  56   2.0000      -0.444589       -12.0979
  57   2.0000      -0.437644       -11.9089
  58   2.0000      -0.432797       -11.7770
  59   2.0000      -0.428850       -11.6696
  60   2.0000      -0.422922       -11.5083
  61   2.0000      -0.418259       -11.3814
  62   2.0000      -0.409728       -11.1493
  63   2.0000      -0.354221        -9.6388
  64   2.0000      -0.336846        -9.1661
  65   2.0000      -0.329306        -8.9609
  66   2.0000      -0.271098        -7.3770
  67   0.0000       0.015469         0.4209
  68   0.0000       0.069140         1.8814
  69   0.0000       0.092602         2.5198
  70   0.0000       0.108793         2.9604
  71   0.0000       0.132252         3.5988

MULLIKEN ATOMIC CHARGES
-----------------------
   0 S :    0.137625
   1 C :   -0.121096
   2 C :   -0.110777
   3 C :   -0.000944
   4 C :   -0.116150
   5 H :    0.006621
   6 C :    0.091718
   7 H :    0.003088
   8 H :    0.052789
   9 C :   -0.081515
  10 H :    0.038426
  11 H :    0.029237
  12 C :   -0.061111
  13 H :    0.034152
  14 H :    0.024107
  15 H :    0.042685
  16 S :    0.068625
  17 C :   -0.091535
  18 C :   -0.036763
  19 C :   -0.078070
  20 C :   -0.104570
  21 H :    0.045516
  22 C :    0.030791
  23 H :    0.024337
  24 H :    0.030206
  25 C :   -0.044243
  26 H :    0.020669
  27 H :    0.027517
  28 C :   -0.037280
  29 H :    0.033356
  30 H :    0.018967
  31 H :    0.014365
  32 H :    0.045683
  33 H :    0.063572
Sum of atomic charges:   -0.0000000

LOEWDIN ATOMIC CHARGES
----------------------
   0 S :    0.440566
   1 C :   -0.223976
   2 C :   -0.050197
   3 C :   -0.069172
   4 C :   -0.192457
   5 H :    0.030921
   6 C :   -0.031995
   7 H :    0.022368
   8 H :    0.043236
   9 C :   -0.033260
  10 H :    0.025181
  11 H :    0.022341
  12 C :   -0.062040
  13 H :    0.027541
  14 H :    0.016010
  15 H :    0.026165
  16 S :    0.372786
  17 C :   -0.180345
  18 C :   -0.081016
  19 C :   -0.056579
  20 C :   -0.175523
  21 H :    0.042356
  22 C :   -0.032590
  23 H :    0.032555
  24 H :    0.029393
  25 C :   -0.037285
  26 H :    0.023770
  27 H :    0.022202
  28 C :   -0.063511
  29 H :    0.028925
  30 H :    0.015658
  31 H :    0.022199
  32 H :    0.018536
  33 H :    0.027234

  Mayer bond orders larger than 0.100000
B(  0-S ,  1-C ) :   1.1598 B(  0-S ,  4-C ) :   1.1871 B(  1-C ,  2-C ) :   1.5396
B(  1-C ,  4-C ) :   0.1076 B(  1-C , 32-H ) :   0.9705 B(  2-C ,  3-C ) :   1.3002
B(  2-C ,  6-C ) :   1.0203 B(  3-C ,  4-C ) :   1.5197 B(  3-C ,  5-H ) :   0.9893
B(  4-C , 20-C ) :   1.0524 B(  6-C ,  7-H ) :   0.9402 B(  6-C ,  8-H ) :   0.9354
B(  6-C ,  9-C ) :   1.0662 B(  9-C , 10-H ) :   0.9635 B(  9-C , 11-H ) :   0.9560
B(  9-C , 12-C ) :   1.0673 B( 12-C , 13-H ) :   0.9761 B( 12-C , 14-H ) :   0.9780
B( 12-C , 15-H ) :   0.9810 B( 16-S , 17-C ) :   1.1702 B( 16-S , 20-C ) :   1.1232
B( 17-C , 18-C ) :   1.5908 B( 17-C , 20-C ) :   0.1103 B( 17-C , 33-H ) :   0.9644
B( 18-C , 19-C ) :   1.2611 B( 18-C , 21-H ) :   0.9720 B( 19-C , 20-C ) :   1.5709
B( 19-C , 22-C ) :   1.0456 B( 22-C , 23-H ) :   0.9386 B( 22-C , 24-H ) :   0.9360
B( 22-C , 25-C ) :   1.0696 B( 25-C , 26-H ) :   0.9546 B( 25-C , 27-H ) :   0.9551
B( 25-C , 28-C ) :   1.0875 B( 28-C , 29-H ) :   0.9721 B( 28-C , 30-H ) :   0.9732
B( 28-C , 31-H ) :   0.9728

Dispersion correction           -0.014263818
FINAL SINGLE POINT ENERGY     -1339.864263261520

DIPOLE MOMENT
-------------
                                X             Y             Z
Electronic contribution:     -5.05536     -23.94031     -16.25799
Nuclear contribution   :      5.04633      24.49768      16.66182
                        -----------------------------------------
Total Dipole Moment    :     -0.00903       0.55737       0.40384
                        -----------------------------------------
Magnitude (a.u.)       :      0.68835
Magnitude (Debye)      :      1.74964

Rotational constants in cm-1:     0.018384     0.009068     0.006550
Rotational constants in MHz :   551.145094   271.857049   196.352533

                             ****ORCA TERMINATED NORMALLY****
TOTAL RUN TIME: 0 days 0 hours 0 minutes 21 seconds 533 msec
