                         Program Version 4.2.1 -  RELEASE  -
|  1> ! wB97X-D3 SP def2-SVP
|  2> %pal
|  3> nprocs 24
|  4> end
|  5>
|  6> * xyz 0 1
|  7> S 	 -102.284 	 43.6606 	 -92.534
|  8> C 	 -102.197 	 41.9664 	 -92.2358
|  9> C 	 -102.031 	 41.6046 	 -90.9382
| 10> C 	 -102.194 	 42.7954 	 -90.0863
| 11> C 	 -102.337 	 44.0036 	 -90.7757
| 12> H 	 -102.207 	 42.7275 	 -89.0237
| 13> C 	 -101.927 	 40.1599 	 -90.4825
| 14> H 	 -102.805 	 39.6666 	 -90.861
| 15> H 	 -101.907 	 40.1259 	 -89.38
| 16> C 	 -100.669 	 39.3074 	 -91.0067
| 17> H 	 -101.084 	 38.3054 	 -91.042
| 18> H 	 -100.376 	 39.7837 	 -91.985
| 19> C 	 -99.4048 	 39.1197 	 -90.057
| 20> H 	 -98.8335 	 40.022 	 -90.1775
| 21> H 	 -99.7341 	 39.1191 	 -88.9846
| 22> H 	 -98.8518 	 38.2212 	 -90.3394
| 23> S 	 -103.951 	 46.2328 	 -90.8556
| 24> C 	 -103.736 	 47.571 	 -89.6675
| 25> C 	 -102.701 	 47.1579 	 -88.7603
| 26> C 	 -101.938 	 45.955 	 -89.1115
| 27> C 	 -102.591 	 45.2902 	 -90.1528
| 28> H 	 -102.556 	 47.7475 	 -87.8953
| 29> C 	 -100.906 	 45.4109 	 -88.1735
| 30> H 	 -100.732 	 44.3703 	 -88.4169
| 31> H 	 -101.323 	 45.4693 	 -87.1395
| 32> C 	 -99.584 	 46.1473 	 -88.3363
| 33> H 	 -99.88 	 47.1629 	 -88.1263
| 34> H 	 -99.1932 	 45.9747 	 -89.2993
| 35> C 	 -98.6043 	 45.6774 	 -87.173
| 36> H 	 -99.0515 	 45.9089 	 -86.2191
| 37> H 	 -97.612 	 46.1853 	 -87.2363
| 38> H 	 -98.4231 	 44.5898 	 -87.2336
| 39> H 	 -102.16 	 41.2767 	 -93.0145
| 40> H 	 -104.37 	 48.4554 	 -89.6545
| 41> *
| 42>
| 43>                          ****END OF INPUT****

CARTESIAN COORDINATES (ANGSTROEM)
---------------------------------
  S    -102.284000   43.660600  -92.534000
  C    -102.197000   41.966400  -92.235800
  C    -102.031000   41.604600  -90.938200
  C    -102.194000   42.795400  -90.086300
  C    -102.337000   44.003600  -90.775700
  H    -102.207000   42.727500  -89.023700
  C    -101.927000   40.159900  -90.482500
  H    -102.805000   39.666600  -90.861000
  H    -101.907000   40.125900  -89.380000
  C    -100.669000   39.307400  -91.006700
  H    -101.084000   38.305400  -91.042000
  H    -100.376000   39.783700  -91.985000
  C    -99.404800   39.119700  -90.057000
  H    -98.833500   40.022000  -90.177500
  H    -99.734100   39.119100  -88.984600
  H    -98.851800   38.221200  -90.339400
  S    -103.951000   46.232800  -90.855600
  C    -103.736000   47.571000  -89.667500
  C    -102.701000   47.157900  -88.760300
  C    -101.938000   45.955000  -89.111500
  C    -102.591000   45.290200  -90.152800
  H    -102.556000   47.747500  -87.895300
  C    -100.906000   45.410900  -88.173500
  H    -100.732000   44.370300  -88.416900
  H    -101.323000   45.469300  -87.139500
  C    -99.584000   46.147300  -88.336300
  H    -99.880000   47.162900  -88.126300
  H    -99.193200   45.974700  -89.299300
  C    -98.604300   45.677400  -87.173000
  H    -99.051500   45.908900  -86.219100
  H    -97.612000   46.185300  -87.236300
  H    -98.423100   44.589800  -87.233600
  H    -102.160000   41.276700  -93.014500
  H    -104.370000   48.455400  -89.654500

 Total Charge           Charge          ....    0
 Multiplicity           Mult            ....    1
 Number of Electrons    NEL             ....  134
 Basis Dimension        Dim             ....  322

ORBITAL ENERGIES
----------------

  NO   OCC          E(Eh)            E(eV)
   0   2.0000     -88.967403     -2420.9261
   1   2.0000     -88.963916     -2420.8312
   2   2.0000     -10.333865      -281.1988
   3   2.0000     -10.333365      -281.1852
   4   2.0000     -10.329056      -281.0679
   5   2.0000     -10.308630      -280.5121
   6   2.0000     -10.305843      -280.4362
   7   2.0000     -10.302242      -280.3382
   8   2.0000     -10.301501      -280.3181
   9   2.0000     -10.299342      -280.2593
  10   2.0000     -10.299031      -280.2509
  11   2.0000     -10.298207      -280.2285
  12   2.0000     -10.291590      -280.0484
  13   2.0000     -10.285515      -279.8831
  14   2.0000     -10.283881      -279.8386
  15   2.0000     -10.283373      -279.8248
  16   2.0000      -8.081864      -219.9187
  17   2.0000      -8.077151      -219.7905
  18   2.0000      -6.040482      -164.3699
  19   2.0000      -6.036459      -164.2604
  20   2.0000      -6.035868      -164.2443
  21   2.0000      -6.032470      -164.1519
  22   2.0000      -6.031760      -164.1325
  23   2.0000      -6.027876      -164.0269
  24   2.0000      -0.998306       -27.1653
  25   2.0000      -0.973273       -26.4841
  26   2.0000      -0.910928       -24.7876
  27   2.0000      -0.900209       -24.4959
  28   2.0000      -0.865315       -23.5464
  29   2.0000      -0.846670       -23.0391
  30   2.0000      -0.839870       -22.8540
  31   2.0000      -0.809410       -22.0252
  32   2.0000      -0.779356       -21.2074
  33   2.0000      -0.770167       -20.9573
  34   2.0000      -0.706281       -19.2189
  35   2.0000      -0.700201       -19.0534
  36   2.0000      -0.692359       -18.8400
  37   2.0000      -0.664582       -18.0842
  38   2.0000      -0.643291       -17.5048
  39   2.0000      -0.611860       -16.6496
  40   2.0000      -0.592767       -16.1300
  41   2.0000      -0.574856       -15.6426
  42   2.0000      -0.572022       -15.5655
  43   2.0000      -0.552233       -15.0270
  44   2.0000      -0.534391       -14.5415
  45   2.0000      -0.518288       -14.1033
  46   2.0000      -0.515498       -14.0274
  47   2.0000      -0.511607       -13.9215
  48   2.0000      -0.508761       -13.8441
  49   2.0000      -0.496837       -13.5196
  50   2.0000      -0.483980       -13.1698
  51   2.0000      -0.479500       -13.0479
  52   2.0000      -0.474081       -12.9004
  53   2.0000      -0.463172       -12.6036
  54   2.0000      -0.458442       -12.4748
  55   2.0000      -0.448604       -12.2071
  56   2.0000      -0.443821       -12.0770
  57   2.0000      -0.437774       -11.9124
  58   2.0000      -0.430870       -11.7246
  59   2.0000      -0.427168       -11.6238
  60   2.0000      -0.422570       -11.4987
  61   2.0000      -0.414095       -11.2681
  62   2.0000      -0.408946       -11.1280
  63   2.0000      -0.346172        -9.4198
  64   2.0000      -0.328527        -8.9397
  65   2.0000      -0.324813        -8.8386
  66   2.0000      -0.291311        -7.9270
  67   0.0000       0.024020         0.6536
  68   0.0000       0.068314         1.8589
  69   0.0000       0.101684         2.7670
  70   0.0000       0.113703         3.0940
  71   0.0000       0.128817         3.5053

MULLIKEN ATOMIC CHARGES
-----------------------
   0 S :    0.120851
   1 C :   -0.103912
   2 C :   -0.086356
   3 C :    0.031120
   4 C :   -0.146414
   5 H :    0.009114
   6 C :    0.058140
   7 H :    0.044059
   8 H :    0.020665
   9 C :   -0.117261
  10 H :    0.035284
  11 H :    0.046563
  12 C :   -0.060156
  13 H :    0.036721
  14 H :    0.035065
  15 H :    0.053367
  16 S :    0.086510
  17 C :   -0.108935
  18 C :   -0.032705
  19 C :   -0.006794
  20 C :   -0.163395
  21 H :    0.013433
  22 C :    0.026195
  23 H :    0.012038
  24 H :    0.043435
  25 C :   -0.056243
  26 H :    0.025200
  27 H :    0.036416
  28 C :   -0.051006
  29 H :    0.024761
  30 H :    0.044127
  31 H :    0.033023
  32 H :    0.023734
  33 H :    0.073358
Sum of atomic charges:    0.0000000

LOEWDIN ATOMIC CHARGES
----------------------
   0 S :    0.398766
   1 C :   -0.189025
   2 C :   -0.068857
   3 C :   -0.049870
   4 C :   -0.192249
   5 H :    0.023141
   6 C :   -0.031336
   7 H :    0.035773
   8 H :    0.028735
   9 C :   -0.040918
  10 H :    0.023455
  11 H :    0.028800
  12 C :   -0.068853
  13 H :    0.023499
  14 H :    0.028922
  15 H :    0.030102
  16 S :    0.365208
  17 C :   -0.175916
  18 C :   -0.060635
  19 C :   -0.053253
  20 C :   -0.177655
  21 H :    0.020270
  22 C :   -0.033656
  23 H :    0.024434
  24 H :    0.037517
  25 C :   -0.025005
  26 H :    0.021847
  27 H :    0.022408
  28 C :   -0.066743
  29 H :    0.020664
  30 H :    0.029235
  31 H :    0.025032
  32 H :    0.012967
  33 H :    0.033196

  Mayer bond orders larger than 0.100000
B(  0-S ,  1-C ) :   1.1442 B(  0-S ,  4-C ) :   1.1236 B(  1-C ,  2-C ) :   1.6263
B(  1-C , 32-H ) :   0.9679 B(  2-C ,  3-C ) :   1.2302 B(  2-C ,  6-C ) :   1.0248
B(  3-C ,  4-C ) :   1.5779 B(  3-C ,  5-H ) :   0.9901 B(  4-C , 20-C ) :   1.0694
B(  6-C ,  7-H ) :   0.9467 B(  6-C ,  8-H ) :   0.9442 B(  6-C ,  9-C ) :   1.0446
B(  9-C , 10-H ) :   0.9630 B(  9-C , 11-H ) :   0.9635 B(  9-C , 12-C ) :   1.0684
B( 12-C , 13-H ) :   0.9805 B( 12-C , 14-H ) :   0.9750 B( 12-C , 15-H ) :   0.9781
B( 16-S , 17-C ) :   1.1342 B( 16-S , 20-C ) :   1.1322 B( 17-C , 18-C ) :   1.6108
B( 17-C , 20-C ) :   0.1023 B( 17-C , 33-H ) :   0.9710 B( 18-C , 19-C ) :   1.2039
B( 18-C , 21-H ) :   0.9859 B( 19-C , 20-C ) :   1.5950 B( 19-C , 22-C ) :   1.0437
B( 22-C , 23-H ) :   0.9284 B( 22-C , 24-H ) :   0.9462 B( 22-C , 25-C ) :   1.0520
B( 25-C , 26-H ) :   0.9631 B( 25-C , 27-H ) :   0.9584 B( 25-C , 28-C ) :   1.0745
B( 28-C , 29-H ) :   0.9760 B( 28-C , 30-H ) :   0.9768 B( 28-C , 31-H ) :   0.9754

Dispersion correction           -0.013303234
FINAL SINGLE POINT ENERGY     -1339.862917221674

DIPOLE MOMENT
-------------
                                X             Y             Z
Electronic contribution:    -20.50545      15.33673     -16.55129
Nuclear contribution   :     20.75911     -15.73979      17.10636
                        -----------------------------------------
Total Dipole Moment    :      0.25366      -0.40307       0.55507
                        -----------------------------------------
Magnitude (a.u.)       :      0.73137
Magnitude (Debye)      :      1.85900

Rotational constants in cm-1:     0.017190     0.008437     0.006134
Rotational constants in MHz :   515.354014   252.936831   183.881771

                             ****ORCA TERMINATED NORMALLY****
TOTAL RUN TIME: 0 days 0 hours 0 minutes 19 seconds 785 msec
