                         Program Version 4.2.1 -  RELEASE  -
|  1> ! wB97X-D3 SP def2-SVP
|  2> %pal
|  3> nprocs 24
|  4> end
|  5>
|  6> * xyz 0 1
|  7> S 	 -61.1085 	 -0.651838 	 -22.4511
|  8> C 	 -61.1067 	 -0.138409 	 -20.7704
|  9> C 	 -61.0135 	 -1.22897 	 -19.9174
| 10> C 	 -60.9201 	 -2.5077 	 -20.56
| 11> C 	 -61.102 	 -2.35655 	 -21.9892
| 12> H 	 -60.6969 	 -3.44627 	 -20.1425
| 13> C 	 -60.7911 	 -1.11481 	 -18.4436
| 14> H 	 -60.5226 	 -0.0896524 	 -18.2453
| 15> H 	 -60.0422 	 -1.79229 	 -18.1079
| 16> C 	 -61.9782 	 -1.44788 	 -17.5286
| 17> H 	 -62.2279 	 -2.50771 	 -17.7019
| 18> H 	 -61.5959 	 -1.28914 	 -16.4809
| 19> C 	 -63.1472 	 -0.550912 	 -17.8415
| 20> H 	 -63.4981 	 -0.703446 	 -18.8959
| 21> H 	 -63.9116 	 -0.799645 	 -17.0411
| 22> H 	 -62.852 	 0.539893 	 -17.6922
| 23> S 	 -60.6336 	 -2.92424 	 -24.552
| 24> C 	 -61.2236 	 -4.44385 	 -25.1778
| 25> C 	 -61.7325 	 -5.25286 	 -24.1921
| 26> C 	 -61.8079 	 -4.68462 	 -22.9094
| 27> C 	 -61.2056 	 -3.41185 	 -22.9468
| 28> H 	 -62.0595 	 -6.24749 	 -24.4914
| 29> C 	 -62.368 	 -5.44719 	 -21.7367
| 30> H 	 -62.5065 	 -4.69936 	 -20.969
| 31> H 	 -61.5991 	 -6.12606 	 -21.3066
| 32> C 	 -63.6583 	 -6.10062 	 -22.1224
| 33> H 	 -64.0975 	 -6.63206 	 -21.2974
| 34> H 	 -63.3567 	 -6.84761 	 -22.898
| 35> C 	 -64.7262 	 -5.22778 	 -22.774
| 36> H 	 -64.8894 	 -4.40411 	 -22.1758
| 37> H 	 -65.6196 	 -5.83884 	 -22.8292
| 38> H 	 -64.4628 	 -4.79212 	 -23.7284
| 39> H 	 -61.0856 	 0.941968 	 -20.6101
| 40> H 	 -61.0891 	 -4.81319 	 -26.1906
| 41> *
| 42>
| 43>                          ****END OF INPUT****

CARTESIAN COORDINATES (ANGSTROEM)
---------------------------------
  S    -61.108500   -0.651838  -22.451100
  C    -61.106700   -0.138409  -20.770400
  C    -61.013500   -1.228970  -19.917400
  C    -60.920100   -2.507700  -20.560000
  C    -61.102000   -2.356550  -21.989200
  H    -60.696900   -3.446270  -20.142500
  C    -60.791100   -1.114810  -18.443600
  H    -60.522600   -0.089652  -18.245300
  H    -60.042200   -1.792290  -18.107900
  C    -61.978200   -1.447880  -17.528600
  H    -62.227900   -2.507710  -17.701900
  H    -61.595900   -1.289140  -16.480900
  C    -63.147200   -0.550912  -17.841500
  H    -63.498100   -0.703446  -18.895900
  H    -63.911600   -0.799645  -17.041100
  H    -62.852000    0.539893  -17.692200
  S    -60.633600   -2.924240  -24.552000
  C    -61.223600   -4.443850  -25.177800
  C    -61.732500   -5.252860  -24.192100
  C    -61.807900   -4.684620  -22.909400
  C    -61.205600   -3.411850  -22.946800
  H    -62.059500   -6.247490  -24.491400
  C    -62.368000   -5.447190  -21.736700
  H    -62.506500   -4.699360  -20.969000
  H    -61.599100   -6.126060  -21.306600
  C    -63.658300   -6.100620  -22.122400
  H    -64.097500   -6.632060  -21.297400
  H    -63.356700   -6.847610  -22.898000
  C    -64.726200   -5.227780  -22.774000
  H    -64.889400   -4.404110  -22.175800
  H    -65.619600   -5.838840  -22.829200
  H    -64.462800   -4.792120  -23.728400
  H    -61.085600    0.941968  -20.610100
  H    -61.089100   -4.813190  -26.190600

 Total Charge           Charge          ....    0
 Multiplicity           Mult            ....    1
 Number of Electrons    NEL             ....  134
 Basis Dimension        Dim             ....  322

ORBITAL ENERGIES
----------------

  NO   OCC          E(Eh)            E(eV)
   0   2.0000     -88.967344     -2420.9245
   1   2.0000     -88.966895     -2420.9123
   2   2.0000     -10.334314      -281.2110
   3   2.0000     -10.328639      -281.0565
   4   2.0000     -10.316597      -280.7289
   5   2.0000     -10.316080      -280.7148
   6   2.0000     -10.305624      -280.4303
   7   2.0000     -10.303151      -280.3630
   8   2.0000     -10.297361      -280.2054
   9   2.0000     -10.293107      -280.0897
  10   2.0000     -10.291095      -280.0349
  11   2.0000     -10.286438      -279.9082
  12   2.0000     -10.284989      -279.8688
  13   2.0000     -10.283594      -279.8308
  14   2.0000     -10.280273      -279.7404
  15   2.0000     -10.266215      -279.3579
  16   2.0000      -8.082033      -219.9233
  17   2.0000      -8.081262      -219.9023
  18   2.0000      -6.040517      -164.3708
  19   2.0000      -6.039809      -164.3516
  20   2.0000      -6.036666      -164.2660
  21   2.0000      -6.035821      -164.2430
  22   2.0000      -6.032713      -164.1585
  23   2.0000      -6.032015      -164.1395
  24   2.0000      -1.006392       -27.3853
  25   2.0000      -0.980423       -26.6787
  26   2.0000      -0.921160       -25.0660
  27   2.0000      -0.914247       -24.8779
  28   2.0000      -0.869678       -23.6651
  29   2.0000      -0.853482       -23.2244
  30   2.0000      -0.843037       -22.9402
  31   2.0000      -0.809772       -22.0350
  32   2.0000      -0.788079       -21.4447
  33   2.0000      -0.771438       -20.9919
  34   2.0000      -0.711295       -19.3553
  35   2.0000      -0.698027       -18.9943
  36   2.0000      -0.686566       -18.6824
  37   2.0000      -0.657711       -17.8972
  38   2.0000      -0.642007       -17.4699
  39   2.0000      -0.619699       -16.8629
  40   2.0000      -0.599464       -16.3122
  41   2.0000      -0.563602       -15.3364
  42   2.0000      -0.559297       -15.2192
  43   2.0000      -0.553005       -15.0480
  44   2.0000      -0.546180       -14.8623
  45   2.0000      -0.538877       -14.6636
  46   2.0000      -0.520573       -14.1655
  47   2.0000      -0.514433       -13.9984
  48   2.0000      -0.502692       -13.6789
  49   2.0000      -0.499726       -13.5982
  50   2.0000      -0.493974       -13.4417
  51   2.0000      -0.477549       -12.9948
  52   2.0000      -0.468289       -12.7428
  53   2.0000      -0.461879       -12.5684
  54   2.0000      -0.454558       -12.3692
  55   2.0000      -0.452085       -12.3019
  56   2.0000      -0.447229       -12.1697
  57   2.0000      -0.442151       -12.0315
  58   2.0000      -0.430666       -11.7190
  59   2.0000      -0.421054       -11.4575
  60   2.0000      -0.416342       -11.3292
  61   2.0000      -0.415334       -11.3018
  62   2.0000      -0.410675       -11.1750
  63   2.0000      -0.354635        -9.6501
  64   2.0000      -0.336435        -9.1549
  65   2.0000      -0.328880        -8.9493
  66   2.0000      -0.277321        -7.5463
  67   0.0000       0.014446         0.3931
  68   0.0000       0.076444         2.0801
  69   0.0000       0.097136         2.6432
  70   0.0000       0.119224         3.2443
  71   0.0000       0.131057         3.5662

MULLIKEN ATOMIC CHARGES
-----------------------
   0 S :    0.097127
   1 C :   -0.141921
   2 C :   -0.066377
   3 C :    0.019374
   4 C :   -0.136725
   5 H :    0.006542
   6 C :    0.087896
   7 H :    0.007146
   8 H :    0.019806
   9 C :   -0.091810
  10 H :    0.028333
  11 H :    0.039457
  12 C :   -0.091975
  13 H :    0.065430
  14 H :    0.044877
  15 H :    0.032209
  16 S :    0.095985
  17 C :   -0.081141
  18 C :   -0.057405
  19 C :   -0.064852
  20 C :   -0.153425
  21 H :    0.019720
  22 C :    0.119484
  23 H :    0.004297
  24 H :    0.053392
  25 C :   -0.111445
  26 H :    0.026795
  27 H :    0.027217
  28 C :    0.004680
  29 H :    0.009917
  30 H :    0.034760
  31 H :    0.037739
  32 H :    0.061556
  33 H :    0.053339
Sum of atomic charges:    0.0000000

LOEWDIN ATOMIC CHARGES
----------------------
   0 S :    0.393982
   1 C :   -0.201605
   2 C :   -0.060873
   3 C :   -0.061754
   4 C :   -0.183204
   5 H :    0.022941
   6 C :   -0.031282
   7 H :    0.023798
   8 H :    0.027409
   9 C :   -0.045892
  10 H :    0.021243
  11 H :    0.029405
  12 C :   -0.078947
  13 H :    0.034326
  14 H :    0.032219
  15 H :    0.027737
  16 S :    0.394554
  17 C :   -0.185242
  18 C :   -0.071801
  19 C :   -0.050792
  20 C :   -0.186127
  21 H :    0.031793
  22 C :   -0.034004
  23 H :    0.024320
  24 H :    0.041764
  25 C :   -0.042284
  26 H :    0.023190
  27 H :    0.024688
  28 C :   -0.053918
  29 H :    0.015786
  30 H :    0.030093
  31 H :    0.028078
  32 H :    0.030246
  33 H :    0.030153

  Mayer bond orders larger than 0.100000
B(  0-S ,  1-C ) :   1.1272 B(  0-S ,  4-C ) :   1.1649 B(  1-C ,  2-C ) :   1.5707
B(  1-C , 32-H ) :   0.9737 B(  2-C ,  3-C ) :   1.2446 B(  2-C ,  6-C ) :   1.0370
B(  3-C ,  4-C ) :   1.5052 B(  3-C ,  5-H ) :   1.0003 B(  4-C , 20-C ) :   1.1134
B(  6-C ,  7-H ) :   0.9407 B(  6-C ,  8-H ) :   0.9406 B(  6-C ,  9-C ) :   1.0695
B(  9-C , 10-H ) :   0.9535 B(  9-C , 11-H ) :   0.9556 B(  9-C , 12-C ) :   1.0782
B( 12-C , 13-H ) :   0.9688 B( 12-C , 14-H ) :   0.9729 B( 12-C , 15-H ) :   0.9731
B( 16-S , 17-C ) :   1.1415 B( 16-S , 20-C ) :   1.1364 B( 17-C , 18-C ) :   1.6310
B( 17-C , 33-H ) :   0.9632 B( 18-C , 19-C ) :   1.2334 B( 18-C , 21-H ) :   0.9836
B( 19-C , 20-C ) :   1.5600 B( 19-C , 22-C ) :   1.0293 B( 22-C , 23-H ) :   0.9147
B( 22-C , 24-H ) :   0.9343 B( 22-C , 25-C ) :   1.0711 B( 25-C , 26-H ) :   0.9541
B( 25-C , 27-H ) :   0.9501 B( 25-C , 28-C ) :   1.0852 B( 28-C , 29-H ) :   0.9725
B( 28-C , 30-H ) :   0.9713 B( 28-C , 31-H ) :   0.9640

Dispersion correction           -0.014649445
FINAL SINGLE POINT ENERGY     -1339.878847729993

DIPOLE MOMENT
-------------
                                X             Y             Z
Electronic contribution:     14.60303       8.13137     -20.75457
Nuclear contribution   :    -14.71695      -8.57615      21.15116
                        -----------------------------------------
Total Dipole Moment    :     -0.11392      -0.44478       0.39658
                        -----------------------------------------
Magnitude (a.u.)       :      0.60670
Magnitude (Debye)      :      1.54212

Rotational constants in cm-1:     0.020024     0.009116     0.006967
Rotational constants in MHz :   600.303485   273.294722   208.851546

                             ****ORCA TERMINATED NORMALLY****
TOTAL RUN TIME: 0 days 0 hours 0 minutes 22 seconds 432 msec
