                         Program Version 4.2.1 -  RELEASE  -
|  1> ! wB97X-D3 SP def2-SVP
|  2> %pal
|  3> nprocs 24
|  4> end
|  5>
|  6> * xyz 0 1
|  7> S 	 -137.568 	 1.59293 	 4.94072
|  8> C 	 -136.678 	 0.230823 	 4.18676
|  9> C 	 -135.347 	 0.469509 	 4.2871
| 10> C 	 -134.944 	 1.7212 	 4.90761
| 11> C 	 -136.057 	 2.40402 	 5.38337
| 12> H 	 -133.974 	 2.16417 	 4.99297
| 13> C 	 -134.246 	 -0.435391 	 3.70956
| 14> H 	 -134.287 	 -1.33809 	 4.40359
| 15> H 	 -133.33 	 0.153733 	 3.82285
| 16> C 	 -134.408 	 -0.942931 	 2.2547
| 17> H 	 -133.639 	 -1.78137 	 2.25037
| 18> H 	 -135.425 	 -1.3523 	 2.02981
| 19> C 	 -134.115 	 0.20821 	 1.31298
| 20> H 	 -134.914 	 0.967793 	 1.37248
| 21> H 	 -133.147 	 0.662228 	 1.56902
| 22> H 	 -133.833 	 -0.102552 	 0.307051
| 23> S 	 -136.673 	 5.05331 	 4.97836
| 24> C 	 -136.61 	 6.15652 	 6.31902
| 25> C 	 -136.104 	 5.63498 	 7.45724
| 26> C 	 -135.837 	 4.2172 	 7.33003
| 27> C 	 -136.09 	 3.7574 	 6.0048
| 28> H 	 -135.847 	 6.24022 	 8.36165
| 29> C 	 -135.072 	 3.40452 	 8.40354
| 30> H 	 -134.768 	 2.44868 	 7.89001
| 31> H 	 -135.787 	 3.15043 	 9.20526
| 32> C 	 -133.721 	 4.10442 	 8.95824
| 33> H 	 -133.41 	 3.61225 	 9.88904
| 34> H 	 -134.046 	 5.15402 	 9.17362
| 35> C 	 -132.536 	 4.05855 	 7.94196
| 36> H 	 -132.051 	 3.06034 	 8.1289
| 37> H 	 -131.784 	 4.80153 	 8.05077
| 38> H 	 -133.019 	 4.20524 	 6.9506
| 39> H 	 -137.12 	 -0.665613 	 3.6894
| 40> H 	 -136.71 	 7.21704 	 6.1514
| 41> *
| 42>
| 43>                          ****END OF INPUT****

CARTESIAN COORDINATES (ANGSTROEM)
---------------------------------
  S    -137.568000    1.592930    4.940720
  C    -136.678000    0.230823    4.186760
  C    -135.347000    0.469509    4.287100
  C    -134.944000    1.721200    4.907610
  C    -136.057000    2.404020    5.383370
  H    -133.974000    2.164170    4.992970
  C    -134.246000   -0.435391    3.709560
  H    -134.287000   -1.338090    4.403590
  H    -133.330000    0.153733    3.822850
  C    -134.408000   -0.942931    2.254700
  H    -133.639000   -1.781370    2.250370
  H    -135.425000   -1.352300    2.029810
  C    -134.115000    0.208210    1.312980
  H    -134.914000    0.967793    1.372480
  H    -133.147000    0.662228    1.569020
  H    -133.833000   -0.102552    0.307051
  S    -136.673000    5.053310    4.978360
  C    -136.610000    6.156520    6.319020
  C    -136.104000    5.634980    7.457240
  C    -135.837000    4.217200    7.330030
  C    -136.090000    3.757400    6.004800
  H    -135.847000    6.240220    8.361650
  C    -135.072000    3.404520    8.403540
  H    -134.768000    2.448680    7.890010
  H    -135.787000    3.150430    9.205260
  C    -133.721000    4.104420    8.958240
  H    -133.410000    3.612250    9.889040
  H    -134.046000    5.154020    9.173620
  C    -132.536000    4.058550    7.941960
  H    -132.051000    3.060340    8.128900
  H    -131.784000    4.801530    8.050770
  H    -133.019000    4.205240    6.950600
  H    -137.120000   -0.665613    3.689400
  H    -136.710000    7.217040    6.151400

 Total Charge           Charge          ....    0
 Multiplicity           Mult            ....    1
 Number of Electrons    NEL             ....  134
 Basis Dimension        Dim             ....  322

ORBITAL ENERGIES
----------------

  NO   OCC          E(Eh)            E(eV)
   0   2.0000     -88.966346     -2420.8974
   1   2.0000     -88.964372     -2420.8436
   2   2.0000     -10.334035      -281.2034
   3   2.0000     -10.331462      -281.1334
   4   2.0000     -10.316679      -280.7311
   5   2.0000     -10.314309      -280.6666
   6   2.0000     -10.311682      -280.5951
   7   2.0000     -10.301677      -280.3229
   8   2.0000     -10.300217      -280.2831
   9   2.0000     -10.298537      -280.2374
  10   2.0000     -10.298042      -280.2240
  11   2.0000     -10.297146      -280.1996
  12   2.0000     -10.296238      -280.1749
  13   2.0000     -10.295908      -280.1659
  14   2.0000     -10.283284      -279.8224
  15   2.0000     -10.277760      -279.6721
  16   2.0000      -8.081449      -219.9074
  17   2.0000      -8.078083      -219.8158
  18   2.0000      -6.039885      -164.3536
  19   2.0000      -6.036786      -164.2693
  20   2.0000      -6.035921      -164.2458
  21   2.0000      -6.032727      -164.1588
  22   2.0000      -6.032246      -164.1457
  23   2.0000      -6.028685      -164.0489
  24   2.0000      -1.001022       -27.2392
  25   2.0000      -0.979820       -26.6623
  26   2.0000      -0.908635       -24.7252
  27   2.0000      -0.894893       -24.3513
  28   2.0000      -0.866169       -23.5697
  29   2.0000      -0.843870       -22.9629
  30   2.0000      -0.841905       -22.9094
  31   2.0000      -0.814035       -22.1510
  32   2.0000      -0.776875       -21.1399
  33   2.0000      -0.766333       -20.8530
  34   2.0000      -0.703729       -19.1494
  35   2.0000      -0.698201       -18.9990
  36   2.0000      -0.689345       -18.7580
  37   2.0000      -0.650430       -17.6991
  38   2.0000      -0.637554       -17.3487
  39   2.0000      -0.604880       -16.4596
  40   2.0000      -0.591811       -16.1040
  41   2.0000      -0.573358       -15.6019
  42   2.0000      -0.552460       -15.0332
  43   2.0000      -0.551900       -15.0180
  44   2.0000      -0.542603       -14.7650
  45   2.0000      -0.533266       -14.5109
  46   2.0000      -0.517664       -14.0863
  47   2.0000      -0.508314       -13.8319
  48   2.0000      -0.493538       -13.4299
  49   2.0000      -0.490737       -13.3536
  50   2.0000      -0.483241       -13.1496
  51   2.0000      -0.472062       -12.8455
  52   2.0000      -0.468666       -12.7530
  53   2.0000      -0.465578       -12.6690
  54   2.0000      -0.456313       -12.4169
  55   2.0000      -0.451195       -12.2777
  56   2.0000      -0.442891       -12.0517
  57   2.0000      -0.439984       -11.9726
  58   2.0000      -0.431366       -11.7381
  59   2.0000      -0.422438       -11.4951
  60   2.0000      -0.419923       -11.4267
  61   2.0000      -0.408861       -11.1257
  62   2.0000      -0.406316       -11.0564
  63   2.0000      -0.339863        -9.2481
  64   2.0000      -0.328210        -8.9311
  65   2.0000      -0.324997        -8.8436
  66   2.0000      -0.305497        -8.3130
  67   0.0000       0.039947         1.0870
  68   0.0000       0.055817         1.5189
  69   0.0000       0.112657         3.0656
  70   0.0000       0.116445         3.1686
  71   0.0000       0.130162         3.5419

MULLIKEN ATOMIC CHARGES
-----------------------
   0 S :    0.103958
   1 C :   -0.150434
   2 C :   -0.092053
   3 C :    0.053215
   4 C :   -0.153847
   5 H :    0.015153
   6 C :    0.029815
   7 H :    0.053084
   8 H :    0.023228
   9 C :   -0.084394
  10 H :    0.040960
  11 H :    0.038841
  12 C :   -0.042006
  13 H :    0.057705
  14 H :    0.012133
  15 H :    0.028999
  16 S :    0.116510
  17 C :   -0.081954
  18 C :   -0.051530
  19 C :   -0.032892
  20 C :   -0.205097
  21 H :    0.045840
  22 C :    0.030286
  23 H :    0.037456
  24 H :    0.047791
  25 C :   -0.096917
  26 H :    0.038534
  27 H :    0.029430
  28 C :   -0.062027
  29 H :    0.044983
  30 H :    0.033846
  31 H :    0.049583
  32 H :    0.065839
  33 H :    0.055962
Sum of atomic charges:    0.0000000

LOEWDIN ATOMIC CHARGES
----------------------
   0 S :    0.379966
   1 C :   -0.199483
   2 C :   -0.069190
   3 C :   -0.062195
   4 C :   -0.185375
   5 H :    0.031683
   6 C :   -0.036160
   7 H :    0.041075
   8 H :    0.027549
   9 C :   -0.047173
  10 H :    0.032387
  11 H :    0.025991
  12 C :   -0.071554
  13 H :    0.034421
  14 H :    0.024193
  15 H :    0.025625
  16 S :    0.414137
  17 C :   -0.184293
  18 C :   -0.080305
  19 C :   -0.053943
  20 C :   -0.209935
  21 H :    0.041803
  22 C :   -0.036147
  23 H :    0.033439
  24 H :    0.035385
  25 C :   -0.039773
  26 H :    0.023877
  27 H :    0.019913
  28 C :   -0.069891
  29 H :    0.034023
  30 H :    0.020629
  31 H :    0.031662
  32 H :    0.040985
  33 H :    0.026675

  Mayer bond orders larger than 0.100000
B(  0-S ,  1-C ) :   1.1041 B(  0-S ,  4-C ) :   1.1569 B(  1-C ,  2-C ) :   1.6540
B(  1-C , 32-H ) :   0.9653 B(  2-C ,  3-C ) :   1.2003 B(  2-C ,  6-C ) :   1.0025
B(  3-C ,  4-C ) :   1.6039 B(  3-C ,  5-H ) :   0.9939 B(  4-C , 20-C ) :   1.0000
B(  6-C ,  7-H ) :   0.9370 B(  6-C ,  8-H ) :   0.9488 B(  6-C ,  9-C ) :   1.0674
B(  9-C , 10-H ) :   0.9545 B(  9-C , 11-H ) :   0.9552 B(  9-C , 12-C ) :   1.0705
B( 12-C , 13-H ) :   0.9751 B( 12-C , 14-H ) :   0.9707 B( 12-C , 15-H ) :   0.9721
B( 16-S , 17-C ) :   1.1570 B( 16-S , 20-C ) :   1.1624 B( 17-C , 18-C ) :   1.6306
B( 17-C , 33-H ) :   0.9627 B( 18-C , 19-C ) :   1.2343 B( 18-C , 21-H ) :   0.9759
B( 19-C , 20-C ) :   1.5886 B( 19-C , 22-C ) :   1.0370 B( 22-C , 23-H ) :   0.9468
B( 22-C , 24-H ) :   0.9350 B( 22-C , 25-C ) :   1.0463 B( 25-C , 26-H ) :   0.9625
B( 25-C , 27-H ) :   0.9602 B( 25-C , 28-C ) :   1.0569 B( 28-C , 29-H ) :   0.9770
B( 28-C , 30-H ) :   0.9766 B( 28-C , 31-H ) :   0.9781

Dispersion correction           -0.014657472
FINAL SINGLE POINT ENERGY     -1339.874377161138

DIPOLE MOMENT
-------------
                                X             Y             Z
Electronic contribution:    -21.27867       9.10071      -0.42575
Nuclear contribution   :     21.92150      -9.15850       0.52163
                        -----------------------------------------
Total Dipole Moment    :      0.64283      -0.05779       0.09588
                        -----------------------------------------
Magnitude (a.u.)       :      0.65251
Magnitude (Debye)      :      1.65854

Rotational constants in cm-1:     0.020515     0.007952     0.006856
Rotational constants in MHz :   615.029858   238.398367   205.532856

                             ****ORCA TERMINATED NORMALLY****
TOTAL RUN TIME: 0 days 0 hours 0 minutes 21 seconds 339 msec
