                         Program Version 4.2.1 -  RELEASE  -
|  1> ! wB97X-D3 SP def2-SVP
|  2> %pal
|  3> nprocs 24
|  4> end
|  5>
|  6> * xyz 0 1
|  7> S 	 -51.5773 	 -43.8788 	 -74.5605
|  8> C 	 -52.4578 	 -42.9556 	 -73.3597
|  9> C 	 -53.1338 	 -41.8494 	 -73.92
| 10> C 	 -52.9612 	 -41.8594 	 -75.3459
| 11> C 	 -52.0231 	 -42.7377 	 -75.8266
| 12> H 	 -53.4018 	 -41.1421 	 -76.0863
| 13> C 	 -54.0481 	 -40.8658 	 -73.2483
| 14> H 	 -54.2027 	 -40.0905 	 -73.9509
| 15> H 	 -53.5707 	 -40.5304 	 -72.3442
| 16> C 	 -55.4551 	 -41.4124 	 -73.0085
| 17> H 	 -55.8164 	 -41.8519 	 -73.9788
| 18> H 	 -55.443 	 -42.2173 	 -72.3004
| 19> C 	 -56.4167 	 -40.4066 	 -72.3637
| 20> H 	 -56.6011 	 -39.4776 	 -72.9207
| 21> H 	 -57.3656 	 -40.933 	 -72.1969
| 22> H 	 -55.9505 	 -40.0557 	 -71.4352
| 23> S 	 -51.449 	 -44.1624 	 -78.2296
| 24> C 	 -50.6566 	 -43.2963 	 -79.5047
| 25> C 	 -50.192 	 -42.0945 	 -79.0458
| 26> C 	 -50.6294 	 -41.6845 	 -77.773
| 27> C 	 -51.2603 	 -42.776 	 -77.0896
| 28> H 	 -49.5685 	 -41.6218 	 -79.7601
| 29> C 	 -50.3669 	 -40.2746 	 -77.1785
| 30> H 	 -51.3724 	 -40.0034 	 -76.8538
| 31> H 	 -50.0834 	 -39.6142 	 -78.0303
| 32> C 	 -49.3408 	 -40.1597 	 -76.037
| 33> H 	 -49.8431 	 -40.5757 	 -75.1455
| 34> H 	 -49.1595 	 -39.1082 	 -75.8897
| 35> C 	 -47.9958 	 -40.8255 	 -76.4073
| 36> H 	 -47.4168 	 -40.9202 	 -75.499
| 37> H 	 -47.3534 	 -40.2604 	 -77.1139
| 38> H 	 -48.076 	 -41.9117 	 -76.807
| 39> H 	 -52.5141 	 -43.0727 	 -72.3321
| 40> H 	 -50.4945 	 -43.6558 	 -80.4758
| 41> *
| 42>
| 43>                          ****END OF INPUT****

CARTESIAN COORDINATES (ANGSTROEM)
---------------------------------
  S    -51.577300  -43.878800  -74.560500
  C    -52.457800  -42.955600  -73.359700
  C    -53.133800  -41.849400  -73.920000
  C    -52.961200  -41.859400  -75.345900
  C    -52.023100  -42.737700  -75.826600
  H    -53.401800  -41.142100  -76.086300
  C    -54.048100  -40.865800  -73.248300
  H    -54.202700  -40.090500  -73.950900
  H    -53.570700  -40.530400  -72.344200
  C    -55.455100  -41.412400  -73.008500
  H    -55.816400  -41.851900  -73.978800
  H    -55.443000  -42.217300  -72.300400
  C    -56.416700  -40.406600  -72.363700
  H    -56.601100  -39.477600  -72.920700
  H    -57.365600  -40.933000  -72.196900
  H    -55.950500  -40.055700  -71.435200
  S    -51.449000  -44.162400  -78.229600
  C    -50.656600  -43.296300  -79.504700
  C    -50.192000  -42.094500  -79.045800
  C    -50.629400  -41.684500  -77.773000
  C    -51.260300  -42.776000  -77.089600
  H    -49.568500  -41.621800  -79.760100
  C    -50.366900  -40.274600  -77.178500
  H    -51.372400  -40.003400  -76.853800
  H    -50.083400  -39.614200  -78.030300
  C    -49.340800  -40.159700  -76.037000
  H    -49.843100  -40.575700  -75.145500
  H    -49.159500  -39.108200  -75.889700
  C    -47.995800  -40.825500  -76.407300
  H    -47.416800  -40.920200  -75.499000
  H    -47.353400  -40.260400  -77.113900
  H    -48.076000  -41.911700  -76.807000
  H    -52.514100  -43.072700  -72.332100
  H    -50.494500  -43.655800  -80.475800

 Total Charge           Charge          ....    0
 Multiplicity           Mult            ....    1
 Number of Electrons    NEL             ....  134
 Basis Dimension        Dim             ....  322

ORBITAL ENERGIES
----------------

  NO   OCC          E(Eh)            E(eV)
   0   2.0000     -88.965838     -2420.8835
   1   2.0000     -88.965587     -2420.8767
   2   2.0000     -10.333554      -281.1903
   3   2.0000     -10.329483      -281.0795
   4   2.0000     -10.312800      -280.6256
   5   2.0000     -10.312376      -280.6140
   6   2.0000     -10.311069      -280.5785
   7   2.0000     -10.303455      -280.3713
   8   2.0000     -10.297477      -280.2086
   9   2.0000     -10.295075      -280.1432
  10   2.0000     -10.288573      -279.9663
  11   2.0000     -10.287505      -279.9372
  12   2.0000     -10.287348      -279.9330
  13   2.0000     -10.287262      -279.9306
  14   2.0000     -10.281805      -279.7821
  15   2.0000     -10.280571      -279.7486
  16   2.0000      -8.080055      -219.8695
  17   2.0000      -8.079969      -219.8671
  18   2.0000      -6.038647      -164.3199
  19   2.0000      -6.038430      -164.3140
  20   2.0000      -6.034523      -164.2077
  21   2.0000      -6.034471      -164.2063
  22   2.0000      -6.030906      -164.1093
  23   2.0000      -6.030815      -164.1068
  24   2.0000      -1.000598       -27.2276
  25   2.0000      -0.981340       -26.7036
  26   2.0000      -0.916179       -24.9305
  27   2.0000      -0.902997       -24.5718
  28   2.0000      -0.865749       -23.5582
  29   2.0000      -0.848080       -23.0774
  30   2.0000      -0.842694       -22.9309
  31   2.0000      -0.813678       -22.1413
  32   2.0000      -0.783686       -21.3252
  33   2.0000      -0.772115       -21.0103
  34   2.0000      -0.709424       -19.3044
  35   2.0000      -0.700075       -19.0500
  36   2.0000      -0.688815       -18.7436
  37   2.0000      -0.654677       -17.8147
  38   2.0000      -0.643196       -17.5023
  39   2.0000      -0.617214       -16.7953
  40   2.0000      -0.583910       -15.8890
  41   2.0000      -0.574227       -15.6255
  42   2.0000      -0.567968       -15.4552
  43   2.0000      -0.556943       -15.1552
  44   2.0000      -0.539656       -14.6848
  45   2.0000      -0.527950       -14.3662
  46   2.0000      -0.517485       -14.0815
  47   2.0000      -0.509319       -13.8593
  48   2.0000      -0.503247       -13.6941
  49   2.0000      -0.496005       -13.4970
  50   2.0000      -0.484237       -13.1768
  51   2.0000      -0.481076       -13.0907
  52   2.0000      -0.470733       -12.8093
  53   2.0000      -0.459858       -12.5134
  54   2.0000      -0.455395       -12.3919
  55   2.0000      -0.443732       -12.0746
  56   2.0000      -0.438936       -11.9441
  57   2.0000      -0.433869       -11.8062
  58   2.0000      -0.429764       -11.6945
  59   2.0000      -0.426096       -11.5947
  60   2.0000      -0.423124       -11.5138
  61   2.0000      -0.420765       -11.4496
  62   2.0000      -0.412829       -11.2337
  63   2.0000      -0.340146        -9.2558
  64   2.0000      -0.331114        -9.0101
  65   2.0000      -0.329187        -8.9576
  66   2.0000      -0.290809        -7.9133
  67   0.0000       0.029145         0.7931
  68   0.0000       0.056460         1.5363
  69   0.0000       0.114814         3.1243
  70   0.0000       0.124624         3.3912
  71   0.0000       0.127224         3.4619

MULLIKEN ATOMIC CHARGES
-----------------------
   0 S :    0.112398
   1 C :   -0.066241
   2 C :   -0.145265
   3 C :    0.008351
   4 C :   -0.167651
   5 H :    0.035347
   6 C :    0.121186
   7 H :    0.004874
   8 H :    0.023713
   9 C :   -0.091339
  10 H :    0.035568
  11 H :    0.017978
  12 C :   -0.038164
  13 H :    0.029342
  14 H :    0.045094
  15 H :    0.024845
  16 S :    0.103419
  17 C :   -0.080834
  18 C :   -0.031826
  19 C :   -0.050069
  20 C :   -0.144534
  21 H :    0.002955
  22 C :    0.077518
  23 H :    0.020219
  24 H :    0.023972
  25 C :   -0.032295
  26 H :    0.047164
  27 H :    0.030866
  28 C :   -0.097744
  29 H :    0.032204
  30 H :    0.034733
  31 H :    0.060793
  32 H :    0.013257
  33 H :    0.040169
Sum of atomic charges:   -0.0000000

LOEWDIN ATOMIC CHARGES
----------------------
   0 S :    0.403784
   1 C :   -0.189449
   2 C :   -0.058943
   3 C :   -0.072278
   4 C :   -0.193285
   5 H :    0.038271
   6 C :   -0.027512
   7 H :    0.026381
   8 H :    0.029435
   9 C :   -0.039302
  10 H :    0.029491
  11 H :    0.018534
  12 C :   -0.066484
  13 H :    0.022250
  14 H :    0.031617
  15 H :    0.025788
  16 S :    0.395364
  17 C :   -0.176080
  18 C :   -0.077637
  19 C :   -0.042541
  20 C :   -0.201594
  21 H :    0.026688
  22 C :   -0.031471
  23 H :    0.029172
  24 H :    0.031447
  25 C :   -0.035841
  26 H :    0.032495
  27 H :    0.026095
  28 C :   -0.078663
  29 H :    0.024542
  30 H :    0.025759
  31 H :    0.038989
  32 H :    0.013530
  33 H :    0.021448

  Mayer bond orders larger than 0.100000
B(  0-S ,  1-C ) :   1.1410 B(  0-S ,  4-C ) :   1.1444 B(  1-C ,  2-C ) :   1.6062
B(  1-C , 32-H ) :   0.9753 B(  2-C ,  3-C ) :   1.2349 B(  2-C ,  6-C ) :   1.0389
B(  3-C ,  4-C ) :   1.6091 B(  3-C ,  5-H ) :   0.9765 B(  4-C , 20-C ) :   1.0074
B(  6-C ,  7-H ) :   0.9321 B(  6-C ,  8-H ) :   0.9304 B(  6-C ,  9-C ) :   1.0705
B(  9-C , 10-H ) :   0.9540 B(  9-C , 11-H ) :   0.9555 B(  9-C , 12-C ) :   1.0794
B( 12-C , 13-H ) :   0.9764 B( 12-C , 14-H ) :   0.9740 B( 12-C , 15-H ) :   0.9708
B( 16-S , 17-C ) :   1.1685 B( 16-S , 20-C ) :   1.1436 B( 17-C , 18-C ) :   1.6019
B( 17-C , 20-C ) :   0.1108 B( 17-C , 33-H ) :   0.9716 B( 18-C , 19-C ) :   1.2459
B( 18-C , 21-H ) :   0.9971 B( 19-C , 20-C ) :   1.5516 B( 19-C , 22-C ) :   1.0230
B( 22-C , 23-H ) :   0.9284 B( 22-C , 24-H ) :   0.9376 B( 22-C , 25-C ) :   1.0765
B( 25-C , 26-H ) :   0.9548 B( 25-C , 27-H ) :   0.9537 B( 25-C , 28-C ) :   1.0722
B( 28-C , 29-H ) :   0.9749 B( 28-C , 30-H ) :   0.9756 B( 28-C , 31-H ) :   0.9707

Dispersion correction           -0.014937924
FINAL SINGLE POINT ENERGY     -1339.872051032529

DIPOLE MOMENT
-------------
                                X             Y             Z
Electronic contribution:      4.85334     -20.74046     -11.48842
Nuclear contribution   :     -4.92779      21.44910      11.53562
                        -----------------------------------------
Total Dipole Moment    :     -0.07444       0.70864       0.04721
                        -----------------------------------------
Magnitude (a.u.)       :      0.71410
Magnitude (Debye)      :      1.81510

Rotational constants in cm-1:     0.021232     0.007637     0.006885
Rotational constants in MHz :   636.523242   228.966161   206.415209

                             ****ORCA TERMINATED NORMALLY****
TOTAL RUN TIME: 0 days 0 hours 0 minutes 21 seconds 864 msec
