                         Program Version 4.2.1 -  RELEASE  -
|  1> ! wB97X-D3 SP def2-SVP
|  2> %pal
|  3> nprocs 24
|  4> end
|  5>
|  6> * xyz 0 1
|  7> S 	 -124.503 	 63.9575 	 -38.5886
|  8> C 	 -123.168 	 64.9258 	 -37.9939
|  9> C 	 -123.481 	 66.2518 	 -38.0771
| 10> C 	 -124.805 	 66.5335 	 -38.563
| 11> C 	 -125.475 	 65.3718 	 -38.8776
| 12> H 	 -125.285 	 67.5499 	 -38.7275
| 13> C 	 -122.621 	 67.4464 	 -37.6204
| 14> H 	 -122.842 	 68.3196 	 -38.2318
| 15> H 	 -121.56 	 67.2421 	 -37.9075
| 16> C 	 -122.823 	 68.0015 	 -36.1803
| 17> H 	 -122.206 	 68.8599 	 -36.0954
| 18> H 	 -123.903 	 68.2463 	 -36.1443
| 19> C 	 -122.509 	 66.8903 	 -35.162
| 20> H 	 -121.454 	 66.6932 	 -35.0535
| 21> H 	 -122.828 	 67.1661 	 -34.1619
| 22> H 	 -122.965 	 65.9464 	 -35.4581
| 23> S 	 -126.998 	 65.9 	 -41.0778
| 24> C 	 -128.701 	 65.3918 	 -41.041
| 25> C 	 -128.996 	 64.744 	 -39.9031
| 26> C 	 -127.91 	 64.7051 	 -38.9499
| 27> C 	 -126.794 	 65.3188 	 -39.4536
| 28> H 	 -129.988 	 64.3441 	 -39.8234
| 29> C 	 -128.106 	 64.0661 	 -37.6092
| 30> H 	 -127.142 	 64.1501 	 -37.0899
| 31> H 	 -128.266 	 63.0051 	 -37.9072
| 32> C 	 -129.335 	 64.5335 	 -36.7231
| 33> H 	 -130.134 	 64.8012 	 -37.361
| 34> H 	 -129.065 	 65.4308 	 -36.157
| 35> C 	 -129.755 	 63.4016 	 -35.879
| 36> H 	 -128.895 	 63.0571 	 -35.329
| 37> H 	 -130.231 	 62.6226 	 -36.5056
| 38> H 	 -130.502 	 63.744 	 -35.1838
| 39> H 	 -122.264 	 64.4993 	 -37.6458
| 40> H 	 -129.318 	 65.4054 	 -41.9611
| 41> *
| 42>
| 43>                          ****END OF INPUT****

CARTESIAN COORDINATES (ANGSTROEM)
---------------------------------
  S    -124.503000   63.957500  -38.588600
  C    -123.168000   64.925800  -37.993900
  C    -123.481000   66.251800  -38.077100
  C    -124.805000   66.533500  -38.563000
  C    -125.475000   65.371800  -38.877600
  H    -125.285000   67.549900  -38.727500
  C    -122.621000   67.446400  -37.620400
  H    -122.842000   68.319600  -38.231800
  H    -121.560000   67.242100  -37.907500
  C    -122.823000   68.001500  -36.180300
  H    -122.206000   68.859900  -36.095400
  H    -123.903000   68.246300  -36.144300
  C    -122.509000   66.890300  -35.162000
  H    -121.454000   66.693200  -35.053500
  H    -122.828000   67.166100  -34.161900
  H    -122.965000   65.946400  -35.458100
  S    -126.998000   65.900000  -41.077800
  C    -128.701000   65.391800  -41.041000
  C    -128.996000   64.744000  -39.903100
  C    -127.910000   64.705100  -38.949900
  C    -126.794000   65.318800  -39.453600
  H    -129.988000   64.344100  -39.823400
  C    -128.106000   64.066100  -37.609200
  H    -127.142000   64.150100  -37.089900
  H    -128.266000   63.005100  -37.907200
  C    -129.335000   64.533500  -36.723100
  H    -130.134000   64.801200  -37.361000
  H    -129.065000   65.430800  -36.157000
  C    -129.755000   63.401600  -35.879000
  H    -128.895000   63.057100  -35.329000
  H    -130.231000   62.622600  -36.505600
  H    -130.502000   63.744000  -35.183800
  H    -122.264000   64.499300  -37.645800
  H    -129.318000   65.405400  -41.961100

 Total Charge           Charge          ....    0
 Multiplicity           Mult            ....    1
 Number of Electrons    NEL             ....  134
 Basis Dimension        Dim             ....  322

ORBITAL ENERGIES
----------------

  NO   OCC          E(Eh)            E(eV)
   0   2.0000     -88.966620     -2420.9048
   1   2.0000     -88.960756     -2420.7452
   2   2.0000     -10.324359      -280.9401
   3   2.0000     -10.318080      -280.7692
   4   2.0000     -10.315510      -280.6993
   5   2.0000     -10.312310      -280.6122
   6   2.0000     -10.301899      -280.3289
   7   2.0000     -10.299318      -280.2587
   8   2.0000     -10.296688      -280.1871
   9   2.0000     -10.291581      -280.0482
  10   2.0000     -10.291050      -280.0337
  11   2.0000     -10.289061      -279.9796
  12   2.0000     -10.287618      -279.9403
  13   2.0000     -10.281911      -279.7850
  14   2.0000     -10.272764      -279.5361
  15   2.0000     -10.270264      -279.4681
  16   2.0000      -8.081317      -219.9038
  17   2.0000      -8.075691      -219.7507
  18   2.0000      -6.039844      -164.3525
  19   2.0000      -6.035795      -164.2423
  20   2.0000      -6.034231      -164.1998
  21   2.0000      -6.032091      -164.1415
  22   2.0000      -6.030338      -164.0938
  23   2.0000      -6.026238      -163.9823
  24   2.0000      -1.009017       -27.4567
  25   2.0000      -0.984930       -26.8013
  26   2.0000      -0.911264       -24.7967
  27   2.0000      -0.906394       -24.6642
  28   2.0000      -0.872771       -23.7493
  29   2.0000      -0.855664       -23.2838
  30   2.0000      -0.843529       -22.9536
  31   2.0000      -0.814524       -22.1643
  32   2.0000      -0.780620       -21.2418
  33   2.0000      -0.768481       -20.9114
  34   2.0000      -0.705734       -19.2040
  35   2.0000      -0.699478       -19.0338
  36   2.0000      -0.693813       -18.8796
  37   2.0000      -0.660454       -17.9719
  38   2.0000      -0.639963       -17.4143
  39   2.0000      -0.612047       -16.6547
  40   2.0000      -0.595859       -16.2142
  41   2.0000      -0.570375       -15.5207
  42   2.0000      -0.566511       -15.4156
  43   2.0000      -0.545276       -14.8377
  44   2.0000      -0.537039       -14.6136
  45   2.0000      -0.533123       -14.5070
  46   2.0000      -0.520022       -14.1505
  47   2.0000      -0.517191       -14.0735
  48   2.0000      -0.504774       -13.7356
  49   2.0000      -0.499650       -13.5962
  50   2.0000      -0.485493       -13.2109
  51   2.0000      -0.474596       -12.9144
  52   2.0000      -0.465821       -12.6756
  53   2.0000      -0.462670       -12.5899
  54   2.0000      -0.456075       -12.4104
  55   2.0000      -0.450225       -12.2512
  56   2.0000      -0.449001       -12.2179
  57   2.0000      -0.432740       -11.7755
  58   2.0000      -0.426526       -11.6063
  59   2.0000      -0.425318       -11.5735
  60   2.0000      -0.419502       -11.4152
  61   2.0000      -0.418957       -11.4004
  62   2.0000      -0.414929       -11.2908
  63   2.0000      -0.341727        -9.2989
  64   2.0000      -0.333925        -9.0866
  65   2.0000      -0.323904        -8.8139
  66   2.0000      -0.301988        -8.2175
  67   0.0000       0.041804         1.1375
  68   0.0000       0.068268         1.8577
  69   0.0000       0.112161         3.0521
  70   0.0000       0.118910         3.2357
  71   0.0000       0.126247         3.4353

MULLIKEN ATOMIC CHARGES
-----------------------
   0 S :    0.118613
   1 C :   -0.120189
   2 C :   -0.066527
   3 C :   -0.000631
   4 C :   -0.174991
   5 H :    0.045698
   6 C :    0.014777
   7 H :    0.018260
   8 H :    0.028034
   9 C :   -0.032063
  10 H :    0.031832
  11 H :    0.032814
  12 C :   -0.047708
  13 H :    0.018480
  14 H :    0.026572
  15 H :    0.038009
  16 S :    0.101297
  17 C :   -0.108778
  18 C :   -0.027882
  19 C :   -0.027790
  20 C :   -0.167772
  21 H :    0.014935
  22 C :    0.042693
  23 H :    0.032432
  24 H :    0.038206
  25 C :   -0.043265
  26 H :    0.013969
  27 H :    0.037822
  28 C :   -0.042121
  29 H :    0.036104
  30 H :    0.036554
  31 H :    0.026695
  32 H :    0.037298
  33 H :    0.068623
Sum of atomic charges:   -0.0000000

LOEWDIN ATOMIC CHARGES
----------------------
   0 S :    0.411480
   1 C :   -0.191317
   2 C :   -0.063705
   3 C :   -0.069401
   4 C :   -0.198950
   5 H :    0.046856
   6 C :   -0.039067
   7 H :    0.027708
   8 H :    0.028646
   9 C :   -0.029419
  10 H :    0.021404
  11 H :    0.028791
  12 C :   -0.068625
  13 H :    0.021255
  14 H :    0.022297
  15 H :    0.026304
  16 S :    0.390428
  17 C :   -0.176210
  18 C :   -0.070883
  19 C :   -0.057121
  20 C :   -0.209271
  21 H :    0.030309
  22 C :   -0.034820
  23 H :    0.027922
  24 H :    0.039314
  25 C :   -0.033578
  26 H :    0.015815
  27 H :    0.028067
  28 C :   -0.061042
  29 H :    0.025479
  30 H :    0.029364
  31 H :    0.023955
  32 H :    0.022260
  33 H :    0.035751

  Mayer bond orders larger than 0.100000
B(  0-S ,  1-C ) :   1.1258 B(  0-S ,  4-C ) :   1.1506 B(  1-C ,  2-C ) :   1.6161
B(  1-C , 32-H ) :   0.9790 B(  2-C ,  3-C ) :   1.2219 B(  2-C ,  6-C ) :   1.0236
B(  3-C ,  4-C ) :   1.5829 B(  3-C ,  5-H ) :   0.9859 B(  4-C , 20-C ) :   1.0283
B(  6-C ,  7-H ) :   0.9420 B(  6-C ,  8-H ) :   0.9452 B(  6-C ,  9-C ) :   1.0658
B(  9-C , 10-H ) :   0.9563 B(  9-C , 11-H ) :   0.9537 B(  9-C , 12-C ) :   1.0777
B( 12-C , 13-H ) :   0.9749 B( 12-C , 14-H ) :   0.9746 B( 12-C , 15-H ) :   0.9743
B( 16-S , 17-C ) :   1.1286 B( 16-S , 20-C ) :   1.1339 B( 17-C , 18-C ) :   1.6658
B( 17-C , 33-H ) :   0.9610 B( 18-C , 19-C ) :   1.1847 B( 18-C , 21-H ) :   0.9905
B( 19-C , 20-C ) :   1.6260 B( 19-C , 22-C ) :   1.0476 B( 22-C , 23-H ) :   0.9215
B( 22-C , 24-H ) :   0.9376 B( 22-C , 25-C ) :   1.0474 B( 25-C , 26-H ) :   0.9590
B( 25-C , 27-H ) :   0.9526 B( 25-C , 28-C ) :   1.0912 B( 28-C , 29-H ) :   0.9742
B( 28-C , 30-H ) :   0.9737 B( 28-C , 31-H ) :   0.9693

Dispersion correction           -0.014200271
FINAL SINGLE POINT ENERGY     -1339.890402190534

DIPOLE MOMENT
-------------
                                X             Y             Z
Electronic contribution:      1.23920      -3.73736     -22.72009
Nuclear contribution   :     -1.44106       3.83819      23.05289
                        -----------------------------------------
Total Dipole Moment    :     -0.20186       0.10083       0.33280
                        -----------------------------------------
Magnitude (a.u.)       :      0.40209
Magnitude (Debye)      :      1.02202

Rotational constants in cm-1:     0.018628     0.008310     0.006815
Rotational constants in MHz :   558.465028   249.138252   204.320311

                             ****ORCA TERMINATED NORMALLY****
TOTAL RUN TIME: 0 days 0 hours 0 minutes 20 seconds 125 msec
