                         Program Version 4.2.1 -  RELEASE  -
|  1> ! wB97X-D3 SP def2-SVP
|  2> %pal
|  3> nprocs 24
|  4> end
|  5>
|  6> * xyz 0 1
|  7> S 	 -44.6924 	 19.2506 	 31.0022
|  8> C 	 -44.4303 	 18.3885 	 29.5197
|  9> C 	 -45.1426 	 18.8977 	 28.4726
| 10> C 	 -45.9969 	 19.9225 	 28.9397
| 11> C 	 -45.8507 	 20.288 	 30.2588
| 12> H 	 -46.7256 	 20.4697 	 28.3902
| 13> C 	 -45.3917 	 18.2927 	 27.0723
| 14> H 	 -44.524 	 17.767 	 26.8049
| 15> H 	 -45.5156 	 19.0464 	 26.2986
| 16> C 	 -46.6073 	 17.3946 	 26.895
| 17> H 	 -46.549 	 16.6003 	 27.6272
| 18> H 	 -47.4179 	 17.9401 	 27.3854
| 19> C 	 -46.7206 	 16.8807 	 25.4909
| 20> H 	 -45.7417 	 16.4519 	 25.1258
| 21> H 	 -47.4315 	 16.0558 	 25.4428
| 22> H 	 -47.0734 	 17.6116 	 24.7501
| 23> S 	 -47.3047 	 21.0141 	 32.6095
| 24> C 	 -48.2573 	 22.4425 	 32.5705
| 25> C 	 -48.0415 	 23.1536 	 31.4182
| 26> C 	 -47.1381 	 22.5208 	 30.4608
| 27> C 	 -46.6921 	 21.2695 	 30.972
| 28> H 	 -48.4922 	 24.1342 	 31.2999
| 29> C 	 -46.797 	 23.1995 	 29.1159
| 30> H 	 -47.4066 	 24.1304 	 29.1046
| 31> H 	 -47.1799 	 22.5865 	 28.2996
| 32> C 	 -45.3659 	 23.6845 	 28.8583
| 33> H 	 -45.1353 	 23.7059 	 27.7685
| 34> H 	 -44.6729 	 22.9171 	 29.1462
| 35> C 	 -44.9908 	 24.9995 	 29.6281
| 36> H 	 -45.3176 	 25.0294 	 30.6516
| 37> H 	 -45.3746 	 25.8242 	 29.1547
| 38> H 	 -43.8812 	 25.1447 	 29.5616
| 39> H 	 -43.8429 	 17.4391 	 29.4379
| 40> H 	 -48.9182 	 22.7958 	 33.3358
| 41> *
| 42>
| 43>                          ****END OF INPUT****

CARTESIAN COORDINATES (ANGSTROEM)
---------------------------------
  S    -44.692400   19.250600   31.002200
  C    -44.430300   18.388500   29.519700
  C    -45.142600   18.897700   28.472600
  C    -45.996900   19.922500   28.939700
  C    -45.850700   20.288000   30.258800
  H    -46.725600   20.469700   28.390200
  C    -45.391700   18.292700   27.072300
  H    -44.524000   17.767000   26.804900
  H    -45.515600   19.046400   26.298600
  C    -46.607300   17.394600   26.895000
  H    -46.549000   16.600300   27.627200
  H    -47.417900   17.940100   27.385400
  C    -46.720600   16.880700   25.490900
  H    -45.741700   16.451900   25.125800
  H    -47.431500   16.055800   25.442800
  H    -47.073400   17.611600   24.750100
  S    -47.304700   21.014100   32.609500
  C    -48.257300   22.442500   32.570500
  C    -48.041500   23.153600   31.418200
  C    -47.138100   22.520800   30.460800
  C    -46.692100   21.269500   30.972000
  H    -48.492200   24.134200   31.299900
  C    -46.797000   23.199500   29.115900
  H    -47.406600   24.130400   29.104600
  H    -47.179900   22.586500   28.299600
  C    -45.365900   23.684500   28.858300
  H    -45.135300   23.705900   27.768500
  H    -44.672900   22.917100   29.146200
  C    -44.990800   24.999500   29.628100
  H    -45.317600   25.029400   30.651600
  H    -45.374600   25.824200   29.154700
  H    -43.881200   25.144700   29.561600
  H    -43.842900   17.439100   29.437900
  H    -48.918200   22.795800   33.335800

 Total Charge           Charge          ....    0
 Multiplicity           Mult            ....    1
 Number of Electrons    NEL             ....  134
 Basis Dimension        Dim             ....  322

ORBITAL ENERGIES
----------------

  NO   OCC          E(Eh)            E(eV)
   0   2.0000     -88.969234     -2420.9759
   1   2.0000     -88.967521     -2420.9293
   2   2.0000     -10.334479      -281.2155
   3   2.0000     -10.327217      -281.0179
   4   2.0000     -10.316276      -280.7201
   5   2.0000     -10.314777      -280.6794
   6   2.0000     -10.311345      -280.5860
   7   2.0000     -10.300019      -280.2778
   8   2.0000     -10.297291      -280.2035
   9   2.0000     -10.294918      -280.1390
  10   2.0000     -10.287475      -279.9364
  11   2.0000     -10.286662      -279.9143
  12   2.0000     -10.286045      -279.8975
  13   2.0000     -10.285786      -279.8905
  14   2.0000     -10.282789      -279.8089
  15   2.0000     -10.272132      -279.5189
  16   2.0000      -8.084022      -219.9774
  17   2.0000      -8.082913      -219.9473
  18   2.0000      -6.042565      -164.4265
  19   2.0000      -6.041408      -164.3951
  20   2.0000      -6.038455      -164.3147
  21   2.0000      -6.037271      -164.2825
  22   2.0000      -6.034818      -164.2157
  23   2.0000      -6.033723      -164.1859
  24   2.0000      -1.009460       -27.4688
  25   2.0000      -0.986738       -26.8505
  26   2.0000      -0.916306       -24.9339
  27   2.0000      -0.903084       -24.5742
  28   2.0000      -0.870134       -23.6776
  29   2.0000      -0.852074       -23.1861
  30   2.0000      -0.842801       -22.9338
  31   2.0000      -0.812496       -22.1091
  32   2.0000      -0.785527       -21.3753
  33   2.0000      -0.776188       -21.1211
  34   2.0000      -0.711538       -19.3619
  35   2.0000      -0.704428       -19.1684
  36   2.0000      -0.689206       -18.7542
  37   2.0000      -0.661035       -17.9877
  38   2.0000      -0.640173       -17.4200
  39   2.0000      -0.622920       -16.9505
  40   2.0000      -0.591385       -16.0924
  41   2.0000      -0.574592       -15.6355
  42   2.0000      -0.559056       -15.2127
  43   2.0000      -0.550510       -14.9801
  44   2.0000      -0.538696       -14.6587
  45   2.0000      -0.521325       -14.1860
  46   2.0000      -0.516824       -14.0635
  47   2.0000      -0.507841       -13.8190
  48   2.0000      -0.502765       -13.6809
  49   2.0000      -0.500366       -13.6157
  50   2.0000      -0.487170       -13.2566
  51   2.0000      -0.482647       -13.1335
  52   2.0000      -0.473812       -12.8931
  53   2.0000      -0.469740       -12.7823
  54   2.0000      -0.465636       -12.6706
  55   2.0000      -0.448279       -12.1983
  56   2.0000      -0.441639       -12.0176
  57   2.0000      -0.436796       -11.8858
  58   2.0000      -0.433319       -11.7912
  59   2.0000      -0.430556       -11.7160
  60   2.0000      -0.423099       -11.5131
  61   2.0000      -0.411188       -11.1890
  62   2.0000      -0.409147       -11.1335
  63   2.0000      -0.353835        -9.6284
  64   2.0000      -0.334763        -9.1094
  65   2.0000      -0.331003        -9.0070
  66   2.0000      -0.288796        -7.8585
  67   0.0000       0.025828         0.7028
  68   0.0000       0.080363         2.1868
  69   0.0000       0.112690         3.0665
  70   0.0000       0.123608         3.3635
  71   0.0000       0.136431         3.7125

MULLIKEN ATOMIC CHARGES
-----------------------
   0 S :    0.115151
   1 C :   -0.149127
   2 C :   -0.044522
   3 C :    0.001765
   4 C :   -0.140925
   5 H :   -0.011803
   6 C :    0.067045
   7 H :    0.000100
   8 H :    0.016626
   9 C :   -0.042062
  10 H :    0.009479
  11 H :    0.018201
  12 C :   -0.043392
  13 H :    0.037896
  14 H :    0.034239
  15 H :    0.040447
  16 S :    0.119770
  17 C :   -0.085850
  18 C :   -0.036914
  19 C :   -0.059002
  20 C :   -0.143132
  21 H :    0.019564
  22 C :    0.055587
  23 H :    0.015610
  24 H :    0.038542
  25 C :   -0.060450
  26 H :    0.027481
  27 H :    0.029134
  28 C :   -0.032953
  29 H :    0.039888
  30 H :    0.010471
  31 H :    0.035962
  32 H :    0.063821
  33 H :    0.053354
Sum of atomic charges:    0.0000000

LOEWDIN ATOMIC CHARGES
----------------------
   0 S :    0.419978
   1 C :   -0.203707
   2 C :   -0.066464
   3 C :   -0.061657
   4 C :   -0.202103
   5 H :    0.022682
   6 C :   -0.024645
   7 H :    0.016970
   8 H :    0.028308
   9 C :   -0.047835
  10 H :    0.021947
  11 H :    0.026762
  12 C :   -0.066591
  13 H :    0.034280
  14 H :    0.029066
  15 H :    0.028448
  16 S :    0.414525
  17 C :   -0.197005
  18 C :   -0.075051
  19 C :   -0.052709
  20 C :   -0.195896
  21 H :    0.030339
  22 C :   -0.035329
  23 H :    0.032600
  24 H :    0.029881
  25 C :   -0.043027
  26 H :    0.030604
  27 H :    0.022338
  28 C :   -0.058249
  29 H :    0.026513
  30 H :    0.010371
  31 H :    0.034626
  32 H :    0.038892
  33 H :    0.031140

  Mayer bond orders larger than 0.100000
B(  0-S ,  1-C ) :   1.1516 B(  0-S ,  4-C ) :   1.1441 B(  1-C ,  2-C ) :   1.6059
B(  1-C , 32-H ) :   0.9589 B(  2-C ,  3-C ) :   1.2409 B(  2-C ,  6-C ) :   1.0349
B(  3-C ,  4-C ) :   1.5735 B(  3-C ,  5-H ) :   0.9978 B(  4-C , 20-C ) :   1.0598
B(  6-C ,  7-H ) :   0.9361 B(  6-C ,  8-H ) :   0.9408 B(  6-C ,  9-C ) :   1.0626
B(  9-C , 10-H ) :   0.9476 B(  9-C , 11-H ) :   0.9512 B(  9-C , 12-C ) :   1.0729
B( 12-C , 13-H ) :   0.9713 B( 12-C , 14-H ) :   0.9722 B( 12-C , 15-H ) :   0.9740
B( 16-S , 17-C ) :   1.1550 B( 16-S , 20-C ) :   1.1433 B( 17-C , 18-C ) :   1.6123
B( 17-C , 33-H ) :   0.9678 B( 18-C , 19-C ) :   1.2565 B( 18-C , 21-H ) :   0.9843
B( 19-C , 20-C ) :   1.5651 B( 19-C , 22-C ) :   1.0298 B( 22-C , 23-H ) :   0.9372
B( 22-C , 24-H ) :   0.9344 B( 22-C , 25-C ) :   1.0630 B( 25-C , 26-H ) :   0.9534
B( 25-C , 27-H ) :   0.9605 B( 25-C , 28-C ) :   1.0663 B( 28-C , 29-H ) :   0.9798
B( 28-C , 30-H ) :   0.9754 B( 28-C , 31-H ) :   0.9749

Dispersion correction           -0.014277962
FINAL SINGLE POINT ENERGY     -1339.881650413154

DIPOLE MOMENT
-------------
                                X             Y             Z
Electronic contribution:     -0.20177      -3.77445      25.45935
Nuclear contribution   :     -0.02894       3.89515     -26.02409
                        -----------------------------------------
Total Dipole Moment    :     -0.23070       0.12071      -0.56475
                        -----------------------------------------
Magnitude (a.u.)       :      0.62188
Magnitude (Debye)      :      1.58069

Rotational constants in cm-1:     0.018620     0.008015     0.007009
Rotational constants in MHz :   558.205857   240.272862   210.130395

                             ****ORCA TERMINATED NORMALLY****
TOTAL RUN TIME: 0 days 0 hours 0 minutes 21 seconds 471 msec
