                         Program Version 4.2.1 -  RELEASE  -
|  1> ! wB97X-D3 SP def2-SVP
|  2> %pal
|  3> nprocs 24
|  4> end
|  5>
|  6> * xyz 0 1
|  7> S 	 -66.1293 	 20.1971 	 -118.773
|  8> C 	 -64.4262 	 20.1409 	 -119.232
|  9> C 	 -63.6276 	 19.9149 	 -118.09
| 10> C 	 -64.431 	 19.7348 	 -116.919
| 11> C 	 -65.8248 	 19.8164 	 -117.103
| 12> H 	 -64.0838 	 19.5392 	 -115.872
| 13> C 	 -62.1098 	 19.9368 	 -118.136
| 14> H 	 -61.8077 	 20.7753 	 -117.425
| 15> H 	 -61.8857 	 20.2545 	 -119.141
| 16> C 	 -61.2547 	 18.6361 	 -117.852
| 17> H 	 -61.3975 	 18.3118 	 -116.79
| 18> H 	 -61.5123 	 17.7348 	 -118.465
| 19> C 	 -59.7321 	 18.9445 	 -118.077
| 20> H 	 -59.2335 	 19.4813 	 -117.27
| 21> H 	 -59.1926 	 17.9991 	 -117.922
| 22> H 	 -59.4293 	 19.3331 	 -119.086
| 23> S 	 -67.4342 	 17.9511 	 -115.69
| 24> C 	 -68.6232 	 18.5003 	 -114.52
| 25> C 	 -68.5281 	 19.899 	 -114.438
| 26> C 	 -67.6096 	 20.5354 	 -115.366
| 27> C 	 -66.9304 	 19.5938 	 -116.08
| 28> H 	 -69.2267 	 20.4845 	 -113.798
| 29> C 	 -67.4816 	 22.0859 	 -115.536
| 30> H 	 -66.4617 	 22.2213 	 -115.595
| 31> H 	 -67.6965 	 22.6326 	 -114.709
| 32> C 	 -68.2611 	 22.6586 	 -116.745
| 33> H 	 -69.2575 	 22.9116 	 -116.317
| 34> H 	 -68.3823 	 21.894 	 -117.507
| 35> C 	 -67.5635 	 23.8217 	 -117.443
| 36> H 	 -67.6277 	 24.7816 	 -116.988
| 37> H 	 -67.9433 	 23.7814 	 -118.443
| 38> H 	 -66.5497 	 23.6325 	 -117.551
| 39> H 	 -64.0679 	 20.4446 	 -120.233
| 40> H 	 -69.3213 	 17.844 	 -114.113
| 41> *
| 42>
| 43>                          ****END OF INPUT****

CARTESIAN COORDINATES (ANGSTROEM)
---------------------------------
  S    -66.129300   20.197100  -118.773000
  C    -64.426200   20.140900  -119.232000
  C    -63.627600   19.914900  -118.090000
  C    -64.431000   19.734800  -116.919000
  C    -65.824800   19.816400  -117.103000
  H    -64.083800   19.539200  -115.872000
  C    -62.109800   19.936800  -118.136000
  H    -61.807700   20.775300  -117.425000
  H    -61.885700   20.254500  -119.141000
  C    -61.254700   18.636100  -117.852000
  H    -61.397500   18.311800  -116.790000
  H    -61.512300   17.734800  -118.465000
  C    -59.732100   18.944500  -118.077000
  H    -59.233500   19.481300  -117.270000
  H    -59.192600   17.999100  -117.922000
  H    -59.429300   19.333100  -119.086000
  S    -67.434200   17.951100  -115.690000
  C    -68.623200   18.500300  -114.520000
  C    -68.528100   19.899000  -114.438000
  C    -67.609600   20.535400  -115.366000
  C    -66.930400   19.593800  -116.080000
  H    -69.226700   20.484500  -113.798000
  C    -67.481600   22.085900  -115.536000
  H    -66.461700   22.221300  -115.595000
  H    -67.696500   22.632600  -114.709000
  C    -68.261100   22.658600  -116.745000
  H    -69.257500   22.911600  -116.317000
  H    -68.382300   21.894000  -117.507000
  C    -67.563500   23.821700  -117.443000
  H    -67.627700   24.781600  -116.988000
  H    -67.943300   23.781400  -118.443000
  H    -66.549700   23.632500  -117.551000
  H    -64.067900   20.444600  -120.233000
  H    -69.321300   17.844000  -114.113000

 Total Charge           Charge          ....    0
 Multiplicity           Mult            ....    1
 Number of Electrons    NEL             ....  134
 Basis Dimension        Dim             ....  322

ORBITAL ENERGIES
----------------

  NO   OCC          E(Eh)            E(eV)
   0   2.0000     -88.967612     -2420.9318
   1   2.0000     -88.964146     -2420.8375
   2   2.0000     -10.335239      -281.2361
   3   2.0000     -10.330153      -281.0978
   4   2.0000     -10.322157      -280.8802
   5   2.0000     -10.319722      -280.8139
   6   2.0000     -10.307873      -280.4915
   7   2.0000     -10.306690      -280.4593
   8   2.0000     -10.302373      -280.3418
   9   2.0000     -10.301467      -280.3172
  10   2.0000     -10.301040      -280.3055
  11   2.0000     -10.300861      -280.3007
  12   2.0000     -10.285476      -279.8820
  13   2.0000     -10.283961      -279.8408
  14   2.0000     -10.278580      -279.6944
  15   2.0000     -10.262461      -279.2558
  16   2.0000      -8.081671      -219.9134
  17   2.0000      -8.078698      -219.8325
  18   2.0000      -6.040153      -164.3609
  19   2.0000      -6.037203      -164.2806
  20   2.0000      -6.036045      -164.2491
  21   2.0000      -6.033170      -164.1709
  22   2.0000      -6.032735      -164.1591
  23   2.0000      -6.029523      -164.0717
  24   2.0000      -0.999324       -27.1930
  25   2.0000      -0.980003       -26.6672
  26   2.0000      -0.906438       -24.6654
  27   2.0000      -0.900050       -24.4916
  28   2.0000      -0.860541       -23.4165
  29   2.0000      -0.847858       -23.0714
  30   2.0000      -0.842055       -22.9135
  31   2.0000      -0.810241       -22.0478
  32   2.0000      -0.787446       -21.4275
  33   2.0000      -0.770783       -20.9741
  34   2.0000      -0.704277       -19.1644
  35   2.0000      -0.700031       -19.0488
  36   2.0000      -0.689682       -18.7672
  37   2.0000      -0.663615       -18.0579
  38   2.0000      -0.637514       -17.3476
  39   2.0000      -0.611759       -16.6468
  40   2.0000      -0.595993       -16.2178
  41   2.0000      -0.566688       -15.4204
  42   2.0000      -0.562336       -15.3020
  43   2.0000      -0.555473       -15.1152
  44   2.0000      -0.528174       -14.3724
  45   2.0000      -0.518741       -14.1157
  46   2.0000      -0.515280       -14.0215
  47   2.0000      -0.507102       -13.7990
  48   2.0000      -0.503650       -13.7050
  49   2.0000      -0.496037       -13.4978
  50   2.0000      -0.493352       -13.4248
  51   2.0000      -0.479639       -13.0516
  52   2.0000      -0.469765       -12.7829
  53   2.0000      -0.468810       -12.7570
  54   2.0000      -0.456446       -12.4205
  55   2.0000      -0.441986       -12.0271
  56   2.0000      -0.438279       -11.9262
  57   2.0000      -0.433097       -11.7852
  58   2.0000      -0.429406       -11.6847
  59   2.0000      -0.425469       -11.5776
  60   2.0000      -0.422468       -11.4959
  61   2.0000      -0.414996       -11.2926
  62   2.0000      -0.413814       -11.2604
  63   2.0000      -0.332864        -9.0577
  64   2.0000      -0.327347        -8.9076
  65   2.0000      -0.324441        -8.8285
  66   2.0000      -0.312884        -8.5140
  67   0.0000       0.045056         1.2260
  68   0.0000       0.051113         1.3908
  69   0.0000       0.111487         3.0337
  70   0.0000       0.125611         3.4180
  71   0.0000       0.131049         3.5660

MULLIKEN ATOMIC CHARGES
-----------------------
   0 S :    0.104093
   1 C :   -0.138376
   2 C :   -0.086819
   3 C :    0.034087
   4 C :   -0.184400
   5 H :    0.028984
   6 C :    0.059067
   7 H :    0.050697
   8 H :    0.006437
   9 C :   -0.079608
  10 H :    0.037295
  11 H :    0.048302
  12 C :   -0.081457
  13 H :    0.032608
  14 H :    0.025990
  15 H :    0.049011
  16 S :    0.108298
  17 C :   -0.085133
  18 C :   -0.035580
  19 C :   -0.047585
  20 C :   -0.186539
  21 H :    0.029609
  22 C :    0.169115
  23 H :   -0.000453
  24 H :   -0.012017
  25 C :   -0.087674
  26 H :    0.034376
  27 H :    0.027684
  28 C :    0.001151
  29 H :    0.029780
  30 H :    0.025263
  31 H :    0.009802
  32 H :    0.066302
  33 H :    0.047690
Sum of atomic charges:   -0.0000000

LOEWDIN ATOMIC CHARGES
----------------------
   0 S :    0.413041
   1 C :   -0.202549
   2 C :   -0.068351
   3 C :   -0.069935
   4 C :   -0.203224
   5 H :    0.039124
   6 C :   -0.036494
   7 H :    0.044072
   8 H :    0.024649
   9 C :   -0.040925
  10 H :    0.028561
  11 H :    0.031896
  12 C :   -0.080677
  13 H :    0.025714
  14 H :    0.029377
  15 H :    0.030357
  16 S :    0.401048
  17 C :   -0.174235
  18 C :   -0.073297
  19 C :   -0.047466
  20 C :   -0.203579
  21 H :    0.033197
  22 C :   -0.016893
  23 H :    0.021493
  24 H :    0.016276
  25 C :   -0.033028
  26 H :    0.028043
  27 H :    0.018767
  28 C :   -0.056779
  29 H :    0.020955
  30 H :    0.029749
  31 H :    0.017494
  32 H :    0.034674
  33 H :    0.018945

  Mayer bond orders larger than 0.100000
B(  0-S ,  1-C ) :   1.1546 B(  0-S ,  4-C ) :   1.1712 B(  1-C ,  2-C ) :   1.5742
B(  1-C ,  4-C ) :   0.1050 B(  1-C , 32-H ) :   0.9628 B(  2-C ,  3-C ) :   1.2558
B(  2-C ,  6-C ) :   1.0281 B(  3-C ,  4-C ) :   1.5749 B(  3-C ,  5-H ) :   0.9879
B(  4-C , 20-C ) :   0.9786 B(  6-C ,  7-H ) :   0.9408 B(  6-C ,  8-H ) :   0.9407
B(  6-C ,  9-C ) :   1.0499 B(  9-C , 10-H ) :   0.9546 B(  9-C , 11-H ) :   0.9610
B(  9-C , 12-C ) :   1.0759 B( 12-C , 13-H ) :   0.9750 B( 12-C , 14-H ) :   0.9717
B( 12-C , 15-H ) :   0.9766 B( 16-S , 17-C ) :   1.1559 B( 16-S , 20-C ) :   1.1506
B( 17-C , 18-C ) :   1.5884 B( 17-C , 33-H ) :   0.9825 B( 18-C , 19-C ) :   1.2483
B( 18-C , 21-H ) :   0.9805 B( 19-C , 20-C ) :   1.6242 B( 19-C , 22-C ) :   1.0294
B( 22-C , 23-H ) :   0.9250 B( 22-C , 24-H ) :   0.9303 B( 22-C , 25-C ) :   1.0494
B( 25-C , 26-H ) :   0.9565 B( 25-C , 27-H ) :   0.9661 B( 25-C , 28-C ) :   1.0765
B( 28-C , 29-H ) :   0.9769 B( 28-C , 30-H ) :   0.9746 B( 28-C , 31-H ) :   0.9714

Dispersion correction           -0.014466227
FINAL SINGLE POINT ENERGY     -1339.865996597652

DIPOLE MOMENT
-------------
                                X             Y             Z
Electronic contribution:    -16.89380     -12.54733       2.19991
Nuclear contribution   :     17.23521      12.87369      -2.04343
                        -----------------------------------------
Total Dipole Moment    :      0.34141       0.32636       0.15648
                        -----------------------------------------
Magnitude (a.u.)       :      0.49755
Magnitude (Debye)      :      1.26468

Rotational constants in cm-1:     0.019497     0.007747     0.006367
Rotational constants in MHz :   584.513122   232.252364   190.864597

                             ****ORCA TERMINATED NORMALLY****
TOTAL RUN TIME: 0 days 0 hours 0 minutes 21 seconds 51 msec
