                         Program Version 4.2.1 -  RELEASE  -
|  1> ! wB97X-D3 SP def2-SVP
|  2> %pal
|  3> nprocs 24
|  4> end
|  5>
|  6> * xyz 0 1
|  7> S 	 -47.6089 	 11.7672 	 25.8984
|  8> C 	 -47.6687 	 11.8531 	 24.1439
|  9> C 	 -48.8316 	 11.2849 	 23.6422
| 10> C 	 -49.6476 	 10.7524 	 24.676
| 11> C 	 -49.1892 	 10.977 	 25.9397
| 12> H 	 -50.6929 	 10.3842 	 24.4337
| 13> C 	 -49.1944 	 11.1193 	 22.1595
| 14> H 	 -48.5988 	 11.9348 	 21.6957
| 15> H 	 -50.2305 	 11.168 	 21.8612
| 16> C 	 -48.5325 	 9.85253 	 21.5777
| 17> H 	 -47.6434 	 9.6305 	 22.1832
| 18> H 	 -49.1035 	 8.97231 	 21.7861
| 19> C 	 -48.2669 	 10.0182 	 20.0865
| 20> H 	 -47.6279 	 10.8185 	 19.7065
| 21> H 	 -47.9169 	 9.00714 	 19.6587
| 22> H 	 -49.2264 	 10.1538 	 19.5913
| 23> S 	 -50.4575 	 12.322 	 28.1169
| 24> C 	 -51.8273 	 11.4772 	 28.8021
| 25> C 	 -51.7686 	 10.0962 	 28.6138
| 26> C 	 -50.8255 	 9.75352 	 27.6085
| 27> C 	 -50.0082 	 10.8807 	 27.175
| 28> H 	 -52.4354 	 9.40954 	 29.1676
| 29> C 	 -50.7337 	 8.303 	 27.081
| 30> H 	 -51.4485 	 8.2885 	 26.2606
| 31> H 	 -51.1741 	 7.66306 	 27.8795
| 32> C 	 -49.3467 	 7.81639 	 26.6837
| 33> H 	 -48.7079 	 8.04227 	 27.5114
| 34> H 	 -48.9598 	 8.3592 	 25.8356
| 35> C 	 -49.2424 	 6.33199 	 26.542
| 36> H 	 -48.2476 	 6.05091 	 26.2558
| 37> H 	 -49.8789 	 5.89913 	 25.7508
| 38> H 	 -49.4169 	 5.92652 	 27.5147
| 39> H 	 -46.867 	 12.0992 	 23.4323
| 40> H 	 -52.3073 	 11.8978 	 29.6725
| 41> *
| 42>
| 43>                          ****END OF INPUT****

CARTESIAN COORDINATES (ANGSTROEM)
---------------------------------
  S    -47.608900   11.767200   25.898400
  C    -47.668700   11.853100   24.143900
  C    -48.831600   11.284900   23.642200
  C    -49.647600   10.752400   24.676000
  C    -49.189200   10.977000   25.939700
  H    -50.692900   10.384200   24.433700
  C    -49.194400   11.119300   22.159500
  H    -48.598800   11.934800   21.695700
  H    -50.230500   11.168000   21.861200
  C    -48.532500    9.852530   21.577700
  H    -47.643400    9.630500   22.183200
  H    -49.103500    8.972310   21.786100
  C    -48.266900   10.018200   20.086500
  H    -47.627900   10.818500   19.706500
  H    -47.916900    9.007140   19.658700
  H    -49.226400   10.153800   19.591300
  S    -50.457500   12.322000   28.116900
  C    -51.827300   11.477200   28.802100
  C    -51.768600   10.096200   28.613800
  C    -50.825500    9.753520   27.608500
  C    -50.008200   10.880700   27.175000
  H    -52.435400    9.409540   29.167600
  C    -50.733700    8.303000   27.081000
  H    -51.448500    8.288500   26.260600
  H    -51.174100    7.663060   27.879500
  C    -49.346700    7.816390   26.683700
  H    -48.707900    8.042270   27.511400
  H    -48.959800    8.359200   25.835600
  C    -49.242400    6.331990   26.542000
  H    -48.247600    6.050910   26.255800
  H    -49.878900    5.899130   25.750800
  H    -49.416900    5.926520   27.514700
  H    -46.867000   12.099200   23.432300
  H    -52.307300   11.897800   29.672500

 Total Charge           Charge          ....    0
 Multiplicity           Mult            ....    1
 Number of Electrons    NEL             ....  134
 Basis Dimension        Dim             ....  322

ORBITAL ENERGIES
----------------

  NO   OCC          E(Eh)            E(eV)
   0   2.0000     -88.970067     -2420.9986
   1   2.0000     -88.968426     -2420.9540
   2   2.0000     -10.334883      -281.2265
   3   2.0000     -10.332801      -281.1698
   4   2.0000     -10.317093      -280.7424
   5   2.0000     -10.316922      -280.7377
   6   2.0000     -10.310958      -280.5754
   7   2.0000     -10.301740      -280.3246
   8   2.0000     -10.299655      -280.2679
   9   2.0000     -10.295689      -280.1599
  10   2.0000     -10.295414      -280.1525
  11   2.0000     -10.293803      -280.1086
  12   2.0000     -10.286129      -279.8998
  13   2.0000     -10.285664      -279.8871
  14   2.0000     -10.272100      -279.5180
  15   2.0000     -10.269572      -279.4493
  16   2.0000      -8.084104      -219.9796
  17   2.0000      -8.082421      -219.9338
  18   2.0000      -6.042729      -164.4310
  19   2.0000      -6.040908      -164.3815
  20   2.0000      -6.038729      -164.3222
  21   2.0000      -6.037068      -164.2770
  22   2.0000      -6.034762      -164.2142
  23   2.0000      -6.033212      -164.1720
  24   2.0000      -1.001300       -27.2468
  25   2.0000      -0.979384       -26.6504
  26   2.0000      -0.912993       -24.8438
  27   2.0000      -0.909644       -24.7527
  28   2.0000      -0.864068       -23.5125
  29   2.0000      -0.852462       -23.1967
  30   2.0000      -0.846909       -23.0456
  31   2.0000      -0.811177       -22.0733
  32   2.0000      -0.780487       -21.2381
  33   2.0000      -0.766741       -20.8641
  34   2.0000      -0.708070       -19.2676
  35   2.0000      -0.703314       -19.1382
  36   2.0000      -0.685581       -18.6556
  37   2.0000      -0.653114       -17.7721
  38   2.0000      -0.635219       -17.2852
  39   2.0000      -0.617921       -16.8145
  40   2.0000      -0.590153       -16.0589
  41   2.0000      -0.577383       -15.7114
  42   2.0000      -0.572776       -15.5860
  43   2.0000      -0.554353       -15.0847
  44   2.0000      -0.522860       -14.2277
  45   2.0000      -0.516690       -14.0599
  46   2.0000      -0.513991       -13.9864
  47   2.0000      -0.509425       -13.8621
  48   2.0000      -0.504175       -13.7193
  49   2.0000      -0.496350       -13.5064
  50   2.0000      -0.491870       -13.3845
  51   2.0000      -0.482950       -13.1417
  52   2.0000      -0.473063       -12.8727
  53   2.0000      -0.464814       -12.6482
  54   2.0000      -0.455883       -12.4052
  55   2.0000      -0.448562       -12.2060
  56   2.0000      -0.442639       -12.0448
  57   2.0000      -0.436602       -11.8805
  58   2.0000      -0.425114       -11.5680
  59   2.0000      -0.422979       -11.5098
  60   2.0000      -0.420828       -11.4513
  61   2.0000      -0.418652       -11.3921
  62   2.0000      -0.416313       -11.3285
  63   2.0000      -0.347053        -9.4438
  64   2.0000      -0.332201        -9.0397
  65   2.0000      -0.326697        -8.8899
  66   2.0000      -0.289288        -7.8719
  67   0.0000       0.025187         0.6854
  68   0.0000       0.058709         1.5975
  69   0.0000       0.111063         3.0222
  70   0.0000       0.121696         3.3115
  71   0.0000       0.129409         3.5214

MULLIKEN ATOMIC CHARGES
-----------------------
   0 S :    0.110080
   1 C :   -0.112092
   2 C :   -0.136109
   3 C :    0.028800
   4 C :   -0.161058
   5 H :    0.037387
   6 C :    0.059493
   7 H :    0.022796
   8 H :    0.037012
   9 C :   -0.052182
  10 H :    0.027892
  11 H :    0.018233
  12 C :   -0.072346
  13 H :    0.045348
  14 H :    0.039645
  15 H :    0.024593
  16 S :    0.110483
  17 C :   -0.094303
  18 C :   -0.052479
  19 C :   -0.066172
  20 C :   -0.133239
  21 H :    0.038468
  22 C :    0.054075
  23 H :    0.033962
  24 H :    0.019543
  25 C :   -0.063179
  26 H :    0.019414
  27 H :    0.043036
  28 C :   -0.010635
  29 H :    0.019695
  30 H :    0.027612
  31 H :    0.021578
  32 H :    0.053370
  33 H :    0.061279
Sum of atomic charges:    0.0000000

LOEWDIN ATOMIC CHARGES
----------------------
   0 S :    0.397740
   1 C :   -0.204136
   2 C :   -0.063171
   3 C :   -0.069776
   4 C :   -0.189200
   5 H :    0.042881
   6 C :   -0.028453
   7 H :    0.034682
   8 H :    0.029080
   9 C :   -0.043675
  10 H :    0.024661
  11 H :    0.020884
  12 C :   -0.073907
  13 H :    0.025667
  14 H :    0.035312
  15 H :    0.024496
  16 S :    0.405224
  17 C :   -0.189914
  18 C :   -0.074075
  19 C :   -0.046943
  20 C :   -0.204370
  21 H :    0.039319
  22 C :   -0.031676
  23 H :    0.031090
  24 H :    0.032560
  25 C :   -0.045022
  26 H :    0.025748
  27 H :    0.023551
  28 C :   -0.057848
  29 H :    0.024083
  30 H :    0.024245
  31 H :    0.021630
  32 H :    0.034813
  33 H :    0.024501

  Mayer bond orders larger than 0.100000
B(  0-S ,  1-C ) :   1.1285 B(  0-S ,  4-C ) :   1.1419 B(  1-C ,  2-C ) :   1.6267
B(  1-C , 32-H ) :   0.9561 B(  2-C ,  3-C ) :   1.2666 B(  2-C ,  6-C ) :   1.0249
B(  3-C ,  4-C ) :   1.5722 B(  3-C ,  5-H ) :   0.9772 B(  4-C , 20-C ) :   1.0292
B(  6-C ,  7-H ) :   0.9432 B(  6-C ,  8-H ) :   0.9476 B(  6-C ,  9-C ) :   1.0454
B(  9-C , 10-H ) :   0.9582 B(  9-C , 11-H ) :   0.9500 B(  9-C , 12-C ) :   1.0768
B( 12-C , 13-H ) :   0.9779 B( 12-C , 14-H ) :   0.9722 B( 12-C , 15-H ) :   0.9712
B( 16-S , 17-C ) :   1.1771 B( 16-S , 20-C ) :   1.1425 B( 17-C , 18-C ) :   1.5787
B( 17-C , 20-C ) :   0.1097 B( 17-C , 33-H ) :   0.9571 B( 18-C , 19-C ) :   1.2899
B( 18-C , 21-H ) :   0.9816 B( 19-C , 20-C ) :   1.5371 B( 19-C , 22-C ) :   1.0242
B( 22-C , 23-H ) :   0.9222 B( 22-C , 24-H ) :   0.9423 B( 22-C , 25-C ) :   1.0684
B( 25-C , 26-H ) :   0.9548 B( 25-C , 27-H ) :   0.9431 B( 25-C , 28-C ) :   1.1016
B( 28-C , 29-H ) :   0.9698 B( 28-C , 30-H ) :   0.9731 B( 28-C , 31-H ) :   0.9731

Dispersion correction           -0.014452545
FINAL SINGLE POINT ENERGY     -1339.868187582099

DIPOLE MOMENT
-------------
                                X             Y             Z
Electronic contribution:     -0.33696      21.28076      20.72310
Nuclear contribution   :      0.09249     -21.78829     -21.11956
                        -----------------------------------------
Total Dipole Moment    :     -0.24447      -0.50752      -0.39647
                        -----------------------------------------
Magnitude (a.u.)       :      0.68886
Magnitude (Debye)      :      1.75095

Rotational constants in cm-1:     0.018704     0.008467     0.006845
Rotational constants in MHz :   560.737768   253.827889   205.201500

                             ****ORCA TERMINATED NORMALLY****
TOTAL RUN TIME: 0 days 0 hours 0 minutes 21 seconds 690 msec
