                         Program Version 4.2.1 -  RELEASE  -
|  1> ! wB97X-D3 SP def2-SVP
|  2> %pal
|  3> nprocs 24
|  4> end
|  5>
|  6> * xyz 0 1
|  7> S 	 -98.3976 	 1.17994 	 -105.107
|  8> C 	 -98.1285 	 2.41838 	 -106.314
|  9> C 	 -99.1737 	 3.35803 	 -106.283
| 10> C 	 -100.015 	 3.14379 	 -105.135
| 11> C 	 -99.5331 	 2.08457 	 -104.285
| 12> H 	 -100.837 	 3.80311 	 -104.822
| 13> C 	 -99.4336 	 4.45598 	 -107.394
| 14> H 	 -100.312 	 4.17888 	 -107.973
| 15> H 	 -98.5731 	 4.25031 	 -108.032
| 16> C 	 -99.5832 	 5.88544 	 -106.809
| 17> H 	 -100.316 	 5.84758 	 -105.957
| 18> H 	 -98.6189 	 6.2086 	 -106.516
| 19> C 	 -100.271 	 6.91771 	 -107.744
| 20> H 	 -99.9323 	 6.89632 	 -108.749
| 21> H 	 -101.275 	 6.69484 	 -107.595
| 22> H 	 -100.105 	 7.82483 	 -107.149
| 23> S 	 -98.9453 	 1.26292 	 -101.733
| 24> C 	 -100.238 	 0.914822 	 -100.614
| 25> C 	 -101.516 	 1.04645 	 -101.229
| 26> C 	 -101.368 	 1.35105 	 -102.632
| 27> C 	 -100.058 	 1.68545 	 -102.994
| 28> H 	 -102.457 	 0.922862 	 -100.675
| 29> C 	 -102.639 	 1.36753 	 -103.477
| 30> H 	 -102.602 	 2.33622 	 -103.986
| 31> H 	 -103.4 	 1.3728 	 -102.749
| 32> C 	 -102.831 	 0.286638 	 -104.56
| 33> H 	 -103.336 	 -0.573592 	 -104.045
| 34> H 	 -101.911 	 -0.181465 	 -104.877
| 35> C 	 -103.534 	 0.669411 	 -105.92
| 36> H 	 -104.414 	 1.34953 	 -105.876
| 37> H 	 -103.98 	 -0.216789 	 -106.374
| 38> H 	 -102.68 	 1.03333 	 -106.571
| 39> H 	 -97.3758 	 2.47175 	 -107.088
| 40> H 	 -100.131 	 0.560817 	 -99.5961
| 41> *
| 42>
| 43>                          ****END OF INPUT****

CARTESIAN COORDINATES (ANGSTROEM)
---------------------------------
  S    -98.397600    1.179940  -105.107000
  C    -98.128500    2.418380  -106.314000
  C    -99.173700    3.358030  -106.283000
  C    -100.015000    3.143790  -105.135000
  C    -99.533100    2.084570  -104.285000
  H    -100.837000    3.803110  -104.822000
  C    -99.433600    4.455980  -107.394000
  H    -100.312000    4.178880  -107.973000
  H    -98.573100    4.250310  -108.032000
  C    -99.583200    5.885440  -106.809000
  H    -100.316000    5.847580  -105.957000
  H    -98.618900    6.208600  -106.516000
  C    -100.271000    6.917710  -107.744000
  H    -99.932300    6.896320  -108.749000
  H    -101.275000    6.694840  -107.595000
  H    -100.105000    7.824830  -107.149000
  S    -98.945300    1.262920  -101.733000
  C    -100.238000    0.914822  -100.614000
  C    -101.516000    1.046450  -101.229000
  C    -101.368000    1.351050  -102.632000
  C    -100.058000    1.685450  -102.994000
  H    -102.457000    0.922862  -100.675000
  C    -102.639000    1.367530  -103.477000
  H    -102.602000    2.336220  -103.986000
  H    -103.400000    1.372800  -102.749000
  C    -102.831000    0.286638  -104.560000
  H    -103.336000   -0.573592  -104.045000
  H    -101.911000   -0.181465  -104.877000
  C    -103.534000    0.669411  -105.920000
  H    -104.414000    1.349530  -105.876000
  H    -103.980000   -0.216789  -106.374000
  H    -102.680000    1.033330  -106.571000
  H    -97.375800    2.471750  -107.088000
  H    -100.131000    0.560817  -99.596100

 Total Charge           Charge          ....    0
 Multiplicity           Mult            ....    1
 Number of Electrons    NEL             ....  134
 Basis Dimension        Dim             ....  322

ORBITAL ENERGIES
----------------

  NO   OCC          E(Eh)            E(eV)
   0   2.0000     -88.969718     -2420.9891
   1   2.0000     -88.968616     -2420.9591
   2   2.0000     -10.328145      -281.0431
   3   2.0000     -10.324779      -280.9515
   4   2.0000     -10.322271      -280.8833
   5   2.0000     -10.312958      -280.6298
   6   2.0000     -10.306083      -280.4428
   7   2.0000     -10.305593      -280.4294
   8   2.0000     -10.300706      -280.2965
   9   2.0000     -10.298108      -280.2258
  10   2.0000     -10.297708      -280.2149
  11   2.0000     -10.288923      -279.9758
  12   2.0000     -10.288298      -279.9588
  13   2.0000     -10.288270      -279.9581
  14   2.0000     -10.286233      -279.9026
  15   2.0000     -10.273020      -279.5431
  16   2.0000      -8.084474      -219.9897
  17   2.0000      -8.084393      -219.9875
  18   2.0000      -6.042961      -164.4373
  19   2.0000      -6.042702      -164.4303
  20   2.0000      -6.038866      -164.3259
  21   2.0000      -6.038725      -164.3221
  22   2.0000      -6.035349      -164.2302
  23   2.0000      -6.035327      -164.2296
  24   2.0000      -1.009310       -27.4647
  25   2.0000      -0.982905       -26.7462
  26   2.0000      -0.907750       -24.7011
  27   2.0000      -0.901357       -24.5272
  28   2.0000      -0.868877       -23.6433
  29   2.0000      -0.846664       -23.0389
  30   2.0000      -0.843797       -22.9609
  31   2.0000      -0.807326       -21.9685
  32   2.0000      -0.784316       -21.3423
  33   2.0000      -0.772010       -21.0075
  34   2.0000      -0.707066       -19.2402
  35   2.0000      -0.694895       -18.9090
  36   2.0000      -0.686595       -18.6832
  37   2.0000      -0.664359       -18.0781
  38   2.0000      -0.633540       -17.2395
  39   2.0000      -0.614900       -16.7323
  40   2.0000      -0.587113       -15.9762
  41   2.0000      -0.572205       -15.5705
  42   2.0000      -0.566705       -15.4208
  43   2.0000      -0.559402       -15.2221
  44   2.0000      -0.536356       -14.5950
  45   2.0000      -0.520481       -14.1630
  46   2.0000      -0.512265       -13.9394
  47   2.0000      -0.507825       -13.8186
  48   2.0000      -0.499744       -13.5987
  49   2.0000      -0.498014       -13.5517
  50   2.0000      -0.493250       -13.4220
  51   2.0000      -0.488724       -13.2989
  52   2.0000      -0.467151       -12.7118
  53   2.0000      -0.464105       -12.6289
  54   2.0000      -0.462648       -12.5893
  55   2.0000      -0.447297       -12.1716
  56   2.0000      -0.438605       -11.9350
  57   2.0000      -0.435602       -11.8533
  58   2.0000      -0.434450       -11.8220
  59   2.0000      -0.428168       -11.6510
  60   2.0000      -0.418127       -11.3778
  61   2.0000      -0.412054       -11.2125
  62   2.0000      -0.409297       -11.1375
  63   2.0000      -0.337869        -9.1939
  64   2.0000      -0.331959        -9.0331
  65   2.0000      -0.326417        -8.8823
  66   2.0000      -0.288167        -7.8414
  67   0.0000       0.023410         0.6370
  68   0.0000       0.068762         1.8711
  69   0.0000       0.106952         2.9103
  70   0.0000       0.119748         3.2585
  71   0.0000       0.133160         3.6235

MULLIKEN ATOMIC CHARGES
-----------------------
   0 S :    0.136412
   1 C :   -0.125457
   2 C :   -0.120566
   3 C :    0.010801
   4 C :   -0.166263
   5 H :    0.027611
   6 C :    0.094339
   7 H :    0.034496
   8 H :    0.012075
   9 C :   -0.117787
  10 H :    0.034963
  11 H :    0.030318
  12 C :   -0.003193
  13 H :    0.042237
  14 H :    0.016209
  15 H :    0.034565
  16 S :    0.126532
  17 C :   -0.099991
  18 C :   -0.048083
  19 C :   -0.076427
  20 C :   -0.162829
  21 H :    0.035332
  22 C :    0.139806
  23 H :    0.017422
  24 H :    0.002253
  25 C :   -0.078017
  26 H :    0.026711
  27 H :    0.031390
  28 C :   -0.087780
  29 H :    0.039726
  30 H :    0.033733
  31 H :    0.058261
  32 H :    0.040443
  33 H :    0.060757
Sum of atomic charges:   -0.0000000

LOEWDIN ATOMIC CHARGES
----------------------
   0 S :    0.449800
   1 C :   -0.216182
   2 C :   -0.056760
   3 C :   -0.075425
   4 C :   -0.222043
   5 H :    0.028615
   6 C :   -0.028911
   7 H :    0.030720
   8 H :    0.027508
   9 C :   -0.034980
  10 H :    0.029976
  11 H :    0.016686
  12 C :   -0.055360
  13 H :    0.020425
  14 H :    0.017113
  15 H :    0.035442
  16 S :    0.428051
  17 C :   -0.190980
  18 C :   -0.074302
  19 C :   -0.046931
  20 C :   -0.221382
  21 H :    0.035930
  22 C :   -0.027465
  23 H :    0.031875
  24 H :    0.022198
  25 C :   -0.045765
  26 H :    0.025689
  27 H :    0.025168
  28 C :   -0.075552
  29 H :    0.025633
  30 H :    0.027824
  31 H :    0.037933
  32 H :    0.025619
  33 H :    0.029833

  Mayer bond orders larger than 0.100000
B(  0-S ,  1-C ) :   1.1427 B(  0-S ,  4-C ) :   1.2038 B(  1-C ,  2-C ) :   1.5837
B(  1-C ,  4-C ) :   0.1052 B(  1-C , 32-H ) :   0.9676 B(  2-C ,  3-C ) :   1.2844
B(  2-C ,  6-C ) :   1.0066 B(  3-C ,  4-C ) :   1.5051 B(  3-C ,  5-H ) :   0.9854
B(  4-C , 20-C ) :   1.0606 B(  6-C ,  7-H ) :   0.9449 B(  6-C ,  8-H ) :   0.9396
B(  6-C ,  9-C ) :   1.0493 B(  9-C , 10-H ) :   0.9656 B(  9-C , 11-H ) :   0.9636
B(  9-C , 12-C ) :   1.0626 B( 12-C , 13-H ) :   0.9785 B( 12-C , 14-H ) :   0.9803
B( 12-C , 15-H ) :   0.9748 B( 16-S , 17-C ) :   1.1782 B( 16-S , 20-C ) :   1.1404
B( 17-C , 18-C ) :   1.5746 B( 17-C , 20-C ) :   0.1037 B( 17-C , 33-H ) :   0.9675
B( 18-C , 19-C ) :   1.2739 B( 18-C , 21-H ) :   0.9813 B( 19-C , 20-C ) :   1.5540
B( 19-C , 22-C ) :   1.0325 B( 22-C , 23-H ) :   0.9369 B( 22-C , 24-H ) :   0.9295
B( 22-C , 25-C ) :   1.0397 B( 25-C , 26-H ) :   0.9582 B( 25-C , 27-H ) :   0.9666
B( 25-C , 28-C ) :   1.0648 B( 28-C , 29-H ) :   0.9791 B( 28-C , 30-H ) :   0.9742
B( 28-C , 31-H ) :   0.9779

Dispersion correction           -0.014147587
FINAL SINGLE POINT ENERGY     -1339.849638568027

DIPOLE MOMENT
-------------
                                X             Y             Z
Electronic contribution:     17.95126     -13.43760      17.91979
Nuclear contribution   :    -18.45677      13.62397     -18.13307
                        -----------------------------------------
Total Dipole Moment    :     -0.50551       0.18637      -0.21328
                        -----------------------------------------
Magnitude (a.u.)       :      0.57945
Magnitude (Debye)      :      1.47284

Rotational constants in cm-1:     0.017920     0.008307     0.007119
Rotational constants in MHz :   537.221383   249.049208   213.430438

                             ****ORCA TERMINATED NORMALLY****
TOTAL RUN TIME: 0 days 0 hours 0 minutes 21 seconds 471 msec
