                         Program Version 4.2.1 -  RELEASE  -
|  1> ! wB97X-D3 SP def2-SVP
|  2> %pal
|  3> nprocs 24
|  4> end
|  5>
|  6> * xyz 0 1
|  7> S 	 -32.5551 	 6.35694 	 16.3756
|  8> C 	 -31.7396 	 7.63628 	 15.578
|  9> C 	 -32.6363 	 8.30596 	 14.7307
| 10> C 	 -33.8969 	 7.64771 	 14.5558
| 11> C 	 -33.9819 	 6.55944 	 15.4236
| 12> H 	 -34.6759 	 7.9047 	 13.8826
| 13> C 	 -32.3462 	 9.5421 	 13.942
| 14> H 	 -31.3161 	 9.79299 	 14.1326
| 15> H 	 -32.8355 	 10.3488 	 14.4701
| 16> C 	 -32.6445 	 9.54193 	 12.4041
| 17> H 	 -32.5117 	 8.60175 	 11.9546
| 18> H 	 -33.6945 	 9.83626 	 12.4215
| 19> C 	 -31.7776 	 10.5986 	 11.7014
| 20> H 	 -30.7232 	 10.1993 	 11.6889
| 21> H 	 -32.1135 	 10.7485 	 10.7107
| 22> H 	 -31.8578 	 11.5092 	 12.2194
| 23> S 	 -35.9148 	 5.87106 	 17.2196
| 24> C 	 -36.9187 	 4.50907 	 16.9532
| 25> C 	 -36.8527 	 4.13559 	 15.6792
| 26> C 	 -35.9672 	 4.88708 	 14.8992
| 27> C 	 -35.1498 	 5.77736 	 15.6743
| 28> H 	 -37.5894 	 3.33188 	 15.3521
| 29> C 	 -35.9302 	 4.68548 	 13.4133
| 30> H 	 -36.0281 	 3.58851 	 13.2177
| 31> H 	 -34.9364 	 4.95985 	 13.1233
| 32> C 	 -37.0156 	 5.48536 	 12.6023
| 33> H 	 -36.7868 	 6.50495 	 12.8089
| 34> H 	 -38.0403 	 5.24066 	 13.053
| 35> C 	 -36.9294 	 5.28494 	 11.1394
| 36> H 	 -35.9283 	 4.91399 	 10.8124
| 37> H 	 -37.2605 	 6.20936 	 10.6267
| 38> H 	 -37.5565 	 4.44713 	 10.7364
| 39> H 	 -30.709 	 7.85961 	 15.8208
| 40> H 	 -37.4474 	 4.06831 	 17.7219
| 41> *
| 42>
| 43>                          ****END OF INPUT****

CARTESIAN COORDINATES (ANGSTROEM)
---------------------------------
  S    -32.555100    6.356940   16.375600
  C    -31.739600    7.636280   15.578000
  C    -32.636300    8.305960   14.730700
  C    -33.896900    7.647710   14.555800
  C    -33.981900    6.559440   15.423600
  H    -34.675900    7.904700   13.882600
  C    -32.346200    9.542100   13.942000
  H    -31.316100    9.792990   14.132600
  H    -32.835500   10.348800   14.470100
  C    -32.644500    9.541930   12.404100
  H    -32.511700    8.601750   11.954600
  H    -33.694500    9.836260   12.421500
  C    -31.777600   10.598600   11.701400
  H    -30.723200   10.199300   11.688900
  H    -32.113500   10.748500   10.710700
  H    -31.857800   11.509200   12.219400
  S    -35.914800    5.871060   17.219600
  C    -36.918700    4.509070   16.953200
  C    -36.852700    4.135590   15.679200
  C    -35.967200    4.887080   14.899200
  C    -35.149800    5.777360   15.674300
  H    -37.589400    3.331880   15.352100
  C    -35.930200    4.685480   13.413300
  H    -36.028100    3.588510   13.217700
  H    -34.936400    4.959850   13.123300
  C    -37.015600    5.485360   12.602300
  H    -36.786800    6.504950   12.808900
  H    -38.040300    5.240660   13.053000
  C    -36.929400    5.284940   11.139400
  H    -35.928300    4.913990   10.812400
  H    -37.260500    6.209360   10.626700
  H    -37.556500    4.447130   10.736400
  H    -30.709000    7.859610   15.820800
  H    -37.447400    4.068310   17.721900

 Total Charge           Charge          ....    0
 Multiplicity           Mult            ....    1
 Number of Electrons    NEL             ....  134
 Basis Dimension        Dim             ....  322

ORBITAL ENERGIES
----------------

  NO   OCC          E(Eh)            E(eV)
   0   2.0000     -88.966177     -2420.8927
   1   2.0000     -88.956610     -2420.6324
   2   2.0000     -10.326065      -280.9865
   3   2.0000     -10.322630      -280.8930
   4   2.0000     -10.314723      -280.6779
   5   2.0000     -10.302374      -280.3418
   6   2.0000     -10.299759      -280.2707
   7   2.0000     -10.298940      -280.2484
   8   2.0000     -10.293890      -280.1110
   9   2.0000     -10.288046      -279.9520
  10   2.0000     -10.286861      -279.9197
  11   2.0000     -10.285950      -279.8949
  12   2.0000     -10.285698      -279.8881
  13   2.0000     -10.285072      -279.8710
  14   2.0000     -10.281956      -279.7863
  15   2.0000     -10.277048      -279.6527
  16   2.0000      -8.081929      -219.9205
  17   2.0000      -8.072884      -219.6744
  18   2.0000      -6.040261      -164.3639
  19   2.0000      -6.036135      -164.2516
  20   2.0000      -6.032956      -164.1651
  21   2.0000      -6.031149      -164.1159
  22   2.0000      -6.027182      -164.0080
  23   2.0000      -6.023793      -163.9157
  24   2.0000      -1.013111       -27.5682
  25   2.0000      -0.991294       -26.9745
  26   2.0000      -0.912984       -24.8436
  27   2.0000      -0.907826       -24.7032
  28   2.0000      -0.875800       -23.8317
  29   2.0000      -0.854753       -23.2590
  30   2.0000      -0.850630       -23.1468
  31   2.0000      -0.817676       -22.2501
  32   2.0000      -0.779564       -21.2130
  33   2.0000      -0.765621       -20.8336
  34   2.0000      -0.714511       -19.4428
  35   2.0000      -0.698116       -18.9967
  36   2.0000      -0.693130       -18.8610
  37   2.0000      -0.656052       -17.8521
  38   2.0000      -0.645649       -17.5690
  39   2.0000      -0.622375       -16.9357
  40   2.0000      -0.597274       -16.2527
  41   2.0000      -0.577512       -15.7149
  42   2.0000      -0.564197       -15.3526
  43   2.0000      -0.558123       -15.1873
  44   2.0000      -0.534248       -14.5376
  45   2.0000      -0.523047       -14.2328
  46   2.0000      -0.520842       -14.1728
  47   2.0000      -0.517812       -14.0904
  48   2.0000      -0.510740       -13.8979
  49   2.0000      -0.502517       -13.6742
  50   2.0000      -0.493229       -13.4214
  51   2.0000      -0.480727       -13.0812
  52   2.0000      -0.470669       -12.8076
  53   2.0000      -0.468657       -12.7528
  54   2.0000      -0.457634       -12.4529
  55   2.0000      -0.450050       -12.2465
  56   2.0000      -0.444255       -12.0888
  57   2.0000      -0.441165       -12.0047
  58   2.0000      -0.428666       -11.6646
  59   2.0000      -0.425769       -11.5858
  60   2.0000      -0.416759       -11.3406
  61   2.0000      -0.412617       -11.2279
  62   2.0000      -0.411243       -11.1905
  63   2.0000      -0.343979        -9.3601
  64   2.0000      -0.326089        -8.8733
  65   2.0000      -0.322935        -8.7875
  66   2.0000      -0.291351        -7.9281
  67   0.0000       0.032371         0.8809
  68   0.0000       0.067549         1.8381
  69   0.0000       0.121142         3.2964
  70   0.0000       0.126305         3.4369
  71   0.0000       0.131524         3.5790

MULLIKEN ATOMIC CHARGES
-----------------------
   0 S :    0.132652
   1 C :   -0.126691
   2 C :   -0.095187
   3 C :    0.043837
   4 C :   -0.161177
   5 H :    0.005844
   6 C :    0.068599
   7 H :   -0.008181
   8 H :    0.033757
   9 C :   -0.070206
  10 H :    0.031911
  11 H :    0.032951
  12 C :   -0.026344
  13 H :    0.044792
  14 H :    0.026150
  15 H :    0.024378
  16 S :    0.101591
  17 C :   -0.068419
  18 C :   -0.047215
  19 C :   -0.033777
  20 C :   -0.172638
  21 H :    0.039506
  22 C :    0.045923
  23 H :    0.026561
  24 H :    0.012464
  25 C :   -0.055979
  26 H :    0.015941
  27 H :    0.041431
  28 C :   -0.053542
  29 H :    0.032740
  30 H :    0.045018
  31 H :    0.032946
  32 H :    0.053304
  33 H :    0.027060
Sum of atomic charges:   -0.0000000

LOEWDIN ATOMIC CHARGES
----------------------
   0 S :    0.443213
   1 C :   -0.213197
   2 C :   -0.059611
   3 C :   -0.050956
   4 C :   -0.208499
   5 H :    0.028072
   6 C :   -0.037693
   7 H :    0.020538
   8 H :    0.034540
   9 C :   -0.031659
  10 H :    0.018252
  11 H :    0.024265
  12 C :   -0.054021
  13 H :    0.034671
  14 H :    0.020287
  15 H :    0.018868
  16 S :    0.426578
  17 C :   -0.185322
  18 C :   -0.086501
  19 C :   -0.058724
  20 C :   -0.214462
  21 H :    0.045554
  22 C :   -0.034792
  23 H :    0.030683
  24 H :    0.022631
  25 C :   -0.042885
  26 H :    0.017957
  27 H :    0.033296
  28 C :   -0.077226
  29 H :    0.030626
  30 H :    0.032503
  31 H :    0.029809
  32 H :    0.028561
  33 H :    0.014647

  Mayer bond orders larger than 0.100000
B(  0-S ,  1-C ) :   1.1538 B(  0-S ,  4-C ) :   1.1819 B(  1-C ,  2-C ) :   1.5664
B(  1-C , 32-H ) :   0.9745 B(  2-C ,  3-C ) :   1.2510 B(  2-C ,  6-C ) :   1.0367
B(  3-C ,  4-C ) :   1.5292 B(  3-C ,  5-H ) :   1.0058 B(  4-C , 20-C ) :   1.0519
B(  6-C ,  7-H ) :   0.9403 B(  6-C ,  8-H ) :   0.9242 B(  6-C ,  9-C ) :   1.0399
B(  9-C , 10-H ) :   0.9686 B(  9-C , 11-H ) :   0.9500 B(  9-C , 12-C ) :   1.0916
B( 12-C , 13-H ) :   0.9755 B( 12-C , 14-H ) :   0.9733 B( 12-C , 15-H ) :   0.9748
B( 16-S , 17-C ) :   1.1679 B( 16-S , 20-C ) :   1.1701 B( 17-C , 18-C ) :   1.5849
B( 17-C , 20-C ) :   0.1067 B( 17-C , 33-H ) :   0.9781 B( 18-C , 19-C ) :   1.2746
B( 18-C , 21-H ) :   0.9826 B( 19-C , 20-C ) :   1.5206 B( 19-C , 22-C ) :   1.0620
B( 22-C , 23-H ) :   0.9390 B( 22-C , 24-H ) :   0.9242 B( 22-C , 25-C ) :   1.0625
B( 25-C , 26-H ) :   0.9553 B( 25-C , 27-H ) :   0.9539 B( 25-C , 28-C ) :   1.0801
B( 28-C , 29-H ) :   0.9704 B( 28-C , 30-H ) :   0.9749 B( 28-C , 31-H ) :   0.9715

Dispersion correction           -0.013812091
FINAL SINGLE POINT ENERGY     -1339.864961636820

DIPOLE MOMENT
-------------
                                X             Y             Z
Electronic contribution:      1.33245      -9.91437      28.85584
Nuclear contribution   :     -1.40247      10.15516     -29.40576
                        -----------------------------------------
Total Dipole Moment    :     -0.07002       0.24079      -0.54993
                        -----------------------------------------
Magnitude (a.u.)       :      0.60440
Magnitude (Debye)      :      1.53627

Rotational constants in cm-1:     0.017083     0.009017     0.006410
Rotational constants in MHz :   512.143258   270.315398   192.161644

                             ****ORCA TERMINATED NORMALLY****
TOTAL RUN TIME: 0 days 0 hours 0 minutes 21 seconds 363 msec
