                         Program Version 4.2.1 -  RELEASE  -
|  1> ! wB97X-D3 SP def2-SVP
|  2> %pal
|  3> nprocs 24
|  4> end
|  5>
|  6> * xyz 0 1
|  7> S 	 -103.997 	 -5.69374 	 -120.177
|  8> C 	 -105.456 	 -5.17703 	 -120.99
|  9> C 	 -105.985 	 -4.13467 	 -120.202
| 10> C 	 -105.275 	 -3.74216 	 -119.066
| 11> C 	 -104.203 	 -4.55783 	 -118.834
| 12> H 	 -105.431 	 -2.81411 	 -118.476
| 13> C 	 -107.325 	 -3.37631 	 -120.546
| 14> H 	 -108.141 	 -3.78625 	 -119.896
| 15> H 	 -107.639 	 -3.92885 	 -121.425
| 16> C 	 -107.339 	 -1.80317 	 -120.622
| 17> H 	 -106.86 	 -1.38074 	 -119.747
| 18> H 	 -106.685 	 -1.51225 	 -121.44
| 19> C 	 -108.736 	 -1.15602 	 -120.748
| 20> H 	 -108.697 	 -0.0519217 	 -120.656
| 21> H 	 -109.166 	 -1.2426 	 -121.819
| 22> H 	 -109.442 	 -1.62728 	 -119.96
| 23> S 	 -101.451 	 -4.48974 	 -118.395
| 24> C 	 -100.838 	 -4.0337 	 -116.817
| 25> C 	 -101.826 	 -3.69406 	 -115.962
| 26> C 	 -103.15 	 -3.83556 	 -116.51
| 27> C 	 -103.144 	 -4.31049 	 -117.849
| 28> H 	 -101.522 	 -3.33478 	 -114.986
| 29> C 	 -104.425 	 -3.35237 	 -115.804
| 30> H 	 -105.314 	 -3.79703 	 -116.422
| 31> H 	 -104.485 	 -2.31956 	 -115.9
| 32> C 	 -104.601 	 -3.79871 	 -114.33
| 33> H 	 -103.737 	 -3.60124 	 -113.764
| 34> H 	 -104.708 	 -4.84702 	 -114.314
| 35> C 	 -105.778 	 -3.21162 	 -113.537
| 36> H 	 -105.991 	 -3.7841 	 -112.629
| 37> H 	 -106.622 	 -3.22165 	 -114.193
| 38> H 	 -105.609 	 -2.13742 	 -113.349
| 39> H 	 -106.007 	 -5.79533 	 -121.764
| 40> H 	 -99.7984 	 -4.0598 	 -116.481
| 41> *
| 42>
| 43>                          ****END OF INPUT****

CARTESIAN COORDINATES (ANGSTROEM)
---------------------------------
  S    -103.997000   -5.693740  -120.177000
  C    -105.456000   -5.177030  -120.990000
  C    -105.985000   -4.134670  -120.202000
  C    -105.275000   -3.742160  -119.066000
  C    -104.203000   -4.557830  -118.834000
  H    -105.431000   -2.814110  -118.476000
  C    -107.325000   -3.376310  -120.546000
  H    -108.141000   -3.786250  -119.896000
  H    -107.639000   -3.928850  -121.425000
  C    -107.339000   -1.803170  -120.622000
  H    -106.860000   -1.380740  -119.747000
  H    -106.685000   -1.512250  -121.440000
  C    -108.736000   -1.156020  -120.748000
  H    -108.697000   -0.051922  -120.656000
  H    -109.166000   -1.242600  -121.819000
  H    -109.442000   -1.627280  -119.960000
  S    -101.451000   -4.489740  -118.395000
  C    -100.838000   -4.033700  -116.817000
  C    -101.826000   -3.694060  -115.962000
  C    -103.150000   -3.835560  -116.510000
  C    -103.144000   -4.310490  -117.849000
  H    -101.522000   -3.334780  -114.986000
  C    -104.425000   -3.352370  -115.804000
  H    -105.314000   -3.797030  -116.422000
  H    -104.485000   -2.319560  -115.900000
  C    -104.601000   -3.798710  -114.330000
  H    -103.737000   -3.601240  -113.764000
  H    -104.708000   -4.847020  -114.314000
  C    -105.778000   -3.211620  -113.537000
  H    -105.991000   -3.784100  -112.629000
  H    -106.622000   -3.221650  -114.193000
  H    -105.609000   -2.137420  -113.349000
  H    -106.007000   -5.795330  -121.764000
  H    -99.798400   -4.059800  -116.481000

 Total Charge           Charge          ....    0
 Multiplicity           Mult            ....    1
 Number of Electrons    NEL             ....  134
 Basis Dimension        Dim             ....  322

ORBITAL ENERGIES
----------------

  NO   OCC          E(Eh)            E(eV)
   0   2.0000     -88.969024     -2420.9702
   1   2.0000     -88.965020     -2420.8613
   2   2.0000     -10.335208      -281.2353
   3   2.0000     -10.334858      -281.2258
   4   2.0000     -10.325579      -280.9733
   5   2.0000     -10.315077      -280.6875
   6   2.0000     -10.311412      -280.5878
   7   2.0000     -10.307503      -280.4814
   8   2.0000     -10.297662      -280.2136
   9   2.0000     -10.297455      -280.2080
  10   2.0000     -10.297211      -280.2014
  11   2.0000     -10.294907      -280.1387
  12   2.0000     -10.294884      -280.1380
  13   2.0000     -10.292452      -280.0719
  14   2.0000     -10.277527      -279.6657
  15   2.0000     -10.277363      -279.6613
  16   2.0000      -8.083314      -219.9581
  17   2.0000      -8.079117      -219.8439
  18   2.0000      -6.041956      -164.4100
  19   2.0000      -6.037794      -164.2967
  20   2.0000      -6.037698      -164.2941
  21   2.0000      -6.034112      -164.1965
  22   2.0000      -6.033710      -164.1856
  23   2.0000      -6.029737      -164.0775
  24   2.0000      -1.006243       -27.3813
  25   2.0000      -0.982467       -26.7343
  26   2.0000      -0.905561       -24.6416
  27   2.0000      -0.898787       -24.4572
  28   2.0000      -0.871355       -23.7108
  29   2.0000      -0.852572       -23.1997
  30   2.0000      -0.844097       -22.9690
  31   2.0000      -0.818042       -22.2600
  32   2.0000      -0.778871       -21.1942
  33   2.0000      -0.764970       -20.8159
  34   2.0000      -0.710380       -19.3304
  35   2.0000      -0.701714       -19.0946
  36   2.0000      -0.694591       -18.9008
  37   2.0000      -0.652729       -17.7617
  38   2.0000      -0.637825       -17.3561
  39   2.0000      -0.623691       -16.9715
  40   2.0000      -0.592460       -16.1217
  41   2.0000      -0.566768       -15.4225
  42   2.0000      -0.563556       -15.3351
  43   2.0000      -0.553016       -15.0483
  44   2.0000      -0.531172       -14.4539
  45   2.0000      -0.523299       -14.2397
  46   2.0000      -0.520698       -14.1689
  47   2.0000      -0.510067       -13.8796
  48   2.0000      -0.500540       -13.6204
  49   2.0000      -0.498363       -13.5612
  50   2.0000      -0.495580       -13.4854
  51   2.0000      -0.479122       -13.0376
  52   2.0000      -0.465989       -12.6802
  53   2.0000      -0.461946       -12.5702
  54   2.0000      -0.454977       -12.3805
  55   2.0000      -0.450904       -12.2697
  56   2.0000      -0.448645       -12.2082
  57   2.0000      -0.434783       -11.8310
  58   2.0000      -0.432903       -11.7799
  59   2.0000      -0.420307       -11.4371
  60   2.0000      -0.418303       -11.3826
  61   2.0000      -0.414336       -11.2747
  62   2.0000      -0.411878       -11.2078
  63   2.0000      -0.359711        -9.7882
  64   2.0000      -0.332808        -9.0562
  65   2.0000      -0.329617        -8.9693
  66   2.0000      -0.288183        -7.8419
  67   0.0000       0.019631         0.5342
  68   0.0000       0.074670         2.0319
  69   0.0000       0.107129         2.9151
  70   0.0000       0.119677         3.2566
  71   0.0000       0.134178         3.6512

MULLIKEN ATOMIC CHARGES
-----------------------
   0 S :    0.098452
   1 C :   -0.131974
   2 C :   -0.119711
   3 C :   -0.005747
   4 C :   -0.118764
   5 H :    0.046419
   6 C :    0.058716
   7 H :    0.030910
   8 H :   -0.004375
   9 C :   -0.045420
  10 H :    0.028492
  11 H :    0.037185
  12 C :   -0.110240
  13 H :    0.043717
  14 H :    0.046735
  15 H :    0.054185
  16 S :    0.094312
  17 C :   -0.091277
  18 C :   -0.036449
  19 C :   -0.031536
  20 C :   -0.147151
  21 H :    0.019542
  22 C :    0.028472
  23 H :    0.046445
  24 H :    0.028853
  25 C :   -0.058558
  26 H :    0.014177
  27 H :    0.020819
  28 C :   -0.035950
  29 H :    0.046256
  30 H :    0.014358
  31 H :    0.029578
  32 H :    0.089498
  33 H :    0.060029
Sum of atomic charges:   -0.0000000

LOEWDIN ATOMIC CHARGES
----------------------
   0 S :    0.403348
   1 C :   -0.218292
   2 C :   -0.063304
   3 C :   -0.072823
   4 C :   -0.180730
   5 H :    0.043013
   6 C :   -0.041615
   7 H :    0.032869
   8 H :    0.023543
   9 C :   -0.043008
  10 H :    0.021876
  11 H :    0.028675
  12 C :   -0.081126
  13 H :    0.029250
  14 H :    0.033906
  15 H :    0.036121
  16 S :    0.384308
  17 C :   -0.183996
  18 C :   -0.076864
  19 C :   -0.054163
  20 C :   -0.182849
  21 H :    0.033240
  22 C :   -0.032101
  23 H :    0.043239
  24 H :    0.018953
  25 C :   -0.037968
  26 H :    0.013547
  27 H :    0.021488
  28 C :   -0.060987
  29 H :    0.031620
  30 H :    0.018626
  31 H :    0.025887
  32 H :    0.050328
  33 H :    0.035990

  Mayer bond orders larger than 0.100000
B(  0-S ,  1-C ) :   1.1327 B(  0-S ,  4-C ) :   1.1630 B(  1-C ,  2-C ) :   1.5856
B(  1-C ,  4-C ) :   0.1039 B(  1-C , 32-H ) :   0.9559 B(  2-C ,  3-C ) :   1.2756
B(  2-C ,  6-C ) :   1.0145 B(  3-C ,  4-C ) :   1.5379 B(  3-C ,  5-H ) :   0.9795
B(  4-C , 20-C ) :   1.0591 B(  6-C ,  7-H ) :   0.9429 B(  6-C ,  8-H ) :   0.9393
B(  6-C ,  9-C ) :   1.0380 B(  9-C , 10-H ) :   0.9576 B(  9-C , 11-H ) :   0.9556
B(  9-C , 12-C ) :   1.0781 B( 12-C , 13-H ) :   0.9740 B( 12-C , 14-H ) :   0.9757
B( 12-C , 15-H ) :   0.9730 B( 16-S , 17-C ) :   1.1391 B( 16-S , 20-C ) :   1.1296
B( 17-C , 18-C ) :   1.6487 B( 17-C , 33-H ) :   0.9605 B( 18-C , 19-C ) :   1.2201
B( 18-C , 21-H ) :   0.9898 B( 19-C , 20-C ) :   1.5918 B( 19-C , 22-C ) :   1.0387
B( 22-C , 23-H ) :   0.9284 B( 22-C , 24-H ) :   0.9403 B( 22-C , 25-C ) :   1.0569
B( 25-C , 26-H ) :   0.9571 B( 25-C , 27-H ) :   0.9557 B( 25-C , 28-C ) :   1.0875
B( 28-C , 29-H ) :   0.9740 B( 28-C , 30-H ) :   0.9742 B( 28-C , 31-H ) :   0.9749

Dispersion correction           -0.013194766
FINAL SINGLE POINT ENERGY     -1339.864197120738

DIPOLE MOMENT
-------------
                                X             Y             Z
Electronic contribution:     24.85798     -15.94784     -11.05753
Nuclear contribution   :    -25.28866      16.40047      11.36900
                        -----------------------------------------
Total Dipole Moment    :     -0.43068       0.45263       0.31148
                        -----------------------------------------
Magnitude (a.u.)       :      0.69812
Magnitude (Debye)      :      1.77449

Rotational constants in cm-1:     0.015278     0.008705     0.006230
Rotational constants in MHz :   458.031634   260.956193   186.775550

                             ****ORCA TERMINATED NORMALLY****
TOTAL RUN TIME: 0 days 0 hours 0 minutes 19 seconds 689 msec
