                         Program Version 4.2.1 -  RELEASE  -
|  1> ! wB97X-D3 SP def2-SVP
|  2> %pal
|  3> nprocs 24
|  4> end
|  5>
|  6> * xyz 0 1
|  7> S 	 -101.748 	 15.528 	 -119.848
|  8> C 	 -101.534 	 16.836 	 -118.764
|  9> C 	 -100.152 	 17.1372 	 -118.684
| 10> C 	 -99.3425 	 16.0971 	 -119.231
| 11> C 	 -100.04 	 15.1187 	 -119.947
| 12> H 	 -98.2965 	 16.1373 	 -119.236
| 13> C 	 -99.3801 	 18.2689 	 -118.006
| 14> H 	 -98.6502 	 17.7403 	 -117.388
| 15> H 	 -100.071 	 18.7506 	 -117.329
| 16> C 	 -98.8438 	 19.3489 	 -118.969
| 17> H 	 -97.9504 	 18.911 	 -119.491
| 18> H 	 -99.6244 	 19.4191 	 -119.758
| 19> C 	 -98.5367 	 20.7125 	 -118.373
| 20> H 	 -97.6968 	 21.2342 	 -118.916
| 21> H 	 -99.3327 	 21.4173 	 -118.213
| 22> H 	 -98.1089 	 20.5994 	 -117.348
| 23> S 	 -100.155 	 12.5158 	 -120.866
| 24> C 	 -98.929 	 11.8805 	 -121.872
| 25> C 	 -98.1724 	 12.884 	 -122.388
| 26> C 	 -98.5852 	 14.1965 	 -121.975
| 27> C 	 -99.5764 	 14.1855 	 -121.012
| 28> H 	 -97.3865 	 12.6935 	 -123.038
| 29> C 	 -97.7409 	 15.3199 	 -122.444
| 30> H 	 -96.9509 	 14.9247 	 -123.075
| 31> H 	 -97.1359 	 15.5331 	 -121.569
| 32> C 	 -98.5375 	 16.5735 	 -122.848
| 33> H 	 -99.0338 	 16.9438 	 -122
| 34> H 	 -99.3046 	 16.3586 	 -123.583
| 35> C 	 -97.6114 	 17.5666 	 -123.536
| 36> H 	 -96.7852 	 17.802 	 -122.897
| 37> H 	 -98.1694 	 18.5085 	 -123.691
| 38> H 	 -97.1615 	 17.2284 	 -124.497
| 39> H 	 -102.303 	 17.4448 	 -118.388
| 40> H 	 -98.6961 	 10.8585 	 -122.012
| 41> *
| 42>
| 43>                          ****END OF INPUT****

CARTESIAN COORDINATES (ANGSTROEM)
---------------------------------
  S    -101.748000   15.528000  -119.848000
  C    -101.534000   16.836000  -118.764000
  C    -100.152000   17.137200  -118.684000
  C    -99.342500   16.097100  -119.231000
  C    -100.040000   15.118700  -119.947000
  H    -98.296500   16.137300  -119.236000
  C    -99.380100   18.268900  -118.006000
  H    -98.650200   17.740300  -117.388000
  H    -100.071000   18.750600  -117.329000
  C    -98.843800   19.348900  -118.969000
  H    -97.950400   18.911000  -119.491000
  H    -99.624400   19.419100  -119.758000
  C    -98.536700   20.712500  -118.373000
  H    -97.696800   21.234200  -118.916000
  H    -99.332700   21.417300  -118.213000
  H    -98.108900   20.599400  -117.348000
  S    -100.155000   12.515800  -120.866000
  C    -98.929000   11.880500  -121.872000
  C    -98.172400   12.884000  -122.388000
  C    -98.585200   14.196500  -121.975000
  C    -99.576400   14.185500  -121.012000
  H    -97.386500   12.693500  -123.038000
  C    -97.740900   15.319900  -122.444000
  H    -96.950900   14.924700  -123.075000
  H    -97.135900   15.533100  -121.569000
  C    -98.537500   16.573500  -122.848000
  H    -99.033800   16.943800  -122.000000
  H    -99.304600   16.358600  -123.583000
  C    -97.611400   17.566600  -123.536000
  H    -96.785200   17.802000  -122.897000
  H    -98.169400   18.508500  -123.691000
  H    -97.161500   17.228400  -124.497000
  H    -102.303000   17.444800  -118.388000
  H    -98.696100   10.858500  -122.012000

 Total Charge           Charge          ....    0
 Multiplicity           Mult            ....    1
 Number of Electrons    NEL             ....  134
 Basis Dimension        Dim             ....  322

ORBITAL ENERGIES
----------------

  NO   OCC          E(Eh)            E(eV)
   0   2.0000     -88.965079     -2420.8629
   1   2.0000     -88.959118     -2420.7007
   2   2.0000     -10.335291      -281.2376
   3   2.0000     -10.328347      -281.0486
   4   2.0000     -10.315883      -280.7094
   5   2.0000     -10.311041      -280.5777
   6   2.0000     -10.304442      -280.3981
   7   2.0000     -10.302193      -280.3369
   8   2.0000     -10.296510      -280.1823
   9   2.0000     -10.293245      -280.0934
  10   2.0000     -10.292228      -280.0658
  11   2.0000     -10.286692      -279.9151
  12   2.0000     -10.286169      -279.9009
  13   2.0000     -10.284137      -279.8456
  14   2.0000     -10.279619      -279.7226
  15   2.0000     -10.276596      -279.6404
  16   2.0000      -8.080222      -219.8740
  17   2.0000      -8.074686      -219.7234
  18   2.0000      -6.038610      -164.3189
  19   2.0000      -6.034524      -164.2077
  20   2.0000      -6.033211      -164.1720
  21   2.0000      -6.031206      -164.1175
  22   2.0000      -6.028935      -164.0557
  23   2.0000      -6.025504      -163.9623
  24   2.0000      -1.007266       -27.4091
  25   2.0000      -0.988459       -26.8973
  26   2.0000      -0.914051       -24.8726
  27   2.0000      -0.910282       -24.7700
  28   2.0000      -0.868163       -23.6239
  29   2.0000      -0.854550       -23.2535
  30   2.0000      -0.849766       -23.1233
  31   2.0000      -0.816565       -22.2199
  32   2.0000      -0.780682       -21.2434
  33   2.0000      -0.771434       -20.9918
  34   2.0000      -0.712675       -19.3929
  35   2.0000      -0.702865       -19.1259
  36   2.0000      -0.693609       -18.8741
  37   2.0000      -0.666146       -18.1267
  38   2.0000      -0.647350       -17.6153
  39   2.0000      -0.624809       -17.0019
  40   2.0000      -0.596724       -16.2377
  41   2.0000      -0.569865       -15.5068
  42   2.0000      -0.565668       -15.3926
  43   2.0000      -0.559679       -15.2297
  44   2.0000      -0.532106       -14.4793
  45   2.0000      -0.519777       -14.1438
  46   2.0000      -0.517402       -14.0792
  47   2.0000      -0.516119       -14.0443
  48   2.0000      -0.511118       -13.9082
  49   2.0000      -0.503732       -13.7072
  50   2.0000      -0.493955       -13.4412
  51   2.0000      -0.490652       -13.3513
  52   2.0000      -0.479192       -13.0395
  53   2.0000      -0.469287       -12.7700
  54   2.0000      -0.455923       -12.4063
  55   2.0000      -0.452209       -12.3052
  56   2.0000      -0.443976       -12.0812
  57   2.0000      -0.434546       -11.8246
  58   2.0000      -0.428015       -11.6469
  59   2.0000      -0.424862       -11.5611
  60   2.0000      -0.418836       -11.3971
  61   2.0000      -0.413834       -11.2610
  62   2.0000      -0.407761       -11.0957
  63   2.0000      -0.344990        -9.3877
  64   2.0000      -0.330059        -8.9814
  65   2.0000      -0.324452        -8.8288
  66   2.0000      -0.293509        -7.9868
  67   0.0000       0.027828         0.7572
  68   0.0000       0.064648         1.7592
  69   0.0000       0.113684         3.0935
  70   0.0000       0.122771         3.3408
  71   0.0000       0.123969         3.3734

MULLIKEN ATOMIC CHARGES
-----------------------
   0 S :    0.108526
   1 C :   -0.079056
   2 C :   -0.146039
   3 C :    0.016756
   4 C :   -0.094505
   5 H :   -0.007553
   6 C :    0.063138
   7 H :    0.039216
   8 H :    0.008577
   9 C :   -0.071761
  10 H :    0.033625
  11 H :    0.040514
  12 C :   -0.061426
  13 H :    0.042988
  14 H :    0.039408
  15 H :    0.027427
  16 S :    0.096365
  17 C :   -0.052630
  18 C :   -0.034509
  19 C :   -0.046911
  20 C :   -0.151692
  21 H :   -0.007500
  22 C :    0.059598
  23 H :    0.004464
  24 H :    0.023360
  25 C :   -0.035171
  26 H :    0.028859
  27 H :    0.032720
  28 C :   -0.042032
  29 H :    0.012652
  30 H :    0.034101
  31 H :    0.037580
  32 H :    0.036071
  33 H :    0.044842
Sum of atomic charges:   -0.0000000

LOEWDIN ATOMIC CHARGES
----------------------
   0 S :    0.427022
   1 C :   -0.204415
   2 C :   -0.062192
   3 C :   -0.061758
   4 C :   -0.193607
   5 H :    0.019355
   6 C :   -0.033776
   7 H :    0.032888
   8 H :    0.024423
   9 C :   -0.047651
  10 H :    0.028702
  11 H :    0.030236
  12 C :   -0.077218
  13 H :    0.036467
  14 H :    0.024148
  15 H :    0.029764
  16 S :    0.411187
  17 C :   -0.179594
  18 C :   -0.072512
  19 C :   -0.045985
  20 C :   -0.206846
  21 H :    0.019012
  22 C :   -0.036495
  23 H :    0.028626
  24 H :    0.035401
  25 C :   -0.029646
  26 H :    0.021392
  27 H :    0.027313
  28 C :   -0.064849
  29 H :    0.016044
  30 H :    0.028411
  31 H :    0.028764
  32 H :    0.021004
  33 H :    0.026382

  Mayer bond orders larger than 0.100000
B(  0-S ,  1-C ) :   1.1655 B(  0-S ,  4-C ) :   1.1734 B(  1-C ,  2-C ) :   1.5502
B(  1-C ,  4-C ) :   0.1084 B(  1-C , 32-H ) :   0.9787 B(  2-C ,  3-C ) :   1.2818
B(  2-C ,  6-C ) :   1.0267 B(  3-C ,  4-C ) :   1.5345 B(  3-C ,  5-H ) :   1.0097
B(  4-C , 20-C ) :   1.0000 B(  6-C ,  7-H ) :   0.9421 B(  6-C ,  8-H ) :   0.9428
B(  6-C ,  9-C ) :   1.0505 B(  9-C , 10-H ) :   0.9537 B(  9-C , 11-H ) :   0.9573
B(  9-C , 12-C ) :   1.0781 B( 12-C , 13-H ) :   0.9747 B( 12-C , 14-H ) :   0.9761
B( 12-C , 15-H ) :   0.9724 B( 16-S , 17-C ) :   1.1745 B( 16-S , 20-C ) :   1.1216
B( 17-C , 18-C ) :   1.5939 B( 17-C , 33-H ) :   0.9706 B( 18-C , 19-C ) :   1.2456
B( 18-C , 21-H ) :   1.0061 B( 19-C , 20-C ) :   1.5879 B( 19-C , 22-C ) :   1.0530
B( 22-C , 23-H ) :   0.9348 B( 22-C , 24-H ) :   0.9184 B( 22-C , 25-C ) :   1.0464
B( 25-C , 26-H ) :   0.9472 B( 25-C , 27-H ) :   0.9620 B( 25-C , 28-C ) :   1.0937
B( 28-C , 29-H ) :   0.9713 B( 28-C , 30-H ) :   0.9728 B( 28-C , 31-H ) :   0.9757

Dispersion correction           -0.014802470
FINAL SINGLE POINT ENERGY     -1339.865168754974

DIPOLE MOMENT
-------------
                                X             Y             Z
Electronic contribution:    -16.77769     -27.71395       2.68609
Nuclear contribution   :     17.44669      28.25263      -2.76246
                        -----------------------------------------
Total Dipole Moment    :      0.66899       0.53868      -0.07637
                        -----------------------------------------
Magnitude (a.u.)       :      0.86230
Magnitude (Debye)      :      2.19180

Rotational constants in cm-1:     0.019170     0.009097     0.006860
Rotational constants in MHz :   574.689229   272.720359   205.662287

                             ****ORCA TERMINATED NORMALLY****
TOTAL RUN TIME: 0 days 0 hours 0 minutes 22 seconds 243 msec
