                         Program Version 4.2.1 -  RELEASE  -
|  1> ! wB97X-D3 SP def2-SVP
|  2> %pal
|  3> nprocs 24
|  4> end
|  5>
|  6> * xyz 0 1
|  7> S 	 -78.1265 	 6.42238 	 -108.982
|  8> C 	 -79.7922 	 6.19802 	 -109.485
|  9> C 	 -79.9893 	 6.76279 	 -110.698
| 10> C 	 -78.9835 	 7.69404 	 -111.079
| 11> C 	 -77.864 	 7.62641 	 -110.235
| 12> H 	 -79.0051 	 8.36167 	 -111.982
| 13> C 	 -81.2396 	 6.44453 	 -111.484
| 14> H 	 -82.0583 	 7.09223 	 -111.115
| 15> H 	 -81.6226 	 5.43076 	 -111.214
| 16> C 	 -81.1681 	 6.50034 	 -113.033
| 17> H 	 -82.1233 	 6.60156 	 -113.466
| 18> H 	 -80.6519 	 7.38474 	 -113.394
| 19> C 	 -80.522 	 5.19832 	 -113.696
| 20> H 	 -79.4352 	 5.1806 	 -113.498
| 21> H 	 -80.9788 	 4.32094 	 -113.266
| 22> H 	 -80.6465 	 5.23914 	 -114.768
| 23> S 	 -75.3158 	 7.3467 	 -110.984
| 24> C 	 -74.3079 	 8.72254 	 -111.309
| 25> C 	 -75.0054 	 9.90037 	 -111.133
| 26> C 	 -76.2934 	 9.70774 	 -110.553
| 27> C 	 -76.6283 	 8.36958 	 -110.446
| 28> H 	 -74.697 	 10.8848 	 -111.371
| 29> C 	 -77.2103 	 10.8766 	 -110.269
| 30> H 	 -76.5934 	 11.6484 	 -109.877
| 31> H 	 -77.9132 	 10.7997 	 -109.44
| 32> C 	 -77.8214 	 11.4384 	 -111.525
| 33> H 	 -78.1334 	 10.5156 	 -112.031
| 34> H 	 -77.0444 	 11.9301 	 -112.236
| 35> C 	 -79.0383 	 12.2562 	 -111.307
| 36> H 	 -79.5515 	 12.5049 	 -112.175
| 37> H 	 -78.8602 	 13.1643 	 -110.702
| 38> H 	 -79.7114 	 11.744 	 -110.647
| 39> H 	 -80.4652 	 5.38628 	 -109.126
| 40> H 	 -73.4278 	 8.59938 	 -111.967
| 41> *
| 42>
| 43>                          ****END OF INPUT****

CARTESIAN COORDINATES (ANGSTROEM)
---------------------------------
  S    -78.126500    6.422380  -108.982000
  C    -79.792200    6.198020  -109.485000
  C    -79.989300    6.762790  -110.698000
  C    -78.983500    7.694040  -111.079000
  C    -77.864000    7.626410  -110.235000
  H    -79.005100    8.361670  -111.982000
  C    -81.239600    6.444530  -111.484000
  H    -82.058300    7.092230  -111.115000
  H    -81.622600    5.430760  -111.214000
  C    -81.168100    6.500340  -113.033000
  H    -82.123300    6.601560  -113.466000
  H    -80.651900    7.384740  -113.394000
  C    -80.522000    5.198320  -113.696000
  H    -79.435200    5.180600  -113.498000
  H    -80.978800    4.320940  -113.266000
  H    -80.646500    5.239140  -114.768000
  S    -75.315800    7.346700  -110.984000
  C    -74.307900    8.722540  -111.309000
  C    -75.005400    9.900370  -111.133000
  C    -76.293400    9.707740  -110.553000
  C    -76.628300    8.369580  -110.446000
  H    -74.697000   10.884800  -111.371000
  C    -77.210300   10.876600  -110.269000
  H    -76.593400   11.648400  -109.877000
  H    -77.913200   10.799700  -109.440000
  C    -77.821400   11.438400  -111.525000
  H    -78.133400   10.515600  -112.031000
  H    -77.044400   11.930100  -112.236000
  C    -79.038300   12.256200  -111.307000
  H    -79.551500   12.504900  -112.175000
  H    -78.860200   13.164300  -110.702000
  H    -79.711400   11.744000  -110.647000
  H    -80.465200    5.386280  -109.126000
  H    -73.427800    8.599380  -111.967000

 Total Charge           Charge          ....    0
 Multiplicity           Mult            ....    1
 Number of Electrons    NEL             ....  134
 Basis Dimension        Dim             ....  322

ORBITAL ENERGIES
----------------

  NO   OCC          E(Eh)            E(eV)
   0   2.0000     -88.966598     -2420.9042
   1   2.0000     -88.962717     -2420.7986
   2   2.0000     -10.333299      -281.1834
   3   2.0000     -10.325473      -280.9704
   4   2.0000     -10.318616      -280.7838
   5   2.0000     -10.310607      -280.5659
   6   2.0000     -10.303008      -280.3591
   7   2.0000     -10.300631      -280.2944
   8   2.0000     -10.297881      -280.2196
   9   2.0000     -10.297374      -280.2058
  10   2.0000     -10.293584      -280.1027
  11   2.0000     -10.288862      -279.9742
  12   2.0000     -10.287829      -279.9461
  13   2.0000     -10.285294      -279.8771
  14   2.0000     -10.278992      -279.7056
  15   2.0000     -10.270456      -279.4733
  16   2.0000      -8.081032      -219.8961
  17   2.0000      -8.078195      -219.8189
  18   2.0000      -6.039561      -164.3448
  19   2.0000      -6.036644      -164.2654
  20   2.0000      -6.035674      -164.2390
  21   2.0000      -6.032541      -164.1538
  22   2.0000      -6.031683      -164.1304
  23   2.0000      -6.029014      -164.0578
  24   2.0000      -1.008808       -27.4511
  25   2.0000      -0.987323       -26.8664
  26   2.0000      -0.919985       -25.0341
  27   2.0000      -0.905291       -24.6342
  28   2.0000      -0.869539       -23.6614
  29   2.0000      -0.855709       -23.2850
  30   2.0000      -0.842167       -22.9165
  31   2.0000      -0.814178       -22.1549
  32   2.0000      -0.785722       -21.3806
  33   2.0000      -0.772370       -21.0173
  34   2.0000      -0.711218       -19.3532
  35   2.0000      -0.698237       -19.0000
  36   2.0000      -0.689377       -18.7589
  37   2.0000      -0.668636       -18.1945
  38   2.0000      -0.635253       -17.2861
  39   2.0000      -0.619581       -16.8597
  40   2.0000      -0.605546       -16.4778
  41   2.0000      -0.565716       -15.3939
  42   2.0000      -0.560260       -15.2455
  43   2.0000      -0.550163       -14.9707
  44   2.0000      -0.536137       -14.5890
  45   2.0000      -0.531112       -14.4523
  46   2.0000      -0.522677       -14.2228
  47   2.0000      -0.510195       -13.8831
  48   2.0000      -0.503152       -13.6915
  49   2.0000      -0.496121       -13.5001
  50   2.0000      -0.490245       -13.3403
  51   2.0000      -0.482170       -13.1205
  52   2.0000      -0.474721       -12.9178
  53   2.0000      -0.464480       -12.6391
  54   2.0000      -0.457682       -12.4541
  55   2.0000      -0.451250       -12.2791
  56   2.0000      -0.442495       -12.0409
  57   2.0000      -0.441722       -12.0199
  58   2.0000      -0.433718       -11.8021
  59   2.0000      -0.428153       -11.6506
  60   2.0000      -0.423197       -11.5158
  61   2.0000      -0.419169       -11.4062
  62   2.0000      -0.402140       -10.9428
  63   2.0000      -0.341723        -9.2987
  64   2.0000      -0.330303        -8.9880
  65   2.0000      -0.327734        -8.9181
  66   2.0000      -0.298731        -8.1289
  67   0.0000       0.035429         0.9641
  68   0.0000       0.056649         1.5415
  69   0.0000       0.110063         2.9950
  70   0.0000       0.126133         3.4323
  71   0.0000       0.128075         3.4851

MULLIKEN ATOMIC CHARGES
-----------------------
   0 S :    0.115363
   1 C :   -0.128742
   2 C :   -0.076271
   3 C :    0.017113
   4 C :   -0.151055
   5 H :    0.042901
   6 C :    0.031968
   7 H :    0.047155
   8 H :    0.018206
   9 C :   -0.060728
  10 H :    0.015597
  11 H :    0.021175
  12 C :   -0.060028
  13 H :    0.044490
  14 H :    0.030038
  15 H :    0.036523
  16 S :    0.099470
  17 C :   -0.085915
  18 C :   -0.022289
  19 C :   -0.049329
  20 C :   -0.175386
  21 H :    0.003833
  22 C :    0.092147
  23 H :    0.003232
  24 H :    0.027726
  25 C :   -0.102451
  26 H :    0.016819
  27 H :    0.041820
  28 C :    0.008689
  29 H :    0.024070
  30 H :    0.019780
  31 H :    0.014412
  32 H :    0.062620
  33 H :    0.077046
Sum of atomic charges:    0.0000000

LOEWDIN ATOMIC CHARGES
----------------------
   0 S :    0.402488
   1 C :   -0.205315
   2 C :   -0.069574
   3 C :   -0.066380
   4 C :   -0.197366
   5 H :    0.038846
   6 C :   -0.036016
   7 H :    0.038329
   8 H :    0.030532
   9 C :   -0.037730
  10 H :    0.018723
  11 H :    0.020120
  12 C :   -0.060908
  13 H :    0.029317
  14 H :    0.020939
  15 H :    0.024145
  16 S :    0.416007
  17 C :   -0.195514
  18 C :   -0.061386
  19 C :   -0.052536
  20 C :   -0.197430
  21 H :    0.024854
  22 C :   -0.034167
  23 H :    0.026485
  24 H :    0.034738
  25 C :   -0.047605
  26 H :    0.020687
  27 H :    0.031686
  28 C :   -0.060827
  29 H :    0.018936
  30 H :    0.027005
  31 H :    0.025095
  32 H :    0.037675
  33 H :    0.036144

  Mayer bond orders larger than 0.100000
B(  0-S ,  1-C ) :   1.1247 B(  0-S ,  4-C ) :   1.1607 B(  1-C ,  2-C ) :   1.6331
B(  1-C , 32-H ) :   0.9594 B(  2-C ,  3-C ) :   1.2379 B(  2-C ,  6-C ) :   1.0140
B(  3-C ,  4-C ) :   1.5668 B(  3-C ,  5-H ) :   0.9778 B(  4-C , 20-C ) :   1.0197
B(  6-C ,  7-H ) :   0.9382 B(  6-C ,  8-H ) :   0.9465 B(  6-C ,  9-C ) :   1.0738
B(  9-C , 10-H ) :   0.9538 B(  9-C , 11-H ) :   0.9557 B(  9-C , 12-C ) :   1.0695
B( 12-C , 13-H ) :   0.9804 B( 12-C , 14-H ) :   0.9771 B( 12-C , 15-H ) :   0.9778
B( 16-S , 17-C ) :   1.1613 B( 16-S , 20-C ) :   1.1601 B( 17-C , 18-C ) :   1.5865
B( 17-C , 33-H ) :   0.9617 B( 18-C , 19-C ) :   1.2577 B( 18-C , 21-H ) :   0.9927
B( 19-C , 20-C ) :   1.6067 B( 19-C , 22-C ) :   1.0545 B( 22-C , 23-H ) :   0.9132
B( 22-C , 24-H ) :   0.9422 B( 22-C , 25-C ) :   1.0501 B( 25-C , 26-H ) :   0.9550
B( 25-C , 27-H ) :   0.9456 B( 25-C , 28-C ) :   1.1012 B( 28-C , 29-H ) :   0.9702
B( 28-C , 30-H ) :   0.9677 B( 28-C , 31-H ) :   0.9666

Dispersion correction           -0.014500365
FINAL SINGLE POINT ENERGY     -1339.871435727289

DIPOLE MOMENT
-------------
                                X             Y             Z
Electronic contribution:     18.45720     -11.05992      14.50148
Nuclear contribution   :    -18.93397      11.40566     -15.04895
                        -----------------------------------------
Total Dipole Moment    :     -0.47678       0.34574      -0.54746
                        -----------------------------------------
Magnitude (a.u.)       :      0.80410
Magnitude (Debye)      :      2.04386

Rotational constants in cm-1:     0.016546     0.009318     0.007735
Rotational constants in MHz :   496.039164   279.349051   231.895824

                             ****ORCA TERMINATED NORMALLY****
TOTAL RUN TIME: 0 days 0 hours 0 minutes 21 seconds 980 msec
