                         Program Version 4.2.1 -  RELEASE  -
|  1> ! wB97X-D3 SP def2-SVP
|  2> %pal
|  3> nprocs 24
|  4> end
|  5>
|  6> * xyz 0 1
|  7> S 	 -76.676 	 -1.67475 	 -65.3481
|  8> C 	 -76.1238 	 0.0150433 	 -65.5752
|  9> C 	 -76.4167 	 0.698734 	 -64.3834
| 10> C 	 -76.9502 	 -0.145236 	 -63.3299
| 11> C 	 -77.0754 	 -1.46005 	 -63.6093
| 12> H 	 -77.2376 	 0.0744513 	 -62.3119
| 13> C 	 -76.546 	 2.21406 	 -64.2851
| 14> H 	 -75.6484 	 2.63098 	 -64.7622
| 15> H 	 -76.5685 	 2.39121 	 -63.2139
| 16> C 	 -77.7557 	 2.91789 	 -64.9636
| 17> H 	 -77.696 	 2.90259 	 -66.0595
| 18> H 	 -78.6569 	 2.36941 	 -64.8677
| 19> C 	 -77.8929 	 4.34599 	 -64.5203
| 20> H 	 -78.82 	 4.69958 	 -64.8644
| 21> H 	 -77.7457 	 4.39447 	 -63.4312
| 22> H 	 -77.1377 	 4.97417 	 -65.0145
| 23> S 	 -75.9759 	 -3.20279 	 -61.8221
| 24> C 	 -77.0884 	 -4.29866 	 -61.0066
| 25> C 	 -78.4061 	 -4.12098 	 -61.4335
| 26> C 	 -78.5826 	 -3.07013 	 -62.3656
| 27> C 	 -77.3736 	 -2.58094 	 -62.7166
| 28> H 	 -79.0671 	 -4.89442 	 -61.1306
| 29> C 	 -79.8697 	 -2.75365 	 -63.0613
| 30> H 	 -79.6499 	 -2.29185 	 -64.0587
| 31> H 	 -80.2652 	 -1.96381 	 -62.4091
| 32> C 	 -80.8159 	 -3.98698 	 -63.2418
| 33> H 	 -81.3455 	 -4.20825 	 -62.2938
| 34> H 	 -80.2345 	 -4.89571 	 -63.3907
| 35> C 	 -81.7537 	 -4.12991 	 -64.4697
| 36> H 	 -82.528 	 -3.41135 	 -64.4862
| 37> H 	 -82.1857 	 -5.16018 	 -64.513
| 38> H 	 -81.1429 	 -4.06978 	 -65.4087
| 39> H 	 -75.7998 	 0.409641 	 -66.4743
| 40> H 	 -76.7383 	 -5.09655 	 -60.3547
| 41> *
| 42>
| 43>                          ****END OF INPUT****

CARTESIAN COORDINATES (ANGSTROEM)
---------------------------------
  S    -76.676000   -1.674750  -65.348100
  C    -76.123800    0.015043  -65.575200
  C    -76.416700    0.698734  -64.383400
  C    -76.950200   -0.145236  -63.329900
  C    -77.075400   -1.460050  -63.609300
  H    -77.237600    0.074451  -62.311900
  C    -76.546000    2.214060  -64.285100
  H    -75.648400    2.630980  -64.762200
  H    -76.568500    2.391210  -63.213900
  C    -77.755700    2.917890  -64.963600
  H    -77.696000    2.902590  -66.059500
  H    -78.656900    2.369410  -64.867700
  C    -77.892900    4.345990  -64.520300
  H    -78.820000    4.699580  -64.864400
  H    -77.745700    4.394470  -63.431200
  H    -77.137700    4.974170  -65.014500
  S    -75.975900   -3.202790  -61.822100
  C    -77.088400   -4.298660  -61.006600
  C    -78.406100   -4.120980  -61.433500
  C    -78.582600   -3.070130  -62.365600
  C    -77.373600   -2.580940  -62.716600
  H    -79.067100   -4.894420  -61.130600
  C    -79.869700   -2.753650  -63.061300
  H    -79.649900   -2.291850  -64.058700
  H    -80.265200   -1.963810  -62.409100
  C    -80.815900   -3.986980  -63.241800
  H    -81.345500   -4.208250  -62.293800
  H    -80.234500   -4.895710  -63.390700
  C    -81.753700   -4.129910  -64.469700
  H    -82.528000   -3.411350  -64.486200
  H    -82.185700   -5.160180  -64.513000
  H    -81.142900   -4.069780  -65.408700
  H    -75.799800    0.409641  -66.474300
  H    -76.738300   -5.096550  -60.354700

 Total Charge           Charge          ....    0
 Multiplicity           Mult            ....    1
 Number of Electrons    NEL             ....  134
 Basis Dimension        Dim             ....  322

ORBITAL ENERGIES
----------------

  NO   OCC          E(Eh)            E(eV)
   0   2.0000     -88.966941     -2420.9135
   1   2.0000     -88.958275     -2420.6777
   2   2.0000     -10.325795      -280.9792
   3   2.0000     -10.322457      -280.8883
   4   2.0000     -10.320082      -280.8237
   5   2.0000     -10.317073      -280.7418
   6   2.0000     -10.305449      -280.4255
   7   2.0000     -10.302532      -280.3461
   8   2.0000     -10.300100      -280.2800
   9   2.0000     -10.292851      -280.0827
  10   2.0000     -10.292515      -280.0736
  11   2.0000     -10.291470      -280.0451
  12   2.0000     -10.290922      -280.0302
  13   2.0000     -10.284341      -279.8512
  14   2.0000     -10.280369      -279.7431
  15   2.0000     -10.274111      -279.5728
  16   2.0000      -8.081264      -219.9024
  17   2.0000      -8.071799      -219.6448
  18   2.0000      -6.039650      -164.3472
  19   2.0000      -6.035982      -164.2474
  20   2.0000      -6.032020      -164.1396
  21   2.0000      -6.030474      -164.0975
  22   2.0000      -6.026398      -163.9866
  23   2.0000      -6.022516      -163.8810
  24   2.0000      -1.004667       -27.3384
  25   2.0000      -0.977275       -26.5930
  26   2.0000      -0.908515       -24.7220
  27   2.0000      -0.906222       -24.6596
  28   2.0000      -0.869858       -23.6700
  29   2.0000      -0.854048       -23.2398
  30   2.0000      -0.842356       -22.9217
  31   2.0000      -0.816749       -22.2249
  32   2.0000      -0.784358       -21.3435
  33   2.0000      -0.766791       -20.8655
  34   2.0000      -0.704913       -19.1817
  35   2.0000      -0.703274       -19.1371
  36   2.0000      -0.698860       -19.0170
  37   2.0000      -0.658242       -17.9117
  38   2.0000      -0.648367       -17.6429
  39   2.0000      -0.611179       -16.6310
  40   2.0000      -0.595439       -16.2027
  41   2.0000      -0.568488       -15.4694
  42   2.0000      -0.565308       -15.3828
  43   2.0000      -0.558802       -15.2058
  44   2.0000      -0.532712       -14.4958
  45   2.0000      -0.526991       -14.3402
  46   2.0000      -0.522319       -14.2130
  47   2.0000      -0.520950       -14.1758
  48   2.0000      -0.500430       -13.6174
  49   2.0000      -0.493837       -13.4380
  50   2.0000      -0.489390       -13.3170
  51   2.0000      -0.475156       -12.9296
  52   2.0000      -0.472317       -12.8524
  53   2.0000      -0.459078       -12.4921
  54   2.0000      -0.458302       -12.4710
  55   2.0000      -0.455496       -12.3947
  56   2.0000      -0.442703       -12.0466
  57   2.0000      -0.439375       -11.9560
  58   2.0000      -0.435623       -11.8539
  59   2.0000      -0.423340       -11.5197
  60   2.0000      -0.414430       -11.2772
  61   2.0000      -0.412499       -11.2247
  62   2.0000      -0.405747       -11.0409
  63   2.0000      -0.338185        -9.2025
  64   2.0000      -0.327132        -8.9017
  65   2.0000      -0.317701        -8.6451
  66   2.0000      -0.310244        -8.4422
  67   0.0000       0.044606         1.2138
  68   0.0000       0.048789         1.3276
  69   0.0000       0.111217         3.0264
  70   0.0000       0.113855         3.0982
  71   0.0000       0.130591         3.5536

MULLIKEN ATOMIC CHARGES
-----------------------
   0 S :    0.073128
   1 C :   -0.090815
   2 C :   -0.072134
   3 C :    0.054829
   4 C :   -0.196966
   5 H :    0.006754
   6 C :    0.049273
   7 H :    0.030004
   8 H :    0.021369
   9 C :   -0.055703
  10 H :    0.013579
  11 H :    0.014459
  12 C :   -0.019790
  13 H :    0.022980
  14 H :    0.034139
  15 H :    0.028902
  16 S :    0.122352
  17 C :   -0.102266
  18 C :   -0.035728
  19 C :   -0.014100
  20 C :   -0.195552
  21 H :    0.011563
  22 C :    0.117199
  23 H :    0.040141
  24 H :    0.044276
  25 C :   -0.125552
  26 H :    0.035823
  27 H :    0.035806
  28 C :   -0.047388
  29 H :    0.031050
  30 H :    0.039386
  31 H :    0.040204
  32 H :    0.028206
  33 H :    0.060571
Sum of atomic charges:    0.0000000

LOEWDIN ATOMIC CHARGES
----------------------
   0 S :    0.357225
   1 C :   -0.164976
   2 C :   -0.063655
   3 C :   -0.067823
   4 C :   -0.182375
   5 H :    0.032790
   6 C :   -0.031386
   7 H :    0.032958
   8 H :    0.026799
   9 C :   -0.043326
  10 H :    0.023789
  11 H :    0.017219
  12 C :   -0.056933
  13 H :    0.021287
  14 H :    0.026947
  15 H :    0.027427
  16 S :    0.397958
  17 C :   -0.175486
  18 C :   -0.069887
  19 C :   -0.051522
  20 C :   -0.197157
  21 H :    0.027441
  22 C :   -0.030064
  23 H :    0.037276
  24 H :    0.041887
  25 C :   -0.051270
  26 H :    0.025436
  27 H :    0.028281
  28 C :   -0.062531
  29 H :    0.013748
  30 H :    0.034525
  31 H :    0.031902
  32 H :    0.014829
  33 H :    0.028667

  Mayer bond orders larger than 0.100000
B(  0-S ,  1-C ) :   1.1322 B(  0-S ,  4-C ) :   1.1169 B(  1-C ,  2-C ) :   1.5965
B(  1-C , 32-H ) :   0.9891 B(  2-C ,  3-C ) :   1.1978 B(  2-C ,  6-C ) :   1.0361
B(  3-C ,  4-C ) :   1.6498 B(  3-C ,  5-H ) :   0.9898 B(  4-C , 20-C ) :   0.9931
B(  6-C ,  7-H ) :   0.9381 B(  6-C ,  8-H ) :   0.9457 B(  6-C ,  9-C ) :   1.0578
B(  9-C , 10-H ) :   0.9464 B(  9-C , 11-H ) :   0.9575 B(  9-C , 12-C ) :   1.0857
B( 12-C , 13-H ) :   0.9704 B( 12-C , 14-H ) :   0.9772 B( 12-C , 15-H ) :   0.9750
B( 16-S , 17-C ) :   1.1500 B( 16-S , 20-C ) :   1.1400 B( 17-C , 18-C ) :   1.6303
B( 17-C , 33-H ) :   0.9645 B( 18-C , 19-C ) :   1.2018 B( 18-C , 21-H ) :   0.9927
B( 19-C , 20-C ) :   1.6485 B( 19-C , 22-C ) :   1.0269 B( 22-C , 23-H ) :   0.9386
B( 22-C , 24-H ) :   0.9168 B( 22-C , 25-C ) :   1.0465 B( 25-C , 26-H ) :   0.9482
B( 25-C , 27-H ) :   0.9652 B( 25-C , 28-C ) :   1.0852 B( 28-C , 29-H ) :   0.9788
B( 28-C , 30-H ) :   0.9742 B( 28-C , 31-H ) :   0.9734

Dispersion correction           -0.013723692
FINAL SINGLE POINT ENERGY     -1339.860865729721

DIPOLE MOMENT
-------------
                                X             Y             Z
Electronic contribution:     18.84222     -14.00292       4.98621
Nuclear contribution   :    -19.37862      14.15048      -4.92098
                        -----------------------------------------
Total Dipole Moment    :     -0.53641       0.14757       0.06523
                        -----------------------------------------
Magnitude (a.u.)       :      0.56015
Magnitude (Debye)      :      1.42378

Rotational constants in cm-1:     0.018358     0.007570     0.006432
Rotational constants in MHz :   550.353590   226.950106   192.825418

                             ****ORCA TERMINATED NORMALLY****
TOTAL RUN TIME: 0 days 0 hours 0 minutes 19 seconds 733 msec
