                         Program Version 4.2.1 -  RELEASE  -
|  1> ! wB97X-D3 SP def2-SVP
|  2> %pal
|  3> nprocs 24
|  4> end
|  5>
|  6> * xyz 0 1
|  7> S 	 -68.5622 	 12.1171 	 -74.0479
|  8> C 	 -67.42 	 12.7247 	 -75.1849
|  9> C 	 -66.7397 	 13.8699 	 -74.6448
| 10> C 	 -67.1497 	 14.1245 	 -73.313
| 11> C 	 -68.145 	 13.2834 	 -72.8305
| 12> H 	 -66.7614 	 14.9244 	 -72.6618
| 13> C 	 -65.7229 	 14.688 	 -75.3442
| 14> H 	 -65.0907 	 13.9471 	 -75.8468
| 15> H 	 -65.0309 	 15.1802 	 -74.6375
| 16> C 	 -66.3192 	 15.7312 	 -76.3335
| 17> H 	 -66.7439 	 16.5945 	 -75.7663
| 18> H 	 -65.5072 	 16.1181 	 -76.9678
| 19> C 	 -67.2684 	 15.0467 	 -77.3468
| 20> H 	 -67.289 	 15.6239 	 -78.337
| 21> H 	 -66.9544 	 14.0057 	 -77.6206
| 22> H 	 -68.2047 	 14.9682 	 -76.777
| 23> S 	 -67.909 	 11.7372 	 -70.6721
| 24> C 	 -68.3611 	 12.3711 	 -69.1803
| 25> C 	 -69.1339 	 13.4853 	 -69.2435
| 26> C 	 -69.2208 	 14.0603 	 -70.5441
| 27> C 	 -68.5833 	 13.1719 	 -71.449
| 28> H 	 -69.6276 	 13.9034 	 -68.4
| 29> C 	 -69.9245 	 15.3788 	 -70.8813
| 30> H 	 -70.9341 	 15.0771 	 -70.8704
| 31> H 	 -69.5412 	 15.7376 	 -71.9241
| 32> C 	 -69.6929 	 16.5758 	 -69.909
| 33> H 	 -68.545 	 16.6244 	 -69.672
| 34> H 	 -70.2942 	 16.3585 	 -69.0806
| 35> C 	 -70.2695 	 17.9588 	 -70.4538
| 36> H 	 -69.9485 	 18.049 	 -71.5609
| 37> H 	 -69.9542 	 18.7736 	 -69.7821
| 38> H 	 -71.4256 	 17.9977 	 -70.5707
| 39> H 	 -67.3503 	 12.3959 	 -76.2219
| 40> H 	 -68.2989 	 11.7819 	 -68.2634
| 41> *
| 42>
| 43>                          ****END OF INPUT****

CARTESIAN COORDINATES (ANGSTROEM)
---------------------------------
  S    -68.562200   12.117100  -74.047900
  C    -67.420000   12.724700  -75.184900
  C    -66.739700   13.869900  -74.644800
  C    -67.149700   14.124500  -73.313000
  C    -68.145000   13.283400  -72.830500
  H    -66.761400   14.924400  -72.661800
  C    -65.722900   14.688000  -75.344200
  H    -65.090700   13.947100  -75.846800
  H    -65.030900   15.180200  -74.637500
  C    -66.319200   15.731200  -76.333500
  H    -66.743900   16.594500  -75.766300
  H    -65.507200   16.118100  -76.967800
  C    -67.268400   15.046700  -77.346800
  H    -67.289000   15.623900  -78.337000
  H    -66.954400   14.005700  -77.620600
  H    -68.204700   14.968200  -76.777000
  S    -67.909000   11.737200  -70.672100
  C    -68.361100   12.371100  -69.180300
  C    -69.133900   13.485300  -69.243500
  C    -69.220800   14.060300  -70.544100
  C    -68.583300   13.171900  -71.449000
  H    -69.627600   13.903400  -68.400000
  C    -69.924500   15.378800  -70.881300
  H    -70.934100   15.077100  -70.870400
  H    -69.541200   15.737600  -71.924100
  C    -69.692900   16.575800  -69.909000
  H    -68.545000   16.624400  -69.672000
  H    -70.294200   16.358500  -69.080600
  C    -70.269500   17.958800  -70.453800
  H    -69.948500   18.049000  -71.560900
  H    -69.954200   18.773600  -69.782100
  H    -71.425600   17.997700  -70.570700
  H    -67.350300   12.395900  -76.221900
  H    -68.298900   11.781900  -68.263400

 Total Charge           Charge          ....    0
 Multiplicity           Mult            ....    1
 Number of Electrons    NEL             ....  134
 Basis Dimension        Dim             ....  322

ORBITAL ENERGIES
----------------

  NO   OCC          E(Eh)            E(eV)
   0   2.0000     -88.966281     -2420.8956
   1   2.0000     -88.963904     -2420.8309
   2   2.0000     -10.324904      -280.9549
   3   2.0000     -10.322714      -280.8953
   4   2.0000     -10.314985      -280.6850
   5   2.0000     -10.308633      -280.5122
   6   2.0000     -10.308585      -280.5109
   7   2.0000     -10.300867      -280.3008
   8   2.0000     -10.300485      -280.2904
   9   2.0000     -10.300140      -280.2811
  10   2.0000     -10.299623      -280.2670
  11   2.0000     -10.291531      -280.0468
  12   2.0000     -10.290722      -280.0248
  13   2.0000     -10.290416      -280.0165
  14   2.0000     -10.286682      -279.9148
  15   2.0000     -10.285842      -279.8920
  16   2.0000      -8.081324      -219.9040
  17   2.0000      -8.079991      -219.8677
  18   2.0000      -6.039661      -164.3475
  19   2.0000      -6.038275      -164.3098
  20   2.0000      -6.035570      -164.2362
  21   2.0000      -6.034383      -164.2039
  22   2.0000      -6.032486      -164.1523
  23   2.0000      -6.030808      -164.1066
  24   2.0000      -1.008582       -27.4449
  25   2.0000      -0.985730       -26.8231
  26   2.0000      -0.910928       -24.7876
  27   2.0000      -0.904496       -24.6126
  28   2.0000      -0.863822       -23.5058
  29   2.0000      -0.849749       -23.1228
  30   2.0000      -0.845205       -22.9992
  31   2.0000      -0.806307       -21.9407
  32   2.0000      -0.779872       -21.2214
  33   2.0000      -0.767745       -20.8914
  34   2.0000      -0.703822       -19.1520
  35   2.0000      -0.693542       -18.8722
  36   2.0000      -0.687395       -18.7050
  37   2.0000      -0.654045       -17.7975
  38   2.0000      -0.638701       -17.3799
  39   2.0000      -0.614425       -16.7194
  40   2.0000      -0.594804       -16.1854
  41   2.0000      -0.572665       -15.5830
  42   2.0000      -0.568224       -15.4622
  43   2.0000      -0.545507       -14.8440
  44   2.0000      -0.535189       -14.5632
  45   2.0000      -0.523860       -14.2550
  46   2.0000      -0.520027       -14.1507
  47   2.0000      -0.509449       -13.8628
  48   2.0000      -0.501562       -13.6482
  49   2.0000      -0.489883       -13.3304
  50   2.0000      -0.482500       -13.1295
  51   2.0000      -0.474319       -12.9069
  52   2.0000      -0.471041       -12.8177
  53   2.0000      -0.462196       -12.5770
  54   2.0000      -0.459653       -12.5078
  55   2.0000      -0.455658       -12.3991
  56   2.0000      -0.441949       -12.0260
  57   2.0000      -0.431013       -11.7285
  58   2.0000      -0.428260       -11.6535
  59   2.0000      -0.426957       -11.6181
  60   2.0000      -0.419987       -11.4284
  61   2.0000      -0.414826       -11.2880
  62   2.0000      -0.409217       -11.1354
  63   2.0000      -0.341560        -9.2943
  64   2.0000      -0.330045        -8.9810
  65   2.0000      -0.323078        -8.7914
  66   2.0000      -0.292048        -7.9470
  67   0.0000       0.038893         1.0583
  68   0.0000       0.059995         1.6325
  69   0.0000       0.122137         3.3235
  70   0.0000       0.124695         3.3931
  71   0.0000       0.128466         3.4957

MULLIKEN ATOMIC CHARGES
-----------------------
   0 S :    0.121159
   1 C :   -0.131823
   2 C :   -0.114214
   3 C :    0.043873
   4 C :   -0.181174
   5 H :    0.018080
   6 C :    0.049114
   7 H :    0.031073
   8 H :    0.026909
   9 C :   -0.067790
  10 H :    0.044078
  11 H :    0.029800
  12 C :   -0.099554
  13 H :    0.052080
  14 H :    0.029195
  15 H :    0.061270
  16 S :    0.127914
  17 C :   -0.076477
  18 C :   -0.035115
  19 C :   -0.025194
  20 C :   -0.189129
  21 H :    0.001950
  22 C :    0.054351
  23 H :    0.039294
  24 H :    0.045282
  25 C :   -0.100684
  26 H :    0.062193
  27 H :    0.026161
  28 C :   -0.101403
  29 H :    0.042340
  30 H :    0.057693
  31 H :    0.045317
  32 H :    0.056822
  33 H :    0.056610
Sum of atomic charges:    0.0000000

LOEWDIN ATOMIC CHARGES
----------------------
   0 S :    0.431210
   1 C :   -0.216269
   2 C :   -0.066329
   3 C :   -0.065650
   4 C :   -0.218326
   5 H :    0.035146
   6 C :   -0.039920
   7 H :    0.033415
   8 H :    0.032089
   9 C :   -0.041519
  10 H :    0.029094
  11 H :    0.023485
  12 C :   -0.076254
  13 H :    0.034913
  14 H :    0.022962
  15 H :    0.031207
  16 S :    0.435492
  17 C :   -0.204575
  18 C :   -0.075110
  19 C :   -0.047154
  20 C :   -0.201556
  21 H :    0.024805
  22 C :   -0.032965
  23 H :    0.030949
  24 H :    0.040741
  25 C :   -0.046262
  26 H :    0.040723
  27 H :    0.014001
  28 C :   -0.081640
  29 H :    0.031633
  30 H :    0.030541
  31 H :    0.034609
  32 H :    0.027230
  33 H :    0.029279

  Mayer bond orders larger than 0.100000
B(  0-S ,  1-C ) :   1.1693 B(  0-S ,  4-C ) :   1.1756 B(  1-C ,  2-C ) :   1.5301
B(  1-C ,  4-C ) :   0.1092 B(  1-C , 32-H ) :   0.9694 B(  2-C ,  3-C ) :   1.2977
B(  2-C ,  6-C ) :   1.0281 B(  3-C ,  4-C ) :   1.5337 B(  3-C ,  5-H ) :   0.9902
B(  4-C , 20-C ) :   1.0081 B(  6-C ,  7-H ) :   0.9407 B(  6-C ,  8-H ) :   0.9446
B(  6-C ,  9-C ) :   1.0662 B(  9-C , 10-H ) :   0.9596 B(  9-C , 11-H ) :   0.9589
B(  9-C , 12-C ) :   1.0633 B( 12-C , 13-H ) :   0.9732 B( 12-C , 14-H ) :   0.9729
B( 12-C , 15-H ) :   0.9712 B( 16-S , 17-C ) :   1.1740 B( 16-S , 20-C ) :   1.1628
B( 17-C , 18-C ) :   1.6049 B( 17-C , 33-H ) :   0.9595 B( 18-C , 19-C ) :   1.2438
B( 18-C , 21-H ) :   0.9940 B( 19-C , 20-C ) :   1.5891 B( 19-C , 22-C ) :   1.0263
B( 22-C , 23-H ) :   0.9326 B( 22-C , 24-H ) :   0.9386 B( 22-C , 25-C ) :   1.0609
B( 25-C , 26-H ) :   0.9613 B( 25-C , 27-H ) :   0.9479 B( 25-C , 28-C ) :   1.0696
B( 28-C , 29-H ) :   0.9754 B( 28-C , 30-H ) :   0.9747 B( 28-C , 31-H ) :   0.9740

Dispersion correction           -0.014064108
FINAL SINGLE POINT ENERGY     -1339.862771686526

DIPOLE MOMENT
-------------
                                X             Y             Z
Electronic contribution:      0.45093     -25.95884       8.04978
Nuclear contribution   :     -0.44445      26.51395      -7.94280
                        -----------------------------------------
Total Dipole Moment    :      0.00649       0.55511       0.10698
                        -----------------------------------------
Magnitude (a.u.)       :      0.56536
Magnitude (Debye)      :      1.43703

Rotational constants in cm-1:     0.017574     0.008698     0.006464
Rotational constants in MHz :   526.857318   260.747810   193.790717

                             ****ORCA TERMINATED NORMALLY****
TOTAL RUN TIME: 0 days 0 hours 0 minutes 21 seconds 324 msec
