                         Program Version 4.2.1 -  RELEASE  -
|  1> ! wB97X-D3 SP def2-SVP
|  2> %pal
|  3> nprocs 24
|  4> end
|  5>
|  6> * xyz 0 1
|  7> S 	 -41.3917 	 -49.7543 	 -74.5163
|  8> C 	 -42.0571 	 -48.1744 	 -74.4347
|  9> C 	 -41.1315 	 -47.2956 	 -73.9472
| 10> C 	 -39.9021 	 -47.9497 	 -73.5411
| 11> C 	 -39.8488 	 -49.2623 	 -73.8353
| 12> H 	 -39.0639 	 -47.424 	 -73.2062
| 13> C 	 -41.3698 	 -45.7761 	 -73.531
| 14> H 	 -41.4873 	 -45.6852 	 -72.42
| 15> H 	 -42.3502 	 -45.562 	 -74.0399
| 16> C 	 -40.6566 	 -44.7232 	 -74.2826
| 17> H 	 -40.5615 	 -44.9544 	 -75.3088
| 18> H 	 -41.1026 	 -43.7573 	 -74.2204
| 19> C 	 -39.314 	 -44.4743 	 -73.6683
| 20> H 	 -39.345 	 -43.9367 	 -72.7217
| 21> H 	 -38.6444 	 -45.3442 	 -73.624
| 22> H 	 -38.7396 	 -43.7218 	 -74.2749
| 23> S 	 -39.3607 	 -51.2983 	 -72.1317
| 24> C 	 -37.6178 	 -51.796 	 -72.0025
| 25> C 	 -36.7949 	 -51.2983 	 -72.9198
| 26> C 	 -37.4633 	 -50.3304 	 -73.709
| 27> C 	 -38.8444 	 -50.222 	 -73.4064
| 28> H 	 -35.7452 	 -51.6536 	 -72.9552
| 29> C 	 -36.6748 	 -49.5211 	 -74.6924
| 30> H 	 -35.7267 	 -49.2223 	 -74.1708
| 31> H 	 -37.0532 	 -48.63 	 -74.9963
| 32> C 	 -36.23 	 -50.2753 	 -75.9565
| 33> H 	 -37.1099 	 -50.4407 	 -76.5294
| 34> H 	 -35.8178 	 -51.2397 	 -75.7934
| 35> C 	 -35.2676 	 -49.447 	 -76.8732
| 36> H 	 -35.6689 	 -48.5798 	 -77.2752
| 37> H 	 -34.8668 	 -49.9473 	 -77.7459
| 38> H 	 -34.341 	 -49.2446 	 -76.3067
| 39> H 	 -43.0778 	 -47.9188 	 -74.6695
| 40> H 	 -37.3604 	 -52.6708 	 -71.4891
| 41> *
| 42>
| 43>                          ****END OF INPUT****

CARTESIAN COORDINATES (ANGSTROEM)
---------------------------------
  S    -41.391700  -49.754300  -74.516300
  C    -42.057100  -48.174400  -74.434700
  C    -41.131500  -47.295600  -73.947200
  C    -39.902100  -47.949700  -73.541100
  C    -39.848800  -49.262300  -73.835300
  H    -39.063900  -47.424000  -73.206200
  C    -41.369800  -45.776100  -73.531000
  H    -41.487300  -45.685200  -72.420000
  H    -42.350200  -45.562000  -74.039900
  C    -40.656600  -44.723200  -74.282600
  H    -40.561500  -44.954400  -75.308800
  H    -41.102600  -43.757300  -74.220400
  C    -39.314000  -44.474300  -73.668300
  H    -39.345000  -43.936700  -72.721700
  H    -38.644400  -45.344200  -73.624000
  H    -38.739600  -43.721800  -74.274900
  S    -39.360700  -51.298300  -72.131700
  C    -37.617800  -51.796000  -72.002500
  C    -36.794900  -51.298300  -72.919800
  C    -37.463300  -50.330400  -73.709000
  C    -38.844400  -50.222000  -73.406400
  H    -35.745200  -51.653600  -72.955200
  C    -36.674800  -49.521100  -74.692400
  H    -35.726700  -49.222300  -74.170800
  H    -37.053200  -48.630000  -74.996300
  C    -36.230000  -50.275300  -75.956500
  H    -37.109900  -50.440700  -76.529400
  H    -35.817800  -51.239700  -75.793400
  C    -35.267600  -49.447000  -76.873200
  H    -35.668900  -48.579800  -77.275200
  H    -34.866800  -49.947300  -77.745900
  H    -34.341000  -49.244600  -76.306700
  H    -43.077800  -47.918800  -74.669500
  H    -37.360400  -52.670800  -71.489100

 Total Charge           Charge          ....    0
 Multiplicity           Mult            ....    1
 Number of Electrons    NEL             ....  134
 Basis Dimension        Dim             ....  322

ORBITAL ENERGIES
----------------

  NO   OCC          E(Eh)            E(eV)
   0   2.0000     -88.966036     -2420.8889
   1   2.0000     -88.962088     -2420.7815
   2   2.0000     -10.328907      -281.0638
   3   2.0000     -10.323860      -280.9265
   4   2.0000     -10.312824      -280.6262
   5   2.0000     -10.310779      -280.5706
   6   2.0000     -10.307245      -280.4744
   7   2.0000     -10.302369      -280.3417
   8   2.0000     -10.297279      -280.2032
   9   2.0000     -10.293635      -280.1040
  10   2.0000     -10.285501      -279.8827
  11   2.0000     -10.285147      -279.8731
  12   2.0000     -10.281339      -279.7695
  13   2.0000     -10.277050      -279.6527
  14   2.0000     -10.273821      -279.5649
  15   2.0000     -10.273575      -279.5582
  16   2.0000      -8.080138      -219.8717
  17   2.0000      -8.077666      -219.8045
  18   2.0000      -6.038590      -164.3184
  19   2.0000      -6.036233      -164.2543
  20   2.0000      -6.035070      -164.2226
  21   2.0000      -6.031997      -164.1390
  22   2.0000      -6.030644      -164.1022
  23   2.0000      -6.028362      -164.0401
  24   2.0000      -1.008850       -27.4522
  25   2.0000      -0.985695       -26.8221
  26   2.0000      -0.919018       -25.0077
  27   2.0000      -0.908471       -24.7208
  28   2.0000      -0.878978       -23.9182
  29   2.0000      -0.849192       -23.1077
  30   2.0000      -0.842721       -22.9316
  31   2.0000      -0.821318       -22.3492
  32   2.0000      -0.783428       -21.3182
  33   2.0000      -0.771666       -20.9981
  34   2.0000      -0.710707       -19.3393
  35   2.0000      -0.699467       -19.0335
  36   2.0000      -0.695700       -18.9310
  37   2.0000      -0.661115       -17.9898
  38   2.0000      -0.646583       -17.5944
  39   2.0000      -0.621300       -16.9064
  40   2.0000      -0.605459       -16.4754
  41   2.0000      -0.576927       -15.6990
  42   2.0000      -0.564312       -15.3557
  43   2.0000      -0.551426       -15.0051
  44   2.0000      -0.542621       -14.7655
  45   2.0000      -0.521376       -14.1873
  46   2.0000      -0.517553       -14.0833
  47   2.0000      -0.516381       -14.0514
  48   2.0000      -0.507001       -13.7962
  49   2.0000      -0.498828       -13.5738
  50   2.0000      -0.489615       -13.3231
  51   2.0000      -0.480188       -13.0666
  52   2.0000      -0.474938       -12.9237
  53   2.0000      -0.468695       -12.7538
  54   2.0000      -0.457008       -12.4358
  55   2.0000      -0.454498       -12.3675
  56   2.0000      -0.439717       -11.9653
  57   2.0000      -0.436579       -11.8799
  58   2.0000      -0.434826       -11.8322
  59   2.0000      -0.427722       -11.6389
  60   2.0000      -0.416308       -11.3283
  61   2.0000      -0.414685       -11.2842
  62   2.0000      -0.391996       -10.6667
  63   2.0000      -0.350840        -9.5468
  64   2.0000      -0.330703        -8.9989
  65   2.0000      -0.325604        -8.8601
  66   2.0000      -0.301463        -8.2032
  67   0.0000       0.036635         0.9969
  68   0.0000       0.066489         1.8093
  69   0.0000       0.106858         2.9077
  70   0.0000       0.123074         3.3490
  71   0.0000       0.128090         3.4855

MULLIKEN ATOMIC CHARGES
-----------------------
   0 S :    0.100128
   1 C :   -0.113344
   2 C :   -0.096507
   3 C :    0.077011
   4 C :   -0.161200
   5 H :   -0.013635
   6 C :    0.019233
   7 H :    0.061835
   8 H :    0.017150
   9 C :   -0.001776
  10 H :    0.023942
  11 H :    0.022936
  12 C :   -0.088061
  13 H :    0.029611
  14 H :    0.028912
  15 H :    0.018071
  16 S :    0.101530
  17 C :   -0.062619
  18 C :   -0.046973
  19 C :   -0.012130
  20 C :   -0.155076
  21 H :    0.042169
  22 C :    0.108313
  23 H :    0.020183
  24 H :   -0.014790
  25 C :   -0.059029
  26 H :    0.023016
  27 H :    0.018502
  28 C :   -0.038037
  29 H :    0.020244
  30 H :    0.024527
  31 H :    0.023011
  32 H :    0.047473
  33 H :    0.035377
Sum of atomic charges:   -0.0000000

LOEWDIN ATOMIC CHARGES
----------------------
   0 S :    0.406580
   1 C :   -0.200186
   2 C :   -0.065903
   3 C :   -0.055056
   4 C :   -0.197794
   5 H :    0.019816
   6 C :   -0.035799
   7 H :    0.039909
   8 H :    0.037161
   9 C :   -0.042949
  10 H :    0.026227
  11 H :    0.026561
  12 C :   -0.074670
  13 H :    0.023852
  14 H :    0.019125
  15 H :    0.025196
  16 S :    0.381383
  17 C :   -0.151287
  18 C :   -0.066358
  19 C :   -0.048284
  20 C :   -0.197307
  21 H :    0.047056
  22 C :   -0.024749
  23 H :    0.035160
  24 H :    0.013176
  25 C :   -0.028879
  26 H :    0.021718
  27 H :    0.017228
  28 C :   -0.063489
  29 H :    0.014686
  30 H :    0.027328
  31 H :    0.025681
  32 H :    0.030301
  33 H :    0.014565

  Mayer bond orders larger than 0.100000
B(  0-S ,  1-C ) :   1.1414 B(  0-S ,  4-C ) :   1.1368 B(  1-C ,  2-C ) :   1.6385
B(  1-C , 32-H ) :   0.9672 B(  2-C ,  3-C ) :   1.2203 B(  2-C ,  6-C ) :   1.0112
B(  3-C ,  4-C ) :   1.6162 B(  3-C ,  5-H ) :   1.0004 B(  4-C , 20-C ) :   1.0117
B(  6-C ,  7-H ) :   0.9520 B(  6-C ,  8-H ) :   0.9386 B(  6-C ,  9-C ) :   1.0627
B(  9-C , 10-H ) :   0.9450 B(  9-C , 11-H ) :   0.9537 B(  9-C , 12-C ) :   1.0927
B( 12-C , 13-H ) :   0.9748 B( 12-C , 14-H ) :   0.9727 B( 12-C , 15-H ) :   0.9680
B( 16-S , 17-C ) :   1.1231 B( 16-S , 20-C ) :   1.1420 B( 17-C , 18-C ) :   1.6849
B( 17-C , 33-H ) :   0.9606 B( 18-C , 19-C ) :   1.2014 B( 18-C , 21-H ) :   0.9812
B( 19-C , 20-C ) :   1.6145 B( 19-C , 22-C ) :   1.0535 B( 22-C , 23-H ) :   0.9348
B( 22-C , 24-H ) :   0.9310 B( 22-C , 25-C ) :   1.0539 B( 25-C , 26-H ) :   0.9532
B( 25-C , 27-H ) :   0.9608 B( 25-C , 28-C ) :   1.0815 B( 28-C , 29-H ) :   0.9770
B( 28-C , 30-H ) :   0.9738 B( 28-C , 31-H ) :   0.9753

Dispersion correction           -0.013722412
FINAL SINGLE POINT ENERGY     -1339.844353229667

DIPOLE MOMENT
-------------
                                X             Y             Z
Electronic contribution:    -15.49009     -21.04118      10.65759
Nuclear contribution   :     15.85971      21.47046     -10.79085
                        -----------------------------------------
Total Dipole Moment    :      0.36962       0.42928      -0.13326
                        -----------------------------------------
Magnitude (a.u.)       :      0.58194
Magnitude (Debye)      :      1.47917

Rotational constants in cm-1:     0.016081     0.008971     0.007033
Rotational constants in MHz :   482.095623   268.952358   210.847867

                             ****ORCA TERMINATED NORMALLY****
TOTAL RUN TIME: 0 days 0 hours 0 minutes 22 seconds 538 msec
