                         Program Version 4.2.1 -  RELEASE  -
|  1> ! wB97X-D3 SP def2-SVP
|  2> %pal
|  3> nprocs 24
|  4> end
|  5>
|  6> * xyz 0 1
|  7> S 	 -137.594 	 23.5973 	 -20.6161
|  8> C 	 -138.071 	 21.9927 	 -21.1726
|  9> C 	 -136.961 	 21.3218 	 -21.7275
| 10> C 	 -135.777 	 22.1116 	 -21.6107
| 11> C 	 -136.009 	 23.3539 	 -21.0869
| 12> H 	 -134.788 	 21.8269 	 -21.9884
| 13> C 	 -137.073 	 20.0244 	 -22.3397
| 14> H 	 -136.247 	 19.9291 	 -23.0652
| 15> H 	 -137.998 	 19.8867 	 -22.9087
| 16> C 	 -137.003 	 18.8445 	 -21.2778
| 17> H 	 -136.772 	 17.881 	 -21.7195
| 18> H 	 -136.093 	 18.97 	 -20.7204
| 19> C 	 -138.218 	 18.6775 	 -20.3742
| 20> H 	 -138.435 	 19.5695 	 -19.8642
| 21> H 	 -139.09 	 18.2858 	 -20.9376
| 22> H 	 -137.958 	 17.9604 	 -19.592
| 23> S 	 -135.417 	 25.8603 	 -21.8069
| 24> C 	 -133.838 	 26.5435 	 -21.4889
| 25> C 	 -133.046 	 25.5642 	 -20.8906
| 26> C 	 -133.739 	 24.3379 	 -20.5902
| 27> C 	 -135.012 	 24.3364 	 -21.0192
| 28> H 	 -132.032 	 25.6069 	 -20.5617
| 29> C 	 -132.98 	 23.1481 	 -19.952
| 30> H 	 -133.682 	 22.4311 	 -19.5196
| 31> H 	 -132.466 	 23.6148 	 -19.1055
| 32> C 	 -131.897 	 22.3845 	 -20.7422
| 33> H 	 -131.081 	 23.0764 	 -21.1297
| 34> H 	 -132.364 	 21.9714 	 -21.6768
| 35> C 	 -131.223 	 21.324 	 -19.8016
| 36> H 	 -130.902 	 21.7674 	 -18.8238
| 37> H 	 -130.43 	 20.7336 	 -20.1544
| 38> H 	 -132.037 	 20.6866 	 -19.4883
| 39> H 	 -139.089 	 21.7368 	 -21.4054
| 40> H 	 -133.534 	 27.5523 	 -21.5848
| 41> *
| 42>
| 43>                          ****END OF INPUT****

CARTESIAN COORDINATES (ANGSTROEM)
---------------------------------
  S    -137.594000   23.597300  -20.616100
  C    -138.071000   21.992700  -21.172600
  C    -136.961000   21.321800  -21.727500
  C    -135.777000   22.111600  -21.610700
  C    -136.009000   23.353900  -21.086900
  H    -134.788000   21.826900  -21.988400
  C    -137.073000   20.024400  -22.339700
  H    -136.247000   19.929100  -23.065200
  H    -137.998000   19.886700  -22.908700
  C    -137.003000   18.844500  -21.277800
  H    -136.772000   17.881000  -21.719500
  H    -136.093000   18.970000  -20.720400
  C    -138.218000   18.677500  -20.374200
  H    -138.435000   19.569500  -19.864200
  H    -139.090000   18.285800  -20.937600
  H    -137.958000   17.960400  -19.592000
  S    -135.417000   25.860300  -21.806900
  C    -133.838000   26.543500  -21.488900
  C    -133.046000   25.564200  -20.890600
  C    -133.739000   24.337900  -20.590200
  C    -135.012000   24.336400  -21.019200
  H    -132.032000   25.606900  -20.561700
  C    -132.980000   23.148100  -19.952000
  H    -133.682000   22.431100  -19.519600
  H    -132.466000   23.614800  -19.105500
  C    -131.897000   22.384500  -20.742200
  H    -131.081000   23.076400  -21.129700
  H    -132.364000   21.971400  -21.676800
  C    -131.223000   21.324000  -19.801600
  H    -130.902000   21.767400  -18.823800
  H    -130.430000   20.733600  -20.154400
  H    -132.037000   20.686600  -19.488300
  H    -139.089000   21.736800  -21.405400
  H    -133.534000   27.552300  -21.584800

 Total Charge           Charge          ....    0
 Multiplicity           Mult            ....    1
 Number of Electrons    NEL             ....  134
 Basis Dimension        Dim             ....  322

ORBITAL ENERGIES
----------------

  NO   OCC          E(Eh)            E(eV)
   0   2.0000     -88.967637     -2420.9325
   1   2.0000     -88.962256     -2420.7861
   2   2.0000     -10.318917      -280.7920
   3   2.0000     -10.318176      -280.7719
   4   2.0000     -10.317824      -280.7623
   5   2.0000     -10.312201      -280.6092
   6   2.0000     -10.302602      -280.3481
   7   2.0000     -10.300729      -280.2971
   8   2.0000     -10.298726      -280.2426
   9   2.0000     -10.296116      -280.1716
  10   2.0000     -10.293634      -280.1040
  11   2.0000     -10.292710      -280.0789
  12   2.0000     -10.292205      -280.0651
  13   2.0000     -10.285488      -279.8824
  14   2.0000     -10.282322      -279.7962
  15   2.0000     -10.273784      -279.5639
  16   2.0000      -8.083557      -219.9648
  17   2.0000      -8.077145      -219.7903
  18   2.0000      -6.041896      -164.4083
  19   2.0000      -6.037779      -164.2963
  20   2.0000      -6.035836      -164.2434
  21   2.0000      -6.034539      -164.2082
  22   2.0000      -6.031534      -164.1264
  23   2.0000      -6.027788      -164.0244
  24   2.0000      -1.018212       -27.7070
  25   2.0000      -0.986577       -26.8461
  26   2.0000      -0.917661       -24.9708
  27   2.0000      -0.904920       -24.6241
  28   2.0000      -0.872253       -23.7352
  29   2.0000      -0.855700       -23.2848
  30   2.0000      -0.846338       -23.0300
  31   2.0000      -0.813402       -22.1338
  32   2.0000      -0.783264       -21.3137
  33   2.0000      -0.775314       -21.0974
  34   2.0000      -0.711328       -19.3562
  35   2.0000      -0.701857       -19.0985
  36   2.0000      -0.699066       -19.0225
  37   2.0000      -0.670996       -18.2587
  38   2.0000      -0.643628       -17.5140
  39   2.0000      -0.620027       -16.8718
  40   2.0000      -0.598511       -16.2863
  41   2.0000      -0.568827       -15.4786
  42   2.0000      -0.559748       -15.2315
  43   2.0000      -0.545739       -14.8503
  44   2.0000      -0.543490       -14.7891
  45   2.0000      -0.528944       -14.3933
  46   2.0000      -0.520279       -14.1575
  47   2.0000      -0.518388       -14.1061
  48   2.0000      -0.510172       -13.8825
  49   2.0000      -0.496890       -13.5211
  50   2.0000      -0.491157       -13.3651
  51   2.0000      -0.478547       -13.0219
  52   2.0000      -0.472293       -12.8518
  53   2.0000      -0.463171       -12.6035
  54   2.0000      -0.459089       -12.4924
  55   2.0000      -0.453862       -12.3502
  56   2.0000      -0.449031       -12.2188
  57   2.0000      -0.439897       -11.9702
  58   2.0000      -0.435729       -11.8568
  59   2.0000      -0.425718       -11.5844
  60   2.0000      -0.419600       -11.4179
  61   2.0000      -0.418253       -11.3812
  62   2.0000      -0.413784       -11.2596
  63   2.0000      -0.343456        -9.3459
  64   2.0000      -0.332378        -9.0445
  65   2.0000      -0.327914        -8.9230
  66   2.0000      -0.295840        -8.0502
  67   0.0000       0.028222         0.7680
  68   0.0000       0.073088         1.9888
  69   0.0000       0.114379         3.1124
  70   0.0000       0.121951         3.3185
  71   0.0000       0.126534         3.4432

MULLIKEN ATOMIC CHARGES
-----------------------
   0 S :    0.126536
   1 C :   -0.118367
   2 C :   -0.086742
   3 C :    0.021330
   4 C :   -0.147426
   5 H :    0.005480
   6 C :    0.053912
   7 H :    0.023988
   8 H :    0.028874
   9 C :   -0.065566
  10 H :    0.018393
  11 H :    0.010963
  12 C :   -0.033736
  13 H :    0.029322
  14 H :    0.036331
  15 H :    0.032051
  16 S :    0.097097
  17 C :   -0.065092
  18 C :   -0.017544
  19 C :   -0.031771
  20 C :   -0.150650
  21 H :    0.003149
  22 C :    0.025844
  23 H :    0.030515
  24 H :    0.022937
  25 C :   -0.085598
  26 H :    0.036058
  27 H :    0.040434
  28 C :   -0.032554
  29 H :    0.029515
  30 H :    0.035743
  31 H :    0.021861
  32 H :    0.052688
  33 H :    0.052026
Sum of atomic charges:    0.0000000

LOEWDIN ATOMIC CHARGES
----------------------
   0 S :    0.441940
   1 C :   -0.204870
   2 C :   -0.054983
   3 C :   -0.061668
   4 C :   -0.225296
   5 H :    0.032279
   6 C :   -0.036286
   7 H :    0.034158
   8 H :    0.032308
   9 C :   -0.036221
  10 H :    0.021433
  11 H :    0.019614
  12 C :   -0.063164
  13 H :    0.017059
  14 H :    0.028429
  15 H :    0.031473
  16 S :    0.397047
  17 C :   -0.179749
  18 C :   -0.062553
  19 C :   -0.061652
  20 C :   -0.189596
  21 H :    0.024233
  22 C :   -0.034314
  23 H :    0.029831
  24 H :    0.031452
  25 C :   -0.043504
  26 H :    0.026863
  27 H :    0.024200
  28 C :   -0.065336
  29 H :    0.031781
  30 H :    0.019446
  31 H :    0.024835
  32 H :    0.024581
  33 H :    0.026230

  Mayer bond orders larger than 0.100000
B(  0-S ,  1-C ) :   1.1349 B(  0-S ,  4-C ) :   1.1837 B(  1-C ,  2-C ) :   1.5690
B(  1-C , 32-H ) :   0.9642 B(  2-C ,  3-C ) :   1.2648 B(  2-C ,  6-C ) :   1.0526
B(  3-C ,  4-C ) :   1.5290 B(  3-C ,  5-H ) :   0.9948 B(  4-C , 20-C ) :   1.0419
B(  6-C ,  7-H ) :   0.9342 B(  6-C ,  8-H ) :   0.9419 B(  6-C ,  9-C ) :   1.0557
B(  9-C , 10-H ) :   0.9559 B(  9-C , 11-H ) :   0.9536 B(  9-C , 12-C ) :   1.0858
B( 12-C , 13-H ) :   0.9698 B( 12-C , 14-H ) :   0.9750 B( 12-C , 15-H ) :   0.9689
B( 16-S , 17-C ) :   1.1431 B( 16-S , 20-C ) :   1.1231 B( 17-C , 18-C ) :   1.5892
B( 17-C , 33-H ) :   0.9764 B( 18-C , 19-C ) :   1.2416 B( 18-C , 21-H ) :   0.9871
B( 19-C , 20-C ) :   1.6424 B( 19-C , 22-C ) :   1.0373 B( 22-C , 23-H ) :   0.9393
B( 22-C , 24-H ) :   0.9302 B( 22-C , 25-C ) :   1.0568 B( 25-C , 26-H ) :   0.9532
B( 25-C , 27-H ) :   0.9551 B( 25-C , 28-C ) :   1.0605 B( 28-C , 29-H ) :   0.9743
B( 28-C , 30-H ) :   0.9773 B( 28-C , 31-H ) :   0.9747

Dispersion correction           -0.014412033
FINAL SINGLE POINT ENERGY     -1339.879715260251

DIPOLE MOMENT
-------------
                                X             Y             Z
Electronic contribution:    -11.18265      27.08548      -4.26944
Nuclear contribution   :     11.61222     -27.62378       4.25106
                        -----------------------------------------
Total Dipole Moment    :      0.42958      -0.53830      -0.01838
                        -----------------------------------------
Magnitude (a.u.)       :      0.68894
Magnitude (Debye)      :      1.75115

Rotational constants in cm-1:     0.017970     0.009406     0.006656
Rotational constants in MHz :   538.734039   281.977317   199.528559

                             ****ORCA TERMINATED NORMALLY****
TOTAL RUN TIME: 0 days 0 hours 0 minutes 21 seconds 793 msec
