                         Program Version 4.2.1 -  RELEASE  -
|  1> ! wB97X-D3 SP def2-SVP
|  2> %pal
|  3> nprocs 24
|  4> end
|  5>
|  6> * xyz 0 1
|  7> S 	 -139.437 	 4.40682 	 3.35715
|  8> C 	 -139.249 	 2.99724 	 2.30837
|  9> C 	 -138.799 	 1.88635 	 2.95866
| 10> C 	 -138.667 	 2.23318 	 4.35698
| 11> C 	 -138.834 	 3.56096 	 4.6938
| 12> H 	 -138.46 	 1.62085 	 5.14736
| 13> C 	 -138.565 	 0.453113 	 2.38607
| 14> H 	 -138.284 	 0.495972 	 1.32339
| 15> H 	 -139.57 	 0.02129 	 2.31614
| 16> C 	 -137.67 	 -0.481066 	 3.23817
| 17> H 	 -136.667 	 -0.0426237 	 3.4184
| 18> H 	 -138.164 	 -0.62741 	 4.192
| 19> C 	 -137.578 	 -1.86356 	 2.51241
| 20> H 	 -138.554 	 -2.30065 	 2.41732
| 21> H 	 -136.999 	 -1.6498 	 1.58976
| 22> H 	 -137.013 	 -2.65 	 3.01819
| 23> S 	 -137.481 	 5.70767 	 5.69696
| 24> C 	 -137.447 	 6.06843 	 7.39983
| 25> C 	 -138.013 	 4.97637 	 8.04628
| 26> C 	 -138.635 	 3.89271 	 7.2732
| 27> C 	 -138.497 	 4.25434 	 5.93093
| 28> H 	 -138.055 	 5.0305 	 9.14667
| 29> C 	 -139.479 	 2.84406 	 7.88905
| 30> H 	 -140.097 	 2.41197 	 7.07578
| 31> H 	 -140.068 	 3.34846 	 8.56745
| 32> C 	 -138.774 	 1.75009 	 8.71301
| 33> H 	 -139.493 	 1.17954 	 9.28332
| 34> H 	 -138.125 	 2.28045 	 9.42288
| 35> C 	 -137.896 	 0.737785 	 7.85001
| 36> H 	 -137.353 	 0.171793 	 8.57357
| 37> H 	 -137.226 	 1.29746 	 7.21165
| 38> H 	 -138.484 	 0.125529 	 7.2021
| 39> H 	 -139.562 	 3.18392 	 1.27846
| 40> H 	 -137.094 	 6.99298 	 7.92284
| 41> *
| 42>
| 43>                          ****END OF INPUT****

CARTESIAN COORDINATES (ANGSTROEM)
---------------------------------
  S    -139.437000    4.406820    3.357150
  C    -139.249000    2.997240    2.308370
  C    -138.799000    1.886350    2.958660
  C    -138.667000    2.233180    4.356980
  C    -138.834000    3.560960    4.693800
  H    -138.460000    1.620850    5.147360
  C    -138.565000    0.453113    2.386070
  H    -138.284000    0.495972    1.323390
  H    -139.570000    0.021290    2.316140
  C    -137.670000   -0.481066    3.238170
  H    -136.667000   -0.042624    3.418400
  H    -138.164000   -0.627410    4.192000
  C    -137.578000   -1.863560    2.512410
  H    -138.554000   -2.300650    2.417320
  H    -136.999000   -1.649800    1.589760
  H    -137.013000   -2.650000    3.018190
  S    -137.481000    5.707670    5.696960
  C    -137.447000    6.068430    7.399830
  C    -138.013000    4.976370    8.046280
  C    -138.635000    3.892710    7.273200
  C    -138.497000    4.254340    5.930930
  H    -138.055000    5.030500    9.146670
  C    -139.479000    2.844060    7.889050
  H    -140.097000    2.411970    7.075780
  H    -140.068000    3.348460    8.567450
  C    -138.774000    1.750090    8.713010
  H    -139.493000    1.179540    9.283320
  H    -138.125000    2.280450    9.422880
  C    -137.896000    0.737785    7.850010
  H    -137.353000    0.171793    8.573570
  H    -137.226000    1.297460    7.211650
  H    -138.484000    0.125529    7.202100
  H    -139.562000    3.183920    1.278460
  H    -137.094000    6.992980    7.922840

 Total Charge           Charge          ....    0
 Multiplicity           Mult            ....    1
 Number of Electrons    NEL             ....  134
 Basis Dimension        Dim             ....  322

ORBITAL ENERGIES
----------------

  NO   OCC          E(Eh)            E(eV)
   0   2.0000     -88.962213     -2420.7849
   1   2.0000     -88.959847     -2420.7205
   2   2.0000     -10.331069      -281.1227
   3   2.0000     -10.321075      -280.8507
   4   2.0000     -10.320284      -280.8292
   5   2.0000     -10.313809      -280.6530
   6   2.0000     -10.308597      -280.5112
   7   2.0000     -10.307226      -280.4739
   8   2.0000     -10.302147      -280.3357
   9   2.0000     -10.296805      -280.1903
  10   2.0000     -10.295211      -280.1469
  11   2.0000     -10.292813      -280.0817
  12   2.0000     -10.288854      -279.9739
  13   2.0000     -10.286158      -279.9006
  14   2.0000     -10.283693      -279.8335
  15   2.0000     -10.276924      -279.6493
  16   2.0000      -8.076554      -219.7742
  17   2.0000      -8.075887      -219.7561
  18   2.0000      -6.035229      -164.2269
  19   2.0000      -6.034195      -164.1988
  20   2.0000      -6.031092      -164.1144
  21   2.0000      -6.030227      -164.0908
  22   2.0000      -6.027139      -164.0068
  23   2.0000      -6.026750      -163.9962
  24   2.0000      -1.007924       -27.4270
  25   2.0000      -0.980873       -26.6909
  26   2.0000      -0.911766       -24.8104
  27   2.0000      -0.908471       -24.7208
  28   2.0000      -0.869185       -23.6517
  29   2.0000      -0.848703       -23.0944
  30   2.0000      -0.840165       -22.8621
  31   2.0000      -0.810332       -22.0503
  32   2.0000      -0.786178       -21.3930
  33   2.0000      -0.777020       -21.1438
  34   2.0000      -0.713716       -19.4212
  35   2.0000      -0.701925       -19.1004
  36   2.0000      -0.686938       -18.6925
  37   2.0000      -0.659197       -17.9377
  38   2.0000      -0.643674       -17.5153
  39   2.0000      -0.619278       -16.8514
  40   2.0000      -0.593569       -16.1518
  41   2.0000      -0.572697       -15.5839
  42   2.0000      -0.559114       -15.2143
  43   2.0000      -0.555170       -15.1069
  44   2.0000      -0.543779       -14.7970
  45   2.0000      -0.526787       -14.3346
  46   2.0000      -0.515626       -14.0309
  47   2.0000      -0.515033       -14.0148
  48   2.0000      -0.506660       -13.7869
  49   2.0000      -0.497255       -13.5310
  50   2.0000      -0.490867       -13.3572
  51   2.0000      -0.479679       -13.0527
  52   2.0000      -0.467356       -12.7174
  53   2.0000      -0.465200       -12.6587
  54   2.0000      -0.461521       -12.5586
  55   2.0000      -0.449498       -12.2315
  56   2.0000      -0.445045       -12.1103
  57   2.0000      -0.435251       -11.8438
  58   2.0000      -0.430123       -11.7043
  59   2.0000      -0.427827       -11.6418
  60   2.0000      -0.424755       -11.5582
  61   2.0000      -0.421222       -11.4620
  62   2.0000      -0.414721       -11.2851
  63   2.0000      -0.346543        -9.4299
  64   2.0000      -0.330094        -8.9823
  65   2.0000      -0.322831        -8.7847
  66   2.0000      -0.291389        -7.9291
  67   0.0000       0.029540         0.8038
  68   0.0000       0.078442         2.1345
  69   0.0000       0.114762         3.1228
  70   0.0000       0.118857         3.2343
  71   0.0000       0.126506         3.4424

MULLIKEN ATOMIC CHARGES
-----------------------
   0 S :    0.101525
   1 C :   -0.168713
   2 C :   -0.010128
   3 C :    0.069279
   4 C :   -0.162172
   5 H :   -0.091556
   6 C :    0.050238
   7 H :    0.026891
   8 H :    0.037994
   9 C :   -0.094626
  10 H :    0.049866
  11 H :    0.038353
  12 C :   -0.049164
  13 H :    0.031839
  14 H :    0.041644
  15 H :    0.032341
  16 S :    0.098327
  17 C :   -0.104979
  18 C :   -0.064866
  19 C :   -0.021411
  20 C :   -0.149436
  21 H :    0.018919
  22 C :    0.096567
  23 H :    0.032831
  24 H :    0.014065
  25 C :   -0.093032
  26 H :    0.031491
  27 H :    0.028373
  28 C :   -0.034880
  29 H :    0.033604
  30 H :    0.044889
  31 H :    0.032614
  32 H :    0.053498
  33 H :    0.079815
Sum of atomic charges:   -0.0000000

LOEWDIN ATOMIC CHARGES
----------------------
   0 S :    0.418712
   1 C :   -0.188141
   2 C :   -0.057157
   3 C :   -0.058204
   4 C :   -0.216713
   5 H :    0.006386
   6 C :   -0.031110
   7 H :    0.031751
   8 H :    0.036997
   9 C :   -0.039418
  10 H :    0.030081
  11 H :    0.021801
  12 C :   -0.066013
  13 H :    0.023527
  14 H :    0.031643
  15 H :    0.025672
  16 S :    0.390440
  17 C :   -0.206175
  18 C :   -0.074935
  19 C :   -0.057883
  20 C :   -0.179036
  21 H :    0.025396
  22 C :   -0.029568
  23 H :    0.036305
  24 H :    0.026930
  25 C :   -0.028918
  26 H :    0.022243
  27 H :    0.023934
  28 C :   -0.058790
  29 H :    0.025485
  30 H :    0.024778
  31 H :    0.018063
  32 H :    0.024654
  33 H :    0.047265

  Mayer bond orders larger than 0.100000
B(  0-S ,  1-C ) :   1.1493 B(  0-S ,  4-C ) :   1.1619 B(  1-C ,  2-C ) :   1.6002
B(  1-C , 32-H ) :   0.9749 B(  2-C ,  3-C ) :   1.2319 B(  2-C ,  6-C ) :   0.9975
B(  3-C ,  4-C ) :   1.5776 B(  3-C ,  5-H ) :   1.0028 B(  4-C , 20-C ) :   1.0215
B(  6-C ,  7-H ) :   0.9478 B(  6-C ,  8-H ) :   0.9361 B(  6-C ,  9-C ) :   1.0628
B(  9-C , 10-H ) :   0.9638 B(  9-C , 11-H ) :   0.9451 B(  9-C , 12-C ) :   1.0794
B( 12-C , 13-H ) :   0.9746 B( 12-C , 14-H ) :   0.9766 B( 12-C , 15-H ) :   0.9753
B( 16-S , 17-C ) :   1.1239 B( 16-S , 20-C ) :   1.1475 B( 17-C , 18-C ) :   1.6414
B( 17-C , 33-H ) :   0.9634 B( 18-C , 19-C ) :   1.2000 B( 18-C , 21-H ) :   0.9755
B( 19-C , 20-C ) :   1.5860 B( 19-C , 22-C ) :   1.0492 B( 22-C , 23-H ) :   0.9348
B( 22-C , 24-H ) :   0.9259 B( 22-C , 25-C ) :   1.0727 B( 25-C , 26-H ) :   0.9572
B( 25-C , 27-H ) :   0.9585 B( 25-C , 28-C ) :   1.0733 B( 28-C , 29-H ) :   0.9718
B( 28-C , 30-H ) :   0.9707 B( 28-C , 31-H ) :   0.9725

Dispersion correction           -0.014572916
FINAL SINGLE POINT ENERGY     -1339.872600504987

DIPOLE MOMENT
-------------
                                X             Y             Z
Electronic contribution:     -2.44621      30.11285      -5.20904
Nuclear contribution   :      2.34536     -30.78946       5.50727
                        -----------------------------------------
Total Dipole Moment    :     -0.10086      -0.67661       0.29822
                        -----------------------------------------
Magnitude (a.u.)       :      0.74627
Magnitude (Debye)      :      1.89686

Rotational constants in cm-1:     0.017784     0.009318     0.006782
Rotational constants in MHz :   533.143183   279.333083   203.318633

                             ****ORCA TERMINATED NORMALLY****
TOTAL RUN TIME: 0 days 0 hours 0 minutes 21 seconds 939 msec
