                         Program Version 4.2.1 -  RELEASE  -
|  1> ! wB97X-D3 SP def2-SVP
|  2> %pal
|  3> nprocs 24
|  4> end
|  5>
|  6> * xyz 0 1
|  7> S 	 -121.195 	 66.5354 	 -64.5957
|  8> C 	 -121.791 	 64.9384 	 -65.0787
|  9> C 	 -121.281 	 63.9984 	 -64.1741
| 10> C 	 -120.683 	 64.5979 	 -63.0482
| 11> C 	 -120.626 	 65.9623 	 -63.0259
| 12> H 	 -120.311 	 63.9819 	 -62.1909
| 13> C 	 -121.418 	 62.4844 	 -64.3728
| 14> H 	 -120.521 	 62.2389 	 -64.8909
| 15> H 	 -122.226 	 62.3418 	 -65.0183
| 16> C 	 -121.573 	 61.7698 	 -63
| 17> H 	 -120.739 	 62.0541 	 -62.4021
| 18> H 	 -122.435 	 62.0687 	 -62.3938
| 19> C 	 -121.626 	 60.2789 	 -62.9736
| 20> H 	 -122.281 	 59.9178 	 -63.7752
| 21> H 	 -120.687 	 59.928 	 -63.2781
| 22> H 	 -121.919 	 59.8691 	 -62.0238
| 23> S 	 -119.236 	 68.1645 	 -62.2162
| 24> C 	 -119.222 	 68.6213 	 -60.5436
| 25> C 	 -119.788 	 67.6063 	 -59.7804
| 26> C 	 -120.436 	 66.5493 	 -60.5277
| 27> C 	 -120.251 	 66.7836 	 -61.9174
| 28> H 	 -119.856 	 67.8436 	 -58.7287
| 29> C 	 -121.13 	 65.4176 	 -59.877
| 30> H 	 -121.78 	 64.9877 	 -60.5817
| 31> H 	 -121.803 	 65.7794 	 -59.086
| 32> C 	 -120.236 	 64.3002 	 -59.3805
| 33> H 	 -119.508 	 63.9903 	 -60.1624
| 34> H 	 -120.855 	 63.3647 	 -59.1745
| 35> C 	 -119.425 	 64.7214 	 -58.1043
| 36> H 	 -118.955 	 63.8625 	 -57.728
| 37> H 	 -120.128 	 64.9236 	 -57.3199
| 38> H 	 -118.667 	 65.4907 	 -58.2277
| 39> H 	 -122.287 	 64.6723 	 -66.0297
| 40> H 	 -118.779 	 69.576 	 -60.1632
| 41> *
| 42>
| 43>                          ****END OF INPUT****

CARTESIAN COORDINATES (ANGSTROEM)
---------------------------------
  S    -121.195000   66.535400  -64.595700
  C    -121.791000   64.938400  -65.078700
  C    -121.281000   63.998400  -64.174100
  C    -120.683000   64.597900  -63.048200
  C    -120.626000   65.962300  -63.025900
  H    -120.311000   63.981900  -62.190900
  C    -121.418000   62.484400  -64.372800
  H    -120.521000   62.238900  -64.890900
  H    -122.226000   62.341800  -65.018300
  C    -121.573000   61.769800  -63.000000
  H    -120.739000   62.054100  -62.402100
  H    -122.435000   62.068700  -62.393800
  C    -121.626000   60.278900  -62.973600
  H    -122.281000   59.917800  -63.775200
  H    -120.687000   59.928000  -63.278100
  H    -121.919000   59.869100  -62.023800
  S    -119.236000   68.164500  -62.216200
  C    -119.222000   68.621300  -60.543600
  C    -119.788000   67.606300  -59.780400
  C    -120.436000   66.549300  -60.527700
  C    -120.251000   66.783600  -61.917400
  H    -119.856000   67.843600  -58.728700
  C    -121.130000   65.417600  -59.877000
  H    -121.780000   64.987700  -60.581700
  H    -121.803000   65.779400  -59.086000
  C    -120.236000   64.300200  -59.380500
  H    -119.508000   63.990300  -60.162400
  H    -120.855000   63.364700  -59.174500
  C    -119.425000   64.721400  -58.104300
  H    -118.955000   63.862500  -57.728000
  H    -120.128000   64.923600  -57.319900
  H    -118.667000   65.490700  -58.227700
  H    -122.287000   64.672300  -66.029700
  H    -118.779000   69.576000  -60.163200

 Total Charge           Charge          ....    0
 Multiplicity           Mult            ....    1
 Number of Electrons    NEL             ....  134
 Basis Dimension        Dim             ....  322

ORBITAL ENERGIES
----------------

  NO   OCC          E(Eh)            E(eV)
   0   2.0000     -88.965026     -2420.8614
   1   2.0000     -88.963777     -2420.8274
   2   2.0000     -10.328779      -281.0604
   3   2.0000     -10.327254      -281.0189
   4   2.0000     -10.319685      -280.8129
   5   2.0000     -10.318592      -280.7832
   6   2.0000     -10.308235      -280.5013
   7   2.0000     -10.300627      -280.2943
   8   2.0000     -10.297541      -280.2103
   9   2.0000     -10.294798      -280.1357
  10   2.0000     -10.291885      -280.0564
  11   2.0000     -10.291175      -280.0371
  12   2.0000     -10.284884      -279.8659
  13   2.0000     -10.283715      -279.8341
  14   2.0000     -10.272355      -279.5250
  15   2.0000     -10.270589      -279.4769
  16   2.0000      -8.080273      -219.8754
  17   2.0000      -8.077843      -219.8093
  18   2.0000      -6.038697      -164.3213
  19   2.0000      -6.036478      -164.2609
  20   2.0000      -6.034662      -164.2115
  21   2.0000      -6.032448      -164.1513
  22   2.0000      -6.031147      -164.1159
  23   2.0000      -6.028486      -164.0434
  24   2.0000      -1.007095       -27.4044
  25   2.0000      -0.982912       -26.7464
  26   2.0000      -0.915913       -24.9233
  27   2.0000      -0.914009       -24.8714
  28   2.0000      -0.873854       -23.7788
  29   2.0000      -0.850250       -23.1365
  30   2.0000      -0.843955       -22.9652
  31   2.0000      -0.816577       -22.2202
  32   2.0000      -0.789744       -21.4900
  33   2.0000      -0.773326       -21.0433
  34   2.0000      -0.715995       -19.4832
  35   2.0000      -0.701710       -19.0945
  36   2.0000      -0.689313       -18.7572
  37   2.0000      -0.659039       -17.9334
  38   2.0000      -0.635273       -17.2867
  39   2.0000      -0.620730       -16.8909
  40   2.0000      -0.598282       -16.2801
  41   2.0000      -0.572920       -15.5899
  42   2.0000      -0.563984       -15.3468
  43   2.0000      -0.552474       -15.0336
  44   2.0000      -0.545679       -14.8487
  45   2.0000      -0.537269       -14.6198
  46   2.0000      -0.515834       -14.0365
  47   2.0000      -0.507893       -13.8205
  48   2.0000      -0.505143       -13.7457
  49   2.0000      -0.504714       -13.7340
  50   2.0000      -0.493161       -13.4196
  51   2.0000      -0.490567       -13.3490
  52   2.0000      -0.480153       -13.0656
  53   2.0000      -0.470326       -12.7982
  54   2.0000      -0.455731       -12.4011
  55   2.0000      -0.447395       -12.1742
  56   2.0000      -0.439987       -11.9726
  57   2.0000      -0.437940       -11.9169
  58   2.0000      -0.434190       -11.8149
  59   2.0000      -0.425950       -11.5907
  60   2.0000      -0.418889       -11.3985
  61   2.0000      -0.415011       -11.2930
  62   2.0000      -0.411404       -11.1949
  63   2.0000      -0.352280        -9.5860
  64   2.0000      -0.330309        -8.9882
  65   2.0000      -0.327892        -8.9224
  66   2.0000      -0.285018        -7.7557
  67   0.0000       0.020797         0.5659
  68   0.0000       0.076142         2.0719
  69   0.0000       0.108702         2.9579
  70   0.0000       0.121580         3.3084
  71   0.0000       0.132036         3.5929

MULLIKEN ATOMIC CHARGES
-----------------------
   0 S :    0.102221
   1 C :   -0.140303
   2 C :   -0.124160
   3 C :   -0.011731
   4 C :   -0.114805
   5 H :    0.006693
   6 C :    0.158357
   7 H :    0.036889
   8 H :    0.005547
   9 C :   -0.134355
  10 H :    0.025459
  11 H :    0.032372
  12 C :    0.015585
  13 H :    0.017678
  14 H :    0.005177
  15 H :    0.034099
  16 S :    0.109262
  17 C :   -0.121853
  18 C :   -0.039574
  19 C :   -0.045493
  20 C :   -0.145678
  21 H :    0.022434
  22 C :    0.102784
  23 H :    0.010512
  24 H :    0.029773
  25 C :   -0.128255
  26 H :    0.047175
  27 H :    0.041488
  28 C :   -0.013816
  29 H :    0.011834
  30 H :    0.015154
  31 H :    0.051547
  32 H :    0.060247
  33 H :    0.077737
Sum of atomic charges:   -0.0000000

LOEWDIN ATOMIC CHARGES
----------------------
   0 S :    0.388416
   1 C :   -0.199657
   2 C :   -0.061096
   3 C :   -0.075454
   4 C :   -0.190883
   5 H :    0.034470
   6 C :   -0.013865
   7 H :    0.034720
   8 H :    0.021688
   9 C :   -0.044605
  10 H :    0.017378
  11 H :    0.027747
  12 C :   -0.057265
  13 H :    0.025426
  14 H :    0.015428
  15 H :    0.026447
  16 S :    0.416464
  17 C :   -0.200948
  18 C :   -0.074483
  19 C :   -0.046921
  20 C :   -0.197440
  21 H :    0.030524
  22 C :   -0.039308
  23 H :    0.025652
  24 H :    0.035726
  25 C :   -0.038130
  26 H :    0.023743
  27 H :    0.031982
  28 C :   -0.063859
  29 H :    0.019757
  30 H :    0.022301
  31 H :    0.028747
  32 H :    0.036239
  33 H :    0.041060

  Mayer bond orders larger than 0.100000
B(  0-S ,  1-C ) :   1.1339 B(  0-S ,  4-C ) :   1.1372 B(  1-C ,  2-C ) :   1.5938
B(  1-C ,  4-C ) :   0.1047 B(  1-C , 32-H ) :   0.9665 B(  2-C ,  3-C ) :   1.2719
B(  2-C ,  6-C ) :   1.0036 B(  3-C ,  4-C ) :   1.5450 B(  3-C ,  5-H ) :   0.9814
B(  4-C , 20-C ) :   1.0783 B(  6-C ,  7-H ) :   0.9289 B(  6-C ,  8-H ) :   0.9368
B(  6-C ,  9-C ) :   1.0655 B(  9-C , 10-H ) :   0.9462 B(  9-C , 11-H ) :   0.9627
B(  9-C , 12-C ) :   1.0998 B( 12-C , 13-H ) :   0.9699 B( 12-C , 14-H ) :   0.9703
B( 12-C , 15-H ) :   0.9725 B( 16-S , 17-C ) :   1.1546 B( 16-S , 20-C ) :   1.1575
B( 17-C , 18-C ) :   1.6005 B( 17-C , 20-C ) :   0.1013 B( 17-C , 33-H ) :   0.9631
B( 18-C , 19-C ) :   1.2384 B( 18-C , 21-H ) :   0.9852 B( 19-C , 20-C ) :   1.5505
B( 19-C , 22-C ) :   1.0646 B( 22-C , 23-H ) :   0.9144 B( 22-C , 24-H ) :   0.9297
B( 22-C , 25-C ) :   1.0697 B( 25-C , 26-H ) :   0.9433 B( 25-C , 27-H ) :   0.9554
B( 25-C , 28-C ) :   1.0810 B( 28-C , 29-H ) :   0.9682 B( 28-C , 30-H ) :   0.9721
B( 28-C , 31-H ) :   0.9718

Dispersion correction           -0.014967123
FINAL SINGLE POINT ENERGY     -1339.873582932591

DIPOLE MOMENT
-------------
                                X             Y             Z
Electronic contribution:      3.29487      28.10945     -15.09515
Nuclear contribution   :     -3.35899     -28.78682      15.53084
                        -----------------------------------------
Total Dipole Moment    :     -0.06411      -0.67737       0.43569
                        -----------------------------------------
Magnitude (a.u.)       :      0.80794
Magnitude (Debye)      :      2.05363

Rotational constants in cm-1:     0.017406     0.010153     0.006701
Rotational constants in MHz :   521.825655   304.386481   200.880981

                             ****ORCA TERMINATED NORMALLY****
TOTAL RUN TIME: 0 days 0 hours 0 minutes 21 seconds 403 msec
