                         Program Version 4.2.1 -  RELEASE  -
|  1> ! wB97X-D3 SP def2-SVP
|  2> %pal
|  3> nprocs 24
|  4> end
|  5>
|  6> * xyz 0 1
|  7> S 	 -133.666 	 60.487 	 -63.1837
|  8> C 	 -133.523 	 62.1282 	 -63.6969
|  9> C 	 -132.381 	 62.6874 	 -63.2118
| 10> C 	 -131.64 	 61.8028 	 -62.3472
| 11> C 	 -132.204 	 60.5534 	 -62.2517
| 12> H 	 -130.731 	 62.0062 	 -61.7842
| 13> C 	 -131.897 	 64.0567 	 -63.5289
| 14> H 	 -132.31 	 64.4182 	 -64.5281
| 15> H 	 -130.818 	 64.1355 	 -63.7348
| 16> C 	 -132.385 	 65.1302 	 -62.4925
| 17> H 	 -131.893 	 64.7568 	 -61.5934
| 18> H 	 -131.959 	 66.0549 	 -62.7356
| 19> C 	 -133.894 	 65.2946 	 -62.2449
| 20> H 	 -134.369 	 64.4347 	 -61.7118
| 21> H 	 -134.041 	 66.0846 	 -61.5535
| 22> H 	 -134.384 	 65.6045 	 -63.1694
| 23> S 	 -132.94 	 58.9824 	 -60.0545
| 24> C 	 -131.654 	 57.9944 	 -59.3174
| 25> C 	 -130.433 	 58.2403 	 -59.9299
| 26> C 	 -130.461 	 59.1502 	 -61.0636
| 27> C 	 -131.773 	 59.5562 	 -61.2855
| 28> H 	 -129.664 	 57.6911 	 -59.5073
| 29> C 	 -129.236 	 59.4775 	 -61.8891
| 30> H 	 -128.819 	 60.3633 	 -61.4808
| 31> H 	 -129.499 	 59.8564 	 -62.9609
| 32> C 	 -128.092 	 58.462 	 -61.9251
| 33> H 	 -127.847 	 58.1854 	 -60.8988
| 34> H 	 -127.176 	 58.8809 	 -62.4565
| 35> C 	 -128.477 	 57.1808 	 -62.7806
| 36> H 	 -127.73 	 56.529 	 -63.2603
| 37> H 	 -129.128 	 57.4399 	 -63.6226
| 38> H 	 -129.154 	 56.4804 	 -62.2858
| 39> H 	 -134.148 	 62.5897 	 -64.3999
| 40> H 	 -131.694 	 57.3224 	 -58.4129
| 41> *
| 42>
| 43>                          ****END OF INPUT****

CARTESIAN COORDINATES (ANGSTROEM)
---------------------------------
  S    -133.666000   60.487000  -63.183700
  C    -133.523000   62.128200  -63.696900
  C    -132.381000   62.687400  -63.211800
  C    -131.640000   61.802800  -62.347200
  C    -132.204000   60.553400  -62.251700
  H    -130.731000   62.006200  -61.784200
  C    -131.897000   64.056700  -63.528900
  H    -132.310000   64.418200  -64.528100
  H    -130.818000   64.135500  -63.734800
  C    -132.385000   65.130200  -62.492500
  H    -131.893000   64.756800  -61.593400
  H    -131.959000   66.054900  -62.735600
  C    -133.894000   65.294600  -62.244900
  H    -134.369000   64.434700  -61.711800
  H    -134.041000   66.084600  -61.553500
  H    -134.384000   65.604500  -63.169400
  S    -132.940000   58.982400  -60.054500
  C    -131.654000   57.994400  -59.317400
  C    -130.433000   58.240300  -59.929900
  C    -130.461000   59.150200  -61.063600
  C    -131.773000   59.556200  -61.285500
  H    -129.664000   57.691100  -59.507300
  C    -129.236000   59.477500  -61.889100
  H    -128.819000   60.363300  -61.480800
  H    -129.499000   59.856400  -62.960900
  C    -128.092000   58.462000  -61.925100
  H    -127.847000   58.185400  -60.898800
  H    -127.176000   58.880900  -62.456500
  C    -128.477000   57.180800  -62.780600
  H    -127.730000   56.529000  -63.260300
  H    -129.128000   57.439900  -63.622600
  H    -129.154000   56.480400  -62.285800
  H    -134.148000   62.589700  -64.399900
  H    -131.694000   57.322400  -58.412900

 Total Charge           Charge          ....    0
 Multiplicity           Mult            ....    1
 Number of Electrons    NEL             ....  134
 Basis Dimension        Dim             ....  322

ORBITAL ENERGIES
----------------

  NO   OCC          E(Eh)            E(eV)
   0   2.0000     -88.967989     -2420.9421
   1   2.0000     -88.964734     -2420.8535
   2   2.0000     -10.330128      -281.0971
   3   2.0000     -10.324828      -280.9529
   4   2.0000     -10.323253      -280.9100
   5   2.0000     -10.310479      -280.5624
   6   2.0000     -10.308150      -280.4990
   7   2.0000     -10.301477      -280.3174
   8   2.0000     -10.300214      -280.2831
   9   2.0000     -10.298325      -280.2317
  10   2.0000     -10.295205      -280.1468
  11   2.0000     -10.293610      -280.1034
  12   2.0000     -10.292351      -280.0691
  13   2.0000     -10.282917      -279.8124
  14   2.0000     -10.276795      -279.6458
  15   2.0000     -10.276615      -279.6409
  16   2.0000      -8.081394      -219.9059
  17   2.0000      -8.080238      -219.8745
  18   2.0000      -6.040090      -164.3592
  19   2.0000      -6.038716      -164.3218
  20   2.0000      -6.036201      -164.2534
  21   2.0000      -6.034565      -164.2089
  22   2.0000      -6.031910      -164.1366
  23   2.0000      -6.031054      -164.1133
  24   2.0000      -1.008349       -27.4386
  25   2.0000      -0.980541       -26.6819
  26   2.0000      -0.908985       -24.7347
  27   2.0000      -0.905213       -24.6321
  28   2.0000      -0.871137       -23.7049
  29   2.0000      -0.848441       -23.0872
  30   2.0000      -0.838776       -22.8243
  31   2.0000      -0.814793       -22.1716
  32   2.0000      -0.784498       -21.3473
  33   2.0000      -0.776228       -21.1222
  34   2.0000      -0.710962       -19.3463
  35   2.0000      -0.696910       -18.9639
  36   2.0000      -0.696160       -18.9435
  37   2.0000      -0.654357       -17.8060
  38   2.0000      -0.643602       -17.5133
  39   2.0000      -0.619030       -16.8447
  40   2.0000      -0.595643       -16.2083
  41   2.0000      -0.572545       -15.5798
  42   2.0000      -0.550397       -14.9771
  43   2.0000      -0.548171       -14.9165
  44   2.0000      -0.543313       -14.7843
  45   2.0000      -0.534351       -14.5404
  46   2.0000      -0.516431       -14.0528
  47   2.0000      -0.510807       -13.8998
  48   2.0000      -0.498385       -13.5617
  49   2.0000      -0.492884       -13.4120
  50   2.0000      -0.486924       -13.2499
  51   2.0000      -0.477046       -12.9811
  52   2.0000      -0.467222       -12.7138
  53   2.0000      -0.462426       -12.5833
  54   2.0000      -0.457604       -12.4520
  55   2.0000      -0.447344       -12.1729
  56   2.0000      -0.441959       -12.0263
  57   2.0000      -0.439782       -11.9671
  58   2.0000      -0.432884       -11.7794
  59   2.0000      -0.425954       -11.5908
  60   2.0000      -0.422030       -11.4840
  61   2.0000      -0.419121       -11.4049
  62   2.0000      -0.406227       -11.0540
  63   2.0000      -0.349745        -9.5171
  64   2.0000      -0.330753        -9.0002
  65   2.0000      -0.327144        -8.9021
  66   2.0000      -0.293645        -7.9905
  67   0.0000       0.030652         0.8341
  68   0.0000       0.073059         1.9880
  69   0.0000       0.111279         3.0280
  70   0.0000       0.118551         3.2259
  71   0.0000       0.135277         3.6811

MULLIKEN ATOMIC CHARGES
-----------------------
   0 S :    0.111490
   1 C :   -0.088334
   2 C :   -0.072758
   3 C :    0.022299
   4 C :   -0.167480
   5 H :    0.017469
   6 C :    0.023305
   7 H :    0.015420
   8 H :    0.034874
   9 C :   -0.054234
  10 H :    0.018692
  11 H :    0.017795
  12 C :   -0.038333
  13 H :    0.051354
  14 H :    0.022280
  15 H :    0.028336
  16 S :    0.107577
  17 C :   -0.115933
  18 C :   -0.029763
  19 C :   -0.002073
  20 C :   -0.143251
  21 H :   -0.008292
  22 C :    0.033929
  23 H :    0.029470
  24 H :    0.052774
  25 C :   -0.067133
  26 H :    0.039362
  27 H :    0.047785
  28 C :   -0.074401
  29 H :    0.037489
  30 H :    0.021262
  31 H :    0.026277
  32 H :    0.028411
  33 H :    0.074336
Sum of atomic charges:   -0.0000000

LOEWDIN ATOMIC CHARGES
----------------------
   0 S :    0.418788
   1 C :   -0.187881
   2 C :   -0.067240
   3 C :   -0.056877
   4 C :   -0.203619
   5 H :    0.032982
   6 C :   -0.039983
   7 H :    0.028128
   8 H :    0.032992
   9 C :   -0.033340
  10 H :    0.021861
  11 H :    0.014703
  12 C :   -0.066138
  13 H :    0.035328
  14 H :    0.023753
  15 H :    0.024057
  16 S :    0.375496
  17 C :   -0.187433
  18 C :   -0.066118
  19 C :   -0.051607
  20 C :   -0.181091
  21 H :    0.018267
  22 C :   -0.041693
  23 H :    0.028465
  24 H :    0.045199
  25 C :   -0.036883
  26 H :    0.022795
  27 H :    0.038313
  28 C :   -0.085723
  29 H :    0.026944
  30 H :    0.027185
  31 H :    0.024740
  32 H :    0.020568
  33 H :    0.045061

  Mayer bond orders larger than 0.100000
B(  0-S ,  1-C ) :   1.1367 B(  0-S ,  4-C ) :   1.1535 B(  1-C ,  2-C ) :   1.6134
B(  1-C , 32-H ) :   0.9750 B(  2-C ,  3-C ) :   1.2301 B(  2-C ,  6-C ) :   1.0315
B(  3-C ,  4-C ) :   1.5658 B(  3-C ,  5-H ) :   0.9933 B(  4-C , 20-C ) :   1.0476
B(  6-C ,  7-H ) :   0.9422 B(  6-C ,  8-H ) :   0.9472 B(  6-C ,  9-C ) :   1.0585
B(  9-C , 10-H ) :   0.9568 B(  9-C , 11-H ) :   0.9584 B(  9-C , 12-C ) :   1.0862
B( 12-C , 13-H ) :   0.9702 B( 12-C , 14-H ) :   0.9702 B( 12-C , 15-H ) :   0.9739
B( 16-S , 17-C ) :   1.1214 B( 16-S , 20-C ) :   1.1292 B( 17-C , 18-C ) :   1.6707
B( 17-C , 33-H ) :   0.9561 B( 18-C , 19-C ) :   1.1873 B( 18-C , 21-H ) :   0.9935
B( 19-C , 20-C ) :   1.6188 B( 19-C , 22-C ) :   1.0309 B( 22-C , 23-H ) :   0.9203
B( 22-C , 24-H ) :   0.9330 B( 22-C , 25-C ) :   1.0871 B( 25-C , 26-H ) :   0.9510
B( 25-C , 27-H ) :   0.9550 B( 25-C , 28-C ) :   1.0529 B( 28-C , 29-H ) :   0.9819
B( 28-C , 30-H ) :   0.9746 B( 28-C , 31-H ) :   0.9753

Dispersion correction           -0.014596470
FINAL SINGLE POINT ENERGY     -1339.873445311963

DIPOLE MOMENT
-------------
                                X             Y             Z
Electronic contribution:    -15.05009     -11.16818       5.26444
Nuclear contribution   :     15.62096      11.57793      -5.25741
                        -----------------------------------------
Total Dipole Moment    :      0.57088       0.40975       0.00704
                        -----------------------------------------
Magnitude (a.u.)       :      0.70274
Magnitude (Debye)      :      1.78622

Rotational constants in cm-1:     0.021219     0.007829     0.006869
Rotational constants in MHz :   636.124271   234.707228   205.912544

                             ****ORCA TERMINATED NORMALLY****
TOTAL RUN TIME: 0 days 0 hours 0 minutes 21 seconds 539 msec
