                         Program Version 4.2.1 -  RELEASE  -
|  1> ! wB97X-D3 SP def2-SVP
|  2> %pal
|  3> nprocs 24
|  4> end
|  5>
|  6> * xyz 0 1
|  7> S 	 -48.7912 	 -48.9352 	 -79.6274
|  8> C 	 -47.9407 	 -49.5795 	 -80.9774
|  9> C 	 -48.783 	 -50.3814 	 -81.7726
| 10> C 	 -50.0475 	 -50.5957 	 -81.1614
| 11> C 	 -50.2975 	 -49.7926 	 -79.9936
| 12> H 	 -50.8652 	 -51.2586 	 -81.4818
| 13> C 	 -48.351 	 -51.0709 	 -83.0695
| 14> H 	 -47.7216 	 -50.4725 	 -83.6748
| 15> H 	 -49.2827 	 -51.3741 	 -83.5352
| 16> C 	 -47.5262 	 -52.3614 	 -82.8924
| 17> H 	 -47.2852 	 -52.5991 	 -83.8911
| 18> H 	 -46.6496 	 -52.0702 	 -82.3161
| 19> C 	 -48.2609 	 -53.4826 	 -82.1414
| 20> H 	 -47.5907 	 -54.3055 	 -82.1692
| 21> H 	 -48.2894 	 -53.2979 	 -81.067
| 22> H 	 -49.1648 	 -53.7267 	 -82.5943
| 23> S 	 -51.0965 	 -50.7161 	 -77.5627
| 24> C 	 -52.7338 	 -50.5725 	 -77.1168
| 25> C 	 -53.5629 	 -50.2473 	 -78.1536
| 26> C 	 -52.7541 	 -49.8691 	 -79.3241
| 27> C 	 -51.3889 	 -49.9775 	 -79.0541
| 28> H 	 -54.6153 	 -50.346 	 -78.1189
| 29> C 	 -53.4133 	 -49.5068 	 -80.6873
| 30> H 	 -52.6689 	 -48.9432 	 -81.2416
| 31> H 	 -54.2405 	 -48.8459 	 -80.4865
| 32> C 	 -53.8191 	 -50.6808 	 -81.5559
| 33> H 	 -54.4279 	 -51.3475 	 -81.0186
| 34> H 	 -52.959 	 -51.3527 	 -81.8155
| 35> C 	 -54.5944 	 -50.286 	 -82.8352
| 36> H 	 -53.9289 	 -49.7432 	 -83.427
| 37> H 	 -55.4421 	 -49.5981 	 -82.6695
| 38> H 	 -54.9909 	 -51.115 	 -83.344
| 39> H 	 -46.9727 	 -49.2576 	 -81.3841
| 40> H 	 -53.0709 	 -50.8735 	 -76.1141
| 41> *
| 42>
| 43>                          ****END OF INPUT****

CARTESIAN COORDINATES (ANGSTROEM)
---------------------------------
  S    -48.791200  -48.935200  -79.627400
  C    -47.940700  -49.579500  -80.977400
  C    -48.783000  -50.381400  -81.772600
  C    -50.047500  -50.595700  -81.161400
  C    -50.297500  -49.792600  -79.993600
  H    -50.865200  -51.258600  -81.481800
  C    -48.351000  -51.070900  -83.069500
  H    -47.721600  -50.472500  -83.674800
  H    -49.282700  -51.374100  -83.535200
  C    -47.526200  -52.361400  -82.892400
  H    -47.285200  -52.599100  -83.891100
  H    -46.649600  -52.070200  -82.316100
  C    -48.260900  -53.482600  -82.141400
  H    -47.590700  -54.305500  -82.169200
  H    -48.289400  -53.297900  -81.067000
  H    -49.164800  -53.726700  -82.594300
  S    -51.096500  -50.716100  -77.562700
  C    -52.733800  -50.572500  -77.116800
  C    -53.562900  -50.247300  -78.153600
  C    -52.754100  -49.869100  -79.324100
  C    -51.388900  -49.977500  -79.054100
  H    -54.615300  -50.346000  -78.118900
  C    -53.413300  -49.506800  -80.687300
  H    -52.668900  -48.943200  -81.241600
  H    -54.240500  -48.845900  -80.486500
  C    -53.819100  -50.680800  -81.555900
  H    -54.427900  -51.347500  -81.018600
  H    -52.959000  -51.352700  -81.815500
  C    -54.594400  -50.286000  -82.835200
  H    -53.928900  -49.743200  -83.427000
  H    -55.442100  -49.598100  -82.669500
  H    -54.990900  -51.115000  -83.344000
  H    -46.972700  -49.257600  -81.384100
  H    -53.070900  -50.873500  -76.114100

 Total Charge           Charge          ....    0
 Multiplicity           Mult            ....    1
 Number of Electrons    NEL             ....  134
 Basis Dimension        Dim             ....  322

ORBITAL ENERGIES
----------------

  NO   OCC          E(Eh)            E(eV)
   0   2.0000     -88.969253     -2420.9764
   1   2.0000     -88.963665     -2420.8244
   2   2.0000     -10.331713      -281.1402
   3   2.0000     -10.320222      -280.8275
   4   2.0000     -10.316578      -280.7283
   5   2.0000     -10.312835      -280.6265
   6   2.0000     -10.305800      -280.4351
   7   2.0000     -10.302373      -280.3418
   8   2.0000     -10.300568      -280.2927
   9   2.0000     -10.292674      -280.0779
  10   2.0000     -10.290026      -280.0058
  11   2.0000     -10.286895      -279.9206
  12   2.0000     -10.285093      -279.8716
  13   2.0000     -10.280958      -279.7591
  14   2.0000     -10.271488      -279.5014
  15   2.0000     -10.267654      -279.3971
  16   2.0000      -8.083473      -219.9625
  17   2.0000      -8.080596      -219.8842
  18   2.0000      -6.041960      -164.4101
  19   2.0000      -6.038962      -164.3285
  20   2.0000      -6.037716      -164.2946
  21   2.0000      -6.034899      -164.2180
  22   2.0000      -6.034623      -164.2104
  23   2.0000      -6.031265      -164.1191
  24   2.0000      -1.010439       -27.4955
  25   2.0000      -0.984002       -26.7761
  26   2.0000      -0.912576       -24.8325
  27   2.0000      -0.908380       -24.7183
  28   2.0000      -0.869719       -23.6663
  29   2.0000      -0.850210       -23.1354
  30   2.0000      -0.844736       -22.9864
  31   2.0000      -0.811777       -22.0896
  32   2.0000      -0.787794       -21.4370
  33   2.0000      -0.773949       -21.0602
  34   2.0000      -0.705896       -19.2084
  35   2.0000      -0.699330       -19.0297
  36   2.0000      -0.693727       -18.8773
  37   2.0000      -0.663288       -18.0490
  38   2.0000      -0.636503       -17.3201
  39   2.0000      -0.611329       -16.6351
  40   2.0000      -0.596005       -16.2181
  41   2.0000      -0.579326       -15.7643
  42   2.0000      -0.564519       -15.3613
  43   2.0000      -0.551709       -15.0128
  44   2.0000      -0.539945       -14.6927
  45   2.0000      -0.528387       -14.3782
  46   2.0000      -0.519631       -14.1399
  47   2.0000      -0.513213       -13.9652
  48   2.0000      -0.510727       -13.8976
  49   2.0000      -0.497995       -13.5511
  50   2.0000      -0.488580       -13.2949
  51   2.0000      -0.478353       -13.0166
  52   2.0000      -0.472248       -12.8505
  53   2.0000      -0.467217       -12.7136
  54   2.0000      -0.458733       -12.4828
  55   2.0000      -0.457451       -12.4479
  56   2.0000      -0.443375       -12.0649
  57   2.0000      -0.437064       -11.8931
  58   2.0000      -0.433864       -11.8061
  59   2.0000      -0.424481       -11.5507
  60   2.0000      -0.422227       -11.4894
  61   2.0000      -0.415354       -11.3024
  62   2.0000      -0.412770       -11.2320
  63   2.0000      -0.343419        -9.3449
  64   2.0000      -0.326068        -8.8728
  65   2.0000      -0.325540        -8.8584
  66   2.0000      -0.295821        -8.0497
  67   0.0000       0.030568         0.8318
  68   0.0000       0.068175         1.8551
  69   0.0000       0.112610         3.0643
  70   0.0000       0.118785         3.2323
  71   0.0000       0.136292         3.7087

MULLIKEN ATOMIC CHARGES
-----------------------
   0 S :    0.124994
   1 C :   -0.118912
   2 C :   -0.105131
   3 C :    0.029234
   4 C :   -0.190930
   5 H :    0.012144
   6 C :    0.082777
   7 H :    0.017362
   8 H :    0.014477
   9 C :   -0.065501
  10 H :    0.021167
  11 H :    0.020205
  12 C :   -0.012332
  13 H :    0.017295
  14 H :    0.043385
  15 H :    0.020217
  16 S :    0.133720
  17 C :   -0.100898
  18 C :   -0.006833
  19 C :   -0.077104
  20 C :   -0.143892
  21 H :    0.008959
  22 C :    0.089070
  23 H :    0.025710
  24 H :    0.020941
  25 C :   -0.067325
  26 H :    0.004481
  27 H :    0.023285
  28 C :   -0.006316
  29 H :    0.015872
  30 H :    0.024698
  31 H :    0.027028
  32 H :    0.057573
  33 H :    0.060581
Sum of atomic charges:    0.0000000

LOEWDIN ATOMIC CHARGES
----------------------
   0 S :    0.423923
   1 C :   -0.215576
   2 C :   -0.067127
   3 C :   -0.057175
   4 C :   -0.203889
   5 H :    0.030007
   6 C :   -0.026540
   7 H :    0.024645
   8 H :    0.026452
   9 C :   -0.027751
  10 H :    0.016746
  11 H :    0.022214
  12 C :   -0.058282
  13 H :    0.024862
  14 H :    0.033804
  15 H :    0.014332
  16 S :    0.451054
  17 C :   -0.198728
  18 C :   -0.066925
  19 C :   -0.046927
  20 C :   -0.232626
  21 H :    0.026394
  22 C :   -0.028051
  23 H :    0.030198
  24 H :    0.028798
  25 C :   -0.038116
  26 H :    0.012276
  27 H :    0.025837
  28 C :   -0.054623
  29 H :    0.017086
  30 H :    0.027999
  31 H :    0.021329
  32 H :    0.034463
  33 H :    0.029916

  Mayer bond orders larger than 0.100000
B(  0-S ,  1-C ) :   1.1727 B(  0-S ,  4-C ) :   1.1646 B(  1-C ,  2-C ) :   1.5506
B(  1-C ,  4-C ) :   0.1127 B(  1-C , 32-H ) :   0.9611 B(  2-C ,  3-C ) :   1.2906
B(  2-C ,  6-C ) :   1.0296 B(  3-C ,  4-C ) :   1.5201 B(  3-C ,  5-H ) :   0.9812
B(  4-C , 20-C ) :   1.0367 B(  6-C ,  7-H ) :   0.9405 B(  6-C ,  8-H ) :   0.9394
B(  6-C ,  9-C ) :   1.0771 B(  9-C , 10-H ) :   0.9585 B(  9-C , 11-H ) :   0.9528
B(  9-C , 12-C ) :   1.0893 B( 12-C , 13-H ) :   0.9692 B( 12-C , 14-H ) :   0.9695
B( 12-C , 15-H ) :   0.9766 B( 16-S , 17-C ) :   1.1722 B( 16-S , 20-C ) :   1.1636
B( 17-C , 18-C ) :   1.5952 B( 17-C , 33-H ) :   0.9652 B( 18-C , 19-C ) :   1.2396
B( 18-C , 21-H ) :   1.0013 B( 19-C , 20-C ) :   1.5910 B( 19-C , 22-C ) :   1.0471
B( 22-C , 23-H ) :   0.9280 B( 22-C , 24-H ) :   0.9360 B( 22-C , 25-C ) :   1.0668
B( 25-C , 26-H ) :   0.9522 B( 25-C , 27-H ) :   0.9455 B( 25-C , 28-C ) :   1.0819
B( 28-C , 29-H ) :   0.9760 B( 28-C , 30-H ) :   0.9737 B( 28-C , 31-H ) :   0.9735

Dispersion correction           -0.014742737
FINAL SINGLE POINT ENERGY     -1339.872218754460

DIPOLE MOMENT
-------------
                                X             Y             Z
Electronic contribution:      6.71365      11.42561      23.37194
Nuclear contribution   :     -6.92305     -11.84530     -23.88708
                        -----------------------------------------
Total Dipole Moment    :     -0.20940      -0.41969      -0.51514
                        -----------------------------------------
Magnitude (a.u.)       :      0.69668
Magnitude (Debye)      :      1.77081

Rotational constants in cm-1:     0.016596     0.009464     0.007429
Rotational constants in MHz :   497.535949   283.732748   222.715279

                             ****ORCA TERMINATED NORMALLY****
TOTAL RUN TIME: 0 days 0 hours 0 minutes 21 seconds 882 msec
