                         Program Version 4.2.1 -  RELEASE  -
|  1> ! wB97X-D3 SP def2-SVP
|  2> %pal
|  3> nprocs 24
|  4> end
|  5>
|  6> * xyz 0 1
|  7> S 	 -67.1818 	 9.15862 	 -73.0387
|  8> C 	 -67.1288 	 9.11633 	 -71.298
|  9> C 	 -68.3035 	 9.52189 	 -70.7521
| 10> C 	 -69.316 	 9.80498 	 -71.7154
| 11> C 	 -68.8231 	 9.80284 	 -73.0093
| 12> H 	 -70.3221 	 10.0924 	 -71.5066
| 13> C 	 -68.4637 	 9.84549 	 -69.2707
| 14> H 	 -68.6181 	 10.9394 	 -69.2332
| 15> H 	 -67.5921 	 9.80034 	 -68.6305
| 16> C 	 -69.5529 	 9.0453 	 -68.4623
| 17> H 	 -69.6797 	 9.4056 	 -67.4448
| 18> H 	 -70.5329 	 9.13159 	 -68.8584
| 19> C 	 -69.3317 	 7.50767 	 -68.2294
| 20> H 	 -70.0197 	 7.39242 	 -67.3503
| 21> H 	 -69.4297 	 6.69758 	 -68.9895
| 22> H 	 -68.362 	 7.47866 	 -67.7556
| 23> S 	 -69.222 	 11.8278 	 -74.801
| 24> C 	 -70.5169 	 11.7079 	 -75.9739
| 25> C 	 -71.1076 	 10.4384 	 -75.905
| 26> C 	 -70.4719 	 9.54859 	 -75.0006
| 27> C 	 -69.5393 	 10.2054 	 -74.2083
| 28> H 	 -71.9733 	 10.2181 	 -76.5102
| 29> C 	 -70.8303 	 8.04863 	 -74.9023
| 30> H 	 -70.2932 	 7.69141 	 -73.9891
| 31> H 	 -70.2478 	 7.44685 	 -75.6503
| 32> C 	 -72.2644 	 7.71958 	 -74.5677
| 33> H 	 -73.011 	 8.05659 	 -75.2802
| 34> H 	 -72.5308 	 8.22198 	 -73.6399
| 35> C 	 -72.4954 	 6.23376 	 -74.4222
| 36> H 	 -73.5741 	 6.04048 	 -74.2103
| 37> H 	 -72.0398 	 5.8027 	 -73.5529
| 38> H 	 -72.2664 	 5.72252 	 -75.3276
| 39> H 	 -66.3223 	 8.92331 	 -70.6748
| 40> H 	 -71.0613 	 12.4715 	 -76.4718
| 41> *
| 42>
| 43>                          ****END OF INPUT****

CARTESIAN COORDINATES (ANGSTROEM)
---------------------------------
  S    -67.181800    9.158620  -73.038700
  C    -67.128800    9.116330  -71.298000
  C    -68.303500    9.521890  -70.752100
  C    -69.316000    9.804980  -71.715400
  C    -68.823100    9.802840  -73.009300
  H    -70.322100   10.092400  -71.506600
  C    -68.463700    9.845490  -69.270700
  H    -68.618100   10.939400  -69.233200
  H    -67.592100    9.800340  -68.630500
  C    -69.552900    9.045300  -68.462300
  H    -69.679700    9.405600  -67.444800
  H    -70.532900    9.131590  -68.858400
  C    -69.331700    7.507670  -68.229400
  H    -70.019700    7.392420  -67.350300
  H    -69.429700    6.697580  -68.989500
  H    -68.362000    7.478660  -67.755600
  S    -69.222000   11.827800  -74.801000
  C    -70.516900   11.707900  -75.973900
  C    -71.107600   10.438400  -75.905000
  C    -70.471900    9.548590  -75.000600
  C    -69.539300   10.205400  -74.208300
  H    -71.973300   10.218100  -76.510200
  C    -70.830300    8.048630  -74.902300
  H    -70.293200    7.691410  -73.989100
  H    -70.247800    7.446850  -75.650300
  C    -72.264400    7.719580  -74.567700
  H    -73.011000    8.056590  -75.280200
  H    -72.530800    8.221980  -73.639900
  C    -72.495400    6.233760  -74.422200
  H    -73.574100    6.040480  -74.210300
  H    -72.039800    5.802700  -73.552900
  H    -72.266400    5.722520  -75.327600
  H    -66.322300    8.923310  -70.674800
  H    -71.061300   12.471500  -76.471800

 Total Charge           Charge          ....    0
 Multiplicity           Mult            ....    1
 Number of Electrons    NEL             ....  134
 Basis Dimension        Dim             ....  322

ORBITAL ENERGIES
----------------

  NO   OCC          E(Eh)            E(eV)
   0   2.0000     -88.966326     -2420.8968
   1   2.0000     -88.965350     -2420.8703
   2   2.0000     -10.329945      -281.0921
   3   2.0000     -10.325482      -280.9707
   4   2.0000     -10.314911      -280.6830
   5   2.0000     -10.305624      -280.4303
   6   2.0000     -10.304544      -280.4009
   7   2.0000     -10.298617      -280.2396
   8   2.0000     -10.296795      -280.1900
   9   2.0000     -10.295372      -280.1513
  10   2.0000     -10.294686      -280.1326
  11   2.0000     -10.292207      -280.0652
  12   2.0000     -10.289886      -280.0020
  13   2.0000     -10.284304      -279.8501
  14   2.0000     -10.283390      -279.8253
  15   2.0000     -10.273246      -279.5492
  16   2.0000      -8.080762      -219.8887
  17   2.0000      -8.079981      -219.8675
  18   2.0000      -6.039288      -164.3374
  19   2.0000      -6.038520      -164.3165
  20   2.0000      -6.035183      -164.2257
  21   2.0000      -6.034534      -164.2080
  22   2.0000      -6.031644      -164.1294
  23   2.0000      -6.030686      -164.1033
  24   2.0000      -1.006086       -27.3770
  25   2.0000      -0.984024       -26.7766
  26   2.0000      -0.911033       -24.7905
  27   2.0000      -0.903267       -24.5792
  28   2.0000      -0.869502       -23.6603
  29   2.0000      -0.850994       -23.1567
  30   2.0000      -0.847508       -23.0619
  31   2.0000      -0.815810       -22.1993
  32   2.0000      -0.782722       -21.2990
  33   2.0000      -0.772520       -21.0213
  34   2.0000      -0.709533       -19.3074
  35   2.0000      -0.699329       -19.0297
  36   2.0000      -0.694353       -18.8943
  37   2.0000      -0.656689       -17.8694
  38   2.0000      -0.644942       -17.5498
  39   2.0000      -0.622220       -16.9315
  40   2.0000      -0.594828       -16.1861
  41   2.0000      -0.570148       -15.5145
  42   2.0000      -0.567190       -15.4340
  43   2.0000      -0.545480       -14.8433
  44   2.0000      -0.543813       -14.7979
  45   2.0000      -0.529023       -14.3954
  46   2.0000      -0.517207       -14.0739
  47   2.0000      -0.509662       -13.8686
  48   2.0000      -0.503263       -13.6945
  49   2.0000      -0.497415       -13.5354
  50   2.0000      -0.492915       -13.4129
  51   2.0000      -0.473800       -12.8928
  52   2.0000      -0.471046       -12.8178
  53   2.0000      -0.463542       -12.6136
  54   2.0000      -0.460394       -12.5280
  55   2.0000      -0.448859       -12.2141
  56   2.0000      -0.441126       -12.0036
  57   2.0000      -0.437795       -11.9130
  58   2.0000      -0.432702       -11.7744
  59   2.0000      -0.423568       -11.5259
  60   2.0000      -0.418821       -11.3967
  61   2.0000      -0.411217       -11.1898
  62   2.0000      -0.406996       -11.0749
  63   2.0000      -0.336351        -9.1526
  64   2.0000      -0.328408        -8.9364
  65   2.0000      -0.323200        -8.7947
  66   2.0000      -0.308999        -8.4083
  67   0.0000       0.044028         1.1981
  68   0.0000       0.049777         1.3545
  69   0.0000       0.119558         3.2533
  70   0.0000       0.122445         3.3319
  71   0.0000       0.128753         3.5035

MULLIKEN ATOMIC CHARGES
-----------------------
   0 S :    0.117517
   1 C :   -0.081099
   2 C :   -0.058873
   3 C :    0.067466
   4 C :   -0.185298
   5 H :    0.005963
   6 C :    0.053000
   7 H :    0.040981
   8 H :    0.010460
   9 C :   -0.080556
  10 H :    0.024035
  11 H :    0.018576
  12 C :   -0.072633
  13 H :    0.030819
  14 H :    0.064769
  15 H :    0.015379
  16 S :    0.119972
  17 C :   -0.074495
  18 C :   -0.061247
  19 C :    0.002980
  20 C :   -0.194424
  21 H :    0.019297
  22 C :    0.050308
  23 H :    0.019641
  24 H :    0.050327
  25 C :   -0.069108
  26 H :    0.025248
  27 H :    0.026717
  28 C :   -0.034655
  29 H :    0.025904
  30 H :    0.026861
  31 H :    0.030146
  32 H :    0.015034
  33 H :    0.050985
Sum of atomic charges:    0.0000000

LOEWDIN ATOMIC CHARGES
----------------------
   0 S :    0.400361
   1 C :   -0.186854
   2 C :   -0.064941
   3 C :   -0.046434
   4 C :   -0.194888
   5 H :    0.029402
   6 C :   -0.036719
   7 H :    0.039060
   8 H :    0.026627
   9 C :   -0.039865
  10 H :    0.026899
  11 H :    0.013435
  12 C :   -0.074867
  13 H :    0.034442
  14 H :    0.031381
  15 H :    0.019500
  16 S :    0.412656
  17 C :   -0.190066
  18 C :   -0.068071
  19 C :   -0.052983
  20 C :   -0.204116
  21 H :    0.029259
  22 C :   -0.042802
  23 H :    0.037061
  24 H :    0.040680
  25 C :   -0.042835
  26 H :    0.019207
  27 H :    0.027743
  28 C :   -0.060601
  29 H :    0.030890
  30 H :    0.021261
  31 H :    0.021696
  32 H :    0.017303
  33 H :    0.027179

  Mayer bond orders larger than 0.100000
B(  0-S ,  1-C ) :   1.1250 B(  0-S ,  4-C ) :   1.1435 B(  1-C ,  2-C ) :   1.6424
B(  1-C , 32-H ) :   0.9718 B(  2-C ,  3-C ) :   1.2176 B(  2-C ,  6-C ) :   1.0160
B(  3-C ,  4-C ) :   1.6009 B(  3-C ,  5-H ) :   0.9991 B(  4-C , 20-C ) :   1.0137
B(  6-C ,  7-H ) :   0.9410 B(  6-C ,  8-H ) :   0.9472 B(  6-C ,  9-C ) :   1.0603
B(  9-C , 10-H ) :   0.9603 B(  9-C , 11-H ) :   0.9628 B(  9-C , 12-C ) :   1.0553
B( 12-C , 13-H ) :   0.9771 B( 12-C , 14-H ) :   0.9777 B( 12-C , 15-H ) :   0.9752
B( 16-S , 17-C ) :   1.1529 B( 16-S , 20-C ) :   1.1542 B( 17-C , 18-C ) :   1.6156
B( 17-C , 20-C ) :   0.1065 B( 17-C , 33-H ) :   0.9657 B( 18-C , 19-C ) :   1.2430
B( 18-C , 21-H ) :   0.9875 B( 19-C , 20-C ) :   1.5940 B( 19-C , 22-C ) :   1.0345
B( 22-C , 23-H ) :   0.9275 B( 22-C , 24-H ) :   0.9389 B( 22-C , 25-C ) :   1.0531
B( 25-C , 26-H ) :   0.9560 B( 25-C , 27-H ) :   0.9506 B( 25-C , 28-C ) :   1.0991
B( 28-C , 29-H ) :   0.9712 B( 28-C , 30-H ) :   0.9741 B( 28-C , 31-H ) :   0.9738

Dispersion correction           -0.013921072
FINAL SINGLE POINT ENERGY     -1339.861444393305

DIPOLE MOMENT
-------------
                                X             Y             Z
Electronic contribution:     15.68300      17.53271     -16.57138
Nuclear contribution   :    -16.20517     -17.68714      17.03208
                        -----------------------------------------
Total Dipole Moment    :     -0.52217      -0.15443       0.46070
                        -----------------------------------------
Magnitude (a.u.)       :      0.71327
Magnitude (Debye)      :      1.81299

Rotational constants in cm-1:     0.016739     0.008748     0.006821
Rotational constants in MHz :   501.813985   262.244655   204.496094

                             ****ORCA TERMINATED NORMALLY****
TOTAL RUN TIME: 0 days 0 hours 0 minutes 21 seconds 233 msec
