                         Program Version 4.2.1 -  RELEASE  -
|  1> ! wB97X-D3 SP def2-SVP
|  2> %pal
|  3> nprocs 24
|  4> end
|  5>
|  6> * xyz 0 1
|  7> S 	 -55.9685 	 -53.2645 	 -80.0778
|  8> C 	 -55.642 	 -52.455 	 -78.5654
|  9> C 	 -55.0954 	 -51.1652 	 -78.7982
| 10> C 	 -55.3168 	 -50.7549 	 -80.1444
| 11> C 	 -55.7248 	 -51.7875 	 -81.0222
| 12> H 	 -55.2072 	 -49.7216 	 -80.4517
| 13> C 	 -54.5466 	 -50.2782 	 -77.6531
| 14> H 	 -53.8443 	 -49.6428 	 -78.1055
| 15> H 	 -54.1779 	 -50.861 	 -76.9132
| 16> C 	 -55.5679 	 -49.338 	 -77.1204
| 17> H 	 -55.915 	 -48.5501 	 -77.8515
| 18> H 	 -56.456 	 -49.9987 	 -76.9093
| 19> C 	 -55.1124 	 -48.4594 	 -75.9256
| 20> H 	 -56.0567 	 -47.8903 	 -75.7102
| 21> H 	 -55.0228 	 -49.0269 	 -75.033
| 22> H 	 -54.2231 	 -47.758 	 -76.0201
| 23> S 	 -55.0898 	 -52.591 	 -83.571
| 24> C 	 -55.8359 	 -51.819 	 -85.0017
| 25> C 	 -56.8101 	 -50.9435 	 -84.5712
| 26> C 	 -56.837 	 -50.6593 	 -83.1319
| 27> C 	 -56.0942 	 -51.6359 	 -82.4479
| 28> H 	 -57.4224 	 -50.4718 	 -85.3185
| 29> C 	 -57.7687 	 -49.6073 	 -82.6063
| 30> H 	 -58.3544 	 -49.2955 	 -83.5021
| 31> H 	 -57.2712 	 -48.7146 	 -82.2164
| 32> C 	 -58.7703 	 -50.007 	 -81.4872
| 33> H 	 -59.1046 	 -49.162 	 -80.9182
| 34> H 	 -58.2207 	 -50.4677 	 -80.6482
| 35> C 	 -60.0244 	 -50.9573 	 -81.9212
| 36> H 	 -59.7778 	 -51.9191 	 -82.295
| 37> H 	 -60.5794 	 -50.4974 	 -82.712
| 38> H 	 -60.8147 	 -51.1135 	 -81.1412
| 39> H 	 -55.3694 	 -52.9563 	 -77.608
| 40> H 	 -55.5614 	 -52.1891 	 -85.98
| 41> *
| 42>
| 43>                          ****END OF INPUT****

CARTESIAN COORDINATES (ANGSTROEM)
---------------------------------
  S    -55.968500  -53.264500  -80.077800
  C    -55.642000  -52.455000  -78.565400
  C    -55.095400  -51.165200  -78.798200
  C    -55.316800  -50.754900  -80.144400
  C    -55.724800  -51.787500  -81.022200
  H    -55.207200  -49.721600  -80.451700
  C    -54.546600  -50.278200  -77.653100
  H    -53.844300  -49.642800  -78.105500
  H    -54.177900  -50.861000  -76.913200
  C    -55.567900  -49.338000  -77.120400
  H    -55.915000  -48.550100  -77.851500
  H    -56.456000  -49.998700  -76.909300
  C    -55.112400  -48.459400  -75.925600
  H    -56.056700  -47.890300  -75.710200
  H    -55.022800  -49.026900  -75.033000
  H    -54.223100  -47.758000  -76.020100
  S    -55.089800  -52.591000  -83.571000
  C    -55.835900  -51.819000  -85.001700
  C    -56.810100  -50.943500  -84.571200
  C    -56.837000  -50.659300  -83.131900
  C    -56.094200  -51.635900  -82.447900
  H    -57.422400  -50.471800  -85.318500
  C    -57.768700  -49.607300  -82.606300
  H    -58.354400  -49.295500  -83.502100
  H    -57.271200  -48.714600  -82.216400
  C    -58.770300  -50.007000  -81.487200
  H    -59.104600  -49.162000  -80.918200
  H    -58.220700  -50.467700  -80.648200
  C    -60.024400  -50.957300  -81.921200
  H    -59.777800  -51.919100  -82.295000
  H    -60.579400  -50.497400  -82.712000
  H    -60.814700  -51.113500  -81.141200
  H    -55.369400  -52.956300  -77.608000
  H    -55.561400  -52.189100  -85.980000

 Total Charge           Charge          ....    0
 Multiplicity           Mult            ....    1
 Number of Electrons    NEL             ....  134
 Basis Dimension        Dim             ....  322

ORBITAL ENERGIES
----------------

  NO   OCC          E(Eh)            E(eV)
   0   2.0000     -88.970511     -2421.0107
   1   2.0000     -88.961394     -2420.7626
   2   2.0000     -10.337271      -281.2914
   3   2.0000     -10.335609      -281.2462
   4   2.0000     -10.323077      -280.9052
   5   2.0000     -10.318266      -280.7743
   6   2.0000     -10.313507      -280.6448
   7   2.0000     -10.306055      -280.4420
   8   2.0000     -10.300086      -280.2796
   9   2.0000     -10.299777      -280.2712
  10   2.0000     -10.299433      -280.2618
  11   2.0000     -10.293251      -280.0936
  12   2.0000     -10.290598      -280.0214
  13   2.0000     -10.286155      -279.9005
  14   2.0000     -10.281761      -279.7809
  15   2.0000     -10.277127      -279.6548
  16   2.0000      -8.084362      -219.9867
  17   2.0000      -8.075520      -219.7461
  18   2.0000      -6.042958      -164.4372
  19   2.0000      -6.038871      -164.3260
  20   2.0000      -6.035193      -164.2259
  21   2.0000      -6.034207      -164.1991
  22   2.0000      -6.030036      -164.0856
  23   2.0000      -6.026192      -163.9810
  24   2.0000      -0.997621       -27.1466
  25   2.0000      -0.976777       -26.5795
  26   2.0000      -0.917549       -24.9678
  27   2.0000      -0.898365       -24.4458
  28   2.0000      -0.864219       -23.5166
  29   2.0000      -0.845787       -23.0150
  30   2.0000      -0.836223       -22.7548
  31   2.0000      -0.811541       -22.0832
  32   2.0000      -0.784762       -21.3545
  33   2.0000      -0.774340       -21.0709
  34   2.0000      -0.714591       -19.4450
  35   2.0000      -0.694913       -18.9096
  36   2.0000      -0.688214       -18.7273
  37   2.0000      -0.663762       -18.0619
  38   2.0000      -0.635535       -17.2938
  39   2.0000      -0.620496       -16.8846
  40   2.0000      -0.591424       -16.0935
  41   2.0000      -0.578485       -15.7414
  42   2.0000      -0.559567       -15.2266
  43   2.0000      -0.544703       -14.8221
  44   2.0000      -0.538923       -14.6648
  45   2.0000      -0.525653       -14.3037
  46   2.0000      -0.511694       -13.9239
  47   2.0000      -0.509643       -13.8681
  48   2.0000      -0.502152       -13.6643
  49   2.0000      -0.496178       -13.5017
  50   2.0000      -0.490307       -13.3419
  51   2.0000      -0.478406       -13.0181
  52   2.0000      -0.467356       -12.7174
  53   2.0000      -0.465688       -12.6720
  54   2.0000      -0.458981       -12.4895
  55   2.0000      -0.441429       -12.0119
  56   2.0000      -0.438438       -11.9305
  57   2.0000      -0.432288       -11.7632
  58   2.0000      -0.430485       -11.7141
  59   2.0000      -0.428230       -11.6527
  60   2.0000      -0.418377       -11.3846
  61   2.0000      -0.416764       -11.3407
  62   2.0000      -0.408634       -11.1195
  63   2.0000      -0.343273        -9.3409
  64   2.0000      -0.330802        -9.0016
  65   2.0000      -0.325430        -8.8554
  66   2.0000      -0.295505        -8.0411
  67   0.0000       0.025105         0.6831
  68   0.0000       0.059968         1.6318
  69   0.0000       0.108841         2.9617
  70   0.0000       0.117470         3.1965
  71   0.0000       0.122799         3.3415

MULLIKEN ATOMIC CHARGES
-----------------------
   0 S :    0.123121
   1 C :   -0.125302
   2 C :   -0.157027
   3 C :    0.030305
   4 C :   -0.144818
   5 H :    0.011181
   6 C :    0.191866
   7 H :    0.006044
   8 H :   -0.005940
   9 C :   -0.147730
  10 H :    0.035471
  11 H :    0.036305
  12 C :   -0.054666
  13 H :    0.036423
  14 H :    0.020841
  15 H :    0.056893
  16 S :    0.074987
  17 C :   -0.097810
  18 C :   -0.024774
  19 C :   -0.025615
  20 C :   -0.136260
  21 H :    0.022377
  22 C :    0.049429
  23 H :    0.025600
  24 H :    0.040993
  25 C :   -0.063558
  26 H :    0.013340
  27 H :    0.039457
  28 C :   -0.055333
  29 H :    0.035426
  30 H :    0.015553
  31 H :    0.037423
  32 H :    0.069240
  33 H :    0.066557
Sum of atomic charges:   -0.0000000

LOEWDIN ATOMIC CHARGES
----------------------
   0 S :    0.412886
   1 C :   -0.222136
   2 C :   -0.053270
   3 C :   -0.061134
   4 C :   -0.197526
   5 H :    0.029254
   6 C :   -0.018113
   7 H :    0.026750
   8 H :    0.015565
   9 C :   -0.047822
  10 H :    0.027897
  11 H :    0.029698
  12 C :   -0.077155
  13 H :    0.036650
  14 H :    0.016015
  15 H :    0.035764
  16 S :    0.372619
  17 C :   -0.167589
  18 C :   -0.067539
  19 C :   -0.052247
  20 C :   -0.184082
  21 H :    0.029122
  22 C :   -0.035545
  23 H :    0.035442
  24 H :    0.037422
  25 C :   -0.041036
  26 H :    0.021626
  27 H :    0.029841
  28 C :   -0.068586
  29 H :    0.020999
  30 H :    0.017697
  31 H :    0.032863
  32 H :    0.036484
  33 H :    0.029186

  Mayer bond orders larger than 0.100000
B(  0-S ,  1-C ) :   1.1544 B(  0-S ,  4-C ) :   1.1601 B(  1-C ,  2-C ) :   1.5750
B(  1-C ,  4-C ) :   0.1122 B(  1-C , 32-H ) :   0.9534 B(  2-C ,  3-C ) :   1.2749
B(  2-C ,  6-C ) :   1.0395 B(  3-C ,  4-C ) :   1.5409 B(  3-C ,  5-H ) :   0.9936
B(  4-C , 20-C ) :   1.0131 B(  6-C ,  7-H ) :   0.9261 B(  6-C ,  8-H ) :   0.9348
B(  6-C ,  9-C ) :   1.0685 B(  9-C , 10-H ) :   0.9593 B(  9-C , 11-H ) :   0.9531
B(  9-C , 12-C ) :   1.0708 B( 12-C , 13-H ) :   0.9726 B( 12-C , 14-H ) :   0.9737
B( 12-C , 15-H ) :   0.9737 B( 16-S , 17-C ) :   1.1394 B( 16-S , 20-C ) :   1.1417
B( 17-C , 18-C ) :   1.6276 B( 17-C , 33-H ) :   0.9708 B( 18-C , 19-C ) :   1.2082
B( 18-C , 21-H ) :   0.9843 B( 19-C , 20-C ) :   1.6018 B( 19-C , 22-C ) :   1.0461
B( 22-C , 23-H ) :   0.9420 B( 22-C , 24-H ) :   0.9260 B( 22-C , 25-C ) :   1.0778
B( 25-C , 26-H ) :   0.9544 B( 25-C , 27-H ) :   0.9530 B( 25-C , 28-C ) :   1.0497
B( 28-C , 29-H ) :   0.9825 B( 28-C , 30-H ) :   0.9782 B( 28-C , 31-H ) :   0.9792

Dispersion correction           -0.014692740
FINAL SINGLE POINT ENERGY     -1339.849947169971

DIPOLE MOMENT
-------------
                                X             Y             Z
Electronic contribution:     11.17709     -19.88309     -16.72212
Nuclear contribution   :    -11.28840      20.54492      16.93907
                        -----------------------------------------
Total Dipole Moment    :     -0.11131       0.66183       0.21696
                        -----------------------------------------
Magnitude (a.u.)       :      0.70532
Magnitude (Debye)      :      1.79279

Rotational constants in cm-1:     0.019799     0.008082     0.006973
Rotational constants in MHz :   593.551875   242.277878   209.043622

                             ****ORCA TERMINATED NORMALLY****
TOTAL RUN TIME: 0 days 0 hours 0 minutes 21 seconds 663 msec
