                         Program Version 4.2.1 -  RELEASE  -
|  1> ! wB97X-D3 SP def2-SVP
|  2> %pal
|  3> nprocs 24
|  4> end
|  5>
|  6> * xyz 0 1
|  7> S 	 39.6811 	 -31.8379 	 -112.093
|  8> C 	 39.0007 	 -33.3539 	 -112.562
|  9> C 	 39.3561 	 -33.6987 	 -113.887
| 10> C 	 40.3109 	 -32.7964 	 -114.383
| 11> C 	 40.6186 	 -31.8052 	 -113.504
| 12> H 	 40.8969 	 -32.9562 	 -115.305
| 13> C 	 38.784 	 -34.9215 	 -114.593
| 14> H 	 38.4993 	 -35.6309 	 -113.789
| 15> H 	 39.5702 	 -35.3985 	 -115.202
| 16> C 	 37.4605 	 -34.7372 	 -115.332
| 17> H 	 36.6599 	 -34.7589 	 -114.554
| 18> H 	 37.4901 	 -33.7235 	 -115.759
| 19> C 	 37.3253 	 -35.7674 	 -116.432
| 20> H 	 37.5611 	 -36.8061 	 -116.137
| 21> H 	 36.2714 	 -35.8217 	 -116.734
| 22> H 	 37.8457 	 -35.5631 	 -117.381
| 23> S 	 41.3436 	 -29.6737 	 -115.106
| 24> C 	 42.8444 	 -28.9799 	 -114.73
| 25> C 	 43.5753 	 -29.6298 	 -113.747
| 26> C 	 42.8391 	 -30.6081 	 -113.126
| 27> C 	 41.5771 	 -30.7316 	 -113.727
| 28> H 	 44.5666 	 -29.3473 	 -113.577
| 29> C 	 43.4247 	 -31.5171 	 -112.04
| 30> H 	 42.8761 	 -32.4943 	 -111.913
| 31> H 	 43.2854 	 -30.934 	 -111.068
| 32> C 	 44.9182 	 -31.8541 	 -112.127
| 33> H 	 45.2164 	 -32.3445 	 -111.202
| 34> H 	 45.5473 	 -30.9653 	 -112.164
| 35> C 	 45.2038 	 -32.7486 	 -113.312
| 36> H 	 44.6182 	 -33.7234 	 -113.212
| 37> H 	 46.184 	 -33.0428 	 -113.226
| 38> H 	 44.9941 	 -32.32 	 -114.312
| 39> H 	 38.3775 	 -33.9454 	 -111.898
| 40> H 	 43.2751 	 -28.195 	 -115.361
| 41> *
| 42>
| 43>                          ****END OF INPUT****

CARTESIAN COORDINATES (ANGSTROEM)
---------------------------------
  S     39.681100  -31.837900  -112.093000
  C     39.000700  -33.353900  -112.562000
  C     39.356100  -33.698700  -113.887000
  C     40.310900  -32.796400  -114.383000
  C     40.618600  -31.805200  -113.504000
  H     40.896900  -32.956200  -115.305000
  C     38.784000  -34.921500  -114.593000
  H     38.499300  -35.630900  -113.789000
  H     39.570200  -35.398500  -115.202000
  C     37.460500  -34.737200  -115.332000
  H     36.659900  -34.758900  -114.554000
  H     37.490100  -33.723500  -115.759000
  C     37.325300  -35.767400  -116.432000
  H     37.561100  -36.806100  -116.137000
  H     36.271400  -35.821700  -116.734000
  H     37.845700  -35.563100  -117.381000
  S     41.343600  -29.673700  -115.106000
  C     42.844400  -28.979900  -114.730000
  C     43.575300  -29.629800  -113.747000
  C     42.839100  -30.608100  -113.126000
  C     41.577100  -30.731600  -113.727000
  H     44.566600  -29.347300  -113.577000
  C     43.424700  -31.517100  -112.040000
  H     42.876100  -32.494300  -111.913000
  H     43.285400  -30.934000  -111.068000
  C     44.918200  -31.854100  -112.127000
  H     45.216400  -32.344500  -111.202000
  H     45.547300  -30.965300  -112.164000
  C     45.203800  -32.748600  -113.312000
  H     44.618200  -33.723400  -113.212000
  H     46.184000  -33.042800  -113.226000
  H     44.994100  -32.320000  -114.312000
  H     38.377500  -33.945400  -111.898000
  H     43.275100  -28.195000  -115.361000

 Total Charge           Charge          ....    0
 Multiplicity           Mult            ....    1
 Number of Electrons    NEL             ....  134
 Basis Dimension        Dim             ....  322

ORBITAL ENERGIES
----------------

  NO   OCC          E(Eh)            E(eV)
   0   2.0000     -88.969601     -2420.9859
   1   2.0000     -88.963126     -2420.8097
   2   2.0000     -10.317843      -280.7628
   3   2.0000     -10.314410      -280.6694
   4   2.0000     -10.311432      -280.5883
   5   2.0000     -10.308650      -280.5126
   6   2.0000     -10.299808      -280.2720
   7   2.0000     -10.297742      -280.2158
   8   2.0000     -10.297225      -280.2017
   9   2.0000     -10.289575      -279.9936
  10   2.0000     -10.287538      -279.9381
  11   2.0000     -10.285855      -279.8923
  12   2.0000     -10.285231      -279.8754
  13   2.0000     -10.283145      -279.8186
  14   2.0000     -10.279903      -279.7304
  15   2.0000     -10.272610      -279.5319
  16   2.0000      -8.085010      -220.0043
  17   2.0000      -8.079151      -219.8449
  18   2.0000      -6.043039      -164.4395
  19   2.0000      -6.039573      -164.3451
  20   2.0000      -6.037311      -164.2836
  21   2.0000      -6.036108      -164.2508
  22   2.0000      -6.033433      -164.1781
  23   2.0000      -6.030259      -164.0917
  24   2.0000      -1.013219       -27.5711
  25   2.0000      -0.991181       -26.9714
  26   2.0000      -0.911343       -24.7989
  27   2.0000      -0.910609       -24.7789
  28   2.0000      -0.864713       -23.5300
  29   2.0000      -0.857533       -23.3347
  30   2.0000      -0.849585       -23.1184
  31   2.0000      -0.808805       -22.0087
  32   2.0000      -0.783396       -21.3173
  33   2.0000      -0.766178       -20.8488
  34   2.0000      -0.700253       -19.0549
  35   2.0000      -0.696354       -18.9488
  36   2.0000      -0.687255       -18.7012
  37   2.0000      -0.659402       -17.9432
  38   2.0000      -0.639114       -17.3912
  39   2.0000      -0.617342       -16.7987
  40   2.0000      -0.601067       -16.3559
  41   2.0000      -0.564565       -15.3626
  42   2.0000      -0.558943       -15.2096
  43   2.0000      -0.553312       -15.0564
  44   2.0000      -0.540732       -14.7141
  45   2.0000      -0.522222       -14.2104
  46   2.0000      -0.519132       -14.1263
  47   2.0000      -0.508257       -13.8304
  48   2.0000      -0.495242       -13.4762
  49   2.0000      -0.492916       -13.4129
  50   2.0000      -0.488286       -13.2869
  51   2.0000      -0.473155       -12.8752
  52   2.0000      -0.467602       -12.7241
  53   2.0000      -0.462976       -12.5982
  54   2.0000      -0.459478       -12.5030
  55   2.0000      -0.456990       -12.4353
  56   2.0000      -0.451155       -12.2766
  57   2.0000      -0.435454       -11.8493
  58   2.0000      -0.430485       -11.7141
  59   2.0000      -0.427337       -11.6284
  60   2.0000      -0.418857       -11.3977
  61   2.0000      -0.417737       -11.3672
  62   2.0000      -0.410951       -11.1826
  63   2.0000      -0.339487        -9.2379
  64   2.0000      -0.333270        -9.0687
  65   2.0000      -0.322513        -8.7760
  66   2.0000      -0.292471        -7.9586
  67   0.0000       0.038961         1.0602
  68   0.0000       0.068635         1.8677
  69   0.0000       0.108753         2.9593
  70   0.0000       0.129321         3.5190
  71   0.0000       0.136835         3.7235

MULLIKEN ATOMIC CHARGES
-----------------------
   0 S :    0.134248
   1 C :   -0.140486
   2 C :   -0.083691
   3 C :    0.013229
   4 C :   -0.184861
   5 H :    0.021109
   6 C :    0.036698
   7 H :    0.022867
   8 H :    0.030600
   9 C :   -0.049942
  10 H :    0.034615
  11 H :    0.034551
  12 C :   -0.062440
  13 H :    0.030676
  14 H :    0.027114
  15 H :    0.041649
  16 S :    0.145344
  17 C :   -0.093216
  18 C :   -0.034848
  19 C :    0.024824
  20 C :   -0.196079
  21 H :   -0.009297
  22 C :    0.037523
  23 H :    0.045029
  24 H :    0.047587
  25 C :   -0.078768
  26 H :    0.026988
  27 H :    0.023638
  28 C :   -0.034357
  29 H :    0.029347
  30 H :    0.013757
  31 H :    0.049496
  32 H :    0.043635
  33 H :    0.053461
Sum of atomic charges:   -0.0000000

LOEWDIN ATOMIC CHARGES
----------------------
   0 S :    0.445482
   1 C :   -0.213430
   2 C :   -0.061252
   3 C :   -0.077340
   4 C :   -0.216653
   5 H :    0.037062
   6 C :   -0.038320
   7 H :    0.033953
   8 H :    0.028930
   9 C :   -0.041994
  10 H :    0.028602
  11 H :    0.026903
  12 C :   -0.073064
  13 H :    0.025384
  14 H :    0.027797
  15 H :    0.030190
  16 S :    0.442257
  17 C :   -0.199126
  18 C :   -0.070242
  19 C :   -0.049618
  20 C :   -0.213493
  21 H :    0.022429
  22 C :   -0.037106
  23 H :    0.035818
  24 H :    0.041830
  25 C :   -0.044063
  26 H :    0.028604
  27 H :    0.019712
  28 C :   -0.064085
  29 H :    0.032768
  30 H :    0.012732
  31 H :    0.030591
  32 H :    0.022396
  33 H :    0.026347

  Mayer bond orders larger than 0.100000
B(  0-S ,  1-C ) :   1.1612 B(  0-S ,  4-C ) :   1.1832 B(  1-C ,  2-C ) :   1.5670
B(  1-C ,  4-C ) :   0.1013 B(  1-C , 32-H ) :   0.9715 B(  2-C ,  3-C ) :   1.2712
B(  2-C ,  6-C ) :   1.0310 B(  3-C ,  4-C ) :   1.5641 B(  3-C ,  5-H ) :   0.9947
B(  4-C , 20-C ) :   1.0027 B(  6-C ,  7-H ) :   0.9368 B(  6-C ,  8-H ) :   0.9499
B(  6-C ,  9-C ) :   1.0452 B(  9-C , 10-H ) :   0.9571 B(  9-C , 11-H ) :   0.9602
B(  9-C , 12-C ) :   1.0785 B( 12-C , 13-H ) :   0.9734 B( 12-C , 14-H ) :   0.9716
B( 12-C , 15-H ) :   0.9751 B( 16-S , 17-C ) :   1.1901 B( 16-S , 20-C ) :   1.1674
B( 17-C , 18-C ) :   1.5668 B( 17-C , 20-C ) :   0.1026 B( 17-C , 33-H ) :   0.9622
B( 18-C , 19-C ) :   1.2849 B( 18-C , 21-H ) :   1.0042 B( 19-C , 20-C ) :   1.5449
B( 19-C , 22-C ) :   1.0263 B( 22-C , 23-H ) :   0.9380 B( 22-C , 24-H ) :   0.9278
B( 22-C , 25-C ) :   1.0909 B( 25-C , 26-H ) :   0.9489 B( 25-C , 27-H ) :   0.9450
B( 25-C , 28-C ) :   1.0848 B( 28-C , 29-H ) :   0.9704 B( 28-C , 30-H ) :   0.9716
B( 28-C , 31-H ) :   0.9741

Dispersion correction           -0.014378444
FINAL SINGLE POINT ENERGY     -1339.883746461557

DIPOLE MOMENT
-------------
                                X             Y             Z
Electronic contribution:     -4.16144      20.03214       4.34414
Nuclear contribution   :      4.50753     -20.40107      -4.45651
                        -----------------------------------------
Total Dipole Moment    :      0.34610      -0.36892      -0.11237
                        -----------------------------------------
Magnitude (a.u.)       :      0.51819
Magnitude (Debye)      :      1.31712

Rotational constants in cm-1:     0.021216     0.007415     0.006882
Rotational constants in MHz :   636.037740   222.292216   206.323959

                             ****ORCA TERMINATED NORMALLY****
TOTAL RUN TIME: 0 days 0 hours 0 minutes 21 seconds 414 msec
