                         Program Version 4.2.1 -  RELEASE  -
|  1> ! wB97X-D3 SP def2-SVP
|  2> %pal
|  3> nprocs 24
|  4> end
|  5>
|  6> * xyz 0 1
|  7> S 	 -76.9361 	 -17.6373 	 -54.598
|  8> C 	 -78.3457 	 -17.2612 	 -53.6403
|  9> C 	 -79.5323 	 -17.3781 	 -54.4058
| 10> C 	 -79.241 	 -17.3974 	 -55.7958
| 11> C 	 -77.8624 	 -17.4318 	 -56.1026
| 12> H 	 -79.9457 	 -17.4519 	 -56.6232
| 13> C 	 -80.9237 	 -17.3131 	 -53.8428
| 14> H 	 -81.3875 	 -16.4819 	 -54.3075
| 15> H 	 -80.8427 	 -17.1815 	 -52.7687
| 16> C 	 -81.7481 	 -18.5689 	 -54.0369
| 17> H 	 -81.7568 	 -18.8865 	 -55.085
| 18> H 	 -81.1425 	 -19.4772 	 -53.5253
| 19> C 	 -83.1356 	 -18.3357 	 -53.4783
| 20> H 	 -83.8187 	 -19.2026 	 -53.668
| 21> H 	 -83.1622 	 -18.0407 	 -52.4566
| 22> H 	 -83.7268 	 -17.5129 	 -53.8906
| 23> S 	 -76.1174 	 -18.9485 	 -57.6722
| 24> C 	 -76.067 	 -18.6027 	 -59.4025
| 25> C 	 -76.9496 	 -17.6112 	 -59.6735
| 26> C 	 -77.6092 	 -17.0516 	 -58.5665
| 27> C 	 -77.3023 	 -17.6407 	 -57.3932
| 28> H 	 -77.2013 	 -17.3574 	 -60.6633
| 29> C 	 -78.604 	 -15.8732 	 -58.7869
| 30> H 	 -77.9486 	 -15.0286 	 -58.8475
| 31> H 	 -79.1691 	 -15.5873 	 -57.9138
| 32> C 	 -79.5985 	 -15.9888 	 -59.9901
| 33> H 	 -79.0767 	 -15.9869 	 -60.9846
| 34> H 	 -80.171 	 -15.0118 	 -59.9895
| 35> C 	 -80.4861 	 -17.2262 	 -59.901
| 36> H 	 -79.9389 	 -18.1601 	 -60.0274
| 37> H 	 -81.2056 	 -17.0789 	 -60.7248
| 38> H 	 -81.0753 	 -17.2547 	 -58.9708
| 39> H 	 -78.3433 	 -17.3605 	 -52.5522
| 40> H 	 -75.5003 	 -19.2102 	 -60.1033
| 41> *
| 42>
| 43>                          ****END OF INPUT****

CARTESIAN COORDINATES (ANGSTROEM)
---------------------------------
  S    -76.936100  -17.637300  -54.598000
  C    -78.345700  -17.261200  -53.640300
  C    -79.532300  -17.378100  -54.405800
  C    -79.241000  -17.397400  -55.795800
  C    -77.862400  -17.431800  -56.102600
  H    -79.945700  -17.451900  -56.623200
  C    -80.923700  -17.313100  -53.842800
  H    -81.387500  -16.481900  -54.307500
  H    -80.842700  -17.181500  -52.768700
  C    -81.748100  -18.568900  -54.036900
  H    -81.756800  -18.886500  -55.085000
  H    -81.142500  -19.477200  -53.525300
  C    -83.135600  -18.335700  -53.478300
  H    -83.818700  -19.202600  -53.668000
  H    -83.162200  -18.040700  -52.456600
  H    -83.726800  -17.512900  -53.890600
  S    -76.117400  -18.948500  -57.672200
  C    -76.067000  -18.602700  -59.402500
  C    -76.949600  -17.611200  -59.673500
  C    -77.609200  -17.051600  -58.566500
  C    -77.302300  -17.640700  -57.393200
  H    -77.201300  -17.357400  -60.663300
  C    -78.604000  -15.873200  -58.786900
  H    -77.948600  -15.028600  -58.847500
  H    -79.169100  -15.587300  -57.913800
  C    -79.598500  -15.988800  -59.990100
  H    -79.076700  -15.986900  -60.984600
  H    -80.171000  -15.011800  -59.989500
  C    -80.486100  -17.226200  -59.901000
  H    -79.938900  -18.160100  -60.027400
  H    -81.205600  -17.078900  -60.724800
  H    -81.075300  -17.254700  -58.970800
  H    -78.343300  -17.360500  -52.552200
  H    -75.500300  -19.210200  -60.103300

 Total Charge           Charge          ....    0
 Multiplicity           Mult            ....    1
 Number of Electrons    NEL             ....  134
 Basis Dimension        Dim             ....  322

ORBITAL ENERGIES
----------------

  NO   OCC          E(Eh)            E(eV)
   0   2.0000     -88.967499     -2420.9287
   1   2.0000     -88.961061     -2420.7535
   2   2.0000     -10.330754      -281.1141
   3   2.0000     -10.322339      -280.8851
   4   2.0000     -10.318423      -280.7786
   5   2.0000     -10.316529      -280.7270
   6   2.0000     -10.303975      -280.3854
   7   2.0000     -10.299698      -280.2690
   8   2.0000     -10.298773      -280.2439
   9   2.0000     -10.297575      -280.2112
  10   2.0000     -10.297225      -280.2017
  11   2.0000     -10.290424      -280.0167
  12   2.0000     -10.287553      -279.9385
  13   2.0000     -10.285840      -279.8919
  14   2.0000     -10.283016      -279.8151
  15   2.0000     -10.280527      -279.7474
  16   2.0000      -8.081661      -219.9132
  17   2.0000      -8.075466      -219.7446
  18   2.0000      -6.040128      -164.3602
  19   2.0000      -6.036390      -164.2585
  20   2.0000      -6.034104      -164.1963
  21   2.0000      -6.032370      -164.1491
  22   2.0000      -6.030124      -164.0880
  23   2.0000      -6.025991      -163.9755
  24   2.0000      -1.006485       -27.3878
  25   2.0000      -0.982247       -26.7283
  26   2.0000      -0.917845       -24.9758
  27   2.0000      -0.903964       -24.5981
  28   2.0000      -0.874075       -23.7848
  29   2.0000      -0.851774       -23.1780
  30   2.0000      -0.843652       -22.9569
  31   2.0000      -0.813238       -22.1293
  32   2.0000      -0.785484       -21.3741
  33   2.0000      -0.773325       -21.0433
  34   2.0000      -0.710254       -19.3270
  35   2.0000      -0.697347       -18.9758
  36   2.0000      -0.695695       -18.9308
  37   2.0000      -0.661100       -17.9894
  38   2.0000      -0.640740       -17.4354
  39   2.0000      -0.619533       -16.8584
  40   2.0000      -0.602591       -16.3973
  41   2.0000      -0.568887       -15.4802
  42   2.0000      -0.562827       -15.3153
  43   2.0000      -0.551880       -15.0174
  44   2.0000      -0.539930       -14.6922
  45   2.0000      -0.527554       -14.3555
  46   2.0000      -0.517054       -14.0698
  47   2.0000      -0.512857       -13.9555
  48   2.0000      -0.498907       -13.5759
  49   2.0000      -0.497458       -13.5365
  50   2.0000      -0.493391       -13.4259
  51   2.0000      -0.484447       -13.1825
  52   2.0000      -0.475776       -12.9465
  53   2.0000      -0.469453       -12.7745
  54   2.0000      -0.458736       -12.4829
  55   2.0000      -0.448034       -12.1916
  56   2.0000      -0.445278       -12.1166
  57   2.0000      -0.441424       -12.0118
  58   2.0000      -0.431041       -11.7292
  59   2.0000      -0.422231       -11.4895
  60   2.0000      -0.420512       -11.4427
  61   2.0000      -0.412623       -11.2280
  62   2.0000      -0.410066       -11.1585
  63   2.0000      -0.354280        -9.6405
  64   2.0000      -0.331447        -9.0191
  65   2.0000      -0.328178        -8.9302
  66   2.0000      -0.284958        -7.7541
  67   0.0000       0.021920         0.5965
  68   0.0000       0.069514         1.8916
  69   0.0000       0.104785         2.8514
  70   0.0000       0.121993         3.3196
  71   0.0000       0.132449         3.6041

MULLIKEN ATOMIC CHARGES
-----------------------
   0 S :    0.105809
   1 C :   -0.106363
   2 C :   -0.104835
   3 C :    0.032131
   4 C :   -0.165861
   5 H :    0.007581
   6 C :    0.088492
   7 H :    0.026197
   8 H :    0.014504
   9 C :   -0.113689
  10 H :    0.032744
  11 H :    0.047189
  12 C :   -0.028987
  13 H :    0.041914
  14 H :    0.020081
  15 H :    0.020011
  16 S :    0.083195
  17 C :   -0.089276
  18 C :   -0.006737
  19 C :   -0.052166
  20 C :   -0.135765
  21 H :   -0.005061
  22 C :    0.091068
  23 H :    0.029849
  24 H :    0.012334
  25 C :   -0.119804
  26 H :    0.037591
  27 H :    0.040631
  28 C :   -0.047970
  29 H :    0.051730
  30 H :    0.037039
  31 H :    0.036988
  32 H :    0.056704
  33 H :    0.062730
Sum of atomic charges:   -0.0000000

LOEWDIN ATOMIC CHARGES
----------------------
   0 S :    0.401466
   1 C :   -0.206160
   2 C :   -0.058149
   3 C :   -0.057393
   4 C :   -0.182451
   5 H :    0.028712
   6 C :   -0.029903
   7 H :    0.027447
   8 H :    0.030289
   9 C :   -0.046973
  10 H :    0.021811
  11 H :    0.039777
  12 C :   -0.074649
  13 H :    0.033476
  14 H :    0.021877
  15 H :    0.027759
  16 S :    0.371271
  17 C :   -0.169913
  18 C :   -0.068545
  19 C :   -0.060562
  20 C :   -0.187755
  21 H :    0.022507
  22 C :   -0.032693
  23 H :    0.033022
  24 H :    0.026233
  25 C :   -0.046608
  26 H :    0.024125
  27 H :    0.032955
  28 C :   -0.068024
  29 H :    0.029923
  30 H :    0.031623
  31 H :    0.024510
  32 H :    0.028060
  33 H :    0.032933

  Mayer bond orders larger than 0.100000
B(  0-S ,  1-C ) :   1.1472 B(  0-S ,  4-C ) :   1.1502 B(  1-C ,  2-C ) :   1.5772
B(  1-C ,  4-C ) :   0.1086 B(  1-C , 32-H ) :   0.9612 B(  2-C ,  3-C ) :   1.2664
B(  2-C ,  6-C ) :   1.0322 B(  3-C ,  4-C ) :   1.5287 B(  3-C ,  5-H ) :   0.9882
B(  4-C , 20-C ) :   1.0918 B(  6-C ,  7-H ) :   0.9408 B(  6-C ,  8-H ) :   0.9386
B(  6-C ,  9-C ) :   1.0586 B(  9-C , 10-H ) :   0.9578 B(  9-C , 11-H ) :   0.9505
B(  9-C , 12-C ) :   1.0766 B( 12-C , 13-H ) :   0.9725 B( 12-C , 14-H ) :   0.9708
B( 12-C , 15-H ) :   0.9692 B( 16-S , 17-C ) :   1.1386 B( 16-S , 20-C ) :   1.1104
B( 17-C , 18-C ) :   1.6100 B( 17-C , 33-H ) :   0.9699 B( 18-C , 19-C ) :   1.2399
B( 18-C , 21-H ) :   0.9969 B( 19-C , 20-C ) :   1.6343 B( 19-C , 22-C ) :   1.0168
B( 22-C , 23-H ) :   0.9310 B( 22-C , 24-H ) :   0.9369 B( 22-C , 25-C ) :   1.0676
B( 25-C , 26-H ) :   0.9522 B( 25-C , 27-H ) :   0.9550 B( 25-C , 28-C ) :   1.0732
B( 28-C , 29-H ) :   0.9715 B( 28-C , 30-H ) :   0.9721 B( 28-C , 31-H ) :   0.9719

Dispersion correction           -0.014491011
FINAL SINGLE POINT ENERGY     -1339.876723618722

DIPOLE MOMENT
-------------
                                X             Y             Z
Electronic contribution:     29.25370      -4.63938       3.36112
Nuclear contribution   :    -30.04581       4.77252      -3.66316
                        -----------------------------------------
Total Dipole Moment    :     -0.79210       0.13315      -0.30203
                        -----------------------------------------
Magnitude (a.u.)       :      0.85813
Magnitude (Debye)      :      2.18119

Rotational constants in cm-1:     0.018060     0.008900     0.006729
Rotational constants in MHz :   541.426478   266.816382   201.743382

                             ****ORCA TERMINATED NORMALLY****
TOTAL RUN TIME: 0 days 0 hours 0 minutes 21 seconds 907 msec
