                         Program Version 4.2.1 -  RELEASE  -
|  1> ! wB97X-D3 SP def2-SVP
|  2> %pal
|  3> nprocs 24
|  4> end
|  5>
|  6> * xyz 0 1
|  7> S 	 -50.2327 	 -48.4829 	 -79.6972
|  8> C 	 -49.0557 	 -49.4952 	 -80.425
|  9> C 	 -49.2315 	 -50.8421 	 -80.087
| 10> C 	 -50.2063 	 -50.9794 	 -79.0433
| 11> C 	 -50.8658 	 -49.7984 	 -78.7456
| 12> H 	 -50.426 	 -51.9022 	 -78.4852
| 13> C 	 -48.5679 	 -52.0672 	 -80.6703
| 14> H 	 -48.0293 	 -52.5667 	 -79.8179
| 15> H 	 -47.7816 	 -51.7012 	 -81.4107
| 16> C 	 -49.4649 	 -53.0377 	 -81.5048
| 17> H 	 -48.8908 	 -53.8972 	 -81.9056
| 18> H 	 -50.1758 	 -53.5104 	 -80.8469
| 19> C 	 -49.9764 	 -52.4419 	 -82.7583
| 20> H 	 -49.319 	 -51.7144 	 -83.2351
| 21> H 	 -50.4144 	 -53.0788 	 -83.5796
| 22> H 	 -50.7266 	 -51.7057 	 -82.5001
| 23> S 	 -52.0833 	 -50.8098 	 -76.5286
| 24> C 	 -53.5934 	 -50.3015 	 -76.0459
| 25> C 	 -54.0059 	 -49.0909 	 -76.5803
| 26> C 	 -53.0092 	 -48.6581 	 -77.612
| 27> C 	 -51.98 	 -49.6018 	 -77.8426
| 28> H 	 -54.9856 	 -48.6463 	 -76.5085
| 29> C 	 -53.2681 	 -47.3821 	 -78.4169
| 30> H 	 -52.3084 	 -46.851 	 -78.306
| 31> H 	 -54.1178 	 -46.831 	 -77.9704
| 32> C 	 -53.5765 	 -47.5964 	 -79.9277
| 33> H 	 -54.5466 	 -48.1256 	 -79.9915
| 34> H 	 -52.8113 	 -48.1865 	 -80.4696
| 35> C 	 -53.7497 	 -46.2809 	 -80.7237
| 36> H 	 -53.0515 	 -45.4616 	 -80.6365
| 37> H 	 -54.5454 	 -45.729 	 -80.2687
| 38> H 	 -53.8824 	 -46.3999 	 -81.8252
| 39> H 	 -48.3738 	 -49.2042 	 -81.1972
| 40> H 	 -54.2052 	 -50.8626 	 -75.3015
| 41> *
| 42>
| 43>                          ****END OF INPUT****

CARTESIAN COORDINATES (ANGSTROEM)
---------------------------------
  S    -50.232700  -48.482900  -79.697200
  C    -49.055700  -49.495200  -80.425000
  C    -49.231500  -50.842100  -80.087000
  C    -50.206300  -50.979400  -79.043300
  C    -50.865800  -49.798400  -78.745600
  H    -50.426000  -51.902200  -78.485200
  C    -48.567900  -52.067200  -80.670300
  H    -48.029300  -52.566700  -79.817900
  H    -47.781600  -51.701200  -81.410700
  C    -49.464900  -53.037700  -81.504800
  H    -48.890800  -53.897200  -81.905600
  H    -50.175800  -53.510400  -80.846900
  C    -49.976400  -52.441900  -82.758300
  H    -49.319000  -51.714400  -83.235100
  H    -50.414400  -53.078800  -83.579600
  H    -50.726600  -51.705700  -82.500100
  S    -52.083300  -50.809800  -76.528600
  C    -53.593400  -50.301500  -76.045900
  C    -54.005900  -49.090900  -76.580300
  C    -53.009200  -48.658100  -77.612000
  C    -51.980000  -49.601800  -77.842600
  H    -54.985600  -48.646300  -76.508500
  C    -53.268100  -47.382100  -78.416900
  H    -52.308400  -46.851000  -78.306000
  H    -54.117800  -46.831000  -77.970400
  C    -53.576500  -47.596400  -79.927700
  H    -54.546600  -48.125600  -79.991500
  H    -52.811300  -48.186500  -80.469600
  C    -53.749700  -46.280900  -80.723700
  H    -53.051500  -45.461600  -80.636500
  H    -54.545400  -45.729000  -80.268700
  H    -53.882400  -46.399900  -81.825200
  H    -48.373800  -49.204200  -81.197200
  H    -54.205200  -50.862600  -75.301500

 Total Charge           Charge          ....    0
 Multiplicity           Mult            ....    1
 Number of Electrons    NEL             ....  134
 Basis Dimension        Dim             ....  322

ORBITAL ENERGIES
----------------

  NO   OCC          E(Eh)            E(eV)
   0   2.0000     -88.971279     -2421.0316
   1   2.0000     -88.963031     -2420.8071
   2   2.0000     -10.333578      -281.1909
   3   2.0000     -10.332400      -281.1589
   4   2.0000     -10.318346      -280.7765
   5   2.0000     -10.314284      -280.6659
   6   2.0000     -10.314279      -280.6658
   7   2.0000     -10.305128      -280.4168
   8   2.0000     -10.304613      -280.4028
   9   2.0000     -10.299068      -280.2519
  10   2.0000     -10.298335      -280.2319
  11   2.0000     -10.296828      -280.1909
  12   2.0000     -10.290307      -280.0135
  13   2.0000     -10.289006      -279.9781
  14   2.0000     -10.274754      -279.5903
  15   2.0000     -10.273981      -279.5692
  16   2.0000      -8.086012      -220.0316
  17   2.0000      -8.079065      -219.8425
  18   2.0000      -6.044490      -164.4789
  19   2.0000      -6.040475      -164.3697
  20   2.0000      -6.037527      -164.2894
  21   2.0000      -6.036854      -164.2712
  22   2.0000      -6.033371      -164.1764
  23   2.0000      -6.029835      -164.0802
  24   2.0000      -1.009739       -27.4764
  25   2.0000      -0.986906       -26.8551
  26   2.0000      -0.913708       -24.8633
  27   2.0000      -0.903449       -24.5841
  28   2.0000      -0.872374       -23.7385
  29   2.0000      -0.854650       -23.2562
  30   2.0000      -0.845967       -23.0199
  31   2.0000      -0.810070       -22.0431
  32   2.0000      -0.782672       -21.2976
  33   2.0000      -0.770449       -20.9650
  34   2.0000      -0.710564       -19.3354
  35   2.0000      -0.700975       -19.0745
  36   2.0000      -0.689784       -18.7700
  37   2.0000      -0.667132       -18.1536
  38   2.0000      -0.634849       -17.2751
  39   2.0000      -0.616168       -16.7668
  40   2.0000      -0.591720       -16.1015
  41   2.0000      -0.566066       -15.4034
  42   2.0000      -0.564445       -15.3593
  43   2.0000      -0.554743       -15.0953
  44   2.0000      -0.544404       -14.8140
  45   2.0000      -0.524070       -14.2607
  46   2.0000      -0.515528       -14.0282
  47   2.0000      -0.509481       -13.8637
  48   2.0000      -0.499692       -13.5973
  49   2.0000      -0.493857       -13.4385
  50   2.0000      -0.490905       -13.3582
  51   2.0000      -0.484966       -13.1966
  52   2.0000      -0.480407       -13.0725
  53   2.0000      -0.467541       -12.7224
  54   2.0000      -0.459509       -12.5039
  55   2.0000      -0.451574       -12.2880
  56   2.0000      -0.445324       -12.1179
  57   2.0000      -0.436324       -11.8730
  58   2.0000      -0.429054       -11.6752
  59   2.0000      -0.422764       -11.5040
  60   2.0000      -0.415786       -11.3141
  61   2.0000      -0.410329       -11.1656
  62   2.0000      -0.400905       -10.9092
  63   2.0000      -0.363684        -9.8963
  64   2.0000      -0.330944        -9.0054
  65   2.0000      -0.325626        -8.8607
  66   2.0000      -0.281429        -7.6581
  67   0.0000       0.019213         0.5228
  68   0.0000       0.084093         2.2883
  69   0.0000       0.104859         2.8533
  70   0.0000       0.113669         3.0931
  71   0.0000       0.120493         3.2788

MULLIKEN ATOMIC CHARGES
-----------------------
   0 S :    0.111769
   1 C :   -0.094487
   2 C :   -0.097616
   3 C :   -0.010512
   4 C :   -0.122319
   5 H :    0.030395
   6 C :    0.015553
   7 H :    0.053028
   8 H :    0.026439
   9 C :   -0.036340
  10 H :    0.031386
  11 H :    0.029027
  12 C :   -0.063856
  13 H :    0.012269
  14 H :    0.052481
  15 H :    0.022251
  16 S :    0.090759
  17 C :   -0.085021
  18 C :   -0.026573
  19 C :   -0.088536
  20 C :   -0.118676
  21 H :    0.025940
  22 C :    0.030534
  23 H :    0.045017
  24 H :    0.028398
  25 C :   -0.071401
  26 H :    0.035962
  27 H :    0.044524
  28 C :   -0.048498
  29 H :    0.013284
  30 H :    0.005952
  31 H :    0.046613
  32 H :    0.038889
  33 H :    0.073366
Sum of atomic charges:   -0.0000000

LOEWDIN ATOMIC CHARGES
----------------------
   0 S :    0.441926
   1 C :   -0.209488
   2 C :   -0.065652
   3 C :   -0.071409
   4 C :   -0.195001
   5 H :    0.030596
   6 C :   -0.035263
   7 H :    0.040666
   8 H :    0.033658
   9 C :   -0.044486
  10 H :    0.031149
  11 H :    0.021560
  12 C :   -0.080958
  13 H :    0.025613
  14 H :    0.035622
  15 H :    0.025923
  16 S :    0.425321
  17 C :   -0.207977
  18 C :   -0.079889
  19 C :   -0.049894
  20 C :   -0.188432
  21 H :    0.031547
  22 C :   -0.039531
  23 H :    0.031847
  24 H :    0.033189
  25 C :   -0.043637
  26 H :    0.029309
  27 H :    0.015670
  28 C :   -0.079830
  29 H :    0.022258
  30 H :    0.019703
  31 H :    0.033374
  32 H :    0.024441
  33 H :    0.038076

  Mayer bond orders larger than 0.100000
B(  0-S ,  1-C ) :   1.1468 B(  0-S ,  4-C ) :   1.1435 B(  1-C ,  2-C ) :   1.6009
B(  1-C , 32-H ) :   0.9649 B(  2-C ,  3-C ) :   1.2465 B(  2-C ,  6-C ) :   1.0273
B(  3-C ,  4-C ) :   1.5480 B(  3-C ,  5-H ) :   0.9800 B(  4-C , 20-C ) :   1.0917
B(  6-C ,  7-H ) :   0.9411 B(  6-C ,  8-H ) :   0.9427 B(  6-C ,  9-C ) :   1.0696
B(  9-C , 10-H ) :   0.9563 B(  9-C , 11-H ) :   0.9563 B(  9-C , 12-C ) :   1.0626
B( 12-C , 13-H ) :   0.9672 B( 12-C , 14-H ) :   0.9755 B( 12-C , 15-H ) :   0.9674
B( 16-S , 17-C ) :   1.1868 B( 16-S , 20-C ) :   1.1195 B( 17-C , 18-C ) :   1.5992
B( 17-C , 33-H ) :   0.9576 B( 18-C , 19-C ) :   1.2295 B( 18-C , 21-H ) :   0.9879
B( 19-C , 20-C ) :   1.5777 B( 19-C , 22-C ) :   1.0456 B( 22-C , 23-H ) :   0.9322
B( 22-C , 24-H ) :   0.9378 B( 22-C , 25-C ) :   1.0634 B( 25-C , 26-H ) :   0.9538
B( 25-C , 27-H ) :   0.9543 B( 25-C , 28-C ) :   1.0698 B( 28-C , 29-H ) :   0.9733
B( 28-C , 30-H ) :   0.9695 B( 28-C , 31-H ) :   0.9759

Dispersion correction           -0.014573103
FINAL SINGLE POINT ENERGY     -1339.867929160441

DIPOLE MOMENT
-------------
                                X             Y             Z
Electronic contribution:      3.04906       0.22741      19.41965
Nuclear contribution   :     -3.24102      -0.34706     -19.70832
                        -----------------------------------------
Total Dipole Moment    :     -0.19196      -0.11965      -0.28867
                        -----------------------------------------
Magnitude (a.u.)       :      0.36674
Magnitude (Debye)      :      0.93217

Rotational constants in cm-1:     0.018147     0.009255     0.007166
Rotational constants in MHz :   544.039123   277.445989   214.840798

                             ****ORCA TERMINATED NORMALLY****
TOTAL RUN TIME: 0 days 0 hours 0 minutes 22 seconds 522 msec
