                         Program Version 4.2.1 -  RELEASE  -
|  1> ! wB97X-D3 SP def2-SVP
|  2> %pal
|  3> nprocs 24
|  4> end
|  5>
|  6> * xyz 0 1
|  7> S 	 -46.3311 	 29.4917 	 27.7998
|  8> C 	 -47.7437 	 29.687 	 28.8514
|  9> C 	 -47.997 	 28.5591 	 29.6735
| 10> C 	 -46.9494 	 27.5853 	 29.4963
| 11> C 	 -46.1148 	 27.8901 	 28.381
| 12> H 	 -46.8735 	 26.6302 	 30.0944
| 13> C 	 -49.1746 	 28.4242 	 30.5964
| 14> H 	 -49.7325 	 29.3465 	 30.4515
| 15> H 	 -48.772 	 28.5077 	 31.5832
| 16> C 	 -50.0157 	 27.0715 	 30.4473
| 17> H 	 -50.9154 	 27.1061 	 31.0991
| 18> H 	 -50.4132 	 26.9913 	 29.4737
| 19> C 	 -49.2406 	 25.7819 	 30.8565
| 20> H 	 -48.5627 	 25.9061 	 31.732
| 21> H 	 -50.0382 	 25.0433 	 30.9674
| 22> H 	 -48.6802 	 25.4039 	 30.0414
| 23> S 	 -44.6225 	 27.0918 	 26.1774
| 24> C 	 -43.2797 	 26.0464 	 26.5009
| 25> C 	 -43.2643 	 25.606 	 27.7991
| 26> C 	 -44.1289 	 26.3329 	 28.6412
| 27> C 	 -44.9873 	 27.1022 	 27.8726
| 28> H 	 -42.5434 	 24.965 	 28.106
| 29> C 	 -44.1388 	 26.0977 	 30.1049
| 30> H 	 -44.5829 	 27.0239 	 30.5053
| 31> H 	 -43.1025 	 26.1643 	 30.4666
| 32> C 	 -44.7799 	 24.7365 	 30.586
| 33> H 	 -44.0311 	 24.0174 	 30.2759
| 34> H 	 -45.6562 	 24.4589 	 30.0553
| 35> C 	 -44.7822 	 24.7325 	 32.1382
| 36> H 	 -45.3413 	 25.4737 	 32.643
| 37> H 	 -43.8056 	 24.7123 	 32.492
| 38> H 	 -45.1437 	 23.7389 	 32.5035
| 39> H 	 -48.3895 	 30.5287 	 28.822
| 40> H 	 -42.586 	 25.5226 	 25.8207
| 41> *
| 42>
| 43>                          ****END OF INPUT****

CARTESIAN COORDINATES (ANGSTROEM)
---------------------------------
  S    -46.331100   29.491700   27.799800
  C    -47.743700   29.687000   28.851400
  C    -47.997000   28.559100   29.673500
  C    -46.949400   27.585300   29.496300
  C    -46.114800   27.890100   28.381000
  H    -46.873500   26.630200   30.094400
  C    -49.174600   28.424200   30.596400
  H    -49.732500   29.346500   30.451500
  H    -48.772000   28.507700   31.583200
  C    -50.015700   27.071500   30.447300
  H    -50.915400   27.106100   31.099100
  H    -50.413200   26.991300   29.473700
  C    -49.240600   25.781900   30.856500
  H    -48.562700   25.906100   31.732000
  H    -50.038200   25.043300   30.967400
  H    -48.680200   25.403900   30.041400
  S    -44.622500   27.091800   26.177400
  C    -43.279700   26.046400   26.500900
  C    -43.264300   25.606000   27.799100
  C    -44.128900   26.332900   28.641200
  C    -44.987300   27.102200   27.872600
  H    -42.543400   24.965000   28.106000
  C    -44.138800   26.097700   30.104900
  H    -44.582900   27.023900   30.505300
  H    -43.102500   26.164300   30.466600
  C    -44.779900   24.736500   30.586000
  H    -44.031100   24.017400   30.275900
  H    -45.656200   24.458900   30.055300
  C    -44.782200   24.732500   32.138200
  H    -45.341300   25.473700   32.643000
  H    -43.805600   24.712300   32.492000
  H    -45.143700   23.738900   32.503500
  H    -48.389500   30.528700   28.822000
  H    -42.586000   25.522600   25.820700

 Total Charge           Charge          ....    0
 Multiplicity           Mult            ....    1
 Number of Electrons    NEL             ....  134
 Basis Dimension        Dim             ....  322

ORBITAL ENERGIES
----------------

  NO   OCC          E(Eh)            E(eV)
   0   2.0000     -88.969335     -2420.9787
   1   2.0000     -88.967245     -2420.9218
   2   2.0000     -10.328291      -281.0471
   3   2.0000     -10.320702      -280.8406
   4   2.0000     -10.311937      -280.6021
   5   2.0000     -10.310734      -280.5693
   6   2.0000     -10.303740      -280.3790
   7   2.0000     -10.299102      -280.2528
   8   2.0000     -10.294124      -280.1174
   9   2.0000     -10.293839      -280.1096
  10   2.0000     -10.293328      -280.0957
  11   2.0000     -10.292046      -280.0608
  12   2.0000     -10.290007      -280.0053
  13   2.0000     -10.282122      -279.7908
  14   2.0000     -10.278164      -279.6831
  15   2.0000     -10.277851      -279.6745
  16   2.0000      -8.084288      -219.9847
  17   2.0000      -8.081879      -219.9191
  18   2.0000      -6.042741      -164.4313
  19   2.0000      -6.040240      -164.3633
  20   2.0000      -6.038888      -164.3265
  21   2.0000      -6.036475      -164.2608
  22   2.0000      -6.034977      -164.2201
  23   2.0000      -6.032748      -164.1594
  24   2.0000      -1.008128       -27.4325
  25   2.0000      -0.980327       -26.6761
  26   2.0000      -0.909748       -24.7555
  27   2.0000      -0.906296       -24.6616
  28   2.0000      -0.864692       -23.5295
  29   2.0000      -0.856969       -23.3193
  30   2.0000      -0.842717       -22.9315
  31   2.0000      -0.811588       -22.0844
  32   2.0000      -0.786141       -21.3920
  33   2.0000      -0.768921       -20.9234
  34   2.0000      -0.715579       -19.4719
  35   2.0000      -0.706598       -19.2275
  36   2.0000      -0.693245       -18.8641
  37   2.0000      -0.664399       -18.0792
  38   2.0000      -0.632183       -17.2026
  39   2.0000      -0.615995       -16.7621
  40   2.0000      -0.591649       -16.0996
  41   2.0000      -0.569032       -15.4841
  42   2.0000      -0.565322       -15.3832
  43   2.0000      -0.543906       -14.8004
  44   2.0000      -0.537391       -14.6232
  45   2.0000      -0.524444       -14.2709
  46   2.0000      -0.515766       -14.0347
  47   2.0000      -0.511293       -13.9130
  48   2.0000      -0.505399       -13.7526
  49   2.0000      -0.494288       -13.4503
  50   2.0000      -0.488576       -13.2948
  51   2.0000      -0.480016       -13.0619
  52   2.0000      -0.470119       -12.7926
  53   2.0000      -0.466219       -12.6865
  54   2.0000      -0.458885       -12.4869
  55   2.0000      -0.453199       -12.3322
  56   2.0000      -0.447120       -12.1668
  57   2.0000      -0.443765       -12.0755
  58   2.0000      -0.438303       -11.9268
  59   2.0000      -0.429380       -11.6840
  60   2.0000      -0.423666       -11.5285
  61   2.0000      -0.419541       -11.4163
  62   2.0000      -0.415508       -11.3065
  63   2.0000      -0.344245        -9.3674
  64   2.0000      -0.331900        -9.0315
  65   2.0000      -0.328157        -8.9296
  66   2.0000      -0.280727        -7.6390
  67   0.0000       0.027726         0.7545
  68   0.0000       0.080071         2.1788
  69   0.0000       0.110160         2.9976
  70   0.0000       0.114185         3.1071
  71   0.0000       0.128647         3.5007

MULLIKEN ATOMIC CHARGES
-----------------------
   0 S :    0.116366
   1 C :   -0.118502
   2 C :   -0.111797
   3 C :   -0.016014
   4 C :   -0.146847
   5 H :    0.027031
   6 C :    0.098857
   7 H :    0.011927
   8 H :    0.031156
   9 C :   -0.071003
  10 H :    0.035299
  11 H :    0.028504
  12 C :   -0.066428
  13 H :    0.049714
  14 H :    0.033342
  15 H :    0.038711
  16 S :    0.128863
  17 C :   -0.086532
  18 C :   -0.004551
  19 C :   -0.048614
  20 C :   -0.144048
  21 H :   -0.026102
  22 C :    0.026040
  23 H :    0.030736
  24 H :    0.022705
  25 C :   -0.053600
  26 H :    0.022744
  27 H :    0.036459
  28 C :   -0.004085
  29 H :    0.031026
  30 H :    0.013332
  31 H :    0.026257
  32 H :    0.030913
  33 H :    0.058140
Sum of atomic charges:   -0.0000000

LOEWDIN ATOMIC CHARGES
----------------------
   0 S :    0.415261
   1 C :   -0.201961
   2 C :   -0.054540
   3 C :   -0.076108
   4 C :   -0.198725
   5 H :    0.040382
   6 C :   -0.030973
   7 H :    0.030727
   8 H :    0.030800
   9 C :   -0.030299
  10 H :    0.027509
  11 H :    0.020991
  12 C :   -0.068481
  13 H :    0.029743
  14 H :    0.031588
  15 H :    0.019106
  16 S :    0.419900
  17 C :   -0.197771
  18 C :   -0.058097
  19 C :   -0.058382
  20 C :   -0.209277
  21 H :    0.011285
  22 C :   -0.039086
  23 H :    0.030761
  24 H :    0.032338
  25 C :   -0.028596
  26 H :    0.027991
  27 H :    0.018662
  28 C :   -0.056703
  29 H :    0.018540
  30 H :    0.019532
  31 H :    0.031302
  32 H :    0.015486
  33 H :    0.037096

  Mayer bond orders larger than 0.100000
B(  0-S ,  1-C ) :   1.1345 B(  0-S ,  4-C ) :   1.1774 B(  1-C ,  2-C ) :   1.5968
B(  1-C ,  4-C ) :   0.1049 B(  1-C , 32-H ) :   0.9675 B(  2-C ,  3-C ) :   1.2568
B(  2-C ,  6-C ) :   1.0255 B(  3-C ,  4-C ) :   1.5296 B(  3-C ,  5-H ) :   0.9748
B(  4-C , 20-C ) :   1.0453 B(  6-C ,  7-H ) :   0.9352 B(  6-C ,  8-H ) :   0.9363
B(  6-C ,  9-C ) :   1.0544 B(  9-C , 10-H ) :   0.9648 B(  9-C , 11-H ) :   0.9587
B(  9-C , 12-C ) :   1.0706 B( 12-C , 13-H ) :   0.9748 B( 12-C , 14-H ) :   0.9676
B( 12-C , 15-H ) :   0.9701 B( 16-S , 17-C ) :   1.1419 B( 16-S , 20-C ) :   1.1434
B( 17-C , 18-C ) :   1.6295 B( 17-C , 33-H ) :   0.9589 B( 18-C , 19-C ) :   1.2436
B( 18-C , 21-H ) :   0.9949 B( 19-C , 20-C ) :   1.5762 B( 19-C , 22-C ) :   1.0576
B( 22-C , 23-H ) :   0.9311 B( 22-C , 24-H ) :   0.9267 B( 22-C , 25-C ) :   1.0412
B( 25-C , 26-H ) :   0.9486 B( 25-C , 27-H ) :   0.9642 B( 25-C , 28-C ) :   1.0748
B( 28-C , 29-H ) :   0.9809 B( 28-C , 30-H ) :   0.9704 B( 28-C , 31-H ) :   0.9719

Dispersion correction           -0.015238264
FINAL SINGLE POINT ENERGY     -1339.864249274057

DIPOLE MOMENT
-------------
                                X             Y             Z
Electronic contribution:      9.79169      15.82244     -25.26221
Nuclear contribution   :     -9.91130     -16.33269      25.86151
                        -----------------------------------------
Total Dipole Moment    :     -0.11961      -0.51025       0.59931
                        -----------------------------------------
Magnitude (a.u.)       :      0.79614
Magnitude (Debye)      :      2.02362

Rotational constants in cm-1:     0.016310     0.010926     0.007395
Rotational constants in MHz :   488.947258   327.561674   221.703330

                             ****ORCA TERMINATED NORMALLY****
TOTAL RUN TIME: 0 days 0 hours 0 minutes 22 seconds 776 msec
