                         Program Version 4.2.1 -  RELEASE  -
|  1> ! wB97X-D3 SP def2-SVP
|  2> %pal
|  3> nprocs 24
|  4> end
|  5>
|  6> * xyz 0 1
|  7> S 	 -132.544 	 27.9907 	 -14.9954
|  8> C 	 -133.322 	 27.2915 	 -13.6092
|  9> C 	 -134.162 	 26.2837 	 -14.0489
| 10> C 	 -134.106 	 26.1001 	 -15.5209
| 11> C 	 -133.179 	 26.8749 	 -16.1945
| 12> H 	 -134.66 	 25.3141 	 -16.0462
| 13> C 	 -134.939 	 25.3657 	 -13.1134
| 14> H 	 -135.964 	 25.2404 	 -13.5265
| 15> H 	 -134.86 	 25.9057 	 -12.141
| 16> C 	 -134.297 	 23.9913 	 -12.8825
| 17> H 	 -134.889 	 23.3408 	 -12.3028
| 18> H 	 -134.205 	 23.6042 	 -13.8207
| 19> C 	 -132.939 	 24.049 	 -12.0222
| 20> H 	 -132.401 	 23.1306 	 -12.238
| 21> H 	 -132.221 	 24.8401 	 -12.3493
| 22> H 	 -133.044 	 24.0194 	 -10.8481
| 23> S 	 -131.272 	 27.0501 	 -18.1865
| 24> C 	 -131.766 	 27.3165 	 -19.862
| 25> C 	 -133.11 	 27.1632 	 -20.0162
| 26> C 	 -133.779 	 26.9288 	 -18.7775
| 27> C 	 -132.959 	 26.9946 	 -17.6496
| 28> H 	 -133.531 	 27.3827 	 -20.9646
| 29> C 	 -135.277 	 26.8704 	 -18.6568
| 30> H 	 -135.56 	 26.7876 	 -17.6644
| 31> H 	 -135.686 	 25.8934 	 -18.9091
| 32> C 	 -136.095 	 28.0413 	 -19.1495
| 33> H 	 -135.753 	 28.2162 	 -20.1645
| 34> H 	 -135.899 	 29.0151 	 -18.7374
| 35> C 	 -137.577 	 27.7627 	 -19.1692
| 36> H 	 -137.822 	 26.8013 	 -19.5294
| 37> H 	 -138.192 	 28.5519 	 -19.7117
| 38> H 	 -137.843 	 27.7599 	 -18.1185
| 39> H 	 -133.029 	 27.4927 	 -12.5655
| 40> H 	 -131.154 	 27.3224 	 -20.7663
| 41> *
| 42>
| 43>                          ****END OF INPUT****

CARTESIAN COORDINATES (ANGSTROEM)
---------------------------------
  S    -132.544000   27.990700  -14.995400
  C    -133.322000   27.291500  -13.609200
  C    -134.162000   26.283700  -14.048900
  C    -134.106000   26.100100  -15.520900
  C    -133.179000   26.874900  -16.194500
  H    -134.660000   25.314100  -16.046200
  C    -134.939000   25.365700  -13.113400
  H    -135.964000   25.240400  -13.526500
  H    -134.860000   25.905700  -12.141000
  C    -134.297000   23.991300  -12.882500
  H    -134.889000   23.340800  -12.302800
  H    -134.205000   23.604200  -13.820700
  C    -132.939000   24.049000  -12.022200
  H    -132.401000   23.130600  -12.238000
  H    -132.221000   24.840100  -12.349300
  H    -133.044000   24.019400  -10.848100
  S    -131.272000   27.050100  -18.186500
  C    -131.766000   27.316500  -19.862000
  C    -133.110000   27.163200  -20.016200
  C    -133.779000   26.928800  -18.777500
  C    -132.959000   26.994600  -17.649600
  H    -133.531000   27.382700  -20.964600
  C    -135.277000   26.870400  -18.656800
  H    -135.560000   26.787600  -17.664400
  H    -135.686000   25.893400  -18.909100
  C    -136.095000   28.041300  -19.149500
  H    -135.753000   28.216200  -20.164500
  H    -135.899000   29.015100  -18.737400
  C    -137.577000   27.762700  -19.169200
  H    -137.822000   26.801300  -19.529400
  H    -138.192000   28.551900  -19.711700
  H    -137.843000   27.759900  -18.118500
  H    -133.029000   27.492700  -12.565500
  H    -131.154000   27.322400  -20.766300

 Total Charge           Charge          ....    0
 Multiplicity           Mult            ....    1
 Number of Electrons    NEL             ....  134
 Basis Dimension        Dim             ....  322

ORBITAL ENERGIES
----------------

  NO   OCC          E(Eh)            E(eV)
   0   2.0000     -88.966647     -2420.9055
   1   2.0000     -88.962552     -2420.7941
   2   2.0000     -10.337334      -281.2932
   3   2.0000     -10.336074      -281.2589
   4   2.0000     -10.319758      -280.8149
   5   2.0000     -10.319616      -280.8110
   6   2.0000     -10.309410      -280.5333
   7   2.0000     -10.307732      -280.4877
   8   2.0000     -10.301909      -280.3292
   9   2.0000     -10.297382      -280.2060
  10   2.0000     -10.292773      -280.0806
  11   2.0000     -10.291448      -280.0445
  12   2.0000     -10.283290      -279.8225
  13   2.0000     -10.281169      -279.7648
  14   2.0000     -10.278825      -279.7011
  15   2.0000     -10.276655      -279.6420
  16   2.0000      -8.080830      -219.8906
  17   2.0000      -8.077572      -219.8019
  18   2.0000      -6.039426      -164.3411
  19   2.0000      -6.036282      -164.2556
  20   2.0000      -6.035420      -164.2321
  21   2.0000      -6.031840      -164.1347
  22   2.0000      -6.031506      -164.1256
  23   2.0000      -6.028242      -164.0368
  24   2.0000      -1.005678       -27.3659
  25   2.0000      -0.985365       -26.8131
  26   2.0000      -0.916160       -24.9300
  27   2.0000      -0.909030       -24.7360
  28   2.0000      -0.872326       -23.7372
  29   2.0000      -0.852263       -23.1912
  30   2.0000      -0.834833       -22.7169
  31   2.0000      -0.821523       -22.3548
  32   2.0000      -0.779923       -21.2228
  33   2.0000      -0.771394       -20.9907
  34   2.0000      -0.713709       -19.4210
  35   2.0000      -0.706175       -19.2160
  36   2.0000      -0.696194       -18.9444
  37   2.0000      -0.659040       -17.9334
  38   2.0000      -0.640019       -17.4158
  39   2.0000      -0.622840       -16.9483
  40   2.0000      -0.601837       -16.3768
  41   2.0000      -0.571844       -15.5607
  42   2.0000      -0.560522       -15.2526
  43   2.0000      -0.549811       -14.9611
  44   2.0000      -0.547073       -14.8866
  45   2.0000      -0.529449       -14.4070
  46   2.0000      -0.519403       -14.1337
  47   2.0000      -0.513847       -13.9825
  48   2.0000      -0.512979       -13.9589
  49   2.0000      -0.495039       -13.4707
  50   2.0000      -0.485562       -13.2128
  51   2.0000      -0.477238       -12.9863
  52   2.0000      -0.467458       -12.7202
  53   2.0000      -0.462483       -12.5848
  54   2.0000      -0.459920       -12.5151
  55   2.0000      -0.452899       -12.3240
  56   2.0000      -0.448749       -12.2111
  57   2.0000      -0.442246       -12.0341
  58   2.0000      -0.431913       -11.7529
  59   2.0000      -0.425590       -11.5809
  60   2.0000      -0.417261       -11.3543
  61   2.0000      -0.406258       -11.0548
  62   2.0000      -0.396837       -10.7985
  63   2.0000      -0.355098        -9.6627
  64   2.0000      -0.333322        -9.0702
  65   2.0000      -0.324345        -8.8259
  66   2.0000      -0.299329        -8.1452
  67   0.0000       0.023483         0.6390
  68   0.0000       0.074370         2.0237
  69   0.0000       0.111640         3.0379
  70   0.0000       0.115851         3.1525
  71   0.0000       0.128059         3.4846

MULLIKEN ATOMIC CHARGES
-----------------------
   0 S :    0.093677
   1 C :   -0.122070
   2 C :   -0.121867
   3 C :    0.006591
   4 C :   -0.106971
   5 H :    0.023156
   6 C :    0.043180
   7 H :    0.042253
   8 H :    0.024978
   9 C :    0.006691
  10 H :    0.025112
  11 H :    0.007206
  12 C :   -0.132773
  13 H :    0.032313
  14 H :    0.049842
  15 H :    0.054719
  16 S :    0.097165
  17 C :   -0.077676
  18 C :   -0.040462
  19 C :   -0.015782
  20 C :   -0.154715
  21 H :    0.016644
  22 C :    0.095466
  23 H :   -0.028312
  24 H :    0.016269
  25 C :   -0.048156
  26 H :    0.002789
  27 H :    0.028757
  28 C :   -0.040892
  29 H :    0.016353
  30 H :    0.048373
  31 H :    0.023893
  32 H :    0.071813
  33 H :    0.062437
Sum of atomic charges:   -0.0000000

LOEWDIN ATOMIC CHARGES
----------------------
   0 S :    0.405388
   1 C :   -0.204287
   2 C :   -0.066560
   3 C :   -0.072220
   4 C :   -0.195300
   5 H :    0.028839
   6 C :   -0.034316
   7 H :    0.036267
   8 H :    0.033156
   9 C :   -0.025054
  10 H :    0.021739
  11 H :    0.010232
  12 C :   -0.084737
  13 H :    0.025790
  14 H :    0.027688
  15 H :    0.038470
  16 S :    0.391960
  17 C :   -0.175825
  18 C :   -0.068663
  19 C :   -0.046155
  20 C :   -0.186522
  21 H :    0.030030
  22 C :   -0.039158
  23 H :    0.019664
  24 H :    0.035020
  25 C :   -0.039199
  26 H :    0.013751
  27 H :    0.026991
  28 C :   -0.060627
  29 H :    0.015861
  30 H :    0.036654
  31 H :    0.024585
  32 H :    0.039738
  33 H :    0.036803

  Mayer bond orders larger than 0.100000
B(  0-S ,  1-C ) :   1.1385 B(  0-S ,  4-C ) :   1.1493 B(  1-C ,  2-C ) :   1.6049
B(  1-C , 32-H ) :   0.9628 B(  2-C ,  3-C ) :   1.2299 B(  2-C ,  6-C ) :   1.0326
B(  3-C ,  4-C ) :   1.5761 B(  3-C ,  5-H ) :   0.9874 B(  4-C , 20-C ) :   1.0262
B(  6-C ,  7-H ) :   0.9382 B(  6-C ,  8-H ) :   0.9428 B(  6-C ,  9-C ) :   1.0697
B(  9-C , 10-H ) :   0.9563 B(  9-C , 11-H ) :   0.9592 B(  9-C , 12-C ) :   1.0582
B( 12-C , 13-H ) :   0.9738 B( 12-C , 14-H ) :   0.9769 B( 12-C , 15-H ) :   0.9760
B( 16-S , 17-C ) :   1.1452 B( 16-S , 20-C ) :   1.1316 B( 17-C , 18-C ) :   1.6387
B( 17-C , 33-H ) :   0.9587 B( 18-C , 19-C ) :   1.2258 B( 18-C , 21-H ) :   0.9942
B( 19-C , 20-C ) :   1.6002 B( 19-C , 22-C ) :   1.0500 B( 22-C , 23-H ) :   0.9176
B( 22-C , 24-H ) :   0.9197 B( 22-C , 25-C ) :   1.0508 B( 25-C , 26-H ) :   0.9545
B( 25-C , 27-H ) :   0.9530 B( 25-C , 28-C ) :   1.0803 B( 28-C , 29-H ) :   0.9740
B( 28-C , 30-H ) :   0.9720 B( 28-C , 31-H ) :   0.9772

Dispersion correction           -0.013943094
FINAL SINGLE POINT ENERGY     -1339.852234681488

DIPOLE MOMENT
-------------
                                X             Y             Z
Electronic contribution:     20.20053       9.62251      -5.95932
Nuclear contribution   :    -20.72615     -10.03803       5.87413
                        -----------------------------------------
Total Dipole Moment    :     -0.52562      -0.41552      -0.08519
                        -----------------------------------------
Magnitude (a.u.)       :      0.67542
Magnitude (Debye)      :      1.71678

Rotational constants in cm-1:     0.018752     0.008157     0.006593
Rotational constants in MHz :   562.170436   244.542857   197.638537

                             ****ORCA TERMINATED NORMALLY****
TOTAL RUN TIME: 0 days 0 hours 0 minutes 21 seconds 224 msec
