                         Program Version 4.2.1 -  RELEASE  -
|  1> ! wB97X-D3 SP def2-SVP
|  2> %pal
|  3> nprocs 24
|  4> end
|  5>
|  6> * xyz 0 1
|  7> S 	 -115.208 	 46.5422 	 -115.688
|  8> C 	 -115.853 	 44.9611 	 -115.974
|  9> C 	 -116.228 	 44.3216 	 -114.797
| 10> C 	 -115.902 	 45.0697 	 -113.634
| 11> C 	 -115.24 	 46.2352 	 -113.938
| 12> H 	 -116.159 	 44.7639 	 -112.62
| 13> C 	 -117.012 	 43.031 	 -114.782
| 14> H 	 -117.645 	 43.0101 	 -115.667
| 15> H 	 -117.825 	 43.065 	 -113.98
| 16> C 	 -116.247 	 41.7531 	 -114.751
| 17> H 	 -115.814 	 41.6317 	 -113.775
| 18> H 	 -117.036 	 41.0682 	 -114.847
| 19> C 	 -115.136 	 41.697 	 -115.912
| 20> H 	 -114.275 	 42.3267 	 -115.601
| 21> H 	 -114.961 	 40.7253 	 -116.26
| 22> H 	 -115.412 	 42.2149 	 -116.838
| 23> S 	 -114.732 	 48.9172 	 -113.677
| 24> C 	 -114.131 	 49.5428 	 -112.198
| 25> C 	 -114.098 	 48.5708 	 -111.203
| 26> C 	 -114.319 	 47.2181 	 -111.715
| 27> C 	 -114.714 	 47.2851 	 -113.053
| 28> H 	 -113.918 	 48.914 	 -110.146
| 29> C 	 -114.349 	 46.0339 	 -110.769
| 30> H 	 -114.091 	 45.182 	 -111.444
| 31> H 	 -115.405 	 45.9193 	 -110.522
| 32> C 	 -113.412 	 45.9817 	 -109.562
| 33> H 	 -113.936 	 45.4244 	 -108.794
| 34> H 	 -113.321 	 46.9719 	 -109.18
| 35> C 	 -112.016 	 45.4817 	 -109.832
| 36> H 	 -111.707 	 45.9243 	 -110.809
| 37> H 	 -111.953 	 44.4061 	 -110.035
| 38> H 	 -111.303 	 45.8456 	 -109.121
| 39> H 	 -115.987 	 44.5589 	 -116.959
| 40> H 	 -113.93 	 50.5941 	 -111.961
| 41> *
| 42>
| 43>                          ****END OF INPUT****

CARTESIAN COORDINATES (ANGSTROEM)
---------------------------------
  S    -115.208000   46.542200  -115.688000
  C    -115.853000   44.961100  -115.974000
  C    -116.228000   44.321600  -114.797000
  C    -115.902000   45.069700  -113.634000
  C    -115.240000   46.235200  -113.938000
  H    -116.159000   44.763900  -112.620000
  C    -117.012000   43.031000  -114.782000
  H    -117.645000   43.010100  -115.667000
  H    -117.825000   43.065000  -113.980000
  C    -116.247000   41.753100  -114.751000
  H    -115.814000   41.631700  -113.775000
  H    -117.036000   41.068200  -114.847000
  C    -115.136000   41.697000  -115.912000
  H    -114.275000   42.326700  -115.601000
  H    -114.961000   40.725300  -116.260000
  H    -115.412000   42.214900  -116.838000
  S    -114.732000   48.917200  -113.677000
  C    -114.131000   49.542800  -112.198000
  C    -114.098000   48.570800  -111.203000
  C    -114.319000   47.218100  -111.715000
  C    -114.714000   47.285100  -113.053000
  H    -113.918000   48.914000  -110.146000
  C    -114.349000   46.033900  -110.769000
  H    -114.091000   45.182000  -111.444000
  H    -115.405000   45.919300  -110.522000
  C    -113.412000   45.981700  -109.562000
  H    -113.936000   45.424400  -108.794000
  H    -113.321000   46.971900  -109.180000
  C    -112.016000   45.481700  -109.832000
  H    -111.707000   45.924300  -110.809000
  H    -111.953000   44.406100  -110.035000
  H    -111.303000   45.845600  -109.121000
  H    -115.987000   44.558900  -116.959000
  H    -113.930000   50.594100  -111.961000

 Total Charge           Charge          ....    0
 Multiplicity           Mult            ....    1
 Number of Electrons    NEL             ....  134
 Basis Dimension        Dim             ....  322

ORBITAL ENERGIES
----------------

  NO   OCC          E(Eh)            E(eV)
   0   2.0000     -88.966304     -2420.8962
   1   2.0000     -88.965636     -2420.8780
   2   2.0000     -10.331559      -281.1360
   3   2.0000     -10.327393      -281.0226
   4   2.0000     -10.315778      -280.7066
   5   2.0000     -10.310968      -280.5757
   6   2.0000     -10.307856      -280.4910
   7   2.0000     -10.298866      -280.2464
   8   2.0000     -10.297974      -280.2221
   9   2.0000     -10.295524      -280.1555
  10   2.0000     -10.294923      -280.1391
  11   2.0000     -10.290554      -280.0202
  12   2.0000     -10.283800      -279.8364
  13   2.0000     -10.282987      -279.8143
  14   2.0000     -10.279628      -279.7229
  15   2.0000     -10.277272      -279.6588
  16   2.0000      -8.081692      -219.9140
  17   2.0000      -8.080439      -219.8799
  18   2.0000      -6.040269      -164.3641
  19   2.0000      -6.038891      -164.3266
  20   2.0000      -6.036166      -164.2524
  21   2.0000      -6.035105      -164.2236
  22   2.0000      -6.032300      -164.1472
  23   2.0000      -6.031103      -164.1146
  24   2.0000      -1.007161       -27.4063
  25   2.0000      -0.983900       -26.7733
  26   2.0000      -0.914917       -24.8961
  27   2.0000      -0.912739       -24.8369
  28   2.0000      -0.865344       -23.5472
  29   2.0000      -0.854265       -23.2457
  30   2.0000      -0.843320       -22.9479
  31   2.0000      -0.809629       -22.0311
  32   2.0000      -0.785366       -21.3709
  33   2.0000      -0.776592       -21.1321
  34   2.0000      -0.713411       -19.4129
  35   2.0000      -0.701036       -19.0762
  36   2.0000      -0.693574       -18.8731
  37   2.0000      -0.652543       -17.7566
  38   2.0000      -0.636582       -17.3223
  39   2.0000      -0.624158       -16.9842
  40   2.0000      -0.597272       -16.2526
  41   2.0000      -0.570255       -15.5174
  42   2.0000      -0.561211       -15.2713
  43   2.0000      -0.540929       -14.7194
  44   2.0000      -0.540395       -14.7049
  45   2.0000      -0.536056       -14.5868
  46   2.0000      -0.519327       -14.1316
  47   2.0000      -0.512645       -13.9498
  48   2.0000      -0.499497       -13.5920
  49   2.0000      -0.495325       -13.4785
  50   2.0000      -0.491332       -13.3698
  51   2.0000      -0.477657       -12.9977
  52   2.0000      -0.474003       -12.8983
  53   2.0000      -0.465337       -12.6625
  54   2.0000      -0.462256       -12.5786
  55   2.0000      -0.453344       -12.3361
  56   2.0000      -0.448135       -12.1944
  57   2.0000      -0.439701       -11.9649
  58   2.0000      -0.429987       -11.7005
  59   2.0000      -0.422382       -11.4936
  60   2.0000      -0.419119       -11.4048
  61   2.0000      -0.414867       -11.2891
  62   2.0000      -0.410579       -11.1724
  63   2.0000      -0.357156        -9.7187
  64   2.0000      -0.334172        -9.0933
  65   2.0000      -0.326796        -8.8926
  66   2.0000      -0.280622        -7.6361
  67   0.0000       0.023271         0.6332
  68   0.0000       0.079705         2.1689
  69   0.0000       0.095213         2.5909
  70   0.0000       0.122972         3.3462
  71   0.0000       0.132975         3.6184

MULLIKEN ATOMIC CHARGES
-----------------------
   0 S :    0.097703
   1 C :   -0.114573
   2 C :   -0.079449
   3 C :    0.001659
   4 C :   -0.125456
   5 H :    0.012340
   6 C :   -0.003379
   7 H :    0.017998
   8 H :    0.032229
   9 C :    0.002593
  10 H :    0.024776
  11 H :    0.016753
  12 C :   -0.055155
  13 H :    0.057056
  14 H :    0.030268
  15 H :    0.008303
  16 S :    0.107052
  17 C :   -0.089346
  18 C :   -0.082000
  19 C :   -0.068625
  20 C :   -0.112671
  21 H :    0.044185
  22 C :    0.000711
  23 H :    0.035175
  24 H :    0.053984
  25 C :   -0.008568
  26 H :    0.023128
  27 H :    0.008961
  28 C :   -0.045942
  29 H :    0.030943
  30 H :    0.036864
  31 H :    0.036670
  32 H :    0.044054
  33 H :    0.061756
Sum of atomic charges:    0.0000000

LOEWDIN ATOMIC CHARGES
----------------------
   0 S :    0.395451
   1 C :   -0.196310
   2 C :   -0.065038
   3 C :   -0.066747
   4 C :   -0.174125
   5 H :    0.033642
   6 C :   -0.040587
   7 H :    0.027239
   8 H :    0.036021
   9 C :   -0.029096
  10 H :    0.021059
  11 H :    0.019155
  12 C :   -0.065190
  13 H :    0.037889
  14 H :    0.018428
  15 H :    0.022078
  16 S :    0.415310
  17 C :   -0.203257
  18 C :   -0.081304
  19 C :   -0.058342
  20 C :   -0.200741
  21 H :    0.038344
  22 C :   -0.038708
  23 H :    0.036309
  24 H :    0.036122
  25 C :   -0.040513
  26 H :    0.025889
  27 H :    0.019179
  28 C :   -0.064747
  29 H :    0.033534
  30 H :    0.027022
  31 H :    0.025870
  32 H :    0.021624
  33 H :    0.034541

  Mayer bond orders larger than 0.100000
B(  0-S ,  1-C ) :   1.1386 B(  0-S ,  4-C ) :   1.1471 B(  1-C ,  2-C ) :   1.6010
B(  1-C , 32-H ) :   0.9706 B(  2-C ,  3-C ) :   1.2460 B(  2-C ,  6-C ) :   1.0184
B(  3-C ,  4-C ) :   1.5592 B(  3-C ,  5-H ) :   0.9937 B(  4-C , 20-C ) :   1.0606
B(  6-C ,  7-H ) :   0.9434 B(  6-C ,  8-H ) :   0.9446 B(  6-C ,  9-C ) :   1.0743
B(  9-C , 10-H ) :   0.9579 B(  9-C , 11-H ) :   0.9559 B(  9-C , 12-C ) :   1.0584
B( 12-C , 13-H ) :   0.9714 B( 12-C , 14-H ) :   0.9766 B( 12-C , 15-H ) :   0.9765
B( 16-S , 17-C ) :   1.1537 B( 16-S , 20-C ) :   1.1397 B( 17-C , 18-C ) :   1.6314
B( 17-C , 33-H ) :   0.9641 B( 18-C , 19-C ) :   1.2184 B( 18-C , 21-H ) :   0.9751
B( 19-C , 20-C ) :   1.5940 B( 19-C , 22-C ) :   1.0381 B( 22-C , 23-H ) :   0.9327
B( 22-C , 24-H ) :   0.9315 B( 22-C , 25-C ) :   1.0623 B( 25-C , 26-H ) :   0.9478
B( 25-C , 27-H ) :   0.9518 B( 25-C , 28-C ) :   1.0850 B( 28-C , 29-H ) :   0.9733
B( 28-C , 30-H ) :   0.9721 B( 28-C , 31-H ) :   0.9740

Dispersion correction           -0.014164757
FINAL SINGLE POINT ENERGY     -1339.874427617491

DIPOLE MOMENT
-------------
                                X             Y             Z
Electronic contribution:     -3.61863      23.80900     -11.71092
Nuclear contribution   :      3.41737     -24.20658      12.18048
                        -----------------------------------------
Total Dipole Moment    :     -0.20125      -0.39758       0.46956
                        -----------------------------------------
Magnitude (a.u.)       :      0.64735
Magnitude (Debye)      :      1.64543

Rotational constants in cm-1:     0.018973     0.008694     0.006458
Rotational constants in MHz :   568.791958   260.627002   193.599142

                             ****ORCA TERMINATED NORMALLY****
TOTAL RUN TIME: 0 days 0 hours 0 minutes 21 seconds 549 msec
