                         Program Version 4.2.1 -  RELEASE  -
|  1> ! wB97X-D3 SP def2-SVP
|  2> %pal
|  3> nprocs 24
|  4> end
|  5>
|  6> * xyz 0 1
|  7> S 	 -104.253 	 19.6757 	 -119.459
|  8> C 	 -102.639 	 20.2275 	 -119.239
|  9> C 	 -101.98 	 20.2642 	 -120.491
| 10> C 	 -102.9 	 20.012 	 -121.576
| 11> C 	 -104.208 	 19.7787 	 -121.219
| 12> H 	 -102.527 	 20.0323 	 -122.639
| 13> C 	 -100.524 	 20.5652 	 -120.662
| 14> H 	 -100.167 	 20.7865 	 -119.691
| 15> H 	 -100.361 	 21.4585 	 -121.274
| 16> C 	 -99.7662 	 19.4144 	 -121.352
| 17> H 	 -100.163 	 19.2003 	 -122.309
| 18> H 	 -98.6923 	 19.6002 	 -121.402
| 19> C 	 -99.7256 	 18.0051 	 -120.653
| 20> H 	 -100.679 	 17.4187 	 -120.623
| 21> H 	 -99.0685 	 17.3505 	 -121.234
| 22> H 	 -99.2461 	 18.1387 	 -119.689
| 23> S 	 -106.438 	 20.6762 	 -122.55
| 24> C 	 -107.2 	 19.6232 	 -123.706
| 25> C 	 -106.826 	 18.2862 	 -123.505
| 26> C 	 -105.661 	 18.1762 	 -122.667
| 27> C 	 -105.297 	 19.4117 	 -122.095
| 28> H 	 -107.235 	 17.444 	 -124.104
| 29> C 	 -105.006 	 16.7787 	 -122.472
| 30> H 	 -104.151 	 16.8303 	 -121.808
| 31> H 	 -104.471 	 16.6579 	 -123.456
| 32> C 	 -105.982 	 15.6233 	 -122.17
| 33> H 	 -106.781 	 15.4222 	 -122.926
| 34> H 	 -106.525 	 15.889 	 -121.155
| 35> C 	 -105.234 	 14.287 	 -121.967
| 36> H 	 -106.006 	 13.5727 	 -121.722
| 37> H 	 -104.504 	 14.2885 	 -121.148
| 38> H 	 -104.654 	 13.9436 	 -122.795
| 39> H 	 -102.11 	 20.392 	 -118.343
| 40> H 	 -107.835 	 19.9433 	 -124.497
| 41> *
| 42>
| 43>                          ****END OF INPUT****

CARTESIAN COORDINATES (ANGSTROEM)
---------------------------------
  S    -104.253000   19.675700  -119.459000
  C    -102.639000   20.227500  -119.239000
  C    -101.980000   20.264200  -120.491000
  C    -102.900000   20.012000  -121.576000
  C    -104.208000   19.778700  -121.219000
  H    -102.527000   20.032300  -122.639000
  C    -100.524000   20.565200  -120.662000
  H    -100.167000   20.786500  -119.691000
  H    -100.361000   21.458500  -121.274000
  C    -99.766200   19.414400  -121.352000
  H    -100.163000   19.200300  -122.309000
  H    -98.692300   19.600200  -121.402000
  C    -99.725600   18.005100  -120.653000
  H    -100.679000   17.418700  -120.623000
  H    -99.068500   17.350500  -121.234000
  H    -99.246100   18.138700  -119.689000
  S    -106.438000   20.676200  -122.550000
  C    -107.200000   19.623200  -123.706000
  C    -106.826000   18.286200  -123.505000
  C    -105.661000   18.176200  -122.667000
  C    -105.297000   19.411700  -122.095000
  H    -107.235000   17.444000  -124.104000
  C    -105.006000   16.778700  -122.472000
  H    -104.151000   16.830300  -121.808000
  H    -104.471000   16.657900  -123.456000
  C    -105.982000   15.623300  -122.170000
  H    -106.781000   15.422200  -122.926000
  H    -106.525000   15.889000  -121.155000
  C    -105.234000   14.287000  -121.967000
  H    -106.006000   13.572700  -121.722000
  H    -104.504000   14.288500  -121.148000
  H    -104.654000   13.943600  -122.795000
  H    -102.110000   20.392000  -118.343000
  H    -107.835000   19.943300  -124.497000

 Total Charge           Charge          ....    0
 Multiplicity           Mult            ....    1
 Number of Electrons    NEL             ....  134
 Basis Dimension        Dim             ....  322

ORBITAL ENERGIES
----------------

  NO   OCC          E(Eh)            E(eV)
   0   2.0000     -88.964763     -2420.8543
   1   2.0000     -88.963247     -2420.8130
   2   2.0000     -10.326960      -281.0109
   3   2.0000     -10.325730      -280.9774
   4   2.0000     -10.318679      -280.7855
   5   2.0000     -10.312216      -280.6097
   6   2.0000     -10.310243      -280.5560
   7   2.0000     -10.304263      -280.3932
   8   2.0000     -10.299574      -280.2656
   9   2.0000     -10.299356      -280.2597
  10   2.0000     -10.298193      -280.2281
  11   2.0000     -10.297166      -280.2001
  12   2.0000     -10.290171      -280.0098
  13   2.0000     -10.286982      -279.9230
  14   2.0000     -10.279135      -279.7095
  15   2.0000     -10.276923      -279.6493
  16   2.0000      -8.079516      -219.8548
  17   2.0000      -8.078051      -219.8149
  18   2.0000      -6.037945      -164.3008
  19   2.0000      -6.036530      -164.2623
  20   2.0000      -6.034051      -164.1949
  21   2.0000      -6.032494      -164.1525
  22   2.0000      -6.030323      -164.0934
  23   2.0000      -6.028871      -164.0539
  24   2.0000      -1.002020       -27.2664
  25   2.0000      -0.980745       -26.6874
  26   2.0000      -0.909729       -24.7550
  27   2.0000      -0.902909       -24.5694
  28   2.0000      -0.867158       -23.5966
  29   2.0000      -0.847933       -23.0734
  30   2.0000      -0.840966       -22.8839
  31   2.0000      -0.812303       -22.1039
  32   2.0000      -0.782344       -21.2887
  33   2.0000      -0.769958       -20.9516
  34   2.0000      -0.707391       -19.2491
  35   2.0000      -0.697964       -18.9926
  36   2.0000      -0.690887       -18.8000
  37   2.0000      -0.655059       -17.8250
  38   2.0000      -0.635704       -17.2984
  39   2.0000      -0.619618       -16.8607
  40   2.0000      -0.596076       -16.2200
  41   2.0000      -0.568320       -15.4648
  42   2.0000      -0.554804       -15.0970
  43   2.0000      -0.550752       -14.9867
  44   2.0000      -0.540802       -14.7160
  45   2.0000      -0.532680       -14.4950
  46   2.0000      -0.518082       -14.0977
  47   2.0000      -0.515498       -14.0274
  48   2.0000      -0.506229       -13.7752
  49   2.0000      -0.496609       -13.5134
  50   2.0000      -0.483004       -13.1432
  51   2.0000      -0.471921       -12.8416
  52   2.0000      -0.465407       -12.6644
  53   2.0000      -0.462705       -12.5908
  54   2.0000      -0.458018       -12.4633
  55   2.0000      -0.450177       -12.2499
  56   2.0000      -0.442671       -12.0457
  57   2.0000      -0.440491       -11.9864
  58   2.0000      -0.436341       -11.8735
  59   2.0000      -0.422492       -11.4966
  60   2.0000      -0.417984       -11.3739
  61   2.0000      -0.414373       -11.2757
  62   2.0000      -0.409065       -11.1312
  63   2.0000      -0.334169        -9.0932
  64   2.0000      -0.325934        -8.8691
  65   2.0000      -0.315884        -8.5957
  66   2.0000      -0.306414        -8.3380
  67   0.0000       0.044025         1.1980
  68   0.0000       0.049501         1.3470
  69   0.0000       0.109868         2.9897
  70   0.0000       0.121174         3.2973
  71   0.0000       0.129698         3.5293

MULLIKEN ATOMIC CHARGES
-----------------------
   0 S :    0.117835
   1 C :   -0.091153
   2 C :   -0.143414
   3 C :    0.028356
   4 C :   -0.158761
   5 H :    0.031811
   6 C :    0.140026
   7 H :   -0.005701
   8 H :    0.039400
   9 C :   -0.091023
  10 H :    0.024832
  11 H :    0.033412
  12 C :   -0.082275
  13 H :    0.048045
  14 H :    0.026100
  15 H :    0.029522
  16 S :    0.119681
  17 C :   -0.089149
  18 C :   -0.049540
  19 C :   -0.014410
  20 C :   -0.201427
  21 H :    0.035810
  22 C :    0.075492
  23 H :    0.022264
  24 H :    0.036975
  25 C :   -0.129543
  26 H :    0.046263
  27 H :    0.057537
  28 C :   -0.030695
  29 H :    0.033753
  30 H :    0.028509
  31 H :    0.025092
  32 H :    0.032367
  33 H :    0.054008
Sum of atomic charges:    0.0000000

LOEWDIN ATOMIC CHARGES
----------------------
   0 S :    0.414925
   1 C :   -0.201422
   2 C :   -0.065360
   3 C :   -0.062165
   4 C :   -0.207574
   5 H :    0.039051
   6 C :   -0.028168
   7 H :    0.022340
   8 H :    0.037044
   9 C :   -0.036578
  10 H :    0.016605
  11 H :    0.027910
  12 C :   -0.070575
  13 H :    0.027911
  14 H :    0.024816
  15 H :    0.020919
  16 S :    0.412019
  17 C :   -0.179010
  18 C :   -0.077729
  19 C :   -0.044051
  20 C :   -0.213625
  21 H :    0.036165
  22 C :   -0.038004
  23 H :    0.028771
  24 H :    0.039765
  25 C :   -0.047122
  26 H :    0.028055
  27 H :    0.041486
  28 C :   -0.065757
  29 H :    0.027466
  30 H :    0.025576
  31 H :    0.020249
  32 H :    0.021560
  33 H :    0.024505

  Mayer bond orders larger than 0.100000
B(  0-S ,  1-C ) :   1.1597 B(  0-S ,  4-C ) :   1.1424 B(  1-C ,  2-C ) :   1.5761
B(  1-C , 32-H ) :   0.9710 B(  2-C ,  3-C ) :   1.2570 B(  2-C ,  6-C ) :   1.0385
B(  3-C ,  4-C ) :   1.5759 B(  3-C ,  5-H ) :   0.9858 B(  4-C , 20-C ) :   1.0327
B(  6-C ,  7-H ) :   0.9328 B(  6-C ,  8-H ) :   0.9369 B(  6-C ,  9-C ) :   1.0642
B(  9-C , 10-H ) :   0.9600 B(  9-C , 11-H ) :   0.9600 B(  9-C , 12-C ) :   1.0710
B( 12-C , 13-H ) :   0.9748 B( 12-C , 14-H ) :   0.9752 B( 12-C , 15-H ) :   0.9782
B( 16-S , 17-C ) :   1.1757 B( 16-S , 20-C ) :   1.1366 B( 17-C , 18-C ) :   1.5875
B( 17-C , 20-C ) :   0.1047 B( 17-C , 33-H ) :   0.9726 B( 18-C , 19-C ) :   1.2503
B( 18-C , 21-H ) :   0.9794 B( 19-C , 20-C ) :   1.5937 B( 19-C , 22-C ) :   1.0273
B( 22-C , 23-H ) :   0.9404 B( 22-C , 24-H ) :   0.9303 B( 22-C , 25-C ) :   1.0551
B( 25-C , 26-H ) :   0.9514 B( 25-C , 27-H ) :   0.9550 B( 25-C , 28-C ) :   1.0812
B( 28-C , 29-H ) :   0.9748 B( 28-C , 30-H ) :   0.9748 B( 28-C , 31-H ) :   0.9748

Dispersion correction           -0.014221743
FINAL SINGLE POINT ENERGY     -1339.872559201042

DIPOLE MOMENT
-------------
                                X             Y             Z
Electronic contribution:    -17.57852      20.74977       2.87472
Nuclear contribution   :     18.05724     -21.22731      -3.24543
                        -----------------------------------------
Total Dipole Moment    :      0.47872      -0.47754      -0.37071
                        -----------------------------------------
Magnitude (a.u.)       :      0.77113
Magnitude (Debye)      :      1.96005

Rotational constants in cm-1:     0.016797     0.008902     0.006979
Rotational constants in MHz :   503.575346   266.877239   209.228009

                             ****ORCA TERMINATED NORMALLY****
TOTAL RUN TIME: 0 days 0 hours 0 minutes 21 seconds 234 msec
