                         Program Version 4.2.1 -  RELEASE  -
|  1> ! wB97X-D3 SP def2-SVP
|  2> %pal
|  3> nprocs 24
|  4> end
|  5>
|  6> * xyz 0 1
|  7> S 	 17.507 	 -12.7744 	 -118.554
|  8> C 	 16.6477 	 -12.0679 	 -119.866
|  9> C 	 15.292 	 -12.2649 	 -119.688
| 10> C 	 14.9801 	 -12.9599 	 -118.481
| 11> C 	 16.041 	 -13.3798 	 -117.758
| 12> H 	 13.9911 	 -13.1502 	 -118.034
| 13> C 	 14.1881 	 -11.7473 	 -120.618
| 14> H 	 14.6678 	 -11.9682 	 -121.594
| 15> H 	 14.0061 	 -10.6697 	 -120.501
| 16> C 	 12.8717 	 -12.4823 	 -120.576
| 17> H 	 13.0076 	 -13.5837 	 -120.433
| 18> H 	 12.2393 	 -12.1567 	 -119.644
| 19> C 	 12.0048 	 -12.2824 	 -121.781
| 20> H 	 11.8145 	 -11.2399 	 -121.89
| 21> H 	 12.4731 	 -12.7244 	 -122.608
| 22> H 	 11.0729 	 -12.7834 	 -121.481
| 23> S 	 16.0217 	 -13.1641 	 -114.937
| 24> C 	 15.8945 	 -14.6651 	 -114.032
| 25> C 	 15.6159 	 -15.7488 	 -114.856
| 26> C 	 15.6826 	 -15.382 	 -116.242
| 27> C 	 16.0473 	 -14.0445 	 -116.471
| 28> H 	 15.5569 	 -16.7477 	 -114.425
| 29> C 	 15.5584 	 -16.5056 	 -117.187
| 30> H 	 14.7241 	 -16.404 	 -117.842
| 31> H 	 15.3705 	 -17.4603 	 -116.677
| 32> C 	 16.854 	 -16.8906 	 -117.919
| 33> H 	 17.4985 	 -17.182 	 -117.105
| 34> H 	 17.1871 	 -16.0014 	 -118.341
| 35> C 	 16.5757 	 -17.8917 	 -119.028
| 36> H 	 16.3743 	 -18.9025 	 -118.569
| 37> H 	 17.385 	 -18.0265 	 -119.695
| 38> H 	 15.7963 	 -17.5011 	 -119.624
| 39> H 	 17.1013 	 -11.3553 	 -120.516
| 40> H 	 16.0128 	 -14.7787 	 -112.97
| 41> *
| 42>
| 43>                          ****END OF INPUT****

CARTESIAN COORDINATES (ANGSTROEM)
---------------------------------
  S     17.507000  -12.774400  -118.554000
  C     16.647700  -12.067900  -119.866000
  C     15.292000  -12.264900  -119.688000
  C     14.980100  -12.959900  -118.481000
  C     16.041000  -13.379800  -117.758000
  H     13.991100  -13.150200  -118.034000
  C     14.188100  -11.747300  -120.618000
  H     14.667800  -11.968200  -121.594000
  H     14.006100  -10.669700  -120.501000
  C     12.871700  -12.482300  -120.576000
  H     13.007600  -13.583700  -120.433000
  H     12.239300  -12.156700  -119.644000
  C     12.004800  -12.282400  -121.781000
  H     11.814500  -11.239900  -121.890000
  H     12.473100  -12.724400  -122.608000
  H     11.072900  -12.783400  -121.481000
  S     16.021700  -13.164100  -114.937000
  C     15.894500  -14.665100  -114.032000
  C     15.615900  -15.748800  -114.856000
  C     15.682600  -15.382000  -116.242000
  C     16.047300  -14.044500  -116.471000
  H     15.556900  -16.747700  -114.425000
  C     15.558400  -16.505600  -117.187000
  H     14.724100  -16.404000  -117.842000
  H     15.370500  -17.460300  -116.677000
  C     16.854000  -16.890600  -117.919000
  H     17.498500  -17.182000  -117.105000
  H     17.187100  -16.001400  -118.341000
  C     16.575700  -17.891700  -119.028000
  H     16.374300  -18.902500  -118.569000
  H     17.385000  -18.026500  -119.695000
  H     15.796300  -17.501100  -119.624000
  H     17.101300  -11.355300  -120.516000
  H     16.012800  -14.778700  -112.970000

 Total Charge           Charge          ....    0
 Multiplicity           Mult            ....    1
 Number of Electrons    NEL             ....  134
 Basis Dimension        Dim             ....  322

ORBITAL ENERGIES
----------------

  NO   OCC          E(Eh)            E(eV)
   0   2.0000     -88.968028     -2420.9431
   1   2.0000     -88.961136     -2420.7556
   2   2.0000     -10.327042      -281.0131
   3   2.0000     -10.324583      -280.9462
   4   2.0000     -10.319243      -280.8009
   5   2.0000     -10.312215      -280.6096
   6   2.0000     -10.302950      -280.3575
   7   2.0000     -10.302033      -280.3326
   8   2.0000     -10.293895      -280.1111
   9   2.0000     -10.293793      -280.1084
  10   2.0000     -10.291775      -280.0534
  11   2.0000     -10.291409      -280.0435
  12   2.0000     -10.278475      -279.6915
  13   2.0000     -10.271747      -279.5085
  14   2.0000     -10.271635      -279.5054
  15   2.0000     -10.271058      -279.4897
  16   2.0000      -8.082148      -219.9264
  17   2.0000      -8.076072      -219.7611
  18   2.0000      -6.040761      -164.3775
  19   2.0000      -6.036765      -164.2687
  20   2.0000      -6.034501      -164.2071
  21   2.0000      -6.032805      -164.1610
  22   2.0000      -6.030404      -164.0956
  23   2.0000      -6.027022      -164.0036
  24   2.0000      -1.006228       -27.3809
  25   2.0000      -0.984476       -26.7890
  26   2.0000      -0.915580       -24.9142
  27   2.0000      -0.913879       -24.8679
  28   2.0000      -0.874729       -23.8026
  29   2.0000      -0.851138       -23.1606
  30   2.0000      -0.849076       -23.1045
  31   2.0000      -0.817363       -22.2416
  32   2.0000      -0.781690       -21.2709
  33   2.0000      -0.769090       -20.9280
  34   2.0000      -0.711538       -19.3619
  35   2.0000      -0.693614       -18.8742
  36   2.0000      -0.683136       -18.5891
  37   2.0000      -0.659380       -17.9427
  38   2.0000      -0.645826       -17.5738
  39   2.0000      -0.616781       -16.7835
  40   2.0000      -0.598059       -16.2740
  41   2.0000      -0.580337       -15.7918
  42   2.0000      -0.574427       -15.6309
  43   2.0000      -0.566336       -15.4108
  44   2.0000      -0.532190       -14.4816
  45   2.0000      -0.520400       -14.1608
  46   2.0000      -0.517591       -14.0844
  47   2.0000      -0.510654       -13.8956
  48   2.0000      -0.506681       -13.7875
  49   2.0000      -0.504365       -13.7245
  50   2.0000      -0.493215       -13.4211
  51   2.0000      -0.483049       -13.1444
  52   2.0000      -0.476771       -12.9736
  53   2.0000      -0.468758       -12.7556
  54   2.0000      -0.460137       -12.5210
  55   2.0000      -0.442755       -12.0480
  56   2.0000      -0.439526       -11.9601
  57   2.0000      -0.433613       -11.7992
  58   2.0000      -0.429340       -11.6829
  59   2.0000      -0.426902       -11.6166
  60   2.0000      -0.416631       -11.3371
  61   2.0000      -0.411333       -11.1929
  62   2.0000      -0.402212       -10.9447
  63   2.0000      -0.339158        -9.2290
  64   2.0000      -0.329462        -8.9651
  65   2.0000      -0.317331        -8.6350
  66   2.0000      -0.310780        -8.4568
  67   0.0000       0.034152         0.9293
  68   0.0000       0.056046         1.5251
  69   0.0000       0.112392         3.0583
  70   0.0000       0.129852         3.5335
  71   0.0000       0.131175         3.5694

MULLIKEN ATOMIC CHARGES
-----------------------
   0 S :    0.100789
   1 C :   -0.112184
   2 C :   -0.106860
   3 C :    0.041781
   4 C :   -0.193787
   5 H :    0.023630
   6 C :    0.082757
   7 H :    0.028806
   8 H :    0.049869
   9 C :   -0.181894
  10 H :    0.034608
  11 H :    0.037121
  12 C :    0.024689
  13 H :    0.022701
  14 H :    0.027536
  15 H :    0.034188
  16 S :    0.116531
  17 C :   -0.090356
  18 C :   -0.036144
  19 C :   -0.015193
  20 C :   -0.145110
  21 H :    0.029814
  22 C :    0.050455
  23 H :    0.013061
  24 H :    0.005048
  25 C :   -0.043359
  26 H :    0.023101
  27 H :    0.005694
  28 C :   -0.009386
  29 H :    0.034354
  30 H :    0.022902
  31 H :    0.022122
  32 H :    0.049189
  33 H :    0.053528
Sum of atomic charges:   -0.0000000

LOEWDIN ATOMIC CHARGES
----------------------
   0 S :    0.406932
   1 C :   -0.200337
   2 C :   -0.067903
   3 C :   -0.061220
   4 C :   -0.195937
   5 H :    0.039189
   6 C :   -0.039661
   7 H :    0.036048
   8 H :    0.035660
   9 C :   -0.057274
  10 H :    0.025048
  11 H :    0.028139
  12 C :   -0.051422
  13 H :    0.021071
  14 H :    0.018035
  15 H :    0.033995
  16 S :    0.402078
  17 C :   -0.174484
  18 C :   -0.072309
  19 C :   -0.043282
  20 C :   -0.209847
  21 H :    0.035334
  22 C :   -0.035244
  23 H :    0.021950
  24 H :    0.028409
  25 C :   -0.027281
  26 H :    0.022948
  27 H :    0.007942
  28 C :   -0.056684
  29 H :    0.030857
  30 H :    0.021224
  31 H :    0.022978
  32 H :    0.027380
  33 H :    0.027666

  Mayer bond orders larger than 0.100000
B(  0-S ,  1-C ) :   1.1575 B(  0-S ,  4-C ) :   1.1355 B(  1-C ,  2-C ) :   1.6052
B(  1-C , 32-H ) :   0.9768 B(  2-C ,  3-C ) :   1.2391 B(  2-C ,  6-C ) :   0.9936
B(  3-C ,  4-C ) :   1.6055 B(  3-C ,  5-H ) :   0.9919 B(  4-C , 20-C ) :   1.0250
B(  6-C ,  7-H ) :   0.9477 B(  6-C ,  8-H ) :   0.9305 B(  6-C ,  9-C ) :   1.0834
B(  9-C , 10-H ) :   0.9571 B(  9-C , 11-H ) :   0.9427 B(  9-C , 12-C ) :   1.0860
B( 12-C , 13-H ) :   0.9715 B( 12-C , 14-H ) :   0.9746 B( 12-C , 15-H ) :   0.9704
B( 16-S , 17-C ) :   1.1667 B( 16-S , 20-C ) :   1.1281 B( 17-C , 18-C ) :   1.6065
B( 17-C , 33-H ) :   0.9660 B( 18-C , 19-C ) :   1.2509 B( 18-C , 21-H ) :   0.9864
B( 19-C , 20-C ) :   1.5735 B( 19-C , 22-C ) :   1.0607 B( 22-C , 23-H ) :   0.9188
B( 22-C , 24-H ) :   0.9437 B( 22-C , 25-C ) :   1.0535 B( 25-C , 26-H ) :   0.9572
B( 25-C , 27-H ) :   0.9550 B( 25-C , 28-C ) :   1.0869 B( 28-C , 29-H ) :   0.9749
B( 28-C , 30-H ) :   0.9717 B( 28-C , 31-H ) :   0.9709

Dispersion correction           -0.014225902
FINAL SINGLE POINT ENERGY     -1339.866525291541

DIPOLE MOMENT
-------------
                                X             Y             Z
Electronic contribution:     13.93709      11.70429      18.86047
Nuclear contribution   :    -14.37740     -11.89215     -19.08149
                        -----------------------------------------
Total Dipole Moment    :     -0.44031      -0.18785      -0.22103
                        -----------------------------------------
Magnitude (a.u.)       :      0.52727
Magnitude (Debye)      :      1.34021

Rotational constants in cm-1:     0.017109     0.008418     0.007515
Rotational constants in MHz :   512.927432   252.366155   225.300984

                             ****ORCA TERMINATED NORMALLY****
TOTAL RUN TIME: 0 days 0 hours 0 minutes 21 seconds 792 msec
