                         Program Version 4.2.1 -  RELEASE  -
|  1> ! wB97X-D3 SP def2-SVP
|  2> %pal
|  3> nprocs 24
|  4> end
|  5>
|  6> * xyz 0 1
|  7> S 	 -119.954 	 51.7438 	 -39.2755
|  8> C 	 -119.969 	 52.8572 	 -40.6978
|  9> C 	 -120.731 	 53.9758 	 -40.4532
| 10> C 	 -121.277 	 53.9675 	 -39.1013
| 11> C 	 -121.06 	 52.7774 	 -38.4147
| 12> H 	 -121.938 	 54.7305 	 -38.6179
| 13> C 	 -120.924 	 55.1918 	 -41.3546
| 14> H 	 -119.975 	 55.4286 	 -41.8212
| 15> H 	 -120.898 	 56.0933 	 -40.6722
| 16> C 	 -122.161 	 55.0956 	 -42.317
| 17> H 	 -122.29 	 55.968 	 -42.9221
| 18> H 	 -121.793 	 54.3404 	 -42.9825
| 19> C 	 -123.478 	 54.66 	 -41.66
| 20> H 	 -123.94 	 55.499 	 -41.1499
| 21> H 	 -124.132 	 54.3232 	 -42.4628
| 22> H 	 -123.272 	 53.8513 	 -40.9924
| 23> S 	 -120.179 	 52.5064 	 -35.8055
| 24> C 	 -121.28 	 52.3261 	 -34.4113
| 25> C 	 -122.542 	 52.2418 	 -34.9222
| 26> C 	 -122.615 	 52.4615 	 -36.3629
| 27> C 	 -121.418 	 52.4867 	 -37.0114
| 28> H 	 -123.397 	 52.2626 	 -34.2921
| 29> C 	 -123.964 	 52.5949 	 -37.0647
| 30> H 	 -124.215 	 51.6691 	 -37.5957
| 31> H 	 -123.801 	 53.3078 	 -37.884
| 32> C 	 -125.053 	 53.0825 	 -36.2159
| 33> H 	 -124.621 	 53.9655 	 -35.6567
| 34> H 	 -125.399 	 52.3095 	 -35.5558
| 35> C 	 -126.182 	 53.4848 	 -37.0653
| 36> H 	 -126.013 	 54.4478 	 -37.676
| 37> H 	 -127.034 	 53.7112 	 -36.4282
| 38> H 	 -126.552 	 52.7606 	 -37.7372
| 39> H 	 -119.374 	 52.7564 	 -41.6403
| 40> H 	 -120.928 	 52.3489 	 -33.3687
| 41> *
| 42>
| 43>                          ****END OF INPUT****

CARTESIAN COORDINATES (ANGSTROEM)
---------------------------------
  S    -119.954000   51.743800  -39.275500
  C    -119.969000   52.857200  -40.697800
  C    -120.731000   53.975800  -40.453200
  C    -121.277000   53.967500  -39.101300
  C    -121.060000   52.777400  -38.414700
  H    -121.938000   54.730500  -38.617900
  C    -120.924000   55.191800  -41.354600
  H    -119.975000   55.428600  -41.821200
  H    -120.898000   56.093300  -40.672200
  C    -122.161000   55.095600  -42.317000
  H    -122.290000   55.968000  -42.922100
  H    -121.793000   54.340400  -42.982500
  C    -123.478000   54.660000  -41.660000
  H    -123.940000   55.499000  -41.149900
  H    -124.132000   54.323200  -42.462800
  H    -123.272000   53.851300  -40.992400
  S    -120.179000   52.506400  -35.805500
  C    -121.280000   52.326100  -34.411300
  C    -122.542000   52.241800  -34.922200
  C    -122.615000   52.461500  -36.362900
  C    -121.418000   52.486700  -37.011400
  H    -123.397000   52.262600  -34.292100
  C    -123.964000   52.594900  -37.064700
  H    -124.215000   51.669100  -37.595700
  H    -123.801000   53.307800  -37.884000
  C    -125.053000   53.082500  -36.215900
  H    -124.621000   53.965500  -35.656700
  H    -125.399000   52.309500  -35.555800
  C    -126.182000   53.484800  -37.065300
  H    -126.013000   54.447800  -37.676000
  H    -127.034000   53.711200  -36.428200
  H    -126.552000   52.760600  -37.737200
  H    -119.374000   52.756400  -41.640300
  H    -120.928000   52.348900  -33.368700

 Total Charge           Charge          ....    0
 Multiplicity           Mult            ....    1
 Number of Electrons    NEL             ....  134
 Basis Dimension        Dim             ....  322

ORBITAL ENERGIES
----------------

  NO   OCC          E(Eh)            E(eV)
   0   2.0000     -88.968909     -2420.9671
   1   2.0000     -88.956991     -2420.6428
   2   2.0000     -10.333878      -281.1991
   3   2.0000     -10.323513      -280.9171
   4   2.0000     -10.323420      -280.9145
   5   2.0000     -10.322980      -280.9026
   6   2.0000     -10.307095      -280.4703
   7   2.0000     -10.301985      -280.3313
   8   2.0000     -10.299958      -280.2761
   9   2.0000     -10.298225      -280.2290
  10   2.0000     -10.293258      -280.0938
  11   2.0000     -10.286948      -279.9221
  12   2.0000     -10.282483      -279.8006
  13   2.0000     -10.281097      -279.7629
  14   2.0000     -10.275322      -279.6057
  15   2.0000     -10.274753      -279.5902
  16   2.0000      -8.082817      -219.9446
  17   2.0000      -8.072049      -219.6516
  18   2.0000      -6.041452      -164.3963
  19   2.0000      -6.037458      -164.2876
  20   2.0000      -6.033454      -164.1786
  21   2.0000      -6.030754      -164.1052
  22   2.0000      -6.026319      -163.9845
  23   2.0000      -6.022744      -163.8872
  24   2.0000      -1.005128       -27.3509
  25   2.0000      -0.981024       -26.6950
  26   2.0000      -0.924748       -25.1637
  27   2.0000      -0.908653       -24.7257
  28   2.0000      -0.869939       -23.6723
  29   2.0000      -0.847950       -23.0739
  30   2.0000      -0.841037       -22.8858
  31   2.0000      -0.815958       -22.2033
  32   2.0000      -0.783722       -21.3262
  33   2.0000      -0.771317       -20.9886
  34   2.0000      -0.706006       -19.2114
  35   2.0000      -0.702365       -19.1123
  36   2.0000      -0.697775       -18.9874
  37   2.0000      -0.652567       -17.7572
  38   2.0000      -0.635949       -17.3051
  39   2.0000      -0.610769       -16.6199
  40   2.0000      -0.599564       -16.3150
  41   2.0000      -0.582651       -15.8547
  42   2.0000      -0.575524       -15.6608
  43   2.0000      -0.551129       -14.9970
  44   2.0000      -0.543008       -14.7760
  45   2.0000      -0.531672       -14.4675
  46   2.0000      -0.511735       -13.9250
  47   2.0000      -0.509830       -13.8732
  48   2.0000      -0.502857       -13.6834
  49   2.0000      -0.498567       -13.5667
  50   2.0000      -0.487893       -13.2762
  51   2.0000      -0.481007       -13.0889
  52   2.0000      -0.471175       -12.8213
  53   2.0000      -0.465930       -12.6786
  54   2.0000      -0.460742       -12.5374
  55   2.0000      -0.446268       -12.1436
  56   2.0000      -0.443425       -12.0662
  57   2.0000      -0.436523       -11.8784
  58   2.0000      -0.428668       -11.6646
  59   2.0000      -0.425569       -11.5803
  60   2.0000      -0.422137       -11.4869
  61   2.0000      -0.410784       -11.1780
  62   2.0000      -0.403571       -10.9817
  63   2.0000      -0.344669        -9.3789
  64   2.0000      -0.332528        -9.0485
  65   2.0000      -0.321991        -8.7618
  66   2.0000      -0.303924        -8.2702
  67   0.0000       0.036403         0.9906
  68   0.0000       0.064008         1.7418
  69   0.0000       0.107404         2.9226
  70   0.0000       0.122741         3.3400
  71   0.0000       0.126664         3.4467

MULLIKEN ATOMIC CHARGES
-----------------------
   0 S :    0.109989
   1 C :   -0.127664
   2 C :   -0.117366
   3 C :    0.029021
   4 C :   -0.185641
   5 H :    0.039797
   6 C :    0.038174
   7 H :    0.020312
   8 H :    0.026061
   9 C :   -0.042968
  10 H :    0.028090
  11 H :    0.019913
  12 C :   -0.038199
  13 H :    0.033942
  14 H :    0.036386
  15 H :    0.046513
  16 S :    0.078888
  17 C :   -0.104582
  18 C :    0.005070
  19 C :   -0.102802
  20 C :   -0.102540
  21 H :    0.014148
  22 C :    0.081647
  23 H :    0.036196
  24 H :    0.004338
  25 C :   -0.093180
  26 H :    0.043484
  27 H :    0.033630
  28 C :   -0.030930
  29 H :    0.037735
  30 H :    0.021059
  31 H :    0.020401
  32 H :    0.064740
  33 H :    0.076336
Sum of atomic charges:   -0.0000000

LOEWDIN ATOMIC CHARGES
----------------------
   0 S :    0.392512
   1 C :   -0.188979
   2 C :   -0.067295
   3 C :   -0.063162
   4 C :   -0.196372
   5 H :    0.039511
   6 C :   -0.041210
   7 H :    0.029100
   8 H :    0.033167
   9 C :   -0.033392
  10 H :    0.020974
  11 H :    0.022372
  12 C :   -0.058960
  13 H :    0.024885
  14 H :    0.030464
  15 H :    0.024672
  16 S :    0.392193
  17 C :   -0.169452
  18 C :   -0.073548
  19 C :   -0.058731
  20 C :   -0.212174
  21 H :    0.025506
  22 C :   -0.036610
  23 H :    0.034041
  24 H :    0.028261
  25 C :   -0.052274
  26 H :    0.036397
  27 H :    0.024319
  28 C :   -0.064015
  29 H :    0.033459
  30 H :    0.024772
  31 H :    0.019137
  32 H :    0.040881
  33 H :    0.039552

  Mayer bond orders larger than 0.100000
B(  0-S ,  1-C ) :   1.1205 B(  0-S ,  4-C ) :   1.1493 B(  1-C ,  2-C ) :   1.6521
B(  1-C , 32-H ) :   0.9593 B(  2-C ,  3-C ) :   1.2109 B(  2-C ,  6-C ) :   1.0057
B(  3-C ,  4-C ) :   1.6057 B(  3-C ,  5-H ) :   0.9780 B(  4-C , 20-C ) :   0.9973
B(  6-C ,  7-H ) :   0.9472 B(  6-C ,  8-H ) :   0.9465 B(  6-C ,  9-C ) :   1.0403
B(  9-C , 10-H ) :   0.9591 B(  9-C , 11-H ) :   0.9570 B(  9-C , 12-C ) :   1.0843
B( 12-C , 13-H ) :   0.9766 B( 12-C , 14-H ) :   0.9715 B( 12-C , 15-H ) :   0.9703
B( 16-S , 17-C ) :   1.1543 B( 16-S , 20-C ) :   1.1343 B( 17-C , 18-C ) :   1.5934
B( 17-C , 33-H ) :   0.9681 B( 18-C , 19-C ) :   1.2409 B( 18-C , 21-H ) :   0.9877
B( 19-C , 20-C ) :   1.6313 B( 19-C , 22-C ) :   1.0308 B( 22-C , 23-H ) :   0.9200
B( 22-C , 24-H ) :   0.9342 B( 22-C , 25-C ) :   1.0893 B( 25-C , 26-H ) :   0.9522
B( 25-C , 27-H ) :   0.9333 B( 25-C , 28-C ) :   1.1086 B( 28-C , 29-H ) :   0.9686
B( 28-C , 30-H ) :   0.9677 B( 28-C , 31-H ) :   0.9670

Dispersion correction           -0.014505979
FINAL SINGLE POINT ENERGY     -1339.872438207196

DIPOLE MOMENT
-------------
                                X             Y             Z
Electronic contribution:     24.63968     -12.87240      11.22010
Nuclear contribution   :    -25.20490      13.35039     -11.38164
                        -----------------------------------------
Total Dipole Moment    :     -0.56522       0.47798      -0.16154
                        -----------------------------------------
Magnitude (a.u.)       :      0.75766
Magnitude (Debye)      :      1.92581

Rotational constants in cm-1:     0.017021     0.009828     0.006797
Rotational constants in MHz :   510.269901   294.640092   203.775350

                             ****ORCA TERMINATED NORMALLY****
TOTAL RUN TIME: 0 days 0 hours 0 minutes 22 seconds 96 msec
