                         Program Version 4.2.1 -  RELEASE  -
|  1> ! wB97X-D3 SP def2-SVP
|  2> %pal
|  3> nprocs 24
|  4> end
|  5>
|  6> * xyz 0 1
|  7> S 	 -134.618 	 17.5974 	 -17.218
|  8> C 	 -133.616 	 16.3256 	 -16.4823
|  9> C 	 -132.493 	 16.1685 	 -17.2412
| 10> C 	 -132.224 	 17.1399 	 -18.2156
| 11> C 	 -133.338 	 17.8954 	 -18.4788
| 12> H 	 -131.379 	 17.1934 	 -18.7968
| 13> C 	 -131.474 	 15.0635 	 -16.895
| 14> H 	 -131.824 	 14.1813 	 -16.3468
| 15> H 	 -130.763 	 15.6698 	 -16.3052
| 16> C 	 -130.641 	 14.4925 	 -18.1239
| 17> H 	 -130.207 	 15.3149 	 -18.5646
| 18> H 	 -129.746 	 13.8617 	 -17.7967
| 19> C 	 -131.316 	 13.5084 	 -19.0761
| 20> H 	 -131.459 	 12.4991 	 -18.6289
| 21> H 	 -132.202 	 13.9238 	 -19.5842
| 22> H 	 -130.645 	 13.2113 	 -19.8657
| 23> S 	 -133.551 	 20.6291 	 -19.097
| 24> C 	 -133.124 	 21.2258 	 -20.7373
| 25> C 	 -132.86 	 20.1289 	 -21.5354
| 26> C 	 -133.019 	 18.8549 	 -20.8581
| 27> C 	 -133.364 	 18.9751 	 -19.5124
| 28> H 	 -132.587 	 20.3263 	 -22.6314
| 29> C 	 -132.894 	 17.5828 	 -21.6746
| 30> H 	 -133.471 	 17.6958 	 -22.5869
| 31> H 	 -133.516 	 16.8175 	 -21.2442
| 32> C 	 -131.468 	 17.1846 	 -22.0567
| 33> H 	 -130.843 	 17.0447 	 -21.1648
| 34> H 	 -131.139 	 17.9562 	 -22.7687
| 35> C 	 -131.492 	 15.8218 	 -22.8192
| 36> H 	 -131.804 	 15.0397 	 -22.1191
| 37> H 	 -130.559 	 15.4775 	 -23.1108
| 38> H 	 -132.142 	 15.756 	 -23.7402
| 39> H 	 -133.926 	 15.7933 	 -15.5967
| 40> H 	 -133.039 	 22.3215 	 -20.9904
| 41> *
| 42>
| 43>                          ****END OF INPUT****

CARTESIAN COORDINATES (ANGSTROEM)
---------------------------------
  S    -134.618000   17.597400  -17.218000
  C    -133.616000   16.325600  -16.482300
  C    -132.493000   16.168500  -17.241200
  C    -132.224000   17.139900  -18.215600
  C    -133.338000   17.895400  -18.478800
  H    -131.379000   17.193400  -18.796800
  C    -131.474000   15.063500  -16.895000
  H    -131.824000   14.181300  -16.346800
  H    -130.763000   15.669800  -16.305200
  C    -130.641000   14.492500  -18.123900
  H    -130.207000   15.314900  -18.564600
  H    -129.746000   13.861700  -17.796700
  C    -131.316000   13.508400  -19.076100
  H    -131.459000   12.499100  -18.628900
  H    -132.202000   13.923800  -19.584200
  H    -130.645000   13.211300  -19.865700
  S    -133.551000   20.629100  -19.097000
  C    -133.124000   21.225800  -20.737300
  C    -132.860000   20.128900  -21.535400
  C    -133.019000   18.854900  -20.858100
  C    -133.364000   18.975100  -19.512400
  H    -132.587000   20.326300  -22.631400
  C    -132.894000   17.582800  -21.674600
  H    -133.471000   17.695800  -22.586900
  H    -133.516000   16.817500  -21.244200
  C    -131.468000   17.184600  -22.056700
  H    -130.843000   17.044700  -21.164800
  H    -131.139000   17.956200  -22.768700
  C    -131.492000   15.821800  -22.819200
  H    -131.804000   15.039700  -22.119100
  H    -130.559000   15.477500  -23.110800
  H    -132.142000   15.756000  -23.740200
  H    -133.926000   15.793300  -15.596700
  H    -133.039000   22.321500  -20.990400

 Total Charge           Charge          ....    0
 Multiplicity           Mult            ....    1
 Number of Electrons    NEL             ....  134
 Basis Dimension        Dim             ....  322

ORBITAL ENERGIES
----------------

  NO   OCC          E(Eh)            E(eV)
   0   2.0000     -88.965101     -2420.8635
   1   2.0000     -88.963353     -2420.8159
   2   2.0000     -10.339517      -281.3526
   3   2.0000     -10.330057      -281.0951
   4   2.0000     -10.327396      -281.0227
   5   2.0000     -10.314773      -280.6792
   6   2.0000     -10.305792      -280.4349
   7   2.0000     -10.304000      -280.3861
   8   2.0000     -10.301407      -280.3155
   9   2.0000     -10.298179      -280.2277
  10   2.0000     -10.294287      -280.1218
  11   2.0000     -10.291338      -280.0415
  12   2.0000     -10.290373      -280.0153
  13   2.0000     -10.285983      -279.8958
  14   2.0000     -10.280952      -279.7589
  15   2.0000     -10.277980      -279.6780
  16   2.0000      -8.078432      -219.8253
  17   2.0000      -8.078122      -219.8169
  18   2.0000      -6.037071      -164.2771
  19   2.0000      -6.036737      -164.2680
  20   2.0000      -6.033211      -164.1720
  21   2.0000      -6.032488      -164.1524
  22   2.0000      -6.029052      -164.0588
  23   2.0000      -6.028878      -164.0541
  24   2.0000      -1.002724       -27.2855
  25   2.0000      -0.982407       -26.7327
  26   2.0000      -0.908063       -24.7096
  27   2.0000      -0.901904       -24.5421
  28   2.0000      -0.868801       -23.6413
  29   2.0000      -0.848957       -23.1013
  30   2.0000      -0.843339       -22.9484
  31   2.0000      -0.820267       -22.3206
  32   2.0000      -0.779339       -21.2069
  33   2.0000      -0.770375       -20.9630
  34   2.0000      -0.708566       -19.2811
  35   2.0000      -0.700496       -19.0615
  36   2.0000      -0.691196       -18.8084
  37   2.0000      -0.656504       -17.8644
  38   2.0000      -0.644605       -17.5406
  39   2.0000      -0.625588       -17.0231
  40   2.0000      -0.594876       -16.1874
  41   2.0000      -0.568301       -15.4642
  42   2.0000      -0.562615       -15.3095
  43   2.0000      -0.550599       -14.9826
  44   2.0000      -0.542600       -14.7649
  45   2.0000      -0.525720       -14.3056
  46   2.0000      -0.519828       -14.1452
  47   2.0000      -0.509964       -13.8768
  48   2.0000      -0.509065       -13.8524
  49   2.0000      -0.494639       -13.4598
  50   2.0000      -0.487336       -13.2611
  51   2.0000      -0.481669       -13.1069
  52   2.0000      -0.474420       -12.9096
  53   2.0000      -0.463093       -12.6014
  54   2.0000      -0.459111       -12.4930
  55   2.0000      -0.449380       -12.2282
  56   2.0000      -0.442808       -12.0494
  57   2.0000      -0.438345       -11.9280
  58   2.0000      -0.434557       -11.8249
  59   2.0000      -0.420559       -11.4440
  60   2.0000      -0.416562       -11.3352
  61   2.0000      -0.414347       -11.2749
  62   2.0000      -0.404717       -11.0129
  63   2.0000      -0.348209        -9.4752
  64   2.0000      -0.330670        -8.9980
  65   2.0000      -0.323384        -8.7997
  66   2.0000      -0.299271        -8.1436
  67   0.0000       0.029528         0.8035
  68   0.0000       0.067824         1.8456
  69   0.0000       0.113188         3.0800
  70   0.0000       0.115386         3.1398
  71   0.0000       0.124757         3.3948

MULLIKEN ATOMIC CHARGES
-----------------------
   0 S :    0.087402
   1 C :   -0.135133
   2 C :   -0.053502
   3 C :    0.075371
   4 C :   -0.141049
   5 H :   -0.022868
   6 C :    0.048890
   7 H :    0.033906
   8 H :    0.047339
   9 C :   -0.089452
  10 H :    0.004463
  11 H :    0.031297
  12 C :   -0.051200
  13 H :    0.033407
  14 H :    0.048378
  15 H :    0.023006
  16 S :    0.094938
  17 C :   -0.131250
  18 C :   -0.046620
  19 C :   -0.049641
  20 C :   -0.127986
  21 H :    0.053841
  22 C :    0.047915
  23 H :    0.016818
  24 H :    0.016501
  25 C :   -0.060901
  26 H :    0.036392
  27 H :    0.037594
  28 C :   -0.040444
  29 H :    0.023097
  30 H :    0.012097
  31 H :    0.036911
  32 H :    0.054345
  33 H :    0.086137
Sum of atomic charges:   -0.0000000

LOEWDIN ATOMIC CHARGES
----------------------
   0 S :    0.358402
   1 C :   -0.183410
   2 C :   -0.063762
   3 C :   -0.046730
   4 C :   -0.157083
   5 H :    0.018405
   6 C :   -0.029277
   7 H :    0.029169
   8 H :    0.040868
   9 C :   -0.044402
  10 H :    0.004742
  11 H :    0.035416
  12 C :   -0.074381
  13 H :    0.031611
  14 H :    0.025213
  15 H :    0.025606
  16 S :    0.400651
  17 C :   -0.183605
  18 C :   -0.081268
  19 C :   -0.060374
  20 C :   -0.211403
  21 H :    0.046420
  22 C :   -0.040587
  23 H :    0.032838
  24 H :    0.027584
  25 C :   -0.031158
  26 H :    0.024499
  27 H :    0.027839
  28 C :   -0.067658
  29 H :    0.026383
  30 H :    0.012755
  31 H :    0.030921
  32 H :    0.030521
  33 H :    0.045252

  Mayer bond orders larger than 0.100000
B(  0-S ,  1-C ) :   1.1160 B(  0-S ,  4-C ) :   1.1362 B(  1-C ,  2-C ) :   1.6281
B(  1-C , 32-H ) :   0.9774 B(  2-C ,  3-C ) :   1.2181 B(  2-C ,  6-C ) :   0.9992
B(  3-C ,  4-C ) :   1.5950 B(  3-C ,  5-H ) :   0.9996 B(  4-C , 20-C ) :   1.0203
B(  6-C ,  7-H ) :   0.9581 B(  6-C ,  8-H ) :   0.9374 B(  6-C ,  9-C ) :   1.0723
B(  9-C , 10-H ) :   0.9561 B(  9-C , 11-H ) :   0.9550 B(  9-C , 12-C ) :   1.0809
B( 12-C , 13-H ) :   0.9702 B( 12-C , 14-H ) :   0.9737 B( 12-C , 15-H ) :   0.9685
B( 16-S , 17-C ) :   1.1481 B( 16-S , 20-C ) :   1.1456 B( 17-C , 18-C ) :   1.6116
B( 17-C , 33-H ) :   0.9622 B( 18-C , 19-C ) :   1.2377 B( 18-C , 21-H ) :   0.9758
B( 19-C , 20-C ) :   1.5953 B( 19-C , 22-C ) :   1.0420 B( 22-C , 23-H ) :   0.9358
B( 22-C , 24-H ) :   0.9388 B( 22-C , 25-C ) :   1.0528 B( 25-C , 26-H ) :   0.9553
B( 25-C , 27-H ) :   0.9543 B( 25-C , 28-C ) :   1.0848 B( 28-C , 29-H ) :   0.9734
B( 28-C , 30-H ) :   0.9732 B( 28-C , 31-H ) :   0.9732

Dispersion correction           -0.015411258
FINAL SINGLE POINT ENERGY     -1339.859236328533

DIPOLE MOMENT
-------------
                                X             Y             Z
Electronic contribution:    -16.94054      24.55483      14.32991
Nuclear contribution   :     17.53355     -24.99390     -14.72975
                        -----------------------------------------
Total Dipole Moment    :      0.59301      -0.43908      -0.39984
                        -----------------------------------------
Magnitude (a.u.)       :      0.83924
Magnitude (Debye)      :      2.13318

Rotational constants in cm-1:     0.016228     0.010900     0.007145
Rotational constants in MHz :   486.490581   326.772354   214.213331

                             ****ORCA TERMINATED NORMALLY****
TOTAL RUN TIME: 0 days 0 hours 0 minutes 22 seconds 736 msec
