                         Program Version 4.2.1 -  RELEASE  -
|  1> ! wB97X-D3 SP def2-SVP
|  2> %pal
|  3> nprocs 24
|  4> end
|  5>
|  6> * xyz 0 1
|  7> S 	 -96.5614 	 44.0273 	 -85.5312
|  8> C 	 -96.299 	 42.4839 	 -84.8008
|  9> C 	 -96.921 	 41.4902 	 -85.5204
| 10> C 	 -97.7191 	 41.9905 	 -86.5953
| 11> C 	 -97.7876 	 43.3337 	 -86.6259
| 12> H 	 -98.305 	 41.4447 	 -87.2724
| 13> C 	 -96.9467 	 40.0369 	 -85.1958
| 14> H 	 -96.0054 	 39.7877 	 -84.6927
| 15> H 	 -96.9333 	 39.6076 	 -86.2239
| 16> C 	 -98.0751 	 39.6037 	 -84.261
| 17> H 	 -98.1066 	 40.1986 	 -83.3515
| 18> H 	 -98.9618 	 39.9487 	 -84.7201
| 19> C 	 -97.9717 	 38.1584 	 -83.8454
| 20> H 	 -96.9425 	 37.9016 	 -83.553
| 21> H 	 -98.6544 	 37.9601 	 -82.9899
| 22> H 	 -98.2711 	 37.5676 	 -84.7036
| 23> S 	 -100.074 	 44.391 	 -87.6674
| 24> C 	 -100.031 	 45.6359 	 -88.8412
| 25> C 	 -98.8388 	 45.6499 	 -89.4953
| 26> C 	 -97.8039 	 44.9 	 -88.7616
| 27> C 	 -98.3461 	 44.1509 	 -87.7072
| 28> H 	 -98.6399 	 46.2821 	 -90.3143
| 29> C 	 -96.343 	 44.9273 	 -89.1884
| 30> H 	 -95.9331 	 45.2939 	 -88.2391
| 31> H 	 -96.2267 	 45.729 	 -89.9622
| 32> C 	 -95.7086 	 43.6224 	 -89.7091
| 33> H 	 -95.9867 	 42.7696 	 -89.0426
| 34> H 	 -94.6267 	 43.7046 	 -89.7371
| 35> C 	 -96.0966 	 43.1571 	 -91.1339
| 36> H 	 -95.636 	 42.16 	 -91.4054
| 37> H 	 -95.5633 	 43.8491 	 -91.886
| 38> H 	 -97.1886 	 43.1322 	 -91.1398
| 39> H 	 -95.6226 	 42.3827 	 -83.9322
| 40> H 	 -100.886 	 46.2676 	 -89.1188
| 41> *
| 42>
| 43>                          ****END OF INPUT****

CARTESIAN COORDINATES (ANGSTROEM)
---------------------------------
  S    -96.561400   44.027300  -85.531200
  C    -96.299000   42.483900  -84.800800
  C    -96.921000   41.490200  -85.520400
  C    -97.719100   41.990500  -86.595300
  C    -97.787600   43.333700  -86.625900
  H    -98.305000   41.444700  -87.272400
  C    -96.946700   40.036900  -85.195800
  H    -96.005400   39.787700  -84.692700
  H    -96.933300   39.607600  -86.223900
  C    -98.075100   39.603700  -84.261000
  H    -98.106600   40.198600  -83.351500
  H    -98.961800   39.948700  -84.720100
  C    -97.971700   38.158400  -83.845400
  H    -96.942500   37.901600  -83.553000
  H    -98.654400   37.960100  -82.989900
  H    -98.271100   37.567600  -84.703600
  S    -100.074000   44.391000  -87.667400
  C    -100.031000   45.635900  -88.841200
  C    -98.838800   45.649900  -89.495300
  C    -97.803900   44.900000  -88.761600
  C    -98.346100   44.150900  -87.707200
  H    -98.639900   46.282100  -90.314300
  C    -96.343000   44.927300  -89.188400
  H    -95.933100   45.293900  -88.239100
  H    -96.226700   45.729000  -89.962200
  C    -95.708600   43.622400  -89.709100
  H    -95.986700   42.769600  -89.042600
  H    -94.626700   43.704600  -89.737100
  C    -96.096600   43.157100  -91.133900
  H    -95.636000   42.160000  -91.405400
  H    -95.563300   43.849100  -91.886000
  H    -97.188600   43.132200  -91.139800
  H    -95.622600   42.382700  -83.932200
  H    -100.886000   46.267600  -89.118800

 Total Charge           Charge          ....    0
 Multiplicity           Mult            ....    1
 Number of Electrons    NEL             ....  134
 Basis Dimension        Dim             ....  322

ORBITAL ENERGIES
----------------

  NO   OCC          E(Eh)            E(eV)
   0   2.0000     -88.963721     -2420.8259
   1   2.0000     -88.960371     -2420.7348
   2   2.0000     -10.327797      -281.0336
   3   2.0000     -10.324484      -280.9435
   4   2.0000     -10.316110      -280.7156
   5   2.0000     -10.314529      -280.6726
   6   2.0000     -10.308175      -280.4997
   7   2.0000     -10.298055      -280.2243
   8   2.0000     -10.295146      -280.1452
   9   2.0000     -10.290722      -280.0248
  10   2.0000     -10.290435      -280.0170
  11   2.0000     -10.289642      -279.9954
  12   2.0000     -10.285991      -279.8961
  13   2.0000     -10.285810      -279.8911
  14   2.0000     -10.280459      -279.7455
  15   2.0000     -10.279350      -279.7153
  16   2.0000      -8.078476      -219.8265
  17   2.0000      -8.076238      -219.7656
  18   2.0000      -6.036983      -164.2747
  19   2.0000      -6.034724      -164.2132
  20   2.0000      -6.033044      -164.1675
  21   2.0000      -6.030526      -164.0989
  22   2.0000      -6.029184      -164.0625
  23   2.0000      -6.027028      -164.0038
  24   2.0000      -1.009150       -27.4604
  25   2.0000      -0.988349       -26.8943
  26   2.0000      -0.916222       -24.9317
  27   2.0000      -0.902278       -24.5522
  28   2.0000      -0.873103       -23.7583
  29   2.0000      -0.854342       -23.2478
  30   2.0000      -0.843516       -22.9532
  31   2.0000      -0.819544       -22.3009
  32   2.0000      -0.778750       -21.1909
  33   2.0000      -0.765566       -20.8321
  34   2.0000      -0.705898       -19.2085
  35   2.0000      -0.701163       -19.0796
  36   2.0000      -0.681661       -18.5489
  37   2.0000      -0.663437       -18.0530
  38   2.0000      -0.649592       -17.6763
  39   2.0000      -0.621440       -16.9102
  40   2.0000      -0.585659       -15.9366
  41   2.0000      -0.568324       -15.4649
  42   2.0000      -0.561652       -15.2833
  43   2.0000      -0.554915       -15.1000
  44   2.0000      -0.546145       -14.8614
  45   2.0000      -0.528072       -14.3696
  46   2.0000      -0.518238       -14.1020
  47   2.0000      -0.514192       -13.9919
  48   2.0000      -0.510945       -13.9035
  49   2.0000      -0.497649       -13.5417
  50   2.0000      -0.480775       -13.0825
  51   2.0000      -0.479312       -13.0427
  52   2.0000      -0.466798       -12.7022
  53   2.0000      -0.465253       -12.6602
  54   2.0000      -0.462154       -12.5758
  55   2.0000      -0.454799       -12.3757
  56   2.0000      -0.445092       -12.1116
  57   2.0000      -0.440404       -11.9840
  58   2.0000      -0.431254       -11.7350
  59   2.0000      -0.424784       -11.5590
  60   2.0000      -0.410162       -11.1611
  61   2.0000      -0.407717       -11.0945
  62   2.0000      -0.404014       -10.9938
  63   2.0000      -0.346410        -9.4263
  64   2.0000      -0.328716        -8.9448
  65   2.0000      -0.321215        -8.7407
  66   2.0000      -0.300867        -8.1870
  67   0.0000       0.041293         1.1236
  68   0.0000       0.055650         1.5143
  69   0.0000       0.103326         2.8117
  70   0.0000       0.122602         3.3362
  71   0.0000       0.133913         3.6439

MULLIKEN ATOMIC CHARGES
-----------------------
   0 S :    0.095278
   1 C :   -0.130261
   2 C :   -0.084955
   3 C :    0.052321
   4 C :   -0.117719
   5 H :   -0.002843
   6 C :    0.049281
   7 H :    0.010280
   8 H :    0.035455
   9 C :   -0.036132
  10 H :    0.015750
  11 H :    0.006247
  12 C :   -0.025592
  13 H :    0.032302
  14 H :    0.041911
  15 H :    0.032005
  16 S :    0.105262
  17 C :   -0.096078
  18 C :   -0.006101
  19 C :   -0.093176
  20 C :   -0.196957
  21 H :    0.004359
  22 C :    0.089997
  23 H :    0.036756
  24 H :    0.018742
  25 C :   -0.069439
  26 H :    0.041435
  27 H :    0.028593
  28 C :   -0.095104
  29 H :    0.043387
  30 H :    0.036896
  31 H :    0.049453
  32 H :    0.060640
  33 H :    0.068007
Sum of atomic charges:   -0.0000000

LOEWDIN ATOMIC CHARGES
----------------------
   0 S :    0.397308
   1 C :   -0.197963
   2 C :   -0.068502
   3 C :   -0.052584
   4 C :   -0.183073
   5 H :    0.025907
   6 C :   -0.034454
   7 H :    0.025674
   8 H :    0.036796
   9 C :   -0.042503
  10 H :    0.025652
  11 H :    0.017923
  12 C :   -0.061937
  13 H :    0.026966
  14 H :    0.031932
  15 H :    0.025249
  16 S :    0.419222
  17 C :   -0.193584
  18 C :   -0.072926
  19 C :   -0.052582
  20 C :   -0.213639
  21 H :    0.023093
  22 C :   -0.038185
  23 H :    0.035826
  24 H :    0.031514
  25 C :   -0.046329
  26 H :    0.029450
  27 H :    0.022603
  28 C :   -0.075434
  29 H :    0.031960
  30 H :    0.029531
  31 H :    0.025823
  32 H :    0.035010
  33 H :    0.036255

  Mayer bond orders larger than 0.100000
B(  0-S ,  1-C ) :   1.1433 B(  0-S ,  4-C ) :   1.1330 B(  1-C ,  2-C ) :   1.6070
B(  1-C , 32-H ) :   0.9696 B(  2-C ,  3-C ) :   1.2210 B(  2-C ,  6-C ) :   1.0304
B(  3-C ,  4-C ) :   1.6116 B(  3-C ,  5-H ) :   1.0002 B(  4-C , 20-C ) :   1.0022
B(  6-C ,  7-H ) :   0.9331 B(  6-C ,  8-H ) :   0.9376 B(  6-C ,  9-C ) :   1.0646
B(  9-C , 10-H ) :   0.9502 B(  9-C , 11-H ) :   0.9513 B(  9-C , 12-C ) :   1.0783
B( 12-C , 13-H ) :   0.9724 B( 12-C , 14-H ) :   0.9743 B( 12-C , 15-H ) :   0.9756
B( 16-S , 17-C ) :   1.1695 B( 16-S , 20-C ) :   1.1424 B( 17-C , 18-C ) :   1.6060
B( 17-C , 33-H ) :   0.9641 B( 18-C , 19-C ) :   1.2295 B( 18-C , 21-H ) :   0.9949
B( 19-C , 20-C ) :   1.6044 B( 19-C , 22-C ) :   1.0252 B( 22-C , 23-H ) :   0.9256
B( 22-C , 24-H ) :   0.9345 B( 22-C , 25-C ) :   1.0634 B( 25-C , 26-H ) :   0.9577
B( 25-C , 27-H ) :   0.9562 B( 25-C , 28-C ) :   1.0731 B( 28-C , 29-H ) :   0.9734
B( 28-C , 30-H ) :   0.9742 B( 28-C , 31-H ) :   0.9786

Dispersion correction           -0.014752134
FINAL SINGLE POINT ENERGY     -1339.872404201416

DIPOLE MOMENT
-------------
                                X             Y             Z
Electronic contribution:     -8.92260      18.36708       4.12468
Nuclear contribution   :      9.14749     -18.65128      -4.24868
                        -----------------------------------------
Total Dipole Moment    :      0.22489      -0.28421      -0.12400
                        -----------------------------------------
Magnitude (a.u.)       :      0.38305
Magnitude (Debye)      :      0.97363

Rotational constants in cm-1:     0.020514     0.007781     0.007033
Rotational constants in MHz :   614.992292   233.279652   210.835247

                             ****ORCA TERMINATED NORMALLY****
TOTAL RUN TIME: 0 days 0 hours 0 minutes 21 seconds 687 msec
