                         Program Version 4.2.1 -  RELEASE  -
|  1> ! wB97X-D3 SP def2-SVP
|  2> %pal
|  3> nprocs 24
|  4> end
|  5>
|  6> * xyz 0 1
|  7> S 	 -104.462 	 7.69814 	 -123.528
|  8> C 	 -106.09 	 7.18025 	 -123.272
|  9> C 	 -106.432 	 7.0992 	 -121.913
| 10> C 	 -105.425 	 7.65412 	 -121.102
| 11> C 	 -104.296 	 7.99132 	 -121.795
| 12> H 	 -105.574 	 7.9084 	 -120.059
| 13> C 	 -107.812 	 6.60203 	 -121.424
| 14> H 	 -108.549 	 7.27967 	 -121.856
| 15> H 	 -107.768 	 6.90808 	 -120.326
| 16> C 	 -108.212 	 5.12044 	 -121.452
| 17> H 	 -108.369 	 4.77138 	 -122.422
| 18> H 	 -107.5 	 4.41832 	 -120.996
| 19> C 	 -109.595 	 4.88808 	 -120.687
| 20> H 	 -109.812 	 3.86618 	 -120.75
| 21> H 	 -109.69 	 5.27382 	 -119.633
| 22> H 	 -110.398 	 5.59115 	 -121.095
| 23> S 	 -102.166 	 9.76632 	 -122.235
| 24> C 	 -101.148 	 10.2208 	 -120.877
| 25> C 	 -101.443 	 9.42226 	 -119.764
| 26> C 	 -102.518 	 8.46918 	 -119.997
| 27> C 	 -103.068 	 8.56111 	 -121.258
| 28> H 	 -100.906 	 9.66753 	 -118.862
| 29> C 	 -103.015 	 7.62957 	 -118.871
| 30> H 	 -102.241 	 7.01619 	 -118.403
| 31> H 	 -103.548 	 6.75379 	 -119.199
| 32> C 	 -103.826 	 8.38392 	 -117.751
| 33> H 	 -104.674 	 8.94285 	 -118.32
| 34> H 	 -103.147 	 9.14508 	 -117.367
| 35> C 	 -104.214 	 7.50262 	 -116.552
| 36> H 	 -103.389 	 7.03596 	 -116.094
| 37> H 	 -104.868 	 6.64584 	 -116.896
| 38> H 	 -104.828 	 8.15095 	 -115.914
| 39> H 	 -106.886 	 6.97139 	 -124.021
| 40> H 	 -100.438 	 11.0603 	 -120.843
| 41> *
| 42>
| 43>                          ****END OF INPUT****

CARTESIAN COORDINATES (ANGSTROEM)
---------------------------------
  S    -104.462000    7.698140  -123.528000
  C    -106.090000    7.180250  -123.272000
  C    -106.432000    7.099200  -121.913000
  C    -105.425000    7.654120  -121.102000
  C    -104.296000    7.991320  -121.795000
  H    -105.574000    7.908400  -120.059000
  C    -107.812000    6.602030  -121.424000
  H    -108.549000    7.279670  -121.856000
  H    -107.768000    6.908080  -120.326000
  C    -108.212000    5.120440  -121.452000
  H    -108.369000    4.771380  -122.422000
  H    -107.500000    4.418320  -120.996000
  C    -109.595000    4.888080  -120.687000
  H    -109.812000    3.866180  -120.750000
  H    -109.690000    5.273820  -119.633000
  H    -110.398000    5.591150  -121.095000
  S    -102.166000    9.766320  -122.235000
  C    -101.148000   10.220800  -120.877000
  C    -101.443000    9.422260  -119.764000
  C    -102.518000    8.469180  -119.997000
  C    -103.068000    8.561110  -121.258000
  H    -100.906000    9.667530  -118.862000
  C    -103.015000    7.629570  -118.871000
  H    -102.241000    7.016190  -118.403000
  H    -103.548000    6.753790  -119.199000
  C    -103.826000    8.383920  -117.751000
  H    -104.674000    8.942850  -118.320000
  H    -103.147000    9.145080  -117.367000
  C    -104.214000    7.502620  -116.552000
  H    -103.389000    7.035960  -116.094000
  H    -104.868000    6.645840  -116.896000
  H    -104.828000    8.150950  -115.914000
  H    -106.886000    6.971390  -124.021000
  H    -100.438000   11.060300  -120.843000

 Total Charge           Charge          ....    0
 Multiplicity           Mult            ....    1
 Number of Electrons    NEL             ....  134
 Basis Dimension        Dim             ....  322

ORBITAL ENERGIES
----------------

  NO   OCC          E(Eh)            E(eV)
   0   2.0000     -88.970194     -2421.0021
   1   2.0000     -88.964584     -2420.8494
   2   2.0000     -10.330534      -281.1081
   3   2.0000     -10.329324      -281.0752
   4   2.0000     -10.322768      -280.8968
   5   2.0000     -10.313978      -280.6576
   6   2.0000     -10.306207      -280.4461
   7   2.0000     -10.300965      -280.3035
   8   2.0000     -10.300392      -280.2879
   9   2.0000     -10.298880      -280.2468
  10   2.0000     -10.297539      -280.2103
  11   2.0000     -10.292152      -280.0637
  12   2.0000     -10.291906      -280.0570
  13   2.0000     -10.287487      -279.9367
  14   2.0000     -10.287115      -279.9266
  15   2.0000     -10.285435      -279.8809
  16   2.0000      -8.084777      -219.9980
  17   2.0000      -8.078590      -219.8296
  18   2.0000      -6.043248      -164.4451
  19   2.0000      -6.039391      -164.3402
  20   2.0000      -6.037252      -164.2820
  21   2.0000      -6.035516      -164.2348
  22   2.0000      -6.033173      -164.1710
  23   2.0000      -6.029250      -164.0642
  24   2.0000      -1.005485       -27.3607
  25   2.0000      -0.979924       -26.6651
  26   2.0000      -0.905735       -24.6463
  27   2.0000      -0.903684       -24.5905
  28   2.0000      -0.866742       -23.5852
  29   2.0000      -0.854908       -23.2632
  30   2.0000      -0.845861       -23.0170
  31   2.0000      -0.812089       -22.0981
  32   2.0000      -0.781414       -21.2634
  33   2.0000      -0.768176       -20.9031
  34   2.0000      -0.708597       -19.2819
  35   2.0000      -0.702795       -19.1240
  36   2.0000      -0.696137       -18.9429
  37   2.0000      -0.661610       -18.0033
  38   2.0000      -0.634125       -17.2554
  39   2.0000      -0.622860       -16.9489
  40   2.0000      -0.597869       -16.2689
  41   2.0000      -0.565240       -15.3810
  42   2.0000      -0.559103       -15.2140
  43   2.0000      -0.553679       -15.0664
  44   2.0000      -0.533221       -14.5097
  45   2.0000      -0.532156       -14.4807
  46   2.0000      -0.521638       -14.1945
  47   2.0000      -0.507769       -13.8171
  48   2.0000      -0.498714       -13.5707
  49   2.0000      -0.495744       -13.4899
  50   2.0000      -0.488964       -13.3054
  51   2.0000      -0.482647       -13.1335
  52   2.0000      -0.468827       -12.7574
  53   2.0000      -0.461226       -12.5506
  54   2.0000      -0.456496       -12.4219
  55   2.0000      -0.452235       -12.3059
  56   2.0000      -0.447191       -12.1687
  57   2.0000      -0.444576       -12.0975
  58   2.0000      -0.431919       -11.7531
  59   2.0000      -0.422038       -11.4842
  60   2.0000      -0.416005       -11.3201
  61   2.0000      -0.413703       -11.2574
  62   2.0000      -0.409675       -11.1478
  63   2.0000      -0.354986        -9.6597
  64   2.0000      -0.335474        -9.1287
  65   2.0000      -0.328257        -8.9323
  66   2.0000      -0.282980        -7.7003
  67   0.0000       0.022352         0.6082
  68   0.0000       0.076084         2.0704
  69   0.0000       0.100701         2.7402
  70   0.0000       0.117399         3.1946
  71   0.0000       0.130367         3.5475

MULLIKEN ATOMIC CHARGES
-----------------------
   0 S :    0.123675
   1 C :   -0.120775
   2 C :   -0.098912
   3 C :    0.003422
   4 C :   -0.121227
   5 H :    0.005128
   6 C :    0.017637
   7 H :    0.042272
   8 H :    0.021202
   9 C :   -0.010721
  10 H :    0.019157
  11 H :    0.038219
  12 C :   -0.092740
  13 H :    0.038772
  14 H :    0.034561
  15 H :    0.030535
  16 S :    0.088291
  17 C :   -0.104230
  18 C :   -0.038035
  19 C :   -0.021436
  20 C :   -0.109460
  21 H :    0.021343
  22 C :    0.035604
  23 H :    0.010954
  24 H :    0.009530
  25 C :   -0.112968
  26 H :    0.048212
  27 H :    0.028473
  28 C :   -0.022773
  29 H :    0.031802
  30 H :    0.031069
  31 H :    0.047015
  32 H :    0.056562
  33 H :    0.069841
Sum of atomic charges:   -0.0000000

LOEWDIN ATOMIC CHARGES
----------------------
   0 S :    0.412549
   1 C :   -0.212756
   2 C :   -0.067768
   3 C :   -0.063760
   4 C :   -0.182718
   5 H :    0.033038
   6 C :   -0.039047
   7 H :    0.034045
   8 H :    0.035306
   9 C :   -0.030457
  10 H :    0.015364
  11 H :    0.030364
  12 C :   -0.072164
  13 H :    0.018023
  14 H :    0.028866
  15 H :    0.030938
  16 S :    0.375778
  17 C :   -0.183986
  18 C :   -0.068651
  19 C :   -0.055598
  20 C :   -0.179903
  21 H :    0.030637
  22 C :   -0.050202
  23 H :    0.031238
  24 H :    0.025783
  25 C :   -0.042357
  26 H :    0.031087
  27 H :    0.021667
  28 C :   -0.062948
  29 H :    0.020964
  30 H :    0.029914
  31 H :    0.033090
  32 H :    0.036532
  33 H :    0.037130

  Mayer bond orders larger than 0.100000
B(  0-S ,  1-C ) :   1.1473 B(  0-S ,  4-C ) :   1.1421 B(  1-C ,  2-C ) :   1.5972
B(  1-C , 32-H ) :   0.9620 B(  2-C ,  3-C ) :   1.2794 B(  2-C ,  6-C ) :   1.0031
B(  3-C ,  4-C ) :   1.5628 B(  3-C ,  5-H ) :   0.9853 B(  4-C , 20-C ) :   1.0625
B(  6-C ,  7-H ) :   0.9419 B(  6-C ,  8-H ) :   0.9472 B(  6-C ,  9-C ) :   1.0617
B(  9-C , 10-H ) :   0.9542 B(  9-C , 11-H ) :   0.9578 B(  9-C , 12-C ) :   1.0671
B( 12-C , 13-H ) :   0.9773 B( 12-C , 14-H ) :   0.9772 B( 12-C , 15-H ) :   0.9746
B( 16-S , 17-C ) :   1.1458 B( 16-S , 20-C ) :   1.1117 B( 17-C , 18-C ) :   1.6312
B( 17-C , 33-H ) :   0.9644 B( 18-C , 19-C ) :   1.1993 B( 18-C , 21-H ) :   0.9937
B( 19-C , 20-C ) :   1.6154 B( 19-C , 22-C ) :   1.0657 B( 22-C , 23-H ) :   0.9231
B( 22-C , 24-H ) :   0.9265 B( 22-C , 25-C ) :   1.0446 B( 25-C , 26-H ) :   0.9517
B( 25-C , 27-H ) :   0.9538 B( 25-C , 28-C ) :   1.0732 B( 28-C , 29-H ) :   0.9721
B( 28-C , 30-H ) :   0.9750 B( 28-C , 31-H ) :   0.9733

Dispersion correction           -0.013839786
FINAL SINGLE POINT ENERGY     -1339.867015359339

DIPOLE MOMENT
-------------
                                X             Y             Z
Electronic contribution:     20.29511      13.26622     -23.36110
Nuclear contribution   :    -20.66300     -13.38287      24.04832
                        -----------------------------------------
Total Dipole Moment    :     -0.36789      -0.11665       0.68722
                        -----------------------------------------
Magnitude (a.u.)       :      0.78818
Magnitude (Debye)      :      2.00339

Rotational constants in cm-1:     0.017924     0.008633     0.006019
Rotational constants in MHz :   537.354372   258.810918   180.445118

                             ****ORCA TERMINATED NORMALLY****
TOTAL RUN TIME: 0 days 0 hours 0 minutes 20 seconds 219 msec
