                         Program Version 4.2.1 -  RELEASE  -
|  1> ! wB97X-D3 SP def2-SVP
|  2> %pal
|  3> nprocs 24
|  4> end
|  5>
|  6> * xyz 0 1
|  7> S 	 -83.5355 	 -40.5168 	 -71.7408
|  8> C 	 -84.7547 	 -40.8525 	 -72.9015
|  9> C 	 -84.3141 	 -40.4539 	 -74.1802
| 10> C 	 -82.9448 	 -40.0824 	 -74.2487
| 11> C 	 -82.4114 	 -39.9646 	 -73.0015
| 12> H 	 -82.4881 	 -39.842 	 -75.1733
| 13> C 	 -85.1755 	 -40.3856 	 -75.4823
| 14> H 	 -85.1434 	 -39.3874 	 -75.9325
| 15> H 	 -86.2736 	 -40.4554 	 -75.2289
| 16> C 	 -84.8969 	 -41.4894 	 -76.4892
| 17> H 	 -85.2493 	 -41.1773 	 -77.5376
| 18> H 	 -83.8193 	 -41.6254 	 -76.6156
| 19> C 	 -85.2904 	 -42.9133 	 -76.0764
| 20> H 	 -86.2229 	 -43.0621 	 -75.4663
| 21> H 	 -85.4397 	 -43.4769 	 -77.0303
| 22> H 	 -84.4848 	 -43.3595 	 -75.542
| 23> S 	 -80.8375 	 -37.9569 	 -71.7486
| 24> C 	 -79.0569 	 -38.069 	 -71.8259
| 25> C 	 -78.7243 	 -39.2177 	 -72.5142
| 26> C 	 -79.8133 	 -40.0441 	 -72.9738
| 27> C 	 -81.0517 	 -39.4456 	 -72.6872
| 28> H 	 -77.6491 	 -39.5043 	 -72.6145
| 29> C 	 -79.6055 	 -41.353 	 -73.7255
| 30> H 	 -79.222 	 -41.1564 	 -74.7075
| 31> H 	 -80.6234 	 -41.7219 	 -73.8747
| 32> C 	 -78.7765 	 -42.4469 	 -73.006
| 33> H 	 -79.3019 	 -42.9264 	 -72.1855
| 34> H 	 -77.8973 	 -42.0046 	 -72.4703
| 35> C 	 -78.3951 	 -43.6121 	 -74.025
| 36> H 	 -79.3148 	 -44.1197 	 -74.2992
| 37> H 	 -77.8134 	 -44.3715 	 -73.5221
| 38> H 	 -77.7987 	 -43.1464 	 -74.8535
| 39> H 	 -85.7977 	 -41.0729 	 -72.7022
| 40> H 	 -78.3549 	 -37.3304 	 -71.4565
| 41> *
| 42>
| 43>                          ****END OF INPUT****

CARTESIAN COORDINATES (ANGSTROEM)
---------------------------------
  S    -83.535500  -40.516800  -71.740800
  C    -84.754700  -40.852500  -72.901500
  C    -84.314100  -40.453900  -74.180200
  C    -82.944800  -40.082400  -74.248700
  C    -82.411400  -39.964600  -73.001500
  H    -82.488100  -39.842000  -75.173300
  C    -85.175500  -40.385600  -75.482300
  H    -85.143400  -39.387400  -75.932500
  H    -86.273600  -40.455400  -75.228900
  C    -84.896900  -41.489400  -76.489200
  H    -85.249300  -41.177300  -77.537600
  H    -83.819300  -41.625400  -76.615600
  C    -85.290400  -42.913300  -76.076400
  H    -86.222900  -43.062100  -75.466300
  H    -85.439700  -43.476900  -77.030300
  H    -84.484800  -43.359500  -75.542000
  S    -80.837500  -37.956900  -71.748600
  C    -79.056900  -38.069000  -71.825900
  C    -78.724300  -39.217700  -72.514200
  C    -79.813300  -40.044100  -72.973800
  C    -81.051700  -39.445600  -72.687200
  H    -77.649100  -39.504300  -72.614500
  C    -79.605500  -41.353000  -73.725500
  H    -79.222000  -41.156400  -74.707500
  H    -80.623400  -41.721900  -73.874700
  C    -78.776500  -42.446900  -73.006000
  H    -79.301900  -42.926400  -72.185500
  H    -77.897300  -42.004600  -72.470300
  C    -78.395100  -43.612100  -74.025000
  H    -79.314800  -44.119700  -74.299200
  H    -77.813400  -44.371500  -73.522100
  H    -77.798700  -43.146400  -74.853500
  H    -85.797700  -41.072900  -72.702200
  H    -78.354900  -37.330400  -71.456500

 Total Charge           Charge          ....    0
 Multiplicity           Mult            ....    1
 Number of Electrons    NEL             ....  134
 Basis Dimension        Dim             ....  322

ORBITAL ENERGIES
----------------

  NO   OCC          E(Eh)            E(eV)
   0   2.0000     -88.969419     -2420.9810
   1   2.0000     -88.965260     -2420.8678
   2   2.0000     -10.333440      -281.1872
   3   2.0000     -10.331576      -281.1365
   4   2.0000     -10.322060      -280.8775
   5   2.0000     -10.316540      -280.7273
   6   2.0000     -10.306359      -280.4503
   7   2.0000     -10.304302      -280.3943
   8   2.0000     -10.297767      -280.2165
   9   2.0000     -10.297692      -280.2144
  10   2.0000     -10.292786      -280.0809
  11   2.0000     -10.292227      -280.0657
  12   2.0000     -10.291920      -280.0574
  13   2.0000     -10.291001      -280.0324
  14   2.0000     -10.284569      -279.8574
  15   2.0000     -10.279497      -279.7193
  16   2.0000      -8.084122      -219.9801
  17   2.0000      -8.078994      -219.8406
  18   2.0000      -6.042672      -164.4295
  19   2.0000      -6.038573      -164.3179
  20   2.0000      -6.037658      -164.2930
  21   2.0000      -6.034885      -164.2176
  22   2.0000      -6.033588      -164.1823
  23   2.0000      -6.029692      -164.0763
  24   2.0000      -1.003140       -27.2968
  25   2.0000      -0.979483       -26.6531
  26   2.0000      -0.906098       -24.6562
  27   2.0000      -0.900375       -24.5005
  28   2.0000      -0.866378       -23.5754
  29   2.0000      -0.849807       -23.1244
  30   2.0000      -0.841299       -22.8929
  31   2.0000      -0.812658       -22.1135
  32   2.0000      -0.779975       -21.2242
  33   2.0000      -0.768713       -20.9177
  34   2.0000      -0.703107       -19.1325
  35   2.0000      -0.698645       -19.0111
  36   2.0000      -0.687849       -18.7173
  37   2.0000      -0.652539       -17.7565
  38   2.0000      -0.642511       -17.4836
  39   2.0000      -0.625302       -17.0153
  40   2.0000      -0.594287       -16.1714
  41   2.0000      -0.565062       -15.3761
  42   2.0000      -0.560867       -15.2620
  43   2.0000      -0.545090       -14.8326
  44   2.0000      -0.537356       -14.6222
  45   2.0000      -0.522002       -14.2044
  46   2.0000      -0.516361       -14.0509
  47   2.0000      -0.509869       -13.8742
  48   2.0000      -0.501452       -13.6452
  49   2.0000      -0.499126       -13.5819
  50   2.0000      -0.491657       -13.3787
  51   2.0000      -0.476179       -12.9575
  52   2.0000      -0.466739       -12.7006
  53   2.0000      -0.463746       -12.6192
  54   2.0000      -0.458852       -12.4860
  55   2.0000      -0.448231       -12.1970
  56   2.0000      -0.443115       -12.0578
  57   2.0000      -0.436544       -11.8790
  58   2.0000      -0.434920       -11.8348
  59   2.0000      -0.419435       -11.4134
  60   2.0000      -0.417590       -11.3632
  61   2.0000      -0.414151       -11.2696
  62   2.0000      -0.407166       -11.0796
  63   2.0000      -0.345307        -9.3963
  64   2.0000      -0.330084        -8.9820
  65   2.0000      -0.327407        -8.9092
  66   2.0000      -0.300500        -8.1770
  67   0.0000       0.035494         0.9658
  68   0.0000       0.061182         1.6648
  69   0.0000       0.116550         3.1715
  70   0.0000       0.123599         3.3633
  71   0.0000       0.126482         3.4418

MULLIKEN ATOMIC CHARGES
-----------------------
   0 S :    0.125420
   1 C :   -0.106432
   2 C :   -0.119353
   3 C :    0.064482
   4 C :   -0.166087
   5 H :    0.007322
   6 C :    0.047250
   7 H :    0.037437
   8 H :    0.022847
   9 C :   -0.094060
  10 H :    0.040127
  11 H :    0.022695
  12 C :   -0.066535
  13 H :    0.035543
  14 H :    0.038970
  15 H :    0.038178
  16 S :    0.098804
  17 C :   -0.102723
  18 C :   -0.040434
  19 C :   -0.032623
  20 C :   -0.169015
  21 H :    0.035075
  22 C :    0.096997
  23 H :    0.028483
  24 H :    0.024353
  25 C :   -0.108167
  26 H :    0.030523
  27 H :    0.032775
  28 C :   -0.059700
  29 H :    0.038357
  30 H :    0.033319
  31 H :    0.047579
  32 H :    0.053455
  33 H :    0.065142
Sum of atomic charges:   -0.0000000

LOEWDIN ATOMIC CHARGES
----------------------
   0 S :    0.415489
   1 C :   -0.213468
   2 C :   -0.061100
   3 C :   -0.051525
   4 C :   -0.185308
   5 H :    0.030585
   6 C :   -0.039768
   7 H :    0.032494
   8 H :    0.031361
   9 C :   -0.053635
  10 H :    0.030050
  11 H :    0.023779
  12 C :   -0.070743
  13 H :    0.025706
  14 H :    0.034489
  15 H :    0.022739
  16 S :    0.381175
  17 C :   -0.178094
  18 C :   -0.076738
  19 C :   -0.054573
  20 C :   -0.196528
  21 H :    0.036155
  22 C :   -0.032214
  23 H :    0.028557
  24 H :    0.033343
  25 C :   -0.041356
  26 H :    0.024222
  27 H :    0.022715
  28 C :   -0.064619
  29 H :    0.026619
  30 H :    0.023833
  31 H :    0.030458
  32 H :    0.031432
  33 H :    0.034467

  Mayer bond orders larger than 0.100000
B(  0-S ,  1-C ) :   1.1445 B(  0-S ,  4-C ) :   1.1562 B(  1-C ,  2-C ) :   1.6067
B(  1-C , 32-H ) :   0.9651 B(  2-C ,  3-C ) :   1.2488 B(  2-C ,  6-C ) :   1.0171
B(  3-C ,  4-C ) :   1.5674 B(  3-C ,  5-H ) :   1.0011 B(  4-C , 20-C ) :   1.0171
B(  6-C ,  7-H ) :   0.9477 B(  6-C ,  8-H ) :   0.9457 B(  6-C ,  9-C ) :   1.0672
B(  9-C , 10-H ) :   0.9601 B(  9-C , 11-H ) :   0.9597 B(  9-C , 12-C ) :   1.0539
B( 12-C , 13-H ) :   0.9789 B( 12-C , 14-H ) :   0.9739 B( 12-C , 15-H ) :   0.9803
B( 16-S , 17-C ) :   1.1361 B( 16-S , 20-C ) :   1.1423 B( 17-C , 18-C ) :   1.6242
B( 17-C , 33-H ) :   0.9690 B( 18-C , 19-C ) :   1.2344 B( 18-C , 21-H ) :   0.9769
B( 19-C , 20-C ) :   1.5965 B( 19-C , 22-C ) :   1.0403 B( 22-C , 23-H ) :   0.9412
B( 22-C , 24-H ) :   0.9236 B( 22-C , 25-C ) :   1.0474 B( 25-C , 26-H ) :   0.9554
B( 25-C , 27-H ) :   0.9651 B( 25-C , 28-C ) :   1.0726 B( 28-C , 29-H ) :   0.9762
B( 28-C , 30-H ) :   0.9761 B( 28-C , 31-H ) :   0.9785

Dispersion correction           -0.014067634
FINAL SINGLE POINT ENERGY     -1339.882977497788

DIPOLE MOMENT
-------------
                                X             Y             Z
Electronic contribution:     -1.12178      20.60873      19.67531
Nuclear contribution   :      1.26658     -20.88145     -20.17860
                        -----------------------------------------
Total Dipole Moment    :      0.14479      -0.27272      -0.50328
                        -----------------------------------------
Magnitude (a.u.)       :      0.59046
Magnitude (Debye)      :      1.50082

Rotational constants in cm-1:     0.017044     0.008702     0.006684
Rotational constants in MHz :   510.965082   260.868134   200.382838

                             ****ORCA TERMINATED NORMALLY****
TOTAL RUN TIME: 0 days 0 hours 0 minutes 21 seconds 181 msec
