                         Program Version 4.2.1 -  RELEASE  -
|  1> ! wB97X-D3 SP def2-SVP
|  2> %pal
|  3> nprocs 24
|  4> end
|  5>
|  6> * xyz 0 1
|  7> S 	 -120.329 	 24.3512 	 -16.6245
|  8> C 	 -119.186 	 24.7564 	 -17.9007
|  9> C 	 -118.284 	 25.7011 	 -17.4806
| 10> C 	 -118.665 	 26.2556 	 -16.1872
| 11> C 	 -119.766 	 25.6646 	 -15.5679
| 12> H 	 -118.042 	 26.922 	 -15.6339
| 13> C 	 -117.056 	 26.1097 	 -18.2923
| 14> H 	 -117.256 	 26.008 	 -19.3801
| 15> H 	 -116.229 	 25.3977 	 -18.0949
| 16> C 	 -116.383 	 27.5174 	 -17.9859
| 17> H 	 -117.161 	 28.2886 	 -18.0327
| 18> H 	 -115.954 	 27.5646 	 -16.9924
| 19> C 	 -115.247 	 28.0056 	 -18.9242
| 20> H 	 -114.272 	 27.6839 	 -18.6779
| 21> H 	 -115.459 	 27.8082 	 -19.924
| 22> H 	 -115.286 	 29.0547 	 -18.7356
| 23> S 	 -119.613 	 24.7141 	 -13.0385
| 24> C 	 -120.148 	 25.6124 	 -11.7028
| 25> C 	 -120.703 	 26.8168 	 -12.137
| 26> C 	 -120.79 	 26.9211 	 -13.5592
| 27> C 	 -120.198 	 25.863 	 -14.1811
| 28> H 	 -121.019 	 27.5523 	 -11.4552
| 29> C 	 -121.433 	 28.0638 	 -14.3007
| 30> H 	 -120.698 	 28.4075 	 -15.0535
| 31> H 	 -121.658 	 28.9205 	 -13.7329
| 32> C 	 -122.791 	 27.6955 	 -14.9413
| 33> H 	 -122.77 	 26.8805 	 -15.7257
| 34> H 	 -123.139 	 28.5454 	 -15.5401
| 35> C 	 -123.926 	 27.282 	 -13.9327
| 36> H 	 -124.087 	 28.0242 	 -13.1446
| 37> H 	 -123.657 	 26.3602 	 -13.459
| 38> H 	 -124.857 	 27.2599 	 -14.5326
| 39> H 	 -118.995 	 24.4177 	 -18.8829
| 40> H 	 -119.885 	 25.401 	 -10.7274
| 41> *
| 42>
| 43>                          ****END OF INPUT****

CARTESIAN COORDINATES (ANGSTROEM)
---------------------------------
  S    -120.329000   24.351200  -16.624500
  C    -119.186000   24.756400  -17.900700
  C    -118.284000   25.701100  -17.480600
  C    -118.665000   26.255600  -16.187200
  C    -119.766000   25.664600  -15.567900
  H    -118.042000   26.922000  -15.633900
  C    -117.056000   26.109700  -18.292300
  H    -117.256000   26.008000  -19.380100
  H    -116.229000   25.397700  -18.094900
  C    -116.383000   27.517400  -17.985900
  H    -117.161000   28.288600  -18.032700
  H    -115.954000   27.564600  -16.992400
  C    -115.247000   28.005600  -18.924200
  H    -114.272000   27.683900  -18.677900
  H    -115.459000   27.808200  -19.924000
  H    -115.286000   29.054700  -18.735600
  S    -119.613000   24.714100  -13.038500
  C    -120.148000   25.612400  -11.702800
  C    -120.703000   26.816800  -12.137000
  C    -120.790000   26.921100  -13.559200
  C    -120.198000   25.863000  -14.181100
  H    -121.019000   27.552300  -11.455200
  C    -121.433000   28.063800  -14.300700
  H    -120.698000   28.407500  -15.053500
  H    -121.658000   28.920500  -13.732900
  C    -122.791000   27.695500  -14.941300
  H    -122.770000   26.880500  -15.725700
  H    -123.139000   28.545400  -15.540100
  C    -123.926000   27.282000  -13.932700
  H    -124.087000   28.024200  -13.144600
  H    -123.657000   26.360200  -13.459000
  H    -124.857000   27.259900  -14.532600
  H    -118.995000   24.417700  -18.882900
  H    -119.885000   25.401000  -10.727400

 Total Charge           Charge          ....    0
 Multiplicity           Mult            ....    1
 Number of Electrons    NEL             ....  134
 Basis Dimension        Dim             ....  322

ORBITAL ENERGIES
----------------

  NO   OCC          E(Eh)            E(eV)
   0   2.0000     -88.967819     -2420.9374
   1   2.0000     -88.963827     -2420.8288
   2   2.0000     -10.333676      -281.1936
   3   2.0000     -10.321139      -280.8525
   4   2.0000     -10.310738      -280.5695
   5   2.0000     -10.310656      -280.5672
   6   2.0000     -10.302626      -280.3487
   7   2.0000     -10.302449      -280.3439
   8   2.0000     -10.300515      -280.2913
   9   2.0000     -10.295965      -280.1674
  10   2.0000     -10.292349      -280.0691
  11   2.0000     -10.291098      -280.0350
  12   2.0000     -10.287834      -279.9462
  13   2.0000     -10.287283      -279.9312
  14   2.0000     -10.274546      -279.5846
  15   2.0000     -10.271077      -279.4902
  16   2.0000      -8.081440      -219.9072
  17   2.0000      -8.080195      -219.8733
  18   2.0000      -6.040185      -164.3618
  19   2.0000      -6.038523      -164.3166
  20   2.0000      -6.036036      -164.2489
  21   2.0000      -6.034297      -164.2016
  22   2.0000      -6.032052      -164.1405
  23   2.0000      -6.031207      -164.1175
  24   2.0000      -1.011762       -27.5314
  25   2.0000      -0.983542       -26.7635
  26   2.0000      -0.905578       -24.6420
  27   2.0000      -0.902868       -24.5683
  28   2.0000      -0.872463       -23.7409
  29   2.0000      -0.846624       -23.0378
  30   2.0000      -0.843863       -22.9627
  31   2.0000      -0.815895       -22.2016
  32   2.0000      -0.783984       -21.3333
  33   2.0000      -0.776656       -21.1339
  34   2.0000      -0.713133       -19.4053
  35   2.0000      -0.694375       -18.8949
  36   2.0000      -0.688072       -18.7234
  37   2.0000      -0.670679       -18.2501
  38   2.0000      -0.637088       -17.3361
  39   2.0000      -0.616216       -16.7681
  40   2.0000      -0.596753       -16.2385
  41   2.0000      -0.572585       -15.5808
  42   2.0000      -0.566341       -15.4109
  43   2.0000      -0.548405       -14.9229
  44   2.0000      -0.546259       -14.8645
  45   2.0000      -0.526416       -14.3245
  46   2.0000      -0.515832       -14.0365
  47   2.0000      -0.508755       -13.8439
  48   2.0000      -0.502836       -13.6829
  49   2.0000      -0.498589       -13.5673
  50   2.0000      -0.489700       -13.3254
  51   2.0000      -0.484981       -13.1970
  52   2.0000      -0.474565       -12.9136
  53   2.0000      -0.471329       -12.8255
  54   2.0000      -0.456247       -12.4151
  55   2.0000      -0.449854       -12.2411
  56   2.0000      -0.437712       -11.9107
  57   2.0000      -0.433446       -11.7947
  58   2.0000      -0.431126       -11.7315
  59   2.0000      -0.422284       -11.4909
  60   2.0000      -0.418075       -11.3764
  61   2.0000      -0.417358       -11.3569
  62   2.0000      -0.412489       -11.2244
  63   2.0000      -0.338262        -9.2046
  64   2.0000      -0.330310        -8.9882
  65   2.0000      -0.324188        -8.8216
  66   2.0000      -0.304601        -8.2886
  67   0.0000       0.042327         1.1518
  68   0.0000       0.054330         1.4784
  69   0.0000       0.119167         3.2427
  70   0.0000       0.127412         3.4670
  71   0.0000       0.132633         3.6091

MULLIKEN ATOMIC CHARGES
-----------------------
   0 S :    0.114495
   1 C :   -0.079292
   2 C :   -0.104999
   3 C :    0.063788
   4 C :   -0.166988
   5 H :    0.003335
   6 C :    0.039747
   7 H :    0.030437
   8 H :    0.047383
   9 C :   -0.133747
  10 H :    0.032443
  11 H :    0.035363
  12 C :    0.010898
  13 H :    0.026498
  14 H :    0.017881
  15 H :    0.024399
  16 S :    0.125554
  17 C :   -0.057068
  18 C :   -0.037829
  19 C :   -0.035597
  20 C :   -0.173932
  21 H :   -0.000463
  22 C :    0.124076
  23 H :    0.034834
  24 H :    0.002088
  25 C :   -0.115230
  26 H :    0.037724
  27 H :    0.025150
  28 C :   -0.055650
  29 H :    0.021573
  30 H :    0.047478
  31 H :    0.041506
  32 H :    0.020435
  33 H :    0.033709
Sum of atomic charges:   -0.0000000

LOEWDIN ATOMIC CHARGES
----------------------
   0 S :    0.394394
   1 C :   -0.192463
   2 C :   -0.063976
   3 C :   -0.055250
   4 C :   -0.192134
   5 H :    0.024602
   6 C :   -0.040286
   7 H :    0.031780
   8 H :    0.038024
   9 C :   -0.040623
  10 H :    0.021691
  11 H :    0.023239
  12 C :   -0.050232
  13 H :    0.019072
  14 H :    0.015673
  15 H :    0.030477
  16 S :    0.449825
  17 C :   -0.189350
  18 C :   -0.066346
  19 C :   -0.053739
  20 C :   -0.214932
  21 H :    0.022209
  22 C :   -0.030545
  23 H :    0.038921
  24 H :    0.022780
  25 C :   -0.042437
  26 H :    0.026718
  27 H :    0.021292
  28 C :   -0.064979
  29 H :    0.019522
  30 H :    0.023658
  31 H :    0.032410
  32 H :    0.025980
  33 H :    0.015026

  Mayer bond orders larger than 0.100000
B(  0-S ,  1-C ) :   1.1272 B(  0-S ,  4-C ) :   1.1311 B(  1-C ,  2-C ) :   1.6438
B(  1-C , 32-H ) :   0.9666 B(  2-C ,  3-C ) :   1.2373 B(  2-C ,  6-C ) :   1.0198
B(  3-C ,  4-C ) :   1.5928 B(  3-C ,  5-H ) :   0.9916 B(  4-C , 20-C ) :   1.0050
B(  6-C ,  7-H ) :   0.9451 B(  6-C ,  8-H ) :   0.9360 B(  6-C ,  9-C ) :   1.0643
B(  9-C , 10-H ) :   0.9682 B(  9-C , 11-H ) :   0.9512 B(  9-C , 12-C ) :   1.0776
B( 12-C , 13-H ) :   0.9778 B( 12-C , 14-H ) :   0.9764 B( 12-C , 15-H ) :   0.9742
B( 16-S , 17-C ) :   1.1865 B( 16-S , 20-C ) :   1.1692 B( 17-C , 18-C ) :   1.5624
B( 17-C , 33-H ) :   0.9787 B( 18-C , 19-C ) :   1.2628 B( 18-C , 21-H ) :   1.0028
B( 19-C , 20-C ) :   1.5850 B( 19-C , 22-C ) :   1.0522 B( 22-C , 23-H ) :   0.9236
B( 22-C , 24-H ) :   0.9326 B( 22-C , 25-C ) :   1.0702 B( 25-C , 26-H ) :   0.9583
B( 25-C , 27-H ) :   0.9586 B( 25-C , 28-C ) :   1.0647 B( 28-C , 29-H ) :   0.9767
B( 28-C , 30-H ) :   0.9773 B( 28-C , 31-H ) :   0.9749

Dispersion correction           -0.014350622
FINAL SINGLE POINT ENERGY     -1339.872356179890

DIPOLE MOMENT
-------------
                                X             Y             Z
Electronic contribution:     -3.37764     -18.73267      10.37520
Nuclear contribution   :      3.83040      19.31861     -10.43872
                        -----------------------------------------
Total Dipole Moment    :      0.45276       0.58594      -0.06352
                        -----------------------------------------
Magnitude (a.u.)       :      0.74321
Magnitude (Debye)      :      1.88908

Rotational constants in cm-1:     0.019987     0.007344     0.007168
Rotational constants in MHz :   599.201281   220.166530   214.887339

                             ****ORCA TERMINATED NORMALLY****
TOTAL RUN TIME: 0 days 0 hours 0 minutes 21 seconds 156 msec
