                         Program Version 4.2.1 -  RELEASE  -
|  1> ! wB97X-D3 SP def2-SVP
|  2> %pal
|  3> nprocs 24
|  4> end
|  5>
|  6> * xyz 0 1
|  7> S 	 16.479 	 -4.99684 	 -111.243
|  8> C 	 16.8328 	 -4.97352 	 -109.577
|  9> C 	 17.2111 	 -6.29977 	 -109.183
| 10> C 	 16.9969 	 -7.28968 	 -110.247
| 11> C 	 16.5402 	 -6.75407 	 -111.408
| 12> H 	 17.0319 	 -8.32289 	 -110.037
| 13> C 	 17.6722 	 -6.70561 	 -107.771
| 14> H 	 17.5764 	 -7.7652 	 -107.543
| 15> H 	 17.0459 	 -6.06681 	 -107.068
| 16> C 	 19.0809 	 -6.20328 	 -107.486
| 17> H 	 18.9005 	 -5.05154 	 -107.56
| 18> H 	 19.4365 	 -6.54831 	 -106.443
| 19> C 	 20.0723 	 -6.76986 	 -108.487
| 20> H 	 19.9341 	 -7.87673 	 -108.76
| 21> H 	 19.8668 	 -6.29978 	 -109.458
| 22> H 	 21.0538 	 -6.71875 	 -108.204
| 23> S 	 18.0056 	 -7.94088 	 -113.42
| 24> C 	 17.1848 	 -8.39791 	 -114.835
| 25> C 	 15.8014 	 -8.30212 	 -114.709
| 26> C 	 15.3967 	 -7.63389 	 -113.513
| 27> C 	 16.4645 	 -7.45547 	 -112.668
| 28> H 	 15.0336 	 -8.69556 	 -115.431
| 29> C 	 13.9508 	 -7.27008 	 -113.312
| 30> H 	 13.425 	 -7.4814 	 -114.256
| 31> H 	 13.6811 	 -6.26563 	 -112.974
| 32> C 	 13.3361 	 -8.23662 	 -112.335
| 33> H 	 13.6213 	 -7.97327 	 -111.315
| 34> H 	 13.7317 	 -9.23589 	 -112.532
| 35> C 	 11.8007 	 -8.2201 	 -112.401
| 36> H 	 11.3725 	 -8.78816 	 -111.559
| 37> H 	 11.3498 	 -8.59759 	 -113.326
| 38> H 	 11.4026 	 -7.19332 	 -112.234
| 39> H 	 16.9574 	 -4.18554 	 -108.823
| 40> H 	 17.6633 	 -9.09039 	 -115.594
| 41> *
| 42>
| 43>                          ****END OF INPUT****

CARTESIAN COORDINATES (ANGSTROEM)
---------------------------------
  S     16.479000   -4.996840  -111.243000
  C     16.832800   -4.973520  -109.577000
  C     17.211100   -6.299770  -109.183000
  C     16.996900   -7.289680  -110.247000
  C     16.540200   -6.754070  -111.408000
  H     17.031900   -8.322890  -110.037000
  C     17.672200   -6.705610  -107.771000
  H     17.576400   -7.765200  -107.543000
  H     17.045900   -6.066810  -107.068000
  C     19.080900   -6.203280  -107.486000
  H     18.900500   -5.051540  -107.560000
  H     19.436500   -6.548310  -106.443000
  C     20.072300   -6.769860  -108.487000
  H     19.934100   -7.876730  -108.760000
  H     19.866800   -6.299780  -109.458000
  H     21.053800   -6.718750  -108.204000
  S     18.005600   -7.940880  -113.420000
  C     17.184800   -8.397910  -114.835000
  C     15.801400   -8.302120  -114.709000
  C     15.396700   -7.633890  -113.513000
  C     16.464500   -7.455470  -112.668000
  H     15.033600   -8.695560  -115.431000
  C     13.950800   -7.270080  -113.312000
  H     13.425000   -7.481400  -114.256000
  H     13.681100   -6.265630  -112.974000
  C     13.336100   -8.236620  -112.335000
  H     13.621300   -7.973270  -111.315000
  H     13.731700   -9.235890  -112.532000
  C     11.800700   -8.220100  -112.401000
  H     11.372500   -8.788160  -111.559000
  H     11.349800   -8.597590  -113.326000
  H     11.402600   -7.193320  -112.234000
  H     16.957400   -4.185540  -108.823000
  H     17.663300   -9.090390  -115.594000

 Total Charge           Charge          ....    0
 Multiplicity           Mult            ....    1
 Number of Electrons    NEL             ....  134
 Basis Dimension        Dim             ....  322

ORBITAL ENERGIES
----------------

  NO   OCC          E(Eh)            E(eV)
   0   2.0000     -88.968137     -2420.9461
   1   2.0000     -88.968093     -2420.9449
   2   2.0000     -10.325626      -280.9746
   3   2.0000     -10.324167      -280.9349
   4   2.0000     -10.321074      -280.8507
   5   2.0000     -10.319872      -280.8180
   6   2.0000     -10.307188      -280.4728
   7   2.0000     -10.303271      -280.3663
   8   2.0000     -10.298957      -280.2489
   9   2.0000     -10.298454      -280.2352
  10   2.0000     -10.295563      -280.1565
  11   2.0000     -10.291624      -280.0493
  12   2.0000     -10.290413      -280.0164
  13   2.0000     -10.281643      -279.7777
  14   2.0000     -10.279925      -279.7310
  15   2.0000     -10.270628      -279.4780
  16   2.0000      -8.083252      -219.9565
  17   2.0000      -8.082809      -219.9444
  18   2.0000      -6.041682      -164.4025
  19   2.0000      -6.041395      -164.3947
  20   2.0000      -6.037733      -164.2951
  21   2.0000      -6.037161      -164.2795
  22   2.0000      -6.034024      -164.1941
  23   2.0000      -6.033618      -164.1831
  24   2.0000      -1.009268       -27.4636
  25   2.0000      -0.986109       -26.8334
  26   2.0000      -0.917651       -24.9706
  27   2.0000      -0.911927       -24.8148
  28   2.0000      -0.871011       -23.7014
  29   2.0000      -0.852735       -23.2041
  30   2.0000      -0.839907       -22.8550
  31   2.0000      -0.809235       -22.0204
  32   2.0000      -0.783441       -21.3185
  33   2.0000      -0.769303       -20.9338
  34   2.0000      -0.703382       -19.1400
  35   2.0000      -0.691078       -18.8052
  36   2.0000      -0.685660       -18.6578
  37   2.0000      -0.660902       -17.9840
  38   2.0000      -0.639436       -17.3999
  39   2.0000      -0.614132       -16.7114
  40   2.0000      -0.599326       -16.3085
  41   2.0000      -0.576006       -15.6739
  42   2.0000      -0.566662       -15.4197
  43   2.0000      -0.552007       -15.0209
  44   2.0000      -0.545831       -14.8528
  45   2.0000      -0.518885       -14.1196
  46   2.0000      -0.511761       -13.9257
  47   2.0000      -0.506707       -13.7882
  48   2.0000      -0.501948       -13.6587
  49   2.0000      -0.495859       -13.4930
  50   2.0000      -0.489556       -13.3215
  51   2.0000      -0.477925       -13.0050
  52   2.0000      -0.471367       -12.8266
  53   2.0000      -0.466075       -12.6826
  54   2.0000      -0.458961       -12.4890
  55   2.0000      -0.450776       -12.2662
  56   2.0000      -0.443403       -12.0656
  57   2.0000      -0.431113       -11.7312
  58   2.0000      -0.427039       -11.6203
  59   2.0000      -0.423582       -11.5263
  60   2.0000      -0.420660       -11.4467
  61   2.0000      -0.416238       -11.3264
  62   2.0000      -0.405614       -11.0373
  63   2.0000      -0.338811        -9.2195
  64   2.0000      -0.332267        -9.0414
  65   2.0000      -0.323896        -8.8137
  66   2.0000      -0.302443        -8.2299
  67   0.0000       0.033582         0.9138
  68   0.0000       0.056685         1.5425
  69   0.0000       0.103765         2.8236
  70   0.0000       0.117856         3.2070
  71   0.0000       0.126666         3.4468

MULLIKEN ATOMIC CHARGES
-----------------------
   0 S :    0.129758
   1 C :   -0.100801
   2 C :   -0.160346
   3 C :    0.033252
   4 C :   -0.131770
   5 H :    0.004056
   6 C :    0.051899
   7 H :    0.029964
   8 H :    0.037562
   9 C :   -0.117341
  10 H :    0.040163
  11 H :    0.044010
  12 C :   -0.039706
  13 H :    0.026749
  14 H :    0.046029
  15 H :    0.021136
  16 S :    0.132068
  17 C :   -0.102701
  18 C :   -0.058116
  19 C :   -0.033708
  20 C :   -0.188158
  21 H :    0.039445
  22 C :    0.098686
  23 H :    0.010544
  24 H :    0.034560
  25 C :   -0.090235
  26 H :    0.036919
  27 H :    0.029057
  28 C :   -0.058941
  29 H :    0.034059
  30 H :    0.035372
  31 H :    0.026385
  32 H :    0.057002
  33 H :    0.083145
Sum of atomic charges:   -0.0000000

LOEWDIN ATOMIC CHARGES
----------------------
   0 S :    0.426431
   1 C :   -0.226272
   2 C :   -0.060602
   3 C :   -0.060096
   4 C :   -0.200844
   5 H :    0.025951
   6 C :   -0.039519
   7 H :    0.025471
   8 H :    0.037368
   9 C :   -0.050820
  10 H :    0.031693
  11 H :    0.029832
  12 C :   -0.072664
  13 H :    0.033089
  14 H :    0.031559
  15 H :    0.010392
  16 S :    0.424791
  17 C :   -0.212013
  18 C :   -0.078531
  19 C :   -0.046137
  20 C :   -0.199185
  21 H :    0.039041
  22 C :   -0.029619
  23 H :    0.030541
  24 H :    0.033178
  25 C :   -0.038713
  26 H :    0.026120
  27 H :    0.022971
  28 C :   -0.072071
  29 H :    0.028509
  30 H :    0.022579
  31 H :    0.027006
  32 H :    0.037750
  33 H :    0.042814

  Mayer bond orders larger than 0.100000
B(  0-S ,  1-C ) :   1.1558 B(  0-S ,  4-C ) :   1.1403 B(  1-C ,  2-C ) :   1.5782
B(  1-C , 32-H ) :   0.9620 B(  2-C ,  3-C ) :   1.2489 B(  2-C ,  6-C ) :   1.0171
B(  3-C ,  4-C ) :   1.5513 B(  3-C ,  5-H ) :   1.0080 B(  4-C , 20-C ) :   1.0566
B(  6-C ,  7-H ) :   0.9504 B(  6-C ,  8-H ) :   0.9487 B(  6-C ,  9-C ) :   1.0563
B(  9-C , 10-H ) :   0.9576 B(  9-C , 11-H ) :   0.9575 B(  9-C , 12-C ) :   1.0660
B( 12-C , 13-H ) :   0.9723 B( 12-C , 14-H ) :   0.9660 B( 12-C , 15-H ) :   0.9772
B( 16-S , 17-C ) :   1.1784 B( 16-S , 20-C ) :   1.1330 B( 17-C , 18-C ) :   1.5968
B( 17-C , 33-H ) :   0.9510 B( 18-C , 19-C ) :   1.2635 B( 18-C , 21-H ) :   0.9728
B( 19-C , 20-C ) :   1.5846 B( 19-C , 22-C ) :   1.0516 B( 22-C , 23-H ) :   0.9336
B( 22-C , 24-H ) :   0.9289 B( 22-C , 25-C ) :   1.0613 B( 25-C , 26-H ) :   0.9524
B( 25-C , 27-H ) :   0.9556 B( 25-C , 28-C ) :   1.0888 B( 28-C , 29-H ) :   0.9736
B( 28-C , 30-H ) :   0.9757 B( 28-C , 31-H ) :   0.9695

Dispersion correction           -0.014849077
FINAL SINGLE POINT ENERGY     -1339.865476456143

DIPOLE MOMENT
-------------
                                X             Y             Z
Electronic contribution:      7.77216       5.29884     -13.02275
Nuclear contribution   :     -7.98584      -5.65092      13.23897
                        -----------------------------------------
Total Dipole Moment    :     -0.21368      -0.35207       0.21623
                        -----------------------------------------
Magnitude (a.u.)       :      0.46516
Magnitude (Debye)      :      1.18233

Rotational constants in cm-1:     0.020321     0.008547     0.007020
Rotational constants in MHz :   609.211500   256.220267   210.463307

                             ****ORCA TERMINATED NORMALLY****
TOTAL RUN TIME: 0 days 0 hours 0 minutes 21 seconds 803 msec
