                         Program Version 4.2.1 -  RELEASE  -
|  1> ! wB97X-D3 SP def2-SVP
|  2> %pal
|  3> nprocs 24
|  4> end
|  5>
|  6> * xyz 0 1
|  7> S 	 -99.902 	 -3.18284 	 -105.224
|  8> C 	 -99.618 	 -3.71429 	 -106.871
|  9> C 	 -100.76 	 -3.82101 	 -107.577
| 10> C 	 -101.885 	 -3.39318 	 -106.813
| 11> C 	 -101.671 	 -3.12856 	 -105.441
| 12> H 	 -102.873 	 -3.2489 	 -107.19
| 13> C 	 -100.97 	 -4.28028 	 -108.983
| 14> H 	 -101.985 	 -4.48177 	 -109.246
| 15> H 	 -100.448 	 -5.18341 	 -109.126
| 16> C 	 -100.326 	 -3.28619 	 -109.911
| 17> H 	 -100.826 	 -2.36451 	 -109.7
| 18> H 	 -99.3178 	 -3.06031 	 -109.542
| 19> C 	 -100.448 	 -3.59924 	 -111.393
| 20> H 	 -99.7598 	 -2.94186 	 -111.921
| 21> H 	 -100.141 	 -4.61104 	 -111.462
| 22> H 	 -101.485 	 -3.46954 	 -111.798
| 23> S 	 -102.287 	 -1.34269 	 -103.497
| 24> C 	 -103.858 	 -1.36703 	 -102.814
| 25> C 	 -104.576 	 -2.39902 	 -103.325
| 26> C 	 -103.929 	 -3.09268 	 -104.338
| 27> C 	 -102.648 	 -2.7221 	 -104.486
| 28> H 	 -105.631 	 -2.5631 	 -103.011
| 29> C 	 -104.737 	 -4.25649 	 -104.976
| 30> H 	 -104.275 	 -4.37952 	 -105.983
| 31> H 	 -105.866 	 -4.08133 	 -104.987
| 32> C 	 -104.459 	 -5.5989 	 -104.403
| 33> H 	 -104.867 	 -5.55735 	 -103.393
| 34> H 	 -103.396 	 -5.71459 	 -104.205
| 35> C 	 -105.103 	 -6.77434 	 -105.187
| 36> H 	 -104.827 	 -7.00866 	 -106.246
| 37> H 	 -106.107 	 -6.51154 	 -105.274
| 38> H 	 -105.042 	 -7.62759 	 -104.55
| 39> H 	 -98.71 	 -4.10635 	 -107.214
| 40> H 	 -104.275 	 -0.501589 	 -102.291
| 41> *
| 42>
| 43>                          ****END OF INPUT****

CARTESIAN COORDINATES (ANGSTROEM)
---------------------------------
  S    -99.902000   -3.182840  -105.224000
  C    -99.618000   -3.714290  -106.871000
  C    -100.760000   -3.821010  -107.577000
  C    -101.885000   -3.393180  -106.813000
  C    -101.671000   -3.128560  -105.441000
  H    -102.873000   -3.248900  -107.190000
  C    -100.970000   -4.280280  -108.983000
  H    -101.985000   -4.481770  -109.246000
  H    -100.448000   -5.183410  -109.126000
  C    -100.326000   -3.286190  -109.911000
  H    -100.826000   -2.364510  -109.700000
  H    -99.317800   -3.060310  -109.542000
  C    -100.448000   -3.599240  -111.393000
  H    -99.759800   -2.941860  -111.921000
  H    -100.141000   -4.611040  -111.462000
  H    -101.485000   -3.469540  -111.798000
  S    -102.287000   -1.342690  -103.497000
  C    -103.858000   -1.367030  -102.814000
  C    -104.576000   -2.399020  -103.325000
  C    -103.929000   -3.092680  -104.338000
  C    -102.648000   -2.722100  -104.486000
  H    -105.631000   -2.563100  -103.011000
  C    -104.737000   -4.256490  -104.976000
  H    -104.275000   -4.379520  -105.983000
  H    -105.866000   -4.081330  -104.987000
  C    -104.459000   -5.598900  -104.403000
  H    -104.867000   -5.557350  -103.393000
  H    -103.396000   -5.714590  -104.205000
  C    -105.103000   -6.774340  -105.187000
  H    -104.827000   -7.008660  -106.246000
  H    -106.107000   -6.511540  -105.274000
  H    -105.042000   -7.627590  -104.550000
  H    -98.710000   -4.106350  -107.214000
  H    -104.275000   -0.501589  -102.291000

 Total Charge           Charge          ....    0
 Multiplicity           Mult            ....    1
 Number of Electrons    NEL             ....  134
 Basis Dimension        Dim             ....  322

ORBITAL ENERGIES
----------------

  NO   OCC          E(Eh)            E(eV)
   0   2.0000     -88.965641     -2420.8782
   1   2.0000     -88.964676     -2420.8519
   2   2.0000     -10.332354      -281.1577
   3   2.0000     -10.322804      -280.8978
   4   2.0000     -10.313278      -280.6386
   5   2.0000     -10.307480      -280.4808
   6   2.0000     -10.297512      -280.2096
   7   2.0000     -10.296406      -280.1795
   8   2.0000     -10.295522      -280.1554
   9   2.0000     -10.290298      -280.0133
  10   2.0000     -10.289357      -279.9876
  11   2.0000     -10.282069      -279.7893
  12   2.0000     -10.280540      -279.7477
  13   2.0000     -10.278029      -279.6794
  14   2.0000     -10.277548      -279.6663
  15   2.0000     -10.274754      -279.5903
  16   2.0000      -8.080861      -219.8914
  17   2.0000      -8.079602      -219.8572
  18   2.0000      -6.039201      -164.3350
  19   2.0000      -6.038283      -164.3100
  20   2.0000      -6.035210      -164.2264
  21   2.0000      -6.034201      -164.1990
  22   2.0000      -6.031640      -164.1293
  23   2.0000      -6.030243      -164.0913
  24   2.0000      -1.018895       -27.7255
  25   2.0000      -0.990049       -26.9406
  26   2.0000      -0.922260       -25.0960
  27   2.0000      -0.914166       -24.8757
  28   2.0000      -0.877793       -23.8860
  29   2.0000      -0.856030       -23.2938
  30   2.0000      -0.846181       -23.0257
  31   2.0000      -0.813248       -22.1296
  32   2.0000      -0.785878       -21.3848
  33   2.0000      -0.779477       -21.2107
  34   2.0000      -0.712698       -19.3935
  35   2.0000      -0.701177       -19.0800
  36   2.0000      -0.691777       -18.8242
  37   2.0000      -0.670619       -18.2485
  38   2.0000      -0.642479       -17.4828
  39   2.0000      -0.621718       -16.9178
  40   2.0000      -0.601610       -16.3706
  41   2.0000      -0.576904       -15.6984
  42   2.0000      -0.567967       -15.4552
  43   2.0000      -0.561278       -15.2732
  44   2.0000      -0.529861       -14.4183
  45   2.0000      -0.526612       -14.3299
  46   2.0000      -0.522155       -14.2086
  47   2.0000      -0.514358       -13.9964
  48   2.0000      -0.505763       -13.7625
  49   2.0000      -0.500208       -13.6113
  50   2.0000      -0.499119       -13.5817
  51   2.0000      -0.486189       -13.2299
  52   2.0000      -0.480019       -13.0620
  53   2.0000      -0.471494       -12.8300
  54   2.0000      -0.456480       -12.4215
  55   2.0000      -0.447674       -12.1818
  56   2.0000      -0.443384       -12.0651
  57   2.0000      -0.441101       -12.0030
  58   2.0000      -0.434486       -11.8230
  59   2.0000      -0.421537       -11.4706
  60   2.0000      -0.416383       -11.3304
  61   2.0000      -0.411688       -11.2026
  62   2.0000      -0.407875       -11.0988
  63   2.0000      -0.358788        -9.7631
  64   2.0000      -0.336887        -9.1672
  65   2.0000      -0.327793        -8.9197
  66   2.0000      -0.286736        -7.8025
  67   0.0000       0.024953         0.6790
  68   0.0000       0.072698         1.9782
  69   0.0000       0.111549         3.0354
  70   0.0000       0.121463         3.3052
  71   0.0000       0.141604         3.8532

MULLIKEN ATOMIC CHARGES
-----------------------
   0 S :    0.099932
   1 C :   -0.105055
   2 C :   -0.088098
   3 C :    0.005232
   4 C :   -0.148328
   5 H :    0.010783
   6 C :    0.141868
   7 H :    0.010116
   8 H :    0.005961
   9 C :   -0.120702
  10 H :    0.011814
  11 H :    0.022525
  12 C :    0.006098
  13 H :    0.036765
  14 H :    0.016278
  15 H :    0.042752
  16 S :    0.110119
  17 C :   -0.094376
  18 C :   -0.048640
  19 C :   -0.041792
  20 C :   -0.136790
  21 H :    0.027760
  22 C :    0.038751
  23 H :    0.010059
  24 H :    0.042323
  25 C :   -0.063522
  26 H :    0.008903
  27 H :    0.032277
  28 C :   -0.007214
  29 H :    0.042626
  30 H :    0.003657
  31 H :    0.032213
  32 H :    0.026505
  33 H :    0.069202
Sum of atomic charges:    0.0000000

LOEWDIN ATOMIC CHARGES
----------------------
   0 S :    0.387365
   1 C :   -0.187859
   2 C :   -0.057657
   3 C :   -0.061775
   4 C :   -0.182423
   5 H :    0.022259
   6 C :   -0.022699
   7 H :    0.025889
   8 H :    0.023313
   9 C :   -0.043637
  10 H :    0.019177
  11 H :    0.024226
  12 C :   -0.060559
  13 H :    0.029950
  14 H :    0.018008
  15 H :    0.032804
  16 S :    0.429052
  17 C :   -0.196137
  18 C :   -0.077337
  19 C :   -0.059191
  20 C :   -0.203366
  21 H :    0.037221
  22 C :   -0.035719
  23 H :    0.030246
  24 H :    0.036917
  25 C :   -0.042663
  26 H :    0.020970
  27 H :    0.025445
  28 C :   -0.061254
  29 H :    0.032265
  30 H :    0.016029
  31 H :    0.026918
  32 H :    0.018499
  33 H :    0.035722

  Mayer bond orders larger than 0.100000
B(  0-S ,  1-C ) :   1.1268 B(  0-S ,  4-C ) :   1.1361 B(  1-C ,  2-C ) :   1.6220
B(  1-C , 32-H ) :   0.9665 B(  2-C ,  3-C ) :   1.2496 B(  2-C ,  6-C ) :   1.0262
B(  3-C ,  4-C ) :   1.5638 B(  3-C ,  5-H ) :   0.9860 B(  4-C , 20-C ) :   1.0708
B(  6-C ,  7-H ) :   0.9413 B(  6-C ,  8-H ) :   0.9196 B(  6-C ,  9-C ) :   1.0631
B(  9-C , 10-H ) :   0.9503 B(  9-C , 11-H ) :   0.9575 B(  9-C , 12-C ) :   1.0748
B( 12-C , 13-H ) :   0.9715 B( 12-C , 14-H ) :   0.9728 B( 12-C , 15-H ) :   0.9731
B( 16-S , 17-C ) :   1.1686 B( 16-S , 20-C ) :   1.1416 B( 17-C , 18-C ) :   1.5857
B( 17-C , 33-H ) :   0.9643 B( 18-C , 19-C ) :   1.2676 B( 18-C , 21-H ) :   0.9859
B( 19-C , 20-C ) :   1.6045 B( 19-C , 22-C ) :   1.0338 B( 22-C , 23-H ) :   0.9215
B( 22-C , 24-H ) :   0.9374 B( 22-C , 25-C ) :   1.0798 B( 25-C , 26-H ) :   0.9460
B( 25-C , 27-H ) :   0.9523 B( 25-C , 28-C ) :   1.0708 B( 28-C , 29-H ) :   0.9760
B( 28-C , 30-H ) :   0.9691 B( 28-C , 31-H ) :   0.9732

Dispersion correction           -0.013704978
FINAL SINGLE POINT ENERGY     -1339.862315564029

DIPOLE MOMENT
-------------
                                X             Y             Z
Electronic contribution:      9.82621      15.75719      21.33432
Nuclear contribution   :    -10.35319     -15.98446     -21.78652
                        -----------------------------------------
Total Dipole Moment    :     -0.52698      -0.22727      -0.45220
                        -----------------------------------------
Magnitude (a.u.)       :      0.73064
Magnitude (Debye)      :      1.85715

Rotational constants in cm-1:     0.018219     0.008272     0.006587
Rotational constants in MHz :   546.196001   247.976819   197.471600

                             ****ORCA TERMINATED NORMALLY****
TOTAL RUN TIME: 0 days 0 hours 0 minutes 21 seconds 730 msec
