                         Program Version 4.2.1 -  RELEASE  -
|  1> ! wB97X-D3 SP def2-SVP
|  2> %pal
|  3> nprocs 24
|  4> end
|  5>
|  6> * xyz 0 1
|  7> S 	 -34.4417 	 2.79522 	 11.9916
|  8> C 	 -33.4065 	 2.56266 	 13.3806
|  9> C 	 -33.6959 	 1.46457 	 14.1191
| 10> C 	 -34.8759 	 0.827128 	 13.6472
| 11> C 	 -35.4797 	 1.4639 	 12.5723
| 12> H 	 -35.2825 	 -0.146045 	 14.0703
| 13> C 	 -32.9126 	 0.935177 	 15.327
| 14> H 	 -31.859 	 1.39668 	 15.2385
| 15> H 	 -32.8519 	 -0.131033 	 15.1443
| 16> C 	 -33.353 	 1.33288 	 16.7357
| 17> H 	 -32.4463 	 1.62969 	 17.2238
| 18> H 	 -33.9076 	 2.22207 	 16.6145
| 19> C 	 -34.1135 	 0.291215 	 17.5209
| 20> H 	 -33.6561 	 -0.70395 	 17.5248
| 21> H 	 -34.1854 	 0.670357 	 18.5185
| 22> H 	 -35.1363 	 0.197579 	 17.1359
| 23> S 	 -36.9838 	 -0.373384 	 11.1631
| 24> C 	 -38.554 	 0.0740868 	 10.4761
| 25> C 	 -38.8201 	 1.36182 	 10.9277
| 26> C 	 -37.8673 	 1.89193 	 11.8346
| 27> C 	 -36.7377 	 1.10277 	 11.9411
| 28> H 	 -39.677 	 1.88324 	 10.6636
| 29> C 	 -38.157 	 3.18206 	 12.5454
| 30> H 	 -38.5571 	 3.81338 	 11.8056
| 31> H 	 -37.1761 	 3.58009 	 12.8568
| 32> C 	 -39.2202 	 3.01585 	 13.7071
| 33> H 	 -38.8166 	 2.6738 	 14.6732
| 34> H 	 -40.1575 	 2.43733 	 13.3636
| 35> C 	 -39.7787 	 4.40894 	 14.075
| 36> H 	 -40.6564 	 4.16951 	 14.6898
| 37> H 	 -40.1419 	 4.95141 	 13.1516
| 38> H 	 -39.069 	 5.09349 	 14.5524
| 39> H 	 -32.5184 	 3.14969 	 13.5773
| 40> H 	 -39.2204 	 -0.510197 	 9.86349
| 41> *
| 42>
| 43>                          ****END OF INPUT****

CARTESIAN COORDINATES (ANGSTROEM)
---------------------------------
  S    -34.441700    2.795220   11.991600
  C    -33.406500    2.562660   13.380600
  C    -33.695900    1.464570   14.119100
  C    -34.875900    0.827128   13.647200
  C    -35.479700    1.463900   12.572300
  H    -35.282500   -0.146045   14.070300
  C    -32.912600    0.935177   15.327000
  H    -31.859000    1.396680   15.238500
  H    -32.851900   -0.131033   15.144300
  C    -33.353000    1.332880   16.735700
  H    -32.446300    1.629690   17.223800
  H    -33.907600    2.222070   16.614500
  C    -34.113500    0.291215   17.520900
  H    -33.656100   -0.703950   17.524800
  H    -34.185400    0.670357   18.518500
  H    -35.136300    0.197579   17.135900
  S    -36.983800   -0.373384   11.163100
  C    -38.554000    0.074087   10.476100
  C    -38.820100    1.361820   10.927700
  C    -37.867300    1.891930   11.834600
  C    -36.737700    1.102770   11.941100
  H    -39.677000    1.883240   10.663600
  C    -38.157000    3.182060   12.545400
  H    -38.557100    3.813380   11.805600
  H    -37.176100    3.580090   12.856800
  C    -39.220200    3.015850   13.707100
  H    -38.816600    2.673800   14.673200
  H    -40.157500    2.437330   13.363600
  C    -39.778700    4.408940   14.075000
  H    -40.656400    4.169510   14.689800
  H    -40.141900    4.951410   13.151600
  H    -39.069000    5.093490   14.552400
  H    -32.518400    3.149690   13.577300
  H    -39.220400   -0.510197    9.863490

 Total Charge           Charge          ....    0
 Multiplicity           Mult            ....    1
 Number of Electrons    NEL             ....  134
 Basis Dimension        Dim             ....  322

ORBITAL ENERGIES
----------------

  NO   OCC          E(Eh)            E(eV)
   0   2.0000     -88.969621     -2420.9865
   1   2.0000     -88.963141     -2420.8101
   2   2.0000     -10.331038      -281.1218
   3   2.0000     -10.318430      -280.7788
   4   2.0000     -10.317200      -280.7453
   5   2.0000     -10.310734      -280.5693
   6   2.0000     -10.298535      -280.2374
   7   2.0000     -10.296475      -280.1813
   8   2.0000     -10.296332      -280.1774
   9   2.0000     -10.296146      -280.1724
  10   2.0000     -10.291970      -280.0587
  11   2.0000     -10.286344      -279.9057
  12   2.0000     -10.285630      -279.8862
  13   2.0000     -10.279247      -279.7125
  14   2.0000     -10.279011      -279.7061
  15   2.0000     -10.276694      -279.6431
  16   2.0000      -8.083414      -219.9609
  17   2.0000      -8.078432      -219.8253
  18   2.0000      -6.041923      -164.4091
  19   2.0000      -6.038197      -164.3077
  20   2.0000      -6.036948      -164.2737
  21   2.0000      -6.034084      -164.1958
  22   2.0000      -6.032646      -164.1567
  23   2.0000      -6.029348      -164.0669
  24   2.0000      -1.008771       -27.4501
  25   2.0000      -0.986258       -26.8375
  26   2.0000      -0.912408       -24.8279
  27   2.0000      -0.902814       -24.5668
  28   2.0000      -0.871709       -23.7204
  29   2.0000      -0.851379       -23.1672
  30   2.0000      -0.846152       -23.0250
  31   2.0000      -0.814722       -22.1697
  32   2.0000      -0.782684       -21.2979
  33   2.0000      -0.765927       -20.8419
  34   2.0000      -0.703998       -19.1568
  35   2.0000      -0.702529       -19.1168
  36   2.0000      -0.688639       -18.7388
  37   2.0000      -0.667879       -18.1739
  38   2.0000      -0.634563       -17.2673
  39   2.0000      -0.613802       -16.7024
  40   2.0000      -0.590050       -16.0561
  41   2.0000      -0.573185       -15.5972
  42   2.0000      -0.561623       -15.2825
  43   2.0000      -0.552004       -15.0208
  44   2.0000      -0.537747       -14.6328
  45   2.0000      -0.527318       -14.3491
  46   2.0000      -0.522051       -14.2057
  47   2.0000      -0.518416       -14.1068
  48   2.0000      -0.507321       -13.8049
  49   2.0000      -0.494464       -13.4551
  50   2.0000      -0.489579       -13.3221
  51   2.0000      -0.483730       -13.1630
  52   2.0000      -0.464714       -12.6455
  53   2.0000      -0.462902       -12.5962
  54   2.0000      -0.457077       -12.4377
  55   2.0000      -0.447833       -12.1862
  56   2.0000      -0.439661       -11.9638
  57   2.0000      -0.436056       -11.8657
  58   2.0000      -0.432264       -11.7625
  59   2.0000      -0.425283       -11.5725
  60   2.0000      -0.424595       -11.5538
  61   2.0000      -0.411121       -11.1872
  62   2.0000      -0.408753       -11.1227
  63   2.0000      -0.339943        -9.2503
  64   2.0000      -0.333847        -9.0844
  65   2.0000      -0.322967        -8.7884
  66   2.0000      -0.297839        -8.1046
  67   0.0000       0.036522         0.9938
  68   0.0000       0.064386         1.7520
  69   0.0000       0.107219         2.9176
  70   0.0000       0.119252         3.2450
  71   0.0000       0.134745         3.6666

MULLIKEN ATOMIC CHARGES
-----------------------
   0 S :    0.121694
   1 C :   -0.131139
   2 C :   -0.081249
   3 C :    0.007869
   4 C :   -0.172132
   5 H :    0.036273
   6 C :    0.023420
   7 H :    0.026492
   8 H :    0.031767
   9 C :   -0.016471
  10 H :    0.018858
  11 H :    0.016112
  12 C :   -0.039712
  13 H :    0.036173
  14 H :    0.030376
  15 H :    0.035470
  16 S :    0.114099
  17 C :   -0.094026
  18 C :   -0.004704
  19 C :   -0.069450
  20 C :   -0.151921
  21 H :   -0.010614
  22 C :    0.119637
  23 H :    0.006913
  24 H :    0.027116
  25 C :   -0.099695
  26 H :    0.044837
  27 H :    0.048900
  28 C :   -0.078650
  29 H :    0.037788
  30 H :    0.027741
  31 H :    0.041663
  32 H :    0.040414
  33 H :    0.056153
Sum of atomic charges:   -0.0000000

LOEWDIN ATOMIC CHARGES
----------------------
   0 S :    0.397251
   1 C :   -0.195136
   2 C :   -0.073753
   3 C :   -0.063724
   4 C :   -0.182342
   5 H :    0.041600
   6 C :   -0.031158
   7 H :    0.039159
   8 H :    0.028775
   9 C :   -0.040095
  10 H :    0.022933
  11 H :    0.023177
  12 C :   -0.062231
  13 H :    0.026318
  14 H :    0.026067
  15 H :    0.028106
  16 S :    0.428836
  17 C :   -0.183117
  18 C :   -0.061421
  19 C :   -0.061903
  20 C :   -0.231497
  21 H :    0.016779
  22 C :   -0.028372
  23 H :    0.022910
  24 H :    0.028919
  25 C :   -0.038248
  26 H :    0.029701
  27 H :    0.035474
  28 C :   -0.074656
  29 H :    0.026843
  30 H :    0.023425
  31 H :    0.023351
  32 H :    0.026428
  33 H :    0.031600

  Mayer bond orders larger than 0.100000
B(  0-S ,  1-C ) :   1.1341 B(  0-S ,  4-C ) :   1.1300 B(  1-C ,  2-C ) :   1.6406
B(  1-C , 32-H ) :   0.9589 B(  2-C ,  3-C ) :   1.2320 B(  2-C ,  6-C ) :   1.0255
B(  3-C ,  4-C ) :   1.5975 B(  3-C ,  5-H ) :   0.9819 B(  4-C , 20-C ) :   1.0325
B(  6-C ,  7-H ) :   0.9441 B(  6-C ,  8-H ) :   0.9457 B(  6-C ,  9-C ) :   1.0458
B(  9-C , 10-H ) :   0.9591 B(  9-C , 11-H ) :   0.9510 B(  9-C , 12-C ) :   1.0881
B( 12-C , 13-H ) :   0.9772 B( 12-C , 14-H ) :   0.9703 B( 12-C , 15-H ) :   0.9744
B( 16-S , 17-C ) :   1.1571 B( 16-S , 20-C ) :   1.1570 B( 17-C , 18-C ) :   1.5646
B( 17-C , 33-H ) :   0.9750 B( 18-C , 19-C ) :   1.2793 B( 18-C , 21-H ) :   0.9964
B( 19-C , 20-C ) :   1.5530 B( 19-C , 22-C ) :   1.0526 B( 22-C , 23-H ) :   0.9335
B( 22-C , 24-H ) :   0.9191 B( 22-C , 25-C ) :   1.0559 B( 25-C , 26-H ) :   0.9558
B( 25-C , 27-H ) :   0.9614 B( 25-C , 28-C ) :   1.0698 B( 28-C , 29-H ) :   0.9769
B( 28-C , 30-H ) :   0.9759 B( 28-C , 31-H ) :   0.9758

Dispersion correction           -0.013933315
FINAL SINGLE POINT ENERGY     -1339.873141449987

DIPOLE MOMENT
-------------
                                X             Y             Z
Electronic contribution:      5.11281      -6.95218     -23.43142
Nuclear contribution   :     -5.22303       7.07161      23.92869
                        -----------------------------------------
Total Dipole Moment    :     -0.11022       0.11944       0.49727
                        -----------------------------------------
Magnitude (a.u.)       :      0.52315
Magnitude (Debye)      :      1.32974

Rotational constants in cm-1:     0.017035     0.008272     0.007250
Rotational constants in MHz :   510.704883   247.976959   217.345419

                             ****ORCA TERMINATED NORMALLY****
TOTAL RUN TIME: 0 days 0 hours 0 minutes 20 seconds 130 msec
