                         Program Version 4.2.1 -  RELEASE  -
|  1> ! wB97X-D3 SP def2-SVP
|  2> %pal
|  3> nprocs 24
|  4> end
|  5>
|  6> * xyz 0 1
|  7> S 	 -141.307 	 9.54203 	 3.71155
|  8> C 	 -140.96 	 8.97428 	 2.16827
|  9> C 	 -141.257 	 7.56492 	 2.03259
| 10> C 	 -141.76 	 6.98927 	 3.2768
| 11> C 	 -141.744 	 7.92069 	 4.31652
| 12> H 	 -142.129 	 5.96474 	 3.32671
| 13> C 	 -140.976 	 6.83811 	 0.712551
| 14> H 	 -140.971 	 7.648 	 -0.0583193
| 15> H 	 -141.807 	 6.14247 	 0.402735
| 16> C 	 -139.58 	 6.119 	 0.689116
| 17> H 	 -138.747 	 6.83393 	 0.944676
| 18> H 	 -139.687 	 5.36504 	 1.49692
| 19> C 	 -139.251 	 5.21369 	 -0.482002
| 20> H 	 -140.151 	 4.68095 	 -0.792238
| 21> H 	 -138.953 	 5.92848 	 -1.24354
| 22> H 	 -138.435 	 4.47234 	 -0.321383
| 23> S 	 -143.271 	 9.17049 	 6.36733
| 24> C 	 -143.723 	 8.27865 	 7.7118
| 25> C 	 -143.038 	 7.05168 	 7.80685
| 26> C 	 -142.298 	 6.75169 	 6.65053
| 27> C 	 -142.396 	 7.75522 	 5.62589
| 28> H 	 -143.214 	 6.47514 	 8.71161
| 29> C 	 -141.354 	 5.589 	 6.61156
| 30> H 	 -140.723 	 5.65217 	 7.50508
| 31> H 	 -140.617 	 5.73244 	 5.81592
| 32> C 	 -142.01 	 4.21046 	 6.51826
| 33> H 	 -142.653 	 4.29331 	 5.63597
| 34> H 	 -142.638 	 4.13259 	 7.4594
| 35> C 	 -141.07 	 2.91358 	 6.45735
| 36> H 	 -141.638 	 2.00001 	 6.14652
| 37> H 	 -140.391 	 2.77752 	 7.30303
| 38> H 	 -140.487 	 3.11251 	 5.60796
| 39> H 	 -140.538 	 9.63647 	 1.39648
| 40> H 	 -144.265 	 8.69494 	 8.50566
| 41> *
| 42>
| 43>                          ****END OF INPUT****

CARTESIAN COORDINATES (ANGSTROEM)
---------------------------------
  S    -141.307000    9.542030    3.711550
  C    -140.960000    8.974280    2.168270
  C    -141.257000    7.564920    2.032590
  C    -141.760000    6.989270    3.276800
  C    -141.744000    7.920690    4.316520
  H    -142.129000    5.964740    3.326710
  C    -140.976000    6.838110    0.712551
  H    -140.971000    7.648000   -0.058319
  H    -141.807000    6.142470    0.402735
  C    -139.580000    6.119000    0.689116
  H    -138.747000    6.833930    0.944676
  H    -139.687000    5.365040    1.496920
  C    -139.251000    5.213690   -0.482002
  H    -140.151000    4.680950   -0.792238
  H    -138.953000    5.928480   -1.243540
  H    -138.435000    4.472340   -0.321383
  S    -143.271000    9.170490    6.367330
  C    -143.723000    8.278650    7.711800
  C    -143.038000    7.051680    7.806850
  C    -142.298000    6.751690    6.650530
  C    -142.396000    7.755220    5.625890
  H    -143.214000    6.475140    8.711610
  C    -141.354000    5.589000    6.611560
  H    -140.723000    5.652170    7.505080
  H    -140.617000    5.732440    5.815920
  C    -142.010000    4.210460    6.518260
  H    -142.653000    4.293310    5.635970
  H    -142.638000    4.132590    7.459400
  C    -141.070000    2.913580    6.457350
  H    -141.638000    2.000010    6.146520
  H    -140.391000    2.777520    7.303030
  H    -140.487000    3.112510    5.607960
  H    -140.538000    9.636470    1.396480
  H    -144.265000    8.694940    8.505660

 Total Charge           Charge          ....    0
 Multiplicity           Mult            ....    1
 Number of Electrons    NEL             ....  134
 Basis Dimension        Dim             ....  322

ORBITAL ENERGIES
----------------

  NO   OCC          E(Eh)            E(eV)
   0   2.0000     -88.971236     -2421.0304
   1   2.0000     -88.967170     -2420.9198
   2   2.0000     -10.337736      -281.3041
   3   2.0000     -10.336457      -281.2693
   4   2.0000     -10.319913      -280.8191
   5   2.0000     -10.312352      -280.6134
   6   2.0000     -10.311291      -280.5845
   7   2.0000     -10.308139      -280.4987
   8   2.0000     -10.304847      -280.4091
   9   2.0000     -10.304000      -280.3861
  10   2.0000     -10.294329      -280.1229
  11   2.0000     -10.293254      -280.0937
  12   2.0000     -10.290983      -280.0319
  13   2.0000     -10.288187      -279.9558
  14   2.0000     -10.283154      -279.8188
  15   2.0000     -10.279842      -279.7287
  16   2.0000      -8.086374      -220.0414
  17   2.0000      -8.082109      -219.9254
  18   2.0000      -6.044780      -164.4868
  19   2.0000      -6.040737      -164.3768
  20   2.0000      -6.040402      -164.3677
  21   2.0000      -6.037325      -164.2840
  22   2.0000      -6.036592      -164.2640
  23   2.0000      -6.033083      -164.1685
  24   2.0000      -1.002478       -27.2788
  25   2.0000      -0.983347       -26.7582
  26   2.0000      -0.907226       -24.6869
  27   2.0000      -0.904308       -24.6075
  28   2.0000      -0.867097       -23.5949
  29   2.0000      -0.852434       -23.1959
  30   2.0000      -0.846761       -23.0415
  31   2.0000      -0.811798       -22.0901
  32   2.0000      -0.784200       -21.3392
  33   2.0000      -0.763128       -20.7658
  34   2.0000      -0.702431       -19.1141
  35   2.0000      -0.694466       -18.8974
  36   2.0000      -0.687587       -18.7102
  37   2.0000      -0.657104       -17.8807
  38   2.0000      -0.640009       -17.4155
  39   2.0000      -0.621251       -16.9051
  40   2.0000      -0.596281       -16.2256
  41   2.0000      -0.569262       -15.4904
  42   2.0000      -0.564081       -15.3494
  43   2.0000      -0.555680       -15.1208
  44   2.0000      -0.523246       -14.2382
  45   2.0000      -0.519868       -14.1463
  46   2.0000      -0.514618       -14.0035
  47   2.0000      -0.508306       -13.8317
  48   2.0000      -0.504817       -13.7368
  49   2.0000      -0.502318       -13.6688
  50   2.0000      -0.496212       -13.5026
  51   2.0000      -0.482005       -13.1160
  52   2.0000      -0.468433       -12.7467
  53   2.0000      -0.467538       -12.7224
  54   2.0000      -0.459406       -12.5011
  55   2.0000      -0.453462       -12.3393
  56   2.0000      -0.445670       -12.1273
  57   2.0000      -0.437157       -11.8957
  58   2.0000      -0.434109       -11.8127
  59   2.0000      -0.427101       -11.6220
  60   2.0000      -0.415209       -11.2984
  61   2.0000      -0.410757       -11.1773
  62   2.0000      -0.399527       -10.8717
  63   2.0000      -0.359242        -9.7755
  64   2.0000      -0.331454        -9.0193
  65   2.0000      -0.327844        -8.9211
  66   2.0000      -0.278597        -7.5810
  67   0.0000       0.019826         0.5395
  68   0.0000       0.065582         1.7846
  69   0.0000       0.105682         2.8757
  70   0.0000       0.113030         3.0757
  71   0.0000       0.127096         3.4585

MULLIKEN ATOMIC CHARGES
-----------------------
   0 S :    0.116878
   1 C :   -0.129717
   2 C :   -0.110288
   3 C :    0.029700
   4 C :   -0.133494
   5 H :    0.027392
   6 C :    0.032839
   7 H :    0.022986
   8 H :    0.038097
   9 C :   -0.108143
  10 H :    0.044669
  11 H :    0.022350
  12 C :   -0.036525
  13 H :    0.028871
  14 H :    0.027556
  15 H :    0.049950
  16 S :    0.102639
  17 C :   -0.074848
  18 C :   -0.048765
  19 C :   -0.031114
  20 C :   -0.144557
  21 H :    0.025610
  22 C :    0.062076
  23 H :    0.027543
  24 H :    0.018506
  25 C :   -0.115925
  26 H :    0.031883
  27 H :    0.036434
  28 C :   -0.029397
  29 H :    0.046961
  30 H :    0.044792
  31 H :    0.012546
  32 H :    0.069356
  33 H :    0.043138
Sum of atomic charges:    0.0000000

LOEWDIN ATOMIC CHARGES
----------------------
   0 S :    0.428232
   1 C :   -0.224767
   2 C :   -0.061196
   3 C :   -0.057738
   4 C :   -0.188923
   5 H :    0.036568
   6 C :   -0.039837
   7 H :    0.028263
   8 H :    0.034359
   9 C :   -0.051905
  10 H :    0.030231
  11 H :    0.022343
  12 C :   -0.069757
  13 H :    0.025071
  14 H :    0.023069
  15 H :    0.033288
  16 S :    0.414820
  17 C :   -0.197416
  18 C :   -0.076192
  19 C :   -0.052043
  20 C :   -0.183348
  21 H :    0.034002
  22 C :   -0.039529
  23 H :    0.032804
  24 H :    0.026162
  25 C :   -0.041964
  26 H :    0.023158
  27 H :    0.025357
  28 C :   -0.068719
  29 H :    0.036423
  30 H :    0.028376
  31 H :    0.017042
  32 H :    0.034673
  33 H :    0.019098

  Mayer bond orders larger than 0.100000
B(  0-S ,  1-C ) :   1.1769 B(  0-S ,  4-C ) :   1.1520 B(  1-C ,  2-C ) :   1.5531
B(  1-C , 32-H ) :   0.9647 B(  2-C ,  3-C ) :   1.2786 B(  2-C ,  6-C ) :   1.0358
B(  3-C ,  4-C ) :   1.5236 B(  3-C ,  5-H ) :   0.9915 B(  4-C , 20-C ) :   1.0826
B(  6-C ,  7-H ) :   0.9427 B(  6-C ,  8-H ) :   0.9415 B(  6-C ,  9-C ) :   1.0488
B(  9-C , 10-H ) :   0.9583 B(  9-C , 11-H ) :   0.9601 B(  9-C , 12-C ) :   1.0714
B( 12-C , 13-H ) :   0.9707 B( 12-C , 14-H ) :   0.9770 B( 12-C , 15-H ) :   0.9753
B( 16-S , 17-C ) :   1.2011 B( 16-S , 20-C ) :   1.1372 B( 17-C , 18-C ) :   1.5531
B( 17-C , 20-C ) :   0.1061 B( 17-C , 33-H ) :   0.9708 B( 18-C , 19-C ) :   1.2832
B( 18-C , 21-H ) :   0.9942 B( 19-C , 20-C ) :   1.5211 B( 19-C , 22-C ) :   1.0515
B( 22-C , 23-H ) :   0.9352 B( 22-C , 24-H ) :   0.9311 B( 22-C , 25-C ) :   1.0467
B( 25-C , 26-H ) :   0.9582 B( 25-C , 27-H ) :   0.9608 B( 25-C , 28-C ) :   1.0670
B( 28-C , 29-H ) :   0.9754 B( 28-C , 30-H ) :   0.9769 B( 28-C , 31-H ) :   0.9736

Dispersion correction           -0.013481175
FINAL SINGLE POINT ENERGY     -1339.865961827122

DIPOLE MOMENT
-------------
                                X             Y             Z
Electronic contribution:    -11.37064      28.16492      11.35990
Nuclear contribution   :     11.57782     -28.61321     -11.46388
                        -----------------------------------------
Total Dipole Moment    :      0.20718      -0.44830      -0.10398
                        -----------------------------------------
Magnitude (a.u.)       :      0.50469
Magnitude (Debye)      :      1.28281

Rotational constants in cm-1:     0.016756     0.008639     0.005925
Rotational constants in MHz :   502.321961   258.994517   177.639676

                             ****ORCA TERMINATED NORMALLY****
TOTAL RUN TIME: 0 days 0 hours 0 minutes 19 seconds 785 msec
