                         Program Version 4.2.1 -  RELEASE  -
|  1> ! wB97X-D3 SP def2-SVP
|  2> %pal
|  3> nprocs 24
|  4> end
|  5>
|  6> * xyz 0 1
|  7> S 	 -62.1861 	 14.0728 	 -111.628
|  8> C 	 -61.8461 	 12.484 	 -111.074
|  9> C 	 -61.0387 	 12.5358 	 -109.932
| 10> C 	 -60.5542 	 13.8585 	 -109.581
| 11> C 	 -61.0589 	 14.8168 	 -110.495
| 12> H 	 -60.0261 	 14.175 	 -108.758
| 13> C 	 -60.8914 	 11.3698 	 -108.91
| 14> H 	 -60.2428 	 11.5818 	 -108.128
| 15> H 	 -60.3768 	 10.5697 	 -109.425
| 16> C 	 -62.1554 	 10.78 	 -108.253
| 17> H 	 -62.7762 	 11.6402 	 -107.898
| 18> H 	 -62.8012 	 10.4448 	 -109.096
| 19> C 	 -61.9413 	 9.60517 	 -107.192
| 20> H 	 -61.194 	 9.84941 	 -106.401
| 21> H 	 -62.8549 	 9.29782 	 -106.685
| 22> H 	 -61.5002 	 8.81 	 -107.687
| 23> S 	 -62.2832 	 17.3263 	 -110.518
| 24> C 	 -61.4155 	 18.7411 	 -110.78
| 25> C 	 -60.0765 	 18.4491 	 -110.947
| 26> C 	 -59.7341 	 17.0408 	 -110.898
| 27> C 	 -60.9023 	 16.25 	 -110.626
| 28> H 	 -59.3832 	 19.2711 	 -111.11
| 29> C 	 -58.317 	 16.5928 	 -111.052
| 30> H 	 -57.9774 	 16.9199 	 -112.017
| 31> H 	 -58.2713 	 15.5038 	 -111.233
| 32> C 	 -57.4257 	 16.8547 	 -109.791
| 33> H 	 -57.6506 	 16.0256 	 -109.082
| 34> H 	 -57.6081 	 17.7964 	 -109.242
| 35> C 	 -55.9657 	 16.8062 	 -110.242
| 36> H 	 -55.5782 	 17.797 	 -110.51
| 37> H 	 -55.614 	 15.9988 	 -110.898
| 38> H 	 -55.39 	 16.6625 	 -109.367
| 39> H 	 -62.4071 	 11.5913 	 -111.346
| 40> H 	 -61.8196 	 19.7765 	 -110.716
| 41> *
| 42>
| 43>                          ****END OF INPUT****

CARTESIAN COORDINATES (ANGSTROEM)
---------------------------------
  S    -62.186100   14.072800  -111.628000
  C    -61.846100   12.484000  -111.074000
  C    -61.038700   12.535800  -109.932000
  C    -60.554200   13.858500  -109.581000
  C    -61.058900   14.816800  -110.495000
  H    -60.026100   14.175000  -108.758000
  C    -60.891400   11.369800  -108.910000
  H    -60.242800   11.581800  -108.128000
  H    -60.376800   10.569700  -109.425000
  C    -62.155400   10.780000  -108.253000
  H    -62.776200   11.640200  -107.898000
  H    -62.801200   10.444800  -109.096000
  C    -61.941300    9.605170  -107.192000
  H    -61.194000    9.849410  -106.401000
  H    -62.854900    9.297820  -106.685000
  H    -61.500200    8.810000  -107.687000
  S    -62.283200   17.326300  -110.518000
  C    -61.415500   18.741100  -110.780000
  C    -60.076500   18.449100  -110.947000
  C    -59.734100   17.040800  -110.898000
  C    -60.902300   16.250000  -110.626000
  H    -59.383200   19.271100  -111.110000
  C    -58.317000   16.592800  -111.052000
  H    -57.977400   16.919900  -112.017000
  H    -58.271300   15.503800  -111.233000
  C    -57.425700   16.854700  -109.791000
  H    -57.650600   16.025600  -109.082000
  H    -57.608100   17.796400  -109.242000
  C    -55.965700   16.806200  -110.242000
  H    -55.578200   17.797000  -110.510000
  H    -55.614000   15.998800  -110.898000
  H    -55.390000   16.662500  -109.367000
  H    -62.407100   11.591300  -111.346000
  H    -61.819600   19.776500  -110.716000

 Total Charge           Charge          ....    0
 Multiplicity           Mult            ....    1
 Number of Electrons    NEL             ....  134
 Basis Dimension        Dim             ....  322

ORBITAL ENERGIES
----------------

  NO   OCC          E(Eh)            E(eV)
   0   2.0000     -88.965735     -2420.8807
   1   2.0000     -88.964333     -2420.8426
   2   2.0000     -10.333875      -281.1990
   3   2.0000     -10.328350      -281.0487
   4   2.0000     -10.315461      -280.6980
   5   2.0000     -10.314592      -280.6743
   6   2.0000     -10.308942      -280.5206
   7   2.0000     -10.307380      -280.4781
   8   2.0000     -10.298647      -280.2404
   9   2.0000     -10.295319      -280.1499
  10   2.0000     -10.294596      -280.1302
  11   2.0000     -10.291591      -280.0484
  12   2.0000     -10.288847      -279.9737
  13   2.0000     -10.286303      -279.9045
  14   2.0000     -10.283557      -279.8298
  15   2.0000     -10.274621      -279.5866
  16   2.0000      -8.080771      -219.8890
  17   2.0000      -8.080121      -219.8713
  18   2.0000      -6.039211      -164.3353
  19   2.0000      -6.038526      -164.3166
  20   2.0000      -6.035114      -164.2238
  21   2.0000      -6.034248      -164.2002
  22   2.0000      -6.031698      -164.1309
  23   2.0000      -6.031144      -164.1158
  24   2.0000      -1.005129       -27.3509
  25   2.0000      -0.983425       -26.7603
  26   2.0000      -0.907995       -24.7078
  27   2.0000      -0.901865       -24.5410
  28   2.0000      -0.866890       -23.5893
  29   2.0000      -0.850766       -23.1505
  30   2.0000      -0.844835       -22.9891
  31   2.0000      -0.811951       -22.0943
  32   2.0000      -0.784354       -21.3434
  33   2.0000      -0.769755       -20.9461
  34   2.0000      -0.706386       -19.2217
  35   2.0000      -0.704092       -19.1593
  36   2.0000      -0.695019       -18.9124
  37   2.0000      -0.656600       -17.8670
  38   2.0000      -0.643532       -17.5114
  39   2.0000      -0.616676       -16.7806
  40   2.0000      -0.598222       -16.2784
  41   2.0000      -0.568683       -15.4747
  42   2.0000      -0.555598       -15.1186
  43   2.0000      -0.549900       -14.9635
  44   2.0000      -0.526051       -14.3146
  45   2.0000      -0.520789       -14.1714
  46   2.0000      -0.515984       -14.0406
  47   2.0000      -0.511835       -13.9278
  48   2.0000      -0.508792       -13.8449
  49   2.0000      -0.503564       -13.7027
  50   2.0000      -0.497052       -13.5255
  51   2.0000      -0.476685       -12.9712
  52   2.0000      -0.473533       -12.8855
  53   2.0000      -0.461543       -12.5592
  54   2.0000      -0.459772       -12.5110
  55   2.0000      -0.451898       -12.2968
  56   2.0000      -0.448746       -12.2110
  57   2.0000      -0.437894       -11.9157
  58   2.0000      -0.434378       -11.8200
  59   2.0000      -0.422783       -11.5045
  60   2.0000      -0.416624       -11.3369
  61   2.0000      -0.410372       -11.1668
  62   2.0000      -0.407086       -11.0774
  63   2.0000      -0.342284        -9.3140
  64   2.0000      -0.329301        -8.9607
  65   2.0000      -0.325428        -8.8553
  66   2.0000      -0.292737        -7.9658
  67   0.0000       0.031826         0.8660
  68   0.0000       0.064454         1.7539
  69   0.0000       0.114199         3.1075
  70   0.0000       0.126202         3.4341
  71   0.0000       0.131776         3.5858

MULLIKEN ATOMIC CHARGES
-----------------------
   0 S :    0.116094
   1 C :   -0.110312
   2 C :   -0.103785
   3 C :    0.087116
   4 C :   -0.184515
   5 H :   -0.013303
   6 C :    0.082640
   7 H :   -0.004618
   8 H :    0.021146
   9 C :   -0.100667
  10 H :    0.035610
  11 H :    0.020221
  12 C :   -0.031228
  13 H :    0.032757
  14 H :    0.046289
  15 H :    0.018807
  16 S :    0.121487
  17 C :   -0.102812
  18 C :   -0.050496
  19 C :   -0.023025
  20 C :   -0.173391
  21 H :    0.017927
  22 C :    0.068555
  23 H :    0.026993
  24 H :    0.023284
  25 C :   -0.084287
  26 H :    0.037321
  27 H :    0.042732
  28 C :   -0.031140
  29 H :    0.031098
  30 H :    0.041320
  31 H :    0.006075
  32 H :    0.059357
  33 H :    0.076752
Sum of atomic charges:   -0.0000000

LOEWDIN ATOMIC CHARGES
----------------------
   0 S :    0.425823
   1 C :   -0.214603
   2 C :   -0.057334
   3 C :   -0.047281
   4 C :   -0.185633
   5 H :    0.019864
   6 C :   -0.033666
   7 H :    0.016027
   8 H :    0.028652
   9 C :   -0.045888
  10 H :    0.026416
  11 H :    0.020654
  12 C :   -0.060513
  13 H :    0.029919
  14 H :    0.031606
  15 H :    0.016018
  16 S :    0.436398
  17 C :   -0.217164
  18 C :   -0.080660
  19 C :   -0.046991
  20 C :   -0.223270
  21 H :    0.029375
  22 C :   -0.040025
  23 H :    0.030406
  24 H :    0.035859
  25 C :   -0.032617
  26 H :    0.028102
  27 H :    0.028599
  28 C :   -0.073373
  29 H :    0.029274
  30 H :    0.029694
  31 H :    0.020625
  32 H :    0.031820
  33 H :    0.043889

  Mayer bond orders larger than 0.100000
B(  0-S ,  1-C ) :   1.1540 B(  0-S ,  4-C ) :   1.1750 B(  1-C ,  2-C ) :   1.5882
B(  1-C ,  4-C ) :   0.1028 B(  1-C , 32-H ) :   0.9689 B(  2-C ,  3-C ) :   1.2419
B(  2-C ,  6-C ) :   1.0238 B(  3-C ,  4-C ) :   1.5449 B(  3-C ,  5-H ) :   1.0121
B(  4-C , 20-C ) :   1.0414 B(  6-C ,  7-H ) :   0.9472 B(  6-C ,  8-H ) :   0.9353
B(  6-C ,  9-C ) :   1.0534 B(  9-C , 10-H ) :   0.9611 B(  9-C , 11-H ) :   0.9553
B(  9-C , 12-C ) :   1.0607 B( 12-C , 13-H ) :   0.9779 B( 12-C , 14-H ) :   0.9771
B( 12-C , 15-H ) :   0.9763 B( 16-S , 17-C ) :   1.1809 B( 16-S , 20-C ) :   1.1597
B( 17-C , 18-C ) :   1.5751 B( 17-C , 33-H ) :   0.9624 B( 18-C , 19-C ) :   1.2664
B( 18-C , 21-H ) :   0.9907 B( 19-C , 20-C ) :   1.5287 B( 19-C , 22-C ) :   1.0626
B( 22-C , 23-H ) :   0.9415 B( 22-C , 24-H ) :   0.9238 B( 22-C , 25-C ) :   1.0348
B( 25-C , 26-H ) :   0.9574 B( 25-C , 27-H ) :   0.9644 B( 25-C , 28-C ) :   1.0780
B( 28-C , 29-H ) :   0.9743 B( 28-C , 30-H ) :   0.9731 B( 28-C , 31-H ) :   0.9661

Dispersion correction           -0.013615667
FINAL SINGLE POINT ENERGY     -1339.863956585444

DIPOLE MOMENT
-------------
                                X             Y             Z
Electronic contribution:    -17.66625      14.07168     -13.16572
Nuclear contribution   :     18.12347     -14.15329      13.55601
                        -----------------------------------------
Total Dipole Moment    :      0.45722      -0.08162       0.39029
                        -----------------------------------------
Magnitude (a.u.)       :      0.60666
Magnitude (Debye)      :      1.54202

Rotational constants in cm-1:     0.019122     0.007356     0.005961
Rotational constants in MHz :   573.278080   220.520966   178.715053

                             ****ORCA TERMINATED NORMALLY****
TOTAL RUN TIME: 0 days 0 hours 0 minutes 20 seconds 637 msec
