                         Program Version 4.2.1 -  RELEASE  -
|  1> ! wB97X-D3 SP def2-SVP
|  2> %pal
|  3> nprocs 24
|  4> end
|  5>
|  6> * xyz 0 1
|  7> S 	 -63.558 	 -49.1145 	 -88.3575
|  8> C 	 -62.5481 	 -50.2449 	 -89.2443
|  9> C 	 -63.2902 	 -51.378 	 -89.5417
| 10> C 	 -64.678 	 -51.2854 	 -89.1541
| 11> C 	 -64.9396 	 -50.1686 	 -88.4669
| 12> H 	 -65.4863 	 -52.0332 	 -89.2706
| 13> C 	 -62.7327 	 -52.7038 	 -90.0376
| 14> H 	 -61.8879 	 -52.6128 	 -90.7069
| 15> H 	 -63.6592 	 -53.0609 	 -90.5256
| 16> C 	 -62.4105 	 -53.6258 	 -88.784
| 17> H 	 -61.6941 	 -53.0421 	 -88.1479
| 18> H 	 -63.333 	 -53.8079 	 -88.1321
| 19> C 	 -61.6515 	 -54.9016 	 -89.231
| 20> H 	 -62.3062 	 -55.5443 	 -89.8556
| 21> H 	 -60.6635 	 -54.8496 	 -89.6709
| 22> H 	 -61.4968 	 -55.3309 	 -88.2725
| 23> S 	 -66.2932 	 -48.7682 	 -86.495
| 24> C 	 -68.0387 	 -48.479 	 -86.8167
| 25> C 	 -68.448 	 -48.8945 	 -88.0726
| 26> C 	 -67.4797 	 -49.7328 	 -88.6843
| 27> C 	 -66.2107 	 -49.6161 	 -88.05
| 28> H 	 -69.5146 	 -48.843 	 -88.227
| 29> C 	 -67.7991 	 -50.3331 	 -89.9942
| 30> H 	 -66.8059 	 -50.45 	 -90.4688
| 31> H 	 -68.3372 	 -49.6058 	 -90.6482
| 32> C 	 -68.6662 	 -51.6445 	 -89.9597
| 33> H 	 -69.4372 	 -51.462 	 -89.2383
| 34> H 	 -68.026 	 -52.4276 	 -89.5851
| 35> C 	 -69.2016 	 -52.0508 	 -91.3703
| 36> H 	 -69.5558 	 -51.2096 	 -91.9315
| 37> H 	 -69.948 	 -52.869 	 -91.3311
| 38> H 	 -68.3957 	 -52.5969 	 -91.9817
| 39> H 	 -61.5216 	 -50.0636 	 -89.5414
| 40> H 	 -68.7123 	 -47.866 	 -86.2682
| 41> *
| 42>
| 43>                          ****END OF INPUT****

CARTESIAN COORDINATES (ANGSTROEM)
---------------------------------
  S    -63.558000  -49.114500  -88.357500
  C    -62.548100  -50.244900  -89.244300
  C    -63.290200  -51.378000  -89.541700
  C    -64.678000  -51.285400  -89.154100
  C    -64.939600  -50.168600  -88.466900
  H    -65.486300  -52.033200  -89.270600
  C    -62.732700  -52.703800  -90.037600
  H    -61.887900  -52.612800  -90.706900
  H    -63.659200  -53.060900  -90.525600
  C    -62.410500  -53.625800  -88.784000
  H    -61.694100  -53.042100  -88.147900
  H    -63.333000  -53.807900  -88.132100
  C    -61.651500  -54.901600  -89.231000
  H    -62.306200  -55.544300  -89.855600
  H    -60.663500  -54.849600  -89.670900
  H    -61.496800  -55.330900  -88.272500
  S    -66.293200  -48.768200  -86.495000
  C    -68.038700  -48.479000  -86.816700
  C    -68.448000  -48.894500  -88.072600
  C    -67.479700  -49.732800  -88.684300
  C    -66.210700  -49.616100  -88.050000
  H    -69.514600  -48.843000  -88.227000
  C    -67.799100  -50.333100  -89.994200
  H    -66.805900  -50.450000  -90.468800
  H    -68.337200  -49.605800  -90.648200
  C    -68.666200  -51.644500  -89.959700
  H    -69.437200  -51.462000  -89.238300
  H    -68.026000  -52.427600  -89.585100
  C    -69.201600  -52.050800  -91.370300
  H    -69.555800  -51.209600  -91.931500
  H    -69.948000  -52.869000  -91.331100
  H    -68.395700  -52.596900  -91.981700
  H    -61.521600  -50.063600  -89.541400
  H    -68.712300  -47.866000  -86.268200

 Total Charge           Charge          ....    0
 Multiplicity           Mult            ....    1
 Number of Electrons    NEL             ....  134
 Basis Dimension        Dim             ....  322

ORBITAL ENERGIES
----------------

  NO   OCC          E(Eh)            E(eV)
   0   2.0000     -88.971678     -2421.0424
   1   2.0000     -88.960980     -2420.7513
   2   2.0000     -10.331595      -281.1370
   3   2.0000     -10.323160      -280.9075
   4   2.0000     -10.318189      -280.7722
   5   2.0000     -10.312878      -280.6277
   6   2.0000     -10.304189      -280.3912
   7   2.0000     -10.301940      -280.3300
   8   2.0000     -10.300611      -280.2939
   9   2.0000     -10.293894      -280.1111
  10   2.0000     -10.292997      -280.0867
  11   2.0000     -10.291990      -280.0593
  12   2.0000     -10.291807      -280.0543
  13   2.0000     -10.291685      -280.0510
  14   2.0000     -10.288745      -279.9710
  15   2.0000     -10.278071      -279.6805
  16   2.0000      -8.085032      -220.0049
  17   2.0000      -8.076177      -219.7640
  18   2.0000      -6.043615      -164.4551
  19   2.0000      -6.039890      -164.3538
  20   2.0000      -6.035629      -164.2378
  21   2.0000      -6.034789      -164.2150
  22   2.0000      -6.030605      -164.1011
  23   2.0000      -6.026813      -163.9979
  24   2.0000      -1.007845       -27.4249
  25   2.0000      -0.980290       -26.6750
  26   2.0000      -0.907067       -24.6825
  27   2.0000      -0.903693       -24.5907
  28   2.0000      -0.869230       -23.6530
  29   2.0000      -0.852436       -23.1960
  30   2.0000      -0.845188       -22.9987
  31   2.0000      -0.817770       -22.2527
  32   2.0000      -0.779670       -21.2159
  33   2.0000      -0.765275       -20.8242
  34   2.0000      -0.709400       -19.3037
  35   2.0000      -0.696314       -18.9477
  36   2.0000      -0.695296       -18.9200
  37   2.0000      -0.661110       -17.9897
  38   2.0000      -0.642304       -17.4780
  39   2.0000      -0.620236       -16.8775
  40   2.0000      -0.589880       -16.0514
  41   2.0000      -0.567435       -15.4407
  42   2.0000      -0.559264       -15.2184
  43   2.0000      -0.553103       -15.0507
  44   2.0000      -0.525166       -14.2905
  45   2.0000      -0.520311       -14.1584
  46   2.0000      -0.514979       -14.0133
  47   2.0000      -0.510879       -13.9017
  48   2.0000      -0.509691       -13.8694
  49   2.0000      -0.503286       -13.6951
  50   2.0000      -0.497772       -13.5451
  51   2.0000      -0.474683       -12.9168
  52   2.0000      -0.468510       -12.7488
  53   2.0000      -0.463935       -12.6243
  54   2.0000      -0.455470       -12.3940
  55   2.0000      -0.451704       -12.2915
  56   2.0000      -0.445846       -12.1321
  57   2.0000      -0.435731       -11.8568
  58   2.0000      -0.430424       -11.7124
  59   2.0000      -0.429310       -11.6821
  60   2.0000      -0.424528       -11.5520
  61   2.0000      -0.417338       -11.3563
  62   2.0000      -0.402356       -10.9487
  63   2.0000      -0.352814        -9.6006
  64   2.0000      -0.334536        -9.1032
  65   2.0000      -0.326761        -8.8916
  66   2.0000      -0.284497        -7.7416
  67   0.0000       0.026145         0.7114
  68   0.0000       0.069291         1.8855
  69   0.0000       0.104778         2.8512
  70   0.0000       0.115005         3.1295
  71   0.0000       0.123829         3.3696

MULLIKEN ATOMIC CHARGES
-----------------------
   0 S :    0.090089
   1 C :   -0.119549
   2 C :   -0.090938
   3 C :   -0.030361
   4 C :   -0.107982
   5 H :    0.026617
   6 C :    0.068348
   7 H :    0.026815
   8 H :    0.030031
   9 C :   -0.127421
  10 H :    0.035468
  11 H :    0.053380
  12 C :   -0.027823
  13 H :    0.036895
  14 H :    0.039741
  15 H :    0.025319
  16 S :    0.108840
  17 C :   -0.078025
  18 C :   -0.030880
  19 C :   -0.032610
  20 C :   -0.130690
  21 H :    0.029653
  22 C :   -0.017094
  23 H :    0.034537
  24 H :    0.032628
  25 C :   -0.033527
  26 H :    0.026001
  27 H :    0.024038
  28 C :   -0.068239
  29 H :    0.037736
  30 H :    0.038817
  31 H :    0.038030
  32 H :    0.049432
  33 H :    0.042727
Sum of atomic charges:   -0.0000000

LOEWDIN ATOMIC CHARGES
----------------------
   0 S :    0.396361
   1 C :   -0.201185
   2 C :   -0.059235
   3 C :   -0.079865
   4 C :   -0.188935
   5 H :    0.039053
   6 C :   -0.033456
   7 H :    0.026767
   8 H :    0.032454
   9 C :   -0.039392
  10 H :    0.026863
  11 H :    0.036354
  12 C :   -0.071054
  13 H :    0.027098
  14 H :    0.026545
  15 H :    0.025460
  16 S :    0.380657
  17 C :   -0.163739
  18 C :   -0.067012
  19 C :   -0.056044
  20 C :   -0.190403
  21 H :    0.034773
  22 C :   -0.042669
  23 H :    0.032304
  24 H :    0.033603
  25 C :   -0.031315
  26 H :    0.019999
  27 H :    0.021019
  28 C :   -0.072293
  29 H :    0.020542
  30 H :    0.029330
  31 H :    0.035337
  32 H :    0.030110
  33 H :    0.021967

  Mayer bond orders larger than 0.100000
B(  0-S ,  1-C ) :   1.1183 B(  0-S ,  4-C ) :   1.1439 B(  1-C ,  2-C ) :   1.6231
B(  1-C , 32-H ) :   0.9751 B(  2-C ,  3-C ) :   1.2029 B(  2-C ,  6-C ) :   1.0229
B(  3-C ,  4-C ) :   1.6224 B(  3-C ,  5-H ) :   0.9870 B(  4-C , 20-C ) :   1.0343
B(  6-C ,  7-H ) :   0.9477 B(  6-C ,  8-H ) :   0.9387 B(  6-C ,  9-C ) :   1.0485
B(  9-C , 10-H ) :   0.9597 B(  9-C , 11-H ) :   0.9560 B(  9-C , 12-C ) :   1.0687
B( 12-C , 13-H ) :   0.9751 B( 12-C , 14-H ) :   0.9758 B( 12-C , 15-H ) :   0.9733
B( 16-S , 17-C ) :   1.1303 B( 16-S , 20-C ) :   1.1289 B( 17-C , 18-C ) :   1.6633
B( 17-C , 20-C ) :   0.1022 B( 17-C , 33-H ) :   0.9624 B( 18-C , 19-C ) :   1.2278
B( 18-C , 21-H ) :   0.9748 B( 19-C , 20-C ) :   1.5784 B( 19-C , 22-C ) :   1.0544
B( 22-C , 23-H ) :   0.9354 B( 22-C , 24-H ) :   0.9419 B( 22-C , 25-C ) :   1.0412
B( 25-C , 26-H ) :   0.9606 B( 25-C , 27-H ) :   0.9528 B( 25-C , 28-C ) :   1.0747
B( 28-C , 29-H ) :   0.9774 B( 28-C , 30-H ) :   0.9752 B( 28-C , 31-H ) :   0.9751

Dispersion correction           -0.013929438
FINAL SINGLE POINT ENERGY     -1339.862190720659

DIPOLE MOMENT
-------------
                                X             Y             Z
Electronic contribution:      2.96345      24.74808      15.67237
Nuclear contribution   :     -3.17539     -25.26149     -16.01070
                        -----------------------------------------
Total Dipole Moment    :     -0.21194      -0.51341      -0.33834
                        -----------------------------------------
Magnitude (a.u.)       :      0.65037
Magnitude (Debye)      :      1.65310

Rotational constants in cm-1:     0.016957     0.008733     0.006456
Rotational constants in MHz :   508.354987   261.819526   193.546402

                             ****ORCA TERMINATED NORMALLY****
TOTAL RUN TIME: 0 days 0 hours 0 minutes 22 seconds 533 msec
