                         Program Version 4.2.1 -  RELEASE  -
|  1> ! wB97X-D3 SP def2-SVP
|  2> %pal
|  3> nprocs 24
|  4> end
|  5>
|  6> * xyz 0 1
|  7> S 	 32.8169 	 -26.2556 	 -118.589
|  8> C 	 33.5066 	 -25.2559 	 -117.314
|  9> C 	 34.0644 	 -26.0102 	 -116.355
| 10> C 	 33.9868 	 -27.3951 	 -116.62
| 11> C 	 33.3988 	 -27.7687 	 -117.783
| 12> H 	 34.4826 	 -28.0947 	 -116.041
| 13> C 	 34.8488 	 -25.4017 	 -115.144
| 14> H 	 34.2536 	 -24.6758 	 -114.594
| 15> H 	 35.7657 	 -24.9897 	 -115.603
| 16> C 	 35.4913 	 -26.2867 	 -114.055
| 17> H 	 36.0614 	 -27.0672 	 -114.59
| 18> H 	 36.1061 	 -25.7211 	 -113.389
| 19> C 	 34.4651 	 -26.9589 	 -113.135
| 20> H 	 35.026 	 -27.4005 	 -112.28
| 21> H 	 33.7139 	 -26.2523 	 -112.769
| 22> H 	 33.9842 	 -27.7987 	 -113.632
| 23> S 	 33.5323 	 -29.2062 	 -120.059
| 24> C 	 33.7014 	 -30.873 	 -119.95
| 25> C 	 33.4878 	 -31.3475 	 -118.654
| 26> C 	 33.2938 	 -30.3101 	 -117.664
| 27> C 	 33.2622 	 -29.089 	 -118.348
| 28> H 	 33.4895 	 -32.4602 	 -118.5
| 29> C 	 33.2332 	 -30.638 	 -116.227
| 30> H 	 32.3233 	 -31.2302 	 -116.119
| 31> H 	 33.0942 	 -29.721 	 -115.658
| 32> C 	 34.4763 	 -31.3996 	 -115.634
| 33> H 	 34.4825 	 -32.4326 	 -116.076
| 34> H 	 34.4392 	 -31.3294 	 -114.541
| 35> C 	 35.8208 	 -30.7396 	 -116
| 36> H 	 36.5795 	 -31.3868 	 -115.588
| 37> H 	 36.0345 	 -29.8308 	 -115.497
| 38> H 	 35.8706 	 -30.502 	 -117.076
| 39> H 	 33.5325 	 -24.1514 	 -117.323
| 40> H 	 33.7526 	 -31.4518 	 -120.826
| 41> *
| 42>
| 43>                          ****END OF INPUT****

CARTESIAN COORDINATES (ANGSTROEM)
---------------------------------
  S     32.816900  -26.255600  -118.589000
  C     33.506600  -25.255900  -117.314000
  C     34.064400  -26.010200  -116.355000
  C     33.986800  -27.395100  -116.620000
  C     33.398800  -27.768700  -117.783000
  H     34.482600  -28.094700  -116.041000
  C     34.848800  -25.401700  -115.144000
  H     34.253600  -24.675800  -114.594000
  H     35.765700  -24.989700  -115.603000
  C     35.491300  -26.286700  -114.055000
  H     36.061400  -27.067200  -114.590000
  H     36.106100  -25.721100  -113.389000
  C     34.465100  -26.958900  -113.135000
  H     35.026000  -27.400500  -112.280000
  H     33.713900  -26.252300  -112.769000
  H     33.984200  -27.798700  -113.632000
  S     33.532300  -29.206200  -120.059000
  C     33.701400  -30.873000  -119.950000
  C     33.487800  -31.347500  -118.654000
  C     33.293800  -30.310100  -117.664000
  C     33.262200  -29.089000  -118.348000
  H     33.489500  -32.460200  -118.500000
  C     33.233200  -30.638000  -116.227000
  H     32.323300  -31.230200  -116.119000
  H     33.094200  -29.721000  -115.658000
  C     34.476300  -31.399600  -115.634000
  H     34.482500  -32.432600  -116.076000
  H     34.439200  -31.329400  -114.541000
  C     35.820800  -30.739600  -116.000000
  H     36.579500  -31.386800  -115.588000
  H     36.034500  -29.830800  -115.497000
  H     35.870600  -30.502000  -117.076000
  H     33.532500  -24.151400  -117.323000
  H     33.752600  -31.451800  -120.826000

 Total Charge           Charge          ....    0
 Multiplicity           Mult            ....    1
 Number of Electrons    NEL             ....  134
 Basis Dimension        Dim             ....  322

ORBITAL ENERGIES
----------------

  NO   OCC          E(Eh)            E(eV)
   0   2.0000     -88.967700     -2420.9342
   1   2.0000     -88.960575     -2420.7403
   2   2.0000     -10.328453      -281.0515
   3   2.0000     -10.326316      -280.9933
   4   2.0000     -10.312890      -280.6280
   5   2.0000     -10.310391      -280.5600
   6   2.0000     -10.308667      -280.5131
   7   2.0000     -10.300778      -280.2984
   8   2.0000     -10.298691      -280.2416
   9   2.0000     -10.296748      -280.1888
  10   2.0000     -10.295481      -280.1543
  11   2.0000     -10.294009      -280.1142
  12   2.0000     -10.288432      -279.9625
  13   2.0000     -10.281970      -279.7866
  14   2.0000     -10.278818      -279.7009
  15   2.0000     -10.274660      -279.5877
  16   2.0000      -8.084256      -219.9838
  17   2.0000      -8.074525      -219.7190
  18   2.0000      -6.042539      -164.4258
  19   2.0000      -6.038524      -164.3166
  20   2.0000      -6.035118      -164.2239
  21   2.0000      -6.033281      -164.1739
  22   2.0000      -6.029209      -164.0631
  23   2.0000      -6.025011      -163.9489
  24   2.0000      -1.012551       -27.5529
  25   2.0000      -0.986636       -26.8477
  26   2.0000      -0.915714       -24.9178
  27   2.0000      -0.908062       -24.7096
  28   2.0000      -0.874256       -23.7897
  29   2.0000      -0.855578       -23.2815
  30   2.0000      -0.839981       -22.8571
  31   2.0000      -0.815543       -22.1921
  32   2.0000      -0.790242       -21.5036
  33   2.0000      -0.774421       -21.0731
  34   2.0000      -0.711047       -19.3486
  35   2.0000      -0.697817       -18.9886
  36   2.0000      -0.688513       -18.7354
  37   2.0000      -0.659185       -17.9373
  38   2.0000      -0.635789       -17.3007
  39   2.0000      -0.630120       -17.1464
  40   2.0000      -0.602500       -16.3948
  41   2.0000      -0.569691       -15.5021
  42   2.0000      -0.558833       -15.2066
  43   2.0000      -0.551397       -15.0043
  44   2.0000      -0.545746       -14.8505
  45   2.0000      -0.542266       -14.7558
  46   2.0000      -0.522471       -14.2171
  47   2.0000      -0.510882       -13.9018
  48   2.0000      -0.505249       -13.7485
  49   2.0000      -0.497987       -13.5509
  50   2.0000      -0.492846       -13.4110
  51   2.0000      -0.489750       -13.3268
  52   2.0000      -0.470206       -12.7950
  53   2.0000      -0.464369       -12.6361
  54   2.0000      -0.460081       -12.5194
  55   2.0000      -0.451132       -12.2759
  56   2.0000      -0.442741       -12.0476
  57   2.0000      -0.440660       -11.9910
  58   2.0000      -0.432782       -11.7766
  59   2.0000      -0.425448       -11.5770
  60   2.0000      -0.420559       -11.4440
  61   2.0000      -0.413627       -11.2554
  62   2.0000      -0.408113       -11.1053
  63   2.0000      -0.358482        -9.7548
  64   2.0000      -0.333063        -9.0631
  65   2.0000      -0.328796        -8.9470
  66   2.0000      -0.285673        -7.7736
  67   0.0000       0.025607         0.6968
  68   0.0000       0.079971         2.1761
  69   0.0000       0.108225         2.9449
  70   0.0000       0.118367         3.2209
  71   0.0000       0.119089         3.2406

MULLIKEN ATOMIC CHARGES
-----------------------
   0 S :    0.080919
   1 C :   -0.148930
   2 C :   -0.039813
   3 C :    0.033462
   4 C :   -0.100416
   5 H :   -0.068830
   6 C :    0.039765
   7 H :    0.035717
   8 H :    0.049833
   9 C :   -0.085137
  10 H :    0.032641
  11 H :    0.029654
  12 C :   -0.065631
  13 H :    0.034961
  14 H :    0.036112
  15 H :    0.026946
  16 S :    0.124174
  17 C :   -0.080138
  18 C :   -0.064459
  19 C :   -0.083679
  20 C :   -0.126532
  21 H :    0.036872
  22 C :    0.084720
  23 H :    0.043783
  24 H :    0.019001
  25 C :   -0.092889
  26 H :    0.047218
  27 H :    0.042751
  28 C :   -0.053225
  29 H :    0.030905
  30 H :    0.020988
  31 H :    0.058986
  32 H :    0.054643
  33 H :    0.045630
Sum of atomic charges:   -0.0000000

LOEWDIN ATOMIC CHARGES
----------------------
   0 S :    0.359148
   1 C :   -0.190153
   2 C :   -0.067342
   3 C :   -0.068531
   4 C :   -0.163107
   5 H :    0.010783
   6 C :   -0.031644
   7 H :    0.027947
   8 H :    0.040917
   9 C :   -0.043203
  10 H :    0.023620
  11 H :    0.024939
  12 C :   -0.069538
  13 H :    0.028784
  14 H :    0.025305
  15 H :    0.019234
  16 S :    0.448385
  17 C :   -0.200163
  18 C :   -0.075805
  19 C :   -0.051061
  20 C :   -0.206293
  21 H :    0.037321
  22 C :   -0.038244
  23 H :    0.040024
  24 H :    0.029051
  25 C :   -0.033804
  26 H :    0.029576
  27 H :    0.030356
  28 C :   -0.069424
  29 H :    0.028921
  30 H :    0.015345
  31 H :    0.033206
  32 H :    0.036565
  33 H :    0.018886

  Mayer bond orders larger than 0.100000
B(  0-S ,  1-C ) :   1.1194 B(  0-S ,  4-C ) :   1.1168 B(  1-C ,  2-C ) :   1.6597
B(  1-C , 32-H ) :   0.9663 B(  2-C ,  3-C ) :   1.2446 B(  2-C ,  6-C ) :   0.9815
B(  3-C ,  4-C ) :   1.5989 B(  3-C ,  5-H ) :   0.9916 B(  4-C , 20-C ) :   1.0492
B(  6-C ,  7-H ) :   0.9482 B(  6-C ,  8-H ) :   0.9440 B(  6-C ,  9-C ) :   1.0923
B(  9-C , 10-H ) :   0.9477 B(  9-C , 11-H ) :   0.9542 B(  9-C , 12-C ) :   1.0805
B( 12-C , 13-H ) :   0.9750 B( 12-C , 14-H ) :   0.9736 B( 12-C , 15-H ) :   0.9774
B( 16-S , 17-C ) :   1.1839 B( 16-S , 20-C ) :   1.1568 B( 17-C , 18-C ) :   1.5864
B( 17-C , 33-H ) :   0.9735 B( 18-C , 19-C ) :   1.2325 B( 18-C , 21-H ) :   0.9847
B( 19-C , 20-C ) :   1.5635 B( 19-C , 22-C ) :   1.0506 B( 22-C , 23-H ) :   0.9263
B( 22-C , 24-H ) :   0.9271 B( 22-C , 25-C ) :   1.0692 B( 25-C , 26-H ) :   0.9536
B( 25-C , 27-H ) :   0.9568 B( 25-C , 28-C ) :   1.0858 B( 28-C , 29-H ) :   0.9679
B( 28-C , 30-H ) :   0.9661 B( 28-C , 31-H ) :   0.9694

Dispersion correction           -0.016007429
FINAL SINGLE POINT ENERGY     -1339.878036295122

DIPOLE MOMENT
-------------
                                X             Y             Z
Electronic contribution:    -11.90876       5.68864     -27.98299
Nuclear contribution   :     12.33500      -6.01931      28.56114
                        -----------------------------------------
Total Dipole Moment    :      0.42624      -0.33067       0.57815
                        -----------------------------------------
Magnitude (a.u.)       :      0.79075
Magnitude (Debye)      :      2.00992

Rotational constants in cm-1:     0.017793     0.011121     0.007403
Rotational constants in MHz :   533.430409   333.406592   221.928300

                             ****ORCA TERMINATED NORMALLY****
TOTAL RUN TIME: 0 days 0 hours 0 minutes 23 seconds 639 msec
