                         Program Version 4.2.1 -  RELEASE  -
|  1> ! wB97X-D3 SP def2-SVP
|  2> %pal
|  3> nprocs 24
|  4> end
|  5>
|  6> * xyz 0 1
|  7> S 	 -35.9852 	 -48.6021 	 -73.6691
|  8> C 	 -36.7454 	 -47.294 	 -72.8572
|  9> C 	 -37.5697 	 -47.7648 	 -71.8592
| 10> C 	 -37.7241 	 -49.1662 	 -71.8027
| 11> C 	 -36.9114 	 -49.8144 	 -72.6891
| 12> H 	 -38.3404 	 -49.6727 	 -71.043
| 13> C 	 -38.2114 	 -46.8122 	 -70.7956
| 14> H 	 -37.5634 	 -45.9416 	 -70.6408
| 15> H 	 -38.3317 	 -47.3641 	 -69.808
| 16> C 	 -39.7097 	 -46.3845 	 -71.2128
| 17> H 	 -40.1775 	 -47.3157 	 -71.4217
| 18> H 	 -40.134 	 -45.9641 	 -70.3462
| 19> C 	 -39.8277 	 -45.4507 	 -72.4486
| 20> H 	 -40.8594 	 -45.009 	 -72.528
| 21> H 	 -39.115 	 -44.6202 	 -72.4763
| 22> H 	 -39.5366 	 -46.0714 	 -73.3314
| 23> S 	 -36.9343 	 -51.7857 	 -74.4992
| 24> C 	 -36.5721 	 -53.3559 	 -73.9896
| 25> C 	 -36.4204 	 -53.4855 	 -72.6269
| 26> C 	 -36.4775 	 -52.2444 	 -71.9421
| 27> C 	 -36.7779 	 -51.2197 	 -72.8487
| 28> H 	 -36.1721 	 -54.4336 	 -72.2869
| 29> C 	 -36.3645 	 -52.12 	 -70.4232
| 30> H 	 -37.1185 	 -52.7467 	 -69.9457
| 31> H 	 -36.7038 	 -51.1154 	 -70.2722
| 32> C 	 -35.0463 	 -52.3008 	 -69.7809
| 33> H 	 -35.0131 	 -51.7929 	 -68.8414
| 34> H 	 -34.3319 	 -51.8863 	 -70.4779
| 35> C 	 -34.635 	 -53.7795 	 -69.5742
| 36> H 	 -33.7004 	 -54.0025 	 -69.0035
| 37> H 	 -34.3829 	 -54.2133 	 -70.5172
| 38> H 	 -35.3477 	 -54.452 	 -69.0635
| 39> H 	 -36.5164 	 -46.3038 	 -73.0674
| 40> H 	 -36.4206 	 -54.2052 	 -74.683
| 41> *
| 42>
| 43>                          ****END OF INPUT****

CARTESIAN COORDINATES (ANGSTROEM)
---------------------------------
  S    -35.985200  -48.602100  -73.669100
  C    -36.745400  -47.294000  -72.857200
  C    -37.569700  -47.764800  -71.859200
  C    -37.724100  -49.166200  -71.802700
  C    -36.911400  -49.814400  -72.689100
  H    -38.340400  -49.672700  -71.043000
  C    -38.211400  -46.812200  -70.795600
  H    -37.563400  -45.941600  -70.640800
  H    -38.331700  -47.364100  -69.808000
  C    -39.709700  -46.384500  -71.212800
  H    -40.177500  -47.315700  -71.421700
  H    -40.134000  -45.964100  -70.346200
  C    -39.827700  -45.450700  -72.448600
  H    -40.859400  -45.009000  -72.528000
  H    -39.115000  -44.620200  -72.476300
  H    -39.536600  -46.071400  -73.331400
  S    -36.934300  -51.785700  -74.499200
  C    -36.572100  -53.355900  -73.989600
  C    -36.420400  -53.485500  -72.626900
  C    -36.477500  -52.244400  -71.942100
  C    -36.777900  -51.219700  -72.848700
  H    -36.172100  -54.433600  -72.286900
  C    -36.364500  -52.120000  -70.423200
  H    -37.118500  -52.746700  -69.945700
  H    -36.703800  -51.115400  -70.272200
  C    -35.046300  -52.300800  -69.780900
  H    -35.013100  -51.792900  -68.841400
  H    -34.331900  -51.886300  -70.477900
  C    -34.635000  -53.779500  -69.574200
  H    -33.700400  -54.002500  -69.003500
  H    -34.382900  -54.213300  -70.517200
  H    -35.347700  -54.452000  -69.063500
  H    -36.516400  -46.303800  -73.067400
  H    -36.420600  -54.205200  -74.683000

 Total Charge           Charge          ....    0
 Multiplicity           Mult            ....    1
 Number of Electrons    NEL             ....  134
 Basis Dimension        Dim             ....  322

ORBITAL ENERGIES
----------------

  NO   OCC          E(Eh)            E(eV)
   0   2.0000     -88.966268     -2420.8952
   1   2.0000     -88.964981     -2420.8602
   2   2.0000     -10.328701      -281.0582
   3   2.0000     -10.322896      -280.9003
   4   2.0000     -10.312134      -280.6074
   5   2.0000     -10.307785      -280.4891
   6   2.0000     -10.306200      -280.4460
   7   2.0000     -10.301757      -280.3251
   8   2.0000     -10.299299      -280.2582
   9   2.0000     -10.294444      -280.1261
  10   2.0000     -10.286352      -279.9059
  11   2.0000     -10.284823      -279.8643
  12   2.0000     -10.283820      -279.8370
  13   2.0000     -10.282942      -279.8131
  14   2.0000     -10.281959      -279.7863
  15   2.0000     -10.277695      -279.6703
  16   2.0000      -8.082243      -219.9290
  17   2.0000      -8.079506      -219.8545
  18   2.0000      -6.040469      -164.3695
  19   2.0000      -6.038075      -164.3044
  20   2.0000      -6.036591      -164.2640
  21   2.0000      -6.034034      -164.1944
  22   2.0000      -6.033215      -164.1721
  23   2.0000      -6.030221      -164.0907
  24   2.0000      -1.011479       -27.5237
  25   2.0000      -0.987491       -26.8710
  26   2.0000      -0.917111       -24.9558
  27   2.0000      -0.896983       -24.4081
  28   2.0000      -0.873738       -23.7756
  29   2.0000      -0.853410       -23.2225
  30   2.0000      -0.844034       -22.9673
  31   2.0000      -0.812392       -22.1063
  32   2.0000      -0.786904       -21.4127
  33   2.0000      -0.767791       -20.8926
  34   2.0000      -0.713902       -19.4263
  35   2.0000      -0.696420       -18.9505
  36   2.0000      -0.693409       -18.8686
  37   2.0000      -0.662829       -18.0365
  38   2.0000      -0.643555       -17.5120
  39   2.0000      -0.623268       -16.9600
  40   2.0000      -0.600862       -16.3503
  41   2.0000      -0.568189       -15.4612
  42   2.0000      -0.551296       -15.0015
  43   2.0000      -0.550593       -14.9824
  44   2.0000      -0.538835       -14.6624
  45   2.0000      -0.530731       -14.4419
  46   2.0000      -0.516984       -14.0679
  47   2.0000      -0.515079       -14.0160
  48   2.0000      -0.501516       -13.6469
  49   2.0000      -0.497054       -13.5255
  50   2.0000      -0.487844       -13.2749
  51   2.0000      -0.482459       -13.1284
  52   2.0000      -0.475885       -12.9495
  53   2.0000      -0.466912       -12.7053
  54   2.0000      -0.459972       -12.5165
  55   2.0000      -0.446719       -12.1558
  56   2.0000      -0.443952       -12.0805
  57   2.0000      -0.434370       -11.8198
  58   2.0000      -0.432655       -11.7731
  59   2.0000      -0.426301       -11.6002
  60   2.0000      -0.419716       -11.4210
  61   2.0000      -0.415820       -11.3150
  62   2.0000      -0.411641       -11.2013
  63   2.0000      -0.349747        -9.5171
  64   2.0000      -0.336711        -9.1624
  65   2.0000      -0.326148        -8.8749
  66   2.0000      -0.290176        -7.8961
  67   0.0000       0.029160         0.7935
  68   0.0000       0.069937         1.9031
  69   0.0000       0.109352         2.9756
  70   0.0000       0.116919         3.1815
  71   0.0000       0.136452         3.7131

MULLIKEN ATOMIC CHARGES
-----------------------
   0 S :    0.107379
   1 C :   -0.098687
   2 C :   -0.085867
   3 C :    0.036588
   4 C :   -0.154018
   5 H :    0.031992
   6 C :    0.006971
   7 H :    0.033728
   8 H :    0.036701
   9 C :   -0.038880
  10 H :    0.022407
  11 H :    0.023102
  12 C :   -0.080674
  13 H :    0.051159
  14 H :    0.024820
  15 H :    0.046955
  16 S :    0.127926
  17 C :   -0.099569
  18 C :   -0.022396
  19 C :   -0.029007
  20 C :   -0.197145
  21 H :   -0.010917
  22 C :    0.110652
  23 H :    0.029148
  24 H :   -0.007562
  25 C :   -0.012969
  26 H :    0.031619
  27 H :    0.032109
  28 C :   -0.083464
  29 H :    0.030612
  30 H :    0.021464
  31 H :    0.028231
  32 H :    0.024896
  33 H :    0.062698
Sum of atomic charges:    0.0000000

LOEWDIN ATOMIC CHARGES
----------------------
   0 S :    0.391310
   1 C :   -0.194830
   2 C :   -0.068797
   3 C :   -0.064153
   4 C :   -0.179677
   5 H :    0.038440
   6 C :   -0.028605
   7 H :    0.025558
   8 H :    0.034879
   9 C :   -0.032509
  10 H :    0.020150
  11 H :    0.013691
  12 C :   -0.076195
  13 H :    0.034297
  14 H :    0.019734
  15 H :    0.032611
  16 S :    0.436278
  17 C :   -0.203356
  18 C :   -0.070065
  19 C :   -0.043227
  20 C :   -0.203969
  21 H :    0.019412
  22 C :   -0.029649
  23 H :    0.032486
  24 H :    0.027645
  25 C :   -0.032810
  26 H :    0.025191
  27 H :    0.031662
  28 C :   -0.078061
  29 H :    0.030946
  30 H :    0.019008
  31 H :    0.023599
  32 H :    0.015153
  33 H :    0.033853

  Mayer bond orders larger than 0.100000
B(  0-S ,  1-C ) :   1.1387 B(  0-S ,  4-C ) :   1.1353 B(  1-C ,  2-C ) :   1.5979
B(  1-C , 32-H ) :   0.9807 B(  2-C ,  3-C ) :   1.2574 B(  2-C ,  6-C ) :   1.0111
B(  3-C ,  4-C ) :   1.5694 B(  3-C ,  5-H ) :   0.9827 B(  4-C , 20-C ) :   1.0706
B(  6-C ,  7-H ) :   0.9527 B(  6-C ,  8-H ) :   0.9497 B(  6-C ,  9-C ) :   1.0552
B(  9-C , 10-H ) :   0.9597 B(  9-C , 11-H ) :   0.9627 B(  9-C , 12-C ) :   1.0691
B( 12-C , 13-H ) :   0.9748 B( 12-C , 14-H ) :   0.9785 B( 12-C , 15-H ) :   0.9736
B( 16-S , 17-C ) :   1.1712 B( 16-S , 20-C ) :   1.1584 B( 17-C , 18-C ) :   1.6040
B( 17-C , 33-H ) :   0.9597 B( 18-C , 19-C ) :   1.2323 B( 18-C , 21-H ) :   1.0023
B( 19-C , 20-C ) :   1.5698 B( 19-C , 22-C ) :   1.0365 B( 22-C , 23-H ) :   0.9336
B( 22-C , 24-H ) :   0.9112 B( 22-C , 25-C ) :   1.0789 B( 25-C , 26-H ) :   0.9553
B( 25-C , 27-H ) :   0.9509 B( 25-C , 28-C ) :   1.0734 B( 28-C , 29-H ) :   0.9718
B( 28-C , 30-H ) :   0.9746 B( 28-C , 31-H ) :   0.9773

Dispersion correction           -0.014392819
FINAL SINGLE POINT ENERGY     -1339.878157275814

DIPOLE MOMENT
-------------
                                X             Y             Z
Electronic contribution:      4.76939      -4.38728     -20.15678
Nuclear contribution   :     -4.83521       4.32456      20.70058
                        -----------------------------------------
Total Dipole Moment    :     -0.06582      -0.06272       0.54381
                        -----------------------------------------
Magnitude (a.u.)       :      0.55136
Magnitude (Debye)      :      1.40144

Rotational constants in cm-1:     0.021662     0.007703     0.006508
Rotational constants in MHz :   649.416332   230.934076   195.103995

                             ****ORCA TERMINATED NORMALLY****
TOTAL RUN TIME: 0 days 0 hours 0 minutes 20 seconds 359 msec
