                         Program Version 4.2.1 -  RELEASE  -
|  1> ! wB97X-D3 SP def2-SVP
|  2> %pal
|  3> nprocs 24
|  4> end
|  5>
|  6> * xyz 0 1
|  7> S 	 -107.344 	 21.5012 	 -110.28
|  8> C 	 -106.198 	 20.8379 	 -109.057
|  9> C 	 -105.396 	 19.8655 	 -109.595
| 10> C 	 -105.717 	 19.6705 	 -110.971
| 11> C 	 -106.728 	 20.4797 	 -111.472
| 12> H 	 -105.384 	 18.8972 	 -111.702
| 13> C 	 -104.431 	 19.0053 	 -108.814
| 14> H 	 -104.162 	 18.0371 	 -109.199
| 15> H 	 -104.971 	 18.705 	 -107.9
| 16> C 	 -103.139 	 19.6915 	 -108.458
| 17> H 	 -103.449 	 20.6521 	 -108.069
| 18> H 	 -102.648 	 19.1163 	 -107.64
| 19> C 	 -102.045 	 19.8523 	 -109.63
| 20> H 	 -102.537 	 20.1074 	 -110.536
| 21> H 	 -101.361 	 20.68 	 -109.581
| 22> H 	 -101.483 	 18.9914 	 -109.911
| 23> S 	 -108.845 	 20.4609 	 -113.211
| 24> C 	 -108.641 	 20.0694 	 -114.934
| 25> C 	 -107.303 	 20.1952 	 -115.224
| 26> C 	 -106.437 	 20.2153 	 -114.099
| 27> C 	 -107.141 	 20.487 	 -112.912
| 28> H 	 -106.995 	 20.1118 	 -116.215
| 29> C 	 -104.884 	 20.1025 	 -114.223
| 30> H 	 -104.693 	 19.0577 	 -114.047
| 31> H 	 -104.29 	 20.6541 	 -113.487
| 32> C 	 -104.346 	 20.4115 	 -115.654
| 33> H 	 -104.932 	 19.8268 	 -116.424
| 34> H 	 -103.353 	 20.0438 	 -115.869
| 35> C 	 -104.197 	 21.8867 	 -115.943
| 36> H 	 -103.469 	 22.1289 	 -116.689
| 37> H 	 -103.914 	 22.3875 	 -115.082
| 38> H 	 -105.071 	 22.2381 	 -116.379
| 39> H 	 -106.144 	 21.2602 	 -108.061
| 40> H 	 -109.469 	 19.9757 	 -115.62
| 41> *
| 42>
| 43>                          ****END OF INPUT****

CARTESIAN COORDINATES (ANGSTROEM)
---------------------------------
  S    -107.344000   21.501200  -110.280000
  C    -106.198000   20.837900  -109.057000
  C    -105.396000   19.865500  -109.595000
  C    -105.717000   19.670500  -110.971000
  C    -106.728000   20.479700  -111.472000
  H    -105.384000   18.897200  -111.702000
  C    -104.431000   19.005300  -108.814000
  H    -104.162000   18.037100  -109.199000
  H    -104.971000   18.705000  -107.900000
  C    -103.139000   19.691500  -108.458000
  H    -103.449000   20.652100  -108.069000
  H    -102.648000   19.116300  -107.640000
  C    -102.045000   19.852300  -109.630000
  H    -102.537000   20.107400  -110.536000
  H    -101.361000   20.680000  -109.581000
  H    -101.483000   18.991400  -109.911000
  S    -108.845000   20.460900  -113.211000
  C    -108.641000   20.069400  -114.934000
  C    -107.303000   20.195200  -115.224000
  C    -106.437000   20.215300  -114.099000
  C    -107.141000   20.487000  -112.912000
  H    -106.995000   20.111800  -116.215000
  C    -104.884000   20.102500  -114.223000
  H    -104.693000   19.057700  -114.047000
  H    -104.290000   20.654100  -113.487000
  C    -104.346000   20.411500  -115.654000
  H    -104.932000   19.826800  -116.424000
  H    -103.353000   20.043800  -115.869000
  C    -104.197000   21.886700  -115.943000
  H    -103.469000   22.128900  -116.689000
  H    -103.914000   22.387500  -115.082000
  H    -105.071000   22.238100  -116.379000
  H    -106.144000   21.260200  -108.061000
  H    -109.469000   19.975700  -115.620000

 Total Charge           Charge          ....    0
 Multiplicity           Mult            ....    1
 Number of Electrons    NEL             ....  134
 Basis Dimension        Dim             ....  322

ORBITAL ENERGIES
----------------

  NO   OCC          E(Eh)            E(eV)
   0   2.0000     -88.968137     -2420.9461
   1   2.0000     -88.962895     -2420.8034
   2   2.0000     -10.330955      -281.1196
   3   2.0000     -10.328043      -281.0403
   4   2.0000     -10.320562      -280.8368
   5   2.0000     -10.317623      -280.7568
   6   2.0000     -10.310309      -280.5578
   7   2.0000     -10.305515      -280.4273
   8   2.0000     -10.298887      -280.2470
   9   2.0000     -10.293594      -280.1029
  10   2.0000     -10.292968      -280.0859
  11   2.0000     -10.292083      -280.0618
  12   2.0000     -10.292073      -280.0616
  13   2.0000     -10.288363      -279.9606
  14   2.0000     -10.274175      -279.5745
  15   2.0000     -10.260590      -279.2048
  16   2.0000      -8.083223      -219.9557
  17   2.0000      -8.077812      -219.8084
  18   2.0000      -6.041696      -164.4029
  19   2.0000      -6.037660      -164.2931
  20   2.0000      -6.036343      -164.2573
  21   2.0000      -6.034029      -164.1943
  22   2.0000      -6.032184      -164.1441
  23   2.0000      -6.028642      -164.0477
  24   2.0000      -1.008433       -27.4409
  25   2.0000      -0.986455       -26.8428
  26   2.0000      -0.914770       -24.8922
  27   2.0000      -0.907612       -24.6974
  28   2.0000      -0.866241       -23.5716
  29   2.0000      -0.850350       -23.1392
  30   2.0000      -0.841648       -22.9024
  31   2.0000      -0.814310       -22.1585
  32   2.0000      -0.791448       -21.5364
  33   2.0000      -0.779819       -21.2199
  34   2.0000      -0.708169       -19.2703
  35   2.0000      -0.703893       -19.1539
  36   2.0000      -0.695338       -18.9211
  37   2.0000      -0.659809       -17.9543
  38   2.0000      -0.642686       -17.4884
  39   2.0000      -0.612680       -16.6719
  40   2.0000      -0.601856       -16.3773
  41   2.0000      -0.583334       -15.8733
  42   2.0000      -0.559893       -15.2355
  43   2.0000      -0.545120       -14.8335
  44   2.0000      -0.540941       -14.7198
  45   2.0000      -0.537051       -14.6139
  46   2.0000      -0.521890       -14.2013
  47   2.0000      -0.510373       -13.8880
  48   2.0000      -0.501090       -13.6354
  49   2.0000      -0.494819       -13.4647
  50   2.0000      -0.489151       -13.3105
  51   2.0000      -0.480795       -13.0831
  52   2.0000      -0.476141       -12.9565
  53   2.0000      -0.469810       -12.7842
  54   2.0000      -0.460724       -12.5369
  55   2.0000      -0.447320       -12.1722
  56   2.0000      -0.445392       -12.1197
  57   2.0000      -0.440380       -11.9834
  58   2.0000      -0.434122       -11.8131
  59   2.0000      -0.428646       -11.6641
  60   2.0000      -0.421893       -11.4803
  61   2.0000      -0.410254       -11.1636
  62   2.0000      -0.404093       -10.9959
  63   2.0000      -0.353856        -9.6289
  64   2.0000      -0.334251        -9.0954
  65   2.0000      -0.327728        -8.9179
  66   2.0000      -0.290550        -7.9063
  67   0.0000       0.027680         0.7532
  68   0.0000       0.071790         1.9535
  69   0.0000       0.105114         2.8603
  70   0.0000       0.123074         3.3490
  71   0.0000       0.136061         3.7024

MULLIKEN ATOMIC CHARGES
-----------------------
   0 S :    0.111135
   1 C :   -0.146098
   2 C :   -0.035048
   3 C :   -0.022210
   4 C :   -0.128085
   5 H :    0.023889
   6 C :    0.067515
   7 H :    0.015805
   8 H :    0.035300
   9 C :   -0.067670
  10 H :    0.020151
  11 H :    0.037958
  12 C :   -0.028863
  13 H :    0.005628
  14 H :    0.027677
  15 H :    0.025026
  16 S :    0.085175
  17 C :   -0.092972
  18 C :   -0.000578
  19 C :   -0.068007
  20 C :   -0.128853
  21 H :   -0.003548
  22 C :    0.069926
  23 H :    0.036172
  24 H :    0.046281
  25 C :   -0.125500
  26 H :    0.027511
  27 H :    0.018713
  28 C :    0.033243
  29 H :    0.016169
  30 H :    0.016903
  31 H :    0.011784
  32 H :    0.052940
  33 H :    0.062531
Sum of atomic charges:   -0.0000000

LOEWDIN ATOMIC CHARGES
----------------------
   0 S :    0.414120
   1 C :   -0.181473
   2 C :   -0.058559
   3 C :   -0.079013
   4 C :   -0.213919
   5 H :    0.037865
   6 C :   -0.034506
   7 H :    0.027678
   8 H :    0.040104
   9 C :   -0.032489
  10 H :    0.019967
  11 H :    0.027919
  12 C :   -0.071478
  13 H :    0.020865
  14 H :    0.027473
  15 H :    0.021922
  16 S :    0.401108
  17 C :   -0.171785
  18 C :   -0.064945
  19 C :   -0.056026
  20 C :   -0.200504
  21 H :    0.019944
  22 C :   -0.025808
  23 H :    0.031676
  24 H :    0.032716
  25 C :   -0.047418
  26 H :    0.025225
  27 H :    0.023296
  28 C :   -0.052674
  29 H :    0.025024
  30 H :    0.019399
  31 H :    0.017301
  32 H :    0.026960
  33 H :    0.030036

  Mayer bond orders larger than 0.100000
B(  0-S ,  1-C ) :   1.1318 B(  0-S ,  4-C ) :   1.1710 B(  1-C ,  2-C ) :   1.6062
B(  1-C , 32-H ) :   0.9697 B(  2-C ,  3-C ) :   1.2340 B(  2-C ,  6-C ) :   1.0092
B(  3-C ,  4-C ) :   1.5761 B(  3-C ,  5-H ) :   0.9891 B(  4-C , 20-C ) :   0.9988
B(  6-C ,  7-H ) :   0.9476 B(  6-C ,  8-H ) :   0.9395 B(  6-C ,  9-C ) :   1.0756
B(  9-C , 10-H ) :   0.9610 B(  9-C , 11-H ) :   0.9583 B(  9-C , 12-C ) :   1.0555
B( 12-C , 13-H ) :   0.9750 B( 12-C , 14-H ) :   0.9771 B( 12-C , 15-H ) :   0.9775
B( 16-S , 17-C ) :   1.1578 B( 16-S , 20-C ) :   1.1565 B( 17-C , 18-C ) :   1.5863
B( 17-C , 20-C ) :   0.1063 B( 17-C , 33-H ) :   0.9687 B( 18-C , 19-C ) :   1.2660
B( 18-C , 21-H ) :   0.9918 B( 19-C , 20-C ) :   1.5887 B( 19-C , 22-C ) :   1.0042
B( 22-C , 23-H ) :   0.9240 B( 22-C , 24-H ) :   0.9504 B( 22-C , 25-C ) :   1.0862
B( 25-C , 26-H ) :   0.9484 B( 25-C , 27-H ) :   0.9571 B( 25-C , 28-C ) :   1.0717
B( 28-C , 29-H ) :   0.9743 B( 28-C , 30-H ) :   0.9711 B( 28-C , 31-H ) :   0.9728

Dispersion correction           -0.014142075
FINAL SINGLE POINT ENERGY     -1339.857708718612

DIPOLE MOMENT
-------------
                                X             Y             Z
Electronic contribution:    -28.40898       3.72031       4.04576
Nuclear contribution   :     29.00612      -4.02138      -4.28148
                        -----------------------------------------
Total Dipole Moment    :      0.59714      -0.30108      -0.23572
                        -----------------------------------------
Magnitude (a.u.)       :      0.70908
Magnitude (Debye)      :      1.80233

Rotational constants in cm-1:     0.018014     0.008977     0.006577
Rotational constants in MHz :   540.059561   269.130027   197.171907

                             ****ORCA TERMINATED NORMALLY****
TOTAL RUN TIME: 0 days 0 hours 0 minutes 21 seconds 680 msec
