                         Program Version 4.2.1 -  RELEASE  -
|  1> ! wB97X-D3 SP def2-SVP
|  2> %pal
|  3> nprocs 24
|  4> end
|  5>
|  6> * xyz 0 1
|  7> S 	 -110.55 	 40.4249 	 -11.3278
|  8> C 	 -110.806 	 42.1576 	 -11.3013
|  9> C 	 -111.05 	 42.7265 	 -10.0295
| 10> C 	 -111.031 	 41.6624 	 -9.02425
| 11> C 	 -110.572 	 40.4431 	 -9.54716
| 12> H 	 -111.259 	 41.8031 	 -7.97469
| 13> C 	 -111.501 	 44.1536 	 -9.73733
| 14> H 	 -110.866 	 44.921 	 -10.2011
| 15> H 	 -111.426 	 44.1733 	 -8.64076
| 16> C 	 -112.966 	 44.4546 	 -10.0842
| 17> H 	 -113.129 	 45.5585 	 -10.1366
| 18> H 	 -113.12 	 44.2665 	 -11.1912
| 19> C 	 -113.926 	 43.8126 	 -9.09464
| 20> H 	 -114.899 	 43.8819 	 -9.57021
| 21> H 	 -113.83 	 42.8141 	 -8.9396
| 22> H 	 -114.088 	 44.3868 	 -8.19075
| 23> S 	 -110.987 	 37.684 	 -9.43351
| 24> C 	 -110.278 	 36.7287 	 -8.13744
| 25> C 	 -109.564 	 37.5679 	 -7.2381
| 26> C 	 -109.629 	 38.9628 	 -7.54916
| 27> C 	 -110.235 	 39.2186 	 -8.7429
| 28> H 	 -108.94 	 37.22 	 -6.35602
| 29> C 	 -108.819 	 40.0413 	 -6.86375
| 30> H 	 -109.374 	 40.9877 	 -7.00556
| 31> H 	 -107.809 	 40.1103 	 -7.26145
| 32> C 	 -108.688 	 39.8544 	 -5.33343
| 33> H 	 -108.042 	 40.5269 	 -4.82411
| 34> H 	 -108.14 	 38.8914 	 -5.11724
| 35> C 	 -110.084 	 39.7352 	 -4.65627
| 36> H 	 -110.018 	 39.7727 	 -3.5956
| 37> H 	 -110.693 	 38.8519 	 -4.7287
| 38> H 	 -110.668 	 40.5861 	 -4.95893
| 39> H 	 -110.979 	 42.7938 	 -12.1585
| 40> H 	 -110.343 	 35.6249 	 -8.11627
| 41> *
| 42>
| 43>                          ****END OF INPUT****

CARTESIAN COORDINATES (ANGSTROEM)
---------------------------------
  S    -110.550000   40.424900  -11.327800
  C    -110.806000   42.157600  -11.301300
  C    -111.050000   42.726500  -10.029500
  C    -111.031000   41.662400   -9.024250
  C    -110.572000   40.443100   -9.547160
  H    -111.259000   41.803100   -7.974690
  C    -111.501000   44.153600   -9.737330
  H    -110.866000   44.921000  -10.201100
  H    -111.426000   44.173300   -8.640760
  C    -112.966000   44.454600  -10.084200
  H    -113.129000   45.558500  -10.136600
  H    -113.120000   44.266500  -11.191200
  C    -113.926000   43.812600   -9.094640
  H    -114.899000   43.881900   -9.570210
  H    -113.830000   42.814100   -8.939600
  H    -114.088000   44.386800   -8.190750
  S    -110.987000   37.684000   -9.433510
  C    -110.278000   36.728700   -8.137440
  C    -109.564000   37.567900   -7.238100
  C    -109.629000   38.962800   -7.549160
  C    -110.235000   39.218600   -8.742900
  H    -108.940000   37.220000   -6.356020
  C    -108.819000   40.041300   -6.863750
  H    -109.374000   40.987700   -7.005560
  H    -107.809000   40.110300   -7.261450
  C    -108.688000   39.854400   -5.333430
  H    -108.042000   40.526900   -4.824110
  H    -108.140000   38.891400   -5.117240
  C    -110.084000   39.735200   -4.656270
  H    -110.018000   39.772700   -3.595600
  H    -110.693000   38.851900   -4.728700
  H    -110.668000   40.586100   -4.958930
  H    -110.979000   42.793800  -12.158500
  H    -110.343000   35.624900   -8.116270

 Total Charge           Charge          ....    0
 Multiplicity           Mult            ....    1
 Number of Electrons    NEL             ....  134
 Basis Dimension        Dim             ....  322

ORBITAL ENERGIES
----------------

  NO   OCC          E(Eh)            E(eV)
   0   2.0000     -88.973838     -2421.1012
   1   2.0000     -88.962718     -2420.7986
   2   2.0000     -10.337997      -281.3112
   3   2.0000     -10.333062      -281.1769
   4   2.0000     -10.327978      -281.0386
   5   2.0000     -10.315898      -280.7099
   6   2.0000     -10.307441      -280.4797
   7   2.0000     -10.304648      -280.4037
   8   2.0000     -10.303568      -280.3743
   9   2.0000     -10.301784      -280.3258
  10   2.0000     -10.295955      -280.1672
  11   2.0000     -10.294444      -280.1261
  12   2.0000     -10.294100      -280.1167
  13   2.0000     -10.291232      -280.0387
  14   2.0000     -10.270908      -279.4856
  15   2.0000     -10.269135      -279.4374
  16   2.0000      -8.087515      -220.0725
  17   2.0000      -8.076278      -219.7667
  18   2.0000      -6.046095      -164.5226
  19   2.0000      -6.042386      -164.4217
  20   2.0000      -6.038056      -164.3039
  21   2.0000      -6.034895      -164.2178
  22   2.0000      -6.030959      -164.1107
  23   2.0000      -6.026985      -164.0026
  24   2.0000      -0.994983       -27.0749
  25   2.0000      -0.974013       -26.5043
  26   2.0000      -0.911712       -24.8090
  27   2.0000      -0.906302       -24.6617
  28   2.0000      -0.859235       -23.3810
  29   2.0000      -0.850596       -23.1459
  30   2.0000      -0.840354       -22.8672
  31   2.0000      -0.807623       -21.9765
  32   2.0000      -0.785332       -21.3700
  33   2.0000      -0.774046       -21.0629
  34   2.0000      -0.708172       -19.2703
  35   2.0000      -0.706564       -19.2266
  36   2.0000      -0.690037       -18.7769
  37   2.0000      -0.657982       -17.9046
  38   2.0000      -0.634607       -17.2685
  39   2.0000      -0.609850       -16.5949
  40   2.0000      -0.592656       -16.1270
  41   2.0000      -0.564693       -15.3661
  42   2.0000      -0.560949       -15.2642
  43   2.0000      -0.555342       -15.1116
  44   2.0000      -0.539487       -14.6802
  45   2.0000      -0.530217       -14.4279
  46   2.0000      -0.515114       -14.0170
  47   2.0000      -0.508989       -13.8503
  48   2.0000      -0.499095       -13.5811
  49   2.0000      -0.489147       -13.3104
  50   2.0000      -0.484922       -13.1954
  51   2.0000      -0.481812       -13.1108
  52   2.0000      -0.474724       -12.9179
  53   2.0000      -0.463389       -12.6094
  54   2.0000      -0.457274       -12.4431
  55   2.0000      -0.447989       -12.1904
  56   2.0000      -0.447025       -12.1642
  57   2.0000      -0.439848       -11.9689
  58   2.0000      -0.430999       -11.7281
  59   2.0000      -0.427466       -11.6319
  60   2.0000      -0.419198       -11.4070
  61   2.0000      -0.409138       -11.1332
  62   2.0000      -0.408065       -11.1040
  63   2.0000      -0.345384        -9.3984
  64   2.0000      -0.331358        -9.0167
  65   2.0000      -0.330135        -8.9834
  66   2.0000      -0.285683        -7.7738
  67   0.0000       0.020766         0.5651
  68   0.0000       0.064308         1.7499
  69   0.0000       0.096496         2.6258
  70   0.0000       0.115822         3.1517
  71   0.0000       0.128266         3.4903

MULLIKEN ATOMIC CHARGES
-----------------------
   0 S :    0.127457
   1 C :   -0.095856
   2 C :   -0.124121
   3 C :    0.022415
   4 C :   -0.144703
   5 H :    0.024960
   6 C :    0.065665
   7 H :    0.039401
   8 H :    0.018419
   9 C :   -0.094119
  10 H :    0.026318
  11 H :    0.028383
  12 C :   -0.005192
  13 H :    0.017782
  14 H :    0.025226
  15 H :    0.034959
  16 S :    0.068601
  17 C :   -0.102416
  18 C :   -0.048565
  19 C :   -0.047666
  20 C :   -0.138175
  21 H :    0.043096
  22 C :    0.070685
  23 H :    0.023858
  24 H :    0.053587
  25 C :   -0.083347
  26 H :    0.024087
  27 H :    0.019087
  28 C :   -0.039723
  29 H :    0.015072
  30 H :    0.036930
  31 H :    0.020311
  32 H :    0.041055
  33 H :    0.076530
Sum of atomic charges:    0.0000000

LOEWDIN ATOMIC CHARGES
----------------------
   0 S :    0.401613
   1 C :   -0.198644
   2 C :   -0.059688
   3 C :   -0.060764
   4 C :   -0.186560
   5 H :    0.028969
   6 C :   -0.036283
   7 H :    0.035024
   8 H :    0.030594
   9 C :   -0.046207
  10 H :    0.027494
  11 H :    0.026537
  12 C :   -0.061022
  13 H :    0.033445
  14 H :    0.013776
  15 H :    0.030285
  16 S :    0.354866
  17 C :   -0.183551
  18 C :   -0.076589
  19 C :   -0.065221
  20 C :   -0.158427
  21 H :    0.041282
  22 C :   -0.024803
  23 H :    0.031493
  24 H :    0.037952
  25 C :   -0.042276
  26 H :    0.021519
  27 H :    0.022602
  28 C :   -0.069741
  29 H :    0.022529
  30 H :    0.027910
  31 H :    0.021103
  32 H :    0.024476
  33 H :    0.036309

  Mayer bond orders larger than 0.100000
B(  0-S ,  1-C ) :   1.1363 B(  0-S ,  4-C ) :   1.1441 B(  1-C ,  2-C ) :   1.6191
B(  1-C , 32-H ) :   0.9622 B(  2-C ,  3-C ) :   1.2387 B(  2-C ,  6-C ) :   1.0269
B(  3-C ,  4-C ) :   1.5760 B(  3-C ,  5-H ) :   0.9762 B(  4-C , 20-C ) :   1.0238
B(  6-C ,  7-H ) :   0.9383 B(  6-C ,  8-H ) :   0.9400 B(  6-C ,  9-C ) :   1.0714
B(  9-C , 10-H ) :   0.9521 B(  9-C , 11-H ) :   0.9584 B(  9-C , 12-C ) :   1.0725
B( 12-C , 13-H ) :   0.9641 B( 12-C , 14-H ) :   0.9788 B( 12-C , 15-H ) :   0.9713
B( 16-S , 17-C ) :   1.1540 B( 16-S , 20-C ) :   1.1144 B( 17-C , 18-C ) :   1.5967
B( 17-C , 20-C ) :   0.1042 B( 17-C , 33-H ) :   0.9660 B( 18-C , 19-C ) :   1.2266
B( 18-C , 21-H ) :   0.9739 B( 19-C , 20-C ) :   1.6471 B( 19-C , 22-C ) :   1.0276
B( 22-C , 23-H ) :   0.9370 B( 22-C , 24-H ) :   0.9400 B( 22-C , 25-C ) :   1.0761
B( 25-C , 26-H ) :   0.9588 B( 25-C , 27-H ) :   0.9485 B( 25-C , 28-C ) :   1.0684
B( 28-C , 29-H ) :   0.9715 B( 28-C , 30-H ) :   0.9716 B( 28-C , 31-H ) :   0.9776

Dispersion correction           -0.014521491
FINAL SINGLE POINT ENERGY     -1339.857796604259

DIPOLE MOMENT
-------------
                                X             Y             Z
Electronic contribution:      4.57430     -18.00626     -18.61681
Nuclear contribution   :     -4.59853      18.48142      19.08709
                        -----------------------------------------
Total Dipole Moment    :     -0.02423       0.47516       0.47028
                        -----------------------------------------
Magnitude (a.u.)       :      0.66898
Magnitude (Debye)      :      1.70040

Rotational constants in cm-1:     0.018949     0.008578     0.006818
Rotational constants in MHz :   568.074065   257.153463   204.410357

                             ****ORCA TERMINATED NORMALLY****
TOTAL RUN TIME: 0 days 0 hours 0 minutes 21 seconds 696 msec
