                         Program Version 4.2.1 -  RELEASE  -
|  1> ! wB97X-D3 SP def2-SVP
|  2> %pal
|  3> nprocs 24
|  4> end
|  5>
|  6> * xyz 0 1
|  7> S 	 44.7771 	 -15.7803 	 -105.335
|  8> C 	 43.4823 	 -16.6175 	 -106.166
|  9> C 	 43.5005 	 -16.3221 	 -107.475
| 10> C 	 44.4754 	 -15.3589 	 -107.872
| 11> C 	 45.2068 	 -15.0125 	 -106.739
| 12> H 	 44.6201 	 -14.8425 	 -108.817
| 13> C 	 42.5225 	 -17.0763 	 -108.472
| 14> H 	 42.0345 	 -16.3523 	 -109.123
| 15> H 	 41.7403 	 -17.5823 	 -107.95
| 16> C 	 43.2313 	 -18.1384 	 -109.337
| 17> H 	 42.5066 	 -18.8254 	 -109.823
| 18> H 	 43.7147 	 -17.6678 	 -110.168
| 19> C 	 44.3099 	 -19.0113 	 -108.648
| 20> H 	 43.8384 	 -19.5716 	 -107.879
| 21> H 	 44.7654 	 -19.7451 	 -109.338
| 22> H 	 45.1734 	 -18.5841 	 -108.098
| 23> S 	 45.785 	 -12.4424 	 -105.815
| 24> C 	 47.1837 	 -11.6157 	 -106.395
| 25> C 	 47.991 	 -12.5009 	 -106.996
| 26> C 	 47.3841 	 -13.7514 	 -107.272
| 27> C 	 46.1746 	 -13.9174 	 -106.65
| 28> H 	 48.9095 	 -12.0653 	 -107.317
| 29> C 	 48.0991 	 -14.7901 	 -108.013
| 30> H 	 48.4177 	 -14.4895 	 -109.004
| 31> H 	 47.4255 	 -15.6284 	 -108.2
| 32> C 	 49.2905 	 -15.4146 	 -107.337
| 33> H 	 50.0757 	 -14.601 	 -107.323
| 34> H 	 49.637 	 -16.2741 	 -107.898
| 35> C 	 48.9291 	 -15.9052 	 -105.958
| 36> H 	 48.1264 	 -16.6928 	 -106.023
| 37> H 	 48.5223 	 -15.1266 	 -105.265
| 38> H 	 49.7628 	 -16.4387 	 -105.47
| 39> H 	 42.8009 	 -17.3872 	 -105.833
| 40> H 	 47.3389 	 -10.584 	 -106.383
| 41> *
| 42>
| 43>                          ****END OF INPUT****

CARTESIAN COORDINATES (ANGSTROEM)
---------------------------------
  S     44.777100  -15.780300  -105.335000
  C     43.482300  -16.617500  -106.166000
  C     43.500500  -16.322100  -107.475000
  C     44.475400  -15.358900  -107.872000
  C     45.206800  -15.012500  -106.739000
  H     44.620100  -14.842500  -108.817000
  C     42.522500  -17.076300  -108.472000
  H     42.034500  -16.352300  -109.123000
  H     41.740300  -17.582300  -107.950000
  C     43.231300  -18.138400  -109.337000
  H     42.506600  -18.825400  -109.823000
  H     43.714700  -17.667800  -110.168000
  C     44.309900  -19.011300  -108.648000
  H     43.838400  -19.571600  -107.879000
  H     44.765400  -19.745100  -109.338000
  H     45.173400  -18.584100  -108.098000
  S     45.785000  -12.442400  -105.815000
  C     47.183700  -11.615700  -106.395000
  C     47.991000  -12.500900  -106.996000
  C     47.384100  -13.751400  -107.272000
  C     46.174600  -13.917400  -106.650000
  H     48.909500  -12.065300  -107.317000
  C     48.099100  -14.790100  -108.013000
  H     48.417700  -14.489500  -109.004000
  H     47.425500  -15.628400  -108.200000
  C     49.290500  -15.414600  -107.337000
  H     50.075700  -14.601000  -107.323000
  H     49.637000  -16.274100  -107.898000
  C     48.929100  -15.905200  -105.958000
  H     48.126400  -16.692800  -106.023000
  H     48.522300  -15.126600  -105.265000
  H     49.762800  -16.438700  -105.470000
  H     42.800900  -17.387200  -105.833000
  H     47.338900  -10.584000  -106.383000

 Total Charge           Charge          ....    0
 Multiplicity           Mult            ....    1
 Number of Electrons    NEL             ....  134
 Basis Dimension        Dim             ....  322

ORBITAL ENERGIES
----------------

  NO   OCC          E(Eh)            E(eV)
   0   2.0000     -88.969415     -2420.9809
   1   2.0000     -88.959451     -2420.7097
   2   2.0000     -10.325459      -280.9700
   3   2.0000     -10.321675      -280.8670
   4   2.0000     -10.308023      -280.4956
   5   2.0000     -10.306049      -280.4419
   6   2.0000     -10.300497      -280.2908
   7   2.0000     -10.296089      -280.1708
   8   2.0000     -10.295794      -280.1628
   9   2.0000     -10.294833      -280.1367
  10   2.0000     -10.288065      -279.9525
  11   2.0000     -10.284594      -279.8580
  12   2.0000     -10.283249      -279.8214
  13   2.0000     -10.277568      -279.6668
  14   2.0000     -10.274782      -279.5910
  15   2.0000     -10.274436      -279.5816
  16   2.0000      -8.085713      -220.0234
  17   2.0000      -8.075296      -219.7400
  18   2.0000      -6.044027      -164.4663
  19   2.0000      -6.039931      -164.3549
  20   2.0000      -6.036633      -164.2651
  21   2.0000      -6.033822      -164.1887
  22   2.0000      -6.029528      -164.0718
  23   2.0000      -6.026069      -163.9777
  24   2.0000      -1.020939       -27.7812
  25   2.0000      -0.997799       -27.1515
  26   2.0000      -0.917910       -24.9776
  27   2.0000      -0.908117       -24.7111
  28   2.0000      -0.872763       -23.7491
  29   2.0000      -0.849122       -23.1058
  30   2.0000      -0.843149       -22.9433
  31   2.0000      -0.819147       -22.2901
  32   2.0000      -0.787476       -21.4283
  33   2.0000      -0.775267       -21.0961
  34   2.0000      -0.711884       -19.3714
  35   2.0000      -0.693421       -18.8689
  36   2.0000      -0.692253       -18.8372
  37   2.0000      -0.655824       -17.8459
  38   2.0000      -0.641945       -17.4682
  39   2.0000      -0.620039       -16.8721
  40   2.0000      -0.602301       -16.3895
  41   2.0000      -0.575332       -15.6556
  42   2.0000      -0.556587       -15.1455
  43   2.0000      -0.551205       -14.9990
  44   2.0000      -0.548602       -14.9282
  45   2.0000      -0.539634       -14.6842
  46   2.0000      -0.518570       -14.1110
  47   2.0000      -0.509300       -13.8588
  48   2.0000      -0.504199       -13.7200
  49   2.0000      -0.495213       -13.4754
  50   2.0000      -0.490226       -13.3397
  51   2.0000      -0.476764       -12.9734
  52   2.0000      -0.474624       -12.9152
  53   2.0000      -0.460957       -12.5433
  54   2.0000      -0.455476       -12.3941
  55   2.0000      -0.453601       -12.3431
  56   2.0000      -0.439432       -11.9575
  57   2.0000      -0.438720       -11.9382
  58   2.0000      -0.432588       -11.7713
  59   2.0000      -0.418000       -11.3743
  60   2.0000      -0.416993       -11.3470
  61   2.0000      -0.412287       -11.2189
  62   2.0000      -0.406799       -11.0696
  63   2.0000      -0.344470        -9.3735
  64   2.0000      -0.338127        -9.2009
  65   2.0000      -0.325716        -8.8632
  66   2.0000      -0.302848        -8.2409
  67   0.0000       0.045172         1.2292
  68   0.0000       0.064023         1.7422
  69   0.0000       0.116361         3.1663
  70   0.0000       0.128695         3.5020
  71   0.0000       0.132144         3.5958

MULLIKEN ATOMIC CHARGES
-----------------------
   0 S :    0.134606
   1 C :   -0.110304
   2 C :   -0.105163
   3 C :    0.056943
   4 C :   -0.190262
   5 H :    0.021579
   6 C :    0.101177
   7 H :    0.029746
   8 H :    0.010908
   9 C :   -0.074910
  10 H :    0.034856
  11 H :    0.020656
  12 C :   -0.065346
  13 H :    0.009901
  14 H :    0.033694
  15 H :    0.043663
  16 S :    0.105851
  17 C :   -0.080822
  18 C :   -0.016847
  19 C :   -0.036027
  20 C :   -0.144397
  21 H :    0.005818
  22 C :    0.082416
  23 H :    0.018845
  24 H :    0.009834
  25 C :   -0.061703
  26 H :    0.030629
  27 H :    0.031393
  28 C :   -0.085977
  29 H :    0.024549
  30 H :    0.054318
  31 H :    0.034433
  32 H :    0.036485
  33 H :    0.039460
Sum of atomic charges:    0.0000000

LOEWDIN ATOMIC CHARGES
----------------------
   0 S :    0.454006
   1 C :   -0.208418
   2 C :   -0.056175
   3 C :   -0.063180
   4 C :   -0.214000
   5 H :    0.037639
   6 C :   -0.021161
   7 H :    0.031456
   8 H :    0.022145
   9 C :   -0.042438
  10 H :    0.030877
  11 H :    0.016915
  12 C :   -0.075579
  13 H :    0.015604
  14 H :    0.029184
  15 H :    0.030462
  16 S :    0.411461
  17 C :   -0.173859
  18 C :   -0.071061
  19 C :   -0.059911
  20 C :   -0.207922
  21 H :    0.028555
  22 C :   -0.039143
  23 H :    0.028141
  24 H :    0.027489
  25 C :   -0.039586
  26 H :    0.023326
  27 H :    0.026860
  28 C :   -0.076538
  29 H :    0.026126
  30 H :    0.030341
  31 H :    0.025704
  32 H :    0.030078
  33 H :    0.022600

  Mayer bond orders larger than 0.100000
B(  0-S ,  1-C ) :   1.1145 B(  0-S ,  4-C ) :   1.2059 B(  1-C ,  2-C ) :   1.6519
B(  1-C , 32-H ) :   0.9642 B(  2-C ,  3-C ) :   1.2205 B(  2-C ,  6-C ) :   1.0181
B(  3-C ,  4-C ) :   1.5571 B(  3-C ,  5-H ) :   1.0002 B(  4-C , 20-C ) :   0.9891
B(  6-C ,  7-H ) :   0.9435 B(  6-C ,  8-H ) :   0.9457 B(  6-C ,  9-C ) :   1.0623
B(  9-C , 10-H ) :   0.9577 B(  9-C , 11-H ) :   0.9586 B(  9-C , 12-C ) :   1.0735
B( 12-C , 13-H ) :   0.9768 B( 12-C , 14-H ) :   0.9749 B( 12-C , 15-H ) :   0.9707
B( 16-S , 17-C ) :   1.1604 B( 16-S , 20-C ) :   1.1390 B( 17-C , 18-C ) :   1.6217
B( 17-C , 33-H ) :   0.9750 B( 18-C , 19-C ) :   1.2082 B( 18-C , 21-H ) :   0.9989
B( 19-C , 20-C ) :   1.6023 B( 19-C , 22-C ) :   1.0754 B( 22-C , 23-H ) :   0.9241
B( 22-C , 24-H ) :   0.9214 B( 22-C , 25-C ) :   1.0808 B( 25-C , 26-H ) :   0.9512
B( 25-C , 27-H ) :   0.9521 B( 25-C , 28-C ) :   1.0799 B( 28-C , 29-H ) :   0.9709
B( 28-C , 30-H ) :   0.9698 B( 28-C , 31-H ) :   0.9726

Dispersion correction           -0.016015293
FINAL SINGLE POINT ENERGY     -1339.877406299817

DIPOLE MOMENT
-------------
                                X             Y             Z
Electronic contribution:     -6.06546      18.87489      13.47350
Nuclear contribution   :      6.15843     -19.04468     -14.03019
                        -----------------------------------------
Total Dipole Moment    :      0.09297      -0.16979      -0.55669
                        -----------------------------------------
Magnitude (a.u.)       :      0.58939
Magnitude (Debye)      :      1.49810

Rotational constants in cm-1:     0.021859     0.009074     0.007793
Rotational constants in MHz :   655.305864   272.043970   233.635325

                             ****ORCA TERMINATED NORMALLY****
TOTAL RUN TIME: 0 days 0 hours 0 minutes 22 seconds 886 msec
