                         Program Version 4.2.1 -  RELEASE  -
|  1> ! wB97X-D3 SP def2-SVP
|  2> %pal
|  3> nprocs 24
|  4> end
|  5>
|  6> * xyz 0 1
|  7> S 	 -97.2249 	 -30.0522 	 -67.206
|  8> C 	 -98.5754 	 -31.0992 	 -66.9583
|  9> C 	 -98.3201 	 -32.0716 	 -66.064
| 10> C 	 -97.0084 	 -32.0124 	 -65.4991
| 11> C 	 -96.2978 	 -30.944 	 -65.9814
| 12> H 	 -96.491 	 -32.6102 	 -64.7389
| 13> C 	 -99.2524 	 -33.2491 	 -65.7444
| 14> H 	 -98.5868 	 -34.1395 	 -65.7814
| 15> H 	 -99.8265 	 -33.4027 	 -66.6193
| 16> C 	 -100.153 	 -33.1711 	 -64.4523
| 17> H 	 -100.792 	 -32.36 	 -64.4367
| 18> H 	 -100.774 	 -34.0602 	 -64.3789
| 19> C 	 -99.4054 	 -32.8804 	 -63.1297
| 20> H 	 -99.998 	 -32.8532 	 -62.2572
| 21> H 	 -98.4735 	 -33.4461 	 -62.9459
| 22> H 	 -99.1338 	 -31.8023 	 -63.1861
| 23> S 	 -93.5697 	 -30.9438 	 -66.681
| 24> C 	 -92.3687 	 -30.4345 	 -65.5191
| 25> C 	 -92.9888 	 -29.8856 	 -64.4037
| 26> C 	 -94.4461 	 -29.9554 	 -64.4444
| 27> C 	 -94.9394 	 -30.5155 	 -65.6513
| 28> H 	 -92.4906 	 -29.3946 	 -63.5702
| 29> C 	 -95.2189 	 -29.346 	 -63.299
| 30> H 	 -96.2929 	 -29.2868 	 -63.5595
| 31> H 	 -94.9687 	 -28.2759 	 -63.3509
| 32> C 	 -94.9848 	 -29.781 	 -61.8529
| 33> H 	 -93.911 	 -29.7399 	 -61.5752
| 34> H 	 -95.3371 	 -30.7837 	 -61.6454
| 35> C 	 -95.5163 	 -28.7461 	 -60.8368
| 36> H 	 -95.2029 	 -27.7571 	 -61.029
| 37> H 	 -95.1288 	 -29.0921 	 -59.9001
| 38> H 	 -96.5644 	 -28.8529 	 -60.7166
| 39> H 	 -99.4811 	 -31.0538 	 -67.5127
| 40> H 	 -91.3524 	 -30.675 	 -65.6954
| 41> *
| 42>
| 43>                          ****END OF INPUT****

CARTESIAN COORDINATES (ANGSTROEM)
---------------------------------
  S    -97.224900  -30.052200  -67.206000
  C    -98.575400  -31.099200  -66.958300
  C    -98.320100  -32.071600  -66.064000
  C    -97.008400  -32.012400  -65.499100
  C    -96.297800  -30.944000  -65.981400
  H    -96.491000  -32.610200  -64.738900
  C    -99.252400  -33.249100  -65.744400
  H    -98.586800  -34.139500  -65.781400
  H    -99.826500  -33.402700  -66.619300
  C    -100.153000  -33.171100  -64.452300
  H    -100.792000  -32.360000  -64.436700
  H    -100.774000  -34.060200  -64.378900
  C    -99.405400  -32.880400  -63.129700
  H    -99.998000  -32.853200  -62.257200
  H    -98.473500  -33.446100  -62.945900
  H    -99.133800  -31.802300  -63.186100
  S    -93.569700  -30.943800  -66.681000
  C    -92.368700  -30.434500  -65.519100
  C    -92.988800  -29.885600  -64.403700
  C    -94.446100  -29.955400  -64.444400
  C    -94.939400  -30.515500  -65.651300
  H    -92.490600  -29.394600  -63.570200
  C    -95.218900  -29.346000  -63.299000
  H    -96.292900  -29.286800  -63.559500
  H    -94.968700  -28.275900  -63.350900
  C    -94.984800  -29.781000  -61.852900
  H    -93.911000  -29.739900  -61.575200
  H    -95.337100  -30.783700  -61.645400
  C    -95.516300  -28.746100  -60.836800
  H    -95.202900  -27.757100  -61.029000
  H    -95.128800  -29.092100  -59.900100
  H    -96.564400  -28.852900  -60.716600
  H    -99.481100  -31.053800  -67.512700
  H    -91.352400  -30.675000  -65.695400

 Total Charge           Charge          ....    0
 Multiplicity           Mult            ....    1
 Number of Electrons    NEL             ....  134
 Basis Dimension        Dim             ....  322

ORBITAL ENERGIES
----------------

  NO   OCC          E(Eh)            E(eV)
   0   2.0000     -88.962209     -2420.7848
   1   2.0000     -88.961851     -2420.7750
   2   2.0000     -10.328138      -281.0429
   3   2.0000     -10.327160      -281.0163
   4   2.0000     -10.319977      -280.8209
   5   2.0000     -10.308237      -280.5014
   6   2.0000     -10.306768      -280.4614
   7   2.0000     -10.297333      -280.2047
   8   2.0000     -10.297046      -280.1969
   9   2.0000     -10.294488      -280.1273
  10   2.0000     -10.294334      -280.1231
  11   2.0000     -10.291432      -280.0441
  12   2.0000     -10.289252      -279.9848
  13   2.0000     -10.286443      -279.9083
  14   2.0000     -10.276435      -279.6360
  15   2.0000     -10.271146      -279.4921
  16   2.0000      -8.076973      -219.7856
  17   2.0000      -8.076953      -219.7851
  18   2.0000      -6.035568      -164.2362
  19   2.0000      -6.035417      -164.2320
  20   2.0000      -6.031432      -164.1236
  21   2.0000      -6.031293      -164.1198
  22   2.0000      -6.027809      -164.0250
  23   2.0000      -6.027717      -164.0225
  24   2.0000      -1.003307       -27.3014
  25   2.0000      -0.981014       -26.6948
  26   2.0000      -0.909088       -24.7375
  27   2.0000      -0.903590       -24.5879
  28   2.0000      -0.869208       -23.6524
  29   2.0000      -0.851004       -23.1570
  30   2.0000      -0.846722       -23.0405
  31   2.0000      -0.815632       -22.1945
  32   2.0000      -0.783375       -21.3167
  33   2.0000      -0.771389       -20.9906
  34   2.0000      -0.706516       -19.2253
  35   2.0000      -0.704203       -19.1623
  36   2.0000      -0.696349       -18.9486
  37   2.0000      -0.657380       -17.8882
  38   2.0000      -0.647203       -17.6113
  39   2.0000      -0.611479       -16.6392
  40   2.0000      -0.598909       -16.2971
  41   2.0000      -0.568571       -15.4716
  42   2.0000      -0.568047       -15.4574
  43   2.0000      -0.546433       -14.8692
  44   2.0000      -0.538640       -14.6571
  45   2.0000      -0.530343       -14.4314
  46   2.0000      -0.518467       -14.1082
  47   2.0000      -0.511244       -13.9117
  48   2.0000      -0.510008       -13.8780
  49   2.0000      -0.495546       -13.4845
  50   2.0000      -0.487016       -13.2524
  51   2.0000      -0.479932       -13.0596
  52   2.0000      -0.466378       -12.6908
  53   2.0000      -0.464049       -12.6274
  54   2.0000      -0.458667       -12.4810
  55   2.0000      -0.448697       -12.2097
  56   2.0000      -0.445831       -12.1317
  57   2.0000      -0.441355       -12.0099
  58   2.0000      -0.435098       -11.8396
  59   2.0000      -0.423438       -11.5223
  60   2.0000      -0.417019       -11.3477
  61   2.0000      -0.413562       -11.2536
  62   2.0000      -0.410499       -11.1703
  63   2.0000      -0.337949        -9.1961
  64   2.0000      -0.328424        -8.9369
  65   2.0000      -0.322077        -8.7642
  66   2.0000      -0.306021        -8.3273
  67   0.0000       0.044133         1.2009
  68   0.0000       0.057229         1.5573
  69   0.0000       0.115349         3.1388
  70   0.0000       0.120466         3.2781
  71   0.0000       0.131180         3.5696

MULLIKEN ATOMIC CHARGES
-----------------------
   0 S :    0.106406
   1 C :   -0.097445
   2 C :   -0.099529
   3 C :    0.056191
   4 C :   -0.203210
   5 H :    0.021715
   6 C :    0.073967
   7 H :    0.033661
   8 H :    0.006050
   9 C :   -0.008700
  10 H :    0.010400
  11 H :    0.032371
  12 C :   -0.079819
  13 H :    0.023878
  14 H :    0.036285
  15 H :    0.029998
  16 S :    0.098870
  17 C :   -0.086851
  18 C :   -0.020137
  19 C :   -0.015017
  20 C :   -0.163064
  21 H :    0.025240
  22 C :    0.042624
  23 H :    0.029966
  24 H :    0.026433
  25 C :   -0.083655
  26 H :    0.025434
  27 H :    0.031951
  28 C :   -0.016720
  29 H :    0.029856
  30 H :    0.018432
  31 H :    0.024294
  32 H :    0.032123
  33 H :    0.058002
Sum of atomic charges:   -0.0000000

LOEWDIN ATOMIC CHARGES
----------------------
   0 S :    0.397435
   1 C :   -0.193627
   2 C :   -0.070768
   3 C :   -0.054445
   4 C :   -0.187925
   5 H :    0.040301
   6 C :   -0.026966
   7 H :    0.037009
   8 H :    0.023504
   9 C :   -0.029800
  10 H :    0.017630
  11 H :    0.023538
  12 C :   -0.070654
  13 H :    0.020243
  14 H :    0.022047
  15 H :    0.030699
  16 S :    0.402058
  17 C :   -0.175201
  18 C :   -0.072307
  19 C :   -0.047969
  20 C :   -0.214458
  21 H :    0.030676
  22 C :   -0.045702
  23 H :    0.034529
  24 H :    0.037962
  25 C :   -0.036879
  26 H :    0.025441
  27 H :    0.023091
  28 C :   -0.051773
  29 H :    0.019762
  30 H :    0.025546
  31 H :    0.019389
  32 H :    0.023978
  33 H :    0.023635

  Mayer bond orders larger than 0.100000
B(  0-S ,  1-C ) :   1.1328 B(  0-S ,  4-C ) :   1.1433 B(  1-C ,  2-C ) :   1.6584
B(  1-C , 32-H ) :   0.9678 B(  2-C ,  3-C ) :   1.1931 B(  2-C ,  6-C ) :   1.0008
B(  3-C ,  4-C ) :   1.6312 B(  3-C ,  5-H ) :   0.9959 B(  4-C , 20-C ) :   1.0064
B(  6-C ,  7-H ) :   0.9478 B(  6-C ,  8-H ) :   0.9414 B(  6-C ,  9-C ) :   1.0601
B(  9-C , 10-H ) :   0.9574 B(  9-C , 11-H ) :   0.9607 B(  9-C , 12-C ) :   1.0728
B( 12-C , 13-H ) :   0.9736 B( 12-C , 14-H ) :   0.9780 B( 12-C , 15-H ) :   0.9722
B( 16-S , 17-C ) :   1.1703 B( 16-S , 20-C ) :   1.1384 B( 17-C , 18-C ) :   1.5690
B( 17-C , 33-H ) :   0.9770 B( 18-C , 19-C ) :   1.2519 B( 18-C , 21-H ) :   0.9883
B( 19-C , 20-C ) :   1.5813 B( 19-C , 22-C ) :   1.0466 B( 22-C , 23-H ) :   0.9339
B( 22-C , 24-H ) :   0.9344 B( 22-C , 25-C ) :   1.0581 B( 25-C , 26-H ) :   0.9592
B( 25-C , 27-H ) :   0.9555 B( 25-C , 28-C ) :   1.0792 B( 28-C , 29-H ) :   0.9754
B( 28-C , 30-H ) :   0.9749 B( 28-C , 31-H ) :   0.9761

Dispersion correction           -0.014272010
FINAL SINGLE POINT ENERGY     -1339.874599220045

DIPOLE MOMENT
-------------
                                X             Y             Z
Electronic contribution:     12.65322       3.36143     -26.44583
Nuclear contribution   :    -12.84031      -3.49859      27.10144
                        -----------------------------------------
Total Dipole Moment    :     -0.18709      -0.13716       0.65562
                        -----------------------------------------
Magnitude (a.u.)       :      0.69545
Magnitude (Debye)      :      1.76769

Rotational constants in cm-1:     0.015905     0.009479     0.006878
Rotational constants in MHz :   476.823995   284.180874   206.196290

                             ****ORCA TERMINATED NORMALLY****
TOTAL RUN TIME: 0 days 0 hours 0 minutes 21 seconds 846 msec
