                         Program Version 4.2.1 -  RELEASE  -
|  1> ! wB97X-D3 SP def2-SVP
|  2> %pal
|  3> nprocs 24
|  4> end
|  5>
|  6> * xyz 0 1
|  7> S 	 21.2082 	 0.343057 	 -109.941
|  8> C 	 20.239 	 -0.115586 	 -108.591
|  9> C 	 18.8878 	 -0.192067 	 -108.891
| 10> C 	 18.6802 	 0.0871255 	 -110.245
| 11> C 	 19.7786 	 0.274739 	 -110.97
| 12> H 	 17.7815 	 0.0468509 	 -110.79
| 13> C 	 17.8296 	 -0.620822 	 -107.911
| 14> H 	 17.2513 	 0.262301 	 -107.627
| 15> H 	 18.3064 	 -0.88625 	 -107.007
| 16> C 	 16.9068 	 -1.7315 	 -108.38
| 17> H 	 16.2536 	 -1.91063 	 -107.559
| 18> H 	 16.3135 	 -1.30474 	 -109.268
| 19> C 	 17.5757 	 -3.04395 	 -108.816
| 20> H 	 16.9438 	 -3.71684 	 -109.386
| 21> H 	 18.3854 	 -2.86351 	 -109.513
| 22> H 	 18.1097 	 -3.68108 	 -108.093
| 23> S 	 20.5041 	 2.22087 	 -112.836
| 24> C 	 19.9589 	 2.03718 	 -114.518
| 25> C 	 19.5006 	 0.772131 	 -114.738
| 26> C 	 19.3208 	 0.00434065 	 -113.513
| 27> C 	 19.8993 	 0.628403 	 -112.393
| 28> H 	 19.3418 	 0.434804 	 -115.767
| 29> C 	 18.7423 	 -1.42403 	 -113.57
| 30> H 	 17.7575 	 -1.27255 	 -114.124
| 31> H 	 18.3994 	 -1.58328 	 -112.513
| 32> C 	 19.6136 	 -2.49129 	 -114.138
| 33> H 	 19.9316 	 -2.97019 	 -113.283
| 34> H 	 20.4641 	 -2.01554 	 -114.735
| 35> C 	 18.8851 	 -3.42136 	 -115.037
| 36> H 	 18.5044 	 -2.91979 	 -115.973
| 37> H 	 18.044 	 -3.82071 	 -114.562
| 38> H 	 19.5714 	 -4.20591 	 -115.377
| 39> H 	 20.6826 	 -0.367182 	 -107.718
| 40> H 	 20.2733 	 2.66329 	 -115.349
| 41> *
| 42>
| 43>                          ****END OF INPUT****

CARTESIAN COORDINATES (ANGSTROEM)
---------------------------------
  S     21.208200    0.343057  -109.941000
  C     20.239000   -0.115586  -108.591000
  C     18.887800   -0.192067  -108.891000
  C     18.680200    0.087125  -110.245000
  C     19.778600    0.274739  -110.970000
  H     17.781500    0.046851  -110.790000
  C     17.829600   -0.620822  -107.911000
  H     17.251300    0.262301  -107.627000
  H     18.306400   -0.886250  -107.007000
  C     16.906800   -1.731500  -108.380000
  H     16.253600   -1.910630  -107.559000
  H     16.313500   -1.304740  -109.268000
  C     17.575700   -3.043950  -108.816000
  H     16.943800   -3.716840  -109.386000
  H     18.385400   -2.863510  -109.513000
  H     18.109700   -3.681080  -108.093000
  S     20.504100    2.220870  -112.836000
  C     19.958900    2.037180  -114.518000
  C     19.500600    0.772131  -114.738000
  C     19.320800    0.004341  -113.513000
  C     19.899300    0.628403  -112.393000
  H     19.341800    0.434804  -115.767000
  C     18.742300   -1.424030  -113.570000
  H     17.757500   -1.272550  -114.124000
  H     18.399400   -1.583280  -112.513000
  C     19.613600   -2.491290  -114.138000
  H     19.931600   -2.970190  -113.283000
  H     20.464100   -2.015540  -114.735000
  C     18.885100   -3.421360  -115.037000
  H     18.504400   -2.919790  -115.973000
  H     18.044000   -3.820710  -114.562000
  H     19.571400   -4.205910  -115.377000
  H     20.682600   -0.367182  -107.718000
  H     20.273300    2.663290  -115.349000

 Total Charge           Charge          ....    0
 Multiplicity           Mult            ....    1
 Number of Electrons    NEL             ....  134
 Basis Dimension        Dim             ....  322

ORBITAL ENERGIES
----------------

  NO   OCC          E(Eh)            E(eV)
   0   2.0000     -88.962884     -2420.8032
   1   2.0000     -88.962539     -2420.7938
   2   2.0000     -10.328964      -281.0654
   3   2.0000     -10.324293      -280.9383
   4   2.0000     -10.316684      -280.7313
   5   2.0000     -10.307002      -280.4678
   6   2.0000     -10.305320      -280.4220
   7   2.0000     -10.297943      -280.2213
   8   2.0000     -10.295679      -280.1597
   9   2.0000     -10.294403      -280.1250
  10   2.0000     -10.293978      -280.1134
  11   2.0000     -10.288346      -279.9601
  12   2.0000     -10.284358      -279.8516
  13   2.0000     -10.279296      -279.7139
  14   2.0000     -10.276893      -279.6485
  15   2.0000     -10.274839      -279.5926
  16   2.0000      -8.078093      -219.8161
  17   2.0000      -8.077101      -219.7891
  18   2.0000      -6.036424      -164.2594
  19   2.0000      -6.035827      -164.2432
  20   2.0000      -6.032588      -164.1551
  21   2.0000      -6.031688      -164.1306
  22   2.0000      -6.028903      -164.0548
  23   2.0000      -6.027643      -164.0205
  24   2.0000      -1.010280       -27.4911
  25   2.0000      -0.982822       -26.7439
  26   2.0000      -0.916937       -24.9511
  27   2.0000      -0.914933       -24.8966
  28   2.0000      -0.871510       -23.7150
  29   2.0000      -0.852451       -23.1964
  30   2.0000      -0.845321       -23.0024
  31   2.0000      -0.822079       -22.3699
  32   2.0000      -0.787411       -21.4266
  33   2.0000      -0.771048       -20.9813
  34   2.0000      -0.711848       -19.3704
  35   2.0000      -0.698660       -19.0115
  36   2.0000      -0.692787       -18.8517
  37   2.0000      -0.656401       -17.8616
  38   2.0000      -0.651920       -17.7396
  39   2.0000      -0.628754       -17.1093
  40   2.0000      -0.594183       -16.1685
  41   2.0000      -0.568330       -15.4650
  42   2.0000      -0.562935       -15.3182
  43   2.0000      -0.551719       -15.0130
  44   2.0000      -0.541280       -14.7290
  45   2.0000      -0.535296       -14.5662
  46   2.0000      -0.522059       -14.2059
  47   2.0000      -0.518534       -14.1100
  48   2.0000      -0.503309       -13.6957
  49   2.0000      -0.501193       -13.6382
  50   2.0000      -0.490229       -13.3398
  51   2.0000      -0.480072       -13.0634
  52   2.0000      -0.467020       -12.7083
  53   2.0000      -0.463774       -12.6199
  54   2.0000      -0.460241       -12.5238
  55   2.0000      -0.447380       -12.1738
  56   2.0000      -0.443865       -12.0782
  57   2.0000      -0.440945       -11.9987
  58   2.0000      -0.434724       -11.8294
  59   2.0000      -0.422481       -11.4963
  60   2.0000      -0.419769       -11.4225
  61   2.0000      -0.415857       -11.3161
  62   2.0000      -0.408549       -11.1172
  63   2.0000      -0.351002        -9.5513
  64   2.0000      -0.332713        -9.0536
  65   2.0000      -0.324428        -8.8281
  66   2.0000      -0.296479        -8.0676
  67   0.0000       0.036912         1.0044
  68   0.0000       0.066102         1.7987
  69   0.0000       0.112703         3.0668
  70   0.0000       0.122132         3.3234
  71   0.0000       0.127568         3.4713

MULLIKEN ATOMIC CHARGES
-----------------------
   0 S :    0.100373
   1 C :   -0.080900
   2 C :   -0.093247
   3 C :    0.053469
   4 C :   -0.181442
   5 H :   -0.006376
   6 C :    0.122205
   7 H :    0.038257
   8 H :   -0.004735
   9 C :   -0.076246
  10 H :    0.031533
  11 H :    0.043247
  12 C :   -0.053283
  13 H :    0.028571
  14 H :    0.025319
  15 H :    0.028731
  16 S :    0.092633
  17 C :   -0.093898
  18 C :   -0.035137
  19 C :   -0.102950
  20 C :   -0.110281
  21 H :    0.028549
  22 C :    0.022637
  23 H :    0.032819
  24 H :    0.022116
  25 C :    0.000994
  26 H :    0.018123
  27 H :    0.047700
  28 C :   -0.055357
  29 H :    0.031277
  30 H :    0.022150
  31 H :    0.035970
  32 H :    0.003399
  33 H :    0.063781
Sum of atomic charges:    0.0000000

LOEWDIN ATOMIC CHARGES
----------------------
   0 S :    0.403876
   1 C :   -0.178316
   2 C :   -0.060353
   3 C :   -0.058490
   4 C :   -0.183937
   5 H :    0.026423
   6 C :   -0.028729
   7 H :    0.038595
   8 H :    0.022510
   9 C :   -0.038953
  10 H :    0.023401
  11 H :    0.033924
  12 C :   -0.077404
  13 H :    0.026483
  14 H :    0.025447
  15 H :    0.028044
  16 S :    0.384775
  17 C :   -0.181518
  18 C :   -0.071301
  19 C :   -0.057407
  20 C :   -0.200745
  21 H :    0.034764
  22 C :   -0.040870
  23 H :    0.034021
  24 H :    0.031190
  25 C :   -0.042756
  26 H :    0.021978
  27 H :    0.037011
  28 C :   -0.059998
  29 H :    0.028750
  30 H :    0.015725
  31 H :    0.028839
  32 H :    0.002133
  33 H :    0.032889

  Mayer bond orders larger than 0.100000
B(  0-S ,  1-C ) :   1.1537 B(  0-S ,  4-C ) :   1.1418 B(  1-C ,  2-C ) :   1.5993
B(  1-C , 32-H ) :   0.9824 B(  2-C ,  3-C ) :   1.2176 B(  2-C ,  6-C ) :   1.0257
B(  3-C ,  4-C ) :   1.6212 B(  3-C ,  5-H ) :   1.0004 B(  4-C , 20-C ) :   0.9943
B(  6-C ,  7-H ) :   0.9281 B(  6-C ,  8-H ) :   0.9315 B(  6-C ,  9-C ) :   1.0802
B(  9-C , 10-H ) :   0.9548 B(  9-C , 11-H ) :   0.9519 B(  9-C , 12-C ) :   1.0693
B( 12-C , 13-H ) :   0.9751 B( 12-C , 14-H ) :   0.9706 B( 12-C , 15-H ) :   0.9736
B( 16-S , 17-C ) :   1.1371 B( 16-S , 20-C ) :   1.1315 B( 17-C , 18-C ) :   1.6534
B( 17-C , 33-H ) :   0.9594 B( 18-C , 19-C ) :   1.2110 B( 18-C , 21-H ) :   0.9843
B( 19-C , 20-C ) :   1.6188 B( 19-C , 22-C ) :   1.0452 B( 22-C , 23-H ) :   0.9410
B( 22-C , 24-H ) :   0.9286 B( 22-C , 25-C ) :   1.0279 B( 25-C , 26-H ) :   0.9464
B( 25-C , 27-H ) :   0.9625 B( 25-C , 28-C ) :   1.0931 B( 28-C , 29-H ) :   0.9742
B( 28-C , 30-H ) :   0.9742 B( 28-C , 31-H ) :   0.9707

Dispersion correction           -0.014677143
FINAL SINGLE POINT ENERGY     -1339.868220065458

DIPOLE MOMENT
-------------
                                X             Y             Z
Electronic contribution:     15.97314      23.81398       1.29478
Nuclear contribution   :    -16.38916     -24.35220      -1.34401
                        -----------------------------------------
Total Dipole Moment    :     -0.41601      -0.53822      -0.04923
                        -----------------------------------------
Magnitude (a.u.)       :      0.68203
Magnitude (Debye)      :      1.73359

Rotational constants in cm-1:     0.016775     0.009799     0.007099
Rotational constants in MHz :   502.914126   293.753640   212.811938

                             ****ORCA TERMINATED NORMALLY****
TOTAL RUN TIME: 0 days 0 hours 0 minutes 22 seconds 221 msec
