                         Program Version 4.2.1 -  RELEASE  -
|  1> ! wB97X-D3 SP def2-SVP
|  2> %pal
|  3> nprocs 24
|  4> end
|  5>
|  6> * xyz 0 1
|  7> S 	 -36.6345 	 6.18843 	 -5.09112
|  8> C 	 -36.965 	 4.46786 	 -5.42397
|  9> C 	 -36.3164 	 3.70167 	 -4.49284
| 10> C 	 -35.6429 	 4.45539 	 -3.4844
| 11> C 	 -35.6934 	 5.79874 	 -3.6762
| 12> H 	 -35.3898 	 3.99989 	 -2.55654
| 13> C 	 -36.3923 	 2.17563 	 -4.52348
| 14> H 	 -37.3254 	 1.84598 	 -4.9863
| 15> H 	 -36.5513 	 1.9497 	 -3.44632
| 16> C 	 -35.0521 	 1.48361 	 -4.93959
| 17> H 	 -34.8701 	 1.86899 	 -5.94359
| 18> H 	 -34.1809 	 1.76995 	 -4.27378
| 19> C 	 -35.1967 	 -0.00519586 	 -5.0762
| 20> H 	 -35.8991 	 -0.326036 	 -5.84059
| 21> H 	 -34.263 	 -0.415162 	 -5.47545
| 22> H 	 -35.3342 	 -0.467103 	 -4.07594
| 23> S 	 -36.4812 	 7.77674 	 -2.13095
| 24> C 	 -35.3633 	 8.40444 	 -0.986876
| 25> C 	 -34.084 	 7.97968 	 -1.16226
| 26> C 	 -34.0816 	 6.83976 	 -2.02437
| 27> C 	 -35.1824 	 6.79112 	 -2.7698
| 28> H 	 -33.4581 	 8.23943 	 -0.38339
| 29> C 	 -32.7793 	 6.06615 	 -2.35141
| 30> H 	 -32.9754 	 5.41273 	 -3.15479
| 31> H 	 -32.6199 	 5.38405 	 -1.52083
| 32> C 	 -31.499 	 6.88663 	 -2.6438
| 33> H 	 -30.6155 	 6.30063 	 -2.68788
| 34> H 	 -31.2673 	 7.47997 	 -1.71741
| 35> C 	 -31.4802 	 7.78826 	 -3.91211
| 36> H 	 -31.4026 	 7.11092 	 -4.82309
| 37> H 	 -30.7491 	 8.49925 	 -3.79549
| 38> H 	 -32.4593 	 8.35473 	 -3.98284
| 39> H 	 -37.5381 	 3.99107 	 -6.27292
| 40> H 	 -35.5263 	 9.20702 	 -0.285751
| 41> *
| 42>
| 43>                          ****END OF INPUT****

CARTESIAN COORDINATES (ANGSTROEM)
---------------------------------
  S    -36.634500    6.188430   -5.091120
  C    -36.965000    4.467860   -5.423970
  C    -36.316400    3.701670   -4.492840
  C    -35.642900    4.455390   -3.484400
  C    -35.693400    5.798740   -3.676200
  H    -35.389800    3.999890   -2.556540
  C    -36.392300    2.175630   -4.523480
  H    -37.325400    1.845980   -4.986300
  H    -36.551300    1.949700   -3.446320
  C    -35.052100    1.483610   -4.939590
  H    -34.870100    1.868990   -5.943590
  H    -34.180900    1.769950   -4.273780
  C    -35.196700   -0.005196   -5.076200
  H    -35.899100   -0.326036   -5.840590
  H    -34.263000   -0.415162   -5.475450
  H    -35.334200   -0.467103   -4.075940
  S    -36.481200    7.776740   -2.130950
  C    -35.363300    8.404440   -0.986876
  C    -34.084000    7.979680   -1.162260
  C    -34.081600    6.839760   -2.024370
  C    -35.182400    6.791120   -2.769800
  H    -33.458100    8.239430   -0.383390
  C    -32.779300    6.066150   -2.351410
  H    -32.975400    5.412730   -3.154790
  H    -32.619900    5.384050   -1.520830
  C    -31.499000    6.886630   -2.643800
  H    -30.615500    6.300630   -2.687880
  H    -31.267300    7.479970   -1.717410
  C    -31.480200    7.788260   -3.912110
  H    -31.402600    7.110920   -4.823090
  H    -30.749100    8.499250   -3.795490
  H    -32.459300    8.354730   -3.982840
  H    -37.538100    3.991070   -6.272920
  H    -35.526300    9.207020   -0.285751

 Total Charge           Charge          ....    0
 Multiplicity           Mult            ....    1
 Number of Electrons    NEL             ....  134
 Basis Dimension        Dim             ....  322

ORBITAL ENERGIES
----------------

  NO   OCC          E(Eh)            E(eV)
   0   2.0000     -88.964605     -2420.8500
   1   2.0000     -88.963074     -2420.8083
   2   2.0000     -10.325058      -280.9591
   3   2.0000     -10.317049      -280.7412
   4   2.0000     -10.314942      -280.6838
   5   2.0000     -10.311114      -280.5797
   6   2.0000     -10.301381      -280.3148
   7   2.0000     -10.295696      -280.1601
   8   2.0000     -10.294400      -280.1249
   9   2.0000     -10.292389      -280.0701
  10   2.0000     -10.288664      -279.9688
  11   2.0000     -10.286712      -279.9157
  12   2.0000     -10.286092      -279.8988
  13   2.0000     -10.283532      -279.8291
  14   2.0000     -10.279100      -279.7085
  15   2.0000     -10.277248      -279.6581
  16   2.0000      -8.078968      -219.8399
  17   2.0000      -8.078895      -219.8379
  18   2.0000      -6.037532      -164.2896
  19   2.0000      -6.037376      -164.2854
  20   2.0000      -6.033491      -164.1796
  21   2.0000      -6.033469      -164.1790
  22   2.0000      -6.029561      -164.0727
  23   2.0000      -6.029516      -164.0715
  24   2.0000      -1.017406       -27.6850
  25   2.0000      -0.987655       -26.8755
  26   2.0000      -0.909705       -24.7543
  27   2.0000      -0.902196       -24.5500
  28   2.0000      -0.875888       -23.8341
  29   2.0000      -0.851839       -23.1797
  30   2.0000      -0.845204       -22.9992
  31   2.0000      -0.818263       -22.2661
  32   2.0000      -0.784859       -21.3571
  33   2.0000      -0.772633       -21.0244
  34   2.0000      -0.708971       -19.2921
  35   2.0000      -0.695774       -18.9330
  36   2.0000      -0.693255       -18.8644
  37   2.0000      -0.662115       -18.0171
  38   2.0000      -0.633978       -17.2514
  39   2.0000      -0.623120       -16.9559
  40   2.0000      -0.593059       -16.1380
  41   2.0000      -0.569096       -15.4859
  42   2.0000      -0.562310       -15.3012
  43   2.0000      -0.552837       -15.0434
  44   2.0000      -0.539220       -14.6729
  45   2.0000      -0.522469       -14.2171
  46   2.0000      -0.519329       -14.1317
  47   2.0000      -0.511346       -13.9144
  48   2.0000      -0.503825       -13.7098
  49   2.0000      -0.496764       -13.5176
  50   2.0000      -0.488623       -13.2961
  51   2.0000      -0.479316       -13.0429
  52   2.0000      -0.469681       -12.7807
  53   2.0000      -0.462754       -12.5922
  54   2.0000      -0.456650       -12.4261
  55   2.0000      -0.450519       -12.2592
  56   2.0000      -0.442338       -12.0366
  57   2.0000      -0.438978       -11.9452
  58   2.0000      -0.436892       -11.8884
  59   2.0000      -0.420835       -11.4515
  60   2.0000      -0.417344       -11.3565
  61   2.0000      -0.409910       -11.1542
  62   2.0000      -0.408538       -11.1169
  63   2.0000      -0.349691        -9.5156
  64   2.0000      -0.335483        -9.1290
  65   2.0000      -0.327046        -8.8994
  66   2.0000      -0.296737        -8.0746
  67   0.0000       0.036439         0.9916
  68   0.0000       0.072675         1.9776
  69   0.0000       0.114293         3.1101
  70   0.0000       0.117609         3.2003
  71   0.0000       0.129267         3.5175

MULLIKEN ATOMIC CHARGES
-----------------------
   0 S :    0.098704
   1 C :   -0.139857
   2 C :   -0.106883
   3 C :    0.038021
   4 C :   -0.135158
   5 H :    0.008392
   6 C :    0.046213
   7 H :    0.024033
   8 H :    0.018904
   9 C :   -0.081042
  10 H :    0.025614
  11 H :    0.046448
  12 C :   -0.034994
  13 H :    0.033097
  14 H :    0.025326
  15 H :    0.037440
  16 S :    0.108490
  17 C :   -0.085225
  18 C :    0.009238
  19 C :   -0.090928
  20 C :   -0.115431
  21 H :    0.002982
  22 C :    0.095393
  23 H :    0.009280
  24 H :    0.023448
  25 C :   -0.086745
  26 H :    0.017865
  27 H :    0.020342
  28 C :   -0.041566
  29 H :    0.048675
  30 H :    0.022568
  31 H :    0.044379
  32 H :    0.065705
  33 H :    0.047273
Sum of atomic charges:   -0.0000000

LOEWDIN ATOMIC CHARGES
----------------------
   0 S :    0.387065
   1 C :   -0.205237
   2 C :   -0.064419
   3 C :   -0.069284
   4 C :   -0.192011
   5 H :    0.028140
   6 C :   -0.035410
   7 H :    0.029513
   8 H :    0.030494
   9 C :   -0.043477
  10 H :    0.023404
  11 H :    0.034294
  12 C :   -0.070517
  13 H :    0.026584
  14 H :    0.027351
  15 H :    0.027993
  16 S :    0.414500
  17 C :   -0.175646
  18 C :   -0.070916
  19 C :   -0.048533
  20 C :   -0.195166
  21 H :    0.022175
  22 C :   -0.024748
  23 H :    0.020390
  24 H :    0.032905
  25 C :   -0.044567
  26 H :    0.019718
  27 H :    0.023555
  28 C :   -0.061933
  29 H :    0.035069
  30 H :    0.013724
  31 H :    0.033867
  32 H :    0.044405
  33 H :    0.026716

  Mayer bond orders larger than 0.100000
B(  0-S ,  1-C ) :   1.1029 B(  0-S ,  4-C ) :   1.1481 B(  1-C ,  2-C ) :   1.6485
B(  1-C , 32-H ) :   0.9614 B(  2-C ,  3-C ) :   1.2347 B(  2-C ,  6-C ) :   1.0194
B(  3-C ,  4-C ) :   1.5850 B(  3-C ,  5-H ) :   0.9936 B(  4-C , 20-C ) :   1.0115
B(  6-C ,  7-H ) :   0.9508 B(  6-C ,  8-H ) :   0.9353 B(  6-C ,  9-C ) :   1.0449
B(  9-C , 10-H ) :   0.9558 B(  9-C , 11-H ) :   0.9537 B(  9-C , 12-C ) :   1.0977
B( 12-C , 13-H ) :   0.9718 B( 12-C , 14-H ) :   0.9701 B( 12-C , 15-H ) :   0.9729
B( 16-S , 17-C ) :   1.1630 B( 16-S , 20-C ) :   1.1205 B( 17-C , 18-C ) :   1.6692
B( 17-C , 33-H ) :   0.9580 B( 18-C , 19-C ) :   1.1857 B( 18-C , 21-H ) :   0.9808
B( 19-C , 20-C ) :   1.6663 B( 19-C , 22-C ) :   1.0359 B( 22-C , 23-H ) :   0.9429
B( 22-C , 24-H ) :   0.9246 B( 22-C , 25-C ) :   1.0750 B( 25-C , 26-H ) :   0.9529
B( 25-C , 27-H ) :   0.9508 B( 25-C , 28-C ) :   1.0700 B( 28-C , 29-H ) :   0.9752
B( 28-C , 30-H ) :   0.9742 B( 28-C , 31-H ) :   0.9776

Dispersion correction           -0.014175112
FINAL SINGLE POINT ENERGY     -1339.858408520818

DIPOLE MOMENT
-------------
                                X             Y             Z
Electronic contribution:    -18.26565      18.95081       2.98800
Nuclear contribution   :     18.65291     -19.47049      -2.68718
                        -----------------------------------------
Total Dipole Moment    :      0.38725      -0.51968       0.30082
                        -----------------------------------------
Magnitude (a.u.)       :      0.71451
Magnitude (Debye)      :      1.81614

Rotational constants in cm-1:     0.019198     0.008235     0.006780
Rotational constants in MHz :   575.544941   246.867997   203.251913

                             ****ORCA TERMINATED NORMALLY****
TOTAL RUN TIME: 0 days 0 hours 0 minutes 20 seconds 408 msec
