                         Program Version 4.2.1 -  RELEASE  -
|  1> ! wB97X-D3 SP def2-SVP
|  2> %pal
|  3> nprocs 24
|  4> end
|  5>
|  6> * xyz 0 1
|  7> S 	 -69.5948 	 18.8492 	 -109.085
|  8> C 	 -68.5651 	 18.465 	 -107.669
|  9> C 	 -67.2082 	 18.4726 	 -108.016
| 10> C 	 -67.0185 	 19.1509 	 -109.288
| 11> C 	 -68.1295 	 19.3044 	 -110.043
| 12> H 	 -66.0986 	 19.377 	 -109.74
| 13> C 	 -66.0845 	 17.9306 	 -107.098
| 14> H 	 -65.1787 	 17.7862 	 -107.685
| 15> H 	 -66.3752 	 16.9132 	 -106.779
| 16> C 	 -65.5711 	 18.7247 	 -105.845
| 17> H 	 -65.1156 	 19.6512 	 -106.193
| 18> H 	 -66.2833 	 19.0829 	 -105.147
| 19> C 	 -64.5004 	 17.9032 	 -105.036
| 20> H 	 -64.1991 	 18.4948 	 -104.141
| 21> H 	 -64.9144 	 16.9691 	 -104.668
| 22> H 	 -63.7194 	 17.5931 	 -105.77
| 23> S 	 -67.7277 	 21.5304 	 -111.545
| 24> C 	 -68.1274 	 21.5178 	 -113.196
| 25> C 	 -68.6424 	 20.3064 	 -113.611
| 26> C 	 -68.7315 	 19.3678 	 -112.542
| 27> C 	 -68.2605 	 19.9096 	 -111.356
| 28> H 	 -68.9873 	 20.1333 	 -114.575
| 29> C 	 -69.2273 	 17.9439 	 -112.84
| 30> H 	 -70.1495 	 17.9573 	 -113.476
| 31> H 	 -69.5431 	 17.4705 	 -111.884
| 32> C 	 -68.1957 	 17.0253 	 -113.501
| 33> H 	 -67.8964 	 17.3311 	 -114.477
| 34> H 	 -68.7114 	 15.9817 	 -113.625
| 35> C 	 -67.0124 	 16.7103 	 -112.705
| 36> H 	 -66.4557 	 17.6538 	 -112.571
| 37> H 	 -66.369 	 16.0134 	 -113.246
| 38> H 	 -67.2192 	 16.2554 	 -111.709
| 39> H 	 -69.0074 	 17.9003 	 -106.889
| 40> H 	 -68.185 	 22.3711 	 -113.817
| 41> *
| 42>
| 43>                          ****END OF INPUT****

CARTESIAN COORDINATES (ANGSTROEM)
---------------------------------
  S    -69.594800   18.849200  -109.085000
  C    -68.565100   18.465000  -107.669000
  C    -67.208200   18.472600  -108.016000
  C    -67.018500   19.150900  -109.288000
  C    -68.129500   19.304400  -110.043000
  H    -66.098600   19.377000  -109.740000
  C    -66.084500   17.930600  -107.098000
  H    -65.178700   17.786200  -107.685000
  H    -66.375200   16.913200  -106.779000
  C    -65.571100   18.724700  -105.845000
  H    -65.115600   19.651200  -106.193000
  H    -66.283300   19.082900  -105.147000
  C    -64.500400   17.903200  -105.036000
  H    -64.199100   18.494800  -104.141000
  H    -64.914400   16.969100  -104.668000
  H    -63.719400   17.593100  -105.770000
  S    -67.727700   21.530400  -111.545000
  C    -68.127400   21.517800  -113.196000
  C    -68.642400   20.306400  -113.611000
  C    -68.731500   19.367800  -112.542000
  C    -68.260500   19.909600  -111.356000
  H    -68.987300   20.133300  -114.575000
  C    -69.227300   17.943900  -112.840000
  H    -70.149500   17.957300  -113.476000
  H    -69.543100   17.470500  -111.884000
  C    -68.195700   17.025300  -113.501000
  H    -67.896400   17.331100  -114.477000
  H    -68.711400   15.981700  -113.625000
  C    -67.012400   16.710300  -112.705000
  H    -66.455700   17.653800  -112.571000
  H    -66.369000   16.013400  -113.246000
  H    -67.219200   16.255400  -111.709000
  H    -69.007400   17.900300  -106.889000
  H    -68.185000   22.371100  -113.817000

 Total Charge           Charge          ....    0
 Multiplicity           Mult            ....    1
 Number of Electrons    NEL             ....  134
 Basis Dimension        Dim             ....  322

ORBITAL ENERGIES
----------------

  NO   OCC          E(Eh)            E(eV)
   0   2.0000     -88.969390     -2420.9802
   1   2.0000     -88.961911     -2420.7767
   2   2.0000     -10.329969      -281.0928
   3   2.0000     -10.323209      -280.9088
   4   2.0000     -10.316023      -280.7133
   5   2.0000     -10.312837      -280.6266
   6   2.0000     -10.310475      -280.5623
   7   2.0000     -10.302860      -280.3551
   8   2.0000     -10.301647      -280.3221
   9   2.0000     -10.296524      -280.1827
  10   2.0000     -10.292487      -280.0728
  11   2.0000     -10.287907      -279.9482
  12   2.0000     -10.287343      -279.9328
  13   2.0000     -10.286867      -279.9199
  14   2.0000     -10.284206      -279.8475
  15   2.0000     -10.269901      -279.4582
  16   2.0000      -8.085401      -220.0149
  17   2.0000      -8.075276      -219.7394
  18   2.0000      -6.043684      -164.4570
  19   2.0000      -6.039695      -164.3484
  20   2.0000      -6.036351      -164.2575
  21   2.0000      -6.033995      -164.1933
  22   2.0000      -6.030060      -164.0863
  23   2.0000      -6.025818      -163.9708
  24   2.0000      -1.011659       -27.5286
  25   2.0000      -0.979241       -26.6465
  26   2.0000      -0.912835       -24.8395
  27   2.0000      -0.901480       -24.5305
  28   2.0000      -0.870584       -23.6898
  29   2.0000      -0.855629       -23.2829
  30   2.0000      -0.841572       -22.9003
  31   2.0000      -0.816072       -22.2064
  32   2.0000      -0.782726       -21.2990
  33   2.0000      -0.768264       -20.9055
  34   2.0000      -0.704277       -19.1644
  35   2.0000      -0.700422       -19.0595
  36   2.0000      -0.685980       -18.6665
  37   2.0000      -0.667280       -18.1576
  38   2.0000      -0.646364       -17.5885
  39   2.0000      -0.616874       -16.7860
  40   2.0000      -0.600441       -16.3388
  41   2.0000      -0.571378       -15.5480
  42   2.0000      -0.554150       -15.0792
  43   2.0000      -0.550130       -14.9698
  44   2.0000      -0.547100       -14.8874
  45   2.0000      -0.524183       -14.2638
  46   2.0000      -0.517819       -14.0906
  47   2.0000      -0.507548       -13.8111
  48   2.0000      -0.503588       -13.7033
  49   2.0000      -0.496481       -13.5099
  50   2.0000      -0.495999       -13.4968
  51   2.0000      -0.481070       -13.0906
  52   2.0000      -0.466312       -12.6890
  53   2.0000      -0.460182       -12.5222
  54   2.0000      -0.458986       -12.4896
  55   2.0000      -0.444856       -12.1051
  56   2.0000      -0.443538       -12.0693
  57   2.0000      -0.436472       -11.8770
  58   2.0000      -0.434861       -11.8332
  59   2.0000      -0.426023       -11.5927
  60   2.0000      -0.423420       -11.5218
  61   2.0000      -0.415862       -11.3162
  62   2.0000      -0.401050       -10.9131
  63   2.0000      -0.342403        -9.3173
  64   2.0000      -0.336166        -9.1475
  65   2.0000      -0.327621        -8.9150
  66   2.0000      -0.298599        -8.1253
  67   0.0000       0.035511         0.9663
  68   0.0000       0.061378         1.6702
  69   0.0000       0.102110         2.7786
  70   0.0000       0.113521         3.0891
  71   0.0000       0.129747         3.5306

MULLIKEN ATOMIC CHARGES
-----------------------
   0 S :    0.079849
   1 C :   -0.104368
   2 C :   -0.082449
   3 C :    0.041652
   4 C :   -0.133528
   5 H :   -0.006947
   6 C :    0.040538
   7 H :    0.019738
   8 H :    0.031743
   9 C :   -0.048184
  10 H :    0.026035
  11 H :    0.020951
  12 C :   -0.078400
  13 H :    0.051749
  14 H :    0.027579
  15 H :    0.037889
  16 S :    0.144315
  17 C :   -0.072281
  18 C :   -0.016865
  19 C :   -0.033780
  20 C :   -0.182765
  21 H :   -0.008994
  22 C :    0.073994
  23 H :    0.038508
  24 H :    0.018555
  25 C :   -0.080329
  26 H :    0.020351
  27 H :    0.031978
  28 C :   -0.051203
  29 H :    0.033297
  30 H :    0.030044
  31 H :    0.037290
  32 H :    0.049519
  33 H :    0.044520
Sum of atomic charges:    0.0000000

LOEWDIN ATOMIC CHARGES
----------------------
   0 S :    0.357176
   1 C :   -0.175081
   2 C :   -0.053244
   3 C :   -0.059139
   4 C :   -0.169167
   5 H :    0.023022
   6 C :   -0.034534
   7 H :    0.030405
   8 H :    0.032696
   9 C :   -0.037450
  10 H :    0.023508
  11 H :    0.016009
  12 C :   -0.068160
  13 H :    0.034615
  14 H :    0.020557
  15 H :    0.028585
  16 S :    0.455044
  17 C :   -0.196062
  18 C :   -0.060452
  19 C :   -0.054884
  20 C :   -0.219355
  21 H :    0.019767
  22 C :   -0.034446
  23 H :    0.037466
  24 H :    0.027931
  25 C :   -0.046669
  26 H :    0.017082
  27 H :    0.033259
  28 C :   -0.069696
  29 H :    0.025030
  30 H :    0.026201
  31 H :    0.028790
  32 H :    0.018353
  33 H :    0.022842

  Mayer bond orders larger than 0.100000
B(  0-S ,  1-C ) :   1.1276 B(  0-S ,  4-C ) :   1.1137 B(  1-C ,  2-C ) :   1.6367
B(  1-C , 32-H ) :   0.9679 B(  2-C ,  3-C ) :   1.1904 B(  2-C ,  6-C ) :   1.0244
B(  3-C ,  4-C ) :   1.6390 B(  3-C ,  5-H ) :   0.9968 B(  4-C , 20-C ) :   1.0213
B(  6-C ,  7-H ) :   0.9428 B(  6-C ,  8-H ) :   0.9452 B(  6-C ,  9-C ) :   1.0515
B(  9-C , 10-H ) :   0.9561 B(  9-C , 11-H ) :   0.9606 B(  9-C , 12-C ) :   1.0721
B( 12-C , 13-H ) :   0.9735 B( 12-C , 14-H ) :   0.9776 B( 12-C , 15-H ) :   0.9766
B( 16-S , 17-C ) :   1.1755 B( 16-S , 20-C ) :   1.1667 B( 17-C , 18-C ) :   1.5795
B( 17-C , 33-H ) :   0.9705 B( 18-C , 19-C ) :   1.2628 B( 18-C , 21-H ) :   1.0016
B( 19-C , 20-C ) :   1.5669 B( 19-C , 22-C ) :   1.0408 B( 22-C , 23-H ) :   0.9368
B( 22-C , 24-H ) :   0.9269 B( 22-C , 25-C ) :   1.0783 B( 25-C , 26-H ) :   0.9539
B( 25-C , 27-H ) :   0.9506 B( 25-C , 28-C ) :   1.0927 B( 28-C , 29-H ) :   0.9696
B( 28-C , 30-H ) :   0.9690 B( 28-C , 31-H ) :   0.9708

Dispersion correction           -0.014587680
FINAL SINGLE POINT ENERGY     -1339.879868348264

DIPOLE MOMENT
-------------
                                X             Y             Z
Electronic contribution:    -14.21415      17.10331      -6.83797
Nuclear contribution   :     14.51221     -17.41203       6.73271
                        -----------------------------------------
Total Dipole Moment    :      0.29805      -0.30872      -0.10526
                        -----------------------------------------
Magnitude (a.u.)       :      0.44184
Magnitude (Debye)      :      1.12307

Rotational constants in cm-1:     0.021770     0.007291     0.006739
Rotational constants in MHz :   652.655680   218.587392   202.036586

                             ****ORCA TERMINATED NORMALLY****
TOTAL RUN TIME: 0 days 0 hours 0 minutes 20 seconds 331 msec
