                         Program Version 4.2.1 -  RELEASE  -
|  1> ! wB97X-D3 SP def2-SVP
|  2> %pal
|  3> nprocs 24
|  4> end
|  5>
|  6> * xyz 0 1
|  7> S 	 -49.5986 	 -50.851 	 -77.3151
|  8> C 	 -48.3317 	 -50.6811 	 -78.5133
|  9> C 	 -48.872 	 -50.4406 	 -79.8247
| 10> C 	 -50.2896 	 -50.6681 	 -79.7794
| 11> C 	 -50.8509 	 -50.8145 	 -78.5476
| 12> H 	 -50.9944 	 -50.7694 	 -80.5874
| 13> C 	 -48.0643 	 -50.1145 	 -81.0784
| 14> H 	 -47.7107 	 -51.0506 	 -81.4466
| 15> H 	 -47.1498 	 -49.583 	 -80.8003
| 16> C 	 -48.7884 	 -49.3114 	 -82.2558
| 17> H 	 -48.1192 	 -49.1408 	 -83.0703
| 18> H 	 -49.485 	 -50.0435 	 -82.5726
| 19> C 	 -49.3142 	 -47.9999 	 -81.8358
| 20> H 	 -50.1818 	 -48.0298 	 -81.1446
| 21> H 	 -48.4921 	 -47.4797 	 -81.1719
| 22> H 	 -49.5828 	 -47.346 	 -82.668
| 23> S 	 -52.5661 	 -52.4648 	 -77.2289
| 24> C 	 -54.2816 	 -52.086 	 -77.1184
| 25> C 	 -54.5469 	 -50.8884 	 -77.7165
| 26> C 	 -53.3844 	 -50.3185 	 -78.3653
| 27> C 	 -52.2502 	 -51.0216 	 -78.2006
| 28> H 	 -55.531 	 -50.479 	 -77.6869
| 29> C 	 -53.5093 	 -49.0389 	 -79.2067
| 30> H 	 -52.5781 	 -49.0379 	 -79.7744
| 31> H 	 -53.4075 	 -48.2288 	 -78.4599
| 32> C 	 -54.6785 	 -48.8793 	 -80.2041
| 33> H 	 -55.6414 	 -48.9033 	 -79.7336
| 34> H 	 -54.7588 	 -49.885 	 -80.8145
| 35> C 	 -54.6329 	 -47.5731 	 -81.0418
| 36> H 	 -54.6255 	 -46.8132 	 -80.2725
| 37> H 	 -55.5192 	 -47.3758 	 -81.6964
| 38> H 	 -53.7087 	 -47.5866 	 -81.629
| 39> H 	 -47.3082 	 -50.6236 	 -78.1721
| 40> H 	 -54.9685 	 -52.731 	 -76.4843
| 41> *
| 42>
| 43>                          ****END OF INPUT****

CARTESIAN COORDINATES (ANGSTROEM)
---------------------------------
  S    -49.598600  -50.851000  -77.315100
  C    -48.331700  -50.681100  -78.513300
  C    -48.872000  -50.440600  -79.824700
  C    -50.289600  -50.668100  -79.779400
  C    -50.850900  -50.814500  -78.547600
  H    -50.994400  -50.769400  -80.587400
  C    -48.064300  -50.114500  -81.078400
  H    -47.710700  -51.050600  -81.446600
  H    -47.149800  -49.583000  -80.800300
  C    -48.788400  -49.311400  -82.255800
  H    -48.119200  -49.140800  -83.070300
  H    -49.485000  -50.043500  -82.572600
  C    -49.314200  -47.999900  -81.835800
  H    -50.181800  -48.029800  -81.144600
  H    -48.492100  -47.479700  -81.171900
  H    -49.582800  -47.346000  -82.668000
  S    -52.566100  -52.464800  -77.228900
  C    -54.281600  -52.086000  -77.118400
  C    -54.546900  -50.888400  -77.716500
  C    -53.384400  -50.318500  -78.365300
  C    -52.250200  -51.021600  -78.200600
  H    -55.531000  -50.479000  -77.686900
  C    -53.509300  -49.038900  -79.206700
  H    -52.578100  -49.037900  -79.774400
  H    -53.407500  -48.228800  -78.459900
  C    -54.678500  -48.879300  -80.204100
  H    -55.641400  -48.903300  -79.733600
  H    -54.758800  -49.885000  -80.814500
  C    -54.632900  -47.573100  -81.041800
  H    -54.625500  -46.813200  -80.272500
  H    -55.519200  -47.375800  -81.696400
  H    -53.708700  -47.586600  -81.629000
  H    -47.308200  -50.623600  -78.172100
  H    -54.968500  -52.731000  -76.484300

 Total Charge           Charge          ....    0
 Multiplicity           Mult            ....    1
 Number of Electrons    NEL             ....  134
 Basis Dimension        Dim             ....  322

ORBITAL ENERGIES
----------------

  NO   OCC          E(Eh)            E(eV)
   0   2.0000     -88.965342     -2420.8700
   1   2.0000     -88.958565     -2420.6856
   2   2.0000     -10.326649      -281.0024
   3   2.0000     -10.323232      -280.9094
   4   2.0000     -10.322625      -280.8929
   5   2.0000     -10.320321      -280.8302
   6   2.0000     -10.313986      -280.6578
   7   2.0000     -10.303691      -280.3777
   8   2.0000     -10.296908      -280.1931
   9   2.0000     -10.295622      -280.1581
  10   2.0000     -10.294721      -280.1336
  11   2.0000     -10.293399      -280.0976
  12   2.0000     -10.292885      -280.0837
  13   2.0000     -10.286019      -279.8968
  14   2.0000     -10.285775      -279.8902
  15   2.0000     -10.284837      -279.8646
  16   2.0000      -8.079899      -219.8652
  17   2.0000      -8.073505      -219.6912
  18   2.0000      -6.038368      -164.3123
  19   2.0000      -6.034326      -164.2024
  20   2.0000      -6.032101      -164.1418
  21   2.0000      -6.030830      -164.1072
  22   2.0000      -6.028000      -164.0302
  23   2.0000      -6.024119      -163.9246
  24   2.0000      -1.006414       -27.3859
  25   2.0000      -0.981305       -26.7027
  26   2.0000      -0.910759       -24.7830
  27   2.0000      -0.902993       -24.5717
  28   2.0000      -0.871039       -23.7022
  29   2.0000      -0.850939       -23.1552
  30   2.0000      -0.844029       -22.9672
  31   2.0000      -0.818612       -22.2756
  32   2.0000      -0.780749       -21.2453
  33   2.0000      -0.769705       -20.9447
  34   2.0000      -0.707355       -19.2481
  35   2.0000      -0.698758       -19.0142
  36   2.0000      -0.690790       -18.7973
  37   2.0000      -0.657835       -17.9006
  38   2.0000      -0.647042       -17.6069
  39   2.0000      -0.620018       -16.8716
  40   2.0000      -0.592897       -16.1335
  41   2.0000      -0.564902       -15.3718
  42   2.0000      -0.560863       -15.2619
  43   2.0000      -0.556005       -15.1297
  44   2.0000      -0.547062       -14.8863
  45   2.0000      -0.525182       -14.2909
  46   2.0000      -0.518429       -14.1072
  47   2.0000      -0.514249       -13.9934
  48   2.0000      -0.500751       -13.6261
  49   2.0000      -0.495673       -13.4879
  50   2.0000      -0.487496       -13.2654
  51   2.0000      -0.482921       -13.1410
  52   2.0000      -0.466799       -12.7022
  53   2.0000      -0.464416       -12.6374
  54   2.0000      -0.460388       -12.5278
  55   2.0000      -0.453270       -12.3341
  56   2.0000      -0.444793       -12.1034
  57   2.0000      -0.440522       -11.9872
  58   2.0000      -0.431030       -11.7289
  59   2.0000      -0.422306       -11.4915
  60   2.0000      -0.415564       -11.3081
  61   2.0000      -0.414113       -11.2686
  62   2.0000      -0.407757       -11.0956
  63   2.0000      -0.346460        -9.4277
  64   2.0000      -0.329127        -8.9560
  65   2.0000      -0.326354        -8.8806
  66   2.0000      -0.296774        -8.0756
  67   0.0000       0.034599         0.9415
  68   0.0000       0.066775         1.8171
  69   0.0000       0.113539         3.0896
  70   0.0000       0.122016         3.3202
  71   0.0000       0.125929         3.4267

MULLIKEN ATOMIC CHARGES
-----------------------
   0 S :    0.114051
   1 C :   -0.134460
   2 C :   -0.076354
   3 C :    0.028403
   4 C :   -0.168264
   5 H :    0.014118
   6 C :    0.049233
   7 H :    0.035923
   8 H :    0.022990
   9 C :   -0.035511
  10 H :    0.027456
  11 H :    0.024527
  12 C :   -0.085402
  13 H :    0.043759
  14 H :    0.039224
  15 H :    0.042811
  16 S :    0.083216
  17 C :   -0.111379
  18 C :   -0.020320
  19 C :   -0.051386
  20 C :   -0.163188
  21 H :    0.013168
  22 C :    0.090506
  23 H :    0.008890
  24 H :    0.040343
  25 C :   -0.109626
  26 H :    0.021850
  27 H :    0.039733
  28 C :   -0.044272
  29 H :    0.030199
  30 H :    0.049700
  31 H :    0.040623
  32 H :    0.055829
  33 H :    0.083609
Sum of atomic charges:    0.0000000

LOEWDIN ATOMIC CHARGES
----------------------
   0 S :    0.405046
   1 C :   -0.195215
   2 C :   -0.055226
   3 C :   -0.067272
   4 C :   -0.195958
   5 H :    0.030653
   6 C :   -0.029183
   7 H :    0.031346
   8 H :    0.028431
   9 C :   -0.038801
  10 H :    0.026893
  11 H :    0.018552
  12 C :   -0.075958
  13 H :    0.026079
  14 H :    0.039165
  15 H :    0.026901
  16 S :    0.383013
  17 C :   -0.180195
  18 C :   -0.073282
  19 C :   -0.053914
  20 C :   -0.195840
  21 H :    0.028853
  22 C :   -0.035114
  23 H :    0.027883
  24 H :    0.036546
  25 C :   -0.051425
  26 H :    0.014778
  27 H :    0.032775
  28 C :   -0.063519
  29 H :    0.025896
  30 H :    0.034250
  31 H :    0.026352
  32 H :    0.024458
  33 H :    0.043033

  Mayer bond orders larger than 0.100000
B(  0-S ,  1-C ) :   1.1598 B(  0-S ,  4-C ) :   1.1462 B(  1-C ,  2-C ) :   1.5751
B(  1-C ,  4-C ) :   0.1049 B(  1-C , 32-H ) :   0.9735 B(  2-C ,  3-C ) :   1.2264
B(  2-C ,  6-C ) :   1.0115 B(  3-C ,  4-C ) :   1.6079 B(  3-C ,  5-H ) :   0.9854
B(  4-C , 20-C ) :   1.0160 B(  6-C ,  7-H ) :   0.9393 B(  6-C ,  8-H ) :   0.9419
B(  6-C ,  9-C ) :   1.0753 B(  9-C , 10-H ) :   0.9535 B(  9-C , 11-H ) :   0.9498
B(  9-C , 12-C ) :   1.0816 B( 12-C , 13-H ) :   0.9711 B( 12-C , 14-H ) :   0.9699
B( 12-C , 15-H ) :   0.9733 B( 16-S , 17-C ) :   1.1473 B( 16-S , 20-C ) :   1.1208
B( 17-C , 18-C ) :   1.6265 B( 17-C , 33-H ) :   0.9586 B( 18-C , 19-C ) :   1.1980
B( 18-C , 21-H ) :   1.0007 B( 19-C , 20-C ) :   1.6637 B( 19-C , 22-C ) :   1.0291
B( 22-C , 23-H ) :   0.9362 B( 22-C , 24-H ) :   0.9227 B( 22-C , 25-C ) :   1.0536
B( 25-C , 26-H ) :   0.9532 B( 25-C , 27-H ) :   0.9556 B( 25-C , 28-C ) :   1.0685
B( 28-C , 29-H ) :   0.9742 B( 28-C , 30-H ) :   0.9751 B( 28-C , 31-H ) :   0.9792

Dispersion correction           -0.014470036
FINAL SINGLE POINT ENERGY     -1339.875014829929

DIPOLE MOMENT
-------------
                                X             Y             Z
Electronic contribution:      3.44149     -19.67304      23.62800
Nuclear contribution   :     -3.58701      20.07107     -24.13282
                        -----------------------------------------
Total Dipole Moment    :     -0.14552       0.39803      -0.50482
                        -----------------------------------------
Magnitude (a.u.)       :      0.65913
Magnitude (Debye)      :      1.67537

Rotational constants in cm-1:     0.015643     0.010461     0.006737
Rotational constants in MHz :   468.976645   313.620224   201.970498

                             ****ORCA TERMINATED NORMALLY****
TOTAL RUN TIME: 0 days 0 hours 0 minutes 20 seconds 749 msec
