                         Program Version 4.2.1 -  RELEASE  -
|  1> ! wB97X-D3 SP def2-SVP
|  2> %pal
|  3> nprocs 24
|  4> end
|  5>
|  6> * xyz 0 1
|  7> S 	 -117.123 	 59.9968 	 -32.2564
|  8> C 	 -116.695 	 59.7629 	 -30.5997
|  9> C 	 -117.15 	 60.7847 	 -29.8245
| 10> C 	 -117.963 	 61.7239 	 -30.484
| 11> C 	 -118.001 	 61.4453 	 -31.8376
| 12> H 	 -118.326 	 62.6182 	 -30.1206
| 13> C 	 -116.956 	 60.8875 	 -28.3349
| 14> H 	 -117.812 	 60.357 	 -27.9663
| 15> H 	 -116.97 	 61.9407 	 -27.9999
| 16> C 	 -115.625 	 60.2441 	 -27.8402
| 17> H 	 -115.652 	 59.2144 	 -28.1469
| 18> H 	 -114.802 	 60.6443 	 -28.4524
| 19> C 	 -115.365 	 60.2367 	 -26.33
| 20> H 	 -114.549 	 59.5315 	 -26.008
| 21> H 	 -114.991 	 61.2478 	 -25.973
| 22> H 	 -116.33 	 59.9857 	 -25.8902
| 23> S 	 -117.747 	 63.5345 	 -33.6803
| 24> C 	 -119.122 	 63.9408 	 -34.6261
| 25> C 	 -120.211 	 63.0761 	 -34.4078
| 26> C 	 -119.928 	 62.1701 	 -33.3297
| 27> C 	 -118.63 	 62.2305 	 -32.8968
| 28> H 	 -121.221 	 63.1895 	 -34.9352
| 29> C 	 -121.019 	 61.3019 	 -32.6876
| 30> H 	 -121.896 	 61.5623 	 -33.2803
| 31> H 	 -121.156 	 61.6409 	 -31.6557
| 32> C 	 -120.737 	 59.7435 	 -32.7609
| 33> H 	 -119.84 	 59.4929 	 -32.2511
| 34> H 	 -120.524 	 59.3274 	 -33.7953
| 35> C 	 -121.83 	 58.9848 	 -32.0447
| 36> H 	 -122.826 	 59.1849 	 -32.4596
| 37> H 	 -121.773 	 59.1156 	 -30.9864
| 38> H 	 -121.796 	 57.9335 	 -32.2368
| 39> H 	 -116.294 	 58.8388 	 -30.2665
| 40> H 	 -119.165 	 64.5638 	 -35.4486
| 41> *
| 42>
| 43>                          ****END OF INPUT****

CARTESIAN COORDINATES (ANGSTROEM)
---------------------------------
  S    -117.123000   59.996800  -32.256400
  C    -116.695000   59.762900  -30.599700
  C    -117.150000   60.784700  -29.824500
  C    -117.963000   61.723900  -30.484000
  C    -118.001000   61.445300  -31.837600
  H    -118.326000   62.618200  -30.120600
  C    -116.956000   60.887500  -28.334900
  H    -117.812000   60.357000  -27.966300
  H    -116.970000   61.940700  -27.999900
  C    -115.625000   60.244100  -27.840200
  H    -115.652000   59.214400  -28.146900
  H    -114.802000   60.644300  -28.452400
  C    -115.365000   60.236700  -26.330000
  H    -114.549000   59.531500  -26.008000
  H    -114.991000   61.247800  -25.973000
  H    -116.330000   59.985700  -25.890200
  S    -117.747000   63.534500  -33.680300
  C    -119.122000   63.940800  -34.626100
  C    -120.211000   63.076100  -34.407800
  C    -119.928000   62.170100  -33.329700
  C    -118.630000   62.230500  -32.896800
  H    -121.221000   63.189500  -34.935200
  C    -121.019000   61.301900  -32.687600
  H    -121.896000   61.562300  -33.280300
  H    -121.156000   61.640900  -31.655700
  C    -120.737000   59.743500  -32.760900
  H    -119.840000   59.492900  -32.251100
  H    -120.524000   59.327400  -33.795300
  C    -121.830000   58.984800  -32.044700
  H    -122.826000   59.184900  -32.459600
  H    -121.773000   59.115600  -30.986400
  H    -121.796000   57.933500  -32.236800
  H    -116.294000   58.838800  -30.266500
  H    -119.165000   64.563800  -35.448600

 Total Charge           Charge          ....    0
 Multiplicity           Mult            ....    1
 Number of Electrons    NEL             ....  134
 Basis Dimension        Dim             ....  322

ORBITAL ENERGIES
----------------

  NO   OCC          E(Eh)            E(eV)
   0   2.0000     -88.967129     -2420.9186
   1   2.0000     -88.965250     -2420.8675
   2   2.0000     -10.326687      -281.0034
   3   2.0000     -10.317865      -280.7634
   4   2.0000     -10.311312      -280.5851
   5   2.0000     -10.306587      -280.4565
   6   2.0000     -10.299475      -280.2630
   7   2.0000     -10.298329      -280.2318
   8   2.0000     -10.296017      -280.1689
   9   2.0000     -10.293375      -280.0970
  10   2.0000     -10.291598      -280.0486
  11   2.0000     -10.288241      -279.9573
  12   2.0000     -10.288207      -279.9563
  13   2.0000     -10.285667      -279.8872
  14   2.0000     -10.281834      -279.7829
  15   2.0000     -10.267018      -279.3798
  16   2.0000      -8.081970      -219.9216
  17   2.0000      -8.080203      -219.8735
  18   2.0000      -6.040402      -164.3677
  19   2.0000      -6.038505      -164.3161
  20   2.0000      -6.036400      -164.2588
  21   2.0000      -6.034647      -164.2111
  22   2.0000      -6.032879      -164.1630
  23   2.0000      -6.031187      -164.1169
  24   2.0000      -1.010132       -27.4871
  25   2.0000      -0.987394       -26.8684
  26   2.0000      -0.910967       -24.7887
  27   2.0000      -0.900221       -24.4963
  28   2.0000      -0.865556       -23.5530
  29   2.0000      -0.855805       -23.2876
  30   2.0000      -0.850703       -23.1488
  31   2.0000      -0.812942       -22.1213
  32   2.0000      -0.780115       -21.2280
  33   2.0000      -0.767117       -20.8743
  34   2.0000      -0.709988       -19.3198
  35   2.0000      -0.701325       -19.0840
  36   2.0000      -0.688046       -18.7227
  37   2.0000      -0.657891       -17.9021
  38   2.0000      -0.653283       -17.7767
  39   2.0000      -0.611629       -16.6433
  40   2.0000      -0.589648       -16.0451
  41   2.0000      -0.572398       -15.5757
  42   2.0000      -0.562265       -15.3000
  43   2.0000      -0.560228       -15.2446
  44   2.0000      -0.529480       -14.4079
  45   2.0000      -0.523173       -14.2363
  46   2.0000      -0.515509       -14.0277
  47   2.0000      -0.512496       -13.9457
  48   2.0000      -0.502431       -13.6718
  49   2.0000      -0.495771       -13.4906
  50   2.0000      -0.493789       -13.4367
  51   2.0000      -0.484353       -13.1799
  52   2.0000      -0.474482       -12.9113
  53   2.0000      -0.463597       -12.6151
  54   2.0000      -0.459486       -12.5032
  55   2.0000      -0.448176       -12.1955
  56   2.0000      -0.443371       -12.0647
  57   2.0000      -0.434179       -11.8146
  58   2.0000      -0.429674       -11.6920
  59   2.0000      -0.425513       -11.5788
  60   2.0000      -0.417819       -11.3694
  61   2.0000      -0.414012       -11.2658
  62   2.0000      -0.411755       -11.2044
  63   2.0000      -0.338672        -9.2157
  64   2.0000      -0.328757        -8.9459
  65   2.0000      -0.316650        -8.6165
  66   2.0000      -0.311957        -8.4888
  67   0.0000       0.048619         1.3230
  68   0.0000       0.051087         1.3901
  69   0.0000       0.119914         3.2630
  70   0.0000       0.123471         3.3598
  71   0.0000       0.129516         3.5243

MULLIKEN ATOMIC CHARGES
-----------------------
   0 S :    0.120926
   1 C :   -0.133615
   2 C :   -0.080251
   3 C :    0.087114
   4 C :   -0.199868
   5 H :   -0.015912
   6 C :    0.074932
   7 H :    0.036873
   8 H :    0.032795
   9 C :   -0.110531
  10 H :    0.017473
  11 H :    0.033731
  12 C :   -0.047703
  13 H :    0.046621
  14 H :    0.039076
  15 H :    0.033547
  16 S :    0.132342
  17 C :   -0.057212
  18 C :   -0.081684
  19 C :   -0.039139
  20 C :   -0.184843
  21 H :    0.048897
  22 C :    0.109537
  23 H :    0.010471
  24 H :    0.036738
  25 C :   -0.086981
  26 H :    0.028443
  27 H :    0.034911
  28 C :   -0.022021
  29 H :    0.017815
  30 H :    0.030851
  31 H :    0.016412
  32 H :    0.040634
  33 H :    0.029618
Sum of atomic charges:    0.0000000

LOEWDIN ATOMIC CHARGES
----------------------
   0 S :    0.430174
   1 C :   -0.205519
   2 C :   -0.062432
   3 C :   -0.047960
   4 C :   -0.184983
   5 H :    0.022747
   6 C :   -0.028432
   7 H :    0.032821
   8 H :    0.031349
   9 C :   -0.049572
  10 H :    0.017180
  11 H :    0.025792
  12 C :   -0.070575
  13 H :    0.033823
  14 H :    0.029283
  15 H :    0.025873
  16 S :    0.422827
  17 C :   -0.188988
  18 C :   -0.081345
  19 C :   -0.055192
  20 C :   -0.217198
  21 H :    0.044574
  22 C :   -0.021946
  23 H :    0.026958
  24 H :    0.035436
  25 C :   -0.043136
  26 H :    0.010448
  27 H :    0.031205
  28 C :   -0.066538
  29 H :    0.022938
  30 H :    0.022636
  31 H :    0.023178
  32 H :    0.020049
  33 H :    0.014526

  Mayer bond orders larger than 0.100000
B(  0-S ,  1-C ) :   1.1333 B(  0-S ,  4-C ) :   1.1797 B(  1-C ,  2-C ) :   1.6059
B(  1-C , 32-H ) :   0.9750 B(  2-C ,  3-C ) :   1.2409 B(  2-C ,  6-C ) :   1.0123
B(  3-C ,  4-C ) :   1.5812 B(  3-C ,  5-H ) :   1.0098 B(  4-C , 20-C ) :   0.9979
B(  6-C ,  7-H ) :   0.9264 B(  6-C ,  8-H ) :   0.9481 B(  6-C ,  9-C ) :   1.0747
B(  9-C , 10-H ) :   0.9457 B(  9-C , 11-H ) :   0.9617 B(  9-C , 12-C ) :   1.0770
B( 12-C , 13-H ) :   0.9746 B( 12-C , 14-H ) :   0.9756 B( 12-C , 15-H ) :   0.9723
B( 16-S , 17-C ) :   1.1746 B( 16-S , 20-C ) :   1.1374 B( 17-C , 18-C ) :   1.6035
B( 17-C , 33-H ) :   0.9674 B( 18-C , 19-C ) :   1.2660 B( 18-C , 21-H ) :   0.9707
B( 19-C , 20-C ) :   1.6135 B( 19-C , 22-C ) :   1.0278 B( 22-C , 23-H ) :   0.9324
B( 22-C , 24-H ) :   0.9351 B( 22-C , 25-C ) :   1.0537 B( 25-C , 26-H ) :   0.9520
B( 25-C , 27-H ) :   0.9571 B( 25-C , 28-C ) :   1.0956 B( 28-C , 29-H ) :   0.9719
B( 28-C , 30-H ) :   0.9749 B( 28-C , 31-H ) :   0.9691

Dispersion correction           -0.014569868
FINAL SINGLE POINT ENERGY     -1339.878763500148

DIPOLE MOMENT
-------------
                                X             Y             Z
Electronic contribution:      6.73666      11.87069     -20.25523
Nuclear contribution   :     -7.00794     -12.01281      20.64339
                        -----------------------------------------
Total Dipole Moment    :     -0.27127      -0.14212       0.38816
                        -----------------------------------------
Magnitude (a.u.)       :      0.49443
Magnitude (Debye)      :      1.25674

Rotational constants in cm-1:     0.020862     0.007925     0.006589
Rotational constants in MHz :   625.434250   237.578447   197.530267

                             ****ORCA TERMINATED NORMALLY****
TOTAL RUN TIME: 0 days 0 hours 0 minutes 21 seconds 666 msec
