                         Program Version 4.2.1 -  RELEASE  -
|  1> ! wB97X-D3 SP def2-SVP
|  2> %pal
|  3> nprocs 24
|  4> end
|  5>
|  6> * xyz 0 1
|  7> S 	 -68.9989 	 18.8736 	 -77.9985
|  8> C 	 -69.734 	 18.5234 	 -76.4468
|  9> C 	 -69.9393 	 17.2026 	 -76.2263
| 10> C 	 -69.538 	 16.4048 	 -77.3148
| 11> C 	 -68.9188 	 17.1573 	 -78.3181
| 12> H 	 -69.3962 	 15.3235 	 -77.3128
| 13> C 	 -70.7224 	 16.6239 	 -75.1002
| 14> H 	 -70.3653 	 15.6585 	 -74.7774
| 15> H 	 -71.7932 	 16.4341 	 -75.3416
| 16> C 	 -70.6988 	 17.4962 	 -73.8543
| 17> H 	 -69.6898 	 17.8932 	 -73.7509
| 18> H 	 -71.2918 	 18.4 	 -74.0201
| 19> C 	 -71.1231 	 16.8074 	 -72.5642
| 20> H 	 -72.1879 	 16.6007 	 -72.4892
| 21> H 	 -70.5077 	 15.9322 	 -72.4244
| 22> H 	 -70.8196 	 17.5053 	 -71.7577
| 23> S 	 -69.0595 	 15.3958 	 -80.4222
| 24> C 	 -67.8225 	 15.4224 	 -81.6698
| 25> C 	 -66.7786 	 16.2842 	 -81.3391
| 26> C 	 -67.0615 	 17.0351 	 -80.1551
| 27> C 	 -68.189 	 16.5902 	 -79.5155
| 28> H 	 -66.0377 	 16.4068 	 -82.0947
| 29> C 	 -66.0789 	 18.0447 	 -79.6502
| 30> H 	 -66.5329 	 18.7955 	 -78.9137
| 31> H 	 -66.0036 	 18.7935 	 -80.4368
| 32> C 	 -64.7507 	 17.529 	 -79.06
| 33> H 	 -64.1939 	 18.3295 	 -78.6879
| 34> H 	 -64.1812 	 17.1425 	 -79.9423
| 35> C 	 -65.0211 	 16.4648 	 -78.0384
| 36> H 	 -64.2529 	 16.3185 	 -77.313
| 37> H 	 -65.0826 	 15.4937 	 -78.4756
| 38> H 	 -65.9363 	 16.7052 	 -77.4795
| 39> H 	 -70.0615 	 19.2785 	 -75.6983
| 40> H 	 -67.9501 	 14.9231 	 -82.6121
| 41> *
| 42>
| 43>                          ****END OF INPUT****

CARTESIAN COORDINATES (ANGSTROEM)
---------------------------------
  S    -68.998900   18.873600  -77.998500
  C    -69.734000   18.523400  -76.446800
  C    -69.939300   17.202600  -76.226300
  C    -69.538000   16.404800  -77.314800
  C    -68.918800   17.157300  -78.318100
  H    -69.396200   15.323500  -77.312800
  C    -70.722400   16.623900  -75.100200
  H    -70.365300   15.658500  -74.777400
  H    -71.793200   16.434100  -75.341600
  C    -70.698800   17.496200  -73.854300
  H    -69.689800   17.893200  -73.750900
  H    -71.291800   18.400000  -74.020100
  C    -71.123100   16.807400  -72.564200
  H    -72.187900   16.600700  -72.489200
  H    -70.507700   15.932200  -72.424400
  H    -70.819600   17.505300  -71.757700
  S    -69.059500   15.395800  -80.422200
  C    -67.822500   15.422400  -81.669800
  C    -66.778600   16.284200  -81.339100
  C    -67.061500   17.035100  -80.155100
  C    -68.189000   16.590200  -79.515500
  H    -66.037700   16.406800  -82.094700
  C    -66.078900   18.044700  -79.650200
  H    -66.532900   18.795500  -78.913700
  H    -66.003600   18.793500  -80.436800
  C    -64.750700   17.529000  -79.060000
  H    -64.193900   18.329500  -78.687900
  H    -64.181200   17.142500  -79.942300
  C    -65.021100   16.464800  -78.038400
  H    -64.252900   16.318500  -77.313000
  H    -65.082600   15.493700  -78.475600
  H    -65.936300   16.705200  -77.479500
  H    -70.061500   19.278500  -75.698300
  H    -67.950100   14.923100  -82.612100

 Total Charge           Charge          ....    0
 Multiplicity           Mult            ....    1
 Number of Electrons    NEL             ....  134
 Basis Dimension        Dim             ....  322

ORBITAL ENERGIES
----------------

  NO   OCC          E(Eh)            E(eV)
   0   2.0000     -88.970793     -2421.0183
   1   2.0000     -88.965238     -2420.8672
   2   2.0000     -10.333415      -281.1865
   3   2.0000     -10.326299      -280.9929
   4   2.0000     -10.317596      -280.7561
   5   2.0000     -10.311176      -280.5814
   6   2.0000     -10.301546      -280.3193
   7   2.0000     -10.294275      -280.1215
   8   2.0000     -10.293702      -280.1059
   9   2.0000     -10.290677      -280.0236
  10   2.0000     -10.288739      -279.9708
  11   2.0000     -10.287625      -279.9405
  12   2.0000     -10.281324      -279.7690
  13   2.0000     -10.281115      -279.7634
  14   2.0000     -10.279008      -279.7060
  15   2.0000     -10.263437      -279.2823
  16   2.0000      -8.084868      -220.0004
  17   2.0000      -8.080167      -219.8725
  18   2.0000      -6.043378      -164.4487
  19   2.0000      -6.039532      -164.3440
  20   2.0000      -6.038592      -164.3184
  21   2.0000      -6.035605      -164.2372
  22   2.0000      -6.034595      -164.2097
  23   2.0000      -6.031066      -164.1137
  24   2.0000      -1.007323       -27.4106
  25   2.0000      -0.987630       -26.8748
  26   2.0000      -0.916159       -24.9300
  27   2.0000      -0.909729       -24.7550
  28   2.0000      -0.864425       -23.5222
  29   2.0000      -0.855188       -23.2709
  30   2.0000      -0.846138       -23.0246
  31   2.0000      -0.812789       -22.1171
  32   2.0000      -0.782828       -21.3018
  33   2.0000      -0.773015       -21.0348
  34   2.0000      -0.711520       -19.3614
  35   2.0000      -0.699765       -19.0416
  36   2.0000      -0.686149       -18.6711
  37   2.0000      -0.662494       -18.0274
  38   2.0000      -0.634557       -17.2672
  39   2.0000      -0.615119       -16.7382
  40   2.0000      -0.595682       -16.2093
  41   2.0000      -0.572512       -15.5788
  42   2.0000      -0.571139       -15.5415
  43   2.0000      -0.555817       -15.1245
  44   2.0000      -0.545333       -14.8393
  45   2.0000      -0.521830       -14.1997
  46   2.0000      -0.514625       -14.0037
  47   2.0000      -0.505771       -13.7627
  48   2.0000      -0.502738       -13.6802
  49   2.0000      -0.495187       -13.4747
  50   2.0000      -0.486538       -13.2394
  51   2.0000      -0.480290       -13.0694
  52   2.0000      -0.468843       -12.7579
  53   2.0000      -0.464937       -12.6516
  54   2.0000      -0.457342       -12.4449
  55   2.0000      -0.448175       -12.1955
  56   2.0000      -0.445415       -12.1204
  57   2.0000      -0.436520       -11.8783
  58   2.0000      -0.435150       -11.8410
  59   2.0000      -0.422950       -11.5091
  60   2.0000      -0.420389       -11.4394
  61   2.0000      -0.419217       -11.4075
  62   2.0000      -0.400405       -10.8956
  63   2.0000      -0.349923        -9.5219
  64   2.0000      -0.333592        -9.0775
  65   2.0000      -0.330690        -8.9985
  66   2.0000      -0.290120        -7.8946
  67   0.0000       0.031309         0.8520
  68   0.0000       0.074409         2.0248
  69   0.0000       0.112381         3.0580
  70   0.0000       0.114529         3.1165
  71   0.0000       0.129709         3.5296

MULLIKEN ATOMIC CHARGES
-----------------------
   0 S :    0.125751
   1 C :   -0.149316
   2 C :   -0.065602
   3 C :    0.001447
   4 C :   -0.130040
   5 H :    0.025103
   6 C :    0.092719
   7 H :    0.004870
   8 H :    0.046378
   9 C :   -0.151801
  10 H :    0.026112
  11 H :    0.028531
  12 C :   -0.015255
  13 H :    0.041317
  14 H :    0.027728
  15 H :    0.033007
  16 S :    0.106908
  17 C :   -0.105540
  18 C :   -0.022422
  19 C :   -0.047738
  20 C :   -0.130364
  21 H :    0.015559
  22 C :   -0.005202
  23 H :    0.023204
  24 H :    0.020199
  25 C :   -0.020980
  26 H :    0.019482
  27 H :    0.027959
  28 C :   -0.019414
  29 H :    0.017330
  30 H :    0.028696
  31 H :    0.037552
  32 H :    0.057484
  33 H :    0.056334
Sum of atomic charges:   -0.0000000

LOEWDIN ATOMIC CHARGES
----------------------
   0 S :    0.422824
   1 C :   -0.205323
   2 C :   -0.069365
   3 C :   -0.072138
   4 C :   -0.181925
   5 H :    0.033806
   6 C :   -0.031691
   7 H :    0.024179
   8 H :    0.040345
   9 C :   -0.051128
  10 H :    0.021885
  11 H :    0.019535
  12 C :   -0.060775
  13 H :    0.025738
  14 H :    0.023031
  15 H :    0.033449
  16 S :    0.412622
  17 C :   -0.177418
  18 C :   -0.063466
  19 C :   -0.064384
  20 C :   -0.199297
  21 H :    0.029837
  22 C :   -0.052252
  23 H :    0.022563
  24 H :    0.030138
  25 C :   -0.032549
  26 H :    0.017796
  27 H :    0.025878
  28 C :   -0.063309
  29 H :    0.021537
  30 H :    0.026864
  31 H :    0.032108
  32 H :    0.035255
  33 H :    0.025632

  Mayer bond orders larger than 0.100000
B(  0-S ,  1-C ) :   1.1207 B(  0-S ,  4-C ) :   1.1591 B(  1-C ,  2-C ) :   1.6379
B(  1-C , 32-H ) :   0.9541 B(  2-C ,  3-C ) :   1.2479 B(  2-C ,  6-C ) :   1.0322
B(  3-C ,  4-C ) :   1.5686 B(  3-C ,  5-H ) :   0.9870 B(  4-C , 20-C ) :   1.0143
B(  6-C ,  7-H ) :   0.9367 B(  6-C ,  8-H ) :   0.9278 B(  6-C ,  9-C ) :   1.0735
B(  9-C , 10-H ) :   0.9598 B(  9-C , 11-H ) :   0.9418 B(  9-C , 12-C ) :   1.0921
B( 12-C , 13-H ) :   0.9739 B( 12-C , 14-H ) :   0.9725 B( 12-C , 15-H ) :   0.9712
B( 16-S , 17-C ) :   1.1571 B( 16-S , 20-C ) :   1.1488 B( 17-C , 18-C ) :   1.6128
B( 17-C , 33-H ) :   0.9699 B( 18-C , 19-C ) :   1.2176 B( 18-C , 21-H ) :   0.9964
B( 19-C , 20-C ) :   1.5995 B( 19-C , 22-C ) :   1.0541 B( 22-C , 23-H ) :   0.9272
B( 22-C , 24-H ) :   0.9255 B( 22-C , 25-C ) :   1.0697 B( 25-C , 26-H ) :   0.9548
B( 25-C , 27-H ) :   0.9561 B( 25-C , 28-C ) :   1.0745 B( 28-C , 29-H ) :   0.9712
B( 28-C , 30-H ) :   0.9675 B( 28-C , 31-H ) :   0.9766

Dispersion correction           -0.014752487
FINAL SINGLE POINT ENERGY     -1339.883266800680

DIPOLE MOMENT
-------------
                                X             Y             Z
Electronic contribution:     -5.86898       0.30845     -20.68718
Nuclear contribution   :      6.03919      -0.31125      20.88768
                        -----------------------------------------
Total Dipole Moment    :      0.17021      -0.00280       0.20049
                        -----------------------------------------
Magnitude (a.u.)       :      0.26302
Magnitude (Debye)      :      0.66853

Rotational constants in cm-1:     0.023863     0.007445     0.006684
Rotational constants in MHz :   715.383167   223.185620   200.387467

                             ****ORCA TERMINATED NORMALLY****
TOTAL RUN TIME: 0 days 0 hours 0 minutes 21 seconds 810 msec
