                         Program Version 4.2.1 -  RELEASE  -
|  1> ! wB97X-D3 SP def2-SVP
|  2> %pal
|  3> nprocs 24
|  4> end
|  5>
|  6> * xyz 0 1
|  7> S 	 -22.4656 	 -35.3877 	 -96.3271
|  8> C 	 -20.9782 	 -36.1987 	 -95.8744
|  9> C 	 -19.9947 	 -35.1695 	 -95.6852
| 10> C 	 -20.3849 	 -33.8219 	 -95.9693
| 11> C 	 -21.7698 	 -33.6813 	 -96.0978
| 12> H 	 -19.8214 	 -32.8448 	 -96.0936
| 13> C 	 -18.5406 	 -35.4862 	 -95.296
| 14> H 	 -18.4089 	 -36.5066 	 -95.402
| 15> H 	 -18.3123 	 -35.1694 	 -94.3291
| 16> C 	 -17.502 	 -34.7135 	 -96.0599
| 17> H 	 -17.6187 	 -34.7876 	 -97.1219
| 18> H 	 -17.7009 	 -33.6735 	 -95.7534
| 19> C 	 -16.0539 	 -35.0601 	 -95.7766
| 20> H 	 -15.4698 	 -34.664 	 -96.5806
| 21> H 	 -15.6898 	 -34.7771 	 -94.7792
| 22> H 	 -15.9371 	 -36.1327 	 -95.7738
| 23> S 	 -23.0175 	 -32.4833 	 -98.2853
| 24> C 	 -23.2958 	 -30.7593 	 -98.2991
| 25> C 	 -22.8545 	 -30.169 	 -97.1241
| 26> C 	 -22.4313 	 -31.1381 	 -96.1843
| 27> C 	 -22.4659 	 -32.4789 	 -96.5905
| 28> H 	 -22.9878 	 -29.0822 	 -97.0835
| 29> C 	 -21.8605 	 -30.6259 	 -94.8744
| 30> H 	 -21.7667 	 -31.4843 	 -94.1525
| 31> H 	 -22.6553 	 -30.0325 	 -94.4989
| 32> C 	 -20.616 	 -29.8419 	 -95.0732
| 33> H 	 -20.7782 	 -29.0751 	 -95.849
| 34> H 	 -19.9712 	 -30.586 	 -95.5884
| 35> C 	 -19.9907 	 -29.3161 	 -93.7688
| 36> H 	 -19.0768 	 -28.7181 	 -93.7961
| 37> H 	 -19.783 	 -30.1481 	 -93.1732
| 38> H 	 -20.6905 	 -28.6222 	 -93.1601
| 39> H 	 -20.8964 	 -37.1805 	 -95.4918
| 40> H 	 -23.7625 	 -30.2484 	 -99.068
| 41> *
| 42>
| 43>                          ****END OF INPUT****

CARTESIAN COORDINATES (ANGSTROEM)
---------------------------------
  S    -22.465600  -35.387700  -96.327100
  C    -20.978200  -36.198700  -95.874400
  C    -19.994700  -35.169500  -95.685200
  C    -20.384900  -33.821900  -95.969300
  C    -21.769800  -33.681300  -96.097800
  H    -19.821400  -32.844800  -96.093600
  C    -18.540600  -35.486200  -95.296000
  H    -18.408900  -36.506600  -95.402000
  H    -18.312300  -35.169400  -94.329100
  C    -17.502000  -34.713500  -96.059900
  H    -17.618700  -34.787600  -97.121900
  H    -17.700900  -33.673500  -95.753400
  C    -16.053900  -35.060100  -95.776600
  H    -15.469800  -34.664000  -96.580600
  H    -15.689800  -34.777100  -94.779200
  H    -15.937100  -36.132700  -95.773800
  S    -23.017500  -32.483300  -98.285300
  C    -23.295800  -30.759300  -98.299100
  C    -22.854500  -30.169000  -97.124100
  C    -22.431300  -31.138100  -96.184300
  C    -22.465900  -32.478900  -96.590500
  H    -22.987800  -29.082200  -97.083500
  C    -21.860500  -30.625900  -94.874400
  H    -21.766700  -31.484300  -94.152500
  H    -22.655300  -30.032500  -94.498900
  C    -20.616000  -29.841900  -95.073200
  H    -20.778200  -29.075100  -95.849000
  H    -19.971200  -30.586000  -95.588400
  C    -19.990700  -29.316100  -93.768800
  H    -19.076800  -28.718100  -93.796100
  H    -19.783000  -30.148100  -93.173200
  H    -20.690500  -28.622200  -93.160100
  H    -20.896400  -37.180500  -95.491800
  H    -23.762500  -30.248400  -99.068000

 Total Charge           Charge          ....    0
 Multiplicity           Mult            ....    1
 Number of Electrons    NEL             ....  134
 Basis Dimension        Dim             ....  322

ORBITAL ENERGIES
----------------

  NO   OCC          E(Eh)            E(eV)
   0   2.0000     -88.966498     -2420.9015
   1   2.0000     -88.963818     -2420.8286
   2   2.0000     -10.343202      -281.4528
   3   2.0000     -10.332844      -281.1710
   4   2.0000     -10.323954      -280.9291
   5   2.0000     -10.316228      -280.7188
   6   2.0000     -10.313183      -280.6360
   7   2.0000     -10.308711      -280.5143
   8   2.0000     -10.307345      -280.4771
   9   2.0000     -10.296650      -280.1861
  10   2.0000     -10.291340      -280.0416
  11   2.0000     -10.286267      -279.9035
  12   2.0000     -10.283963      -279.8409
  13   2.0000     -10.280314      -279.7416
  14   2.0000     -10.278436      -279.6905
  15   2.0000     -10.275818      -279.6192
  16   2.0000      -8.079460      -219.8533
  17   2.0000      -8.078251      -219.8204
  18   2.0000      -6.038203      -164.3079
  19   2.0000      -6.036808      -164.2699
  20   2.0000      -6.034088      -164.1959
  21   2.0000      -6.032739      -164.1592
  22   2.0000      -6.030176      -164.0894
  23   2.0000      -6.029012      -164.0578
  24   2.0000      -1.000672       -27.2297
  25   2.0000      -0.977592       -26.6016
  26   2.0000      -0.918029       -24.9808
  27   2.0000      -0.916221       -24.9316
  28   2.0000      -0.872277       -23.7359
  29   2.0000      -0.848836       -23.0980
  30   2.0000      -0.844110       -22.9694
  31   2.0000      -0.818783       -22.2802
  32   2.0000      -0.782373       -21.2895
  33   2.0000      -0.771433       -20.9918
  34   2.0000      -0.712545       -19.3893
  35   2.0000      -0.702195       -19.1077
  36   2.0000      -0.692649       -18.8479
  37   2.0000      -0.660442       -17.9715
  38   2.0000      -0.648058       -17.6345
  39   2.0000      -0.614679       -16.7263
  40   2.0000      -0.597356       -16.2549
  41   2.0000      -0.584930       -15.9168
  42   2.0000      -0.568399       -15.4669
  43   2.0000      -0.563695       -15.3389
  44   2.0000      -0.530140       -14.4259
  45   2.0000      -0.528771       -14.3886
  46   2.0000      -0.524322       -14.2675
  47   2.0000      -0.513249       -13.9662
  48   2.0000      -0.508414       -13.8347
  49   2.0000      -0.503505       -13.7011
  50   2.0000      -0.491668       -13.3790
  51   2.0000      -0.477894       -13.0042
  52   2.0000      -0.472828       -12.8663
  53   2.0000      -0.469115       -12.7653
  54   2.0000      -0.459367       -12.5000
  55   2.0000      -0.447860       -12.1869
  56   2.0000      -0.444442       -12.0939
  57   2.0000      -0.435258       -11.8440
  58   2.0000      -0.429746       -11.6940
  59   2.0000      -0.419559       -11.4168
  60   2.0000      -0.419107       -11.4045
  61   2.0000      -0.413468       -11.2510
  62   2.0000      -0.409057       -11.1310
  63   2.0000      -0.351388        -9.5617
  64   2.0000      -0.330252        -8.9866
  65   2.0000      -0.323892        -8.8136
  66   2.0000      -0.295276        -8.0349
  67   0.0000       0.019352         0.5266
  68   0.0000       0.055287         1.5044
  69   0.0000       0.105319         2.8659
  70   0.0000       0.121891         3.3168
  71   0.0000       0.126496         3.4421

MULLIKEN ATOMIC CHARGES
-----------------------
   0 S :    0.077792
   1 C :   -0.079864
   2 C :   -0.119030
   3 C :   -0.004728
   4 C :   -0.153020
   5 H :    0.061346
   6 C :    0.155274
   7 H :   -0.009368
   8 H :    0.014347
   9 C :   -0.138339
  10 H :    0.026307
  11 H :    0.029671
  12 C :   -0.009257
  13 H :    0.036227
  14 H :    0.027900
  15 H :    0.015855
  16 S :    0.094739
  17 C :   -0.073074
  18 C :   -0.045865
  19 C :   -0.084951
  20 C :   -0.108977
  21 H :    0.035257
  22 C :    0.074939
  23 H :    0.032957
  24 H :    0.015389
  25 C :   -0.075028
  26 H :    0.031544
  27 H :    0.017237
  28 C :   -0.029060
  29 H :    0.037372
  30 H :    0.019827
  31 H :    0.035474
  32 H :    0.057154
  33 H :    0.033954
Sum of atomic charges:   -0.0000000

LOEWDIN ATOMIC CHARGES
----------------------
   0 S :    0.365033
   1 C :   -0.192077
   2 C :   -0.053091
   3 C :   -0.063362
   4 C :   -0.165584
   5 H :    0.048554
   6 C :   -0.023468
   7 H :    0.014225
   8 H :    0.025510
   9 C :   -0.041431
  10 H :    0.019739
  11 H :    0.022798
  12 C :   -0.059361
  13 H :    0.028414
  14 H :    0.024848
  15 H :    0.022309
  16 S :    0.398704
  17 C :   -0.164255
  18 C :   -0.079212
  19 C :   -0.053126
  20 C :   -0.200948
  21 H :    0.039792
  22 C :   -0.034005
  23 H :    0.033844
  24 H :    0.024314
  25 C :   -0.044324
  26 H :    0.025179
  27 H :    0.025013
  28 C :   -0.068287
  29 H :    0.027716
  30 H :    0.018275
  31 H :    0.034906
  32 H :    0.028091
  33 H :    0.015267

  Mayer bond orders larger than 0.100000
B(  0-S ,  1-C ) :   1.1412 B(  0-S ,  4-C ) :   1.1328 B(  1-C ,  2-C ) :   1.5884
B(  1-C ,  4-C ) :   0.1114 B(  1-C , 32-H ) :   0.9697 B(  2-C ,  3-C ) :   1.2326
B(  2-C ,  6-C ) :   1.0336 B(  3-C ,  4-C ) :   1.5727 B(  3-C ,  5-H ) :   0.9688
B(  4-C , 20-C ) :   1.0267 B(  6-C ,  7-H ) :   0.9394 B(  6-C ,  8-H ) :   0.9328
B(  6-C ,  9-C ) :   1.0646 B(  9-C , 10-H ) :   0.9622 B(  9-C , 11-H ) :   0.9457
B(  9-C , 12-C ) :   1.0933 B( 12-C , 13-H ) :   0.9735 B( 12-C , 14-H ) :   0.9719
B( 12-C , 15-H ) :   0.9716 B( 16-S , 17-C ) :   1.1767 B( 16-S , 20-C ) :   1.1206
B( 17-C , 18-C ) :   1.5927 B( 17-C , 33-H ) :   0.9743 B( 18-C , 19-C ) :   1.2416
B( 18-C , 21-H ) :   0.9910 B( 19-C , 20-C ) :   1.5959 B( 19-C , 22-C ) :   1.0398
B( 22-C , 23-H ) :   0.9381 B( 22-C , 24-H ) :   0.9260 B( 22-C , 25-C ) :   1.0579
B( 25-C , 26-H ) :   0.9517 B( 25-C , 27-H ) :   0.9496 B( 25-C , 28-C ) :   1.0709
B( 28-C , 29-H ) :   0.9760 B( 28-C , 30-H ) :   0.9725 B( 28-C , 31-H ) :   0.9742

Dispersion correction           -0.013922960
FINAL SINGLE POINT ENERGY     -1339.845504707557

DIPOLE MOMENT
-------------
                                X             Y             Z
Electronic contribution:    -25.94652      -9.73647     -13.37905
Nuclear contribution   :     26.57547      10.16490      13.60333
                        -----------------------------------------
Total Dipole Moment    :      0.62895       0.42843       0.22428
                        -----------------------------------------
Magnitude (a.u.)       :      0.79337
Magnitude (Debye)      :      2.01658

Rotational constants in cm-1:     0.015628     0.009302     0.006780
Rotational constants in MHz :   468.520387   278.856459   203.270878

                             ****ORCA TERMINATED NORMALLY****
TOTAL RUN TIME: 0 days 0 hours 0 minutes 22 seconds 676 msec
