                         Program Version 4.2.1 -  RELEASE  -
|  1> ! wB97X-D3 SP def2-SVP
|  2> %pal
|  3> nprocs 24
|  4> end
|  5>
|  6> * xyz 0 1
|  7> S 	 -65.1478 	 11.6728 	 -101.145
|  8> C 	 -64.3319 	 13.0096 	 -100.419
|  9> C 	 -63.0222 	 12.7467 	 -100.157
| 10> C 	 -62.7486 	 11.3489 	 -100.396
| 11> C 	 -63.8063 	 10.5803 	 -100.84
| 12> H 	 -61.8675 	 10.7862 	 -100.22
| 13> C 	 -61.9862 	 13.6726 	 -99.5875
| 14> H 	 -61.798 	 13.3196 	 -98.5804
| 15> H 	 -62.4188 	 14.6108 	 -99.3634
| 16> C 	 -60.735 	 14.0188 	 -100.38
| 17> H 	 -61.007 	 14.3046 	 -101.448
| 18> H 	 -60.2295 	 14.8305 	 -99.8481
| 19> C 	 -59.6492 	 12.9999 	 -100.44
| 20> H 	 -59.6886 	 12.3337 	 -99.527
| 21> H 	 -59.7904 	 12.2563 	 -101.264
| 22> H 	 -58.6426 	 13.5045 	 -100.576
| 23> S 	 -64.7647 	 8.20472 	 -100.009
| 24> C 	 -64.1773 	 6.72023 	 -100.707
| 25> C 	 -63.2787 	 6.93642 	 -101.686
| 26> C 	 -63.0475 	 8.29208 	 -101.89
| 27> C 	 -63.8493 	 9.15065 	 -101.126
| 28> H 	 -62.9558 	 6.06208 	 -102.256
| 29> C 	 -61.9949 	 8.86003 	 -102.897
| 30> H 	 -62.152 	 9.9285 	 -103.146
| 31> H 	 -62.3058 	 8.33758 	 -103.893
| 32> C 	 -60.4683 	 8.63364 	 -102.755
| 33> H 	 -60.0157 	 9.20779 	 -103.541
| 34> H 	 -60.3202 	 7.55329 	 -102.874
| 35> C 	 -59.8615 	 8.99108 	 -101.36
| 36> H 	 -59.9619 	 10.0287 	 -101.24
| 37> H 	 -58.7924 	 8.75243 	 -101.348
| 38> H 	 -60.2709 	 8.48111 	 -100.43
| 39> H 	 -64.7868 	 13.949 	 -100.355
| 40> H 	 -64.4445 	 5.77132 	 -100.346
| 41> *
| 42>
| 43>                          ****END OF INPUT****

CARTESIAN COORDINATES (ANGSTROEM)
---------------------------------
  S    -65.147800   11.672800  -101.145000
  C    -64.331900   13.009600  -100.419000
  C    -63.022200   12.746700  -100.157000
  C    -62.748600   11.348900  -100.396000
  C    -63.806300   10.580300  -100.840000
  H    -61.867500   10.786200  -100.220000
  C    -61.986200   13.672600  -99.587500
  H    -61.798000   13.319600  -98.580400
  H    -62.418800   14.610800  -99.363400
  C    -60.735000   14.018800  -100.380000
  H    -61.007000   14.304600  -101.448000
  H    -60.229500   14.830500  -99.848100
  C    -59.649200   12.999900  -100.440000
  H    -59.688600   12.333700  -99.527000
  H    -59.790400   12.256300  -101.264000
  H    -58.642600   13.504500  -100.576000
  S    -64.764700    8.204720  -100.009000
  C    -64.177300    6.720230  -100.707000
  C    -63.278700    6.936420  -101.686000
  C    -63.047500    8.292080  -101.890000
  C    -63.849300    9.150650  -101.126000
  H    -62.955800    6.062080  -102.256000
  C    -61.994900    8.860030  -102.897000
  H    -62.152000    9.928500  -103.146000
  H    -62.305800    8.337580  -103.893000
  C    -60.468300    8.633640  -102.755000
  H    -60.015700    9.207790  -103.541000
  H    -60.320200    7.553290  -102.874000
  C    -59.861500    8.991080  -101.360000
  H    -59.961900   10.028700  -101.240000
  H    -58.792400    8.752430  -101.348000
  H    -60.270900    8.481110  -100.430000
  H    -64.786800   13.949000  -100.355000
  H    -64.444500    5.771320  -100.346000

 Total Charge           Charge          ....    0
 Multiplicity           Mult            ....    1
 Number of Electrons    NEL             ....  134
 Basis Dimension        Dim             ....  322

ORBITAL ENERGIES
----------------

  NO   OCC          E(Eh)            E(eV)
   0   2.0000     -88.962802     -2420.8009
   1   2.0000     -88.959949     -2420.7233
   2   2.0000     -10.326592      -281.0009
   3   2.0000     -10.324519      -280.9445
   4   2.0000     -10.311701      -280.5957
   5   2.0000     -10.307646      -280.4853
   6   2.0000     -10.307581      -280.4835
   7   2.0000     -10.300065      -280.2790
   8   2.0000     -10.299077      -280.2521
   9   2.0000     -10.290748      -280.0255
  10   2.0000     -10.290699      -280.0242
  11   2.0000     -10.290258      -280.0122
  12   2.0000     -10.289149      -279.9820
  13   2.0000     -10.287230      -279.9298
  14   2.0000     -10.285165      -279.8736
  15   2.0000     -10.278640      -279.6960
  16   2.0000      -8.078453      -219.8259
  17   2.0000      -8.075385      -219.7424
  18   2.0000      -6.036762      -164.2686
  19   2.0000      -6.033815      -164.1885
  20   2.0000      -6.032749      -164.1595
  21   2.0000      -6.029836      -164.0802
  22   2.0000      -6.029425      -164.0690
  23   2.0000      -6.026139      -163.9796
  24   2.0000      -1.011526       -27.5250
  25   2.0000      -0.990406       -26.9503
  26   2.0000      -0.916578       -24.9414
  27   2.0000      -0.898390       -24.4464
  28   2.0000      -0.877733       -23.8843
  29   2.0000      -0.847162       -23.0524
  30   2.0000      -0.846953       -23.0468
  31   2.0000      -0.820641       -22.3308
  32   2.0000      -0.784617       -21.3505
  33   2.0000      -0.775262       -21.0959
  34   2.0000      -0.707009       -19.2387
  35   2.0000      -0.692862       -18.8537
  36   2.0000      -0.692356       -18.8400
  37   2.0000      -0.657292       -17.8858
  38   2.0000      -0.650414       -17.6987
  39   2.0000      -0.618629       -16.8337
  40   2.0000      -0.596538       -16.2326
  41   2.0000      -0.578977       -15.7548
  42   2.0000      -0.554386       -15.0856
  43   2.0000      -0.547713       -14.9040
  44   2.0000      -0.544333       -14.8120
  45   2.0000      -0.535187       -14.5632
  46   2.0000      -0.520595       -14.1661
  47   2.0000      -0.517310       -14.0767
  48   2.0000      -0.504766       -13.7354
  49   2.0000      -0.493294       -13.4232
  50   2.0000      -0.491578       -13.3765
  51   2.0000      -0.486112       -13.2278
  52   2.0000      -0.471303       -12.8248
  53   2.0000      -0.468347       -12.7444
  54   2.0000      -0.461958       -12.5705
  55   2.0000      -0.446408       -12.1474
  56   2.0000      -0.435056       -11.8385
  57   2.0000      -0.430542       -11.7156
  58   2.0000      -0.427209       -11.6250
  59   2.0000      -0.424878       -11.5615
  60   2.0000      -0.420544       -11.4436
  61   2.0000      -0.413863       -11.2618
  62   2.0000      -0.403384       -10.9766
  63   2.0000      -0.346995        -9.4422
  64   2.0000      -0.326544        -8.8857
  65   2.0000      -0.325573        -8.8593
  66   2.0000      -0.303320        -8.2538
  67   0.0000       0.037863         1.0303
  68   0.0000       0.067391         1.8338
  69   0.0000       0.118682         3.2295
  70   0.0000       0.125068         3.4033
  71   0.0000       0.129745         3.5305

MULLIKEN ATOMIC CHARGES
-----------------------
   0 S :    0.103944
   1 C :   -0.100548
   2 C :   -0.064584
   3 C :    0.057731
   4 C :   -0.171418
   5 H :   -0.030321
   6 C :    0.096854
   7 H :    0.029789
   8 H :   -0.005441
   9 C :   -0.067135
  10 H :    0.043638
  11 H :    0.031670
  12 C :   -0.105536
  13 H :    0.036382
  14 H :    0.049101
  15 H :    0.048980
  16 S :    0.109322
  17 C :   -0.072868
  18 C :   -0.037393
  19 C :    0.003226
  20 C :   -0.159101
  21 H :    0.027923
  22 C :   -0.017797
  23 H :    0.035658
  24 H :    0.037837
  25 C :   -0.039683
  26 H :    0.036688
  27 H :    0.028306
  28 C :   -0.059710
  29 H :    0.006164
  30 H :    0.033028
  31 H :    0.053207
  32 H :    0.027119
  33 H :    0.034969
Sum of atomic charges:   -0.0000000

LOEWDIN ATOMIC CHARGES
----------------------
   0 S :    0.404732
   1 C :   -0.186519
   2 C :   -0.064936
   3 C :   -0.056273
   4 C :   -0.199237
   5 H :    0.022047
   6 C :   -0.034214
   7 H :    0.035079
   8 H :    0.026844
   9 C :   -0.047029
  10 H :    0.035727
  11 H :    0.030570
  12 C :   -0.081587
  13 H :    0.027549
  14 H :    0.022417
  15 H :    0.035212
  16 S :    0.426347
  17 C :   -0.168462
  18 C :   -0.079505
  19 C :   -0.053894
  20 C :   -0.214770
  21 H :    0.040912
  22 C :   -0.043759
  23 H :    0.029587
  24 H :    0.040306
  25 C :   -0.034650
  26 H :    0.028072
  27 H :    0.022219
  28 C :   -0.072561
  29 H :    0.009127
  30 H :    0.028395
  31 H :    0.036542
  32 H :    0.017169
  33 H :    0.018542

  Mayer bond orders larger than 0.100000
B(  0-S ,  1-C ) :   1.1493 B(  0-S ,  4-C ) :   1.1457 B(  1-C ,  2-C ) :   1.6138
B(  1-C , 32-H ) :   0.9741 B(  2-C ,  3-C ) :   1.2075 B(  2-C ,  6-C ) :   1.0262
B(  3-C ,  4-C ) :   1.6074 B(  3-C ,  5-H ) :   1.0013 B(  4-C , 20-C ) :   1.0010
B(  6-C ,  7-H ) :   0.9323 B(  6-C ,  8-H ) :   0.9265 B(  6-C ,  9-C ) :   1.0828
B(  9-C , 10-H ) :   0.9497 B(  9-C , 11-H ) :   0.9539 B(  9-C , 12-C ) :   1.0797
B( 12-C , 13-H ) :   0.9728 B( 12-C , 14-H ) :   0.9665 B( 12-C , 15-H ) :   0.9693
B( 16-S , 17-C ) :   1.1763 B( 16-S , 20-C ) :   1.1593 B( 17-C , 18-C ) :   1.5954
B( 17-C , 20-C ) :   0.1032 B( 17-C , 33-H ) :   0.9717 B( 18-C , 19-C ) :   1.2490
B( 18-C , 21-H ) :   0.9957 B( 19-C , 20-C ) :   1.5852 B( 19-C , 22-C ) :   1.0227
B( 22-C , 23-H ) :   0.9457 B( 22-C , 24-H ) :   0.9404 B( 22-C , 25-C ) :   1.0701
B( 25-C , 26-H ) :   0.9531 B( 25-C , 27-H ) :   0.9565 B( 25-C , 28-C ) :   1.0791
B( 28-C , 29-H ) :   0.9685 B( 28-C , 30-H ) :   0.9689 B( 28-C , 31-H ) :   0.9693

Dispersion correction           -0.015964797
FINAL SINGLE POINT ENERGY     -1339.871992111646

DIPOLE MOMENT
-------------
                                X             Y             Z
Electronic contribution:    -28.89638      -7.61520       3.25331
Nuclear contribution   :     29.57754       7.65754      -3.29387
                        -----------------------------------------
Total Dipole Moment    :      0.68116       0.04234      -0.04056
                        -----------------------------------------
Magnitude (a.u.)       :      0.68368
Magnitude (Debye)      :      1.73778

Rotational constants in cm-1:     0.017904     0.010508     0.007461
Rotational constants in MHz :   536.762442   315.018659   223.668569

                             ****ORCA TERMINATED NORMALLY****
TOTAL RUN TIME: 0 days 0 hours 0 minutes 22 seconds 947 msec
