                         Program Version 4.2.1 -  RELEASE  -
|  1> ! wB97X-D3 SP def2-SVP
|  2> %pal
|  3> nprocs 24
|  4> end
|  5>
|  6> * xyz 0 1
|  7> S 	 -108.914 	 65.7568 	 -73.777
|  8> C 	 -108.517 	 64.1082 	 -73.3302
|  9> C 	 -109.655 	 63.3687 	 -73.1002
| 10> C 	 -110.835 	 64.0099 	 -73.534
| 11> C 	 -110.64 	 65.2714 	 -74.0311
| 12> H 	 -111.876 	 63.6837 	 -73.568
| 13> C 	 -109.651 	 61.9615 	 -72.5063
| 14> H 	 -110.528 	 62.0074 	 -71.8748
| 15> H 	 -108.757 	 61.9303 	 -71.7736
| 16> C 	 -109.898 	 60.8385 	 -73.4791
| 17> H 	 -110.424 	 59.9232 	 -73.044
| 18> H 	 -110.466 	 61.3541 	 -74.3359
| 19> C 	 -108.529 	 60.3064 	 -74.0873
| 20> H 	 -107.891 	 59.7761 	 -73.3143
| 21> H 	 -108.799 	 59.7098 	 -74.9448
| 22> H 	 -108.004 	 61.1434 	 -74.4655
| 23> S 	 -111.614 	 67.8725 	 -73.865
| 24> C 	 -113.021 	 68.371 	 -74.8275
| 25> C 	 -113.191 	 67.4407 	 -75.8201
| 26> C 	 -112.409 	 66.1848 	 -75.5963
| 27> C 	 -111.596 	 66.2279 	 -74.4787
| 28> H 	 -113.948 	 67.6301 	 -76.6303
| 29> C 	 -112.656 	 65.0288 	 -76.5127
| 30> H 	 -113.759 	 65.0949 	 -76.7608
| 31> H 	 -112.436 	 64.1478 	 -75.9621
| 32> C 	 -111.762 	 64.9986 	 -77.7857
| 33> H 	 -110.702 	 65.026 	 -77.4473
| 34> H 	 -111.95 	 65.9082 	 -78.4059
| 35> C 	 -112.107 	 63.7037 	 -78.5806
| 36> H 	 -113.13 	 63.8724 	 -79.0177
| 37> H 	 -111.911 	 62.842 	 -77.9279
| 38> H 	 -111.598 	 63.3446 	 -79.4564
| 39> H 	 -107.495 	 63.9306 	 -73.0554
| 40> H 	 -113.462 	 69.3442 	 -74.6805
| 41> *
| 42>
| 43>                          ****END OF INPUT****

CARTESIAN COORDINATES (ANGSTROEM)
---------------------------------
  S    -108.914000   65.756800  -73.777000
  C    -108.517000   64.108200  -73.330200
  C    -109.655000   63.368700  -73.100200
  C    -110.835000   64.009900  -73.534000
  C    -110.640000   65.271400  -74.031100
  H    -111.876000   63.683700  -73.568000
  C    -109.651000   61.961500  -72.506300
  H    -110.528000   62.007400  -71.874800
  H    -108.757000   61.930300  -71.773600
  C    -109.898000   60.838500  -73.479100
  H    -110.424000   59.923200  -73.044000
  H    -110.466000   61.354100  -74.335900
  C    -108.529000   60.306400  -74.087300
  H    -107.891000   59.776100  -73.314300
  H    -108.799000   59.709800  -74.944800
  H    -108.004000   61.143400  -74.465500
  S    -111.614000   67.872500  -73.865000
  C    -113.021000   68.371000  -74.827500
  C    -113.191000   67.440700  -75.820100
  C    -112.409000   66.184800  -75.596300
  C    -111.596000   66.227900  -74.478700
  H    -113.948000   67.630100  -76.630300
  C    -112.656000   65.028800  -76.512700
  H    -113.759000   65.094900  -76.760800
  H    -112.436000   64.147800  -75.962100
  C    -111.762000   64.998600  -77.785700
  H    -110.702000   65.026000  -77.447300
  H    -111.950000   65.908200  -78.405900
  C    -112.107000   63.703700  -78.580600
  H    -113.130000   63.872400  -79.017700
  H    -111.911000   62.842000  -77.927900
  H    -111.598000   63.344600  -79.456400
  H    -107.495000   63.930600  -73.055400
  H    -113.462000   69.344200  -74.680500

 Total Charge           Charge          ....    0
 Multiplicity           Mult            ....    1
 Number of Electrons    NEL             ....  134
 Basis Dimension        Dim             ....  322

ORBITAL ENERGIES
----------------

  NO   OCC          E(Eh)            E(eV)
   0   2.0000     -88.963041     -2420.8074
   1   2.0000     -88.959054     -2420.6989
   2   2.0000     -10.332677      -281.1664
   3   2.0000     -10.326734      -281.0047
   4   2.0000     -10.323575      -280.9188
   5   2.0000     -10.316083      -280.7149
   6   2.0000     -10.308696      -280.5139
   7   2.0000     -10.305530      -280.4277
   8   2.0000     -10.305139      -280.4171
   9   2.0000     -10.301133      -280.3081
  10   2.0000     -10.297722      -280.2153
  11   2.0000     -10.296154      -280.1726
  12   2.0000     -10.295448      -280.1534
  13   2.0000     -10.292103      -280.0624
  14   2.0000     -10.282367      -279.7974
  15   2.0000     -10.278843      -279.7015
  16   2.0000      -8.077386      -219.7968
  17   2.0000      -8.073971      -219.7039
  18   2.0000      -6.035866      -164.2443
  19   2.0000      -6.032747      -164.1594
  20   2.0000      -6.032137      -164.1428
  21   2.0000      -6.028556      -164.0453
  22   2.0000      -6.028000      -164.0302
  23   2.0000      -6.024306      -163.9297
  24   2.0000      -1.006666       -27.3928
  25   2.0000      -0.982652       -26.7393
  26   2.0000      -0.910291       -24.7703
  27   2.0000      -0.906268       -24.6608
  28   2.0000      -0.874501       -23.7964
  29   2.0000      -0.847628       -23.0651
  30   2.0000      -0.840433       -22.8693
  31   2.0000      -0.817624       -22.2487
  32   2.0000      -0.779215       -21.2035
  33   2.0000      -0.768506       -20.9121
  34   2.0000      -0.710472       -19.3329
  35   2.0000      -0.696030       -18.9399
  36   2.0000      -0.690031       -18.7767
  37   2.0000      -0.660416       -17.9708
  38   2.0000      -0.649832       -17.6828
  39   2.0000      -0.617796       -16.8111
  40   2.0000      -0.595858       -16.2141
  41   2.0000      -0.568980       -15.4827
  42   2.0000      -0.567048       -15.4301
  43   2.0000      -0.547230       -14.8909
  44   2.0000      -0.535990       -14.5850
  45   2.0000      -0.525783       -14.3073
  46   2.0000      -0.522354       -14.2140
  47   2.0000      -0.515051       -14.0152
  48   2.0000      -0.505854       -13.7650
  49   2.0000      -0.497164       -13.5285
  50   2.0000      -0.483899       -13.1676
  51   2.0000      -0.482360       -13.1257
  52   2.0000      -0.473048       -12.8723
  53   2.0000      -0.465041       -12.6544
  54   2.0000      -0.453771       -12.3477
  55   2.0000      -0.450026       -12.2458
  56   2.0000      -0.439842       -11.9687
  57   2.0000      -0.438459       -11.9311
  58   2.0000      -0.428071       -11.6484
  59   2.0000      -0.420049       -11.4301
  60   2.0000      -0.414876       -11.2894
  61   2.0000      -0.412876       -11.2349
  62   2.0000      -0.404561       -11.0087
  63   2.0000      -0.354982        -9.6595
  64   2.0000      -0.333173        -9.0661
  65   2.0000      -0.321635        -8.7521
  66   2.0000      -0.293734        -7.9929
  67   0.0000       0.027750         0.7551
  68   0.0000       0.057206         1.5567
  69   0.0000       0.107013         2.9120
  70   0.0000       0.112524         3.0619
  71   0.0000       0.128586         3.4990

MULLIKEN ATOMIC CHARGES
-----------------------
   0 S :    0.086529
   1 C :   -0.119165
   2 C :   -0.090171
   3 C :    0.025131
   4 C :   -0.165055
   5 H :    0.026797
   6 C :    0.073401
   7 H :    0.022340
   8 H :    0.040248
   9 C :   -0.114563
  10 H :    0.053704
  11 H :    0.047669
  12 C :   -0.051176
  13 H :    0.047591
  14 H :    0.034324
  15 H :    0.019698
  16 S :    0.071863
  17 C :   -0.095260
  18 C :   -0.026425
  19 C :   -0.068391
  20 C :   -0.125488
  21 H :    0.044254
  22 C :    0.064032
  23 H :    0.038680
  24 H :   -0.001228
  25 C :   -0.079787
  26 H :    0.046512
  27 H :    0.035686
  28 C :   -0.055693
  29 H :    0.038008
  30 H :    0.033604
  31 H :    0.025236
  32 H :    0.050365
  33 H :    0.066729
Sum of atomic charges:    0.0000000

LOEWDIN ATOMIC CHARGES
----------------------
   0 S :    0.369849
   1 C :   -0.185670
   2 C :   -0.066669
   3 C :   -0.064905
   4 C :   -0.165425
   5 H :    0.038746
   6 C :   -0.042856
   7 H :    0.032193
   8 H :    0.038140
   9 C :   -0.048897
  10 H :    0.032311
  11 H :    0.037169
  12 C :   -0.066416
  13 H :    0.031597
  14 H :    0.023692
  15 H :    0.016350
  16 S :    0.376029
  17 C :   -0.166598
  18 C :   -0.075995
  19 C :   -0.051207
  20 C :   -0.204294
  21 H :    0.039959
  22 C :   -0.035017
  23 H :    0.038089
  24 H :    0.021476
  25 C :   -0.036864
  26 H :    0.030222
  27 H :    0.025370
  28 C :   -0.080313
  29 H :    0.034026
  30 H :    0.028725
  31 H :    0.022150
  32 H :    0.023804
  33 H :    0.031227

  Mayer bond orders larger than 0.100000
B(  0-S ,  1-C ) :   1.1350 B(  0-S ,  4-C ) :   1.1198 B(  1-C ,  2-C ) :   1.6094
B(  1-C ,  4-C ) :   0.1013 B(  1-C , 32-H ) :   0.9756 B(  2-C ,  3-C ) :   1.2077
B(  2-C ,  6-C ) :   1.0206 B(  3-C ,  4-C ) :   1.6128 B(  3-C ,  5-H ) :   0.9876
B(  4-C , 20-C ) :   1.0825 B(  6-C ,  7-H ) :   0.9299 B(  6-C ,  8-H ) :   0.9453
B(  6-C ,  9-C ) :   1.0475 B(  9-C , 10-H ) :   0.9580 B(  9-C , 11-H ) :   0.9532
B(  9-C , 12-C ) :   1.0723 B( 12-C , 13-H ) :   0.9780 B( 12-C , 14-H ) :   0.9761
B( 12-C , 15-H ) :   0.9757 B( 16-S , 17-C ) :   1.1370 B( 16-S , 20-C ) :   1.1047
B( 17-C , 18-C ) :   1.6296 B( 17-C , 33-H ) :   0.9735 B( 18-C , 19-C ) :   1.1985
B( 18-C , 21-H ) :   0.9800 B( 19-C , 20-C ) :   1.6073 B( 19-C , 22-C ) :   1.0511
B( 22-C , 23-H ) :   0.9378 B( 22-C , 24-H ) :   0.9279 B( 22-C , 25-C ) :   1.0522
B( 25-C , 26-H ) :   0.9575 B( 25-C , 27-H ) :   0.9597 B( 25-C , 28-C ) :   1.0645
B( 28-C , 29-H ) :   0.9743 B( 28-C , 30-H ) :   0.9742 B( 28-C , 31-H ) :   0.9768

Dispersion correction           -0.014231291
FINAL SINGLE POINT ENERGY     -1339.857179558128

DIPOLE MOMENT
-------------
                                X             Y             Z
Electronic contribution:      1.77161      26.42296      12.58464
Nuclear contribution   :     -2.08515     -26.85279     -12.83132
                        -----------------------------------------
Total Dipole Moment    :     -0.31354      -0.42983      -0.24668
                        -----------------------------------------
Magnitude (a.u.)       :      0.58644
Magnitude (Debye)      :      1.49061

Rotational constants in cm-1:     0.018452     0.008942     0.006802
Rotational constants in MHz :   553.184248   268.072267   203.927366

                             ****ORCA TERMINATED NORMALLY****
TOTAL RUN TIME: 0 days 0 hours 0 minutes 21 seconds 604 msec
