                         Program Version 4.2.1 -  RELEASE  -
|  1> ! wB97X-D3 SP def2-SVP
|  2> %pal
|  3> nprocs 24
|  4> end
|  5>
|  6> * xyz 0 1
|  7> S 	 -144.917 	 32.1295 	 -13.9686
|  8> C 	 -144.449 	 30.5539 	 -14.5493
|  9> C 	 -145.532 	 29.7242 	 -14.479
| 10> C 	 -146.703 	 30.3301 	 -13.9008
| 11> C 	 -146.479 	 31.6262 	 -13.4319
| 12> H 	 -147.647 	 29.8223 	 -13.9177
| 13> C 	 -145.572 	 28.3411 	 -14.9352
| 14> H 	 -144.839 	 28.1788 	 -15.6898
| 15> H 	 -146.436 	 28.2313 	 -15.5369
| 16> C 	 -145.454 	 27.3614 	 -13.7713
| 17> H 	 -144.501 	 27.5413 	 -13.268
| 18> H 	 -146.244 	 27.4783 	 -13.0931
| 19> C 	 -145.515 	 25.8428 	 -14.1918
| 20> H 	 -145.488 	 25.4382 	 -13.2035
| 21> H 	 -146.546 	 25.5702 	 -14.5039
| 22> H 	 -144.763 	 25.4206 	 -14.8965
| 23> S 	 -147.933 	 33.8921 	 -13.5356
| 24> C 	 -148.961 	 34.3298 	 -12.1933
| 25> C 	 -148.865 	 33.4049 	 -11.1674
| 26> C 	 -148.04 	 32.2822 	 -11.5146
| 27> C 	 -147.417 	 32.4798 	 -12.7413
| 28> H 	 -149.327 	 33.5866 	 -10.1889
| 29> C 	 -147.723 	 31.1178 	 -10.5276
| 30> H 	 -146.946 	 30.4433 	 -10.9839
| 31> H 	 -148.589 	 30.4775 	 -10.4277
| 32> C 	 -146.943 	 31.6307 	 -9.28067
| 33> H 	 -146.769 	 30.8576 	 -8.63807
| 34> H 	 -147.618 	 32.3956 	 -8.85975
| 35> C 	 -145.588 	 32.2001 	 -9.59506
| 36> H 	 -144.782 	 31.4378 	 -9.50756
| 37> H 	 -145.265 	 33.0429 	 -8.9804
| 38> H 	 -145.561 	 32.687 	 -10.5839
| 39> H 	 -143.499 	 30.2985 	 -14.9362
| 40> H 	 -149.591 	 35.2388 	 -12.2105
| 41> *
| 42>
| 43>                          ****END OF INPUT****

CARTESIAN COORDINATES (ANGSTROEM)
---------------------------------
  S    -144.917000   32.129500  -13.968600
  C    -144.449000   30.553900  -14.549300
  C    -145.532000   29.724200  -14.479000
  C    -146.703000   30.330100  -13.900800
  C    -146.479000   31.626200  -13.431900
  H    -147.647000   29.822300  -13.917700
  C    -145.572000   28.341100  -14.935200
  H    -144.839000   28.178800  -15.689800
  H    -146.436000   28.231300  -15.536900
  C    -145.454000   27.361400  -13.771300
  H    -144.501000   27.541300  -13.268000
  H    -146.244000   27.478300  -13.093100
  C    -145.515000   25.842800  -14.191800
  H    -145.488000   25.438200  -13.203500
  H    -146.546000   25.570200  -14.503900
  H    -144.763000   25.420600  -14.896500
  S    -147.933000   33.892100  -13.535600
  C    -148.961000   34.329800  -12.193300
  C    -148.865000   33.404900  -11.167400
  C    -148.040000   32.282200  -11.514600
  C    -147.417000   32.479800  -12.741300
  H    -149.327000   33.586600  -10.188900
  C    -147.723000   31.117800  -10.527600
  H    -146.946000   30.443300  -10.983900
  H    -148.589000   30.477500  -10.427700
  C    -146.943000   31.630700   -9.280670
  H    -146.769000   30.857600   -8.638070
  H    -147.618000   32.395600   -8.859750
  C    -145.588000   32.200100   -9.595060
  H    -144.782000   31.437800   -9.507560
  H    -145.265000   33.042900   -8.980400
  H    -145.561000   32.687000  -10.583900
  H    -143.499000   30.298500  -14.936200
  H    -149.591000   35.238800  -12.210500

 Total Charge           Charge          ....    0
 Multiplicity           Mult            ....    1
 Number of Electrons    NEL             ....  134
 Basis Dimension        Dim             ....  322

ORBITAL ENERGIES
----------------

  NO   OCC          E(Eh)            E(eV)
   0   2.0000     -88.965757     -2420.8813
   1   2.0000     -88.962355     -2420.7888
   2   2.0000     -10.327503      -281.0256
   3   2.0000     -10.322027      -280.8766
   4   2.0000     -10.319911      -280.8190
   5   2.0000     -10.307810      -280.4898
   6   2.0000     -10.305290      -280.4212
   7   2.0000     -10.298213      -280.2286
   8   2.0000     -10.294005      -280.1141
   9   2.0000     -10.291465      -280.0450
  10   2.0000     -10.290537      -280.0197
  11   2.0000     -10.286508      -279.9101
  12   2.0000     -10.281836      -279.7830
  13   2.0000     -10.278603      -279.6950
  14   2.0000     -10.276800      -279.6460
  15   2.0000     -10.270617      -279.4777
  16   2.0000      -8.081614      -219.9119
  17   2.0000      -8.077539      -219.8010
  18   2.0000      -6.039928      -164.3548
  19   2.0000      -6.036038      -164.2490
  20   2.0000      -6.035934      -164.2461
  21   2.0000      -6.032533      -164.1536
  22   2.0000      -6.031850      -164.1350
  23   2.0000      -6.028416      -164.0415
  24   2.0000      -1.011845       -27.5337
  25   2.0000      -0.988460       -26.8974
  26   2.0000      -0.917137       -24.9566
  27   2.0000      -0.906731       -24.6734
  28   2.0000      -0.871170       -23.7057
  29   2.0000      -0.847758       -23.0687
  30   2.0000      -0.845251       -23.0005
  31   2.0000      -0.813494       -22.1363
  32   2.0000      -0.781653       -21.2699
  33   2.0000      -0.771158       -20.9843
  34   2.0000      -0.707528       -19.2528
  35   2.0000      -0.701299       -19.0833
  36   2.0000      -0.694002       -18.8848
  37   2.0000      -0.657970       -17.9043
  38   2.0000      -0.642976       -17.4963
  39   2.0000      -0.623231       -16.9590
  40   2.0000      -0.599249       -16.3064
  41   2.0000      -0.569436       -15.4952
  42   2.0000      -0.562068       -15.2947
  43   2.0000      -0.554494       -15.0886
  44   2.0000      -0.548778       -14.9330
  45   2.0000      -0.534008       -14.5311
  46   2.0000      -0.516246       -14.0478
  47   2.0000      -0.509040       -13.8517
  48   2.0000      -0.503247       -13.6940
  49   2.0000      -0.499772       -13.5995
  50   2.0000      -0.487257       -13.2589
  51   2.0000      -0.474756       -12.9188
  52   2.0000      -0.467648       -12.7254
  53   2.0000      -0.462304       -12.5799
  54   2.0000      -0.457910       -12.4604
  55   2.0000      -0.449818       -12.2402
  56   2.0000      -0.443727       -12.0744
  57   2.0000      -0.441955       -12.0262
  58   2.0000      -0.437834       -11.9141
  59   2.0000      -0.423962       -11.5366
  60   2.0000      -0.419622       -11.4185
  61   2.0000      -0.411480       -11.1969
  62   2.0000      -0.398226       -10.8363
  63   2.0000      -0.343924        -9.3587
  64   2.0000      -0.331434        -9.0188
  65   2.0000      -0.323465        -8.8019
  66   2.0000      -0.297404        -8.0928
  67   0.0000       0.037410         1.0180
  68   0.0000       0.069767         1.8985
  69   0.0000       0.117485         3.1969
  70   0.0000       0.125846         3.4245
  71   0.0000       0.132829         3.6145

MULLIKEN ATOMIC CHARGES
-----------------------
   0 S :    0.107982
   1 C :   -0.102168
   2 C :   -0.117939
   3 C :    0.053535
   4 C :   -0.151804
   5 H :    0.006588
   6 C :    0.122068
   7 H :   -0.005107
   8 H :    0.005692
   9 C :   -0.069498
  10 H :    0.031974
  11 H :    0.017089
  12 C :   -0.050626
  13 H :    0.025285
  14 H :    0.026566
  15 H :    0.054094
  16 S :    0.123492
  17 C :   -0.113119
  18 C :   -0.042679
  19 C :   -0.043256
  20 C :   -0.169421
  21 H :    0.033052
  22 C :    0.040182
  23 H :    0.031149
  24 H :    0.037996
  25 C :   -0.019918
  26 H :    0.013716
  27 H :    0.026672
  28 C :   -0.069902
  29 H :    0.036672
  30 H :    0.027973
  31 H :    0.034053
  32 H :    0.029008
  33 H :    0.070599
Sum of atomic charges:    0.0000000

LOEWDIN ATOMIC CHARGES
----------------------
   0 S :    0.415841
   1 C :   -0.195470
   2 C :   -0.063424
   3 C :   -0.058067
   4 C :   -0.202759
   5 H :    0.027935
   6 C :   -0.037641
   7 H :    0.024643
   8 H :    0.027525
   9 C :   -0.024220
  10 H :    0.027286
  11 H :    0.017927
  12 C :   -0.071767
  13 H :    0.025879
  14 H :    0.025888
  15 H :    0.029479
  16 S :    0.432749
  17 C :   -0.192738
  18 C :   -0.073602
  19 C :   -0.054910
  20 C :   -0.220696
  21 H :    0.035887
  22 C :   -0.032609
  23 H :    0.034267
  24 H :    0.028735
  25 C :   -0.033392
  26 H :    0.013411
  27 H :    0.022180
  28 C :   -0.072019
  29 H :    0.029033
  30 H :    0.028845
  31 H :    0.028065
  32 H :    0.022685
  33 H :    0.035056

  Mayer bond orders larger than 0.100000
B(  0-S ,  1-C ) :   1.1291 B(  0-S ,  4-C ) :   1.1720 B(  1-C ,  2-C ) :   1.5966
B(  1-C , 32-H ) :   0.9798 B(  2-C ,  3-C ) :   1.2492 B(  2-C ,  6-C ) :   1.0454
B(  3-C ,  4-C ) :   1.5347 B(  3-C ,  5-H ) :   1.0018 B(  4-C , 20-C ) :   1.0208
B(  6-C ,  7-H ) :   0.9298 B(  6-C ,  8-H ) :   0.9255 B(  6-C ,  9-C ) :   1.0593
B(  9-C , 10-H ) :   0.9573 B(  9-C , 11-H ) :   0.9580 B(  9-C , 12-C ) :   1.0750
B( 12-C , 13-H ) :   0.9749 B( 12-C , 14-H ) :   0.9738 B( 12-C , 15-H ) :   0.9770
B( 16-S , 17-C ) :   1.1597 B( 16-S , 20-C ) :   1.1733 B( 17-C , 18-C ) :   1.5966
B( 17-C , 20-C ) :   0.1005 B( 17-C , 33-H ) :   0.9668 B( 18-C , 19-C ) :   1.2438
B( 18-C , 21-H ) :   0.9863 B( 19-C , 20-C ) :   1.5886 B( 19-C , 22-C ) :   1.0356
B( 22-C , 23-H ) :   0.9388 B( 22-C , 24-H ) :   0.9421 B( 22-C , 25-C ) :   1.0550
B( 25-C , 26-H ) :   0.9581 B( 25-C , 27-H ) :   0.9612 B( 25-C , 28-C ) :   1.0724
B( 28-C , 29-H ) :   0.9754 B( 28-C , 30-H ) :   0.9709 B( 28-C , 31-H ) :   0.9740

Dispersion correction           -0.015047606
FINAL SINGLE POINT ENERGY     -1339.873766110506

DIPOLE MOMENT
-------------
                                X             Y             Z
Electronic contribution:     -3.87483      23.30383     -11.14094
Nuclear contribution   :      3.73495     -23.82240      11.35215
                        -----------------------------------------
Total Dipole Moment    :     -0.13988      -0.51857       0.21120
                        -----------------------------------------
Magnitude (a.u.)       :      0.57714
Magnitude (Debye)      :      1.46697

Rotational constants in cm-1:     0.020455     0.008437     0.007319
Rotational constants in MHz :   613.217690   252.934389   219.432104

                             ****ORCA TERMINATED NORMALLY****
TOTAL RUN TIME: 0 days 0 hours 0 minutes 22 seconds 282 msec
