                         Program Version 4.2.1 -  RELEASE  -
|  1> ! wB97X-D3 SP def2-SVP
|  2> %pal
|  3> nprocs 24
|  4> end
|  5>
|  6> * xyz 0 1
|  7> S 	 -97.4843 	 -3.87518 	 -118.263
|  8> C 	 -97.1906 	 -5.63199 	 -118.311
|  9> C 	 -97.8676 	 -6.2569 	 -119.303
| 10> C 	 -98.6613 	 -5.29218 	 -119.994
| 11> C 	 -98.5288 	 -3.98517 	 -119.651
| 12> H 	 -99.442 	 -5.6992 	 -120.673
| 13> C 	 -97.9911 	 -7.72324 	 -119.681
| 14> H 	 -97.0232 	 -8.14967 	 -119.442
| 15> H 	 -98.1239 	 -7.80318 	 -120.751
| 16> C 	 -99.177 	 -8.51331 	 -119.198
| 17> H 	 -100.082 	 -8.1504 	 -119.736
| 18> H 	 -99.1287 	 -9.49936 	 -119.675
| 19> C 	 -99.2057 	 -8.69871 	 -117.685
| 20> H 	 -99.2456 	 -7.83756 	 -117.053
| 21> H 	 -99.9812 	 -9.30234 	 -117.327
| 22> H 	 -98.2985 	 -9.19723 	 -117.474
| 23> S 	 -100.163 	 -1.8393 	 -119.114
| 24> C 	 -100.818 	 -0.90957 	 -120.368
| 25> C 	 -100.453 	 -1.37526 	 -121.611
| 26> C 	 -99.5821 	 -2.52831 	 -121.573
| 27> C 	 -99.1934 	 -2.8249 	 -120.245
| 28> H 	 -100.954 	 -0.82404 	 -122.429
| 29> C 	 -99.2752 	 -3.24369 	 -122.793
| 30> H 	 -100.199 	 -3.1995 	 -123.292
| 31> H 	 -98.9406 	 -4.21671 	 -122.558
| 32> C 	 -98.244 	 -2.65466 	 -123.793
| 33> H 	 -97.3297 	 -3.23957 	 -123.541
| 34> H 	 -97.9794 	 -1.63726 	 -123.599
| 35> C 	 -98.5252 	 -2.77493 	 -125.269
| 36> H 	 -97.7539 	 -2.53041 	 -125.908
| 37> H 	 -99.3134 	 -2.06632 	 -125.543
| 38> H 	 -98.7635 	 -3.80376 	 -125.402
| 39> H 	 -96.4796 	 -6.08733 	 -117.603
| 40> H 	 -101.505 	 -0.0422417 	 -120.233
| 41> *
| 42>
| 43>                          ****END OF INPUT****

CARTESIAN COORDINATES (ANGSTROEM)
---------------------------------
  S    -97.484300   -3.875180  -118.263000
  C    -97.190600   -5.631990  -118.311000
  C    -97.867600   -6.256900  -119.303000
  C    -98.661300   -5.292180  -119.994000
  C    -98.528800   -3.985170  -119.651000
  H    -99.442000   -5.699200  -120.673000
  C    -97.991100   -7.723240  -119.681000
  H    -97.023200   -8.149670  -119.442000
  H    -98.123900   -7.803180  -120.751000
  C    -99.177000   -8.513310  -119.198000
  H    -100.082000   -8.150400  -119.736000
  H    -99.128700   -9.499360  -119.675000
  C    -99.205700   -8.698710  -117.685000
  H    -99.245600   -7.837560  -117.053000
  H    -99.981200   -9.302340  -117.327000
  H    -98.298500   -9.197230  -117.474000
  S    -100.163000   -1.839300  -119.114000
  C    -100.818000   -0.909570  -120.368000
  C    -100.453000   -1.375260  -121.611000
  C    -99.582100   -2.528310  -121.573000
  C    -99.193400   -2.824900  -120.245000
  H    -100.954000   -0.824040  -122.429000
  C    -99.275200   -3.243690  -122.793000
  H    -100.199000   -3.199500  -123.292000
  H    -98.940600   -4.216710  -122.558000
  C    -98.244000   -2.654660  -123.793000
  H    -97.329700   -3.239570  -123.541000
  H    -97.979400   -1.637260  -123.599000
  C    -98.525200   -2.774930  -125.269000
  H    -97.753900   -2.530410  -125.908000
  H    -99.313400   -2.066320  -125.543000
  H    -98.763500   -3.803760  -125.402000
  H    -96.479600   -6.087330  -117.603000
  H    -101.505000   -0.042242  -120.233000

 Total Charge           Charge          ....    0
 Multiplicity           Mult            ....    1
 Number of Electrons    NEL             ....  134
 Basis Dimension        Dim             ....  322

ORBITAL ENERGIES
----------------

  NO   OCC          E(Eh)            E(eV)
   0   2.0000     -88.963047     -2420.8076
   1   2.0000     -88.961944     -2420.7776
   2   2.0000     -10.329078      -281.0685
   3   2.0000     -10.327024      -281.0126
   4   2.0000     -10.316279      -280.7202
   5   2.0000     -10.315155      -280.6896
   6   2.0000     -10.308511      -280.5088
   7   2.0000     -10.296876      -280.1922
   8   2.0000     -10.293259      -280.0938
   9   2.0000     -10.291776      -280.0535
  10   2.0000     -10.291306      -280.0407
  11   2.0000     -10.288842      -279.9736
  12   2.0000     -10.280019      -279.7335
  13   2.0000     -10.279871      -279.7295
  14   2.0000     -10.268866      -279.4300
  15   2.0000     -10.266448      -279.3643
  16   2.0000      -8.077821      -219.8087
  17   2.0000      -8.077386      -219.7969
  18   2.0000      -6.036417      -164.2593
  19   2.0000      -6.035775      -164.2418
  20   2.0000      -6.032414      -164.1503
  21   2.0000      -6.031788      -164.1333
  22   2.0000      -6.028388      -164.0408
  23   2.0000      -6.028218      -164.0361
  24   2.0000      -1.006861       -27.3981
  25   2.0000      -0.986210       -26.8361
  26   2.0000      -0.918688       -24.9988
  27   2.0000      -0.917017       -24.9533
  28   2.0000      -0.870257       -23.6809
  29   2.0000      -0.859434       -23.3864
  30   2.0000      -0.844165       -22.9709
  31   2.0000      -0.811713       -22.0878
  32   2.0000      -0.792706       -21.5706
  33   2.0000      -0.780409       -21.2360
  34   2.0000      -0.712212       -19.3803
  35   2.0000      -0.703775       -19.1507
  36   2.0000      -0.691089       -18.8055
  37   2.0000      -0.656512       -17.8646
  38   2.0000      -0.634089       -17.2544
  39   2.0000      -0.626172       -17.0390
  40   2.0000      -0.600219       -16.3328
  41   2.0000      -0.568074       -15.4581
  42   2.0000      -0.562432       -15.3046
  43   2.0000      -0.557087       -15.1591
  44   2.0000      -0.544552       -14.8180
  45   2.0000      -0.540090       -14.6966
  46   2.0000      -0.520197       -14.1553
  47   2.0000      -0.517198       -14.0737
  48   2.0000      -0.501548       -13.6478
  49   2.0000      -0.495148       -13.4737
  50   2.0000      -0.489410       -13.3175
  51   2.0000      -0.483719       -13.1627
  52   2.0000      -0.472553       -12.8588
  53   2.0000      -0.465748       -12.6737
  54   2.0000      -0.461381       -12.5548
  55   2.0000      -0.452373       -12.3097
  56   2.0000      -0.445593       -12.1252
  57   2.0000      -0.438954       -11.9446
  58   2.0000      -0.431188       -11.7332
  59   2.0000      -0.426147       -11.5961
  60   2.0000      -0.418578       -11.3901
  61   2.0000      -0.413734       -11.2583
  62   2.0000      -0.408727       -11.1220
  63   2.0000      -0.348936        -9.4950
  64   2.0000      -0.330057        -8.9813
  65   2.0000      -0.324134        -8.8201
  66   2.0000      -0.291563        -7.9338
  67   0.0000       0.031939         0.8691
  68   0.0000       0.074991         2.0406
  69   0.0000       0.108174         2.9436
  70   0.0000       0.113185         3.0799
  71   0.0000       0.132312         3.6004

MULLIKEN ATOMIC CHARGES
-----------------------
   0 S :    0.097608
   1 C :   -0.156555
   2 C :   -0.057863
   3 C :   -0.020064
   4 C :   -0.132791
   5 H :    0.026463
   6 C :    0.066473
   7 H :    0.020573
   8 H :    0.018313
   9 C :   -0.061931
  10 H :    0.021467
  11 H :    0.025555
  12 C :    0.006109
  13 H :    0.034311
  14 H :    0.017962
  15 H :    0.009489
  16 S :    0.098252
  17 C :   -0.105209
  18 C :   -0.063363
  19 C :   -0.055558
  20 C :   -0.118569
  21 H :    0.028621
  22 C :    0.134191
  23 H :    0.013157
  24 H :    0.004857
  25 C :   -0.086541
  26 H :    0.028383
  27 H :    0.020891
  28 C :   -0.010699
  29 H :    0.018141
  30 H :    0.028640
  31 H :    0.024833
  32 H :    0.053587
  33 H :    0.071266
Sum of atomic charges:   -0.0000000

LOEWDIN ATOMIC CHARGES
----------------------
   0 S :    0.389643
   1 C :   -0.182426
   2 C :   -0.067748
   3 C :   -0.071223
   4 C :   -0.201132
   5 H :    0.032771
   6 C :   -0.030050
   7 H :    0.028151
   8 H :    0.033370
   9 C :   -0.040562
  10 H :    0.024444
  11 H :    0.029608
  12 C :   -0.058684
  13 H :    0.025741
  14 H :    0.020528
  15 H :    0.023136
  16 S :    0.412501
  17 C :   -0.205527
  18 C :   -0.085845
  19 C :   -0.040122
  20 C :   -0.194070
  21 H :    0.038292
  22 C :   -0.028771
  23 H :    0.031682
  24 H :    0.025724
  25 C :   -0.036906
  26 H :    0.028524
  27 H :    0.017003
  28 C :   -0.056328
  29 H :    0.018777
  30 H :    0.027261
  31 H :    0.022779
  32 H :    0.029736
  33 H :    0.039722

  Mayer bond orders larger than 0.100000
B(  0-S ,  1-C ) :   1.1261 B(  0-S ,  4-C ) :   1.1382 B(  1-C ,  2-C ) :   1.6341
B(  1-C , 32-H ) :   0.9655 B(  2-C ,  3-C ) :   1.2336 B(  2-C ,  6-C ) :   1.0206
B(  3-C ,  4-C ) :   1.6006 B(  3-C ,  5-H ) :   0.9804 B(  4-C , 20-C ) :   1.0216
B(  6-C ,  7-H ) :   0.9388 B(  6-C ,  8-H ) :   0.9320 B(  6-C ,  9-C ) :   1.0933
B(  9-C , 10-H ) :   0.9493 B(  9-C , 11-H ) :   0.9479 B(  9-C , 12-C ) :   1.0640
B( 12-C , 13-H ) :   0.9784 B( 12-C , 14-H ) :   0.9725 B( 12-C , 15-H ) :   0.9705
B( 16-S , 17-C ) :   1.1749 B( 16-S , 20-C ) :   1.1352 B( 17-C , 18-C ) :   1.6227
B( 17-C , 33-H ) :   0.9591 B( 18-C , 19-C ) :   1.2146 B( 18-C , 21-H ) :   0.9878
B( 19-C , 20-C ) :   1.5736 B( 19-C , 22-C ) :   1.0750 B( 22-C , 23-H ) :   0.9247
B( 22-C , 24-H ) :   0.9218 B( 22-C , 25-C ) :   1.0404 B( 25-C , 26-H ) :   0.9590
B( 25-C , 27-H ) :   0.9645 B( 25-C , 28-C ) :   1.0878 B( 28-C , 29-H ) :   0.9695
B( 28-C , 30-H ) :   0.9720 B( 28-C , 31-H ) :   0.9764

Dispersion correction           -0.013718989
FINAL SINGLE POINT ENERGY     -1339.859775733144

DIPOLE MOMENT
-------------
                                X             Y             Z
Electronic contribution:      0.29459      17.84504      16.89860
Nuclear contribution   :     -0.54095     -18.34224     -17.43681
                        -----------------------------------------
Total Dipole Moment    :     -0.24636      -0.49720      -0.53821
                        -----------------------------------------
Magnitude (a.u.)       :      0.77302
Magnitude (Debye)      :      1.96487

Rotational constants in cm-1:     0.018164     0.008129     0.006585
Rotational constants in MHz :   544.531667   243.702803   197.423582

                             ****ORCA TERMINATED NORMALLY****
TOTAL RUN TIME: 0 days 0 hours 0 minutes 21 seconds 224 msec
