                         Program Version 4.2.1 -  RELEASE  -
|  1> ! wB97X-D3 SP def2-SVP
|  2> %pal
|  3> nprocs 24
|  4> end
|  5>
|  6> * xyz 0 1
|  7> S 	 -41.4501 	 19.925 	 26.2193
|  8> C 	 -41.99 	 18.2972 	 26.4537
|  9> C 	 -42.0136 	 17.6694 	 25.2159
| 10> C 	 -41.6803 	 18.5623 	 24.1114
| 11> C 	 -41.3133 	 19.7899 	 24.5199
| 12> H 	 -41.6604 	 18.2904 	 23.0438
| 13> C 	 -42.5644 	 16.2969 	 24.9576
| 14> H 	 -42.2018 	 15.9558 	 23.9824
| 15> H 	 -43.6296 	 16.3645 	 24.8902
| 16> C 	 -42.2578 	 15.1799 	 25.8824
| 17> H 	 -41.1445 	 15.089 	 26.0267
| 18> H 	 -42.7113 	 15.3624 	 26.8659
| 19> C 	 -42.7169 	 13.7985 	 25.4427
| 20> H 	 -43.7334 	 13.6395 	 25.5334
| 21> H 	 -42.3868 	 13.6014 	 24.4549
| 22> H 	 -42.3184 	 13.0012 	 26.1167
| 23> S 	 -41.7666 	 22.0366 	 23.0287
| 24> C 	 -40.5136 	 22.629 	 21.9884
| 25> C 	 -39.3142 	 22.0022 	 22.1382
| 26> C 	 -39.4296 	 20.9798 	 23.1433
| 27> C 	 -40.6652 	 20.898 	 23.7793
| 28> H 	 -38.49 	 22.3243 	 21.5275
| 29> C 	 -38.3751 	 19.942 	 23.3618
| 30> H 	 -38.6373 	 19.1401 	 22.5766
| 31> H 	 -38.4457 	 19.549 	 24.3601
| 32> C 	 -36.926 	 20.4079 	 23.0559
| 33> H 	 -36.6701 	 20.7337 	 22.0224
| 34> H 	 -36.3061 	 19.5258 	 23.2538
| 35> C 	 -36.3779 	 21.5397 	 23.9431
| 36> H 	 -36.353 	 21.2554 	 25.0203
| 37> H 	 -37.0635 	 22.3934 	 23.8767
| 38> H 	 -35.4138 	 21.7466 	 23.5601
| 39> H 	 -42.497 	 17.8936 	 27.3184
| 40> H 	 -40.6682 	 23.421 	 21.3061
| 41> *
| 42>
| 43>                          ****END OF INPUT****

CARTESIAN COORDINATES (ANGSTROEM)
---------------------------------
  S    -41.450100   19.925000   26.219300
  C    -41.990000   18.297200   26.453700
  C    -42.013600   17.669400   25.215900
  C    -41.680300   18.562300   24.111400
  C    -41.313300   19.789900   24.519900
  H    -41.660400   18.290400   23.043800
  C    -42.564400   16.296900   24.957600
  H    -42.201800   15.955800   23.982400
  H    -43.629600   16.364500   24.890200
  C    -42.257800   15.179900   25.882400
  H    -41.144500   15.089000   26.026700
  H    -42.711300   15.362400   26.865900
  C    -42.716900   13.798500   25.442700
  H    -43.733400   13.639500   25.533400
  H    -42.386800   13.601400   24.454900
  H    -42.318400   13.001200   26.116700
  S    -41.766600   22.036600   23.028700
  C    -40.513600   22.629000   21.988400
  C    -39.314200   22.002200   22.138200
  C    -39.429600   20.979800   23.143300
  C    -40.665200   20.898000   23.779300
  H    -38.490000   22.324300   21.527500
  C    -38.375100   19.942000   23.361800
  H    -38.637300   19.140100   22.576600
  H    -38.445700   19.549000   24.360100
  C    -36.926000   20.407900   23.055900
  H    -36.670100   20.733700   22.022400
  H    -36.306100   19.525800   23.253800
  C    -36.377900   21.539700   23.943100
  H    -36.353000   21.255400   25.020300
  H    -37.063500   22.393400   23.876700
  H    -35.413800   21.746600   23.560100
  H    -42.497000   17.893600   27.318400
  H    -40.668200   23.421000   21.306100

 Total Charge           Charge          ....    0
 Multiplicity           Mult            ....    1
 Number of Electrons    NEL             ....  134
 Basis Dimension        Dim             ....  322

ORBITAL ENERGIES
----------------

  NO   OCC          E(Eh)            E(eV)
   0   2.0000     -88.962084     -2420.7814
   1   2.0000     -88.960057     -2420.7262
   2   2.0000     -10.324478      -280.9433
   3   2.0000     -10.322393      -280.8866
   4   2.0000     -10.313926      -280.6562
   5   2.0000     -10.311659      -280.5945
   6   2.0000     -10.305784      -280.4346
   7   2.0000     -10.302592      -280.3478
   8   2.0000     -10.294360      -280.1238
   9   2.0000     -10.294209      -280.1197
  10   2.0000     -10.293798      -280.1085
  11   2.0000     -10.288153      -279.9549
  12   2.0000     -10.285285      -279.8768
  13   2.0000     -10.284850      -279.8650
  14   2.0000     -10.273421      -279.5540
  15   2.0000     -10.271695      -279.5070
  16   2.0000      -8.077352      -219.7959
  17   2.0000      -8.075954      -219.7579
  18   2.0000      -6.035732      -164.2406
  19   2.0000      -6.034413      -164.2047
  20   2.0000      -6.031742      -164.1320
  21   2.0000      -6.030089      -164.0871
  22   2.0000      -6.028260      -164.0373
  23   2.0000      -6.026882      -163.9998
  24   2.0000      -1.011107       -27.5136
  25   2.0000      -0.989282       -26.9197
  26   2.0000      -0.919644       -25.0248
  27   2.0000      -0.906827       -24.6760
  28   2.0000      -0.872676       -23.7467
  29   2.0000      -0.849376       -23.1127
  30   2.0000      -0.846595       -23.0370
  31   2.0000      -0.822277       -22.3753
  32   2.0000      -0.785612       -21.3776
  33   2.0000      -0.771268       -20.9873
  34   2.0000      -0.703879       -19.1535
  35   2.0000      -0.698536       -19.0081
  36   2.0000      -0.691235       -18.8095
  37   2.0000      -0.654184       -17.8013
  38   2.0000      -0.644706       -17.5434
  39   2.0000      -0.614980       -16.7345
  40   2.0000      -0.598248       -16.2792
  41   2.0000      -0.581910       -15.8346
  42   2.0000      -0.573154       -15.5963
  43   2.0000      -0.552738       -15.0408
  44   2.0000      -0.536425       -14.5969
  45   2.0000      -0.523080       -14.2337
  46   2.0000      -0.521863       -14.2006
  47   2.0000      -0.517089       -14.0707
  48   2.0000      -0.508896       -13.8478
  49   2.0000      -0.504937       -13.7400
  50   2.0000      -0.495968       -13.4960
  51   2.0000      -0.481859       -13.1121
  52   2.0000      -0.469938       -12.7877
  53   2.0000      -0.465146       -12.6573
  54   2.0000      -0.456960       -12.4345
  55   2.0000      -0.449060       -12.2195
  56   2.0000      -0.444038       -12.0829
  57   2.0000      -0.429994       -11.7007
  58   2.0000      -0.428683       -11.6651
  59   2.0000      -0.425503       -11.5785
  60   2.0000      -0.420776       -11.4499
  61   2.0000      -0.411999       -11.2111
  62   2.0000      -0.408631       -11.1194
  63   2.0000      -0.337580        -9.1860
  64   2.0000      -0.329497        -8.9661
  65   2.0000      -0.318315        -8.6618
  66   2.0000      -0.314276        -8.5519
  67   0.0000       0.048459         1.3186
  68   0.0000       0.057634         1.5683
  69   0.0000       0.120216         3.2713
  70   0.0000       0.123686         3.3657
  71   0.0000       0.131884         3.5887

MULLIKEN ATOMIC CHARGES
-----------------------
   0 S :    0.108625
   1 C :   -0.107902
   2 C :   -0.112333
   3 C :    0.038724
   4 C :   -0.160049
   5 H :    0.021221
   6 C :    0.082325
   7 H :    0.007554
   8 H :    0.034166
   9 C :   -0.109876
  10 H :    0.035468
  11 H :    0.021065
  12 C :   -0.012606
  13 H :    0.012306
  14 H :    0.019678
  15 H :    0.032214
  16 S :    0.102679
  17 C :   -0.071538
  18 C :   -0.025227
  19 C :   -0.067280
  20 C :   -0.143641
  21 H :    0.020170
  22 C :    0.081969
  23 H :    0.055792
  24 H :    0.035563
  25 C :   -0.113314
  26 H :    0.030929
  27 H :    0.029505
  28 C :   -0.044989
  29 H :    0.036268
  30 H :    0.036113
  31 H :    0.030474
  32 H :    0.055928
  33 H :    0.040017
Sum of atomic charges:    0.0000000

LOEWDIN ATOMIC CHARGES
----------------------
   0 S :    0.429375
   1 C :   -0.208250
   2 C :   -0.060098
   3 C :   -0.065470
   4 C :   -0.211857
   5 H :    0.037592
   6 C :   -0.038555
   7 H :    0.028248
   8 H :    0.032727
   9 C :   -0.046574
  10 H :    0.029842
  11 H :    0.019826
  12 C :   -0.056607
  13 H :    0.013088
  14 H :    0.018543
  15 H :    0.035412
  16 S :    0.412367
  17 C :   -0.168526
  18 C :   -0.078318
  19 C :   -0.047827
  20 C :   -0.220015
  21 H :    0.034885
  22 C :   -0.033067
  23 H :    0.049427
  24 H :    0.031628
  25 C :   -0.049773
  26 H :    0.024117
  27 H :    0.025971
  28 C :   -0.063622
  29 H :    0.028239
  30 H :    0.024370
  31 H :    0.020965
  32 H :    0.031960
  33 H :    0.019977

  Mayer bond orders larger than 0.100000
B(  0-S ,  1-C ) :   1.1396 B(  0-S ,  4-C ) :   1.1731 B(  1-C ,  2-C ) :   1.6006
B(  1-C , 32-H ) :   0.9740 B(  2-C ,  3-C ) :   1.2346 B(  2-C ,  6-C ) :   1.0267
B(  3-C ,  4-C ) :   1.5995 B(  3-C ,  5-H ) :   0.9993 B(  4-C , 20-C ) :   0.9528
B(  6-C ,  7-H ) :   0.9376 B(  6-C ,  8-H ) :   0.9304 B(  6-C ,  9-C ) :   1.0801
B(  9-C , 10-H ) :   0.9583 B(  9-C , 11-H ) :   0.9444 B(  9-C , 12-C ) :   1.0965
B( 12-C , 13-H ) :   0.9730 B( 12-C , 14-H ) :   0.9733 B( 12-C , 15-H ) :   0.9710
B( 16-S , 17-C ) :   1.1853 B( 16-S , 20-C ) :   1.1316 B( 17-C , 18-C ) :   1.6084
B( 17-C , 33-H ) :   0.9655 B( 18-C , 19-C ) :   1.2150 B( 18-C , 21-H ) :   0.9993
B( 19-C , 20-C ) :   1.6204 B( 19-C , 22-C ) :   1.0473 B( 22-C , 23-H ) :   0.9249
B( 22-C , 24-H ) :   0.9343 B( 22-C , 25-C ) :   1.0762 B( 25-C , 26-H ) :   0.9528
B( 25-C , 27-H ) :   0.9544 B( 25-C , 28-C ) :   1.0770 B( 28-C , 29-H ) :   0.9748
B( 28-C , 30-H ) :   0.9747 B( 28-C , 31-H ) :   0.9750

Dispersion correction           -0.014031637
FINAL SINGLE POINT ENERGY     -1339.880077350088

DIPOLE MOMENT
-------------
                                X             Y             Z
Electronic contribution:    -11.50984      20.81319       0.66232
Nuclear contribution   :     11.69023     -21.32453      -1.08233
                        -----------------------------------------
Total Dipole Moment    :      0.18040      -0.51134      -0.42001
                        -----------------------------------------
Magnitude (a.u.)       :      0.68587
Magnitude (Debye)      :      1.74335

Rotational constants in cm-1:     0.021845     0.007033     0.006259
Rotational constants in MHz :   654.884725   210.840291   187.654562

                             ****ORCA TERMINATED NORMALLY****
TOTAL RUN TIME: 0 days 0 hours 0 minutes 21 seconds 247 msec
