                         Program Version 4.2.1 -  RELEASE  -
|  1> ! wB97X-D3 SP def2-SVP
|  2> %pal
|  3> nprocs 24
|  4> end
|  5>
|  6> * xyz 0 1
|  7> S 	 -109.088 	 55.5508 	 -88.0071
|  8> C 	 -108.561 	 53.9806 	 -87.5567
|  9> C 	 -109.115 	 53.6074 	 -86.333
| 10> C 	 -110.145 	 54.5517 	 -85.9006
| 11> C 	 -110.257 	 55.6817 	 -86.7172
| 12> H 	 -110.674 	 54.4676 	 -84.9428
| 13> C 	 -108.895 	 52.3221 	 -85.5564
| 14> H 	 -108.81 	 52.5 	 -84.5181
| 15> H 	 -107.985 	 51.9472 	 -85.8688
| 16> C 	 -109.994 	 51.259 	 -85.6505
| 17> H 	 -110.078 	 50.9711 	 -86.6215
| 18> H 	 -109.651 	 50.2905 	 -85.2811
| 19> C 	 -111.287 	 51.7214 	 -84.8687
| 20> H 	 -110.999 	 52.0107 	 -83.8346
| 21> H 	 -111.834 	 52.5194 	 -85.2696
| 22> H 	 -111.944 	 50.9118 	 -84.9014
| 23> S 	 -110.868 	 58.2497 	 -87.5596
| 24> C 	 -112.242 	 59.0703 	 -86.8611
| 25> C 	 -112.983 	 58.2544 	 -86.0954
| 26> C 	 -112.429 	 56.8891 	 -85.9193
| 27> C 	 -111.25 	 56.762 	 -86.6667
| 28> H 	 -113.903 	 58.6609 	 -85.6448
| 29> C 	 -113.224 	 55.8352 	 -85.187
| 30> H 	 -114.113 	 56.3016 	 -84.8153
| 31> H 	 -112.583 	 55.5281 	 -84.3696
| 32> C 	 -113.647 	 54.6685 	 -86.1267
| 33> H 	 -112.838 	 54.159 	 -86.4288
| 34> H 	 -114.221 	 55.1004 	 -86.9497
| 35> C 	 -114.577 	 53.7037 	 -85.3835
| 36> H 	 -115.562 	 54.1014 	 -85.2211
| 37> H 	 -114.2 	 53.6702 	 -84.3439
| 38> H 	 -114.74 	 52.6831 	 -85.7448
| 39> H 	 -107.933 	 53.3669 	 -88.1554
| 40> H 	 -112.475 	 60.1075 	 -86.9181
| 41> *
| 42>
| 43>                          ****END OF INPUT****

CARTESIAN COORDINATES (ANGSTROEM)
---------------------------------
  S    -109.088000   55.550800  -88.007100
  C    -108.561000   53.980600  -87.556700
  C    -109.115000   53.607400  -86.333000
  C    -110.145000   54.551700  -85.900600
  C    -110.257000   55.681700  -86.717200
  H    -110.674000   54.467600  -84.942800
  C    -108.895000   52.322100  -85.556400
  H    -108.810000   52.500000  -84.518100
  H    -107.985000   51.947200  -85.868800
  C    -109.994000   51.259000  -85.650500
  H    -110.078000   50.971100  -86.621500
  H    -109.651000   50.290500  -85.281100
  C    -111.287000   51.721400  -84.868700
  H    -110.999000   52.010700  -83.834600
  H    -111.834000   52.519400  -85.269600
  H    -111.944000   50.911800  -84.901400
  S    -110.868000   58.249700  -87.559600
  C    -112.242000   59.070300  -86.861100
  C    -112.983000   58.254400  -86.095400
  C    -112.429000   56.889100  -85.919300
  C    -111.250000   56.762000  -86.666700
  H    -113.903000   58.660900  -85.644800
  C    -113.224000   55.835200  -85.187000
  H    -114.113000   56.301600  -84.815300
  H    -112.583000   55.528100  -84.369600
  C    -113.647000   54.668500  -86.126700
  H    -112.838000   54.159000  -86.428800
  H    -114.221000   55.100400  -86.949700
  C    -114.577000   53.703700  -85.383500
  H    -115.562000   54.101400  -85.221100
  H    -114.200000   53.670200  -84.343900
  H    -114.740000   52.683100  -85.744800
  H    -107.933000   53.366900  -88.155400
  H    -112.475000   60.107500  -86.918100

 Total Charge           Charge          ....    0
 Multiplicity           Mult            ....    1
 Number of Electrons    NEL             ....  134
 Basis Dimension        Dim             ....  322

ORBITAL ENERGIES
----------------

  NO   OCC          E(Eh)            E(eV)
   0   2.0000     -88.965128     -2420.8642
   1   2.0000     -88.964551     -2420.8485
   2   2.0000     -10.334206      -281.2080
   3   2.0000     -10.333775      -281.1963
   4   2.0000     -10.313789      -280.6525
   5   2.0000     -10.312102      -280.6066
   6   2.0000     -10.309646      -280.5397
   7   2.0000     -10.304564      -280.4014
   8   2.0000     -10.297277      -280.2031
   9   2.0000     -10.294967      -280.1403
  10   2.0000     -10.294510      -280.1279
  11   2.0000     -10.282035      -279.7884
  12   2.0000     -10.281079      -279.7624
  13   2.0000     -10.279406      -279.7169
  14   2.0000     -10.276302      -279.6324
  15   2.0000     -10.276183      -279.6291
  16   2.0000      -8.080512      -219.8819
  17   2.0000      -8.079183      -219.8457
  18   2.0000      -6.039082      -164.3318
  19   2.0000      -6.037971      -164.3016
  20   2.0000      -6.034810      -164.2155
  21   2.0000      -6.033774      -164.1873
  22   2.0000      -6.031309      -164.1203
  23   2.0000      -6.029600      -164.0738
  24   2.0000      -1.004824       -27.3427
  25   2.0000      -0.982511       -26.7355
  26   2.0000      -0.914449       -24.8834
  27   2.0000      -0.912691       -24.8356
  28   2.0000      -0.870723       -23.6936
  29   2.0000      -0.850977       -23.1563
  30   2.0000      -0.839561       -22.8456
  31   2.0000      -0.818931       -22.2842
  32   2.0000      -0.786922       -21.4132
  33   2.0000      -0.773833       -21.0571
  34   2.0000      -0.716549       -19.4983
  35   2.0000      -0.713727       -19.4215
  36   2.0000      -0.694976       -18.9113
  37   2.0000      -0.663463       -18.0537
  38   2.0000      -0.638829       -17.3834
  39   2.0000      -0.619239       -16.8503
  40   2.0000      -0.591901       -16.1064
  41   2.0000      -0.582175       -15.8418
  42   2.0000      -0.573170       -15.5967
  43   2.0000      -0.553556       -15.0630
  44   2.0000      -0.537338       -14.6217
  45   2.0000      -0.522567       -14.2198
  46   2.0000      -0.519563       -14.1380
  47   2.0000      -0.511716       -13.9245
  48   2.0000      -0.509863       -13.8741
  49   2.0000      -0.505785       -13.7631
  50   2.0000      -0.491353       -13.3704
  51   2.0000      -0.480785       -13.0828
  52   2.0000      -0.475352       -12.9350
  53   2.0000      -0.470213       -12.7951
  54   2.0000      -0.454965       -12.3802
  55   2.0000      -0.452864       -12.3231
  56   2.0000      -0.445414       -12.1203
  57   2.0000      -0.438715       -11.9380
  58   2.0000      -0.431336       -11.7372
  59   2.0000      -0.428009       -11.6467
  60   2.0000      -0.424275       -11.5451
  61   2.0000      -0.417884       -11.3712
  62   2.0000      -0.413910       -11.2631
  63   2.0000      -0.364804        -9.9268
  64   2.0000      -0.332284        -9.0419
  65   2.0000      -0.323622        -8.8062
  66   2.0000      -0.282531        -7.6881
  67   0.0000       0.020550         0.5592
  68   0.0000       0.082410         2.2425
  69   0.0000       0.101517         2.7624
  70   0.0000       0.117233         3.1901
  71   0.0000       0.131226         3.5709

MULLIKEN ATOMIC CHARGES
-----------------------
   0 S :    0.101954
   1 C :   -0.109701
   2 C :   -0.100315
   3 C :   -0.036944
   4 C :   -0.092194
   5 H :    0.017280
   6 C :    0.118651
   7 H :    0.010443
   8 H :   -0.009595
   9 C :   -0.020556
  10 H :   -0.006952
  11 H :    0.015730
  12 C :   -0.011530
  13 H :    0.030075
  14 H :    0.005327
  15 H :    0.021070
  16 S :    0.088817
  17 C :   -0.063491
  18 C :   -0.042577
  19 C :   -0.095570
  20 C :   -0.111031
  21 H :    0.024999
  22 C :    0.072779
  23 H :    0.010367
  24 H :    0.035605
  25 C :   -0.017709
  26 H :    0.019893
  27 H :    0.037189
  28 C :   -0.053111
  29 H :    0.017697
  30 H :    0.016583
  31 H :    0.042112
  32 H :    0.038877
  33 H :    0.045832
Sum of atomic charges:    0.0000000

LOEWDIN ATOMIC CHARGES
----------------------
   0 S :    0.416753
   1 C :   -0.202747
   2 C :   -0.054301
   3 C :   -0.073648
   4 C :   -0.191162
   5 H :    0.030309
   6 C :   -0.024417
   7 H :    0.025635
   8 H :    0.017743
   9 C :   -0.025171
  10 H :    0.009011
  11 H :    0.026945
  12 C :   -0.052577
  13 H :    0.029556
  14 H :    0.015891
  15 H :    0.020532
  16 S :    0.383571
  17 C :   -0.181028
  18 C :   -0.075004
  19 C :   -0.051050
  20 C :   -0.183634
  21 H :    0.035143
  22 C :   -0.023725
  23 H :    0.027649
  24 H :    0.029277
  25 C :   -0.019429
  26 H :    0.003944
  27 H :    0.031277
  28 C :   -0.072171
  29 H :    0.020696
  30 H :    0.024972
  31 H :    0.027446
  32 H :    0.024286
  33 H :    0.029428

  Mayer bond orders larger than 0.100000
B(  0-S ,  1-C ) :   1.1496 B(  0-S ,  4-C ) :   1.1501 B(  1-C ,  2-C ) :   1.5918
B(  1-C , 32-H ) :   0.9751 B(  2-C ,  3-C ) :   1.2510 B(  2-C ,  6-C ) :   1.0408
B(  3-C ,  4-C ) :   1.5570 B(  3-C ,  5-H ) :   0.9787 B(  4-C , 20-C ) :   1.0746
B(  6-C ,  7-H ) :   0.9369 B(  6-C ,  8-H ) :   0.9296 B(  6-C ,  9-C ) :   1.0796
B(  9-C , 10-H ) :   0.9504 B(  9-C , 11-H ) :   0.9507 B(  9-C , 12-C ) :   1.0681
B( 12-C , 13-H ) :   0.9719 B( 12-C , 14-H ) :   0.9736 B( 12-C , 15-H ) :   0.9678
B( 16-S , 17-C ) :   1.1271 B( 16-S , 20-C ) :   1.1164 B( 17-C , 18-C ) :   1.6761
B( 17-C , 33-H ) :   0.9644 B( 18-C , 19-C ) :   1.2054 B( 18-C , 21-H ) :   0.9808
B( 19-C , 20-C ) :   1.6103 B( 19-C , 22-C ) :   1.0462 B( 22-C , 23-H ) :   0.9337
B( 22-C , 24-H ) :   0.9166 B( 22-C , 25-C ) :   1.0713 B( 25-C , 26-H ) :   0.9548
B( 25-C , 27-H ) :   0.9533 B( 25-C , 28-C ) :   1.0786 B( 28-C , 29-H ) :   0.9726
B( 28-C , 30-H ) :   0.9683 B( 28-C , 31-H ) :   0.9755

Dispersion correction           -0.016048117
FINAL SINGLE POINT ENERGY     -1339.862637351321

DIPOLE MOMENT
-------------
                                X             Y             Z
Electronic contribution:     14.71395      24.47223     -15.14537
Nuclear contribution   :    -15.14479     -24.95226      15.56414
                        -----------------------------------------
Total Dipole Moment    :     -0.43084      -0.48004       0.41876
                        -----------------------------------------
Magnitude (a.u.)       :      0.76904
Magnitude (Debye)      :      1.95474

Rotational constants in cm-1:     0.018230     0.010913     0.007239
Rotational constants in MHz :   546.508417   327.163412   217.028881

                             ****ORCA TERMINATED NORMALLY****
TOTAL RUN TIME: 0 days 0 hours 0 minutes 23 seconds 477 msec
