                         Program Version 4.2.1 -  RELEASE  -
|  1> ! wB97X-D3 SP def2-SVP
|  2> %pal
|  3> nprocs 24
|  4> end
|  5>
|  6> * xyz 0 1
|  7> S 	 1.09515 	 -22.4962 	 -115.082
|  8> C 	 1.98655 	 -21.0609 	 -115.008
|  9> C 	 1.47718 	 -20.1873 	 -114.054
| 10> C 	 0.237606 	 -20.7082 	 -113.529
| 11> C 	 -0.13504 	 -21.9271 	 -114.019
| 12> H 	 -0.348466 	 -20.2757 	 -112.744
| 13> C 	 2.07415 	 -18.8452 	 -113.742
| 14> H 	 3.05777 	 -18.8956 	 -114.05
| 15> H 	 2.14178 	 -18.7069 	 -112.663
| 16> C 	 1.46716 	 -17.6176 	 -114.369
| 17> H 	 0.401176 	 -17.6011 	 -113.962
| 18> H 	 2.08924 	 -16.7803 	 -113.964
| 19> C 	 1.31842 	 -17.5289 	 -115.915
| 20> H 	 0.711939 	 -18.382 	 -116.315
| 21> H 	 0.755312 	 -16.6692 	 -116.233
| 22> H 	 2.29328 	 -17.4998 	 -116.38
| 23> S 	 -0.665348 	 -24.2937 	 -112.752
| 24> C 	 -2.32275 	 -24.8019 	 -112.562
| 25> C 	 -3.14147 	 -23.7097 	 -112.64
| 26> C 	 -2.5749 	 -22.6244 	 -113.358
| 27> C 	 -1.22456 	 -22.7895 	 -113.538
| 28> H 	 -4.19564 	 -23.7828 	 -112.436
| 29> C 	 -3.39498 	 -21.4349 	 -113.818
| 30> H 	 -2.7222 	 -20.9191 	 -114.603
| 31> H 	 -3.51599 	 -20.7494 	 -112.946
| 32> C 	 -4.81705 	 -21.7599 	 -114.302
| 33> H 	 -5.40555 	 -20.8256 	 -114.419
| 34> H 	 -5.37167 	 -22.5451 	 -113.695
| 35> C 	 -4.72984 	 -22.3283 	 -115.783
| 36> H 	 -4.0623 	 -23.1988 	 -115.701
| 37> H 	 -4.32996 	 -21.6092 	 -116.508
| 38> H 	 -5.64317 	 -22.7364 	 -116.174
| 39> H 	 2.96788 	 -20.916 	 -115.483
| 40> H 	 -2.72326 	 -25.6886 	 -112.044
| 41> *
| 42>
| 43>                          ****END OF INPUT****

CARTESIAN COORDINATES (ANGSTROEM)
---------------------------------
  S      1.095150  -22.496200  -115.082000
  C      1.986550  -21.060900  -115.008000
  C      1.477180  -20.187300  -114.054000
  C      0.237606  -20.708200  -113.529000
  C     -0.135040  -21.927100  -114.019000
  H     -0.348466  -20.275700  -112.744000
  C      2.074150  -18.845200  -113.742000
  H      3.057770  -18.895600  -114.050000
  H      2.141780  -18.706900  -112.663000
  C      1.467160  -17.617600  -114.369000
  H      0.401176  -17.601100  -113.962000
  H      2.089240  -16.780300  -113.964000
  C      1.318420  -17.528900  -115.915000
  H      0.711939  -18.382000  -116.315000
  H      0.755312  -16.669200  -116.233000
  H      2.293280  -17.499800  -116.380000
  S     -0.665348  -24.293700  -112.752000
  C     -2.322750  -24.801900  -112.562000
  C     -3.141470  -23.709700  -112.640000
  C     -2.574900  -22.624400  -113.358000
  C     -1.224560  -22.789500  -113.538000
  H     -4.195640  -23.782800  -112.436000
  C     -3.394980  -21.434900  -113.818000
  H     -2.722200  -20.919100  -114.603000
  H     -3.515990  -20.749400  -112.946000
  C     -4.817050  -21.759900  -114.302000
  H     -5.405550  -20.825600  -114.419000
  H     -5.371670  -22.545100  -113.695000
  C     -4.729840  -22.328300  -115.783000
  H     -4.062300  -23.198800  -115.701000
  H     -4.329960  -21.609200  -116.508000
  H     -5.643170  -22.736400  -116.174000
  H      2.967880  -20.916000  -115.483000
  H     -2.723260  -25.688600  -112.044000

 Total Charge           Charge          ....    0
 Multiplicity           Mult            ....    1
 Number of Electrons    NEL             ....  134
 Basis Dimension        Dim             ....  322

ORBITAL ENERGIES
----------------

  NO   OCC          E(Eh)            E(eV)
   0   2.0000     -88.964356     -2420.8432
   1   2.0000     -88.962916     -2420.8040
   2   2.0000     -10.327146      -281.0159
   3   2.0000     -10.324786      -280.9517
   4   2.0000     -10.316139      -280.7164
   5   2.0000     -10.313227      -280.6372
   6   2.0000     -10.302552      -280.3467
   7   2.0000     -10.301702      -280.3236
   8   2.0000     -10.300526      -280.2916
   9   2.0000     -10.298800      -280.2446
  10   2.0000     -10.294167      -280.1185
  11   2.0000     -10.292187      -280.0646
  12   2.0000     -10.288981      -279.9774
  13   2.0000     -10.283489      -279.8280
  14   2.0000     -10.278538      -279.6932
  15   2.0000     -10.274456      -279.5822
  16   2.0000      -8.080692      -219.8868
  17   2.0000      -8.077427      -219.7980
  18   2.0000      -6.038980      -164.3290
  19   2.0000      -6.036022      -164.2485
  20   2.0000      -6.034883      -164.2175
  21   2.0000      -6.032194      -164.1444
  22   2.0000      -6.031654      -164.1296
  23   2.0000      -6.027843      -164.0260
  24   2.0000      -1.012960       -27.5641
  25   2.0000      -0.990507       -26.9531
  26   2.0000      -0.914876       -24.8951
  27   2.0000      -0.904677       -24.6175
  28   2.0000      -0.870474       -23.6868
  29   2.0000      -0.847304       -23.0563
  30   2.0000      -0.840873       -22.8813
  31   2.0000      -0.816806       -22.2264
  32   2.0000      -0.786294       -21.3962
  33   2.0000      -0.772209       -21.0129
  34   2.0000      -0.706653       -19.2290
  35   2.0000      -0.693899       -18.8820
  36   2.0000      -0.689166       -18.7532
  37   2.0000      -0.655554       -17.8385
  38   2.0000      -0.645854       -17.5746
  39   2.0000      -0.620895       -16.8954
  40   2.0000      -0.593011       -16.1366
  41   2.0000      -0.570777       -15.5316
  42   2.0000      -0.551073       -14.9955
  43   2.0000      -0.549931       -14.9644
  44   2.0000      -0.542946       -14.7743
  45   2.0000      -0.533416       -14.5150
  46   2.0000      -0.517140       -14.0721
  47   2.0000      -0.514457       -13.9991
  48   2.0000      -0.501777       -13.6540
  49   2.0000      -0.493785       -13.4366
  50   2.0000      -0.489745       -13.3266
  51   2.0000      -0.476535       -12.9672
  52   2.0000      -0.468975       -12.7615
  53   2.0000      -0.466043       -12.6817
  54   2.0000      -0.460218       -12.5232
  55   2.0000      -0.449450       -12.2302
  56   2.0000      -0.443248       -12.0614
  57   2.0000      -0.438664       -11.9366
  58   2.0000      -0.434680       -11.8282
  59   2.0000      -0.423244       -11.5171
  60   2.0000      -0.419486       -11.4148
  61   2.0000      -0.411357       -11.1936
  62   2.0000      -0.408119       -11.1055
  63   2.0000      -0.345984        -9.4147
  64   2.0000      -0.330255        -8.9867
  65   2.0000      -0.324639        -8.8339
  66   2.0000      -0.299855        -8.1595
  67   0.0000       0.031811         0.8656
  68   0.0000       0.068361         1.8602
  69   0.0000       0.107556         2.9267
  70   0.0000       0.122966         3.3461
  71   0.0000       0.136628         3.7178

MULLIKEN ATOMIC CHARGES
-----------------------
   0 S :    0.126492
   1 C :   -0.117229
   2 C :   -0.130858
   3 C :    0.048874
   4 C :   -0.178270
   5 H :    0.002753
   6 C :    0.127088
   7 H :   -0.015523
   8 H :    0.029293
   9 C :   -0.102855
  10 H :    0.031505
  11 H :    0.041068
  12 C :   -0.048823
  13 H :    0.046743
  14 H :    0.033130
  15 H :    0.027685
  16 S :    0.098004
  17 C :   -0.080779
  18 C :   -0.046759
  19 C :   -0.044545
  20 C :   -0.149392
  21 H :    0.014259
  22 C :    0.041452
  23 H :    0.052860
  24 H :    0.049418
  25 C :   -0.106820
  26 H :    0.042240
  27 H :    0.051837
  28 C :   -0.069242
  29 H :    0.035107
  30 H :    0.038611
  31 H :    0.027383
  32 H :    0.059989
  33 H :    0.065306
Sum of atomic charges:   -0.0000000

LOEWDIN ATOMIC CHARGES
----------------------
   0 S :    0.444687
   1 C :   -0.214148
   2 C :   -0.066201
   3 C :   -0.056791
   4 C :   -0.218110
   5 H :    0.027960
   6 C :   -0.035409
   7 H :    0.016986
   8 H :    0.036704
   9 C :   -0.043108
  10 H :    0.027849
  11 H :    0.030216
  12 C :   -0.069709
  13 H :    0.034176
  14 H :    0.025967
  15 H :    0.020681
  16 S :    0.388170
  17 C :   -0.187062
  18 C :   -0.072457
  19 C :   -0.061997
  20 C :   -0.183548
  21 H :    0.025385
  22 C :   -0.039479
  23 H :    0.045185
  24 H :    0.037878
  25 C :   -0.046741
  26 H :    0.028257
  27 H :    0.031835
  28 C :   -0.069900
  29 H :    0.026745
  30 H :    0.025411
  31 H :    0.018533
  32 H :    0.034798
  33 H :    0.037237

  Mayer bond orders larger than 0.100000
B(  0-S ,  1-C ) :   1.1716 B(  0-S ,  4-C ) :   1.1639 B(  1-C ,  2-C ) :   1.5796
B(  1-C , 32-H ) :   0.9625 B(  2-C ,  3-C ) :   1.2499 B(  2-C ,  6-C ) :   1.0377
B(  3-C ,  4-C ) :   1.5600 B(  3-C ,  5-H ) :   1.0028 B(  4-C , 20-C ) :   1.0183
B(  6-C ,  7-H ) :   0.9231 B(  6-C ,  8-H ) :   0.9320 B(  6-C ,  9-C ) :   1.0723
B(  9-C , 10-H ) :   0.9564 B(  9-C , 11-H ) :   0.9539 B(  9-C , 12-C ) :   1.0773
B( 12-C , 13-H ) :   0.9714 B( 12-C , 14-H ) :   0.9740 B( 12-C , 15-H ) :   0.9758
B( 16-S , 17-C ) :   1.1396 B( 16-S , 20-C ) :   1.1361 B( 17-C , 18-C ) :   1.6447
B( 17-C , 33-H ) :   0.9599 B( 18-C , 19-C ) :   1.2246 B( 18-C , 21-H ) :   0.9773
B( 19-C , 20-C ) :   1.6315 B( 19-C , 22-C ) :   1.0350 B( 22-C , 23-H ) :   0.9385
B( 22-C , 24-H ) :   0.9307 B( 22-C , 25-C ) :   1.0568 B( 25-C , 26-H ) :   0.9567
B( 25-C , 27-H ) :   0.9554 B( 25-C , 28-C ) :   1.0645 B( 28-C , 29-H ) :   0.9786
B( 28-C , 30-H ) :   0.9768 B( 28-C , 31-H ) :   0.9772

Dispersion correction           -0.014361624
FINAL SINGLE POINT ENERGY     -1339.875506100878

DIPOLE MOMENT
-------------
                                X             Y             Z
Electronic contribution:     10.40701     -21.50322       7.27304
Nuclear contribution   :    -10.61893      22.03631      -7.09029
                        -----------------------------------------
Total Dipole Moment    :     -0.21192       0.53309       0.18274
                        -----------------------------------------
Magnitude (a.u.)       :      0.60207
Magnitude (Debye)      :      1.53034

Rotational constants in cm-1:     0.020010     0.008315     0.006744
Rotational constants in MHz :   599.897153   249.275290   202.184483

                             ****ORCA TERMINATED NORMALLY****
TOTAL RUN TIME: 0 days 0 hours 0 minutes 21 seconds 582 msec
