                         Program Version 4.2.1 -  RELEASE  -
|  1> ! wB97X-D3 SP def2-SVP
|  2> %pal
|  3> nprocs 24
|  4> end
|  5>
|  6> * xyz 0 1
|  7> S 	 -106.662 	 18.2526 	 -115.677
|  8> C 	 -104.896 	 18.1211 	 -115.715
|  9> C 	 -104.304 	 19.3556 	 -115.831
| 10> C 	 -105.319 	 20.4262 	 -115.789
| 11> C 	 -106.617 	 20.027 	 -115.62
| 12> H 	 -105.004 	 21.3746 	 -115.705
| 13> C 	 -102.83 	 19.6089 	 -115.777
| 14> H 	 -102.724 	 20.4663 	 -116.45
| 15> H 	 -102.143 	 18.8243 	 -116.197
| 16> C 	 -102.163 	 20.0323 	 -114.481
| 17> H 	 -101.157 	 20.4441 	 -114.562
| 18> H 	 -102.731 	 20.9718 	 -114.134
| 19> C 	 -102.186 	 19.0132 	 -113.338
| 20> H 	 -102.24 	 18.0224 	 -113.766
| 21> H 	 -101.198 	 18.8883 	 -112.878
| 22> H 	 -103.029 	 19.1337 	 -112.661
| 23> S 	 -108.446 	 20.2648 	 -113.655
| 24> C 	 -109.319 	 21.792 	 -113.33
| 25> C 	 -109.032 	 22.6628 	 -114.437
| 26> C 	 -108.089 	 22.1138 	 -115.339
| 27> C 	 -107.754 	 20.7924 	 -115.111
| 28> H 	 -109.416 	 23.6781 	 -114.386
| 29> C 	 -107.723 	 22.8204 	 -116.581
| 30> H 	 -107.21 	 22.2072 	 -117.292
| 31> H 	 -106.928 	 23.4861 	 -116.303
| 32> C 	 -108.87 	 23.6416 	 -117.204
| 33> H 	 -109.381 	 24.256 	 -116.542
| 34> H 	 -109.559 	 22.8786 	 -117.458
| 35> C 	 -108.555 	 24.6067 	 -118.339
| 36> H 	 -109.447 	 25.1187 	 -118.68
| 37> H 	 -108.091 	 24.2281 	 -119.225
| 38> H 	 -107.964 	 25.4067 	 -117.961
| 39> H 	 -104.383 	 17.1903 	 -115.631
| 40> H 	 -110.014 	 21.9944 	 -112.477
| 41> *
| 42>
| 43>                          ****END OF INPUT****

CARTESIAN COORDINATES (ANGSTROEM)
---------------------------------
  S    -106.662000   18.252600  -115.677000
  C    -104.896000   18.121100  -115.715000
  C    -104.304000   19.355600  -115.831000
  C    -105.319000   20.426200  -115.789000
  C    -106.617000   20.027000  -115.620000
  H    -105.004000   21.374600  -115.705000
  C    -102.830000   19.608900  -115.777000
  H    -102.724000   20.466300  -116.450000
  H    -102.143000   18.824300  -116.197000
  C    -102.163000   20.032300  -114.481000
  H    -101.157000   20.444100  -114.562000
  H    -102.731000   20.971800  -114.134000
  C    -102.186000   19.013200  -113.338000
  H    -102.240000   18.022400  -113.766000
  H    -101.198000   18.888300  -112.878000
  H    -103.029000   19.133700  -112.661000
  S    -108.446000   20.264800  -113.655000
  C    -109.319000   21.792000  -113.330000
  C    -109.032000   22.662800  -114.437000
  C    -108.089000   22.113800  -115.339000
  C    -107.754000   20.792400  -115.111000
  H    -109.416000   23.678100  -114.386000
  C    -107.723000   22.820400  -116.581000
  H    -107.210000   22.207200  -117.292000
  H    -106.928000   23.486100  -116.303000
  C    -108.870000   23.641600  -117.204000
  H    -109.381000   24.256000  -116.542000
  H    -109.559000   22.878600  -117.458000
  C    -108.555000   24.606700  -118.339000
  H    -109.447000   25.118700  -118.680000
  H    -108.091000   24.228100  -119.225000
  H    -107.964000   25.406700  -117.961000
  H    -104.383000   17.190300  -115.631000
  H    -110.014000   21.994400  -112.477000

 Total Charge           Charge          ....    0
 Multiplicity           Mult            ....    1
 Number of Electrons    NEL             ....  134
 Basis Dimension        Dim             ....  322

ORBITAL ENERGIES
----------------

  NO   OCC          E(Eh)            E(eV)
   0   2.0000     -88.965898     -2420.8852
   1   2.0000     -88.962817     -2420.8013
   2   2.0000     -10.335901      -281.2542
   3   2.0000     -10.331003      -281.1209
   4   2.0000     -10.324098      -280.9330
   5   2.0000     -10.315714      -280.7048
   6   2.0000     -10.306374      -280.4507
   7   2.0000     -10.301234      -280.3108
   8   2.0000     -10.299872      -280.2738
   9   2.0000     -10.296791      -280.1899
  10   2.0000     -10.292752      -280.0800
  11   2.0000     -10.290861      -280.0286
  12   2.0000     -10.282120      -279.7907
  13   2.0000     -10.276458      -279.6366
  14   2.0000     -10.274060      -279.5714
  15   2.0000     -10.271422      -279.4996
  16   2.0000      -8.080792      -219.8895
  17   2.0000      -8.077184      -219.7914
  18   2.0000      -6.039291      -164.3375
  19   2.0000      -6.035898      -164.2451
  20   2.0000      -6.034938      -164.2190
  21   2.0000      -6.031836      -164.1346
  22   2.0000      -6.031745      -164.1321
  23   2.0000      -6.027753      -164.0235
  24   2.0000      -1.009746       -27.4766
  25   2.0000      -0.982142       -26.7254
  26   2.0000      -0.915197       -24.9038
  27   2.0000      -0.911209       -24.7952
  28   2.0000      -0.869791       -23.6682
  29   2.0000      -0.855437       -23.2776
  30   2.0000      -0.843871       -22.9629
  31   2.0000      -0.818398       -22.2697
  32   2.0000      -0.784234       -21.3401
  33   2.0000      -0.775953       -21.1148
  34   2.0000      -0.714286       -19.4367
  35   2.0000      -0.703938       -19.1551
  36   2.0000      -0.695084       -18.9142
  37   2.0000      -0.661143       -17.9906
  38   2.0000      -0.644273       -17.5316
  39   2.0000      -0.628351       -17.0983
  40   2.0000      -0.598779       -16.2936
  41   2.0000      -0.570229       -15.5167
  42   2.0000      -0.568766       -15.4769
  43   2.0000      -0.551153       -14.9976
  44   2.0000      -0.546947       -14.8832
  45   2.0000      -0.533632       -14.5209
  46   2.0000      -0.516924       -14.0662
  47   2.0000      -0.512384       -13.9427
  48   2.0000      -0.507130       -13.7997
  49   2.0000      -0.504728       -13.7343
  50   2.0000      -0.489942       -13.3320
  51   2.0000      -0.480571       -13.0770
  52   2.0000      -0.472490       -12.8571
  53   2.0000      -0.469795       -12.7838
  54   2.0000      -0.460290       -12.5251
  55   2.0000      -0.450270       -12.2525
  56   2.0000      -0.441079       -12.0024
  57   2.0000      -0.433568       -11.7980
  58   2.0000      -0.430658       -11.7188
  59   2.0000      -0.420495       -11.4422
  60   2.0000      -0.418708       -11.3936
  61   2.0000      -0.411194       -11.1892
  62   2.0000      -0.408180       -11.1071
  63   2.0000      -0.354158        -9.6371
  64   2.0000      -0.328032        -8.9262
  65   2.0000      -0.325893        -8.8680
  66   2.0000      -0.293051        -7.9743
  67   0.0000       0.025265         0.6875
  68   0.0000       0.068900         1.8749
  69   0.0000       0.110514         3.0073
  70   0.0000       0.116659         3.1745
  71   0.0000       0.129396         3.5210

MULLIKEN ATOMIC CHARGES
-----------------------
   0 S :    0.081157
   1 C :   -0.112675
   2 C :   -0.071579
   3 C :    0.078847
   4 C :   -0.127638
   5 H :   -0.040288
   6 C :    0.036249
   7 H :    0.025542
   8 H :    0.038570
   9 C :   -0.100250
  10 H :    0.032349
  11 H :    0.023609
  12 C :   -0.030996
  13 H :    0.003287
  14 H :    0.028652
  15 H :    0.055551
  16 S :    0.105895
  17 C :   -0.128926
  18 C :   -0.049074
  19 C :   -0.068540
  20 C :   -0.094335
  21 H :    0.033135
  22 C :    0.101623
  23 H :    0.017354
  24 H :    0.008365
  25 C :   -0.054871
  26 H :    0.008890
  27 H :    0.024199
  28 C :   -0.018603
  29 H :    0.022589
  30 H :    0.026959
  31 H :    0.016494
  32 H :    0.044846
  33 H :    0.083614
Sum of atomic charges:    0.0000000

LOEWDIN ATOMIC CHARGES
----------------------
   0 S :    0.372812
   1 C :   -0.173797
   2 C :   -0.060931
   3 C :   -0.042152
   4 C :   -0.176543
   5 H :    0.007192
   6 C :   -0.043641
   7 H :    0.035714
   8 H :    0.035967
   9 C :   -0.051716
  10 H :    0.026569
  11 H :    0.027334
  12 C :   -0.073575
  13 H :    0.020568
  14 H :    0.031399
  15 H :    0.032253
  16 S :    0.428961
  17 C :   -0.187941
  18 C :   -0.069984
  19 C :   -0.061441
  20 C :   -0.221623
  21 H :    0.033585
  22 C :   -0.030647
  23 H :    0.028047
  24 H :    0.027009
  25 C :   -0.031581
  26 H :    0.015776
  27 H :    0.023050
  28 C :   -0.058446
  29 H :    0.029057
  30 H :    0.019761
  31 H :    0.021557
  32 H :    0.024331
  33 H :    0.043075

  Mayer bond orders larger than 0.100000
B(  0-S ,  1-C ) :   1.1244 B(  0-S ,  4-C ) :   1.1249 B(  1-C ,  2-C ) :   1.6316
B(  1-C , 32-H ) :   0.9738 B(  2-C ,  3-C ) :   1.2148 B(  2-C ,  6-C ) :   1.0325
B(  3-C ,  4-C ) :   1.5908 B(  3-C ,  5-H ) :   1.0090 B(  4-C , 20-C ) :   1.0238
B(  6-C ,  7-H ) :   0.9284 B(  6-C ,  8-H ) :   0.9452 B(  6-C ,  9-C ) :   1.0866
B(  9-C , 10-H ) :   0.9585 B(  9-C , 11-H ) :   0.9556 B(  9-C , 12-C ) :   1.0603
B( 12-C , 13-H ) :   0.9740 B( 12-C , 14-H ) :   0.9727 B( 12-C , 15-H ) :   0.9769
B( 16-S , 17-C ) :   1.1808 B( 16-S , 20-C ) :   1.1552 B( 17-C , 18-C ) :   1.5412
B( 17-C , 20-C ) :   0.1065 B( 17-C , 33-H ) :   0.9644 B( 18-C , 19-C ) :   1.2828
B( 18-C , 21-H ) :   0.9880 B( 19-C , 20-C ) :   1.5483 B( 19-C , 22-C ) :   1.0533
B( 22-C , 23-H ) :   0.9419 B( 22-C , 24-H ) :   0.9070 B( 22-C , 25-C ) :   1.0650
B( 25-C , 26-H ) :   0.9461 B( 25-C , 27-H ) :   0.9578 B( 25-C , 28-C ) :   1.0902
B( 28-C , 29-H ) :   0.9705 B( 28-C , 30-H ) :   0.9768 B( 28-C , 31-H ) :   0.9719

Dispersion correction           -0.013943005
FINAL SINGLE POINT ENERGY     -1339.852344600101

DIPOLE MOMENT
-------------
                                X             Y             Z
Electronic contribution:    -13.99705     -15.38422       6.65988
Nuclear contribution   :     14.42214      15.98610      -6.60871
                        -----------------------------------------
Total Dipole Moment    :      0.42509       0.60189       0.05118
                        -----------------------------------------
Magnitude (a.u.)       :      0.73864
Magnitude (Debye)      :      1.87748

Rotational constants in cm-1:     0.019274     0.007796     0.006784
Rotational constants in MHz :   577.833957   233.708718   203.365519

                             ****ORCA TERMINATED NORMALLY****
TOTAL RUN TIME: 0 days 0 hours 0 minutes 21 seconds 232 msec
