                         Program Version 4.2.1 -  RELEASE  -
|  1> ! wB97X-D3 SP def2-SVP
|  2> %pal
|  3> nprocs 24
|  4> end
|  5>
|  6> * xyz 0 1
|  7> S 	 -46.7099 	 10.2714 	 -22.1509
|  8> C 	 -48.0003 	 9.1612 	 -22.0397
|  9> C 	 -49 	 9.3785 	 -23.0448
| 10> C 	 -48.6784 	 10.4781 	 -23.9144
| 11> C 	 -47.5325 	 11.0998 	 -23.4901
| 12> H 	 -49.3326 	 11.0215 	 -24.5453
| 13> C 	 -50.3048 	 8.60556 	 -23.1186
| 14> H 	 -50.2416 	 8.06338 	 -22.2173
| 15> H 	 -50.396 	 8.01465 	 -24.0249
| 16> C 	 -51.5886 	 9.45112 	 -23.0392
| 17> H 	 -51.6974 	 9.79809 	 -22.0509
| 18> H 	 -51.5139 	 10.2756 	 -23.7137
| 19> C 	 -52.9296 	 8.8 	 -23.4274
| 20> H 	 -52.9343 	 8.56404 	 -24.5169
| 21> H 	 -53.1001 	 7.88157 	 -22.9951
| 22> H 	 -53.7729 	 9.48284 	 -23.037
| 23> S 	 -46.6983 	 12.4088 	 -25.7313
| 24> C 	 -46.2828 	 14.0708 	 -25.5801
| 25> C 	 -46.369 	 14.6057 	 -24.3169
| 26> C 	 -46.9454 	 13.6665 	 -23.3773
| 27> C 	 -47.0203 	 12.3739 	 -23.9898
| 28> H 	 -46.2256 	 15.6562 	 -24.1251
| 29> C 	 -47.2309 	 14.0729 	 -21.9188
| 30> H 	 -46.2651 	 14.5681 	 -21.581
| 31> H 	 -47.3483 	 13.1405 	 -21.4002
| 32> C 	 -48.4662 	 15.0101 	 -21.6701
| 33> H 	 -49.4612 	 14.6119 	 -21.933
| 34> H 	 -48.4386 	 15.837 	 -22.4161
| 35> C 	 -48.6454 	 15.6002 	 -20.2664
| 36> H 	 -47.9033 	 16.2674 	 -19.9747
| 37> H 	 -48.6084 	 14.8254 	 -19.4927
| 38> H 	 -49.5937 	 16.1695 	 -20.1317
| 39> H 	 -47.9031 	 8.31519 	 -21.415
| 40> H 	 -46.0876 	 14.5762 	 -26.5191
| 41> *
| 42>
| 43>                          ****END OF INPUT****

CARTESIAN COORDINATES (ANGSTROEM)
---------------------------------
  S    -46.709900   10.271400  -22.150900
  C    -48.000300    9.161200  -22.039700
  C    -49.000000    9.378500  -23.044800
  C    -48.678400   10.478100  -23.914400
  C    -47.532500   11.099800  -23.490100
  H    -49.332600   11.021500  -24.545300
  C    -50.304800    8.605560  -23.118600
  H    -50.241600    8.063380  -22.217300
  H    -50.396000    8.014650  -24.024900
  C    -51.588600    9.451120  -23.039200
  H    -51.697400    9.798090  -22.050900
  H    -51.513900   10.275600  -23.713700
  C    -52.929600    8.800000  -23.427400
  H    -52.934300    8.564040  -24.516900
  H    -53.100100    7.881570  -22.995100
  H    -53.772900    9.482840  -23.037000
  S    -46.698300   12.408800  -25.731300
  C    -46.282800   14.070800  -25.580100
  C    -46.369000   14.605700  -24.316900
  C    -46.945400   13.666500  -23.377300
  C    -47.020300   12.373900  -23.989800
  H    -46.225600   15.656200  -24.125100
  C    -47.230900   14.072900  -21.918800
  H    -46.265100   14.568100  -21.581000
  H    -47.348300   13.140500  -21.400200
  C    -48.466200   15.010100  -21.670100
  H    -49.461200   14.611900  -21.933000
  H    -48.438600   15.837000  -22.416100
  C    -48.645400   15.600200  -20.266400
  H    -47.903300   16.267400  -19.974700
  H    -48.608400   14.825400  -19.492700
  H    -49.593700   16.169500  -20.131700
  H    -47.903100    8.315190  -21.415000
  H    -46.087600   14.576200  -26.519100

 Total Charge           Charge          ....    0
 Multiplicity           Mult            ....    1
 Number of Electrons    NEL             ....  134
 Basis Dimension        Dim             ....  322

ORBITAL ENERGIES
----------------

  NO   OCC          E(Eh)            E(eV)
   0   2.0000     -88.967899     -2420.9396
   1   2.0000     -88.966361     -2420.8978
   2   2.0000     -10.327775      -281.0330
   3   2.0000     -10.327436      -281.0238
   4   2.0000     -10.314139      -280.6620
   5   2.0000     -10.312327      -280.6127
   6   2.0000     -10.312285      -280.6116
   7   2.0000     -10.307018      -280.4682
   8   2.0000     -10.301514      -280.3185
   9   2.0000     -10.293834      -280.1095
  10   2.0000     -10.293448      -280.0990
  11   2.0000     -10.290988      -280.0320
  12   2.0000     -10.285746      -279.8894
  13   2.0000     -10.280259      -279.7401
  14   2.0000     -10.277804      -279.6733
  15   2.0000     -10.275753      -279.6174
  16   2.0000      -8.082689      -219.9412
  17   2.0000      -8.081457      -219.9076
  18   2.0000      -6.040936      -164.3822
  19   2.0000      -6.039751      -164.3500
  20   2.0000      -6.037115      -164.2783
  21   2.0000      -6.036044      -164.2491
  22   2.0000      -6.033808      -164.1883
  23   2.0000      -6.032310      -164.1475
  24   2.0000      -1.002802       -27.2876
  25   2.0000      -0.980737       -26.6872
  26   2.0000      -0.909938       -24.7607
  27   2.0000      -0.900144       -24.4942
  28   2.0000      -0.868584       -23.6354
  29   2.0000      -0.853304       -23.2196
  30   2.0000      -0.849997       -23.1296
  31   2.0000      -0.813162       -22.1273
  32   2.0000      -0.784596       -21.3499
  33   2.0000      -0.764124       -20.7929
  34   2.0000      -0.707069       -19.2403
  35   2.0000      -0.700389       -19.0586
  36   2.0000      -0.685400       -18.6507
  37   2.0000      -0.662353       -18.0235
  38   2.0000      -0.645963       -17.5775
  39   2.0000      -0.615700       -16.7541
  40   2.0000      -0.596035       -16.2189
  41   2.0000      -0.579101       -15.7581
  42   2.0000      -0.558108       -15.1869
  43   2.0000      -0.549345       -14.9484
  44   2.0000      -0.524354       -14.2684
  45   2.0000      -0.520538       -14.1646
  46   2.0000      -0.519058       -14.1243
  47   2.0000      -0.510485       -13.8910
  48   2.0000      -0.507054       -13.7976
  49   2.0000      -0.497903       -13.5486
  50   2.0000      -0.492056       -13.3895
  51   2.0000      -0.473395       -12.8817
  52   2.0000      -0.468402       -12.7459
  53   2.0000      -0.460563       -12.5326
  54   2.0000      -0.456790       -12.4299
  55   2.0000      -0.454075       -12.3560
  56   2.0000      -0.450044       -12.2463
  57   2.0000      -0.437619       -11.9082
  58   2.0000      -0.432743       -11.7755
  59   2.0000      -0.426377       -11.6023
  60   2.0000      -0.424976       -11.5642
  61   2.0000      -0.415705       -11.3119
  62   2.0000      -0.410559       -11.1719
  63   2.0000      -0.345980        -9.4146
  64   2.0000      -0.333957        -9.0874
  65   2.0000      -0.322758        -8.7827
  66   2.0000      -0.290103        -7.8941
  67   0.0000       0.033208         0.9036
  68   0.0000       0.067668         1.8413
  69   0.0000       0.102600         2.7919
  70   0.0000       0.112123         3.0510
  71   0.0000       0.129178         3.5151

MULLIKEN ATOMIC CHARGES
-----------------------
   0 S :    0.122366
   1 C :   -0.113594
   2 C :   -0.124157
   3 C :    0.061908
   4 C :   -0.178535
   5 H :    0.017028
   6 C :    0.129779
   7 H :    0.002740
   8 H :    0.031353
   9 C :   -0.085097
  10 H :    0.018441
  11 H :    0.022355
  12 C :   -0.054907
  13 H :    0.034837
  14 H :    0.008490
  15 H :    0.050788
  16 S :    0.112676
  17 C :   -0.097773
  18 C :   -0.008572
  19 C :   -0.045086
  20 C :   -0.187329
  21 H :    0.021260
  22 C :    0.080751
  23 H :    0.048107
  24 H :    0.018694
  25 C :   -0.080843
  26 H :    0.031118
  27 H :    0.020174
  28 C :   -0.036604
  29 H :    0.013631
  30 H :    0.027343
  31 H :    0.038440
  32 H :    0.041989
  33 H :    0.058232
Sum of atomic charges:   -0.0000000

LOEWDIN ATOMIC CHARGES
----------------------
   0 S :    0.421145
   1 C :   -0.215100
   2 C :   -0.051080
   3 C :   -0.061774
   4 C :   -0.185847
   5 H :    0.029030
   6 C :   -0.028744
   7 H :    0.025352
   8 H :    0.030906
   9 C :   -0.037072
  10 H :    0.018357
  11 H :    0.018030
  12 C :   -0.065236
  13 H :    0.028436
  14 H :    0.008027
  15 H :    0.042026
  16 S :    0.415804
  17 C :   -0.188450
  18 C :   -0.073310
  19 C :   -0.045742
  20 C :   -0.203735
  21 H :    0.031253
  22 C :   -0.030772
  23 H :    0.043608
  24 H :    0.021688
  25 C :   -0.047553
  26 H :    0.029619
  27 H :    0.023574
  28 C :   -0.066660
  29 H :    0.012949
  30 H :    0.026060
  31 H :    0.034330
  32 H :    0.017390
  33 H :    0.023490

  Mayer bond orders larger than 0.100000
B(  0-S ,  1-C ) :   1.1536 B(  0-S ,  4-C ) :   1.1588 B(  1-C ,  2-C ) :   1.5917
B(  1-C , 32-H ) :   0.9701 B(  2-C ,  3-C ) :   1.2410 B(  2-C ,  6-C ) :   1.0327
B(  3-C ,  4-C ) :   1.5944 B(  3-C ,  5-H ) :   0.9826 B(  4-C , 20-C ) :   1.0181
B(  6-C ,  7-H ) :   0.9345 B(  6-C ,  8-H ) :   0.9362 B(  6-C ,  9-C ) :   1.0663
B(  9-C , 10-H ) :   0.9569 B(  9-C , 11-H ) :   0.9599 B(  9-C , 12-C ) :   1.0849
B( 12-C , 13-H ) :   0.9733 B( 12-C , 14-H ) :   0.9754 B( 12-C , 15-H ) :   0.9737
B( 16-S , 17-C ) :   1.1684 B( 16-S , 20-C ) :   1.1505 B( 17-C , 18-C ) :   1.6017
B( 17-C , 33-H ) :   0.9666 B( 18-C , 19-C ) :   1.2357 B( 18-C , 21-H ) :   0.9883
B( 19-C , 20-C ) :   1.5805 B( 19-C , 22-C ) :   1.0371 B( 22-C , 23-H ) :   0.9444
B( 22-C , 24-H ) :   0.9284 B( 22-C , 25-C ) :   1.0453 B( 25-C , 26-H ) :   0.9560
B( 25-C , 27-H ) :   0.9577 B( 25-C , 28-C ) :   1.0833 B( 28-C , 29-H ) :   0.9753
B( 28-C , 30-H ) :   0.9736 B( 28-C , 31-H ) :   0.9743

Dispersion correction           -0.013599165
FINAL SINGLE POINT ENERGY     -1339.864273293888

DIPOLE MOMENT
-------------
                                X             Y             Z
Electronic contribution:     22.89557      -4.88699     -11.77888
Nuclear contribution   :    -23.36185       5.12457      11.95871
                        -----------------------------------------
Total Dipole Moment    :     -0.46629       0.23757       0.17983
                        -----------------------------------------
Magnitude (a.u.)       :      0.55335
Magnitude (Debye)      :      1.40652

Rotational constants in cm-1:     0.015812     0.008132     0.007071
Rotational constants in MHz :   474.033640   243.792716   211.995888

                             ****ORCA TERMINATED NORMALLY****
TOTAL RUN TIME: 0 days 0 hours 0 minutes 19 seconds 808 msec
