                         Program Version 4.2.1 -  RELEASE  -
|  1> ! wB97X-D3 SP def2-SVP
|  2> %pal
|  3> nprocs 24
|  4> end
|  5>
|  6> * xyz 0 1
|  7> S 	 25.5179 	 -9.07301 	 -113.222
|  8> C 	 25.4815 	 -8.64937 	 -111.59
|  9> C 	 24.1994 	 -8.60587 	 -111.121
| 10> C 	 23.2168 	 -8.90254 	 -112.096
| 11> C 	 23.7502 	 -9.2412 	 -113.315
| 12> H 	 22.157 	 -8.85033 	 -111.974
| 13> C 	 23.7885 	 -8.28222 	 -109.71
| 14> H 	 22.8489 	 -8.87435 	 -109.579
| 15> H 	 23.5971 	 -7.20829 	 -109.792
| 16> C 	 24.6787 	 -8.60509 	 -108.542
| 17> H 	 25.5465 	 -8.02293 	 -108.5
| 18> H 	 24.1149 	 -8.5411 	 -107.57
| 19> C 	 25.1573 	 -10.0734 	 -108.652
| 20> H 	 24.2892 	 -10.7435 	 -108.754
| 21> H 	 25.873 	 -10.2742 	 -109.499
| 22> H 	 25.7652 	 -10.3117 	 -107.816
| 23> S 	 23.2526 	 -11.2168 	 -115.181
| 24> C 	 22.3323 	 -10.8871 	 -116.61
| 25> C 	 21.7805 	 -9.62015 	 -116.529
| 26> C 	 22.2705 	 -8.87335 	 -115.395
| 27> C 	 23.0942 	 -9.57421 	 -114.565
| 28> H 	 21.0616 	 -9.36754 	 -117.314
| 29> C 	 22.0176 	 -7.3703 	 -115.073
| 30> H 	 22.7316 	 -6.78069 	 -115.68
| 31> H 	 22.4208 	 -7.182 	 -114.036
| 32> C 	 20.5483 	 -6.87168 	 -115.202
| 33> H 	 19.8098 	 -7.71569 	 -114.925
| 34> H 	 20.298 	 -6.69599 	 -116.215
| 35> C 	 20.2135 	 -5.50751 	 -114.516
| 36> H 	 19.756 	 -4.76189 	 -115.263
| 37> H 	 21.069 	 -5.07193 	 -114.037
| 38> H 	 19.4321 	 -5.84525 	 -113.898
| 39> H 	 26.3983 	 -8.42746 	 -110.987
| 40> H 	 22.1608 	 -11.6604 	 -117.354
| 41> *
| 42>
| 43>                          ****END OF INPUT****

CARTESIAN COORDINATES (ANGSTROEM)
---------------------------------
  S     25.517900   -9.073010  -113.222000
  C     25.481500   -8.649370  -111.590000
  C     24.199400   -8.605870  -111.121000
  C     23.216800   -8.902540  -112.096000
  C     23.750200   -9.241200  -113.315000
  H     22.157000   -8.850330  -111.974000
  C     23.788500   -8.282220  -109.710000
  H     22.848900   -8.874350  -109.579000
  H     23.597100   -7.208290  -109.792000
  C     24.678700   -8.605090  -108.542000
  H     25.546500   -8.022930  -108.500000
  H     24.114900   -8.541100  -107.570000
  C     25.157300  -10.073400  -108.652000
  H     24.289200  -10.743500  -108.754000
  H     25.873000  -10.274200  -109.499000
  H     25.765200  -10.311700  -107.816000
  S     23.252600  -11.216800  -115.181000
  C     22.332300  -10.887100  -116.610000
  C     21.780500   -9.620150  -116.529000
  C     22.270500   -8.873350  -115.395000
  C     23.094200   -9.574210  -114.565000
  H     21.061600   -9.367540  -117.314000
  C     22.017600   -7.370300  -115.073000
  H     22.731600   -6.780690  -115.680000
  H     22.420800   -7.182000  -114.036000
  C     20.548300   -6.871680  -115.202000
  H     19.809800   -7.715690  -114.925000
  H     20.298000   -6.695990  -116.215000
  C     20.213500   -5.507510  -114.516000
  H     19.756000   -4.761890  -115.263000
  H     21.069000   -5.071930  -114.037000
  H     19.432100   -5.845250  -113.898000
  H     26.398300   -8.427460  -110.987000
  H     22.160800  -11.660400  -117.354000

 Total Charge           Charge          ....    0
 Multiplicity           Mult            ....    1
 Number of Electrons    NEL             ....  134
 Basis Dimension        Dim             ....  322

ORBITAL ENERGIES
----------------

  NO   OCC          E(Eh)            E(eV)
   0   2.0000     -88.962171     -2420.7837
   1   2.0000     -88.958227     -2420.6764
   2   2.0000     -10.328242      -281.0458
   3   2.0000     -10.321660      -280.8667
   4   2.0000     -10.318346      -280.7765
   5   2.0000     -10.310486      -280.5626
   6   2.0000     -10.306300      -280.4487
   7   2.0000     -10.298153      -280.2270
   8   2.0000     -10.296844      -280.1914
   9   2.0000     -10.294591      -280.1301
  10   2.0000     -10.292378      -280.0699
  11   2.0000     -10.290681      -280.0237
  12   2.0000     -10.288911      -279.9755
  13   2.0000     -10.286823      -279.9187
  14   2.0000     -10.279578      -279.7215
  15   2.0000     -10.274837      -279.5925
  16   2.0000      -8.077791      -219.8079
  17   2.0000      -8.073650      -219.6952
  18   2.0000      -6.036202      -164.2534
  19   2.0000      -6.032091      -164.1415
  20   2.0000      -6.032084      -164.1413
  21   2.0000      -6.028676      -164.0486
  22   2.0000      -6.027987      -164.0299
  23   2.0000      -6.024509      -163.9352
  24   2.0000      -1.010176       -27.4883
  25   2.0000      -0.988910       -26.9096
  26   2.0000      -0.915837       -24.9212
  27   2.0000      -0.897366       -24.4186
  28   2.0000      -0.871840       -23.7240
  29   2.0000      -0.852595       -23.2003
  30   2.0000      -0.844818       -22.9887
  31   2.0000      -0.813970       -22.1492
  32   2.0000      -0.779248       -21.2044
  33   2.0000      -0.769809       -20.9476
  34   2.0000      -0.703122       -19.1329
  35   2.0000      -0.700962       -19.0742
  36   2.0000      -0.696255       -18.9461
  37   2.0000      -0.654158       -17.8005
  38   2.0000      -0.643732       -17.5168
  39   2.0000      -0.609954       -16.5977
  40   2.0000      -0.590938       -16.0802
  41   2.0000      -0.582378       -15.8473
  42   2.0000      -0.561075       -15.2676
  43   2.0000      -0.554102       -15.0779
  44   2.0000      -0.539044       -14.6681
  45   2.0000      -0.534250       -14.5377
  46   2.0000      -0.520444       -14.1620
  47   2.0000      -0.511594       -13.9212
  48   2.0000      -0.505973       -13.7682
  49   2.0000      -0.490588       -13.3496
  50   2.0000      -0.488064       -13.2809
  51   2.0000      -0.483891       -13.1673
  52   2.0000      -0.470995       -12.8164
  53   2.0000      -0.466897       -12.7049
  54   2.0000      -0.458241       -12.4694
  55   2.0000      -0.442713       -12.0468
  56   2.0000      -0.441495       -12.0137
  57   2.0000      -0.438397       -11.9294
  58   2.0000      -0.432173       -11.7600
  59   2.0000      -0.427276       -11.6268
  60   2.0000      -0.410659       -11.1746
  61   2.0000      -0.408580       -11.1180
  62   2.0000      -0.401679       -10.9303
  63   2.0000      -0.340667        -9.2700
  64   2.0000      -0.328400        -8.9362
  65   2.0000      -0.325742        -8.8639
  66   2.0000      -0.301794        -8.2122
  67   0.0000       0.040248         1.0952
  68   0.0000       0.065335         1.7779
  69   0.0000       0.121988         3.3195
  70   0.0000       0.128067         3.4849
  71   0.0000       0.130508         3.5513

MULLIKEN ATOMIC CHARGES
-----------------------
   0 S :    0.117953
   1 C :   -0.138116
   2 C :   -0.118361
   3 C :    0.055408
   4 C :   -0.180229
   5 H :    0.007157
   6 C :    0.063461
   7 H :    0.032974
   8 H :    0.046873
   9 C :   -0.046899
  10 H :    0.015553
  11 H :    0.045483
  12 C :   -0.078412
  13 H :    0.036668
  14 H :    0.037523
  15 H :    0.022876
  16 S :    0.098648
  17 C :   -0.107359
  18 C :   -0.043920
  19 C :   -0.011317
  20 C :   -0.170417
  21 H :    0.029091
  22 C :    0.056495
  23 H :    0.042665
  24 H :    0.032709
  25 C :   -0.117768
  26 H :    0.042872
  27 H :    0.019598
  28 C :   -0.044600
  29 H :    0.043286
  30 H :    0.041645
  31 H :    0.034269
  32 H :    0.067438
  33 H :    0.066753
Sum of atomic charges:    0.0000000

LOEWDIN ATOMIC CHARGES
----------------------
   0 S :    0.422864
   1 C :   -0.224081
   2 C :   -0.075421
   3 C :   -0.052038
   4 C :   -0.189920
   5 H :    0.031344
   6 C :   -0.038160
   7 H :    0.036435
   8 H :    0.037946
   9 C :   -0.041070
  10 H :    0.013777
  11 H :    0.037685
  12 C :   -0.067725
  13 H :    0.026334
  14 H :    0.029516
  15 H :    0.017554
  16 S :    0.403398
  17 C :   -0.183631
  18 C :   -0.080623
  19 C :   -0.052802
  20 C :   -0.206179
  21 H :    0.036339
  22 C :   -0.035905
  23 H :    0.035239
  24 H :    0.032890
  25 C :   -0.051408
  26 H :    0.030486
  27 H :    0.015952
  28 C :   -0.065015
  29 H :    0.036135
  30 H :    0.023331
  31 H :    0.025455
  32 H :    0.039716
  33 H :    0.031581

  Mayer bond orders larger than 0.100000
B(  0-S ,  1-C ) :   1.1546 B(  0-S ,  4-C ) :   1.1599 B(  1-C ,  2-C ) :   1.5969
B(  1-C , 32-H ) :   0.9588 B(  2-C ,  3-C ) :   1.2633 B(  2-C ,  6-C ) :   0.9936
B(  3-C ,  4-C ) :   1.5691 B(  3-C ,  5-H ) :   1.0046 B(  4-C , 20-C ) :   1.0136
B(  6-C ,  7-H ) :   0.9464 B(  6-C ,  8-H ) :   0.9301 B(  6-C ,  9-C ) :   1.0920
B(  9-C , 10-H ) :   0.9452 B(  9-C , 11-H ) :   0.9548 B(  9-C , 12-C ) :   1.0865
B( 12-C , 13-H ) :   0.9768 B( 12-C , 14-H ) :   0.9696 B( 12-C , 15-H ) :   0.9736
B( 16-S , 17-C ) :   1.1726 B( 16-S , 20-C ) :   1.1383 B( 17-C , 18-C ) :   1.5967
B( 17-C , 33-H ) :   0.9686 B( 18-C , 19-C ) :   1.2109 B( 18-C , 21-H ) :   0.9978
B( 19-C , 20-C ) :   1.6260 B( 19-C , 22-C ) :   1.0297 B( 22-C , 23-H ) :   0.9328
B( 22-C , 24-H ) :   0.9397 B( 22-C , 25-C ) :   1.0439 B( 25-C , 26-H ) :   0.9747
B( 25-C , 27-H ) :   0.9549 B( 25-C , 28-C ) :   1.0489 B( 28-C , 29-H ) :   0.9821
B( 28-C , 30-H ) :   0.9809 B( 28-C , 31-H ) :   0.9801

Dispersion correction           -0.014221651
FINAL SINGLE POINT ENERGY     -1339.870683399261

DIPOLE MOMENT
-------------
                                X             Y             Z
Electronic contribution:     10.17704     -14.25734     -15.14693
Nuclear contribution   :    -10.54183      14.65069      15.39320
                        -----------------------------------------
Total Dipole Moment    :     -0.36479       0.39335       0.24627
                        -----------------------------------------
Magnitude (a.u.)       :      0.59029
Magnitude (Debye)      :      1.50040

Rotational constants in cm-1:     0.019156     0.008286     0.006488
Rotational constants in MHz :   574.270456   248.400556   194.500416

                             ****ORCA TERMINATED NORMALLY****
TOTAL RUN TIME: 0 days 0 hours 0 minutes 21 seconds 318 msec
