                         Program Version 4.2.1 -  RELEASE  -
|  1> ! wB97X-D3 SP def2-SVP
|  2> %pal
|  3> nprocs 24
|  4> end
|  5>
|  6> * xyz 0 1
|  7> S 	 -89.1274 	 -2.88688 	 -113.097
|  8> C 	 -87.8462 	 -3.21099 	 -114.357
|  9> C 	 -88.0051 	 -4.44471 	 -114.959
| 10> C 	 -89.162 	 -5.12106 	 -114.476
| 11> C 	 -89.8345 	 -4.45006 	 -113.499
| 12> H 	 -89.4753 	 -6.13703 	 -114.713
| 13> C 	 -87.0809 	 -4.99919 	 -116.01
| 14> H 	 -86.1213 	 -5.34825 	 -115.601
| 15> H 	 -86.8447 	 -4.10928 	 -116.636
| 16> C 	 -87.6173 	 -6.04171 	 -116.914
| 17> H 	 -87.7334 	 -6.83045 	 -116.129
| 18> H 	 -88.5369 	 -5.66947 	 -117.358
| 19> C 	 -86.6448 	 -6.36805 	 -118.025
| 20> H 	 -86.6167 	 -5.56175 	 -118.784
| 21> H 	 -85.6596 	 -6.53634 	 -117.603
| 22> H 	 -86.8848 	 -7.28024 	 -118.52
| 23> S 	 -90.7852 	 -6.52654 	 -111.96
| 24> C 	 -92.4364 	 -6.60723 	 -111.415
| 25> C 	 -93.1042 	 -5.40798 	 -111.671
| 26> C 	 -92.2671 	 -4.46257 	 -112.431
| 27> C 	 -91.0003 	 -4.97381 	 -112.764
| 28> H 	 -94.1289 	 -5.2962 	 -111.311
| 29> C 	 -92.842 	 -3.15469 	 -112.902
| 30> H 	 -92.0711 	 -2.44234 	 -112.727
| 31> H 	 -93.6191 	 -2.93149 	 -112.141
| 32> C 	 -93.561 	 -3.19611 	 -114.333
| 33> H 	 -92.914 	 -2.66453 	 -115.054
| 34> H 	 -94.4166 	 -2.57298 	 -114.249
| 35> C 	 -93.8824 	 -4.5357 	 -114.996
| 36> H 	 -94.3397 	 -4.25 	 -115.931
| 37> H 	 -94.5404 	 -5.28679 	 -114.566
| 38> H 	 -93.0331 	 -5.03903 	 -115.208
| 39> H 	 -87.0504 	 -2.50447 	 -114.689
| 40> H 	 -92.8543 	 -7.5046 	 -110.884
| 41> *
| 42>
| 43>                          ****END OF INPUT****

CARTESIAN COORDINATES (ANGSTROEM)
---------------------------------
  S    -89.127400   -2.886880  -113.097000
  C    -87.846200   -3.210990  -114.357000
  C    -88.005100   -4.444710  -114.959000
  C    -89.162000   -5.121060  -114.476000
  C    -89.834500   -4.450060  -113.499000
  H    -89.475300   -6.137030  -114.713000
  C    -87.080900   -4.999190  -116.010000
  H    -86.121300   -5.348250  -115.601000
  H    -86.844700   -4.109280  -116.636000
  C    -87.617300   -6.041710  -116.914000
  H    -87.733400   -6.830450  -116.129000
  H    -88.536900   -5.669470  -117.358000
  C    -86.644800   -6.368050  -118.025000
  H    -86.616700   -5.561750  -118.784000
  H    -85.659600   -6.536340  -117.603000
  H    -86.884800   -7.280240  -118.520000
  S    -90.785200   -6.526540  -111.960000
  C    -92.436400   -6.607230  -111.415000
  C    -93.104200   -5.407980  -111.671000
  C    -92.267100   -4.462570  -112.431000
  C    -91.000300   -4.973810  -112.764000
  H    -94.128900   -5.296200  -111.311000
  C    -92.842000   -3.154690  -112.902000
  H    -92.071100   -2.442340  -112.727000
  H    -93.619100   -2.931490  -112.141000
  C    -93.561000   -3.196110  -114.333000
  H    -92.914000   -2.664530  -115.054000
  H    -94.416600   -2.572980  -114.249000
  C    -93.882400   -4.535700  -114.996000
  H    -94.339700   -4.250000  -115.931000
  H    -94.540400   -5.286790  -114.566000
  H    -93.033100   -5.039030  -115.208000
  H    -87.050400   -2.504470  -114.689000
  H    -92.854300   -7.504600  -110.884000

 Total Charge           Charge          ....    0
 Multiplicity           Mult            ....    1
 Number of Electrons    NEL             ....  134
 Basis Dimension        Dim             ....  322

ORBITAL ENERGIES
----------------

  NO   OCC          E(Eh)            E(eV)
   0   2.0000     -88.970663     -2421.0148
   1   2.0000     -88.962210     -2420.7848
   2   2.0000     -10.331560      -281.1360
   3   2.0000     -10.327436      -281.0238
   4   2.0000     -10.321412      -280.8599
   5   2.0000     -10.321074      -280.8507
   6   2.0000     -10.307239      -280.4742
   7   2.0000     -10.302564      -280.3470
   8   2.0000     -10.299205      -280.2556
   9   2.0000     -10.292977      -280.0861
  10   2.0000     -10.290017      -280.0056
  11   2.0000     -10.288450      -279.9630
  12   2.0000     -10.287209      -279.9292
  13   2.0000     -10.285610      -279.8857
  14   2.0000     -10.279043      -279.7070
  15   2.0000     -10.263195      -279.2757
  16   2.0000      -8.083651      -219.9673
  17   2.0000      -8.076863      -219.7826
  18   2.0000      -6.042323      -164.4200
  19   2.0000      -6.038527      -164.3167
  20   2.0000      -6.035364      -164.2306
  21   2.0000      -6.034224      -164.1996
  22   2.0000      -6.031295      -164.1199
  23   2.0000      -6.027731      -164.0229
  24   2.0000      -1.000378       -27.2217
  25   2.0000      -0.977502       -26.5992
  26   2.0000      -0.924036       -25.1443
  27   2.0000      -0.899120       -24.4663
  28   2.0000      -0.868242       -23.6261
  29   2.0000      -0.848742       -23.0954
  30   2.0000      -0.843601       -22.9555
  31   2.0000      -0.812862       -22.1191
  32   2.0000      -0.785329       -21.3699
  33   2.0000      -0.773141       -21.0382
  34   2.0000      -0.712281       -19.3822
  35   2.0000      -0.697071       -18.9683
  36   2.0000      -0.680773       -18.5248
  37   2.0000      -0.660932       -17.9849
  38   2.0000      -0.631478       -17.1834
  39   2.0000      -0.619563       -16.8592
  40   2.0000      -0.590313       -16.0632
  41   2.0000      -0.578317       -15.7368
  42   2.0000      -0.563104       -15.3228
  43   2.0000      -0.552698       -15.0397
  44   2.0000      -0.542115       -14.7517
  45   2.0000      -0.520553       -14.1650
  46   2.0000      -0.514419       -13.9981
  47   2.0000      -0.507722       -13.8158
  48   2.0000      -0.502712       -13.6795
  49   2.0000      -0.493342       -13.4245
  50   2.0000      -0.486565       -13.2401
  51   2.0000      -0.479390       -13.0449
  52   2.0000      -0.471016       -12.8170
  53   2.0000      -0.469591       -12.7782
  54   2.0000      -0.456507       -12.4222
  55   2.0000      -0.454453       -12.3663
  56   2.0000      -0.442325       -12.0363
  57   2.0000      -0.436442       -11.8762
  58   2.0000      -0.435358       -11.8467
  59   2.0000      -0.427679       -11.6377
  60   2.0000      -0.416928       -11.3452
  61   2.0000      -0.409144       -11.1334
  62   2.0000      -0.405842       -11.0435
  63   2.0000      -0.339214        -9.2305
  64   2.0000      -0.335372        -9.1259
  65   2.0000      -0.324831        -8.8391
  66   2.0000      -0.295051        -8.0288
  67   0.0000       0.028902         0.7865
  68   0.0000       0.070486         1.9180
  69   0.0000       0.100563         2.7365
  70   0.0000       0.111239         3.0270
  71   0.0000       0.124618         3.3910

MULLIKEN ATOMIC CHARGES
-----------------------
   0 S :    0.107335
   1 C :   -0.149589
   2 C :   -0.047053
   3 C :   -0.002876
   4 C :   -0.117308
   5 H :    0.017836
   6 C :    0.031308
   7 H :    0.041016
   8 H :    0.017747
   9 C :   -0.106645
  10 H :    0.042036
  11 H :    0.034610
  12 C :    0.001124
  13 H :    0.037562
  14 H :    0.018549
  15 H :    0.026680
  16 S :    0.099633
  17 C :   -0.125218
  18 C :   -0.033629
  19 C :   -0.108610
  20 C :   -0.155836
  21 H :    0.029049
  22 C :    0.109523
  23 H :    0.017865
  24 H :    0.017955
  25 C :   -0.072316
  26 H :    0.034140
  27 H :    0.021404
  28 C :    0.016108
  29 H :    0.023028
  30 H :    0.027474
  31 H :    0.007597
  32 H :    0.058749
  33 H :    0.080750
Sum of atomic charges:   -0.0000000

LOEWDIN ATOMIC CHARGES
----------------------
   0 S :    0.375910
   1 C :   -0.181805
   2 C :   -0.060693
   3 C :   -0.069054
   4 C :   -0.184982
   5 H :    0.032253
   6 C :   -0.039506
   7 H :    0.032941
   8 H :    0.029736
   9 C :   -0.048563
  10 H :    0.031414
  11 H :    0.026824
  12 C :   -0.056851
  13 H :    0.031052
  14 H :    0.024006
  15 H :    0.023662
  16 S :    0.405515
  17 C :   -0.198248
  18 C :   -0.076646
  19 C :   -0.055556
  20 C :   -0.202689
  21 H :    0.034491
  22 C :   -0.036498
  23 H :    0.020661
  24 H :    0.033862
  25 C :   -0.030552
  26 H :    0.032479
  27 H :    0.018560
  28 C :   -0.058174
  29 H :    0.030442
  30 H :    0.025327
  31 H :    0.013041
  32 H :    0.036496
  33 H :    0.041143

  Mayer bond orders larger than 0.100000
B(  0-S ,  1-C ) :   1.1108 B(  0-S ,  4-C ) :   1.1324 B(  1-C ,  2-C ) :   1.6533
B(  1-C , 32-H ) :   0.9628 B(  2-C ,  3-C ) :   1.2115 B(  2-C ,  6-C ) :   1.0044
B(  3-C ,  4-C ) :   1.5965 B(  3-C ,  5-H ) :   0.9906 B(  4-C , 20-C ) :   1.0340
B(  6-C ,  7-H ) :   0.9319 B(  6-C ,  8-H ) :   0.9390 B(  6-C ,  9-C ) :   1.0787
B(  9-C , 10-H ) :   0.9432 B(  9-C , 11-H ) :   0.9559 B(  9-C , 12-C ) :   1.0932
B( 12-C , 13-H ) :   0.9714 B( 12-C , 14-H ) :   0.9692 B( 12-C , 15-H ) :   0.9704
B( 16-S , 17-C ) :   1.1650 B( 16-S , 20-C ) :   1.1352 B( 17-C , 18-C ) :   1.5995
B( 17-C , 33-H ) :   0.9608 B( 18-C , 19-C ) :   1.2272 B( 18-C , 21-H ) :   0.9895
B( 19-C , 20-C ) :   1.5757 B( 19-C , 22-C ) :   1.0608 B( 22-C , 23-H ) :   0.9350
B( 22-C , 24-H ) :   0.9332 B( 22-C , 25-C ) :   1.0272 B( 25-C , 26-H ) :   0.9551
B( 25-C , 27-H ) :   0.9629 B( 25-C , 28-C ) :   1.1006 B( 28-C , 29-H ) :   0.9685
B( 28-C , 30-H ) :   0.9724 B( 28-C , 31-H ) :   0.9636

Dispersion correction           -0.014543889
FINAL SINGLE POINT ENERGY     -1339.868302435593

DIPOLE MOMENT
-------------
                                X             Y             Z
Electronic contribution:      1.80033       1.85253      21.24422
Nuclear contribution   :     -1.87948      -1.95238     -21.70394
                        -----------------------------------------
Total Dipole Moment    :     -0.07915      -0.09985      -0.45972
                        -----------------------------------------
Magnitude (a.u.)       :      0.47705
Magnitude (Debye)      :      1.21256

Rotational constants in cm-1:     0.019761     0.007719     0.007504
Rotational constants in MHz :   592.406604   231.420001   224.959563

                             ****ORCA TERMINATED NORMALLY****
TOTAL RUN TIME: 0 days 0 hours 0 minutes 20 seconds 331 msec
