                         Program Version 4.2.1 -  RELEASE  -
|  1> ! wB97X-D3 SP def2-SVP
|  2> %pal
|  3> nprocs 24
|  4> end
|  5>
|  6> * xyz 0 1
|  7> S 	 -70.2219 	 8.2319 	 -74.8077
|  8> C 	 -70.0133 	 9.88642 	 -75.338
|  9> C 	 -69.9313 	 10.7483 	 -74.2641
| 10> C 	 -70.0645 	 10.0242 	 -73.0273
| 11> C 	 -70.2299 	 8.68222 	 -73.1264
| 12> H 	 -70.2725 	 10.4828 	 -72.0863
| 13> C 	 -69.8263 	 12.2668 	 -74.2907
| 14> H 	 -69.6153 	 12.5578 	 -75.3275
| 15> H 	 -69.0151 	 12.8239 	 -73.711
| 16> C 	 -71.1781 	 12.9776 	 -73.8753
| 17> H 	 -71.4379 	 12.5497 	 -72.903
| 18> H 	 -71.0136 	 14.033 	 -73.8005
| 19> C 	 -72.3665 	 12.7949 	 -74.8307
| 20> H 	 -73.2618 	 13.426 	 -74.505
| 21> H 	 -72.1198 	 13.101 	 -75.8266
| 22> H 	 -72.6581 	 11.7562 	 -74.8863
| 23> S 	 -71.5731 	 6.52875 	 -72.076
| 24> C 	 -71.017 	 5.86685 	 -70.6009
| 25> C 	 -69.9773 	 6.60799 	 -70.0594
| 26> C 	 -69.573 	 7.73236 	 -70.9116
| 27> C 	 -70.3232 	 7.72727 	 -72.052
| 28> H 	 -69.5843 	 6.33576 	 -69.1623
| 29> C 	 -68.4088 	 8.68849 	 -70.6305
| 30> H 	 -67.8806 	 8.50663 	 -69.6236
| 31> H 	 -68.7198 	 9.78317 	 -70.6359
| 32> C 	 -67.2589 	 8.47105 	 -71.6957
| 33> H 	 -66.4608 	 9.02707 	 -71.311
| 34> H 	 -67.5346 	 8.9326 	 -72.6522
| 35> C 	 -66.7611 	 7.02772 	 -71.8464
| 36> H 	 -67.6225 	 6.43849 	 -72.0477
| 37> H 	 -66.1276 	 6.62133 	 -70.9829
| 38> H 	 -66.0683 	 6.84245 	 -72.674
| 39> H 	 -70.3735 	 10.1638 	 -76.3701
| 40> H 	 -71.398 	 4.92194 	 -70.3511
| 41> *
| 42>
| 43>                          ****END OF INPUT****

CARTESIAN COORDINATES (ANGSTROEM)
---------------------------------
  S    -70.221900    8.231900  -74.807700
  C    -70.013300    9.886420  -75.338000
  C    -69.931300   10.748300  -74.264100
  C    -70.064500   10.024200  -73.027300
  C    -70.229900    8.682220  -73.126400
  H    -70.272500   10.482800  -72.086300
  C    -69.826300   12.266800  -74.290700
  H    -69.615300   12.557800  -75.327500
  H    -69.015100   12.823900  -73.711000
  C    -71.178100   12.977600  -73.875300
  H    -71.437900   12.549700  -72.903000
  H    -71.013600   14.033000  -73.800500
  C    -72.366500   12.794900  -74.830700
  H    -73.261800   13.426000  -74.505000
  H    -72.119800   13.101000  -75.826600
  H    -72.658100   11.756200  -74.886300
  S    -71.573100    6.528750  -72.076000
  C    -71.017000    5.866850  -70.600900
  C    -69.977300    6.607990  -70.059400
  C    -69.573000    7.732360  -70.911600
  C    -70.323200    7.727270  -72.052000
  H    -69.584300    6.335760  -69.162300
  C    -68.408800    8.688490  -70.630500
  H    -67.880600    8.506630  -69.623600
  H    -68.719800    9.783170  -70.635900
  C    -67.258900    8.471050  -71.695700
  H    -66.460800    9.027070  -71.311000
  H    -67.534600    8.932600  -72.652200
  C    -66.761100    7.027720  -71.846400
  H    -67.622500    6.438490  -72.047700
  H    -66.127600    6.621330  -70.982900
  H    -66.068300    6.842450  -72.674000
  H    -70.373500   10.163800  -76.370100
  H    -71.398000    4.921940  -70.351100

 Total Charge           Charge          ....    0
 Multiplicity           Mult            ....    1
 Number of Electrons    NEL             ....  134
 Basis Dimension        Dim             ....  322

ORBITAL ENERGIES
----------------

  NO   OCC          E(Eh)            E(eV)
   0   2.0000     -88.964411     -2420.8447
   1   2.0000     -88.962887     -2420.8032
   2   2.0000     -10.323772      -280.9241
   3   2.0000     -10.320800      -280.8432
   4   2.0000     -10.319453      -280.8066
   5   2.0000     -10.314676      -280.6766
   6   2.0000     -10.308190      -280.5001
   7   2.0000     -10.307957      -280.4938
   8   2.0000     -10.307423      -280.4792
   9   2.0000     -10.302751      -280.3521
  10   2.0000     -10.294372      -280.1241
  11   2.0000     -10.288254      -279.9576
  12   2.0000     -10.288061      -279.9524
  13   2.0000     -10.279055      -279.7073
  14   2.0000     -10.277863      -279.6749
  15   2.0000     -10.273029      -279.5433
  16   2.0000      -8.080713      -219.8874
  17   2.0000      -8.078170      -219.8182
  18   2.0000      -6.039036      -164.3305
  19   2.0000      -6.036695      -164.2668
  20   2.0000      -6.034944      -164.2192
  21   2.0000      -6.032538      -164.1537
  22   2.0000      -6.031652      -164.1296
  23   2.0000      -6.028935      -164.0557
  24   2.0000      -1.013994       -27.5922
  25   2.0000      -0.988843       -26.9078
  26   2.0000      -0.907897       -24.7051
  27   2.0000      -0.903059       -24.5735
  28   2.0000      -0.871204       -23.7067
  29   2.0000      -0.848707       -23.0945
  30   2.0000      -0.841987       -22.9116
  31   2.0000      -0.814480       -22.1631
  32   2.0000      -0.782596       -21.2955
  33   2.0000      -0.773678       -21.0528
  34   2.0000      -0.707904       -19.2630
  35   2.0000      -0.693612       -18.8742
  36   2.0000      -0.688302       -18.7296
  37   2.0000      -0.670305       -18.2399
  38   2.0000      -0.642557       -17.4849
  39   2.0000      -0.624214       -16.9857
  40   2.0000      -0.595163       -16.1952
  41   2.0000      -0.571326       -15.5466
  42   2.0000      -0.554623       -15.0921
  43   2.0000      -0.545999       -14.8574
  44   2.0000      -0.542728       -14.7684
  45   2.0000      -0.533213       -14.5095
  46   2.0000      -0.516066       -14.0429
  47   2.0000      -0.505769       -13.7627
  48   2.0000      -0.503741       -13.7075
  49   2.0000      -0.496213       -13.5026
  50   2.0000      -0.488408       -13.2903
  51   2.0000      -0.480712       -13.0809
  52   2.0000      -0.464783       -12.6474
  53   2.0000      -0.464002       -12.6261
  54   2.0000      -0.461393       -12.5551
  55   2.0000      -0.446669       -12.1545
  56   2.0000      -0.443496       -12.0681
  57   2.0000      -0.437097       -11.8940
  58   2.0000      -0.431059       -11.7297
  59   2.0000      -0.421667       -11.4741
  60   2.0000      -0.420298       -11.4369
  61   2.0000      -0.416018       -11.3204
  62   2.0000      -0.408454       -11.1146
  63   2.0000      -0.347124        -9.4457
  64   2.0000      -0.331998        -9.0341
  65   2.0000      -0.329996        -8.9796
  66   2.0000      -0.297742        -8.1020
  67   0.0000       0.025516         0.6943
  68   0.0000       0.076694         2.0869
  69   0.0000       0.110904         3.0179
  70   0.0000       0.114418         3.1135
  71   0.0000       0.130667         3.5556

MULLIKEN ATOMIC CHARGES
-----------------------
   0 S :    0.096547
   1 C :   -0.140683
   2 C :   -0.066546
   3 C :    0.001460
   4 C :   -0.149208
   5 H :    0.013396
   6 C :    0.033002
   7 H :    0.013908
   8 H :    0.053816
   9 C :   -0.077790
  10 H :    0.030126
  11 H :    0.028799
  12 C :   -0.062459
  13 H :    0.046158
  14 H :    0.017871
  15 H :    0.039195
  16 S :    0.114912
  17 C :   -0.078437
  18 C :    0.017623
  19 C :   -0.039674
  20 C :   -0.152512
  21 H :   -0.022677
  22 C :    0.019894
  23 H :    0.035106
  24 H :    0.050218
  25 C :   -0.056237
  26 H :    0.012278
  27 H :    0.052516
  28 C :   -0.064340
  29 H :    0.040505
  30 H :    0.033816
  31 H :    0.031486
  32 H :    0.081013
  33 H :    0.046918
Sum of atomic charges:   -0.0000000

LOEWDIN ATOMIC CHARGES
----------------------
   0 S :    0.401440
   1 C :   -0.208433
   2 C :   -0.061264
   3 C :   -0.067160
   4 C :   -0.192875
   5 H :    0.026358
   6 C :   -0.038051
   7 H :    0.025997
   8 H :    0.043283
   9 C :   -0.037442
  10 H :    0.021744
  11 H :    0.020189
  12 C :   -0.068371
  13 H :    0.036621
  14 H :    0.016673
  15 H :    0.023592
  16 S :    0.426240
  17 C :   -0.181113
  18 C :   -0.051751
  19 C :   -0.049960
  20 C :   -0.211747
  21 H :    0.013042
  22 C :   -0.037031
  23 H :    0.037612
  24 H :    0.038351
  25 C :   -0.036559
  26 H :    0.014637
  27 H :    0.028205
  28 C :   -0.072559
  29 H :    0.020832
  30 H :    0.031214
  31 H :    0.028545
  32 H :    0.041959
  33 H :    0.017783

  Mayer bond orders larger than 0.100000
B(  0-S ,  1-C ) :   1.1397 B(  0-S ,  4-C ) :   1.1491 B(  1-C ,  2-C ) :   1.6192
B(  1-C , 32-H ) :   0.9530 B(  2-C ,  3-C ) :   1.2284 B(  2-C ,  6-C ) :   1.0255
B(  3-C ,  4-C ) :   1.6019 B(  3-C ,  5-H ) :   0.9937 B(  4-C , 20-C ) :   1.0342
B(  6-C ,  7-H ) :   0.9423 B(  6-C ,  8-H ) :   0.9491 B(  6-C ,  9-C ) :   1.0591
B(  9-C , 10-H ) :   0.9599 B(  9-C , 11-H ) :   0.9586 B(  9-C , 12-C ) :   1.0764
B( 12-C , 13-H ) :   0.9738 B( 12-C , 14-H ) :   0.9746 B( 12-C , 15-H ) :   0.9768
B( 16-S , 17-C ) :   1.1658 B( 16-S , 20-C ) :   1.1513 B( 17-C , 18-C ) :   1.5876
B( 17-C , 33-H ) :   0.9777 B( 18-C , 19-C ) :   1.2189 B( 18-C , 21-H ) :   1.0128
B( 19-C , 20-C ) :   1.5968 B( 19-C , 22-C ) :   1.0413 B( 22-C , 23-H ) :   0.9426
B( 22-C , 24-H ) :   0.9358 B( 22-C , 25-C ) :   1.0630 B( 25-C , 26-H ) :   0.9567
B( 25-C , 27-H ) :   0.9536 B( 25-C , 28-C ) :   1.0730 B( 28-C , 29-H ) :   0.9733
B( 28-C , 30-H ) :   0.9746 B( 28-C , 31-H ) :   0.9724

Dispersion correction           -0.016005891
FINAL SINGLE POINT ENERGY     -1339.876325315256

DIPOLE MOMENT
-------------
                                X             Y             Z
Electronic contribution:     -9.01634     -18.01854      -1.72397
Nuclear contribution   :      9.13177      18.43753       2.00620
                        -----------------------------------------
Total Dipole Moment    :      0.11543       0.41900       0.28223
                        -----------------------------------------
Magnitude (a.u.)       :      0.51821
Magnitude (Debye)      :      1.31718

Rotational constants in cm-1:     0.021510     0.008830     0.007944
Rotational constants in MHz :   644.853472   264.715433   238.142066

                             ****ORCA TERMINATED NORMALLY****
TOTAL RUN TIME: 0 days 0 hours 0 minutes 23 seconds 330 msec
