                         Program Version 4.2.1 -  RELEASE  -
|  1> ! wB97X-D3 SP def2-SVP
|  2> %pal
|  3> nprocs 24
|  4> end
|  5>
|  6> * xyz 0 1
|  7> S 	 -106.821 	 34.2027 	 -16.5227
|  8> C 	 -105.371 	 34.2101 	 -15.4582
|  9> C 	 -104.248 	 34.7898 	 -16.1544
| 10> C 	 -104.528 	 35.0223 	 -17.5156
| 11> C 	 -105.845 	 34.7732 	 -17.8878
| 12> H 	 -103.791 	 35.4562 	 -18.2198
| 13> C 	 -102.922 	 35.094 	 -15.6169
| 14> H 	 -102.986 	 35.4865 	 -14.6121
| 15> H 	 -102.428 	 35.9676 	 -16.0505
| 16> C 	 -101.878 	 33.9058 	 -15.5519
| 17> H 	 -102.122 	 33.0034 	 -14.8399
| 18> H 	 -101.962 	 33.4127 	 -16.5031
| 19> C 	 -100.502 	 34.4144 	 -15.2786
| 20> H 	 -100.187 	 35.2924 	 -15.9254
| 21> H 	 -100.353 	 34.7371 	 -14.2664
| 22> H 	 -99.8057 	 33.5982 	 -15.3966
| 23> S 	 -107.897 	 35.8932 	 -19.3337
| 24> C 	 -107.956 	 35.7937 	 -21.0784
| 25> C 	 -106.705 	 35.4774 	 -21.5612
| 26> C 	 -105.861 	 34.8847 	 -20.5553
| 27> C 	 -106.343 	 35.0212 	 -19.2181
| 28> H 	 -106.48 	 35.4802 	 -22.653
| 29> C 	 -104.506 	 34.2996 	 -21.042
| 30> H 	 -103.662 	 34.8956 	 -20.5851
| 31> H 	 -104.539 	 34.421 	 -22.1577
| 32> C 	 -104.056 	 32.9098 	 -20.6404
| 33> H 	 -104.518 	 32.7703 	 -19.6701
| 34> H 	 -102.976 	 32.9347 	 -20.5049
| 35> C 	 -104.461 	 31.8428 	 -21.6717
| 36> H 	 -104.216 	 30.8133 	 -21.2709
| 37> H 	 -104.008 	 32.0771 	 -22.662
| 38> H 	 -105.534 	 31.8672 	 -21.6544
| 39> H 	 -105.506 	 33.9883 	 -14.4501
| 40> H 	 -108.743 	 36.2516 	 -21.6467
| 41> *
| 42>
| 43>                          ****END OF INPUT****

CARTESIAN COORDINATES (ANGSTROEM)
---------------------------------
  S    -106.821000   34.202700  -16.522700
  C    -105.371000   34.210100  -15.458200
  C    -104.248000   34.789800  -16.154400
  C    -104.528000   35.022300  -17.515600
  C    -105.845000   34.773200  -17.887800
  H    -103.791000   35.456200  -18.219800
  C    -102.922000   35.094000  -15.616900
  H    -102.986000   35.486500  -14.612100
  H    -102.428000   35.967600  -16.050500
  C    -101.878000   33.905800  -15.551900
  H    -102.122000   33.003400  -14.839900
  H    -101.962000   33.412700  -16.503100
  C    -100.502000   34.414400  -15.278600
  H    -100.187000   35.292400  -15.925400
  H    -100.353000   34.737100  -14.266400
  H    -99.805700   33.598200  -15.396600
  S    -107.897000   35.893200  -19.333700
  C    -107.956000   35.793700  -21.078400
  C    -106.705000   35.477400  -21.561200
  C    -105.861000   34.884700  -20.555300
  C    -106.343000   35.021200  -19.218100
  H    -106.480000   35.480200  -22.653000
  C    -104.506000   34.299600  -21.042000
  H    -103.662000   34.895600  -20.585100
  H    -104.539000   34.421000  -22.157700
  C    -104.056000   32.909800  -20.640400
  H    -104.518000   32.770300  -19.670100
  H    -102.976000   32.934700  -20.504900
  C    -104.461000   31.842800  -21.671700
  H    -104.216000   30.813300  -21.270900
  H    -104.008000   32.077100  -22.662000
  H    -105.534000   31.867200  -21.654400
  H    -105.506000   33.988300  -14.450100
  H    -108.743000   36.251600  -21.646700

 Total Charge           Charge          ....    0
 Multiplicity           Mult            ....    1
 Number of Electrons    NEL             ....  134
 Basis Dimension        Dim             ....  322

ORBITAL ENERGIES
----------------

  NO   OCC          E(Eh)            E(eV)
   0   2.0000     -88.973604     -2421.0948
   1   2.0000     -88.961954     -2420.7778
   2   2.0000     -10.335147      -281.2337
   3   2.0000     -10.334126      -281.2059
   4   2.0000     -10.324092      -280.9328
   5   2.0000     -10.317475      -280.7528
   6   2.0000     -10.312212      -280.6096
   7   2.0000     -10.309307      -280.5305
   8   2.0000     -10.299455      -280.2624
   9   2.0000     -10.297925      -280.2208
  10   2.0000     -10.296408      -280.1795
  11   2.0000     -10.295361      -280.1510
  12   2.0000     -10.291524      -280.0466
  13   2.0000     -10.280250      -279.7398
  14   2.0000     -10.279669      -279.7240
  15   2.0000     -10.279584      -279.7217
  16   2.0000      -8.086860      -220.0546
  17   2.0000      -8.076507      -219.7729
  18   2.0000      -6.045410      -164.5040
  19   2.0000      -6.041538      -164.3986
  20   2.0000      -6.037694      -164.2940
  21   2.0000      -6.035062      -164.2224
  22   2.0000      -6.031019      -164.1124
  23   2.0000      -6.027236      -164.0094
  24   2.0000      -1.000532       -27.2259
  25   2.0000      -0.978010       -26.6130
  26   2.0000      -0.913660       -24.8620
  27   2.0000      -0.906924       -24.6786
  28   2.0000      -0.870358       -23.6836
  29   2.0000      -0.855527       -23.2801
  30   2.0000      -0.842474       -22.9249
  31   2.0000      -0.811926       -22.0936
  32   2.0000      -0.779247       -21.2044
  33   2.0000      -0.768658       -20.9163
  34   2.0000      -0.710346       -19.3295
  35   2.0000      -0.703400       -19.1405
  36   2.0000      -0.683878       -18.6093
  37   2.0000      -0.661407       -17.9978
  38   2.0000      -0.646014       -17.5789
  39   2.0000      -0.623413       -16.9639
  40   2.0000      -0.589821       -16.0498
  41   2.0000      -0.568841       -15.4789
  42   2.0000      -0.554955       -15.1011
  43   2.0000      -0.551543       -15.0083
  44   2.0000      -0.542768       -14.7695
  45   2.0000      -0.526384       -14.3236
  46   2.0000      -0.522059       -14.2060
  47   2.0000      -0.509513       -13.8646
  48   2.0000      -0.503232       -13.6936
  49   2.0000      -0.498770       -13.5722
  50   2.0000      -0.488494       -13.2926
  51   2.0000      -0.476283       -12.9603
  52   2.0000      -0.474481       -12.9113
  53   2.0000      -0.464257       -12.6331
  54   2.0000      -0.460319       -12.5259
  55   2.0000      -0.452614       -12.3162
  56   2.0000      -0.441947       -12.0260
  57   2.0000      -0.436998       -11.8913
  58   2.0000      -0.431980       -11.7548
  59   2.0000      -0.424216       -11.5435
  60   2.0000      -0.418890       -11.3986
  61   2.0000      -0.408150       -11.1063
  62   2.0000      -0.405270       -11.0279
  63   2.0000      -0.349408        -9.5079
  64   2.0000      -0.334056        -9.0901
  65   2.0000      -0.325627        -8.8608
  66   2.0000      -0.284261        -7.7351
  67   0.0000       0.013579         0.3695
  68   0.0000       0.065220         1.7747
  69   0.0000       0.098310         2.6752
  70   0.0000       0.115271         3.1367
  71   0.0000       0.125528         3.4158

MULLIKEN ATOMIC CHARGES
-----------------------
   0 S :    0.113855
   1 C :   -0.105609
   2 C :   -0.045310
   3 C :   -0.000982
   4 C :   -0.126606
   5 H :    0.025836
   6 C :    0.047255
   7 H :    0.014005
   8 H :    0.018870
   9 C :   -0.084995
  10 H :    0.043713
  11 H :    0.020839
  12 C :   -0.040659
  13 H :    0.037651
  14 H :    0.025906
  15 H :    0.031091
  16 S :    0.078971
  17 C :   -0.083730
  18 C :   -0.049561
  19 C :   -0.056335
  20 C :   -0.136362
  21 H :    0.042726
  22 C :    0.010689
  23 H :    0.041818
  24 H :    0.017668
  25 C :   -0.057066
  26 H :    0.036518
  27 H :    0.022093
  28 C :   -0.055995
  29 H :    0.040193
  30 H :    0.044470
  31 H :    0.032071
  32 H :    0.035945
  33 H :    0.061028
Sum of atomic charges:    0.0000000

LOEWDIN ATOMIC CHARGES
----------------------
   0 S :    0.392982
   1 C :   -0.170585
   2 C :   -0.055485
   3 C :   -0.060113
   4 C :   -0.196510
   5 H :    0.039131
   6 C :   -0.043281
   7 H :    0.030433
   8 H :    0.033686
   9 C :   -0.043299
  10 H :    0.037148
  11 H :    0.017776
  12 C :   -0.070417
  13 H :    0.031326
  14 H :    0.022390
  15 H :    0.027479
  16 S :    0.389217
  17 C :   -0.181340
  18 C :   -0.077241
  19 C :   -0.060181
  20 C :   -0.188960
  21 H :    0.039378
  22 C :   -0.039765
  23 H :    0.037906
  24 H :    0.028234
  25 C :   -0.045374
  26 H :    0.027945
  27 H :    0.020134
  28 C :   -0.067622
  29 H :    0.031630
  30 H :    0.028433
  31 H :    0.024624
  32 H :    0.012958
  33 H :    0.027362

  Mayer bond orders larger than 0.100000
B(  0-S ,  1-C ) :   1.1414 B(  0-S ,  4-C ) :   1.1499 B(  1-C ,  2-C ) :   1.5387
B(  1-C ,  4-C ) :   0.1132 B(  1-C , 32-H ) :   0.9833 B(  2-C ,  3-C ) :   1.2790
B(  2-C ,  6-C ) :   1.0495 B(  3-C ,  4-C ) :   1.5225 B(  3-C ,  5-H ) :   0.9894
B(  4-C , 20-C ) :   1.0858 B(  6-C ,  7-H ) :   0.9273 B(  6-C ,  8-H ) :   0.9444
B(  6-C ,  9-C ) :   1.0402 B(  9-C , 10-H ) :   0.9516 B(  9-C , 11-H ) :   0.9582
B(  9-C , 12-C ) :   1.0862 B( 12-C , 13-H ) :   0.9718 B( 12-C , 14-H ) :   0.9730
B( 12-C , 15-H ) :   0.9694 B( 16-S , 17-C ) :   1.1601 B( 16-S , 20-C ) :   1.1322
B( 17-C , 18-C ) :   1.5957 B( 17-C , 20-C ) :   0.1040 B( 17-C , 33-H ) :   0.9674
B( 18-C , 19-C ) :   1.2646 B( 18-C , 21-H ) :   0.9753 B( 19-C , 20-C ) :   1.5553
B( 19-C , 22-C ) :   1.0412 B( 22-C , 23-H ) :   0.9364 B( 22-C , 24-H ) :   0.9393
B( 22-C , 25-C ) :   1.0529 B( 25-C , 26-H ) :   0.9540 B( 25-C , 27-H ) :   0.9580
B( 25-C , 28-C ) :   1.0797 B( 28-C , 29-H ) :   0.9733 B( 28-C , 30-H ) :   0.9743
B( 28-C , 31-H ) :   0.9778

Dispersion correction           -0.013998481
FINAL SINGLE POINT ENERGY     -1339.857991236900

DIPOLE MOMENT
-------------
                                X             Y             Z
Electronic contribution:    -28.50668       9.44532       2.33080
Nuclear contribution   :     29.20367      -9.37919      -2.37083
                        -----------------------------------------
Total Dipole Moment    :      0.69699       0.06613      -0.04003
                        -----------------------------------------
Magnitude (a.u.)       :      0.70127
Magnitude (Debye)      :      1.78248

Rotational constants in cm-1:     0.018114     0.008552     0.006622
Rotational constants in MHz :   543.049865   256.392874   198.521701

                             ****ORCA TERMINATED NORMALLY****
TOTAL RUN TIME: 0 days 0 hours 0 minutes 22 seconds 446 msec
