                         Program Version 4.2.1 -  RELEASE  -
|  1> ! wB97X-D3 SP def2-SVP
|  2> %pal
|  3> nprocs 24
|  4> end
|  5>
|  6> * xyz 0 1
|  7> S 	 -38.5163 	 8.325 	 -7.29436
|  8> C 	 -38.9002 	 7.31264 	 -8.66215
|  9> C 	 -39.9567 	 6.54401 	 -8.36695
| 10> C 	 -40.5252 	 6.71353 	 -7.07118
| 11> C 	 -39.8796 	 7.72096 	 -6.4039
| 12> H 	 -41.4197 	 6.25115 	 -6.58795
| 13> C 	 -40.4915 	 5.45243 	 -9.27923
| 14> H 	 -39.6959 	 5.10013 	 -9.95749
| 15> H 	 -41.2742 	 5.95533 	 -9.81697
| 16> C 	 -41.0248 	 4.19881 	 -8.64431
| 17> H 	 -40.3701 	 3.94296 	 -7.87268
| 18> H 	 -41.9889 	 4.37751 	 -8.19412
| 19> C 	 -41.2903 	 3.03931 	 -9.58846
| 20> H 	 -40.3332 	 2.75368 	 -10.1296
| 21> H 	 -41.5543 	 2.2258 	 -8.98019
| 22> H 	 -42.0844 	 3.09671 	 -10.254
| 23> S 	 -40.7358 	 10.0637 	 -5.42263
| 24> C 	 -41.2972 	 10.1806 	 -3.7414
| 25> C 	 -41.0895 	 8.9779 	 -3.11086
| 26> C 	 -40.4857 	 7.95671 	 -3.92386
| 27> C 	 -40.2627 	 8.38848 	 -5.19778
| 28> H 	 -41.3552 	 8.89736 	 -2.11682
| 29> C 	 -40.5548 	 6.4989 	 -3.45787
| 30> H 	 -40.5682 	 5.815 	 -4.32793
| 31> H 	 -41.5716 	 6.35008 	 -3.12296
| 32> C 	 -39.6375 	 5.92525 	 -2.36739
| 33> H 	 -40.0142 	 4.98153 	 -1.98755
| 34> H 	 -39.7134 	 6.57981 	 -1.52945
| 35> C 	 -38.1058 	 5.84849 	 -2.7707
| 36> H 	 -38.0258 	 4.91218 	 -3.26299
| 37> H 	 -37.4212 	 5.75745 	 -1.89221
| 38> H 	 -37.744 	 6.6533 	 -3.4379
| 39> H 	 -38.3846 	 7.30198 	 -9.61194
| 40> H 	 -41.7408 	 11.0049 	 -3.24758
| 41> *
| 42>
| 43>                          ****END OF INPUT****

CARTESIAN COORDINATES (ANGSTROEM)
---------------------------------
  S    -38.516300    8.325000   -7.294360
  C    -38.900200    7.312640   -8.662150
  C    -39.956700    6.544010   -8.366950
  C    -40.525200    6.713530   -7.071180
  C    -39.879600    7.720960   -6.403900
  H    -41.419700    6.251150   -6.587950
  C    -40.491500    5.452430   -9.279230
  H    -39.695900    5.100130   -9.957490
  H    -41.274200    5.955330   -9.816970
  C    -41.024800    4.198810   -8.644310
  H    -40.370100    3.942960   -7.872680
  H    -41.988900    4.377510   -8.194120
  C    -41.290300    3.039310   -9.588460
  H    -40.333200    2.753680  -10.129600
  H    -41.554300    2.225800   -8.980190
  H    -42.084400    3.096710  -10.254000
  S    -40.735800   10.063700   -5.422630
  C    -41.297200   10.180600   -3.741400
  C    -41.089500    8.977900   -3.110860
  C    -40.485700    7.956710   -3.923860
  C    -40.262700    8.388480   -5.197780
  H    -41.355200    8.897360   -2.116820
  C    -40.554800    6.498900   -3.457870
  H    -40.568200    5.815000   -4.327930
  H    -41.571600    6.350080   -3.122960
  C    -39.637500    5.925250   -2.367390
  H    -40.014200    4.981530   -1.987550
  H    -39.713400    6.579810   -1.529450
  C    -38.105800    5.848490   -2.770700
  H    -38.025800    4.912180   -3.262990
  H    -37.421200    5.757450   -1.892210
  H    -37.744000    6.653300   -3.437900
  H    -38.384600    7.301980   -9.611940
  H    -41.740800   11.004900   -3.247580

 Total Charge           Charge          ....    0
 Multiplicity           Mult            ....    1
 Number of Electrons    NEL             ....  134
 Basis Dimension        Dim             ....  322

ORBITAL ENERGIES
----------------

  NO   OCC          E(Eh)            E(eV)
   0   2.0000     -88.963502     -2420.8200
   1   2.0000     -88.962804     -2420.8010
   2   2.0000     -10.324086      -280.9327
   3   2.0000     -10.323351      -280.9127
   4   2.0000     -10.315495      -280.6989
   5   2.0000     -10.306689      -280.4593
   6   2.0000     -10.303678      -280.3773
   7   2.0000     -10.295235      -280.1476
   8   2.0000     -10.294907      -280.1387
   9   2.0000     -10.293063      -280.0885
  10   2.0000     -10.287731      -279.9434
  11   2.0000     -10.286327      -279.9052
  12   2.0000     -10.284125      -279.8453
  13   2.0000     -10.277363      -279.6613
  14   2.0000     -10.275962      -279.6231
  15   2.0000     -10.273184      -279.5476
  16   2.0000      -8.078116      -219.8167
  17   2.0000      -8.077891      -219.8106
  18   2.0000      -6.036656      -164.2658
  19   2.0000      -6.036573      -164.2635
  20   2.0000      -6.032496      -164.1526
  21   2.0000      -6.032411      -164.1503
  22   2.0000      -6.028841      -164.0531
  23   2.0000      -6.028490      -164.0435
  24   2.0000      -1.013105       -27.5680
  25   2.0000      -0.986276       -26.8379
  26   2.0000      -0.917826       -24.9753
  27   2.0000      -0.901028       -24.5182
  28   2.0000      -0.877949       -23.8902
  29   2.0000      -0.850260       -23.1367
  30   2.0000      -0.842728       -22.9318
  31   2.0000      -0.819521       -22.3003
  32   2.0000      -0.784436       -21.3456
  33   2.0000      -0.776084       -21.1183
  34   2.0000      -0.716622       -19.5003
  35   2.0000      -0.698398       -19.0044
  36   2.0000      -0.693837       -18.8803
  37   2.0000      -0.664560       -18.0836
  38   2.0000      -0.643798       -17.5186
  39   2.0000      -0.619239       -16.8504
  40   2.0000      -0.595865       -16.2143
  41   2.0000      -0.579620       -15.7722
  42   2.0000      -0.568109       -15.4590
  43   2.0000      -0.546507       -14.8712
  44   2.0000      -0.540353       -14.7038
  45   2.0000      -0.524253       -14.2657
  46   2.0000      -0.520135       -14.1536
  47   2.0000      -0.512864       -13.9557
  48   2.0000      -0.507155       -13.8004
  49   2.0000      -0.502837       -13.6829
  50   2.0000      -0.491580       -13.3766
  51   2.0000      -0.478731       -13.0269
  52   2.0000      -0.475446       -12.9375
  53   2.0000      -0.463074       -12.6009
  54   2.0000      -0.459804       -12.5119
  55   2.0000      -0.452262       -12.3067
  56   2.0000      -0.446709       -12.1556
  57   2.0000      -0.433170       -11.7872
  58   2.0000      -0.428735       -11.6665
  59   2.0000      -0.423118       -11.5136
  60   2.0000      -0.419020       -11.4021
  61   2.0000      -0.416199       -11.3254
  62   2.0000      -0.408413       -11.1135
  63   2.0000      -0.345741        -9.4081
  64   2.0000      -0.330756        -9.0003
  65   2.0000      -0.326282        -8.8786
  66   2.0000      -0.301754        -8.2111
  67   0.0000       0.038023         1.0347
  68   0.0000       0.067944         1.8489
  69   0.0000       0.115300         3.1375
  70   0.0000       0.122227         3.3260
  71   0.0000       0.130712         3.5568

MULLIKEN ATOMIC CHARGES
-----------------------
   0 S :    0.110421
   1 C :   -0.129390
   2 C :   -0.079658
   3 C :    0.026853
   4 C :   -0.164142
   5 H :    0.036572
   6 C :    0.081246
   7 H :    0.018397
   8 H :    0.033099
   9 C :   -0.080295
  10 H :    0.019258
  11 H :    0.018424
  12 C :   -0.006028
  13 H :    0.031854
  14 H :    0.014678
  15 H :    0.020599
  16 S :    0.107085
  17 C :   -0.076244
  18 C :   -0.018288
  19 C :    0.027269
  20 C :   -0.177548
  21 H :   -0.007116
  22 C :    0.022250
  23 H :    0.012625
  24 H :    0.024440
  25 C :   -0.034244
  26 H :    0.024728
  27 H :    0.010781
  28 C :   -0.067867
  29 H :    0.022789
  30 H :    0.036954
  31 H :    0.052834
  32 H :    0.043776
  33 H :    0.043889
Sum of atomic charges:   -0.0000000

LOEWDIN ATOMIC CHARGES
----------------------
   0 S :    0.410188
   1 C :   -0.200332
   2 C :   -0.065996
   3 C :   -0.068433
   4 C :   -0.194312
   5 H :    0.042705
   6 C :   -0.031261
   7 H :    0.028984
   8 H :    0.031930
   9 C :   -0.040111
  10 H :    0.018396
  11 H :    0.021568
  12 C :   -0.054396
  13 H :    0.030280
  14 H :    0.023751
  15 H :    0.016467
  16 S :    0.394643
  17 C :   -0.170700
  18 C :   -0.057734
  19 C :   -0.057672
  20 C :   -0.195437
  21 H :    0.017860
  22 C :   -0.034425
  23 H :    0.027515
  24 H :    0.033059
  25 C :   -0.035477
  26 H :    0.025305
  27 H :    0.014722
  28 C :   -0.069474
  29 H :    0.019380
  30 H :    0.029436
  31 H :    0.032218
  32 H :    0.031891
  33 H :    0.025462

  Mayer bond orders larger than 0.100000
B(  0-S ,  1-C ) :   1.1110 B(  0-S ,  4-C ) :   1.1639 B(  1-C ,  2-C ) :   1.6547
B(  1-C , 32-H ) :   0.9733 B(  2-C ,  3-C ) :   1.2096 B(  2-C ,  6-C ) :   1.0048
B(  3-C ,  4-C ) :   1.5887 B(  3-C ,  5-H ) :   0.9861 B(  4-C , 20-C ) :   1.0139
B(  6-C ,  7-H ) :   0.9509 B(  6-C ,  8-H ) :   0.9241 B(  6-C ,  9-C ) :   1.0910
B(  9-C , 10-H ) :   0.9580 B(  9-C , 11-H ) :   0.9352 B(  9-C , 12-C ) :   1.0987
B( 12-C , 13-H ) :   0.9710 B( 12-C , 14-H ) :   0.9677 B( 12-C , 15-H ) :   0.9748
B( 16-S , 17-C ) :   1.1273 B( 16-S , 20-C ) :   1.1384 B( 17-C , 18-C ) :   1.6470
B( 17-C , 33-H ) :   0.9732 B( 18-C , 19-C ) :   1.2018 B( 18-C , 21-H ) :   0.9969
B( 19-C , 20-C ) :   1.6224 B( 19-C , 22-C ) :   1.0330 B( 22-C , 23-H ) :   0.9389
B( 22-C , 24-H ) :   0.9379 B( 22-C , 25-C ) :   1.0753 B( 25-C , 26-H ) :   0.9551
B( 25-C , 27-H ) :   0.9592 B( 25-C , 28-C ) :   1.0577 B( 28-C , 29-H ) :   0.9791
B( 28-C , 30-H ) :   0.9778 B( 28-C , 31-H ) :   0.9794

Dispersion correction           -0.013978091
FINAL SINGLE POINT ENERGY     -1339.870305103170

DIPOLE MOMENT
-------------
                                X             Y             Z
Electronic contribution:      2.92688      27.28358      -1.73091
Nuclear contribution   :     -3.38489     -27.89393       1.87757
                        -----------------------------------------
Total Dipole Moment    :     -0.45801      -0.61035       0.14666
                        -----------------------------------------
Magnitude (a.u.)       :      0.77705
Magnitude (Debye)      :      1.97511

Rotational constants in cm-1:     0.017837     0.008555     0.007076
Rotational constants in MHz :   534.726739   256.460917   212.132483

                             ****ORCA TERMINATED NORMALLY****
TOTAL RUN TIME: 0 days 0 hours 0 minutes 20 seconds 313 msec
