                         Program Version 4.2.1 -  RELEASE  -
|  1> ! wB97X-D3 SP def2-SVP
|  2> %pal
|  3> nprocs 24
|  4> end
|  5>
|  6> * xyz 0 1
|  7> S 	 -64.536 	 15.2498 	 -123.664
|  8> C 	 -62.8747 	 14.7848 	 -124.113
|  9> C 	 -62.7651 	 13.4568 	 -124.332
| 10> C 	 -63.9422 	 12.7778 	 -123.93
| 11> C 	 -64.9204 	 13.6157 	 -123.477
| 12> H 	 -64.1684 	 11.7248 	 -123.887
| 13> C 	 -61.5962 	 12.7309 	 -124.967
| 14> H 	 -60.8214 	 13.474 	 -124.939
| 15> H 	 -61.7884 	 12.6814 	 -126.08
| 16> C 	 -61.1109 	 11.3374 	 -124.386
| 17> H 	 -60.749 	 11.4371 	 -123.385
| 18> H 	 -61.9878 	 10.603 	 -124.364
| 19> C 	 -60.1479 	 10.6339 	 -125.348
| 20> H 	 -59.2877 	 11.2808 	 -125.46
| 21> H 	 -59.8353 	 9.6108 	 -124.994
| 22> H 	 -60.6022 	 10.4209 	 -126.314
| 23> S 	 -67.6106 	 14.0126 	 -123.809
| 24> C 	 -68.806 	 13.2096 	 -122.797
| 25> C 	 -68.1471 	 12.3948 	 -121.887
| 26> C 	 -66.7349 	 12.4237 	 -121.974
| 27> C 	 -66.2359 	 13.2792 	 -122.958
| 28> H 	 -68.7993 	 11.9024 	 -121.208
| 29> C 	 -65.8549 	 11.5774 	 -121.076
| 30> H 	 -65.1292 	 10.9533 	 -121.699
| 31> H 	 -66.5514 	 10.9193 	 -120.545
| 32> C 	 -65.1298 	 12.3962 	 -120.053
| 33> H 	 -65.8732 	 12.9176 	 -119.426
| 34> H 	 -64.5726 	 13.2137 	 -120.524
| 35> C 	 -64.2415 	 11.5838 	 -119.133
| 36> H 	 -63.2687 	 11.5022 	 -119.549
| 37> H 	 -64.5944 	 10.5804 	 -119.022
| 38> H 	 -64.1498 	 12.0085 	 -118.163
| 39> H 	 -62.1985 	 15.5218 	 -124.553
| 40> H 	 -69.8986 	 13.2068 	 -122.804
| 41> *
| 42>
| 43>                          ****END OF INPUT****

CARTESIAN COORDINATES (ANGSTROEM)
---------------------------------
  S    -64.536000   15.249800  -123.664000
  C    -62.874700   14.784800  -124.113000
  C    -62.765100   13.456800  -124.332000
  C    -63.942200   12.777800  -123.930000
  C    -64.920400   13.615700  -123.477000
  H    -64.168400   11.724800  -123.887000
  C    -61.596200   12.730900  -124.967000
  H    -60.821400   13.474000  -124.939000
  H    -61.788400   12.681400  -126.080000
  C    -61.110900   11.337400  -124.386000
  H    -60.749000   11.437100  -123.385000
  H    -61.987800   10.603000  -124.364000
  C    -60.147900   10.633900  -125.348000
  H    -59.287700   11.280800  -125.460000
  H    -59.835300    9.610800  -124.994000
  H    -60.602200   10.420900  -126.314000
  S    -67.610600   14.012600  -123.809000
  C    -68.806000   13.209600  -122.797000
  C    -68.147100   12.394800  -121.887000
  C    -66.734900   12.423700  -121.974000
  C    -66.235900   13.279200  -122.958000
  H    -68.799300   11.902400  -121.208000
  C    -65.854900   11.577400  -121.076000
  H    -65.129200   10.953300  -121.699000
  H    -66.551400   10.919300  -120.545000
  C    -65.129800   12.396200  -120.053000
  H    -65.873200   12.917600  -119.426000
  H    -64.572600   13.213700  -120.524000
  C    -64.241500   11.583800  -119.133000
  H    -63.268700   11.502200  -119.549000
  H    -64.594400   10.580400  -119.022000
  H    -64.149800   12.008500  -118.163000
  H    -62.198500   15.521800  -124.553000
  H    -69.898600   13.206800  -122.804000

 Total Charge           Charge          ....    0
 Multiplicity           Mult            ....    1
 Number of Electrons    NEL             ....  134
 Basis Dimension        Dim             ....  322

ORBITAL ENERGIES
----------------

  NO   OCC          E(Eh)            E(eV)
   0   2.0000     -88.964673     -2420.8518
   1   2.0000     -88.964545     -2420.8483
   2   2.0000     -10.327202      -281.0175
   3   2.0000     -10.324087      -280.9327
   4   2.0000     -10.318652      -280.7848
   5   2.0000     -10.311571      -280.5921
   6   2.0000     -10.303123      -280.3622
   7   2.0000     -10.301485      -280.3176
   8   2.0000     -10.300833      -280.2999
   9   2.0000     -10.299290      -280.2579
  10   2.0000     -10.292517      -280.0736
  11   2.0000     -10.290293      -280.0131
  12   2.0000     -10.288518      -279.9648
  13   2.0000     -10.284691      -279.8607
  14   2.0000     -10.277222      -279.6574
  15   2.0000     -10.263725      -279.2901
  16   2.0000      -8.080301      -219.8762
  17   2.0000      -8.078694      -219.8324
  18   2.0000      -6.038696      -164.3213
  19   2.0000      -6.037338      -164.2843
  20   2.0000      -6.034830      -164.2161
  21   2.0000      -6.033105      -164.1691
  22   2.0000      -6.030928      -164.1099
  23   2.0000      -6.029541      -164.0721
  24   2.0000      -1.013742       -27.5853
  25   2.0000      -0.985228       -26.8094
  26   2.0000      -0.912163       -24.8212
  27   2.0000      -0.910014       -24.7627
  28   2.0000      -0.874152       -23.7869
  29   2.0000      -0.851044       -23.1581
  30   2.0000      -0.846272       -23.0282
  31   2.0000      -0.818660       -22.2769
  32   2.0000      -0.783462       -21.3191
  33   2.0000      -0.771507       -20.9938
  34   2.0000      -0.713191       -19.4069
  35   2.0000      -0.698381       -19.0039
  36   2.0000      -0.687645       -18.7118
  37   2.0000      -0.661175       -17.9915
  38   2.0000      -0.645176       -17.5561
  39   2.0000      -0.621825       -16.9207
  40   2.0000      -0.589886       -16.0516
  41   2.0000      -0.570737       -15.5305
  42   2.0000      -0.566394       -15.4124
  43   2.0000      -0.560358       -15.2481
  44   2.0000      -0.528261       -14.3747
  45   2.0000      -0.523385       -14.2420
  46   2.0000      -0.519126       -14.1261
  47   2.0000      -0.509736       -13.8706
  48   2.0000      -0.506223       -13.7750
  49   2.0000      -0.499046       -13.5797
  50   2.0000      -0.494381       -13.4528
  51   2.0000      -0.487093       -13.2545
  52   2.0000      -0.470020       -12.7899
  53   2.0000      -0.463738       -12.6190
  54   2.0000      -0.458947       -12.4886
  55   2.0000      -0.453283       -12.3344
  56   2.0000      -0.440988       -11.9999
  57   2.0000      -0.439090       -11.9482
  58   2.0000      -0.435896       -11.8613
  59   2.0000      -0.428130       -11.6500
  60   2.0000      -0.417053       -11.3486
  61   2.0000      -0.413510       -11.2522
  62   2.0000      -0.409091       -11.1319
  63   2.0000      -0.344720        -9.3803
  64   2.0000      -0.333724        -9.0811
  65   2.0000      -0.329645        -8.9701
  66   2.0000      -0.295239        -8.0338
  67   0.0000       0.030781         0.8376
  68   0.0000       0.067169         1.8278
  69   0.0000       0.107252         2.9185
  70   0.0000       0.125715         3.4209
  71   0.0000       0.130923         3.5626

MULLIKEN ATOMIC CHARGES
-----------------------
   0 S :    0.109143
   1 C :   -0.130416
   2 C :   -0.066867
   3 C :    0.030014
   4 C :   -0.153899
   5 H :    0.002499
   6 C :    0.062238
   7 H :    0.005337
   8 H :    0.048572
   9 C :   -0.083242
  10 H :    0.040700
  11 H :    0.040009
  12 C :   -0.057778
  13 H :    0.032706
  14 H :    0.040676
  15 H :    0.033563
  16 S :    0.096144
  17 C :   -0.090741
  18 C :   -0.053391
  19 C :   -0.017459
  20 C :   -0.159567
  21 H :    0.006454
  22 C :    0.069010
  23 H :    0.038981
  24 H :    0.011501
  25 C :   -0.093738
  26 H :    0.020326
  27 H :    0.039092
  28 C :    0.011304
  29 H :    0.021642
  30 H :    0.012588
  31 H :    0.025598
  32 H :    0.050694
  33 H :    0.058309
Sum of atomic charges:    0.0000000

LOEWDIN ATOMIC CHARGES
----------------------
   0 S :    0.417699
   1 C :   -0.193998
   2 C :   -0.061106
   3 C :   -0.065718
   4 C :   -0.208176
   5 H :    0.029392
   6 C :   -0.035318
   7 H :    0.025195
   8 H :    0.043528
   9 C :   -0.038839
  10 H :    0.023016
  11 H :    0.030110
  12 C :   -0.066637
  13 H :    0.021528
  14 H :    0.032482
  15 H :    0.025461
  16 S :    0.394355
  17 C :   -0.187924
  18 C :   -0.074469
  19 C :   -0.057598
  20 C :   -0.192217
  21 H :    0.027369
  22 C :   -0.033018
  23 H :    0.033950
  24 H :    0.028434
  25 C :   -0.044200
  26 H :    0.025465
  27 H :    0.026498
  28 C :   -0.058413
  29 H :    0.022746
  30 H :    0.020884
  31 H :    0.024080
  32 H :    0.027781
  33 H :    0.037655

  Mayer bond orders larger than 0.100000
B(  0-S ,  1-C ) :   1.1179 B(  0-S ,  4-C ) :   1.1670 B(  1-C ,  2-C ) :   1.6500
B(  1-C , 32-H ) :   0.9600 B(  2-C ,  3-C ) :   1.2047 B(  2-C ,  6-C ) :   1.0185
B(  3-C ,  4-C ) :   1.5957 B(  3-C ,  5-H ) :   1.0007 B(  4-C , 20-C ) :   1.0110
B(  6-C ,  7-H ) :   0.9326 B(  6-C ,  8-H ) :   0.9360 B(  6-C ,  9-C ) :   1.0451
B(  9-C , 10-H ) :   0.9609 B(  9-C , 11-H ) :   0.9562 B(  9-C , 12-C ) :   1.0782
B( 12-C , 13-H ) :   0.9769 B( 12-C , 14-H ) :   0.9736 B( 12-C , 15-H ) :   0.9751
B( 16-S , 17-C ) :   1.1525 B( 16-S , 20-C ) :   1.1411 B( 17-C , 18-C ) :   1.6165
B( 17-C , 20-C ) :   0.1106 B( 17-C , 33-H ) :   0.9625 B( 18-C , 19-C ) :   1.2512
B( 18-C , 21-H ) :   0.9935 B( 19-C , 20-C ) :   1.5841 B( 19-C , 22-C ) :   1.0374
B( 22-C , 23-H ) :   0.9367 B( 22-C , 24-H ) :   0.9222 B( 22-C , 25-C ) :   1.0769
B( 25-C , 26-H ) :   0.9508 B( 25-C , 27-H ) :   0.9601 B( 25-C , 28-C ) :   1.0811
B( 28-C , 29-H ) :   0.9721 B( 28-C , 30-H ) :   0.9706 B( 28-C , 31-H ) :   0.9747

Dispersion correction           -0.014025447
FINAL SINGLE POINT ENERGY     -1339.880023930742

DIPOLE MOMENT
-------------
                                X             Y             Z
Electronic contribution:    -20.73231      19.33427      -8.04764
Nuclear contribution   :     21.03039     -19.88798       8.11601
                        -----------------------------------------
Total Dipole Moment    :      0.29808      -0.55371       0.06837
                        -----------------------------------------
Magnitude (a.u.)       :      0.63255
Magnitude (Debye)      :      1.60782

Rotational constants in cm-1:     0.017778     0.008642     0.006975
Rotational constants in MHz :   532.982340   259.085082   209.106259

                             ****ORCA TERMINATED NORMALLY****
TOTAL RUN TIME: 0 days 0 hours 0 minutes 21 seconds 658 msec
