                         Program Version 4.2.1 -  RELEASE  -
|  1> ! wB97X-D3 SP def2-SVP
|  2> %pal
|  3> nprocs 24
|  4> end
|  5>
|  6> * xyz 0 1
|  7> S 	 -149.208 	 4.22326 	 5.63519
|  8> C 	 -149.797 	 4.91623 	 7.15668
|  9> C 	 -149.782 	 6.27325 	 7.27802
| 10> C 	 -149.102 	 6.79498 	 6.12595
| 11> C 	 -148.653 	 5.82604 	 5.26741
| 12> H 	 -149.142 	 7.86523 	 5.84519
| 13> C 	 -150.452 	 7.18487 	 8.20945
| 14> H 	 -151.087 	 7.7429 	 7.48159
| 15> H 	 -149.666 	 7.8987 	 8.5547
| 16> C 	 -151.351 	 6.62855 	 9.32273
| 17> H 	 -150.935 	 5.6843 	 9.62989
| 18> H 	 -151.294 	 7.21974 	 10.278
| 19> C 	 -152.785 	 6.32761 	 8.92424
| 20> H 	 -153.442 	 7.0425 	 9.41558
| 21> H 	 -153.007 	 6.60381 	 7.87897
| 22> H 	 -153.225 	 5.33047 	 9.15143
| 23> S 	 -149.351 	 6.31358 	 2.67974
| 24> C 	 -148.283 	 7.18154 	 1.64246
| 25> C 	 -147.022 	 7.32425 	 2.21931
| 26> C 	 -146.986 	 6.89847 	 3.58523
| 27> C 	 -148.165 	 6.20833 	 3.96298
| 28> H 	 -146.166 	 7.82648 	 1.71959
| 29> C 	 -145.751 	 7.14494 	 4.35432
| 30> H 	 -145.893 	 6.90208 	 5.43308
| 31> H 	 -145.615 	 8.19316 	 4.45079
| 32> C 	 -144.425 	 6.57611 	 3.91138
| 33> H 	 -144.119 	 7.1128 	 2.93959
| 34> H 	 -144.5 	 5.50552 	 3.644
| 35> C 	 -143.237 	 6.78425 	 4.86383
| 36> H 	 -143.171 	 7.80702 	 5.25215
| 37> H 	 -142.274 	 6.56111 	 4.46438
| 38> H 	 -143.443 	 6.3264 	 5.79483
| 39> H 	 -150.235 	 4.26193 	 7.88723
| 40> H 	 -148.44 	 7.46458 	 0.566931
| 41> *
| 42>
| 43>                          ****END OF INPUT****

CARTESIAN COORDINATES (ANGSTROEM)
---------------------------------
  S    -149.208000    4.223260    5.635190
  C    -149.797000    4.916230    7.156680
  C    -149.782000    6.273250    7.278020
  C    -149.102000    6.794980    6.125950
  C    -148.653000    5.826040    5.267410
  H    -149.142000    7.865230    5.845190
  C    -150.452000    7.184870    8.209450
  H    -151.087000    7.742900    7.481590
  H    -149.666000    7.898700    8.554700
  C    -151.351000    6.628550    9.322730
  H    -150.935000    5.684300    9.629890
  H    -151.294000    7.219740   10.278000
  C    -152.785000    6.327610    8.924240
  H    -153.442000    7.042500    9.415580
  H    -153.007000    6.603810    7.878970
  H    -153.225000    5.330470    9.151430
  S    -149.351000    6.313580    2.679740
  C    -148.283000    7.181540    1.642460
  C    -147.022000    7.324250    2.219310
  C    -146.986000    6.898470    3.585230
  C    -148.165000    6.208330    3.962980
  H    -146.166000    7.826480    1.719590
  C    -145.751000    7.144940    4.354320
  H    -145.893000    6.902080    5.433080
  H    -145.615000    8.193160    4.450790
  C    -144.425000    6.576110    3.911380
  H    -144.119000    7.112800    2.939590
  H    -144.500000    5.505520    3.644000
  C    -143.237000    6.784250    4.863830
  H    -143.171000    7.807020    5.252150
  H    -142.274000    6.561110    4.464380
  H    -143.443000    6.326400    5.794830
  H    -150.235000    4.261930    7.887230
  H    -148.440000    7.464580    0.566931

 Total Charge           Charge          ....    0
 Multiplicity           Mult            ....    1
 Number of Electrons    NEL             ....  134
 Basis Dimension        Dim             ....  322

ORBITAL ENERGIES
----------------

  NO   OCC          E(Eh)            E(eV)
   0   2.0000     -88.967323     -2420.9239
   1   2.0000     -88.963715     -2420.8258
   2   2.0000     -10.322410      -280.8870
   3   2.0000     -10.322073      -280.8779
   4   2.0000     -10.318160      -280.7714
   5   2.0000     -10.309518      -280.5363
   6   2.0000     -10.301330      -280.3134
   7   2.0000     -10.300712      -280.2966
   8   2.0000     -10.297788      -280.2170
   9   2.0000     -10.292669      -280.0778
  10   2.0000     -10.292463      -280.0721
  11   2.0000     -10.292249      -280.0663
  12   2.0000     -10.291051      -280.0337
  13   2.0000     -10.283342      -279.8240
  14   2.0000     -10.281432      -279.7720
  15   2.0000     -10.272311      -279.5238
  16   2.0000      -8.082168      -219.9270
  17   2.0000      -8.078808      -219.8355
  18   2.0000      -6.040513      -164.3707
  19   2.0000      -6.037306      -164.2834
  20   2.0000      -6.037142      -164.2790
  21   2.0000      -6.033104      -164.1691
  22   2.0000      -6.032613      -164.1557
  23   2.0000      -6.029734      -164.0774
  24   2.0000      -1.008450       -27.4413
  25   2.0000      -0.983746       -26.7691
  26   2.0000      -0.918939       -25.0056
  27   2.0000      -0.910797       -24.7840
  28   2.0000      -0.867584       -23.6082
  29   2.0000      -0.855772       -23.2868
  30   2.0000      -0.850299       -23.1378
  31   2.0000      -0.806344       -21.9417
  32   2.0000      -0.786446       -21.4003
  33   2.0000      -0.772314       -21.0157
  34   2.0000      -0.716876       -19.5072
  35   2.0000      -0.701899       -19.0996
  36   2.0000      -0.688842       -18.7443
  37   2.0000      -0.652822       -17.7642
  38   2.0000      -0.638355       -17.3705
  39   2.0000      -0.611406       -16.6372
  40   2.0000      -0.597462       -16.2578
  41   2.0000      -0.569677       -15.5017
  42   2.0000      -0.562184       -15.2978
  43   2.0000      -0.556871       -15.1532
  44   2.0000      -0.533470       -14.5165
  45   2.0000      -0.526462       -14.3257
  46   2.0000      -0.515789       -14.0353
  47   2.0000      -0.510578       -13.8935
  48   2.0000      -0.506191       -13.7741
  49   2.0000      -0.490296       -13.3416
  50   2.0000      -0.486177       -13.2296
  51   2.0000      -0.483053       -13.1446
  52   2.0000      -0.464930       -12.6514
  53   2.0000      -0.462890       -12.5959
  54   2.0000      -0.458126       -12.4663
  55   2.0000      -0.452892       -12.3238
  56   2.0000      -0.448879       -12.2146
  57   2.0000      -0.443537       -12.0693
  58   2.0000      -0.431072       -11.7301
  59   2.0000      -0.428908       -11.6712
  60   2.0000      -0.424013       -11.5380
  61   2.0000      -0.413076       -11.2404
  62   2.0000      -0.401105       -10.9146
  63   2.0000      -0.337444        -9.1823
  64   2.0000      -0.326030        -8.8717
  65   2.0000      -0.322263        -8.7692
  66   2.0000      -0.299376        -8.1464
  67   0.0000       0.041808         1.1377
  68   0.0000       0.061023         1.6605
  69   0.0000       0.101425         2.7599
  70   0.0000       0.123035         3.3479
  71   0.0000       0.130854         3.5607

MULLIKEN ATOMIC CHARGES
-----------------------
   0 S :    0.114059
   1 C :   -0.134734
   2 C :   -0.060179
   3 C :   -0.005390
   4 C :   -0.147572
   5 H :    0.033976
   6 C :    0.033034
   7 H :    0.044657
   8 H :    0.048876
   9 C :   -0.050096
  10 H :    0.019164
  11 H :    0.042079
  12 C :   -0.066380
  13 H :    0.024113
  14 H :    0.032672
  15 H :    0.047020
  16 S :    0.114702
  17 C :   -0.109372
  18 C :   -0.053547
  19 C :   -0.031414
  20 C :   -0.153511
  21 H :    0.034116
  22 C :    0.068293
  23 H :    0.015260
  24 H :    0.013225
  25 C :   -0.099623
  26 H :    0.026947
  27 H :    0.042193
  28 C :   -0.010969
  29 H :    0.008895
  30 H :    0.037897
  31 H :    0.015157
  32 H :    0.031497
  33 H :    0.074955
Sum of atomic charges:   -0.0000000

LOEWDIN ATOMIC CHARGES
----------------------
   0 S :    0.397696
   1 C :   -0.187651
   2 C :   -0.064437
   3 C :   -0.052342
   4 C :   -0.207566
   5 H :    0.038289
   6 C :   -0.036261
   7 H :    0.043431
   8 H :    0.042656
   9 C :   -0.049872
  10 H :    0.023053
  11 H :    0.035373
  12 C :   -0.076210
  13 H :    0.027659
  14 H :    0.029384
  15 H :    0.031915
  16 S :    0.420155
  17 C :   -0.208054
  18 C :   -0.077018
  19 C :   -0.053149
  20 C :   -0.206904
  21 H :    0.036149
  22 C :   -0.045237
  23 H :    0.032420
  24 H :    0.029788
  25 C :   -0.041537
  26 H :    0.025189
  27 H :    0.027576
  28 C :   -0.064289
  29 H :    0.026006
  30 H :    0.025829
  31 H :    0.020425
  32 H :    0.015319
  33 H :    0.042216

  Mayer bond orders larger than 0.100000
B(  0-S ,  1-C ) :   1.1195 B(  0-S ,  4-C ) :   1.1391 B(  1-C ,  2-C ) :   1.6556
B(  1-C , 32-H ) :   0.9602 B(  2-C ,  3-C ) :   1.2087 B(  2-C ,  6-C ) :   1.0084
B(  3-C ,  4-C ) :   1.6100 B(  3-C ,  5-H ) :   0.9902 B(  4-C , 20-C ) :   1.0087
B(  6-C ,  7-H ) :   0.9449 B(  6-C ,  8-H ) :   0.9309 B(  6-C ,  9-C ) :   1.0655
B(  9-C , 10-H ) :   0.9606 B(  9-C , 11-H ) :   0.9589 B(  9-C , 12-C ) :   1.0535
B( 12-C , 13-H ) :   0.9741 B( 12-C , 14-H ) :   0.9787 B( 12-C , 15-H ) :   0.9796
B( 16-S , 17-C ) :   1.1716 B( 16-S , 20-C ) :   1.1462 B( 17-C , 18-C ) :   1.5900
B( 17-C , 33-H ) :   0.9578 B( 18-C , 19-C ) :   1.2585 B( 18-C , 21-H ) :   0.9823
B( 19-C , 20-C ) :   1.5769 B( 19-C , 22-C ) :   1.0669 B( 22-C , 23-H ) :   0.9288
B( 22-C , 24-H ) :   0.9154 B( 22-C , 25-C ) :   1.0641 B( 25-C , 26-H ) :   0.9470
B( 25-C , 27-H ) :   0.9579 B( 25-C , 28-C ) :   1.0857 B( 28-C , 29-H ) :   0.9679
B( 28-C , 30-H ) :   0.9750 B( 28-C , 31-H ) :   0.9703

Dispersion correction           -0.013605128
FINAL SINGLE POINT ENERGY     -1339.861079673796

DIPOLE MOMENT
-------------
                                X             Y             Z
Electronic contribution:     -7.22962      -9.49152     -15.54382
Nuclear contribution   :      7.20804      10.04131      15.91745
                        -----------------------------------------
Total Dipole Moment    :     -0.02158       0.54979       0.37363
                        -----------------------------------------
Magnitude (a.u.)       :      0.66508
Magnitude (Debye)      :      1.69051

Rotational constants in cm-1:     0.020864     0.007288     0.006292
Rotational constants in MHz :   625.472876   218.496150   188.629610

                             ****ORCA TERMINATED NORMALLY****
TOTAL RUN TIME: 0 days 0 hours 0 minutes 21 seconds 110 msec
