                         Program Version 4.2.1 -  RELEASE  -
|  1> ! wB97X-D3 SP def2-SVP
|  2> %pal
|  3> nprocs 24
|  4> end
|  5>
|  6> * xyz 0 1
|  7> S 	 -134.402 	 65.5773 	 -56.6721
|  8> C 	 -134.105 	 65.4821 	 -58.3759
|  9> C 	 -134.896 	 66.3555 	 -59.0741
| 10> C 	 -135.807 	 67.0784 	 -58.222
| 11> C 	 -135.716 	 66.7377 	 -56.8639
| 12> H 	 -136.564 	 67.8066 	 -58.56
| 13> C 	 -135.017 	 66.5854 	 -60.5789
| 14> H 	 -134.04 	 66.4444 	 -61.089
| 15> H 	 -135.432 	 67.6098 	 -60.7211
| 16> C 	 -136.105 	 65.7265 	 -61.3242
| 17> H 	 -137.114 	 66.1007 	 -61.0554
| 18> H 	 -135.949 	 65.9611 	 -62.3821
| 19> C 	 -135.968 	 64.1898 	 -61.0798
| 20> H 	 -135.016 	 63.7602 	 -61.2189
| 21> H 	 -136.29 	 63.9116 	 -60.0612
| 22> H 	 -136.653 	 63.6379 	 -61.8082
| 23> S 	 -135.228 	 68.0811 	 -54.4988
| 24> C 	 -136.493 	 68.6194 	 -53.4521
| 25> C 	 -137.73 	 68.3131 	 -54.049
| 26> C 	 -137.629 	 67.503 	 -55.233
| 27> C 	 -136.311 	 67.3475 	 -55.6485
| 28> H 	 -138.652 	 68.691 	 -53.6302
| 29> C 	 -138.811 	 67.097 	 -56.1057
| 30> H 	 -139.207 	 66.2114 	 -55.6084
| 31> H 	 -138.522 	 66.6222 	 -57.052
| 32> C 	 -139.799 	 68.2892 	 -56.3361
| 33> H 	 -139.15 	 69.1284 	 -56.8143
| 34> H 	 -140.112 	 68.7588 	 -55.3144
| 35> C 	 -141 	 67.8342 	 -57.1288
| 36> H 	 -141.488 	 67.0255 	 -56.6388
| 37> H 	 -140.705 	 67.5096 	 -58.0985
| 38> H 	 -141.75 	 68.6352 	 -57.2875
| 39> H 	 -133.314 	 64.862 	 -58.9214
| 40> H 	 -136.421 	 69.1589 	 -52.5725
| 41> *
| 42>
| 43>                          ****END OF INPUT****

CARTESIAN COORDINATES (ANGSTROEM)
---------------------------------
  S    -134.402000   65.577300  -56.672100
  C    -134.105000   65.482100  -58.375900
  C    -134.896000   66.355500  -59.074100
  C    -135.807000   67.078400  -58.222000
  C    -135.716000   66.737700  -56.863900
  H    -136.564000   67.806600  -58.560000
  C    -135.017000   66.585400  -60.578900
  H    -134.040000   66.444400  -61.089000
  H    -135.432000   67.609800  -60.721100
  C    -136.105000   65.726500  -61.324200
  H    -137.114000   66.100700  -61.055400
  H    -135.949000   65.961100  -62.382100
  C    -135.968000   64.189800  -61.079800
  H    -135.016000   63.760200  -61.218900
  H    -136.290000   63.911600  -60.061200
  H    -136.653000   63.637900  -61.808200
  S    -135.228000   68.081100  -54.498800
  C    -136.493000   68.619400  -53.452100
  C    -137.730000   68.313100  -54.049000
  C    -137.629000   67.503000  -55.233000
  C    -136.311000   67.347500  -55.648500
  H    -138.652000   68.691000  -53.630200
  C    -138.811000   67.097000  -56.105700
  H    -139.207000   66.211400  -55.608400
  H    -138.522000   66.622200  -57.052000
  C    -139.799000   68.289200  -56.336100
  H    -139.150000   69.128400  -56.814300
  H    -140.112000   68.758800  -55.314400
  C    -141.000000   67.834200  -57.128800
  H    -141.488000   67.025500  -56.638800
  H    -140.705000   67.509600  -58.098500
  H    -141.750000   68.635200  -57.287500
  H    -133.314000   64.862000  -58.921400
  H    -136.421000   69.158900  -52.572500

 Total Charge           Charge          ....    0
 Multiplicity           Mult            ....    1
 Number of Electrons    NEL             ....  134
 Basis Dimension        Dim             ....  322

ORBITAL ENERGIES
----------------

  NO   OCC          E(Eh)            E(eV)
   0   2.0000     -88.966589     -2420.9040
   1   2.0000     -88.965344     -2420.8701
   2   2.0000     -10.335294      -281.2376
   3   2.0000     -10.327330      -281.0209
   4   2.0000     -10.319054      -280.7957
   5   2.0000     -10.314955      -280.6842
   6   2.0000     -10.304661      -280.4041
   7   2.0000     -10.304169      -280.3907
   8   2.0000     -10.301169      -280.3090
   9   2.0000     -10.300388      -280.2878
  10   2.0000     -10.299803      -280.2719
  11   2.0000     -10.296559      -280.1836
  12   2.0000     -10.295600      -280.1575
  13   2.0000     -10.293194      -280.0921
  14   2.0000     -10.280697      -279.7520
  15   2.0000     -10.276846      -279.6472
  16   2.0000      -8.081275      -219.9027
  17   2.0000      -8.080345      -219.8774
  18   2.0000      -6.039817      -164.3518
  19   2.0000      -6.038809      -164.3244
  20   2.0000      -6.035654      -164.2385
  21   2.0000      -6.034605      -164.2100
  22   2.0000      -6.032108      -164.1420
  23   2.0000      -6.031318      -164.1205
  24   2.0000      -1.005286       -27.3552
  25   2.0000      -0.984494       -26.7894
  26   2.0000      -0.907103       -24.6835
  27   2.0000      -0.903824       -24.5943
  28   2.0000      -0.865013       -23.5382
  29   2.0000      -0.850970       -23.1561
  30   2.0000      -0.841244       -22.8914
  31   2.0000      -0.810946       -22.0670
  32   2.0000      -0.781140       -21.2559
  33   2.0000      -0.773695       -21.0533
  34   2.0000      -0.703562       -19.1449
  35   2.0000      -0.701505       -19.0889
  36   2.0000      -0.693703       -18.8766
  37   2.0000      -0.656725       -17.8704
  38   2.0000      -0.634161       -17.2564
  39   2.0000      -0.617617       -16.8062
  40   2.0000      -0.597229       -16.2514
  41   2.0000      -0.565673       -15.3928
  42   2.0000      -0.557505       -15.1705
  43   2.0000      -0.544797       -14.8247
  44   2.0000      -0.534468       -14.5436
  45   2.0000      -0.528244       -14.3743
  46   2.0000      -0.515128       -14.0173
  47   2.0000      -0.512558       -13.9474
  48   2.0000      -0.509791       -13.8721
  49   2.0000      -0.495730       -13.4895
  50   2.0000      -0.489113       -13.3094
  51   2.0000      -0.481178       -13.0935
  52   2.0000      -0.469519       -12.7763
  53   2.0000      -0.465793       -12.6749
  54   2.0000      -0.459497       -12.5035
  55   2.0000      -0.454223       -12.3600
  56   2.0000      -0.445287       -12.1169
  57   2.0000      -0.436368       -11.8742
  58   2.0000      -0.432180       -11.7602
  59   2.0000      -0.420862       -11.4522
  60   2.0000      -0.418736       -11.3944
  61   2.0000      -0.415307       -11.3011
  62   2.0000      -0.408633       -11.1195
  63   2.0000      -0.343145        -9.3374
  64   2.0000      -0.329706        -8.9718
  65   2.0000      -0.326136        -8.8746
  66   2.0000      -0.297784        -8.1031
  67   0.0000       0.034273         0.9326
  68   0.0000       0.065895         1.7931
  69   0.0000       0.115063         3.1310
  70   0.0000       0.124602         3.3906
  71   0.0000       0.127454         3.4682

MULLIKEN ATOMIC CHARGES
-----------------------
   0 S :    0.112093
   1 C :   -0.136873
   2 C :   -0.088380
   3 C :    0.032981
   4 C :   -0.168612
   5 H :    0.023329
   6 C :    0.031259
   7 H :    0.036119
   8 H :    0.033783
   9 C :   -0.071426
  10 H :    0.031593
  11 H :    0.036091
  12 C :   -0.066071
  13 H :    0.019650
  14 H :    0.047913
  15 H :    0.038063
  16 S :    0.121538
  17 C :   -0.063928
  18 C :   -0.057804
  19 C :   -0.020789
  20 C :   -0.165293
  21 H :    0.017992
  22 C :    0.069560
  23 H :    0.027922
  24 H :    0.018215
  25 C :   -0.151240
  26 H :    0.051757
  27 H :    0.045097
  28 C :    0.007587
  29 H :    0.025324
  30 H :    0.018970
  31 H :    0.037673
  32 H :    0.072118
  33 H :    0.033789
Sum of atomic charges:   -0.0000000

LOEWDIN ATOMIC CHARGES
----------------------
   0 S :    0.412392
   1 C :   -0.216089
   2 C :   -0.074897
   3 C :   -0.061718
   4 C :   -0.192734
   5 H :    0.034441
   6 C :   -0.035596
   7 H :    0.030834
   8 H :    0.036527
   9 C :   -0.037634
  10 H :    0.024410
  11 H :    0.025325
  12 C :   -0.072560
  13 H :    0.014668
  14 H :    0.029965
  15 H :    0.033510
  16 S :    0.426787
  17 C :   -0.184786
  18 C :   -0.069901
  19 C :   -0.056050
  20 C :   -0.212322
  21 H :    0.026689
  22 C :   -0.037342
  23 H :    0.032828
  24 H :    0.029360
  25 C :   -0.049180
  26 H :    0.034533
  27 H :    0.029408
  28 C :   -0.063327
  29 H :    0.024312
  30 H :    0.021055
  31 H :    0.030925
  32 H :    0.047794
  33 H :    0.018372

  Mayer bond orders larger than 0.100000
B(  0-S ,  1-C ) :   1.1410 B(  0-S ,  4-C ) :   1.1584 B(  1-C ,  2-C ) :   1.6152
B(  1-C , 32-H ) :   0.9554 B(  2-C ,  3-C ) :   1.2413 B(  2-C ,  6-C ) :   1.0299
B(  3-C ,  4-C ) :   1.5698 B(  3-C ,  5-H ) :   0.9888 B(  4-C , 20-C ) :   1.0134
B(  6-C ,  7-H ) :   0.9448 B(  6-C ,  8-H ) :   0.9418 B(  6-C ,  9-C ) :   1.0661
B(  9-C , 10-H ) :   0.9578 B(  9-C , 11-H ) :   0.9589 B(  9-C , 12-C ) :   1.0695
B( 12-C , 13-H ) :   0.9787 B( 12-C , 14-H ) :   0.9732 B( 12-C , 15-H ) :   0.9750
B( 16-S , 17-C ) :   1.1695 B( 16-S , 20-C ) :   1.1582 B( 17-C , 18-C ) :   1.5802
B( 17-C , 20-C ) :   0.1014 B( 17-C , 33-H ) :   0.9787 B( 18-C , 19-C ) :   1.2579
B( 18-C , 21-H ) :   0.9879 B( 19-C , 20-C ) :   1.5781 B( 19-C , 22-C ) :   1.0386
B( 22-C , 23-H ) :   0.9246 B( 22-C , 24-H ) :   0.9397 B( 22-C , 25-C ) :   1.0414
B( 25-C , 26-H ) :   0.9568 B( 25-C , 27-H ) :   0.9517 B( 25-C , 28-C ) :   1.0783
B( 28-C , 29-H ) :   0.9717 B( 28-C , 30-H ) :   0.9715 B( 28-C , 31-H ) :   0.9724

Dispersion correction           -0.014288510
FINAL SINGLE POINT ENERGY     -1339.883949243336

DIPOLE MOMENT
-------------
                                X             Y             Z
Electronic contribution:     20.17269       2.33278      21.15524
Nuclear contribution   :    -20.68548      -2.20019     -21.63586
                        -----------------------------------------
Total Dipole Moment    :     -0.51279       0.13259      -0.48062
                        -----------------------------------------
Magnitude (a.u.)       :      0.71521
Magnitude (Debye)      :      1.81793

Rotational constants in cm-1:     0.017712     0.009072     0.006501
Rotational constants in MHz :   530.986269   271.979919   194.881774

                             ****ORCA TERMINATED NORMALLY****
TOTAL RUN TIME: 0 days 0 hours 0 minutes 21 seconds 340 msec
