                         Program Version 4.2.1 -  RELEASE  -
|  1> ! wB97X-D3 SP def2-SVP
|  2> %pal
|  3> nprocs 24
|  4> end
|  5>
|  6> * xyz 0 1
|  7> S 	 -98.8498 	 13.0435 	 -120.487
|  8> C 	 -97.7869 	 12.8846 	 -119.131
|  9> C 	 -98.3641 	 13.5255 	 -117.998
| 10> C 	 -99.7067 	 14.0858 	 -118.327
| 11> C 	 -100.141 	 13.853 	 -119.625
| 12> H 	 -100.423 	 14.6404 	 -117.713
| 13> C 	 -97.7993 	 13.837 	 -116.602
| 14> H 	 -98.5335 	 14.3322 	 -116.092
| 15> H 	 -96.9976 	 14.5357 	 -116.774
| 16> C 	 -97.4733 	 12.5275 	 -115.875
| 17> H 	 -98.2842 	 11.8223 	 -115.817
| 18> H 	 -96.685 	 12.0142 	 -116.481
| 19> C 	 -96.9074 	 12.751 	 -114.49
| 20> H 	 -96.3343 	 11.9347 	 -114.081
| 21> H 	 -96.22 	 13.5599 	 -114.477
| 22> H 	 -97.717 	 12.9526 	 -113.819
| 23> S 	 -101.304 	 15.5009 	 -121.425
| 24> C 	 -103.07 	 15.5421 	 -121.474
| 25> C 	 -103.636 	 14.6457 	 -120.645
| 26> C 	 -102.767 	 13.8347 	 -119.901
| 27> C 	 -101.459 	 14.1711 	 -120.239
| 28> H 	 -104.631 	 14.7321 	 -120.571
| 29> C 	 -103.094 	 12.8619 	 -118.826
| 30> H 	 -102.179 	 12.4715 	 -118.341
| 31> H 	 -103.572 	 11.9548 	 -119.192
| 32> C 	 -104.145 	 13.3457 	 -117.802
| 33> H 	 -104.319 	 12.5799 	 -117.076
| 34> H 	 -105.051 	 13.6172 	 -118.362
| 35> C 	 -103.614 	 14.5346 	 -116.966
| 36> H 	 -103.013 	 15.3759 	 -117.462
| 37> H 	 -102.889 	 14.1105 	 -116.302
| 38> H 	 -104.478 	 14.9423 	 -116.462
| 39> H 	 -96.8214 	 12.431 	 -119.169
| 40> H 	 -103.623 	 16.2746 	 -122.012
| 41> *
| 42>
| 43>                          ****END OF INPUT****

CARTESIAN COORDINATES (ANGSTROEM)
---------------------------------
  S    -98.849800   13.043500  -120.487000
  C    -97.786900   12.884600  -119.131000
  C    -98.364100   13.525500  -117.998000
  C    -99.706700   14.085800  -118.327000
  C    -100.141000   13.853000  -119.625000
  H    -100.423000   14.640400  -117.713000
  C    -97.799300   13.837000  -116.602000
  H    -98.533500   14.332200  -116.092000
  H    -96.997600   14.535700  -116.774000
  C    -97.473300   12.527500  -115.875000
  H    -98.284200   11.822300  -115.817000
  H    -96.685000   12.014200  -116.481000
  C    -96.907400   12.751000  -114.490000
  H    -96.334300   11.934700  -114.081000
  H    -96.220000   13.559900  -114.477000
  H    -97.717000   12.952600  -113.819000
  S    -101.304000   15.500900  -121.425000
  C    -103.070000   15.542100  -121.474000
  C    -103.636000   14.645700  -120.645000
  C    -102.767000   13.834700  -119.901000
  C    -101.459000   14.171100  -120.239000
  H    -104.631000   14.732100  -120.571000
  C    -103.094000   12.861900  -118.826000
  H    -102.179000   12.471500  -118.341000
  H    -103.572000   11.954800  -119.192000
  C    -104.145000   13.345700  -117.802000
  H    -104.319000   12.579900  -117.076000
  H    -105.051000   13.617200  -118.362000
  C    -103.614000   14.534600  -116.966000
  H    -103.013000   15.375900  -117.462000
  H    -102.889000   14.110500  -116.302000
  H    -104.478000   14.942300  -116.462000
  H    -96.821400   12.431000  -119.169000
  H    -103.623000   16.274600  -122.012000

 Total Charge           Charge          ....    0
 Multiplicity           Mult            ....    1
 Number of Electrons    NEL             ....  134
 Basis Dimension        Dim             ....  322

ORBITAL ENERGIES
----------------

  NO   OCC          E(Eh)            E(eV)
   0   2.0000     -88.964422     -2420.8450
   1   2.0000     -88.961168     -2420.7564
   2   2.0000     -10.330811      -281.1156
   3   2.0000     -10.327642      -281.0294
   4   2.0000     -10.317153      -280.7440
   5   2.0000     -10.313218      -280.6369
   6   2.0000     -10.310535      -280.5639
   7   2.0000     -10.306640      -280.4579
   8   2.0000     -10.296505      -280.1821
   9   2.0000     -10.291233      -280.0387
  10   2.0000     -10.290153      -280.0093
  11   2.0000     -10.286462      -279.9088
  12   2.0000     -10.285934      -279.8945
  13   2.0000     -10.282568      -279.8029
  14   2.0000     -10.278628      -279.6957
  15   2.0000     -10.268587      -279.4225
  16   2.0000      -8.078696      -219.8325
  17   2.0000      -8.076130      -219.7627
  18   2.0000      -6.037085      -164.2774
  19   2.0000      -6.034679      -164.2120
  20   2.0000      -6.033435      -164.1781
  21   2.0000      -6.030363      -164.0945
  22   2.0000      -6.029432      -164.0692
  23   2.0000      -6.027070      -164.0049
  24   2.0000      -1.002821       -27.2882
  25   2.0000      -0.979714       -26.6594
  26   2.0000      -0.913339       -24.8532
  27   2.0000      -0.911941       -24.8152
  28   2.0000      -0.868833       -23.6421
  29   2.0000      -0.850970       -23.1561
  30   2.0000      -0.844198       -22.9718
  31   2.0000      -0.816606       -22.2210
  32   2.0000      -0.783419       -21.3179
  33   2.0000      -0.773308       -21.0428
  34   2.0000      -0.706815       -19.2334
  35   2.0000      -0.701911       -19.1000
  36   2.0000      -0.693834       -18.8802
  37   2.0000      -0.660465       -17.9722
  38   2.0000      -0.647068       -17.6076
  39   2.0000      -0.611994       -16.6532
  40   2.0000      -0.601599       -16.3703
  41   2.0000      -0.571915       -15.5626
  42   2.0000      -0.564491       -15.3606
  43   2.0000      -0.551830       -15.0161
  44   2.0000      -0.546225       -14.8635
  45   2.0000      -0.528046       -14.3689
  46   2.0000      -0.525042       -14.2871
  47   2.0000      -0.513445       -13.9715
  48   2.0000      -0.506414       -13.7802
  49   2.0000      -0.497573       -13.5396
  50   2.0000      -0.493753       -13.4357
  51   2.0000      -0.481878       -13.1126
  52   2.0000      -0.474448       -12.9104
  53   2.0000      -0.469279       -12.7697
  54   2.0000      -0.454871       -12.3777
  55   2.0000      -0.446224       -12.1424
  56   2.0000      -0.442824       -12.0498
  57   2.0000      -0.435621       -11.8539
  58   2.0000      -0.431574       -11.7437
  59   2.0000      -0.425916       -11.5898
  60   2.0000      -0.418340       -11.3836
  61   2.0000      -0.413901       -11.2628
  62   2.0000      -0.411695       -11.2028
  63   2.0000      -0.341442        -9.2911
  64   2.0000      -0.329374        -8.9627
  65   2.0000      -0.321608        -8.7514
  66   2.0000      -0.299383        -8.1466
  67   0.0000       0.039750         1.0816
  68   0.0000       0.060399         1.6435
  69   0.0000       0.111073         3.0224
  70   0.0000       0.123963         3.3732
  71   0.0000       0.131621         3.5816

MULLIKEN ATOMIC CHARGES
-----------------------
   0 S :    0.108172
   1 C :   -0.113185
   2 C :   -0.134685
   3 C :    0.030828
   4 C :   -0.176515
   5 H :    0.009590
   6 C :    0.148052
   7 H :   -0.009530
   8 H :    0.041352
   9 C :   -0.110953
  10 H :    0.032027
  11 H :    0.025995
  12 C :   -0.001962
  13 H :    0.026088
  14 H :    0.012506
  15 H :    0.024594
  16 S :    0.099263
  17 C :   -0.072693
  18 C :   -0.002802
  19 C :    0.037127
  20 C :   -0.185760
  21 H :   -0.034394
  22 C :    0.072884
  23 H :    0.032172
  24 H :    0.030311
  25 C :   -0.090747
  26 H :    0.033810
  27 H :    0.038706
  28 C :   -0.079364
  29 H :    0.055856
  30 H :    0.023611
  31 H :    0.038344
  32 H :    0.048925
  33 H :    0.042377
Sum of atomic charges:    0.0000000

LOEWDIN ATOMIC CHARGES
----------------------
   0 S :    0.413466
   1 C :   -0.208270
   2 C :   -0.053511
   3 C :   -0.074237
   4 C :   -0.210525
   5 H :    0.030671
   6 C :   -0.018294
   7 H :    0.015464
   8 H :    0.035725
   9 C :   -0.038199
  10 H :    0.024637
  11 H :    0.024564
  12 C :   -0.062773
  13 H :    0.025634
  14 H :    0.019275
  15 H :    0.022129
  16 S :    0.383791
  17 C :   -0.161550
  18 C :   -0.060653
  19 C :   -0.045160
  20 C :   -0.178898
  21 H :    0.012613
  22 C :   -0.034209
  23 H :    0.035500
  24 H :    0.034875
  25 C :   -0.033131
  26 H :    0.026441
  27 H :    0.022377
  28 C :   -0.074581
  29 H :    0.032775
  30 H :    0.019641
  31 H :    0.025105
  32 H :    0.025968
  33 H :    0.023339

  Mayer bond orders larger than 0.100000
B(  0-S ,  1-C ) :   1.1506 B(  0-S ,  4-C ) :   1.1602 B(  1-C ,  2-C ) :   1.5812
B(  1-C , 32-H ) :   0.9780 B(  2-C ,  3-C ) :   1.2330 B(  2-C ,  6-C ) :   1.0155
B(  3-C ,  4-C ) :   1.5913 B(  3-C ,  5-H ) :   0.9887 B(  4-C , 20-C ) :   0.9835
B(  6-C ,  7-H ) :   0.9366 B(  6-C ,  8-H ) :   0.9354 B(  6-C ,  9-C ) :   1.0600
B(  9-C , 10-H ) :   0.9613 B(  9-C , 11-H ) :   0.9591 B(  9-C , 12-C ) :   1.0873
B( 12-C , 13-H ) :   0.9724 B( 12-C , 14-H ) :   0.9711 B( 12-C , 15-H ) :   0.9742
B( 16-S , 17-C ) :   1.1346 B( 16-S , 20-C ) :   1.1546 B( 17-C , 18-C ) :   1.6541
B( 17-C , 33-H ) :   0.9679 B( 18-C , 19-C ) :   1.1882 B( 18-C , 21-H ) :   1.0081
B( 19-C , 20-C ) :   1.6074 B( 19-C , 22-C ) :   1.0562 B( 22-C , 23-H ) :   0.9331
B( 22-C , 24-H ) :   0.9233 B( 22-C , 25-C ) :   1.0750 B( 25-C , 26-H ) :   0.9546
B( 25-C , 27-H ) :   0.9576 B( 25-C , 28-C ) :   1.0630 B( 28-C , 29-H ) :   0.9753
B( 28-C , 30-H ) :   0.9758 B( 28-C , 31-H ) :   0.9742

Dispersion correction           -0.014631924
FINAL SINGLE POINT ENERGY     -1339.862244433055

DIPOLE MOMENT
-------------
                                X             Y             Z
Electronic contribution:      1.55441       5.01118     -28.97582
Nuclear contribution   :     -1.86739      -5.00115      29.68169
                        -----------------------------------------
Total Dipole Moment    :     -0.31298       0.01002       0.70587
                        -----------------------------------------
Magnitude (a.u.)       :      0.77222
Magnitude (Debye)      :      1.96282

Rotational constants in cm-1:     0.019919     0.008293     0.006483
Rotational constants in MHz :   597.162608   248.631848   194.340586

                             ****ORCA TERMINATED NORMALLY****
TOTAL RUN TIME: 0 days 0 hours 0 minutes 21 seconds 725 msec
