                         Program Version 4.2.1 -  RELEASE  -
|  1> ! wB97X-D3 SP def2-SVP
|  2> %pal
|  3> nprocs 24
|  4> end
|  5>
|  6> * xyz 0 1
|  7> S 	 -118.527 	 63.3719 	 -64.1151
|  8> C 	 -119.994 	 62.4907 	 -64.6557
|  9> C 	 -121.132 	 63.2384 	 -64.1943
| 10> C 	 -120.78 	 64.4521 	 -63.4617
| 11> C 	 -119.405 	 64.5973 	 -63.3285
| 12> H 	 -121.403 	 65.1814 	 -62.9459
| 13> C 	 -122.546 	 62.8111 	 -64.3226
| 14> H 	 -123.162 	 63.1989 	 -63.537
| 15> H 	 -122.614 	 61.8071 	 -63.9403
| 16> C 	 -123.157 	 62.9038 	 -65.7833
| 17> H 	 -123.082 	 63.9895 	 -66.1025
| 18> H 	 -122.557 	 62.3942 	 -66.5192
| 19> C 	 -124.662 	 62.5434 	 -65.9737
| 20> H 	 -124.729 	 61.5497 	 -65.706
| 21> H 	 -125.274 	 63.1257 	 -65.2529
| 22> H 	 -124.998 	 62.7788 	 -67.0015
| 23> S 	 -118.74 	 67.2083 	 -63.2022
| 24> C 	 -117.625 	 67.6296 	 -61.8904
| 25> C 	 -117.374 	 66.6437 	 -60.9597
| 26> C 	 -117.9 	 65.3611 	 -61.3961
| 27> C 	 -118.636 	 65.5491 	 -62.5951
| 28> H 	 -116.835 	 66.8245 	 -60.0212
| 29> C 	 -117.859 	 64.125 	 -60.4948
| 30> H 	 -118.755 	 63.5003 	 -60.6262
| 31> H 	 -117.948 	 64.4513 	 -59.4759
| 32> C 	 -116.721 	 63.0729 	 -60.7495
| 33> H 	 -116.924 	 62.5042 	 -61.7033
| 34> H 	 -116.859 	 62.3308 	 -59.9327
| 35> C 	 -115.34 	 63.6835 	 -60.6859
| 36> H 	 -115.283 	 64.2755 	 -61.5785
| 37> H 	 -114.643 	 62.835 	 -60.6282
| 38> H 	 -115.285 	 64.3221 	 -59.8592
| 39> H 	 -120.074 	 61.5956 	 -65.273
| 40> H 	 -117.34 	 68.6448 	 -61.7304
| 41> *
| 42>
| 43>                          ****END OF INPUT****

CARTESIAN COORDINATES (ANGSTROEM)
---------------------------------
  S    -118.527000   63.371900  -64.115100
  C    -119.994000   62.490700  -64.655700
  C    -121.132000   63.238400  -64.194300
  C    -120.780000   64.452100  -63.461700
  C    -119.405000   64.597300  -63.328500
  H    -121.403000   65.181400  -62.945900
  C    -122.546000   62.811100  -64.322600
  H    -123.162000   63.198900  -63.537000
  H    -122.614000   61.807100  -63.940300
  C    -123.157000   62.903800  -65.783300
  H    -123.082000   63.989500  -66.102500
  H    -122.557000   62.394200  -66.519200
  C    -124.662000   62.543400  -65.973700
  H    -124.729000   61.549700  -65.706000
  H    -125.274000   63.125700  -65.252900
  H    -124.998000   62.778800  -67.001500
  S    -118.740000   67.208300  -63.202200
  C    -117.625000   67.629600  -61.890400
  C    -117.374000   66.643700  -60.959700
  C    -117.900000   65.361100  -61.396100
  C    -118.636000   65.549100  -62.595100
  H    -116.835000   66.824500  -60.021200
  C    -117.859000   64.125000  -60.494800
  H    -118.755000   63.500300  -60.626200
  H    -117.948000   64.451300  -59.475900
  C    -116.721000   63.072900  -60.749500
  H    -116.924000   62.504200  -61.703300
  H    -116.859000   62.330800  -59.932700
  C    -115.340000   63.683500  -60.685900
  H    -115.283000   64.275500  -61.578500
  H    -114.643000   62.835000  -60.628200
  H    -115.285000   64.322100  -59.859200
  H    -120.074000   61.595600  -65.273000
  H    -117.340000   68.644800  -61.730400

 Total Charge           Charge          ....    0
 Multiplicity           Mult            ....    1
 Number of Electrons    NEL             ....  134
 Basis Dimension        Dim             ....  322

ORBITAL ENERGIES
----------------

  NO   OCC          E(Eh)            E(eV)
   0   2.0000     -88.971535     -2421.0386
   1   2.0000     -88.966871     -2420.9116
   2   2.0000     -10.327575      -281.0276
   3   2.0000     -10.321555      -280.8638
   4   2.0000     -10.320435      -280.8333
   5   2.0000     -10.316971      -280.7391
   6   2.0000     -10.311749      -280.5969
   7   2.0000     -10.309948      -280.5480
   8   2.0000     -10.299949      -280.2759
   9   2.0000     -10.295945      -280.1669
  10   2.0000     -10.292217      -280.0655
  11   2.0000     -10.291966      -280.0586
  12   2.0000     -10.288621      -279.9676
  13   2.0000     -10.286348      -279.9058
  14   2.0000     -10.278188      -279.6837
  15   2.0000     -10.265891      -279.3491
  16   2.0000      -8.085555      -220.0191
  17   2.0000      -8.081089      -219.8976
  18   2.0000      -6.043943      -164.4641
  19   2.0000      -6.040467      -164.3695
  20   2.0000      -6.039632      -164.3467
  21   2.0000      -6.036183      -164.2529
  22   2.0000      -6.035351      -164.2302
  23   2.0000      -6.032140      -164.1429
  24   2.0000      -1.004124       -27.3236
  25   2.0000      -0.974797       -26.5256
  26   2.0000      -0.906133       -24.6571
  27   2.0000      -0.904488       -24.6124
  28   2.0000      -0.865059       -23.5394
  29   2.0000      -0.850821       -23.1520
  30   2.0000      -0.843694       -22.9581
  31   2.0000      -0.811114       -22.0715
  32   2.0000      -0.787135       -21.4190
  33   2.0000      -0.767695       -20.8900
  34   2.0000      -0.703634       -19.1468
  35   2.0000      -0.703055       -19.1311
  36   2.0000      -0.681776       -18.5521
  37   2.0000      -0.662895       -18.0383
  38   2.0000      -0.642094       -17.4723
  39   2.0000      -0.607972       -16.5438
  40   2.0000      -0.592956       -16.1352
  41   2.0000      -0.562807       -15.3148
  42   2.0000      -0.552468       -15.0334
  43   2.0000      -0.550334       -14.9753
  44   2.0000      -0.542986       -14.7754
  45   2.0000      -0.529474       -14.4077
  46   2.0000      -0.522756       -14.2249
  47   2.0000      -0.515309       -14.0223
  48   2.0000      -0.501638       -13.6503
  49   2.0000      -0.493357       -13.4249
  50   2.0000      -0.487764       -13.2727
  51   2.0000      -0.477855       -13.0031
  52   2.0000      -0.468172       -12.7396
  53   2.0000      -0.463911       -12.6237
  54   2.0000      -0.455383       -12.3916
  55   2.0000      -0.450651       -12.2628
  56   2.0000      -0.442318       -12.0361
  57   2.0000      -0.438364       -11.9285
  58   2.0000      -0.432046       -11.7566
  59   2.0000      -0.421563       -11.4713
  60   2.0000      -0.417020       -11.3477
  61   2.0000      -0.411453       -11.1962
  62   2.0000      -0.407231       -11.0813
  63   2.0000      -0.338381        -9.2078
  64   2.0000      -0.332953        -9.0601
  65   2.0000      -0.322921        -8.7871
  66   2.0000      -0.294410        -8.0113
  67   0.0000       0.032721         0.8904
  68   0.0000       0.059930         1.6308
  69   0.0000       0.092109         2.5064
  70   0.0000       0.118983         3.2377
  71   0.0000       0.125705         3.4206

MULLIKEN ATOMIC CHARGES
-----------------------
   0 S :    0.123866
   1 C :   -0.123978
   2 C :   -0.100881
   3 C :    0.047879
   4 C :   -0.178356
   5 H :    0.015183
   6 C :    0.081512
   7 H :    0.004115
   8 H :    0.015227
   9 C :   -0.104233
  10 H :    0.033544
  11 H :    0.026198
  12 C :   -0.023833
  13 H :    0.018647
  14 H :    0.030658
  15 H :    0.047860
  16 S :    0.123450
  17 C :   -0.075028
  18 C :   -0.040784
  19 C :   -0.009188
  20 C :   -0.192648
  21 H :    0.032408
  22 C :    0.046749
  23 H :    0.032333
  24 H :    0.024772
  25 C :   -0.118278
  26 H :    0.043577
  27 H :    0.025995
  28 C :    0.000498
  29 H :    0.040677
  30 H :    0.041239
  31 H :    0.010863
  32 H :    0.055994
  33 H :    0.043963
Sum of atomic charges:    0.0000000

LOEWDIN ATOMIC CHARGES
----------------------
   0 S :    0.433257
   1 C :   -0.205042
   2 C :   -0.049777
   3 C :   -0.072103
   4 C :   -0.215686
   5 H :    0.034538
   6 C :   -0.045509
   7 H :    0.029102
   8 H :    0.031323
   9 C :   -0.038995
  10 H :    0.028273
  11 H :    0.018429
  12 C :   -0.060252
  13 H :    0.011725
  14 H :    0.027868
  15 H :    0.033345
  16 S :    0.398263
  17 C :   -0.173284
  18 C :   -0.066761
  19 C :   -0.048586
  20 C :   -0.201849
  21 H :    0.036925
  22 C :   -0.036575
  23 H :    0.037058
  24 H :    0.028437
  25 C :   -0.042156
  26 H :    0.021904
  27 H :    0.021750
  28 C :   -0.059906
  29 H :    0.027749
  30 H :    0.031304
  31 H :    0.014223
  32 H :    0.032345
  33 H :    0.018663

  Mayer bond orders larger than 0.100000
B(  0-S ,  1-C ) :   1.1299 B(  0-S ,  4-C ) :   1.1844 B(  1-C ,  2-C ) :   1.5823
B(  1-C ,  4-C ) :   0.1028 B(  1-C , 32-H ) :   0.9727 B(  2-C ,  3-C ) :   1.2363
B(  2-C ,  6-C ) :   1.0394 B(  3-C ,  4-C ) :   1.5649 B(  3-C ,  5-H ) :   0.9921
B(  4-C , 20-C ) :   1.0193 B(  6-C ,  7-H ) :   0.9383 B(  6-C ,  8-H ) :   0.9311
B(  6-C ,  9-C ) :   1.0346 B(  9-C , 10-H ) :   0.9614 B(  9-C , 11-H ) :   0.9616
B(  9-C , 12-C ) :   1.0751 B( 12-C , 13-H ) :   0.9780 B( 12-C , 14-H ) :   0.9756
B( 12-C , 15-H ) :   0.9750 B( 16-S , 17-C ) :   1.1363 B( 16-S , 20-C ) :   1.1455
B( 17-C , 18-C ) :   1.6451 B( 17-C , 33-H ) :   0.9680 B( 18-C , 19-C ) :   1.2080
B( 18-C , 21-H ) :   0.9830 B( 19-C , 20-C ) :   1.5961 B( 19-C , 22-C ) :   1.0311
B( 22-C , 23-H ) :   0.9341 B( 22-C , 24-H ) :   0.9448 B( 22-C , 25-C ) :   1.0693
B( 25-C , 26-H ) :   0.9524 B( 25-C , 27-H ) :   0.9546 B( 25-C , 28-C ) :   1.0733
B( 28-C , 29-H ) :   0.9705 B( 28-C , 30-H ) :   0.9733 B( 28-C , 31-H ) :   0.9750

Dispersion correction           -0.014678325
FINAL SINGLE POINT ENERGY     -1339.862450723474

DIPOLE MOMENT
-------------
                                X             Y             Z
Electronic contribution:      9.23553      13.79016      -3.14161
Nuclear contribution   :     -9.56681     -13.96136       3.54400
                        -----------------------------------------
Total Dipole Moment    :     -0.33127      -0.17120       0.40239
                        -----------------------------------------
Magnitude (a.u.)       :      0.54861
Magnitude (Debye)      :      1.39445

Rotational constants in cm-1:     0.024005     0.007302     0.006192
Rotational constants in MHz :   719.662636   218.904430   185.621223

                             ****ORCA TERMINATED NORMALLY****
TOTAL RUN TIME: 0 days 0 hours 0 minutes 19 seconds 993 msec
