                         Program Version 4.2.1 -  RELEASE  -
|  1> ! wB97X-D3 SP def2-SVP
|  2> %pal
|  3> nprocs 24
|  4> end
|  5>
|  6> * xyz 0 1
|  7> S 	 -53.868 	 12.0247 	 -99.3253
|  8> C 	 -52.7548 	 11.2632 	 -98.2385
|  9> C 	 -51.4681 	 11.1844 	 -98.7805
| 10> C 	 -51.4612 	 11.5589 	 -100.144
| 11> C 	 -52.706 	 12.0156 	 -100.58
| 12> H 	 -50.6534 	 11.4167 	 -100.827
| 13> C 	 -50.2536 	 10.598 	 -98.1433
| 14> H 	 -49.6133 	 10.0714 	 -98.8845
| 15> H 	 -50.565 	 9.9211 	 -97.3915
| 16> C 	 -49.2854 	 11.6419 	 -97.5049
| 17> H 	 -49.765 	 12.3232 	 -96.7772
| 18> H 	 -48.5167 	 11.1645 	 -96.8353
| 19> C 	 -48.4522 	 12.4004 	 -98.6059
| 20> H 	 -47.9159 	 11.6661 	 -99.1348
| 21> H 	 -49.1598 	 13.1083 	 -99.1712
| 22> H 	 -47.6963 	 12.9983 	 -98.1228
| 23> S 	 -53.2563 	 14.1715 	 -102.198
| 24> C 	 -53.5486 	 13.8881 	 -103.89
| 25> C 	 -53.35 	 12.5445 	 -104.233
| 26> C 	 -53.1246 	 11.7298 	 -103.089
| 27> C 	 -53.0265 	 12.4477 	 -101.938
| 28> H 	 -53.4775 	 12.287 	 -105.202
| 29> C 	 -53.1508 	 10.1981 	 -103.206
| 30> H 	 -52.2159 	 9.85368 	 -102.901
| 31> H 	 -53.2249 	 10.037 	 -104.33
| 32> C 	 -54.2127 	 9.41977 	 -102.587
| 33> H 	 -55.1995 	 9.94517 	 -102.715
| 34> H 	 -54.1812 	 9.51324 	 -101.483
| 35> C 	 -54.1496 	 7.97966 	 -103.115
| 36> H 	 -53.1871 	 7.5476 	 -102.842
| 37> H 	 -54.1585 	 8.07454 	 -104.218
| 38> H 	 -54.9632 	 7.36693 	 -102.82
| 39> H 	 -53.0062 	 11.0673 	 -97.1714
| 40> H 	 -53.7634 	 14.6663 	 -104.616
| 41> *
| 42>
| 43>                          ****END OF INPUT****

CARTESIAN COORDINATES (ANGSTROEM)
---------------------------------
  S    -53.868000   12.024700  -99.325300
  C    -52.754800   11.263200  -98.238500
  C    -51.468100   11.184400  -98.780500
  C    -51.461200   11.558900  -100.144000
  C    -52.706000   12.015600  -100.580000
  H    -50.653400   11.416700  -100.827000
  C    -50.253600   10.598000  -98.143300
  H    -49.613300   10.071400  -98.884500
  H    -50.565000    9.921100  -97.391500
  C    -49.285400   11.641900  -97.504900
  H    -49.765000   12.323200  -96.777200
  H    -48.516700   11.164500  -96.835300
  C    -48.452200   12.400400  -98.605900
  H    -47.915900   11.666100  -99.134800
  H    -49.159800   13.108300  -99.171200
  H    -47.696300   12.998300  -98.122800
  S    -53.256300   14.171500  -102.198000
  C    -53.548600   13.888100  -103.890000
  C    -53.350000   12.544500  -104.233000
  C    -53.124600   11.729800  -103.089000
  C    -53.026500   12.447700  -101.938000
  H    -53.477500   12.287000  -105.202000
  C    -53.150800   10.198100  -103.206000
  H    -52.215900    9.853680  -102.901000
  H    -53.224900   10.037000  -104.330000
  C    -54.212700    9.419770  -102.587000
  H    -55.199500    9.945170  -102.715000
  H    -54.181200    9.513240  -101.483000
  C    -54.149600    7.979660  -103.115000
  H    -53.187100    7.547600  -102.842000
  H    -54.158500    8.074540  -104.218000
  H    -54.963200    7.366930  -102.820000
  H    -53.006200   11.067300  -97.171400
  H    -53.763400   14.666300  -104.616000

 Total Charge           Charge          ....    0
 Multiplicity           Mult            ....    1
 Number of Electrons    NEL             ....  134
 Basis Dimension        Dim             ....  322

ORBITAL ENERGIES
----------------

  NO   OCC          E(Eh)            E(eV)
   0   2.0000     -88.969825     -2420.9920
   1   2.0000     -88.963932     -2420.8317
   2   2.0000     -10.324663      -280.9484
   3   2.0000     -10.319512      -280.8082
   4   2.0000     -10.316447      -280.7248
   5   2.0000     -10.316434      -280.7244
   6   2.0000     -10.300219      -280.2832
   7   2.0000     -10.298560      -280.2381
   8   2.0000     -10.292611      -280.0762
   9   2.0000     -10.291761      -280.0531
  10   2.0000     -10.290803      -280.0270
  11   2.0000     -10.286132      -279.8999
  12   2.0000     -10.284084      -279.8442
  13   2.0000     -10.280151      -279.7371
  14   2.0000     -10.279607      -279.7223
  15   2.0000     -10.276679      -279.6427
  16   2.0000      -8.085132      -220.0076
  17   2.0000      -8.078871      -219.8373
  18   2.0000      -6.043418      -164.4498
  19   2.0000      -6.039397      -164.3404
  20   2.0000      -6.037267      -164.2824
  21   2.0000      -6.036279      -164.2555
  22   2.0000      -6.033365      -164.1762
  23   2.0000      -6.029734      -164.0774
  24   2.0000      -1.010051       -27.4849
  25   2.0000      -0.986571       -26.8460
  26   2.0000      -0.916211       -24.9314
  27   2.0000      -0.909784       -24.7565
  28   2.0000      -0.865064       -23.5396
  29   2.0000      -0.851613       -23.1736
  30   2.0000      -0.847879       -23.0720
  31   2.0000      -0.811470       -22.0812
  32   2.0000      -0.782717       -21.2988
  33   2.0000      -0.770793       -20.9743
  34   2.0000      -0.704445       -19.1689
  35   2.0000      -0.697563       -18.9817
  36   2.0000      -0.688967       -18.7477
  37   2.0000      -0.667583       -18.1659
  38   2.0000      -0.644072       -17.5261
  39   2.0000      -0.617857       -16.8127
  40   2.0000      -0.597884       -16.2692
  41   2.0000      -0.574477       -15.6323
  42   2.0000      -0.566222       -15.4077
  43   2.0000      -0.548531       -14.9263
  44   2.0000      -0.540828       -14.7167
  45   2.0000      -0.525409       -14.2971
  46   2.0000      -0.515196       -14.0192
  47   2.0000      -0.507561       -13.8114
  48   2.0000      -0.506313       -13.7775
  49   2.0000      -0.495919       -13.4947
  50   2.0000      -0.490976       -13.3601
  51   2.0000      -0.474003       -12.8983
  52   2.0000      -0.469547       -12.7770
  53   2.0000      -0.464177       -12.6309
  54   2.0000      -0.458668       -12.4810
  55   2.0000      -0.449064       -12.2196
  56   2.0000      -0.446984       -12.1631
  57   2.0000      -0.444870       -12.1055
  58   2.0000      -0.436183       -11.8691
  59   2.0000      -0.426963       -11.6183
  60   2.0000      -0.416765       -11.3408
  61   2.0000      -0.412794       -11.2327
  62   2.0000      -0.402411       -10.9502
  63   2.0000      -0.337478        -9.1832
  64   2.0000      -0.330753        -9.0003
  65   2.0000      -0.327065        -8.8999
  66   2.0000      -0.301899        -8.2151
  67   0.0000       0.040851         1.1116
  68   0.0000       0.059267         1.6127
  69   0.0000       0.118684         3.2295
  70   0.0000       0.120266         3.2726
  71   0.0000       0.129712         3.5296

MULLIKEN ATOMIC CHARGES
-----------------------
   0 S :    0.137680
   1 C :   -0.144560
   2 C :   -0.070290
   3 C :    0.056337
   4 C :   -0.193451
   5 H :    0.005945
   6 C :    0.088572
   7 H :    0.028268
   8 H :    0.015113
   9 C :   -0.118149
  10 H :    0.031255
  11 H :    0.029409
  12 C :   -0.055402
  13 H :    0.021952
  14 H :    0.064785
  15 H :    0.028427
  16 S :    0.114516
  17 C :   -0.100470
  18 C :   -0.006490
  19 C :   -0.009338
  20 C :   -0.185012
  21 H :   -0.024957
  22 C :    0.098941
  23 H :    0.004157
  24 H :    0.011101
  25 C :   -0.077435
  26 H :    0.025388
  27 H :    0.031157
  28 C :   -0.015037
  29 H :    0.029705
  30 H :    0.024368
  31 H :    0.034125
  32 H :    0.061179
  33 H :    0.058212
Sum of atomic charges:    0.0000000

LOEWDIN ATOMIC CHARGES
----------------------
   0 S :    0.442199
   1 C :   -0.213464
   2 C :   -0.063108
   3 C :   -0.054562
   4 C :   -0.214100
   5 H :    0.028793
   6 C :   -0.029264
   7 H :    0.034612
   8 H :    0.025905
   9 C :   -0.044574
  10 H :    0.021793
  11 H :    0.024770
  12 C :   -0.067867
  13 H :    0.016446
  14 H :    0.039212
  15 H :    0.023712
  16 S :    0.406788
  17 C :   -0.183649
  18 C :   -0.059743
  19 C :   -0.052102
  20 C :   -0.205069
  21 H :    0.012302
  22 C :   -0.027542
  23 H :    0.020222
  24 H :    0.033131
  25 C :   -0.053112
  26 H :    0.028108
  27 H :    0.024910
  28 C :   -0.054515
  29 H :    0.027203
  30 H :    0.027489
  31 H :    0.022008
  32 H :    0.034043
  33 H :    0.029024

  Mayer bond orders larger than 0.100000
B(  0-S ,  1-C ) :   1.1582 B(  0-S ,  4-C ) :   1.1834 B(  1-C ,  2-C ) :   1.5787
B(  1-C ,  4-C ) :   0.1051 B(  1-C , 32-H ) :   0.9627 B(  2-C ,  3-C ) :   1.2620
B(  2-C ,  6-C ) :   1.0294 B(  3-C ,  4-C ) :   1.5525 B(  3-C ,  5-H ) :   0.9986
B(  4-C , 20-C ) :   1.0042 B(  6-C ,  7-H ) :   0.9477 B(  6-C ,  8-H ) :   0.9360
B(  6-C ,  9-C ) :   1.0593 B(  9-C , 10-H ) :   0.9591 B(  9-C , 11-H ) :   0.9590
B(  9-C , 12-C ) :   1.0726 B( 12-C , 13-H ) :   0.9752 B( 12-C , 14-H ) :   0.9729
B( 12-C , 15-H ) :   0.9743 B( 16-S , 17-C ) :   1.1640 B( 16-S , 20-C ) :   1.1441
B( 17-C , 18-C ) :   1.6059 B( 17-C , 33-H ) :   0.9652 B( 18-C , 19-C ) :   1.2378
B( 18-C , 21-H ) :   1.0068 B( 19-C , 20-C ) :   1.6249 B( 19-C , 22-C ) :   1.0225
B( 22-C , 23-H ) :   0.9138 B( 22-C , 24-H ) :   0.9369 B( 22-C , 25-C ) :   1.0803
B( 25-C , 26-H ) :   0.9507 B( 25-C , 27-H ) :   0.9427 B( 25-C , 28-C ) :   1.0712
B( 28-C , 29-H ) :   0.9736 B( 28-C , 30-H ) :   0.9753 B( 28-C , 31-H ) :   0.9734

Dispersion correction           -0.014762406
FINAL SINGLE POINT ENERGY     -1339.878009676212

DIPOLE MOMENT
-------------
                                X             Y             Z
Electronic contribution:    -13.00181      17.03827      -1.24290
Nuclear contribution   :     13.32190     -17.42110       1.22955
                        -----------------------------------------
Total Dipole Moment    :      0.32009      -0.38283      -0.01335
                        -----------------------------------------
Magnitude (a.u.)       :      0.49919
Magnitude (Debye)      :      1.26885

Rotational constants in cm-1:     0.017786     0.008925     0.007539
Rotational constants in MHz :   533.212958   267.569635   226.005229

                             ****ORCA TERMINATED NORMALLY****
TOTAL RUN TIME: 0 days 0 hours 0 minutes 20 seconds 790 msec
