                         Program Version 4.2.1 -  RELEASE  -
|  1> ! wB97X-D3 SP def2-SVP
|  2> %pal
|  3> nprocs 24
|  4> end
|  5>
|  6> * xyz 0 1
|  7> S 	 -32.3022 	 -36.8432 	 -91.6135
|  8> C 	 -32.7884 	 -35.2023 	 -91.7315
|  9> C 	 -31.7537 	 -34.3067 	 -91.3684
| 10> C 	 -30.5582 	 -35.0717 	 -91.2293
| 11> C 	 -30.6525 	 -36.4326 	 -91.3862
| 12> H 	 -29.5977 	 -34.6572 	 -90.9689
| 13> C 	 -31.9452 	 -32.8356 	 -91.0721
| 14> H 	 -31.4627 	 -32.7467 	 -90.1016
| 15> H 	 -33.0142 	 -32.6588 	 -90.9673
| 16> C 	 -31.3987 	 -31.8382 	 -92.1064
| 17> H 	 -31.4886 	 -30.8122 	 -91.7463
| 18> H 	 -30.3601 	 -31.935 	 -92.2564
| 19> C 	 -32.0514 	 -32.087 	 -93.5193
| 20> H 	 -31.9176 	 -33.1204 	 -93.8477
| 21> H 	 -33.1426 	 -32.046 	 -93.449
| 22> H 	 -31.6141 	 -31.4235 	 -94.2657
| 23> S 	 -29.3585 	 -38.4156 	 -92.6717
| 24> C 	 -28.0313 	 -39.2741 	 -91.9319
| 25> C 	 -27.8037 	 -38.7551 	 -90.6834
| 26> C 	 -28.6697 	 -37.7682 	 -90.2172
| 27> C 	 -29.6048 	 -37.4634 	 -91.2127
| 28> H 	 -27.0256 	 -39.1955 	 -90.0838
| 29> C 	 -28.5317 	 -37.0627 	 -88.8831
| 30> H 	 -28.0639 	 -36.1075 	 -89.0173
| 31> H 	 -27.8167 	 -37.6108 	 -88.2112
| 32> C 	 -29.8727 	 -36.9322 	 -88.0946
| 33> H 	 -30.1701 	 -38.0164 	 -88.01
| 34> H 	 -30.6766 	 -36.4794 	 -88.6752
| 35> C 	 -29.7388 	 -36.4036 	 -86.6988
| 36> H 	 -29.2236 	 -37.1435 	 -86.1177
| 37> H 	 -30.7214 	 -36.2232 	 -86.2328
| 38> H 	 -29.1855 	 -35.4811 	 -86.6818
| 39> H 	 -33.8665 	 -34.908 	 -91.709
| 40> H 	 -27.5974 	 -40.0853 	 -92.4075
| 41> *
| 42>
| 43>                          ****END OF INPUT****

CARTESIAN COORDINATES (ANGSTROEM)
---------------------------------
  S    -32.302200  -36.843200  -91.613500
  C    -32.788400  -35.202300  -91.731500
  C    -31.753700  -34.306700  -91.368400
  C    -30.558200  -35.071700  -91.229300
  C    -30.652500  -36.432600  -91.386200
  H    -29.597700  -34.657200  -90.968900
  C    -31.945200  -32.835600  -91.072100
  H    -31.462700  -32.746700  -90.101600
  H    -33.014200  -32.658800  -90.967300
  C    -31.398700  -31.838200  -92.106400
  H    -31.488600  -30.812200  -91.746300
  H    -30.360100  -31.935000  -92.256400
  C    -32.051400  -32.087000  -93.519300
  H    -31.917600  -33.120400  -93.847700
  H    -33.142600  -32.046000  -93.449000
  H    -31.614100  -31.423500  -94.265700
  S    -29.358500  -38.415600  -92.671700
  C    -28.031300  -39.274100  -91.931900
  C    -27.803700  -38.755100  -90.683400
  C    -28.669700  -37.768200  -90.217200
  C    -29.604800  -37.463400  -91.212700
  H    -27.025600  -39.195500  -90.083800
  C    -28.531700  -37.062700  -88.883100
  H    -28.063900  -36.107500  -89.017300
  H    -27.816700  -37.610800  -88.211200
  C    -29.872700  -36.932200  -88.094600
  H    -30.170100  -38.016400  -88.010000
  H    -30.676600  -36.479400  -88.675200
  C    -29.738800  -36.403600  -86.698800
  H    -29.223600  -37.143500  -86.117700
  H    -30.721400  -36.223200  -86.232800
  H    -29.185500  -35.481100  -86.681800
  H    -33.866500  -34.908000  -91.709000
  H    -27.597400  -40.085300  -92.407500

 Total Charge           Charge          ....    0
 Multiplicity           Mult            ....    1
 Number of Electrons    NEL             ....  134
 Basis Dimension        Dim             ....  322

ORBITAL ENERGIES
----------------

  NO   OCC          E(Eh)            E(eV)
   0   2.0000     -88.965671     -2420.8790
   1   2.0000     -88.963172     -2420.8110
   2   2.0000     -10.329168      -281.0709
   3   2.0000     -10.325349      -280.9670
   4   2.0000     -10.315311      -280.6939
   5   2.0000     -10.311633      -280.5938
   6   2.0000     -10.304674      -280.4044
   7   2.0000     -10.304373      -280.3962
   8   2.0000     -10.296905      -280.1930
   9   2.0000     -10.295608      -280.1577
  10   2.0000     -10.291133      -280.0360
  11   2.0000     -10.289860      -280.0013
  12   2.0000     -10.286353      -279.9059
  13   2.0000     -10.283289      -279.8225
  14   2.0000     -10.276916      -279.6491
  15   2.0000     -10.273415      -279.5538
  16   2.0000      -8.081425      -219.9068
  17   2.0000      -8.078131      -219.8171
  18   2.0000      -6.039712      -164.3489
  19   2.0000      -6.036469      -164.2607
  20   2.0000      -6.035733      -164.2407
  21   2.0000      -6.032465      -164.1517
  22   2.0000      -6.032404      -164.1500
  23   2.0000      -6.029192      -164.0627
  24   2.0000      -1.010696       -27.5024
  25   2.0000      -0.989085       -26.9144
  26   2.0000      -0.911439       -24.8015
  27   2.0000      -0.908301       -24.7161
  28   2.0000      -0.865576       -23.5535
  29   2.0000      -0.855444       -23.2778
  30   2.0000      -0.845238       -23.0001
  31   2.0000      -0.812769       -22.1166
  32   2.0000      -0.783749       -21.3269
  33   2.0000      -0.773443       -21.0464
  34   2.0000      -0.711266       -19.3545
  35   2.0000      -0.699197       -19.0261
  36   2.0000      -0.685884       -18.6639
  37   2.0000      -0.664669       -18.0866
  38   2.0000      -0.641840       -17.4653
  39   2.0000      -0.621875       -16.9221
  40   2.0000      -0.601910       -16.3788
  41   2.0000      -0.567049       -15.4302
  42   2.0000      -0.561598       -15.2819
  43   2.0000      -0.555536       -15.1169
  44   2.0000      -0.538239       -14.6462
  45   2.0000      -0.526236       -14.3196
  46   2.0000      -0.521580       -14.1929
  47   2.0000      -0.514506       -14.0004
  48   2.0000      -0.500465       -13.6183
  49   2.0000      -0.495223       -13.4757
  50   2.0000      -0.489931       -13.3317
  51   2.0000      -0.479175       -13.0390
  52   2.0000      -0.469168       -12.7667
  53   2.0000      -0.466124       -12.6839
  54   2.0000      -0.461678       -12.5629
  55   2.0000      -0.449180       -12.2228
  56   2.0000      -0.443927       -12.0799
  57   2.0000      -0.439265       -11.9530
  58   2.0000      -0.429178       -11.6785
  59   2.0000      -0.424064       -11.5394
  60   2.0000      -0.421109       -11.4589
  61   2.0000      -0.419713       -11.4210
  62   2.0000      -0.411877       -11.2078
  63   2.0000      -0.342032        -9.3072
  64   2.0000      -0.330856        -9.0030
  65   2.0000      -0.328693        -8.9442
  66   2.0000      -0.298065        -8.1108
  67   0.0000       0.033816         0.9202
  68   0.0000       0.064582         1.7574
  69   0.0000       0.112471         3.0605
  70   0.0000       0.119259         3.2452
  71   0.0000       0.140352         3.8192

MULLIKEN ATOMIC CHARGES
-----------------------
   0 S :    0.128497
   1 C :   -0.133565
   2 C :   -0.131009
   3 C :    0.034465
   4 C :   -0.163743
   5 H :   -0.003179
   6 C :    0.083304
   7 H :    0.034974
   8 H :    0.020018
   9 C :   -0.041422
  10 H :    0.031239
  11 H :    0.017374
  12 C :   -0.071816
  13 H :    0.043672
  14 H :    0.022808
  15 H :    0.042981
  16 S :    0.102106
  17 C :   -0.065900
  18 C :   -0.044045
  19 C :    0.019806
  20 C :   -0.186493
  21 H :    0.009954
  22 C :    0.068844
  23 H :    0.031124
  24 H :    0.016615
  25 C :   -0.127700
  26 H :    0.031437
  27 H :    0.050845
  28 C :   -0.005983
  29 H :    0.023349
  30 H :    0.038165
  31 H :    0.022613
  32 H :    0.065630
  33 H :    0.035033
Sum of atomic charges:   -0.0000000

LOEWDIN ATOMIC CHARGES
----------------------
   0 S :    0.440241
   1 C :   -0.221949
   2 C :   -0.062256
   3 C :   -0.065487
   4 C :   -0.220158
   5 H :    0.025984
   6 C :   -0.027878
   7 H :    0.035859
   8 H :    0.030291
   9 C :   -0.036197
  10 H :    0.025140
  11 H :    0.016870
  12 C :   -0.066347
  13 H :    0.029070
  14 H :    0.021838
  15 H :    0.026963
  16 S :    0.413068
  17 C :   -0.174137
  18 C :   -0.070475
  19 C :   -0.056970
  20 C :   -0.191721
  21 H :    0.028914
  22 C :   -0.028763
  23 H :    0.025082
  24 H :    0.033163
  25 C :   -0.047070
  26 H :    0.030620
  27 H :    0.023370
  28 C :   -0.062587
  29 H :    0.023051
  30 H :    0.032611
  31 H :    0.020568
  32 H :    0.033958
  33 H :    0.015336

  Mayer bond orders larger than 0.100000
B(  0-S ,  1-C ) :   1.1738 B(  0-S ,  4-C ) :   1.1752 B(  1-C ,  2-C ) :   1.5579
B(  1-C ,  4-C ) :   0.1007 B(  1-C , 32-H ) :   0.9582 B(  2-C ,  3-C ) :   1.2700
B(  2-C ,  6-C ) :   1.0167 B(  3-C ,  4-C ) :   1.5619 B(  3-C ,  5-H ) :   1.0047
B(  4-C , 20-C ) :   0.9923 B(  6-C ,  7-H ) :   0.9368 B(  6-C ,  8-H ) :   0.9423
B(  6-C ,  9-C ) :   1.0723 B(  9-C , 10-H ) :   0.9582 B(  9-C , 11-H ) :   0.9570
B(  9-C , 12-C ) :   1.0629 B( 12-C , 13-H ) :   0.9732 B( 12-C , 14-H ) :   0.9779
B( 12-C , 15-H ) :   0.9759 B( 16-S , 17-C ) :   1.1606 B( 16-S , 20-C ) :   1.1784
B( 17-C , 18-C ) :   1.5695 B( 17-C , 20-C ) :   0.1133 B( 17-C , 33-H ) :   0.9839
B( 18-C , 19-C ) :   1.2712 B( 18-C , 21-H ) :   0.9908 B( 19-C , 20-C ) :   1.5564
B( 19-C , 22-C ) :   1.0388 B( 22-C , 23-H ) :   0.9282 B( 22-C , 24-H ) :   0.9377
B( 22-C , 25-C ) :   1.0463 B( 25-C , 26-H ) :   0.9574 B( 25-C , 27-H ) :   0.9579
B( 25-C , 28-C ) :   1.0918 B( 28-C , 29-H ) :   0.9721 B( 28-C , 30-H ) :   0.9712
B( 28-C , 31-H ) :   0.9723

Dispersion correction           -0.014838500
FINAL SINGLE POINT ENERGY     -1339.890546991184

DIPOLE MOMENT
-------------
                                X             Y             Z
Electronic contribution:     -0.10599     -19.78795     -12.90108
Nuclear contribution   :      0.32623      20.14554      13.40386
                        -----------------------------------------
Total Dipole Moment    :      0.22024       0.35759       0.50278
                        -----------------------------------------
Magnitude (a.u.)       :      0.65511
Magnitude (Debye)      :      1.66516

Rotational constants in cm-1:     0.018541     0.008872     0.007221
Rotational constants in MHz :   555.856149   265.977479   216.467540

                             ****ORCA TERMINATED NORMALLY****
TOTAL RUN TIME: 0 days 0 hours 0 minutes 21 seconds 997 msec
