                         Program Version 4.2.1 -  RELEASE  -
|  1> ! wB97X-D3 SP def2-SVP
|  2> %pal
|  3> nprocs 24
|  4> end
|  5>
|  6> * xyz 0 1
|  7> S 	 -81.4837 	 -8.30142 	 -58.1208
|  8> C 	 -82.4069 	 -8.79424 	 -56.7168
|  9> C 	 -83.0466 	 -7.77555 	 -56.0922
| 10> C 	 -82.712 	 -6.5472 	 -56.7585
| 11> C 	 -81.9399 	 -6.6477 	 -57.9016
| 12> H 	 -83.0674 	 -5.58077 	 -56.4394
| 13> C 	 -83.8052 	 -7.85943 	 -54.7591
| 14> H 	 -84.8363 	 -7.69706 	 -54.9377
| 15> H 	 -83.5518 	 -7.056 	 -54.1527
| 16> C 	 -83.7405 	 -9.14 	 -53.9457
| 17> H 	 -84.014 	 -9.98109 	 -54.64
| 18> H 	 -82.735 	 -9.38762 	 -53.6954
| 19> C 	 -84.6041 	 -9.05152 	 -52.6575
| 20> H 	 -84.2891 	 -8.22679 	 -51.9968
| 21> H 	 -85.6537 	 -8.719 	 -52.9933
| 22> H 	 -84.7808 	 -10.1363 	 -52.2381
| 23> S 	 -79.7839 	 -5.2383 	 -58.6202
| 24> C 	 -79.8574 	 -4.33062 	 -60.175
| 25> C 	 -80.9901 	 -4.62807 	 -60.8522
| 26> C 	 -81.9861 	 -5.22168 	 -60.0229
| 27> C 	 -81.4506 	 -5.62849 	 -58.8362
| 28> H 	 -81.109 	 -4.30687 	 -61.9353
| 29> C 	 -83.384 	 -5.60854 	 -60.6682
| 30> H 	 -84.0147 	 -6.19771 	 -59.985
| 31> H 	 -83.1768 	 -6.17613 	 -61.5538
| 32> C 	 -84.4091 	 -4.4704 	 -61.0621
| 33> H 	 -83.8809 	 -3.89294 	 -61.8237
| 34> H 	 -84.6037 	 -3.76933 	 -60.2543
| 35> C 	 -85.7348 	 -5.0139 	 -61.6195
| 36> H 	 -86.0514 	 -5.92127 	 -61.2205
| 37> H 	 -85.5074 	 -5.1203 	 -62.6677
| 38> H 	 -86.6167 	 -4.26387 	 -61.6596
| 39> H 	 -82.3393 	 -9.72586 	 -56.2961
| 40> H 	 -78.8662 	 -3.98326 	 -60.6574
| 41> *
| 42>
| 43>                          ****END OF INPUT****

CARTESIAN COORDINATES (ANGSTROEM)
---------------------------------
  S    -81.483700   -8.301420  -58.120800
  C    -82.406900   -8.794240  -56.716800
  C    -83.046600   -7.775550  -56.092200
  C    -82.712000   -6.547200  -56.758500
  C    -81.939900   -6.647700  -57.901600
  H    -83.067400   -5.580770  -56.439400
  C    -83.805200   -7.859430  -54.759100
  H    -84.836300   -7.697060  -54.937700
  H    -83.551800   -7.056000  -54.152700
  C    -83.740500   -9.140000  -53.945700
  H    -84.014000   -9.981090  -54.640000
  H    -82.735000   -9.387620  -53.695400
  C    -84.604100   -9.051520  -52.657500
  H    -84.289100   -8.226790  -51.996800
  H    -85.653700   -8.719000  -52.993300
  H    -84.780800  -10.136300  -52.238100
  S    -79.783900   -5.238300  -58.620200
  C    -79.857400   -4.330620  -60.175000
  C    -80.990100   -4.628070  -60.852200
  C    -81.986100   -5.221680  -60.022900
  C    -81.450600   -5.628490  -58.836200
  H    -81.109000   -4.306870  -61.935300
  C    -83.384000   -5.608540  -60.668200
  H    -84.014700   -6.197710  -59.985000
  H    -83.176800   -6.176130  -61.553800
  C    -84.409100   -4.470400  -61.062100
  H    -83.880900   -3.892940  -61.823700
  H    -84.603700   -3.769330  -60.254300
  C    -85.734800   -5.013900  -61.619500
  H    -86.051400   -5.921270  -61.220500
  H    -85.507400   -5.120300  -62.667700
  H    -86.616700   -4.263870  -61.659600
  H    -82.339300   -9.725860  -56.296100
  H    -78.866200   -3.983260  -60.657400

 Total Charge           Charge          ....    0
 Multiplicity           Mult            ....    1
 Number of Electrons    NEL             ....  134
 Basis Dimension        Dim             ....  322

ORBITAL ENERGIES
----------------

  NO   OCC          E(Eh)            E(eV)
   0   2.0000     -88.964538     -2420.8481
   1   2.0000     -88.961887     -2420.7760
   2   2.0000     -10.325019      -280.9580
   3   2.0000     -10.324776      -280.9514
   4   2.0000     -10.323413      -280.9144
   5   2.0000     -10.308208      -280.5006
   6   2.0000     -10.303033      -280.3598
   7   2.0000     -10.300448      -280.2894
   8   2.0000     -10.299967      -280.2764
   9   2.0000     -10.299470      -280.2628
  10   2.0000     -10.298677      -280.2412
  11   2.0000     -10.291363      -280.0422
  12   2.0000     -10.289902      -280.0025
  13   2.0000     -10.287738      -279.9436
  14   2.0000     -10.285843      -279.8920
  15   2.0000     -10.279359      -279.7156
  16   2.0000      -8.079463      -219.8534
  17   2.0000      -8.077162      -219.7908
  18   2.0000      -6.037949      -164.3009
  19   2.0000      -6.035673      -164.2390
  20   2.0000      -6.034181      -164.1984
  21   2.0000      -6.031595      -164.1280
  22   2.0000      -6.029959      -164.0835
  23   2.0000      -6.027895      -164.0274
  24   2.0000      -1.010408       -27.4946
  25   2.0000      -0.986596       -26.8466
  26   2.0000      -0.914957       -24.8972
  27   2.0000      -0.899344       -24.4724
  28   2.0000      -0.870897       -23.6983
  29   2.0000      -0.848507       -23.0891
  30   2.0000      -0.843642       -22.9567
  31   2.0000      -0.813245       -22.1295
  32   2.0000      -0.781760       -21.2728
  33   2.0000      -0.772597       -21.0234
  34   2.0000      -0.711796       -19.3689
  35   2.0000      -0.698143       -18.9974
  36   2.0000      -0.688888       -18.7456
  37   2.0000      -0.657158       -17.8822
  38   2.0000      -0.646032       -17.5794
  39   2.0000      -0.613119       -16.6838
  40   2.0000      -0.594742       -16.1837
  41   2.0000      -0.572536       -15.5795
  42   2.0000      -0.567348       -15.4383
  43   2.0000      -0.563550       -15.3350
  44   2.0000      -0.522063       -14.2060
  45   2.0000      -0.517437       -14.0802
  46   2.0000      -0.514836       -14.0094
  47   2.0000      -0.513185       -13.9645
  48   2.0000      -0.500977       -13.6323
  49   2.0000      -0.495231       -13.4759
  50   2.0000      -0.490577       -13.3493
  51   2.0000      -0.480078       -13.0636
  52   2.0000      -0.472300       -12.8519
  53   2.0000      -0.466602       -12.6969
  54   2.0000      -0.457151       -12.4397
  55   2.0000      -0.447938       -12.1890
  56   2.0000      -0.446750       -12.1567
  57   2.0000      -0.430884       -11.7250
  58   2.0000      -0.429603       -11.6901
  59   2.0000      -0.425252       -11.5717
  60   2.0000      -0.421432       -11.4677
  61   2.0000      -0.420054       -11.4303
  62   2.0000      -0.411851       -11.2070
  63   2.0000      -0.339661        -9.2426
  64   2.0000      -0.328354        -8.9350
  65   2.0000      -0.322752        -8.7825
  66   2.0000      -0.313336        -8.5263
  67   0.0000       0.043074         1.1721
  68   0.0000       0.060088         1.6351
  69   0.0000       0.103443         2.8148
  70   0.0000       0.127040         3.4569
  71   0.0000       0.130909         3.5622

MULLIKEN ATOMIC CHARGES
-----------------------
   0 S :    0.117292
   1 C :   -0.107338
   2 C :   -0.066525
   3 C :    0.035954
   4 C :   -0.173202
   5 H :   -0.002211
   6 C :    0.113624
   7 H :    0.015908
   8 H :    0.005517
   9 C :   -0.098165
  10 H :    0.035417
  11 H :    0.025425
  12 C :   -0.087742
  13 H :    0.050982
  14 H :    0.029155
  15 H :    0.064654
  16 S :    0.101886
  17 C :   -0.123123
  18 C :   -0.056664
  19 C :    0.011765
  20 C :   -0.173863
  21 H :    0.054569
  22 C :    0.041793
  23 H :    0.032764
  24 H :    0.033108
  25 C :   -0.083680
  26 H :    0.019070
  27 H :    0.033688
  28 C :   -0.048038
  29 H :    0.027338
  30 H :    0.024537
  31 H :    0.047070
  32 H :    0.012047
  33 H :    0.086988
Sum of atomic charges:   -0.0000000

LOEWDIN ATOMIC CHARGES
----------------------
   0 S :    0.410697
   1 C :   -0.183588
   2 C :   -0.058451
   3 C :   -0.059491
   4 C :   -0.206868
   5 H :    0.025797
   6 C :   -0.025256
   7 H :    0.029295
   8 H :    0.022338
   9 C :   -0.047421
  10 H :    0.027777
  11 H :    0.016243
  12 C :   -0.077324
  13 H :    0.030641
  14 H :    0.028644
  15 H :    0.045446
  16 S :    0.396392
  17 C :   -0.185587
  18 C :   -0.073956
  19 C :   -0.054374
  20 C :   -0.206371
  21 H :    0.046101
  22 C :   -0.022675
  23 H :    0.029772
  24 H :    0.028636
  25 C :   -0.040684
  26 H :    0.017478
  27 H :    0.021432
  28 C :   -0.067646
  29 H :    0.014383
  30 H :    0.026714
  31 H :    0.039936
  32 H :    0.007424
  33 H :    0.044546

  Mayer bond orders larger than 0.100000
B(  0-S ,  1-C ) :   1.1374 B(  0-S ,  4-C ) :   1.1499 B(  1-C ,  2-C ) :   1.6463
B(  1-C , 32-H ) :   0.9646 B(  2-C ,  3-C ) :   1.2368 B(  2-C ,  6-C ) :   1.0007
B(  3-C ,  4-C ) :   1.6115 B(  3-C ,  5-H ) :   0.9991 B(  4-C , 20-C ) :   0.9888
B(  6-C ,  7-H ) :   0.9232 B(  6-C ,  8-H ) :   0.9401 B(  6-C ,  9-C ) :   1.0767
B(  9-C , 10-H ) :   0.9479 B(  9-C , 11-H ) :   0.9554 B(  9-C , 12-C ) :   1.0736
B( 12-C , 13-H ) :   0.9729 B( 12-C , 14-H ) :   0.9739 B( 12-C , 15-H ) :   0.9708
B( 16-S , 17-C ) :   1.1232 B( 16-S , 20-C ) :   1.1637 B( 17-C , 18-C ) :   1.6646
B( 17-C , 33-H ) :   0.9534 B( 18-C , 19-C ) :   1.2095 B( 18-C , 21-H ) :   0.9712
B( 19-C , 20-C ) :   1.6396 B( 19-C , 22-C ) :   1.0254 B( 22-C , 23-H ) :   0.9435
B( 22-C , 24-H ) :   0.9487 B( 22-C , 25-C ) :   1.0479 B( 25-C , 26-H ) :   0.9644
B( 25-C , 27-H ) :   0.9610 B( 25-C , 28-C ) :   1.0658 B( 28-C , 29-H ) :   0.9788
B( 28-C , 30-H ) :   0.9772 B( 28-C , 31-H ) :   0.9754

Dispersion correction           -0.013110179
FINAL SINGLE POINT ENERGY     -1339.851117071738

DIPOLE MOMENT
-------------
                                X             Y             Z
Electronic contribution:     24.62619       1.78053      -5.95246
Nuclear contribution   :    -25.03193      -1.78472       5.89687
                        -----------------------------------------
Total Dipole Moment    :     -0.40574      -0.00419      -0.05559
                        -----------------------------------------
Magnitude (a.u.)       :      0.40955
Magnitude (Debye)      :      1.04099

Rotational constants in cm-1:     0.019479     0.007108     0.005798
Rotational constants in MHz :   583.965866   213.107090   173.823795

                             ****ORCA TERMINATED NORMALLY****
TOTAL RUN TIME: 0 days 0 hours 0 minutes 20 seconds 301 msec
