                         Program Version 4.2.1 -  RELEASE  -
|  1> ! wB97X-D3 SP def2-SVP
|  2> %pal
|  3> nprocs 24
|  4> end
|  5>
|  6> * xyz 0 1
|  7> S 	 -98.952 	 7.58155 	 2.04377
|  8> C 	 -98.9087 	 6.31737 	 0.821346
|  9> C 	 -97.7966 	 5.54394 	 1.0102
| 10> C 	 -97.0674 	 5.95338 	 2.16963
| 11> C 	 -97.4722 	 7.09248 	 2.78523
| 12> H 	 -96.3039 	 5.35612 	 2.66072
| 13> C 	 -97.3876 	 4.34912 	 0.197469
| 14> H 	 -98.1163 	 4.29962 	 -0.590996
| 15> H 	 -97.432 	 3.44942 	 0.875877
| 16> C 	 -95.9004 	 4.46747 	 -0.390371
| 17> H 	 -95.941 	 5.28196 	 -1.08999
| 18> H 	 -95.2084 	 4.87272 	 0.431255
| 19> C 	 -95.3078 	 3.1817 	 -0.984705
| 20> H 	 -94.3308 	 3.38446 	 -1.41149
| 21> H 	 -95.177 	 2.42981 	 -0.190671
| 22> H 	 -95.9188 	 2.8853 	 -1.88351
| 23> S 	 -98.021 	 8.10047 	 5.34126
| 24> C 	 -96.6955 	 8.08179 	 6.49898
| 25> C 	 -95.5186 	 8.1961 	 5.84493
| 26> C 	 -95.6506 	 7.88671 	 4.43644
| 27> C 	 -96.9311 	 7.66028 	 4.05058
| 28> H 	 -94.6403 	 8.49043 	 6.41485
| 29> C 	 -94.3646 	 7.74422 	 3.55353
| 30> H 	 -93.9138 	 8.68744 	 3.68679
| 31> H 	 -94.5587 	 7.66638 	 2.49644
| 32> C 	 -93.4338 	 6.61722 	 4.09654
| 33> H 	 -93.9804 	 5.67631 	 3.76477
| 34> H 	 -93.3304 	 6.52245 	 5.17725
| 35> C 	 -92.1325 	 6.75602 	 3.41831
| 36> H 	 -92.2143 	 6.82146 	 2.33474
| 37> H 	 -91.6806 	 5.87313 	 3.66158
| 38> H 	 -91.7514 	 7.63431 	 3.91238
| 39> H 	 -99.7365 	 6.14238 	 0.140961
| 40> H 	 -96.8786 	 8.2292 	 7.50821
| 41> *
| 42>
| 43>                          ****END OF INPUT****

CARTESIAN COORDINATES (ANGSTROEM)
---------------------------------
  S    -98.952000    7.581550    2.043770
  C    -98.908700    6.317370    0.821346
  C    -97.796600    5.543940    1.010200
  C    -97.067400    5.953380    2.169630
  C    -97.472200    7.092480    2.785230
  H    -96.303900    5.356120    2.660720
  C    -97.387600    4.349120    0.197469
  H    -98.116300    4.299620   -0.590996
  H    -97.432000    3.449420    0.875877
  C    -95.900400    4.467470   -0.390371
  H    -95.941000    5.281960   -1.089990
  H    -95.208400    4.872720    0.431255
  C    -95.307800    3.181700   -0.984705
  H    -94.330800    3.384460   -1.411490
  H    -95.177000    2.429810   -0.190671
  H    -95.918800    2.885300   -1.883510
  S    -98.021000    8.100470    5.341260
  C    -96.695500    8.081790    6.498980
  C    -95.518600    8.196100    5.844930
  C    -95.650600    7.886710    4.436440
  C    -96.931100    7.660280    4.050580
  H    -94.640300    8.490430    6.414850
  C    -94.364600    7.744220    3.553530
  H    -93.913800    8.687440    3.686790
  H    -94.558700    7.666380    2.496440
  C    -93.433800    6.617220    4.096540
  H    -93.980400    5.676310    3.764770
  H    -93.330400    6.522450    5.177250
  C    -92.132500    6.756020    3.418310
  H    -92.214300    6.821460    2.334740
  H    -91.680600    5.873130    3.661580
  H    -91.751400    7.634310    3.912380
  H    -99.736500    6.142380    0.140961
  H    -96.878600    8.229200    7.508210

 Total Charge           Charge          ....    0
 Multiplicity           Mult            ....    1
 Number of Electrons    NEL             ....  134
 Basis Dimension        Dim             ....  322

ORBITAL ENERGIES
----------------

  NO   OCC          E(Eh)            E(eV)
   0   2.0000     -88.959732     -2420.7174
   1   2.0000     -88.957064     -2420.6448
   2   2.0000     -10.327144      -281.0159
   3   2.0000     -10.325133      -280.9612
   4   2.0000     -10.314208      -280.6639
   5   2.0000     -10.312835      -280.6265
   6   2.0000     -10.304046      -280.3873
   7   2.0000     -10.298584      -280.2387
   8   2.0000     -10.297871      -280.2193
   9   2.0000     -10.295748      -280.1616
  10   2.0000     -10.295339      -280.1504
  11   2.0000     -10.289164      -279.9824
  12   2.0000     -10.287317      -279.9321
  13   2.0000     -10.287045      -279.9247
  14   2.0000     -10.286558      -279.9115
  15   2.0000     -10.267095      -279.3819
  16   2.0000      -8.075088      -219.7343
  17   2.0000      -8.072641      -219.6677
  18   2.0000      -6.033708      -164.1855
  19   2.0000      -6.031320      -164.1206
  20   2.0000      -6.029430      -164.0691
  21   2.0000      -6.027328      -164.0119
  22   2.0000      -6.025783      -163.9699
  23   2.0000      -6.022862      -163.8904
  24   2.0000      -1.009941       -27.4819
  25   2.0000      -0.989750       -26.9325
  26   2.0000      -0.916622       -24.9425
  27   2.0000      -0.905248       -24.6331
  28   2.0000      -0.870743       -23.6941
  29   2.0000      -0.853497       -23.2248
  30   2.0000      -0.843308       -22.9476
  31   2.0000      -0.821232       -22.3469
  32   2.0000      -0.780377       -21.2351
  33   2.0000      -0.773157       -21.0387
  34   2.0000      -0.704676       -19.1752
  35   2.0000      -0.695360       -18.9217
  36   2.0000      -0.692800       -18.8520
  37   2.0000      -0.661656       -18.0046
  38   2.0000      -0.642209       -17.4754
  39   2.0000      -0.621211       -16.9040
  40   2.0000      -0.601170       -16.3587
  41   2.0000      -0.574821       -15.6417
  42   2.0000      -0.567457       -15.4413
  43   2.0000      -0.559321       -15.2199
  44   2.0000      -0.540022       -14.6948
  45   2.0000      -0.527062       -14.3421
  46   2.0000      -0.517774       -14.0893
  47   2.0000      -0.513582       -13.9753
  48   2.0000      -0.508203       -13.8289
  49   2.0000      -0.500415       -13.6170
  50   2.0000      -0.495069       -13.4715
  51   2.0000      -0.482003       -13.1160
  52   2.0000      -0.470627       -12.8064
  53   2.0000      -0.464803       -12.6479
  54   2.0000      -0.461880       -12.5684
  55   2.0000      -0.455129       -12.3847
  56   2.0000      -0.446196       -12.1416
  57   2.0000      -0.437967       -11.9177
  58   2.0000      -0.429879       -11.6976
  59   2.0000      -0.420919       -11.4538
  60   2.0000      -0.417761       -11.3679
  61   2.0000      -0.414835       -11.2882
  62   2.0000      -0.406586       -11.0638
  63   2.0000      -0.353168        -9.6102
  64   2.0000      -0.325843        -8.8666
  65   2.0000      -0.321247        -8.7416
  66   2.0000      -0.295570        -8.0429
  67   0.0000       0.034694         0.9441
  68   0.0000       0.072691         1.9780
  69   0.0000       0.109519         2.9802
  70   0.0000       0.120195         3.2707
  71   0.0000       0.123202         3.3525

MULLIKEN ATOMIC CHARGES
-----------------------
   0 S :    0.083139
   1 C :   -0.134450
   2 C :   -0.080965
   3 C :   -0.007556
   4 C :   -0.117944
   5 H :    0.015530
   6 C :    0.087886
   7 H :    0.012092
   8 H :    0.044193
   9 C :   -0.126206
  10 H :    0.025855
  11 H :    0.035877
  12 C :   -0.035461
  13 H :    0.031839
  14 H :    0.043976
  15 H :    0.041945
  16 S :    0.082259
  17 C :   -0.072423
  18 C :   -0.025981
  19 C :   -0.046737
  20 C :   -0.133831
  21 H :    0.026884
  22 C :    0.082857
  23 H :    0.010053
  24 H :    0.031158
  25 C :   -0.139887
  26 H :    0.023446
  27 H :    0.038219
  28 C :    0.043224
  29 H :    0.030895
  30 H :    0.012306
  31 H :    0.029468
  32 H :    0.053486
  33 H :    0.034853
Sum of atomic charges:   -0.0000000

LOEWDIN ATOMIC CHARGES
----------------------
   0 S :    0.397921
   1 C :   -0.192228
   2 C :   -0.068465
   3 C :   -0.071925
   4 C :   -0.192164
   5 H :    0.029148
   6 C :   -0.028173
   7 H :    0.024450
   8 H :    0.037694
   9 C :   -0.045309
  10 H :    0.019716
  11 H :    0.027597
  12 C :   -0.070335
  13 H :    0.026914
  14 H :    0.029018
  15 H :    0.033292
  16 S :    0.380756
  17 C :   -0.155000
  18 C :   -0.069526
  19 C :   -0.051348
  20 C :   -0.196537
  21 H :    0.034896
  22 C :   -0.022077
  23 H :    0.021724
  24 H :    0.028912
  25 C :   -0.039813
  26 H :    0.022002
  27 H :    0.023795
  28 C :   -0.052547
  29 H :    0.028010
  30 H :    0.015733
  31 H :    0.028556
  32 H :    0.031096
  33 H :    0.014217

  Mayer bond orders larger than 0.100000
B(  0-S ,  1-C ) :   1.1305 B(  0-S ,  4-C ) :   1.1442 B(  1-C ,  2-C ) :   1.6135
B(  1-C , 32-H ) :   0.9709 B(  2-C ,  3-C ) :   1.2263 B(  2-C ,  6-C ) :   1.0333
B(  3-C ,  4-C ) :   1.6015 B(  3-C ,  5-H ) :   0.9894 B(  4-C , 20-C ) :   1.0208
B(  6-C ,  7-H ) :   0.9391 B(  6-C ,  8-H ) :   0.9394 B(  6-C ,  9-C ) :   1.0408
B(  9-C , 10-H ) :   0.9568 B(  9-C , 11-H ) :   0.9593 B(  9-C , 12-C ) :   1.0839
B( 12-C , 13-H ) :   0.9718 B( 12-C , 14-H ) :   0.9744 B( 12-C , 15-H ) :   0.9724
B( 16-S , 17-C ) :   1.1439 B( 16-S , 20-C ) :   1.1091 B( 17-C , 18-C ) :   1.6396
B( 17-C , 33-H ) :   0.9795 B( 18-C , 19-C ) :   1.1844 B( 18-C , 21-H ) :   0.9927
B( 19-C , 20-C ) :   1.6616 B( 19-C , 22-C ) :   1.0245 B( 22-C , 23-H ) :   0.9358
B( 22-C , 24-H ) :   0.9395 B( 22-C , 25-C ) :   1.0530 B( 25-C , 26-H ) :   0.9508
B( 25-C , 27-H ) :   0.9607 B( 25-C , 28-C ) :   1.0723 B( 28-C , 29-H ) :   0.9688
B( 28-C , 30-H ) :   0.9677 B( 28-C , 31-H ) :   0.9767

Dispersion correction           -0.014039140
FINAL SINGLE POINT ENERGY     -1339.860328691519

DIPOLE MOMENT
-------------
                                X             Y             Z
Electronic contribution:    -25.31460      16.11578      13.35246
Nuclear contribution   :     26.01556     -16.50048     -13.41314
                        -----------------------------------------
Total Dipole Moment    :      0.70096      -0.38469      -0.06067
                        -----------------------------------------
Magnitude (a.u.)       :      0.80188
Magnitude (Debye)      :      2.03823

Rotational constants in cm-1:     0.016172     0.009795     0.006470
Rotational constants in MHz :   484.825415   293.631736   193.963822

                             ****ORCA TERMINATED NORMALLY****
TOTAL RUN TIME: 0 days 0 hours 0 minutes 21 seconds 853 msec
