                         Program Version 4.2.1 -  RELEASE  -
|  1> ! wB97X-D3 SP def2-SVP
|  2> %pal
|  3> nprocs 24
|  4> end
|  5>
|  6> * xyz 0 1
|  7> S 	 -67.5676 	 -55.774 	 -83.4509
|  8> C 	 -67.8364 	 -56.6533 	 -84.9569
|  9> C 	 -68.8434 	 -57.6275 	 -84.8687
| 10> C 	 -69.5005 	 -57.4795 	 -83.5972
| 11> C 	 -68.9003 	 -56.5614 	 -82.7182
| 12> H 	 -70.3266 	 -57.9873 	 -83.2045
| 13> C 	 -69.3175 	 -58.4491 	 -86.0402
| 14> H 	 -69.432 	 -57.8438 	 -86.8702
| 15> H 	 -70.3489 	 -58.7086 	 -85.6685
| 16> C 	 -68.6237 	 -59.75 	 -86.3387
| 17> H 	 -68.8635 	 -60.1016 	 -87.3311
| 18> H 	 -67.5469 	 -59.6855 	 -86.2713
| 19> C 	 -68.9266 	 -60.8494 	 -85.3311
| 20> H 	 -68.6413 	 -60.5141 	 -84.3046
| 21> H 	 -69.9518 	 -61.1524 	 -85.5077
| 22> H 	 -68.3241 	 -61.7471 	 -85.468
| 23> S 	 -70.3226 	 -54.815 	 -81.1986
| 24> C 	 -70.1339 	 -54.9394 	 -79.5075
| 25> C 	 -69.3423 	 -56.0397 	 -79.1253
| 26> C 	 -68.9288 	 -56.8247 	 -80.231
| 27> C 	 -69.3045 	 -56.245 	 -81.3995
| 28> H 	 -69.1693 	 -56.1377 	 -78.0636
| 29> C 	 -68.1238 	 -58.0809 	 -80.2016
| 30> H 	 -67.9471 	 -58.4833 	 -81.2102
| 31> H 	 -68.7313 	 -58.8268 	 -79.5984
| 32> C 	 -66.6858 	 -57.8951 	 -79.6391
| 33> H 	 -66.0725 	 -57.3637 	 -80.392
| 34> H 	 -66.1981 	 -58.9355 	 -79.7195
| 35> C 	 -66.4186 	 -57.4498 	 -78.1481
| 36> H 	 -66.7437 	 -56.4453 	 -77.9719
| 37> H 	 -65.3295 	 -57.483 	 -77.9747
| 38> H 	 -67.0466 	 -58.064 	 -77.403
| 39> H 	 -67.4443 	 -56.3999 	 -85.9434
| 40> H 	 -70.5878 	 -54.3223 	 -78.8251
| 41> *
| 42>
| 43>                          ****END OF INPUT****

CARTESIAN COORDINATES (ANGSTROEM)
---------------------------------
  S    -67.567600  -55.774000  -83.450900
  C    -67.836400  -56.653300  -84.956900
  C    -68.843400  -57.627500  -84.868700
  C    -69.500500  -57.479500  -83.597200
  C    -68.900300  -56.561400  -82.718200
  H    -70.326600  -57.987300  -83.204500
  C    -69.317500  -58.449100  -86.040200
  H    -69.432000  -57.843800  -86.870200
  H    -70.348900  -58.708600  -85.668500
  C    -68.623700  -59.750000  -86.338700
  H    -68.863500  -60.101600  -87.331100
  H    -67.546900  -59.685500  -86.271300
  C    -68.926600  -60.849400  -85.331100
  H    -68.641300  -60.514100  -84.304600
  H    -69.951800  -61.152400  -85.507700
  H    -68.324100  -61.747100  -85.468000
  S    -70.322600  -54.815000  -81.198600
  C    -70.133900  -54.939400  -79.507500
  C    -69.342300  -56.039700  -79.125300
  C    -68.928800  -56.824700  -80.231000
  C    -69.304500  -56.245000  -81.399500
  H    -69.169300  -56.137700  -78.063600
  C    -68.123800  -58.080900  -80.201600
  H    -67.947100  -58.483300  -81.210200
  H    -68.731300  -58.826800  -79.598400
  C    -66.685800  -57.895100  -79.639100
  H    -66.072500  -57.363700  -80.392000
  H    -66.198100  -58.935500  -79.719500
  C    -66.418600  -57.449800  -78.148100
  H    -66.743700  -56.445300  -77.971900
  H    -65.329500  -57.483000  -77.974700
  H    -67.046600  -58.064000  -77.403000
  H    -67.444300  -56.399900  -85.943400
  H    -70.587800  -54.322300  -78.825100

 Total Charge           Charge          ....    0
 Multiplicity           Mult            ....    1
 Number of Electrons    NEL             ....  134
 Basis Dimension        Dim             ....  322

ORBITAL ENERGIES
----------------

  NO   OCC          E(Eh)            E(eV)
   0   2.0000     -88.967919     -2420.9402
   1   2.0000     -88.964062     -2420.8352
   2   2.0000     -10.319115      -280.7974
   3   2.0000     -10.314304      -280.6665
   4   2.0000     -10.313836      -280.6538
   5   2.0000     -10.310381      -280.5597
   6   2.0000     -10.303683      -280.3775
   7   2.0000     -10.298912      -280.2476
   8   2.0000     -10.296443      -280.1805
   9   2.0000     -10.295733      -280.1611
  10   2.0000     -10.293389      -280.0974
  11   2.0000     -10.291659      -280.0503
  12   2.0000     -10.289593      -279.9941
  13   2.0000     -10.286995      -279.9234
  14   2.0000     -10.281382      -279.7706
  15   2.0000     -10.276675      -279.6425
  16   2.0000      -8.082732      -219.9423
  17   2.0000      -8.079552      -219.8558
  18   2.0000      -6.041101      -164.3867
  19   2.0000      -6.037793      -164.2967
  20   2.0000      -6.037109      -164.2781
  21   2.0000      -6.034007      -164.1937
  22   2.0000      -6.033750      -164.1867
  23   2.0000      -6.030496      -164.0981
  24   2.0000      -1.010805       -27.5054
  25   2.0000      -0.983405       -26.7598
  26   2.0000      -0.919220       -25.0133
  27   2.0000      -0.903835       -24.5946
  28   2.0000      -0.870728       -23.6937
  29   2.0000      -0.848835       -23.0980
  30   2.0000      -0.844414       -22.9777
  31   2.0000      -0.810835       -22.0639
  32   2.0000      -0.788377       -21.4528
  33   2.0000      -0.774087       -21.0640
  34   2.0000      -0.705333       -19.1931
  35   2.0000      -0.701293       -19.0831
  36   2.0000      -0.691597       -18.8193
  37   2.0000      -0.662342       -18.0232
  38   2.0000      -0.643305       -17.5052
  39   2.0000      -0.611359       -16.6359
  40   2.0000      -0.591215       -16.0878
  41   2.0000      -0.576139       -15.6775
  42   2.0000      -0.558486       -15.1972
  43   2.0000      -0.553758       -15.0685
  44   2.0000      -0.547157       -14.8889
  45   2.0000      -0.531541       -14.4640
  46   2.0000      -0.517234       -14.0746
  47   2.0000      -0.508705       -13.8426
  48   2.0000      -0.501122       -13.6362
  49   2.0000      -0.496792       -13.5184
  50   2.0000      -0.485929       -13.2228
  51   2.0000      -0.477904       -13.0044
  52   2.0000      -0.469992       -12.7891
  53   2.0000      -0.467162       -12.7121
  54   2.0000      -0.458929       -12.4881
  55   2.0000      -0.446750       -12.1567
  56   2.0000      -0.440661       -11.9910
  57   2.0000      -0.439873       -11.9696
  58   2.0000      -0.436862       -11.8876
  59   2.0000      -0.427530       -11.6337
  60   2.0000      -0.425201       -11.5703
  61   2.0000      -0.408221       -11.1083
  62   2.0000      -0.404000       -10.9934
  63   2.0000      -0.337883        -9.1943
  64   2.0000      -0.328612        -8.9420
  65   2.0000      -0.314072        -8.5463
  66   2.0000      -0.309104        -8.4111
  67   0.0000       0.042071         1.1448
  68   0.0000       0.055279         1.5042
  69   0.0000       0.111005         3.0206
  70   0.0000       0.122279         3.3274
  71   0.0000       0.130454         3.5498

MULLIKEN ATOMIC CHARGES
-----------------------
   0 S :    0.138200
   1 C :   -0.122334
   2 C :   -0.098286
   3 C :    0.072259
   4 C :   -0.215046
   5 H :   -0.013364
   6 C :    0.084994
   7 H :    0.019024
   8 H :    0.021543
   9 C :   -0.032520
  10 H :    0.022919
  11 H :    0.022464
  12 C :   -0.077993
  13 H :    0.044006
  14 H :    0.030581
  15 H :    0.028391
  16 S :    0.130104
  17 C :   -0.060070
  18 C :   -0.066223
  19 C :    0.040881
  20 C :   -0.217474
  21 H :    0.016530
  22 C :    0.072702
  23 H :    0.039703
  24 H :    0.044013
  25 C :   -0.126970
  26 H :    0.034655
  27 H :    0.033883
  28 C :   -0.056111
  29 H :    0.031858
  30 H :    0.047668
  31 H :    0.040467
  32 H :    0.047433
  33 H :    0.022112
Sum of atomic charges:   -0.0000000

LOEWDIN ATOMIC CHARGES
----------------------
   0 S :    0.425580
   1 C :   -0.198108
   2 C :   -0.060852
   3 C :   -0.054010
   4 C :   -0.218830
   5 H :    0.020814
   6 C :   -0.027943
   7 H :    0.023390
   8 H :    0.038964
   9 C :   -0.040189
  10 H :    0.022676
  11 H :    0.022951
  12 C :   -0.066401
  13 H :    0.030818
  14 H :    0.021567
  15 H :    0.024884
  16 S :    0.420754
  17 C :   -0.180048
  18 C :   -0.072668
  19 C :   -0.050475
  20 C :   -0.209874
  21 H :    0.029952
  22 C :   -0.034302
  23 H :    0.038213
  24 H :    0.039680
  25 C :   -0.050539
  26 H :    0.026176
  27 H :    0.030385
  28 C :   -0.073556
  29 H :    0.016171
  30 H :    0.033300
  31 H :    0.033468
  32 H :    0.028196
  33 H :    0.009855

  Mayer bond orders larger than 0.100000
B(  0-S ,  1-C ) :   1.1540 B(  0-S ,  4-C ) :   1.1608 B(  1-C ,  2-C ) :   1.5949
B(  1-C ,  4-C ) :   0.1006 B(  1-C , 32-H ) :   0.9636 B(  2-C ,  3-C ) :   1.2398
B(  2-C ,  6-C ) :   1.0056 B(  3-C ,  4-C ) :   1.5696 B(  3-C ,  5-H ) :   0.9984
B(  4-C , 20-C ) :   1.0333 B(  6-C ,  7-H ) :   0.9418 B(  6-C ,  8-H ) :   0.9437
B(  6-C ,  9-C ) :   1.0642 B(  9-C , 10-H ) :   0.9549 B(  9-C , 11-H ) :   0.9568
B(  9-C , 12-C ) :   1.0811 B( 12-C , 13-H ) :   0.9752 B( 12-C , 14-H ) :   0.9760
B( 12-C , 15-H ) :   0.9736 B( 16-S , 17-C ) :   1.1719 B( 16-S , 20-C ) :   1.1440
B( 17-C , 18-C ) :   1.6058 B( 17-C , 20-C ) :   0.1040 B( 17-C , 33-H ) :   0.9755
B( 18-C , 19-C ) :   1.2107 B( 18-C , 21-H ) :   0.9939 B( 19-C , 20-C ) :   1.6115
B( 19-C , 22-C ) :   1.0445 B( 22-C , 23-H ) :   0.9207 B( 22-C , 24-H ) :   0.9327
B( 22-C , 25-C ) :   1.0779 B( 25-C , 26-H ) :   0.9518 B( 25-C , 27-H ) :   0.9563
B( 25-C , 28-C ) :   1.0659 B( 28-C , 29-H ) :   0.9726 B( 28-C , 30-H ) :   0.9718
B( 28-C , 31-H ) :   0.9743

Dispersion correction           -0.014846805
FINAL SINGLE POINT ENERGY     -1339.868694972975

DIPOLE MOMENT
-------------
                                X             Y             Z
Electronic contribution:     -7.20177      22.60144       0.20543
Nuclear contribution   :      7.20449     -22.98909      -0.25537
                        -----------------------------------------
Total Dipole Moment    :      0.00272      -0.38765      -0.04995
                        -----------------------------------------
Magnitude (a.u.)       :      0.39087
Magnitude (Debye)      :      0.99350

Rotational constants in cm-1:     0.020488     0.008248     0.007064
Rotational constants in MHz :   614.207983   247.274553   211.771219

                             ****ORCA TERMINATED NORMALLY****
TOTAL RUN TIME: 0 days 0 hours 0 minutes 21 seconds 840 msec
