                         Program Version 4.2.1 -  RELEASE  -
|  1> ! wB97X-D3 SP def2-SVP
|  2> %pal
|  3> nprocs 24
|  4> end
|  5>
|  6> * xyz 0 1
|  7> S 	 -128.872 	 10.7364 	 -11.8018
|  8> C 	 -127.175 	 10.7767 	 -11.544
|  9> C 	 -126.498 	 11.0194 	 -12.7559
| 10> C 	 -127.381 	 11.0379 	 -13.867
| 11> C 	 -128.72 	 11.0404 	 -13.479
| 12> H 	 -127.042 	 11.0649 	 -14.915
| 13> C 	 -125.015 	 10.997 	 -12.9236
| 14> H 	 -124.791 	 10.3111 	 -13.8318
| 15> H 	 -124.52 	 10.5023 	 -12.1173
| 16> C 	 -124.258 	 12.375 	 -13.1491
| 17> H 	 -123.147 	 12.2307 	 -13.4228
| 18> H 	 -124.706 	 12.7556 	 -14.0849
| 19> C 	 -124.371 	 13.4302 	 -12.0851
| 20> H 	 -124.272 	 12.954 	 -11.1235
| 21> H 	 -123.435 	 14.0054 	 -12.0717
| 22> H 	 -125.27 	 14.0697 	 -12.1502
| 23> S 	 -129.962 	 12.7991 	 -15.133
| 24> C 	 -131.413 	 12.3172 	 -15.9034
| 25> C 	 -131.967 	 11.1348 	 -15.3251
| 26> C 	 -131.135 	 10.6022 	 -14.3761
| 27> C 	 -129.922 	 11.2896 	 -14.3007
| 28> H 	 -132.887 	 10.6554 	 -15.7046
| 29> C 	 -131.373 	 9.31364 	 -13.7499
| 30> H 	 -130.467 	 8.93876 	 -13.3073
| 31> H 	 -131.541 	 8.6695 	 -14.6149
| 32> C 	 -132.589 	 9.21738 	 -12.8004
| 33> H 	 -133.461 	 9.20542 	 -13.3046
| 34> H 	 -132.41 	 10.0167 	 -12.0832
| 35> C 	 -132.554 	 8.03024 	 -11.8754
| 36> H 	 -133.474 	 8.04166 	 -11.2478
| 37> H 	 -131.616 	 7.97661 	 -11.2772
| 38> H 	 -132.503 	 6.9986 	 -12.3308
| 39> H 	 -126.698 	 10.9318 	 -10.6273
| 40> H 	 -131.787 	 12.6937 	 -16.8227
| 41> *
| 42>
| 43>                          ****END OF INPUT****

CARTESIAN COORDINATES (ANGSTROEM)
---------------------------------
  S    -128.872000   10.736400  -11.801800
  C    -127.175000   10.776700  -11.544000
  C    -126.498000   11.019400  -12.755900
  C    -127.381000   11.037900  -13.867000
  C    -128.720000   11.040400  -13.479000
  H    -127.042000   11.064900  -14.915000
  C    -125.015000   10.997000  -12.923600
  H    -124.791000   10.311100  -13.831800
  H    -124.520000   10.502300  -12.117300
  C    -124.258000   12.375000  -13.149100
  H    -123.147000   12.230700  -13.422800
  H    -124.706000   12.755600  -14.084900
  C    -124.371000   13.430200  -12.085100
  H    -124.272000   12.954000  -11.123500
  H    -123.435000   14.005400  -12.071700
  H    -125.270000   14.069700  -12.150200
  S    -129.962000   12.799100  -15.133000
  C    -131.413000   12.317200  -15.903400
  C    -131.967000   11.134800  -15.325100
  C    -131.135000   10.602200  -14.376100
  C    -129.922000   11.289600  -14.300700
  H    -132.887000   10.655400  -15.704600
  C    -131.373000    9.313640  -13.749900
  H    -130.467000    8.938760  -13.307300
  H    -131.541000    8.669500  -14.614900
  C    -132.589000    9.217380  -12.800400
  H    -133.461000    9.205420  -13.304600
  H    -132.410000   10.016700  -12.083200
  C    -132.554000    8.030240  -11.875400
  H    -133.474000    8.041660  -11.247800
  H    -131.616000    7.976610  -11.277200
  H    -132.503000    6.998600  -12.330800
  H    -126.698000   10.931800  -10.627300
  H    -131.787000   12.693700  -16.822700

 Total Charge           Charge          ....    0
 Multiplicity           Mult            ....    1
 Number of Electrons    NEL             ....  134
 Basis Dimension        Dim             ....  322

ORBITAL ENERGIES
----------------

  NO   OCC          E(Eh)            E(eV)
   0   2.0000     -88.969339     -2420.9788
   1   2.0000     -88.968786     -2420.9637
   2   2.0000     -10.328458      -281.0516
   3   2.0000     -10.320811      -280.8435
   4   2.0000     -10.312584      -280.6197
   5   2.0000     -10.309041      -280.5233
   6   2.0000     -10.301144      -280.3084
   7   2.0000     -10.296321      -280.1771
   8   2.0000     -10.296146      -280.1724
   9   2.0000     -10.293121      -280.0901
  10   2.0000     -10.292494      -280.0730
  11   2.0000     -10.291512      -280.0463
  12   2.0000     -10.280539      -279.7477
  13   2.0000     -10.280173      -279.7377
  14   2.0000     -10.277015      -279.6518
  15   2.0000     -10.275992      -279.6240
  16   2.0000      -8.084784      -219.9982
  17   2.0000      -8.084255      -219.9838
  18   2.0000      -6.042997      -164.4383
  19   2.0000      -6.042576      -164.4268
  20   2.0000      -6.039203      -164.3351
  21   2.0000      -6.038473      -164.3152
  22   2.0000      -6.035811      -164.2428
  23   2.0000      -6.035371      -164.2308
  24   2.0000      -1.014259       -27.5994
  25   2.0000      -0.992205       -26.9993
  26   2.0000      -0.918183       -24.9850
  27   2.0000      -0.906365       -24.6634
  28   2.0000      -0.865450       -23.5501
  29   2.0000      -0.862474       -23.4691
  30   2.0000      -0.851339       -23.1661
  31   2.0000      -0.811070       -22.0703
  32   2.0000      -0.782977       -21.3059
  33   2.0000      -0.769156       -20.9298
  34   2.0000      -0.703292       -19.1375
  35   2.0000      -0.699558       -19.0359
  36   2.0000      -0.689188       -18.7538
  37   2.0000      -0.666029       -18.1236
  38   2.0000      -0.637629       -17.3508
  39   2.0000      -0.618944       -16.8423
  40   2.0000      -0.597902       -16.2697
  41   2.0000      -0.579657       -15.7733
  42   2.0000      -0.567504       -15.4426
  43   2.0000      -0.547488       -14.8979
  44   2.0000      -0.535732       -14.5780
  45   2.0000      -0.531342       -14.4586
  46   2.0000      -0.519279       -14.1303
  47   2.0000      -0.514189       -13.9918
  48   2.0000      -0.505944       -13.7674
  49   2.0000      -0.495286       -13.4774
  50   2.0000      -0.487837       -13.2747
  51   2.0000      -0.474231       -12.9045
  52   2.0000      -0.472099       -12.8465
  53   2.0000      -0.469420       -12.7736
  54   2.0000      -0.458421       -12.4743
  55   2.0000      -0.451708       -12.2916
  56   2.0000      -0.446716       -12.1558
  57   2.0000      -0.436042       -11.8653
  58   2.0000      -0.431112       -11.7312
  59   2.0000      -0.424976       -11.5642
  60   2.0000      -0.418842       -11.3973
  61   2.0000      -0.411956       -11.2099
  62   2.0000      -0.410538       -11.1713
  63   2.0000      -0.338474        -9.2104
  64   2.0000      -0.335144        -9.1197
  65   2.0000      -0.328679        -8.9438
  66   2.0000      -0.287116        -7.8128
  67   0.0000       0.026015         0.7079
  68   0.0000       0.068590         1.8664
  69   0.0000       0.103106         2.8057
  70   0.0000       0.115912         3.1541
  71   0.0000       0.132587         3.6079

MULLIKEN ATOMIC CHARGES
-----------------------
   0 S :    0.127805
   1 C :   -0.088586
   2 C :   -0.091345
   3 C :    0.020025
   4 C :   -0.170540
   5 H :    0.025193
   6 C :    0.018576
   7 H :    0.044254
   8 H :    0.016670
   9 C :   -0.110513
  10 H :    0.041709
  11 H :    0.022650
  12 C :   -0.024710
  13 H :    0.009972
  14 H :    0.028166
  15 H :    0.058027
  16 S :    0.143661
  17 C :   -0.088388
  18 C :   -0.062579
  19 C :    0.011386
  20 C :   -0.168130
  21 H :    0.026762
  22 C :    0.039417
  23 H :    0.008072
  24 H :    0.025956
  25 C :    0.003860
  26 H :    0.010619
  27 H :    0.032480
  28 C :   -0.092867
  29 H :    0.043883
  30 H :    0.033035
  31 H :    0.022795
  32 H :    0.036685
  33 H :    0.046000
Sum of atomic charges:   -0.0000000

LOEWDIN ATOMIC CHARGES
----------------------
   0 S :    0.449659
   1 C :   -0.207496
   2 C :   -0.065117
   3 C :   -0.066862
   4 C :   -0.209778
   5 H :    0.037090
   6 C :   -0.039403
   7 H :    0.044751
   8 H :    0.020920
   9 C :   -0.052046
  10 H :    0.033079
  11 H :    0.021199
  12 C :   -0.074165
  13 H :    0.020804
  14 H :    0.033102
  15 H :    0.033989
  16 S :    0.449868
  17 C :   -0.199218
  18 C :   -0.066559
  19 C :   -0.066279
  20 C :   -0.213847
  21 H :    0.036279
  22 C :   -0.035628
  23 H :    0.019525
  24 H :    0.035193
  25 C :   -0.026440
  26 H :    0.009462
  27 H :    0.033055
  28 C :   -0.074281
  29 H :    0.030549
  30 H :    0.027048
  31 H :    0.022884
  32 H :    0.018478
  33 H :    0.020184

  Mayer bond orders larger than 0.100000
B(  0-S ,  1-C ) :   1.1624 B(  0-S ,  4-C ) :   1.1800 B(  1-C ,  2-C ) :   1.5663
B(  1-C , 32-H ) :   0.9705 B(  2-C ,  3-C ) :   1.2692 B(  2-C ,  6-C ) :   1.0314
B(  3-C ,  4-C ) :   1.5310 B(  3-C ,  5-H ) :   0.9928 B(  4-C , 20-C ) :   1.0130
B(  6-C ,  7-H ) :   0.9458 B(  6-C ,  8-H ) :   0.9490 B(  6-C ,  9-C ) :   1.0554
B(  9-C , 10-H ) :   0.9603 B(  9-C , 11-H ) :   0.9582 B(  9-C , 12-C ) :   1.0742
B( 12-C , 13-H ) :   0.9721 B( 12-C , 14-H ) :   0.9704 B( 12-C , 15-H ) :   0.9740
B( 16-S , 17-C ) :   1.1869 B( 16-S , 20-C ) :   1.1730 B( 17-C , 18-C ) :   1.5451
B( 17-C , 20-C ) :   0.1153 B( 17-C , 33-H ) :   0.9708 B( 18-C , 19-C ) :   1.2923
B( 18-C , 21-H ) :   0.9878 B( 19-C , 20-C ) :   1.5181 B( 19-C , 22-C ) :   1.0628
B( 22-C , 23-H ) :   0.9332 B( 22-C , 24-H ) :   0.9239 B( 22-C , 25-C ) :   1.0545
B( 25-C , 26-H ) :   0.9543 B( 25-C , 27-H ) :   0.9557 B( 25-C , 28-C ) :   1.0907
B( 28-C , 29-H ) :   0.9744 B( 28-C , 30-H ) :   0.9740 B( 28-C , 31-H ) :   0.9707

Dispersion correction           -0.014304781
FINAL SINGLE POINT ENERGY     -1339.859019528768

DIPOLE MOMENT
-------------
                                X             Y             Z
Electronic contribution:     -7.26595       7.23259      -6.21560
Nuclear contribution   :      7.44611      -7.41152       6.08991
                        -----------------------------------------
Total Dipole Moment    :      0.18017      -0.17893      -0.12569
                        -----------------------------------------
Magnitude (a.u.)       :      0.28333
Magnitude (Debye)      :      0.72016

Rotational constants in cm-1:     0.022285     0.008117     0.006377
Rotational constants in MHz :   668.075319   243.344169   191.176209

                             ****ORCA TERMINATED NORMALLY****
TOTAL RUN TIME: 0 days 0 hours 0 minutes 21 seconds 343 msec
