                         Program Version 4.2.1 -  RELEASE  -
|  1> ! wB97X-D3 SP def2-SVP
|  2> %pal
|  3> nprocs 24
|  4> end
|  5>
|  6> * xyz 0 1
|  7> S 	 -62.184 	 8.74753 	 -77.8125
|  8> C 	 -60.7624 	 9.30196 	 -76.9558
|  9> C 	 -60.8723 	 10.6035 	 -76.5265
| 10> C 	 -62.0333 	 11.1942 	 -77.1437
| 11> C 	 -62.9122 	 10.2877 	 -77.7065
| 12> H 	 -62.3712 	 12.284 	 -77.2077
| 13> C 	 -59.833 	 11.4047 	 -75.7533
| 14> H 	 -59.3604 	 12.227 	 -76.3444
| 15> H 	 -59.0685 	 10.7572 	 -75.4345
| 16> C 	 -60.4149 	 11.9902 	 -74.4366
| 17> H 	 -59.6458 	 12.5443 	 -73.8646
| 18> H 	 -61.279 	 12.6158 	 -74.6227
| 19> C 	 -61.0933 	 10.9612 	 -73.5341
| 20> H 	 -60.3747 	 10.2737 	 -73.0937
| 21> H 	 -61.5439 	 11.3185 	 -72.5708
| 22> H 	 -61.8664 	 10.3744 	 -74.0967
| 23> S 	 -64.1448 	 10.9792 	 -80.1279
| 24> C 	 -65.8424 	 11.1617 	 -80.128
| 25> C 	 -66.3322 	 11.1956 	 -78.8811
| 26> C 	 -65.3534 	 11.0554 	 -77.8616
| 27> C 	 -64.1486 	 10.6872 	 -78.431
| 28> H 	 -67.291 	 11.5894 	 -78.8546
| 29> C 	 -65.5998 	 11.344 	 -76.3511
| 30> H 	 -66.5591 	 11.7807 	 -76.101
| 31> H 	 -64.9029 	 12.1331 	 -76.0846
| 32> C 	 -65.4041 	 10.1672 	 -75.3546
| 33> H 	 -65.5146 	 10.4035 	 -74.3288
| 34> H 	 -64.4863 	 9.74292 	 -75.4913
| 35> C 	 -66.4268 	 9.08368 	 -75.6956
| 36> H 	 -67.4627 	 9.39893 	 -75.5869
| 37> H 	 -66.2112 	 8.32551 	 -74.9921
| 38> H 	 -66.1015 	 8.70161 	 -76.7086
| 39> H 	 -59.867 	 8.6601 	 -76.6847
| 40> H 	 -66.4778 	 11.3659 	 -80.9874
| 41> *
| 42>
| 43>                          ****END OF INPUT****

CARTESIAN COORDINATES (ANGSTROEM)
---------------------------------
  S    -62.184000    8.747530  -77.812500
  C    -60.762400    9.301960  -76.955800
  C    -60.872300   10.603500  -76.526500
  C    -62.033300   11.194200  -77.143700
  C    -62.912200   10.287700  -77.706500
  H    -62.371200   12.284000  -77.207700
  C    -59.833000   11.404700  -75.753300
  H    -59.360400   12.227000  -76.344400
  H    -59.068500   10.757200  -75.434500
  C    -60.414900   11.990200  -74.436600
  H    -59.645800   12.544300  -73.864600
  H    -61.279000   12.615800  -74.622700
  C    -61.093300   10.961200  -73.534100
  H    -60.374700   10.273700  -73.093700
  H    -61.543900   11.318500  -72.570800
  H    -61.866400   10.374400  -74.096700
  S    -64.144800   10.979200  -80.127900
  C    -65.842400   11.161700  -80.128000
  C    -66.332200   11.195600  -78.881100
  C    -65.353400   11.055400  -77.861600
  C    -64.148600   10.687200  -78.431000
  H    -67.291000   11.589400  -78.854600
  C    -65.599800   11.344000  -76.351100
  H    -66.559100   11.780700  -76.101000
  H    -64.902900   12.133100  -76.084600
  C    -65.404100   10.167200  -75.354600
  H    -65.514600   10.403500  -74.328800
  H    -64.486300    9.742920  -75.491300
  C    -66.426800    9.083680  -75.695600
  H    -67.462700    9.398930  -75.586900
  H    -66.211200    8.325510  -74.992100
  H    -66.101500    8.701610  -76.708600
  H    -59.867000    8.660100  -76.684700
  H    -66.477800   11.365900  -80.987400

 Total Charge           Charge          ....    0
 Multiplicity           Mult            ....    1
 Number of Electrons    NEL             ....  134
 Basis Dimension        Dim             ....  322

ORBITAL ENERGIES
----------------

  NO   OCC          E(Eh)            E(eV)
   0   2.0000     -88.969151     -2420.9737
   1   2.0000     -88.964849     -2420.8566
   2   2.0000     -10.325096      -280.9601
   3   2.0000     -10.322702      -280.8950
   4   2.0000     -10.321041      -280.8498
   5   2.0000     -10.308294      -280.5029
   6   2.0000     -10.306097      -280.4432
   7   2.0000     -10.305632      -280.4305
   8   2.0000     -10.299587      -280.2660
   9   2.0000     -10.297342      -280.2049
  10   2.0000     -10.291015      -280.0327
  11   2.0000     -10.288657      -279.9686
  12   2.0000     -10.280143      -279.7369
  13   2.0000     -10.278337      -279.6878
  14   2.0000     -10.268574      -279.4221
  15   2.0000     -10.266547      -279.3669
  16   2.0000      -8.084356      -219.9865
  17   2.0000      -8.080918      -219.8930
  18   2.0000      -6.042810      -164.4332
  19   2.0000      -6.039277      -164.3371
  20   2.0000      -6.038789      -164.3238
  21   2.0000      -6.035375      -164.2309
  22   2.0000      -6.035133      -164.2243
  23   2.0000      -6.031628      -164.1289
  24   2.0000      -1.015139       -27.6233
  25   2.0000      -0.994498       -27.0617
  26   2.0000      -0.913207       -24.8496
  27   2.0000      -0.906297       -24.6616
  28   2.0000      -0.869562       -23.6620
  29   2.0000      -0.849205       -23.1080
  30   2.0000      -0.845090       -22.9961
  31   2.0000      -0.815000       -22.1773
  32   2.0000      -0.785060       -21.3626
  33   2.0000      -0.773752       -21.0549
  34   2.0000      -0.706616       -19.2280
  35   2.0000      -0.692453       -18.8426
  36   2.0000      -0.684910       -18.6373
  37   2.0000      -0.656382       -17.8611
  38   2.0000      -0.640567       -17.4307
  39   2.0000      -0.618929       -16.8419
  40   2.0000      -0.597134       -16.2488
  41   2.0000      -0.575658       -15.6645
  42   2.0000      -0.554619       -15.0920
  43   2.0000      -0.552925       -15.0458
  44   2.0000      -0.545290       -14.8381
  45   2.0000      -0.542260       -14.7557
  46   2.0000      -0.512903       -13.9568
  47   2.0000      -0.510553       -13.8929
  48   2.0000      -0.494620       -13.4593
  49   2.0000      -0.490437       -13.3455
  50   2.0000      -0.485913       -13.2224
  51   2.0000      -0.476519       -12.9667
  52   2.0000      -0.470768       -12.8103
  53   2.0000      -0.467997       -12.7348
  54   2.0000      -0.460785       -12.5386
  55   2.0000      -0.444160       -12.0862
  56   2.0000      -0.443225       -12.0608
  57   2.0000      -0.440226       -11.9792
  58   2.0000      -0.428662       -11.6645
  59   2.0000      -0.424906       -11.5623
  60   2.0000      -0.423913       -11.5353
  61   2.0000      -0.412802       -11.2329
  62   2.0000      -0.408473       -11.1151
  63   2.0000      -0.337416        -9.1816
  64   2.0000      -0.329074        -8.9545
  65   2.0000      -0.325696        -8.8626
  66   2.0000      -0.311096        -8.4654
  67   0.0000       0.042455         1.1552
  68   0.0000       0.061132         1.6635
  69   0.0000       0.111304         3.0287
  70   0.0000       0.122708         3.3391
  71   0.0000       0.126550         3.4436

MULLIKEN ATOMIC CHARGES
-----------------------
   0 S :    0.128482
   1 C :   -0.145847
   2 C :   -0.103623
   3 C :   -0.001064
   4 C :   -0.180911
   5 H :    0.047264
   6 C :    0.124740
   7 H :    0.053302
   8 H :   -0.000341
   9 C :   -0.085311
  10 H :    0.038750
  11 H :    0.031740
  12 C :   -0.102046
  13 H :    0.014829
  14 H :    0.035457
  15 H :    0.059283
  16 S :    0.134157
  17 C :   -0.099381
  18 C :   -0.002086
  19 C :   -0.031224
  20 C :   -0.193813
  21 H :   -0.008347
  22 C :    0.090194
  23 H :    0.012598
  24 H :    0.021919
  25 C :   -0.037940
  26 H :    0.016682
  27 H :    0.015293
  28 C :   -0.055803
  29 H :    0.032711
  30 H :    0.017543
  31 H :    0.045887
  32 H :    0.071062
  33 H :    0.055845
Sum of atomic charges:    0.0000000

LOEWDIN ATOMIC CHARGES
----------------------
   0 S :    0.426542
   1 C :   -0.203093
   2 C :   -0.069367
   3 C :   -0.067318
   4 C :   -0.219503
   5 H :    0.043654
   6 C :   -0.023321
   7 H :    0.041813
   8 H :    0.021260
   9 C :   -0.044820
  10 H :    0.027634
  11 H :    0.022993
  12 C :   -0.079558
  13 H :    0.016665
  14 H :    0.030720
  15 H :    0.032314
  16 S :    0.434557
  17 C :   -0.194075
  18 C :   -0.074568
  19 C :   -0.046085
  20 C :   -0.216719
  21 H :    0.022875
  22 C :   -0.025545
  23 H :    0.026818
  24 H :    0.028491
  25 C :   -0.027176
  26 H :    0.018266
  27 H :    0.008928
  28 C :   -0.060785
  29 H :    0.020965
  30 H :    0.017644
  31 H :    0.033551
  32 H :    0.042722
  33 H :    0.033522

  Mayer bond orders larger than 0.100000
B(  0-S ,  1-C ) :   1.1516 B(  0-S ,  4-C ) :   1.1494 B(  1-C ,  2-C ) :   1.6198
B(  1-C , 32-H ) :   0.9535 B(  2-C ,  3-C ) :   1.2070 B(  2-C ,  6-C ) :   1.0302
B(  3-C ,  4-C ) :   1.6119 B(  3-C ,  5-H ) :   0.9762 B(  4-C , 20-C ) :   1.0031
B(  6-C ,  7-H ) :   0.9444 B(  6-C ,  8-H ) :   0.9344 B(  6-C ,  9-C ) :   1.0576
B(  9-C , 10-H ) :   0.9591 B(  9-C , 11-H ) :   0.9612 B(  9-C , 12-C ) :   1.0680
B( 12-C , 13-H ) :   0.9733 B( 12-C , 14-H ) :   0.9733 B( 12-C , 15-H ) :   0.9691
B( 16-S , 17-C ) :   1.1580 B( 16-S , 20-C ) :   1.1680 B( 17-C , 18-C ) :   1.6310
B( 17-C , 33-H ) :   0.9627 B( 18-C , 19-C ) :   1.2445 B( 18-C , 21-H ) :   0.9932
B( 19-C , 20-C ) :   1.5847 B( 19-C , 22-C ) :   1.0213 B( 22-C , 23-H ) :   0.9461
B( 22-C , 24-H ) :   0.9334 B( 22-C , 25-C ) :   1.0747 B( 25-C , 26-H ) :   0.9564
B( 25-C , 27-H ) :   0.9541 B( 25-C , 28-C ) :   1.0785 B( 28-C , 29-H ) :   0.9780
B( 28-C , 30-H ) :   0.9742 B( 28-C , 31-H ) :   0.9729

Dispersion correction           -0.016155759
FINAL SINGLE POINT ENERGY     -1339.860675377993

DIPOLE MOMENT
-------------
                                X             Y             Z
Electronic contribution:      0.86234      -4.34015     -25.54455
Nuclear contribution   :     -0.77976       4.78929      25.96030
                        -----------------------------------------
Total Dipole Moment    :      0.08259       0.44915       0.41574
                        -----------------------------------------
Magnitude (a.u.)       :      0.61757
Magnitude (Debye)      :      1.56975

Rotational constants in cm-1:     0.019895     0.009622     0.008050
Rotational constants in MHz :   596.434273   288.461335   241.337952

                             ****ORCA TERMINATED NORMALLY****
TOTAL RUN TIME: 0 days 0 hours 0 minutes 23 seconds 159 msec
