                         Program Version 4.2.1 -  RELEASE  -
|  1> ! wB97X-D3 SP def2-SVP
|  2> %pal
|  3> nprocs 24
|  4> end
|  5>
|  6> * xyz 0 1
|  7> S 	 -127.691 	 69.6006 	 -61.0984
|  8> C 	 -127.029 	 71.0071 	 -60.206
|  9> C 	 -127.083 	 72.2031 	 -60.9365
| 10> C 	 -127.781 	 71.9765 	 -62.1438
| 11> C 	 -128.034 	 70.6121 	 -62.4534
| 12> H 	 -128.023 	 72.8091 	 -62.7521
| 13> C 	 -126.595 	 73.5215 	 -60.3237
| 14> H 	 -125.973 	 73.3766 	 -59.4649
| 15> H 	 -127.637 	 73.9278 	 -60.0195
| 16> C 	 -125.881 	 74.4161 	 -61.3733
| 17> H 	 -126.432 	 74.4954 	 -62.3207
| 18> H 	 -125.958 	 75.4057 	 -60.9578
| 19> C 	 -124.392 	 74.1774 	 -61.5151
| 20> H 	 -124.326 	 73.2168 	 -62.0278
| 21> H 	 -123.77 	 74.8666 	 -62.108
| 22> H 	 -123.795 	 74.1402 	 -60.5178
| 23> S 	 -130.393 	 69.5776 	 -63.3306
| 24> C 	 -130.602 	 69.1838 	 -65.0523
| 25> C 	 -129.599 	 69.7735 	 -65.7335
| 26> C 	 -128.514 	 70.2824 	 -64.9375
| 27> C 	 -128.796 	 70.2022 	 -63.5654
| 28> H 	 -129.555 	 69.6159 	 -66.8203
| 29> C 	 -127.265 	 70.8619 	 -65.5506
| 30> H 	 -126.788 	 71.6529 	 -64.9769
| 31> H 	 -127.643 	 71.4963 	 -66.2805
| 32> C 	 -126.217 	 69.8384 	 -66.0953
| 33> H 	 -125.551 	 70.4612 	 -66.6643
| 34> H 	 -126.709 	 69.1547 	 -66.8416
| 35> C 	 -125.405 	 69.2079 	 -64.971
| 36> H 	 -124.895 	 69.8927 	 -64.3078
| 37> H 	 -124.615 	 68.4752 	 -65.3148
| 38> H 	 -126.088 	 68.6772 	 -64.1948
| 39> H 	 -126.775 	 70.8523 	 -59.2278
| 40> H 	 -131.529 	 68.6232 	 -65.3897
| 41> *
| 42>
| 43>                          ****END OF INPUT****

CARTESIAN COORDINATES (ANGSTROEM)
---------------------------------
  S    -127.691000   69.600600  -61.098400
  C    -127.029000   71.007100  -60.206000
  C    -127.083000   72.203100  -60.936500
  C    -127.781000   71.976500  -62.143800
  C    -128.034000   70.612100  -62.453400
  H    -128.023000   72.809100  -62.752100
  C    -126.595000   73.521500  -60.323700
  H    -125.973000   73.376600  -59.464900
  H    -127.637000   73.927800  -60.019500
  C    -125.881000   74.416100  -61.373300
  H    -126.432000   74.495400  -62.320700
  H    -125.958000   75.405700  -60.957800
  C    -124.392000   74.177400  -61.515100
  H    -124.326000   73.216800  -62.027800
  H    -123.770000   74.866600  -62.108000
  H    -123.795000   74.140200  -60.517800
  S    -130.393000   69.577600  -63.330600
  C    -130.602000   69.183800  -65.052300
  C    -129.599000   69.773500  -65.733500
  C    -128.514000   70.282400  -64.937500
  C    -128.796000   70.202200  -63.565400
  H    -129.555000   69.615900  -66.820300
  C    -127.265000   70.861900  -65.550600
  H    -126.788000   71.652900  -64.976900
  H    -127.643000   71.496300  -66.280500
  C    -126.217000   69.838400  -66.095300
  H    -125.551000   70.461200  -66.664300
  H    -126.709000   69.154700  -66.841600
  C    -125.405000   69.207900  -64.971000
  H    -124.895000   69.892700  -64.307800
  H    -124.615000   68.475200  -65.314800
  H    -126.088000   68.677200  -64.194800
  H    -126.775000   70.852300  -59.227800
  H    -131.529000   68.623200  -65.389700

 Total Charge           Charge          ....    0
 Multiplicity           Mult            ....    1
 Number of Electrons    NEL             ....  134
 Basis Dimension        Dim             ....  322

ORBITAL ENERGIES
----------------

  NO   OCC          E(Eh)            E(eV)
   0   2.0000     -88.967783     -2420.9365
   1   2.0000     -88.956599     -2420.6321
   2   2.0000     -10.326453      -280.9971
   3   2.0000     -10.320041      -280.8226
   4   2.0000     -10.319047      -280.7956
   5   2.0000     -10.309604      -280.5386
   6   2.0000     -10.306638      -280.4579
   7   2.0000     -10.304206      -280.3917
   8   2.0000     -10.301454      -280.3168
   9   2.0000     -10.295319      -280.1499
  10   2.0000     -10.292636      -280.0769
  11   2.0000     -10.291324      -280.0412
  12   2.0000     -10.289593      -279.9941
  13   2.0000     -10.287147      -279.9275
  14   2.0000     -10.282662      -279.8055
  15   2.0000     -10.280431      -279.7447
  16   2.0000      -8.082113      -219.9255
  17   2.0000      -8.071807      -219.6450
  18   2.0000      -6.040463      -164.3694
  19   2.0000      -6.036627      -164.2650
  20   2.0000      -6.033124      -164.1697
  21   2.0000      -6.030312      -164.0931
  22   2.0000      -6.026243      -163.9824
  23   2.0000      -6.022538      -163.8816
  24   2.0000      -1.005838       -27.3702
  25   2.0000      -0.979924       -26.6651
  26   2.0000      -0.914213       -24.8770
  27   2.0000      -0.903191       -24.5771
  28   2.0000      -0.872924       -23.7535
  29   2.0000      -0.848491       -23.0886
  30   2.0000      -0.840017       -22.8580
  31   2.0000      -0.811551       -22.0834
  32   2.0000      -0.783109       -21.3095
  33   2.0000      -0.769429       -20.9372
  34   2.0000      -0.713143       -19.4056
  35   2.0000      -0.697383       -18.9767
  36   2.0000      -0.693126       -18.8609
  37   2.0000      -0.652681       -17.7604
  38   2.0000      -0.641947       -17.4683
  39   2.0000      -0.626309       -17.0427
  40   2.0000      -0.599455       -16.3120
  41   2.0000      -0.564358       -15.3570
  42   2.0000      -0.556898       -15.1540
  43   2.0000      -0.546662       -14.8754
  44   2.0000      -0.539876       -14.6908
  45   2.0000      -0.528911       -14.3924
  46   2.0000      -0.517405       -14.0793
  47   2.0000      -0.510355       -13.8875
  48   2.0000      -0.498457       -13.5637
  49   2.0000      -0.495356       -13.4793
  50   2.0000      -0.485517       -13.2116
  51   2.0000      -0.478080       -13.0092
  52   2.0000      -0.471501       -12.8302
  53   2.0000      -0.468828       -12.7575
  54   2.0000      -0.462622       -12.5886
  55   2.0000      -0.446009       -12.1365
  56   2.0000      -0.441901       -12.0247
  57   2.0000      -0.434023       -11.8104
  58   2.0000      -0.430825       -11.7233
  59   2.0000      -0.428504       -11.6602
  60   2.0000      -0.422138       -11.4870
  61   2.0000      -0.403799       -10.9879
  62   2.0000      -0.401067       -10.9136
  63   2.0000      -0.340159        -9.2562
  64   2.0000      -0.329341        -8.9618
  65   2.0000      -0.321318        -8.7435
  66   2.0000      -0.292984        -7.9725
  67   0.0000       0.027592         0.7508
  68   0.0000       0.069806         1.8995
  69   0.0000       0.115081         3.1315
  70   0.0000       0.120017         3.2658
  71   0.0000       0.122161         3.3242

MULLIKEN ATOMIC CHARGES
-----------------------
   0 S :    0.116405
   1 C :   -0.118361
   2 C :   -0.075862
   3 C :    0.035714
   4 C :   -0.165841
   5 H :   -0.001134
   6 C :    0.058382
   7 H :    0.023434
   8 H :    0.064659
   9 C :   -0.057872
  10 H :    0.033770
  11 H :    0.020237
  12 C :   -0.077572
  13 H :    0.036345
  14 H :    0.040610
  15 H :    0.041367
  16 S :    0.087715
  17 C :   -0.131958
  18 C :   -0.019347
  19 C :   -0.043827
  20 C :   -0.147326
  21 H :    0.028261
  22 C :    0.079517
  23 H :    0.007583
  24 H :    0.000525
  25 C :   -0.032002
  26 H :    0.019661
  27 H :    0.038496
  28 C :   -0.078753
  29 H :    0.027319
  30 H :    0.045543
  31 H :    0.039743
  32 H :    0.016598
  33 H :    0.087971
Sum of atomic charges:    0.0000000

LOEWDIN ATOMIC CHARGES
----------------------
   0 S :    0.411429
   1 C :   -0.173982
   2 C :   -0.060983
   3 C :   -0.052438
   4 C :   -0.210529
   5 H :    0.021636
   6 C :   -0.022208
   7 H :    0.027961
   8 H :    0.052412
   9 C :   -0.047699
  10 H :    0.027295
  11 H :    0.022312
  12 C :   -0.076525
  13 H :    0.026174
  14 H :    0.027986
  15 H :    0.035829
  16 S :    0.390210
  17 C :   -0.182726
  18 C :   -0.078338
  19 C :   -0.054856
  20 C :   -0.209832
  21 H :    0.034549
  22 C :   -0.035698
  23 H :    0.030364
  24 H :    0.024950
  25 C :   -0.036449
  26 H :    0.021551
  27 H :    0.029955
  28 C :   -0.079868
  29 H :    0.023899
  30 H :    0.031376
  31 H :    0.033846
  32 H :    0.002621
  33 H :    0.045774

  Mayer bond orders larger than 0.100000
B(  0-S ,  1-C ) :   1.1535 B(  0-S ,  4-C ) :   1.1629 B(  1-C ,  2-C ) :   1.5551
B(  1-C ,  4-C ) :   0.1079 B(  1-C , 32-H ) :   0.9844 B(  2-C ,  3-C ) :   1.2880
B(  2-C ,  6-C ) :   1.0036 B(  3-C ,  4-C ) :   1.5181 B(  3-C ,  5-H ) :   0.9909
B(  4-C , 20-C ) :   1.0729 B(  6-C ,  7-H ) :   0.9459 B(  6-C ,  8-H ) :   0.9396
B(  6-C ,  9-C ) :   1.0637 B(  9-C , 10-H ) :   0.9571 B(  9-C , 11-H ) :   0.9520
B(  9-C , 12-C ) :   1.0677 B( 12-C , 13-H ) :   0.9771 B( 12-C , 14-H ) :   0.9753
B( 12-C , 15-H ) :   0.9715 B( 16-S , 17-C ) :   1.1381 B( 16-S , 20-C ) :   1.1487
B( 17-C , 18-C ) :   1.6152 B( 17-C , 33-H ) :   0.9625 B( 18-C , 19-C ) :   1.2397
B( 18-C , 21-H ) :   0.9812 B( 19-C , 20-C ) :   1.5791 B( 19-C , 22-C ) :   1.0395
B( 22-C , 23-H ) :   0.9292 B( 22-C , 24-H ) :   0.9215 B( 22-C , 25-C ) :   1.0735
B( 25-C , 26-H ) :   0.9501 B( 25-C , 27-H ) :   0.9586 B( 25-C , 28-C ) :   1.0682
B( 28-C , 29-H ) :   0.9722 B( 28-C , 30-H ) :   0.9743 B( 28-C , 31-H ) :   0.9738

Dispersion correction           -0.015104760
FINAL SINGLE POINT ENERGY     -1339.857922786816

DIPOLE MOMENT
-------------
                                X             Y             Z
Electronic contribution:    -21.46936     -14.34132       6.35163
Nuclear contribution   :     21.75969      14.96422      -6.50931
                        -----------------------------------------
Total Dipole Moment    :      0.29034       0.62290      -0.15768
                        -----------------------------------------
Magnitude (a.u.)       :      0.70510
Magnitude (Debye)      :      1.79222

Rotational constants in cm-1:     0.019053     0.009128     0.007590
Rotational constants in MHz :   571.198359   273.659474   227.532204

                             ****ORCA TERMINATED NORMALLY****
TOTAL RUN TIME: 0 days 0 hours 0 minutes 21 seconds 42 msec
