                         Program Version 4.2.1 -  RELEASE  -
|  1> ! wB97X-D3 SP def2-SVP
|  2> %pal
|  3> nprocs 24
|  4> end
|  5>
|  6> * xyz 0 1
|  7> S 	 -108.534 	 54.7655 	 -87.5091
|  8> C 	 -108.416 	 53.3942 	 -86.5276
|  9> C 	 -109.548 	 53.2182 	 -85.7168
| 10> C 	 -110.525 	 54.2008 	 -86.037
| 11> C 	 -110.078 	 55.2866 	 -86.7493
| 12> H 	 -111.502 	 54.3372 	 -85.6994
| 13> C 	 -109.732 	 52.1491 	 -84.6883
| 14> H 	 -110.018 	 52.6483 	 -83.7833
| 15> H 	 -108.741 	 51.6736 	 -84.5202
| 16> C 	 -110.829 	 51.0915 	 -84.8774
| 17> H 	 -110.897 	 50.9394 	 -85.9611
| 18> H 	 -110.586 	 50.181 	 -84.3236
| 19> C 	 -112.223 	 51.5093 	 -84.4007
| 20> H 	 -112.64 	 52.2893 	 -85.0459
| 21> H 	 -112.838 	 50.6709 	 -84.4006
| 22> H 	 -112.292 	 51.9731 	 -83.3406
| 23> S 	 -109.856 	 57.7344 	 -87.8873
| 24> C 	 -111.158 	 58.8145 	 -87.9291
| 25> C 	 -112.316 	 58.1983 	 -87.4816
| 26> C 	 -112.137 	 56.8559 	 -87.0152
| 27> C 	 -110.757 	 56.4826 	 -87.0921
| 28> H 	 -113.279 	 58.7559 	 -87.4912
| 29> C 	 -113.278 	 55.8756 	 -86.6913
| 30> H 	 -113.171 	 55.546 	 -85.6766
| 31> H 	 -113.056 	 54.9889 	 -87.3565
| 32> C 	 -114.695 	 56.423 	 -86.881
| 33> H 	 -114.856 	 56.7305 	 -87.9436
| 34> H 	 -114.909 	 57.2875 	 -86.2575
| 35> C 	 -115.779 	 55.4836 	 -86.4583
| 36> H 	 -115.67 	 55.169 	 -85.3544
| 37> H 	 -115.78 	 54.5722 	 -87.1437
| 38> H 	 -116.811 	 56.0126 	 -86.5999
| 39> H 	 -107.521 	 52.7157 	 -86.4297
| 40> H 	 -111.181 	 59.7439 	 -88.4492
| 41> *
| 42>
| 43>                          ****END OF INPUT****

CARTESIAN COORDINATES (ANGSTROEM)
---------------------------------
  S    -108.534000   54.765500  -87.509100
  C    -108.416000   53.394200  -86.527600
  C    -109.548000   53.218200  -85.716800
  C    -110.525000   54.200800  -86.037000
  C    -110.078000   55.286600  -86.749300
  H    -111.502000   54.337200  -85.699400
  C    -109.732000   52.149100  -84.688300
  H    -110.018000   52.648300  -83.783300
  H    -108.741000   51.673600  -84.520200
  C    -110.829000   51.091500  -84.877400
  H    -110.897000   50.939400  -85.961100
  H    -110.586000   50.181000  -84.323600
  C    -112.223000   51.509300  -84.400700
  H    -112.640000   52.289300  -85.045900
  H    -112.838000   50.670900  -84.400600
  H    -112.292000   51.973100  -83.340600
  S    -109.856000   57.734400  -87.887300
  C    -111.158000   58.814500  -87.929100
  C    -112.316000   58.198300  -87.481600
  C    -112.137000   56.855900  -87.015200
  C    -110.757000   56.482600  -87.092100
  H    -113.279000   58.755900  -87.491200
  C    -113.278000   55.875600  -86.691300
  H    -113.171000   55.546000  -85.676600
  H    -113.056000   54.988900  -87.356500
  C    -114.695000   56.423000  -86.881000
  H    -114.856000   56.730500  -87.943600
  H    -114.909000   57.287500  -86.257500
  C    -115.779000   55.483600  -86.458300
  H    -115.670000   55.169000  -85.354400
  H    -115.780000   54.572200  -87.143700
  H    -116.811000   56.012600  -86.599900
  H    -107.521000   52.715700  -86.429700
  H    -111.181000   59.743900  -88.449200

 Total Charge           Charge          ....    0
 Multiplicity           Mult            ....    1
 Number of Electrons    NEL             ....  134
 Basis Dimension        Dim             ....  322

ORBITAL ENERGIES
----------------

  NO   OCC          E(Eh)            E(eV)
   0   2.0000     -88.967574     -2420.9308
   1   2.0000     -88.963207     -2420.8119
   2   2.0000     -10.328422      -281.0506
   3   2.0000     -10.327920      -281.0370
   4   2.0000     -10.315575      -280.7011
   5   2.0000     -10.312616      -280.6205
   6   2.0000     -10.311304      -280.5848
   7   2.0000     -10.302636      -280.3490
   8   2.0000     -10.300793      -280.2988
   9   2.0000     -10.298043      -280.2240
  10   2.0000     -10.297614      -280.2123
  11   2.0000     -10.291607      -280.0489
  12   2.0000     -10.289040      -279.9790
  13   2.0000     -10.288104      -279.9535
  14   2.0000     -10.286623      -279.9132
  15   2.0000     -10.280358      -279.7428
  16   2.0000      -8.083425      -219.9612
  17   2.0000      -8.078357      -219.8233
  18   2.0000      -6.041796      -164.4056
  19   2.0000      -6.037627      -164.2922
  20   2.0000      -6.036923      -164.2730
  21   2.0000      -6.034427      -164.2051
  22   2.0000      -6.032862      -164.1625
  23   2.0000      -6.028969      -164.0566
  24   2.0000      -1.012357       -27.5476
  25   2.0000      -0.988842       -26.9078
  26   2.0000      -0.916272       -24.9330
  27   2.0000      -0.912937       -24.8423
  28   2.0000      -0.877999       -23.8916
  29   2.0000      -0.856751       -23.3134
  30   2.0000      -0.846098       -23.0235
  31   2.0000      -0.817982       -22.2584
  32   2.0000      -0.784438       -21.3456
  33   2.0000      -0.768904       -20.9229
  34   2.0000      -0.705891       -19.2083
  35   2.0000      -0.700385       -19.0584
  36   2.0000      -0.693803       -18.8793
  37   2.0000      -0.654850       -17.8194
  38   2.0000      -0.636421       -17.3179
  39   2.0000      -0.621982       -16.9250
  40   2.0000      -0.599212       -16.3054
  41   2.0000      -0.577728       -15.7208
  42   2.0000      -0.574092       -15.6218
  43   2.0000      -0.553855       -15.0712
  44   2.0000      -0.539443       -14.6790
  45   2.0000      -0.527534       -14.3549
  46   2.0000      -0.519848       -14.1458
  47   2.0000      -0.510129       -13.8813
  48   2.0000      -0.508348       -13.8329
  49   2.0000      -0.500818       -13.6279
  50   2.0000      -0.488723       -13.2988
  51   2.0000      -0.482974       -13.1424
  52   2.0000      -0.476624       -12.9696
  53   2.0000      -0.467856       -12.7310
  54   2.0000      -0.462502       -12.5853
  55   2.0000      -0.453949       -12.3526
  56   2.0000      -0.443620       -12.0715
  57   2.0000      -0.433376       -11.7928
  58   2.0000      -0.429182       -11.6786
  59   2.0000      -0.426021       -11.5926
  60   2.0000      -0.420783       -11.4501
  61   2.0000      -0.418637       -11.3917
  62   2.0000      -0.410894       -11.1810
  63   2.0000      -0.365616        -9.9489
  64   2.0000      -0.333500        -9.0750
  65   2.0000      -0.324861        -8.8399
  66   2.0000      -0.275350        -7.4927
  67   0.0000       0.015385         0.4187
  68   0.0000       0.086350         2.3497
  69   0.0000       0.103152         2.8069
  70   0.0000       0.124163         3.3786
  71   0.0000       0.128452         3.4954

MULLIKEN ATOMIC CHARGES
-----------------------
   0 S :    0.099586
   1 C :   -0.122618
   2 C :   -0.087762
   3 C :    0.012612
   4 C :   -0.115422
   5 H :   -0.050714
   6 C :    0.090278
   7 H :    0.019299
   8 H :    0.020324
   9 C :   -0.064536
  10 H :    0.037970
  11 H :    0.036219
  12 C :   -0.073363
  13 H :    0.033829
  14 H :    0.026103
  15 H :    0.035645
  16 S :    0.118506
  17 C :   -0.062738
  18 C :   -0.076252
  19 C :   -0.050923
  20 C :   -0.149217
  21 H :    0.033412
  22 C :    0.020803
  23 H :    0.047377
  24 H :    0.059000
  25 C :   -0.073482
  26 H :    0.040724
  27 H :    0.034767
  28 C :   -0.101631
  29 H :    0.049444
  30 H :    0.042304
  31 H :    0.051138
  32 H :    0.067766
  33 H :    0.051554
Sum of atomic charges:    0.0000000

LOEWDIN ATOMIC CHARGES
----------------------
   0 S :    0.398455
   1 C :   -0.221740
   2 C :   -0.065933
   3 C :   -0.064948
   4 C :   -0.172666
   5 H :    0.014815
   6 C :   -0.034719
   7 H :    0.028599
   8 H :    0.033998
   9 C :   -0.038262
  10 H :    0.029373
  11 H :    0.028192
  12 C :   -0.069278
  13 H :    0.022307
  14 H :    0.017393
  15 H :    0.031511
  16 S :    0.446049
  17 C :   -0.207098
  18 C :   -0.080497
  19 C :   -0.053616
  20 C :   -0.207681
  21 H :    0.037406
  22 C :   -0.036468
  23 H :    0.026823
  24 H :    0.045196
  25 C :   -0.055053
  26 H :    0.030776
  27 H :    0.026658
  28 C :   -0.077871
  29 H :    0.032100
  30 H :    0.027513
  31 H :    0.037640
  32 H :    0.042401
  33 H :    0.028627

  Mayer bond orders larger than 0.100000
B(  0-S ,  1-C ) :   1.1552 B(  0-S ,  4-C ) :   1.1128 B(  1-C ,  2-C ) :   1.5925
B(  1-C , 32-H ) :   0.9544 B(  2-C ,  3-C ) :   1.2189 B(  2-C ,  6-C ) :   1.0483
B(  3-C ,  4-C ) :   1.5922 B(  3-C ,  5-H ) :   0.9905 B(  4-C , 20-C ) :   1.1475
B(  6-C ,  7-H ) :   0.9328 B(  6-C ,  8-H ) :   0.9362 B(  6-C ,  9-C ) :   1.0536
B(  9-C , 10-H ) :   0.9565 B(  9-C , 11-H ) :   0.9572 B(  9-C , 12-C ) :   1.0823
B( 12-C , 13-H ) :   0.9748 B( 12-C , 14-H ) :   0.9723 B( 12-C , 15-H ) :   0.9723
B( 16-S , 17-C ) :   1.1802 B( 16-S , 20-C ) :   1.1603 B( 17-C , 18-C ) :   1.5558
B( 17-C , 20-C ) :   0.1044 B( 17-C , 33-H ) :   0.9666 B( 18-C , 19-C ) :   1.3136
B( 18-C , 21-H ) :   0.9788 B( 19-C , 20-C ) :   1.5001 B( 19-C , 22-C ) :   1.0258
B( 22-C , 23-H ) :   0.9152 B( 22-C , 24-H ) :   0.9364 B( 22-C , 25-C ) :   1.0862
B( 25-C , 26-H ) :   0.9438 B( 25-C , 27-H ) :   0.9460 B( 25-C , 28-C ) :   1.0911
B( 28-C , 29-H ) :   0.9692 B( 28-C , 30-H ) :   0.9722 B( 28-C , 31-H ) :   0.9712

Dispersion correction           -0.013888658
FINAL SINGLE POINT ENERGY     -1339.870697363906

DIPOLE MOMENT
-------------
                                X             Y             Z
Electronic contribution:     25.34131      16.38809     -12.81133
Nuclear contribution   :    -26.00480     -16.61938      13.02040
                        -----------------------------------------
Total Dipole Moment    :     -0.66349      -0.23129       0.20907
                        -----------------------------------------
Magnitude (a.u.)       :      0.73309
Magnitude (Debye)      :      1.86338

Rotational constants in cm-1:     0.015594     0.010316     0.006393
Rotational constants in MHz :   467.489401   309.252182   191.643489

                             ****ORCA TERMINATED NORMALLY****
TOTAL RUN TIME: 0 days 0 hours 0 minutes 21 seconds 781 msec
