                         Program Version 4.2.1 -  RELEASE  -
|  1> ! wB97X-D3 SP def2-SVP
|  2> %pal
|  3> nprocs 24
|  4> end
|  5>
|  6> * xyz 0 1
|  7> S 	 -31.624 	 -7.83465 	 13.5587
|  8> C 	 -31.534 	 -7.90145 	 15.2147
|  9> C 	 -32.5531 	 -8.66948 	 15.8043
| 10> C 	 -33.5604 	 -8.95391 	 14.7901
| 11> C 	 -33.2321 	 -8.51362 	 13.5813
| 12> H 	 -34.314 	 -9.62798 	 14.8535
| 13> C 	 -32.6725 	 -9.10379 	 17.281
| 14> H 	 -31.9346 	 -9.90472 	 17.4235
| 15> H 	 -33.6423 	 -9.58569 	 17.5725
| 16> C 	 -32.2392 	 -8.16562 	 18.2945
| 17> H 	 -31.9153 	 -8.68149 	 19.2143
| 18> H 	 -31.2944 	 -7.68228 	 17.9834
| 19> C 	 -33.3065 	 -7.0574 	 18.6222
| 20> H 	 -34.2349 	 -7.53022 	 18.9536
| 21> H 	 -32.8314 	 -6.51302 	 19.3467
| 22> H 	 -33.6058 	 -6.35005 	 17.8602
| 23> S 	 -33.0416 	 -9.83391 	 11.2521
| 24> C 	 -34.3957 	 -10.0829 	 10.1972
| 25> C 	 -35.5018 	 -9.48305 	 10.7583
| 26> C 	 -35.2545 	 -8.85553 	 12.0093
| 27> C 	 -33.9433 	 -8.92805 	 12.3836
| 28> H 	 -36.485 	 -9.63131 	 10.3854
| 29> C 	 -36.3581 	 -8.11533 	 12.7814
| 30> H 	 -36.2242 	 -8.14168 	 13.8915
| 31> H 	 -37.2491 	 -8.71635 	 12.6102
| 32> C 	 -36.4753 	 -6.73468 	 12.1646
| 33> H 	 -36.7872 	 -6.82668 	 11.1336
| 34> H 	 -35.479 	 -6.19984 	 12.2332
| 35> C 	 -37.5535 	 -5.87097 	 12.8025
| 36> H 	 -37.2939 	 -5.48103 	 13.8393
| 37> H 	 -38.4515 	 -6.46735 	 12.914
| 38> H 	 -37.8051 	 -4.98652 	 12.2729
| 39> H 	 -30.6884 	 -7.59003 	 15.765
| 40> H 	 -34.3347 	 -10.5395 	 9.20434
| 41> *
| 42>
| 43>                          ****END OF INPUT****

CARTESIAN COORDINATES (ANGSTROEM)
---------------------------------
  S    -31.624000   -7.834650   13.558700
  C    -31.534000   -7.901450   15.214700
  C    -32.553100   -8.669480   15.804300
  C    -33.560400   -8.953910   14.790100
  C    -33.232100   -8.513620   13.581300
  H    -34.314000   -9.627980   14.853500
  C    -32.672500   -9.103790   17.281000
  H    -31.934600   -9.904720   17.423500
  H    -33.642300   -9.585690   17.572500
  C    -32.239200   -8.165620   18.294500
  H    -31.915300   -8.681490   19.214300
  H    -31.294400   -7.682280   17.983400
  C    -33.306500   -7.057400   18.622200
  H    -34.234900   -7.530220   18.953600
  H    -32.831400   -6.513020   19.346700
  H    -33.605800   -6.350050   17.860200
  S    -33.041600   -9.833910   11.252100
  C    -34.395700  -10.082900   10.197200
  C    -35.501800   -9.483050   10.758300
  C    -35.254500   -8.855530   12.009300
  C    -33.943300   -8.928050   12.383600
  H    -36.485000   -9.631310   10.385400
  C    -36.358100   -8.115330   12.781400
  H    -36.224200   -8.141680   13.891500
  H    -37.249100   -8.716350   12.610200
  C    -36.475300   -6.734680   12.164600
  H    -36.787200   -6.826680   11.133600
  H    -35.479000   -6.199840   12.233200
  C    -37.553500   -5.870970   12.802500
  H    -37.293900   -5.481030   13.839300
  H    -38.451500   -6.467350   12.914000
  H    -37.805100   -4.986520   12.272900
  H    -30.688400   -7.590030   15.765000
  H    -34.334700  -10.539500    9.204340

 Total Charge           Charge          ....    0
 Multiplicity           Mult            ....    1
 Number of Electrons    NEL             ....  134
 Basis Dimension        Dim             ....  322

ORBITAL ENERGIES
----------------

  NO   OCC          E(Eh)            E(eV)
   0   2.0000     -88.966503     -2420.9016
   1   2.0000     -88.959474     -2420.7104
   2   2.0000     -10.318747      -280.7874
   3   2.0000     -10.316629      -280.7298
   4   2.0000     -10.314762      -280.6789
   5   2.0000     -10.308278      -280.5025
   6   2.0000     -10.306871      -280.4642
   7   2.0000     -10.295216      -280.1471
   8   2.0000     -10.292796      -280.0812
   9   2.0000     -10.292374      -280.0697
  10   2.0000     -10.288567      -279.9662
  11   2.0000     -10.287709      -279.9428
  12   2.0000     -10.284441      -279.8539
  13   2.0000     -10.282062      -279.7891
  14   2.0000     -10.272478      -279.5283
  15   2.0000     -10.268555      -279.4216
  16   2.0000      -8.083130      -219.9531
  17   2.0000      -8.075555      -219.7470
  18   2.0000      -6.041463      -164.3966
  19   2.0000      -6.037525      -164.2894
  20   2.0000      -6.034011      -164.1938
  21   2.0000      -6.033799      -164.1880
  22   2.0000      -6.029688      -164.0761
  23   2.0000      -6.026477      -163.9888
  24   2.0000      -1.018672       -27.7195
  25   2.0000      -0.993607       -27.0374
  26   2.0000      -0.918853       -25.0033
  27   2.0000      -0.909542       -24.7499
  28   2.0000      -0.878169       -23.8962
  29   2.0000      -0.853189       -23.2165
  30   2.0000      -0.844870       -22.9901
  31   2.0000      -0.815887       -22.2014
  32   2.0000      -0.785370       -21.3710
  33   2.0000      -0.772401       -21.0181
  34   2.0000      -0.704592       -19.1729
  35   2.0000      -0.696301       -18.9473
  36   2.0000      -0.688575       -18.7371
  37   2.0000      -0.669594       -18.2206
  38   2.0000      -0.652845       -17.7648
  39   2.0000      -0.614193       -16.7131
  40   2.0000      -0.596353       -16.2276
  41   2.0000      -0.577246       -15.7077
  42   2.0000      -0.561736       -15.2856
  43   2.0000      -0.556043       -15.1307
  44   2.0000      -0.539669       -14.6851
  45   2.0000      -0.524746       -14.2791
  46   2.0000      -0.519962       -14.1489
  47   2.0000      -0.510725       -13.8975
  48   2.0000      -0.509696       -13.8695
  49   2.0000      -0.503456       -13.6997
  50   2.0000      -0.490983       -13.3603
  51   2.0000      -0.483481       -13.1562
  52   2.0000      -0.476692       -12.9714
  53   2.0000      -0.466794       -12.7021
  54   2.0000      -0.457210       -12.4413
  55   2.0000      -0.448527       -12.2050
  56   2.0000      -0.442690       -12.0462
  57   2.0000      -0.441151       -12.0043
  58   2.0000      -0.431405       -11.7391
  59   2.0000      -0.419152       -11.4057
  60   2.0000      -0.416327       -11.3288
  61   2.0000      -0.414177       -11.2703
  62   2.0000      -0.411355       -11.1935
  63   2.0000      -0.355254        -9.6670
  64   2.0000      -0.328585        -8.9413
  65   2.0000      -0.322976        -8.7886
  66   2.0000      -0.294091        -8.0026
  67   0.0000       0.039388         1.0718
  68   0.0000       0.071885         1.9561
  69   0.0000       0.113035         3.0758
  70   0.0000       0.133629         3.6362
  71   0.0000       0.135435         3.6854

MULLIKEN ATOMIC CHARGES
-----------------------
   0 S :    0.130791
   1 C :   -0.101819
   2 C :   -0.093701
   3 C :    0.059978
   4 C :   -0.134957
   5 H :   -0.018532
   6 C :    0.089804
   7 H :    0.030837
   8 H :    0.028141
   9 C :   -0.109624
  10 H :    0.027474
  11 H :    0.017293
  12 C :   -0.015129
  13 H :    0.024675
  14 H :    0.014242
  15 H :    0.037137
  16 S :    0.099639
  17 C :   -0.102075
  18 C :   -0.020640
  19 C :   -0.072815
  20 C :   -0.158021
  21 H :    0.005547
  22 C :    0.073280
  23 H :    0.032659
  24 H :    0.013789
  25 C :   -0.078336
  26 H :    0.026669
  27 H :    0.048578
  28 C :   -0.027697
  29 H :    0.030389
  30 H :    0.016656
  31 H :    0.025502
  32 H :    0.032857
  33 H :    0.067411
Sum of atomic charges:    0.0000000

LOEWDIN ATOMIC CHARGES
----------------------
   0 S :    0.444104
   1 C :   -0.219428
   2 C :   -0.051503
   3 C :   -0.046283
   4 C :   -0.198691
   5 H :    0.016212
   6 C :   -0.043553
   7 H :    0.039139
   8 H :    0.033574
   9 C :   -0.043789
  10 H :    0.028295
  11 H :    0.023215
  12 C :   -0.058395
  13 H :    0.024253
  14 H :    0.013747
  15 H :    0.027631
  16 S :    0.424341
  17 C :   -0.196085
  18 C :   -0.069767
  19 C :   -0.064310
  20 C :   -0.207949
  21 H :    0.024730
  22 C :   -0.030383
  23 H :    0.032467
  24 H :    0.026920
  25 C :   -0.041325
  26 H :    0.025498
  27 H :    0.035218
  28 C :   -0.069737
  29 H :    0.028660
  30 H :    0.020689
  31 H :    0.019340
  32 H :    0.017692
  33 H :    0.035472

  Mayer bond orders larger than 0.100000
B(  0-S ,  1-C ) :   1.1661 B(  0-S ,  4-C ) :   1.1443 B(  1-C ,  2-C ) :   1.5955
B(  1-C , 32-H ) :   0.9683 B(  2-C ,  3-C ) :   1.2357 B(  2-C ,  6-C ) :   1.0150
B(  3-C ,  4-C ) :   1.6000 B(  3-C ,  5-H ) :   1.0044 B(  4-C , 20-C ) :   1.0122
B(  6-C ,  7-H ) :   0.9205 B(  6-C ,  8-H ) :   0.9491 B(  6-C ,  9-C ) :   1.1011
B(  9-C , 10-H ) :   0.9509 B(  9-C , 11-H ) :   0.9452 B(  9-C , 12-C ) :   1.0669
B( 12-C , 13-H ) :   0.9760 B( 12-C , 14-H ) :   0.9759 B( 12-C , 15-H ) :   0.9780
B( 16-S , 17-C ) :   1.1609 B( 16-S , 20-C ) :   1.1624 B( 17-C , 18-C ) :   1.5820
B( 17-C , 33-H ) :   0.9691 B( 18-C , 19-C ) :   1.2689 B( 18-C , 21-H ) :   0.9906
B( 19-C , 20-C ) :   1.6093 B( 19-C , 22-C ) :   1.0388 B( 22-C , 23-H ) :   0.9393
B( 22-C , 24-H ) :   0.9232 B( 22-C , 25-C ) :   1.0726 B( 25-C , 26-H ) :   0.9512
B( 25-C , 27-H ) :   0.9570 B( 25-C , 28-C ) :   1.0872 B( 28-C , 29-H ) :   0.9731
B( 28-C , 30-H ) :   0.9701 B( 28-C , 31-H ) :   0.9744

Dispersion correction           -0.013894808
FINAL SINGLE POINT ENERGY     -1339.865837262145

DIPOLE MOMENT
-------------
                                X             Y             Z
Electronic contribution:     15.86075     -10.44359     -19.45254
Nuclear contribution   :    -16.14026      10.30895      19.86522
                        -----------------------------------------
Total Dipole Moment    :     -0.27951      -0.13465       0.41267
                        -----------------------------------------
Magnitude (a.u.)       :      0.51629
Magnitude (Debye)      :      1.31230

Rotational constants in cm-1:     0.018936     0.008575     0.006684
Rotational constants in MHz :   567.683820   257.060845   200.385095

                             ****ORCA TERMINATED NORMALLY****
TOTAL RUN TIME: 0 days 0 hours 0 minutes 21 seconds 469 msec
