                         Program Version 4.2.1 -  RELEASE  -
|  1> ! wB97X-D3 SP def2-SVP
|  2> %pal
|  3> nprocs 24
|  4> end
|  5>
|  6> * xyz 0 1
|  7> S 	 -35.2106 	 3.24823 	 0.819957
|  8> C 	 -35.9125 	 1.81222 	 0.168692
|  9> C 	 -36.2356 	 0.882597 	 1.18594
| 10> C 	 -35.9815 	 1.40226 	 2.50426
| 11> C 	 -35.3986 	 2.67094 	 2.45715
| 12> H 	 -36.143 	 0.879282 	 3.47998
| 13> C 	 -36.9055 	 -0.421358 	 0.921918
| 14> H 	 -37.4654 	 -0.303568 	 -0.0135439
| 15> H 	 -37.604 	 -0.742641 	 1.64629
| 16> C 	 -35.8861 	 -1.61281 	 0.691535
| 17> H 	 -35.1987 	 -1.50527 	 -0.124674
| 18> H 	 -35.251 	 -1.76898 	 1.62215
| 19> C 	 -36.7065 	 -2.86422 	 0.353832
| 20> H 	 -36.0667 	 -3.64599 	 -0.0536326
| 21> H 	 -37.2235 	 -3.23784 	 1.22125
| 22> H 	 -37.4021 	 -2.68384 	 -0.481618
| 23> S 	 -35.9712 	 5.00108 	 3.67338
| 24> C 	 -35.5246 	 5.19923 	 5.46919
| 25> C 	 -34.8451 	 4.04394 	 5.92168
| 26> C 	 -34.6333 	 3.03906 	 4.8735
| 27> C 	 -35.0653 	 3.46437 	 3.59596
| 28> H 	 -34.5918 	 3.85865 	 6.95207
| 29> C 	 -33.9337 	 1.73548 	 5.18688
| 30> H 	 -33.7445 	 1.11442 	 4.35651
| 31> H 	 -34.5756 	 1.11287 	 5.81047
| 32> C 	 -32.5733 	 1.88839 	 5.86328
| 33> H 	 -32.1577 	 0.88394 	 6.13456
| 34> H 	 -32.5871 	 2.57202 	 6.71038
| 35> C 	 -31.5473 	 2.64312 	 4.98158
| 36> H 	 -31.1578 	 2.08866 	 4.12213
| 37> H 	 -30.712 	 3.00902 	 5.52567
| 38> H 	 -31.9925 	 3.51949 	 4.45088
| 39> H 	 -36.0445 	 1.57784 	 -0.904807
| 40> H 	 -35.5617 	 5.99794 	 6.07589
| 41> *
| 42>
| 43>                          ****END OF INPUT****

CARTESIAN COORDINATES (ANGSTROEM)
---------------------------------
  S    -35.210600    3.248230    0.819957
  C    -35.912500    1.812220    0.168692
  C    -36.235600    0.882597    1.185940
  C    -35.981500    1.402260    2.504260
  C    -35.398600    2.670940    2.457150
  H    -36.143000    0.879282    3.479980
  C    -36.905500   -0.421358    0.921918
  H    -37.465400   -0.303568   -0.013544
  H    -37.604000   -0.742641    1.646290
  C    -35.886100   -1.612810    0.691535
  H    -35.198700   -1.505270   -0.124674
  H    -35.251000   -1.768980    1.622150
  C    -36.706500   -2.864220    0.353832
  H    -36.066700   -3.645990   -0.053633
  H    -37.223500   -3.237840    1.221250
  H    -37.402100   -2.683840   -0.481618
  S    -35.971200    5.001080    3.673380
  C    -35.524600    5.199230    5.469190
  C    -34.845100    4.043940    5.921680
  C    -34.633300    3.039060    4.873500
  C    -35.065300    3.464370    3.595960
  H    -34.591800    3.858650    6.952070
  C    -33.933700    1.735480    5.186880
  H    -33.744500    1.114420    4.356510
  H    -34.575600    1.112870    5.810470
  C    -32.573300    1.888390    5.863280
  H    -32.157700    0.883940    6.134560
  H    -32.587100    2.572020    6.710380
  C    -31.547300    2.643120    4.981580
  H    -31.157800    2.088660    4.122130
  H    -30.712000    3.009020    5.525670
  H    -31.992500    3.519490    4.450880
  H    -36.044500    1.577840   -0.904807
  H    -35.561700    5.997940    6.075890

 Total Charge           Charge          ....    0
 Multiplicity           Mult            ....    1
 Number of Electrons    NEL             ....  134
 Basis Dimension        Dim             ....  322

ORBITAL ENERGIES
----------------

  NO   OCC          E(Eh)            E(eV)
   0   2.0000     -88.970202     -2421.0023
   1   2.0000     -88.967302     -2420.9234
   2   2.0000     -10.330059      -281.0952
   3   2.0000     -10.327246      -281.0186
   4   2.0000     -10.324279      -280.9379
   5   2.0000     -10.318017      -280.7675
   6   2.0000     -10.312080      -280.6060
   7   2.0000     -10.304616      -280.4029
   8   2.0000     -10.303948      -280.3847
   9   2.0000     -10.300300      -280.2854
  10   2.0000     -10.291741      -280.0525
  11   2.0000     -10.291075      -280.0344
  12   2.0000     -10.290646      -280.0227
  13   2.0000     -10.290200      -280.0106
  14   2.0000     -10.277121      -279.6547
  15   2.0000     -10.269679      -279.4522
  16   2.0000      -8.085074      -220.0060
  17   2.0000      -8.079774      -219.8618
  18   2.0000      -6.043508      -164.4522
  19   2.0000      -6.039460      -164.3421
  20   2.0000      -6.038711      -164.3217
  21   2.0000      -6.036024      -164.2486
  22   2.0000      -6.034663      -164.2115
  23   2.0000      -6.030104      -164.0875
  24   2.0000      -1.002977       -27.2924
  25   2.0000      -0.970297       -26.4031
  26   2.0000      -0.911396       -24.8003
  27   2.0000      -0.906295       -24.6615
  28   2.0000      -0.869893       -23.6710
  29   2.0000      -0.852065       -23.1859
  30   2.0000      -0.837414       -22.7872
  31   2.0000      -0.812494       -22.1091
  32   2.0000      -0.780910       -21.2496
  33   2.0000      -0.768496       -20.9118
  34   2.0000      -0.706949       -19.2371
  35   2.0000      -0.699934       -19.0462
  36   2.0000      -0.696485       -18.9523
  37   2.0000      -0.661091       -17.9892
  38   2.0000      -0.641682       -17.4611
  39   2.0000      -0.615989       -16.7619
  40   2.0000      -0.601939       -16.3796
  41   2.0000      -0.574689       -15.6381
  42   2.0000      -0.556560       -15.1448
  43   2.0000      -0.552140       -15.0245
  44   2.0000      -0.536049       -14.5866
  45   2.0000      -0.524084       -14.2611
  46   2.0000      -0.518609       -14.1121
  47   2.0000      -0.508149       -13.8274
  48   2.0000      -0.504132       -13.7181
  49   2.0000      -0.501289       -13.6408
  50   2.0000      -0.490013       -13.3339
  51   2.0000      -0.475695       -12.9443
  52   2.0000      -0.465988       -12.6802
  53   2.0000      -0.463550       -12.6138
  54   2.0000      -0.455035       -12.3821
  55   2.0000      -0.447422       -12.1750
  56   2.0000      -0.438976       -11.9451
  57   2.0000      -0.437098       -11.8940
  58   2.0000      -0.435087       -11.8393
  59   2.0000      -0.429084       -11.6760
  60   2.0000      -0.419493       -11.4150
  61   2.0000      -0.416560       -11.3352
  62   2.0000      -0.414578       -11.2812
  63   2.0000      -0.348273        -9.4770
  64   2.0000      -0.329849        -8.9757
  65   2.0000      -0.324722        -8.8361
  66   2.0000      -0.288620        -7.8537
  67   0.0000       0.020357         0.5539
  68   0.0000       0.066294         1.8039
  69   0.0000       0.096857         2.6356
  70   0.0000       0.116068         3.1584
  71   0.0000       0.123433         3.3588

MULLIKEN ATOMIC CHARGES
-----------------------
   0 S :    0.128886
   1 C :   -0.119027
   2 C :   -0.087279
   3 C :    0.027616
   4 C :   -0.173522
   5 H :    0.035094
   6 C :    0.057167
   7 H :    0.020492
   8 H :    0.019001
   9 C :   -0.091380
  10 H :    0.025873
  11 H :    0.038197
  12 C :   -0.046069
  13 H :    0.029135
  14 H :    0.033349
  15 H :    0.027677
  16 S :    0.081511
  17 C :   -0.035355
  18 C :   -0.036997
  19 C :   -0.081155
  20 C :   -0.102690
  21 H :    0.029201
  22 C :    0.088250
  23 H :    0.015666
  24 H :    0.032201
  25 C :   -0.079293
  26 H :    0.040795
  27 H :    0.028048
  28 C :   -0.075366
  29 H :    0.022914
  30 H :    0.027383
  31 H :    0.041821
  32 H :    0.060332
  33 H :    0.017524
Sum of atomic charges:   -0.0000000

LOEWDIN ATOMIC CHARGES
----------------------
   0 S :    0.425330
   1 C :   -0.214400
   2 C :   -0.061720
   3 C :   -0.059796
   4 C :   -0.208343
   5 H :    0.041786
   6 C :   -0.030023
   7 H :    0.032343
   8 H :    0.025664
   9 C :   -0.036652
  10 H :    0.019225
  11 H :    0.028511
  12 C :   -0.068777
  13 H :    0.025352
  14 H :    0.021468
  15 H :    0.026067
  16 S :    0.356025
  17 C :   -0.137077
  18 C :   -0.055170
  19 C :   -0.047941
  20 C :   -0.190178
  21 H :    0.030606
  22 C :   -0.035231
  23 H :    0.025377
  24 H :    0.032749
  25 C :   -0.038791
  26 H :    0.031016
  27 H :    0.021133
  28 C :   -0.073618
  29 H :    0.021525
  30 H :    0.019238
  31 H :    0.032817
  32 H :    0.035631
  33 H :    0.005852

  Mayer bond orders larger than 0.100000
B(  0-S ,  1-C ) :   1.1464 B(  0-S ,  4-C ) :   1.1606 B(  1-C ,  2-C ) :   1.5841
B(  1-C , 32-H ) :   0.9629 B(  2-C ,  3-C ) :   1.2605 B(  2-C ,  6-C ) :   1.0352
B(  3-C ,  4-C ) :   1.5407 B(  3-C ,  5-H ) :   0.9844 B(  4-C , 20-C ) :   1.0434
B(  6-C ,  7-H ) :   0.9422 B(  6-C ,  8-H ) :   0.9490 B(  6-C ,  9-C ) :   1.0482
B(  9-C , 10-H ) :   0.9611 B(  9-C , 11-H ) :   0.9578 B(  9-C , 12-C ) :   1.0817
B( 12-C , 13-H ) :   0.9744 B( 12-C , 14-H ) :   0.9758 B( 12-C , 15-H ) :   0.9722
B( 16-S , 17-C ) :   1.1195 B( 16-S , 20-C ) :   1.1184 B( 17-C , 18-C ) :   1.6373
B( 17-C , 33-H ) :   0.9773 B( 18-C , 19-C ) :   1.2173 B( 18-C , 21-H ) :   0.9819
B( 19-C , 20-C ) :   1.5978 B( 19-C , 22-C ) :   1.0455 B( 22-C , 23-H ) :   0.9402
B( 22-C , 24-H ) :   0.9276 B( 22-C , 25-C ) :   1.0685 B( 25-C , 26-H ) :   0.9545
B( 25-C , 27-H ) :   0.9604 B( 25-C , 28-C ) :   1.0652 B( 28-C , 29-H ) :   0.9741
B( 28-C , 30-H ) :   0.9786 B( 28-C , 31-H ) :   0.9724

Dispersion correction           -0.014182484
FINAL SINGLE POINT ENERGY     -1339.865014051805

DIPOLE MOMENT
-------------
                                X             Y             Z
Electronic contribution:     -7.41326      25.50943      -3.46959
Nuclear contribution   :      7.44260     -26.21394       3.73604
                        -----------------------------------------
Total Dipole Moment    :      0.02933      -0.70451       0.26645
                        -----------------------------------------
Magnitude (a.u.)       :      0.75378
Magnitude (Debye)      :      1.91596

Rotational constants in cm-1:     0.019708     0.007979     0.006593
Rotational constants in MHz :   590.843274   239.201300   197.648782

                             ****ORCA TERMINATED NORMALLY****
TOTAL RUN TIME: 0 days 0 hours 0 minutes 21 seconds 313 msec
