                         Program Version 4.2.1 -  RELEASE  -
|  1> ! wB97X-D3 SP def2-SVP
|  2> %pal
|  3> nprocs 24
|  4> end
|  5>
|  6> * xyz 0 1
|  7> S 	 -99.2206 	 -26.6765 	 -63.1404
|  8> C 	 -99.5074 	 -25.0016 	 -63.5947
|  9> C 	 -99.7143 	 -24.2264 	 -62.4926
| 10> C 	 -99.7349 	 -24.9296 	 -61.2749
| 11> C 	 -99.7292 	 -26.323 	 -61.417
| 12> H 	 -100.038 	 -24.5513 	 -60.3449
| 13> C 	 -99.8747 	 -22.7616 	 -62.495
| 14> H 	 -99.3996 	 -22.345 	 -63.3771
| 15> H 	 -99.3087 	 -22.3131 	 -61.5528
| 16> C 	 -101.354 	 -22.3629 	 -62.5705
| 17> H 	 -101.817 	 -22.3327 	 -63.4808
| 18> H 	 -101.98 	 -22.9875 	 -61.8766
| 19> C 	 -101.459 	 -20.992 	 -61.8829
| 20> H 	 -100.646 	 -20.3047 	 -62.1606
| 21> H 	 -102.468 	 -20.5995 	 -62.121
| 22> H 	 -101.335 	 -21.139 	 -60.7818
| 23> S 	 -98.9799 	 -28.8821 	 -60.9404
| 24> C 	 -99.0873 	 -29.5194 	 -59.294
| 25> C 	 -99.7533 	 -28.6647 	 -58.4547
| 26> C 	 -100.141 	 -27.4994 	 -59.1983
| 27> C 	 -99.7242 	 -27.4151 	 -60.4707
| 28> H 	 -99.9576 	 -28.9955 	 -57.4346
| 29> C 	 -101.151 	 -26.6175 	 -58.5432
| 30> H 	 -102.029 	 -27.2045 	 -58.3624
| 31> H 	 -101.633 	 -25.8676 	 -59.2053
| 32> C 	 -100.589 	 -25.9364 	 -57.264
| 33> H 	 -99.5801 	 -25.6739 	 -57.3007
| 34> H 	 -100.619 	 -26.659 	 -56.498
| 35> C 	 -101.384 	 -24.5999 	 -56.947
| 36> H 	 -102.413 	 -24.9285 	 -57.1528
| 37> H 	 -101.171 	 -23.7903 	 -57.6502
| 38> H 	 -101.269 	 -24.2449 	 -55.9863
| 39> H 	 -99.5651 	 -24.6733 	 -64.631
| 40> H 	 -98.5662 	 -30.4403 	 -58.9461
| 41> *
| 42>
| 43>                          ****END OF INPUT****

CARTESIAN COORDINATES (ANGSTROEM)
---------------------------------
  S    -99.220600  -26.676500  -63.140400
  C    -99.507400  -25.001600  -63.594700
  C    -99.714300  -24.226400  -62.492600
  C    -99.734900  -24.929600  -61.274900
  C    -99.729200  -26.323000  -61.417000
  H    -100.038000  -24.551300  -60.344900
  C    -99.874700  -22.761600  -62.495000
  H    -99.399600  -22.345000  -63.377100
  H    -99.308700  -22.313100  -61.552800
  C    -101.354000  -22.362900  -62.570500
  H    -101.817000  -22.332700  -63.480800
  H    -101.980000  -22.987500  -61.876600
  C    -101.459000  -20.992000  -61.882900
  H    -100.646000  -20.304700  -62.160600
  H    -102.468000  -20.599500  -62.121000
  H    -101.335000  -21.139000  -60.781800
  S    -98.979900  -28.882100  -60.940400
  C    -99.087300  -29.519400  -59.294000
  C    -99.753300  -28.664700  -58.454700
  C    -100.141000  -27.499400  -59.198300
  C    -99.724200  -27.415100  -60.470700
  H    -99.957600  -28.995500  -57.434600
  C    -101.151000  -26.617500  -58.543200
  H    -102.029000  -27.204500  -58.362400
  H    -101.633000  -25.867600  -59.205300
  C    -100.589000  -25.936400  -57.264000
  H    -99.580100  -25.673900  -57.300700
  H    -100.619000  -26.659000  -56.498000
  C    -101.384000  -24.599900  -56.947000
  H    -102.413000  -24.928500  -57.152800
  H    -101.171000  -23.790300  -57.650200
  H    -101.269000  -24.244900  -55.986300
  H    -99.565100  -24.673300  -64.631000
  H    -98.566200  -30.440300  -58.946100

 Total Charge           Charge          ....    0
 Multiplicity           Mult            ....    1
 Number of Electrons    NEL             ....  134
 Basis Dimension        Dim             ....  322

ORBITAL ENERGIES
----------------

  NO   OCC          E(Eh)            E(eV)
   0   2.0000     -88.963464     -2420.8189
   1   2.0000     -88.960171     -2420.7293
   2   2.0000     -10.337891      -281.3083
   3   2.0000     -10.322694      -280.8948
   4   2.0000     -10.321788      -280.8701
   5   2.0000     -10.311360      -280.5864
   6   2.0000     -10.298402      -280.2338
   7   2.0000     -10.297208      -280.2013
   8   2.0000     -10.297032      -280.1965
   9   2.0000     -10.293068      -280.0886
  10   2.0000     -10.290503      -280.0188
  11   2.0000     -10.289746      -279.9982
  12   2.0000     -10.282346      -279.7969
  13   2.0000     -10.282299      -279.7956
  14   2.0000     -10.281626      -279.7773
  15   2.0000     -10.278372      -279.6887
  16   2.0000      -8.079131      -219.8443
  17   2.0000      -8.073994      -219.7046
  18   2.0000      -6.037765      -164.2959
  19   2.0000      -6.033641      -164.1837
  20   2.0000      -6.032733      -164.1590
  21   2.0000      -6.029558      -164.0726
  22   2.0000      -6.028780      -164.0514
  23   2.0000      -6.024441      -163.9334
  24   2.0000      -1.013663       -27.5832
  25   2.0000      -0.984855       -26.7993
  26   2.0000      -0.915793       -24.9200
  27   2.0000      -0.909322       -24.7439
  28   2.0000      -0.875375       -23.8202
  29   2.0000      -0.852683       -23.2027
  30   2.0000      -0.844086       -22.9688
  31   2.0000      -0.820056       -22.3149
  32   2.0000      -0.778069       -21.1723
  33   2.0000      -0.765098       -20.8194
  34   2.0000      -0.715642       -19.4736
  35   2.0000      -0.703214       -19.1354
  36   2.0000      -0.700171       -19.0526
  37   2.0000      -0.668467       -18.1899
  38   2.0000      -0.640224       -17.4214
  39   2.0000      -0.625407       -17.0182
  40   2.0000      -0.602024       -16.3819
  41   2.0000      -0.568972       -15.4825
  42   2.0000      -0.567765       -15.4497
  43   2.0000      -0.558117       -15.1871
  44   2.0000      -0.536056       -14.5868
  45   2.0000      -0.529645       -14.4124
  46   2.0000      -0.524621       -14.2757
  47   2.0000      -0.511893       -13.9293
  48   2.0000      -0.505325       -13.7506
  49   2.0000      -0.501211       -13.6386
  50   2.0000      -0.487120       -13.2552
  51   2.0000      -0.482524       -13.1301
  52   2.0000      -0.473346       -12.8804
  53   2.0000      -0.466074       -12.6825
  54   2.0000      -0.457788       -12.4571
  55   2.0000      -0.455627       -12.3982
  56   2.0000      -0.447809       -12.1855
  57   2.0000      -0.441327       -12.0091
  58   2.0000      -0.426705       -11.6112
  59   2.0000      -0.425217       -11.5707
  60   2.0000      -0.418562       -11.3896
  61   2.0000      -0.411269       -11.1912
  62   2.0000      -0.404636       -11.0107
  63   2.0000      -0.364265        -9.9122
  64   2.0000      -0.335749        -9.1362
  65   2.0000      -0.321765        -8.7557
  66   2.0000      -0.280340        -7.6284
  67   0.0000       0.017520         0.4767
  68   0.0000       0.078642         2.1400
  69   0.0000       0.090841         2.4719
  70   0.0000       0.113958         3.1009
  71   0.0000       0.125503         3.4151

MULLIKEN ATOMIC CHARGES
-----------------------
   0 S :    0.057083
   1 C :   -0.111072
   2 C :   -0.061258
   3 C :    0.055628
   4 C :   -0.131021
   5 H :   -0.015847
   6 C :    0.009295
   7 H :    0.024738
   8 H :    0.056064
   9 C :   -0.030798
  10 H :    0.018551
  11 H :    0.033198
  12 C :   -0.090039
  13 H :    0.035159
  14 H :    0.037623
  15 H :    0.036077
  16 S :    0.088621
  17 C :   -0.102649
  18 C :   -0.027781
  19 C :   -0.063619
  20 C :   -0.077548
  21 H :    0.032986
  22 C :    0.012838
  23 H :    0.034929
  24 H :    0.016671
  25 C :   -0.048342
  26 H :    0.022278
  27 H :    0.016914
  28 C :   -0.039093
  29 H :    0.028114
  30 H :    0.035885
  31 H :    0.024567
  32 H :    0.049851
  33 H :    0.071997
Sum of atomic charges:   -0.0000000

LOEWDIN ATOMIC CHARGES
----------------------
   0 S :    0.350353
   1 C :   -0.190030
   2 C :   -0.071224
   3 C :   -0.058484
   4 C :   -0.142429
   5 H :    0.019940
   6 C :   -0.035817
   7 H :    0.030022
   8 H :    0.046885
   9 C :   -0.032279
  10 H :    0.011390
  11 H :    0.030041
  12 C :   -0.067782
  13 H :    0.020963
  14 H :    0.025229
  15 H :    0.025670
  16 S :    0.403600
  17 C :   -0.173242
  18 C :   -0.069494
  19 C :   -0.061076
  20 C :   -0.209809
  21 H :    0.039571
  22 C :   -0.035235
  23 H :    0.033101
  24 H :    0.026700
  25 C :   -0.027854
  26 H :    0.015857
  27 H :    0.016135
  28 C :   -0.055161
  29 H :    0.026706
  30 H :    0.025668
  31 H :    0.013138
  32 H :    0.030969
  33 H :    0.037976

  Mayer bond orders larger than 0.100000
B(  0-S ,  1-C ) :   1.1168 B(  0-S ,  4-C ) :   1.1288 B(  1-C ,  2-C ) :   1.6248
B(  1-C ,  4-C ) :   0.1031 B(  1-C , 32-H ) :   0.9680 B(  2-C ,  3-C ) :   1.2337
B(  2-C ,  6-C ) :   1.0280 B(  3-C ,  4-C ) :   1.5771 B(  3-C ,  5-H ) :   0.9880
B(  4-C , 20-C ) :   1.0780 B(  6-C ,  7-H ) :   0.9300 B(  6-C ,  8-H ) :   0.9541
B(  6-C ,  9-C ) :   1.0439 B(  9-C , 10-H ) :   0.9594 B(  9-C , 11-H ) :   0.9652
B(  9-C , 12-C ) :   1.0649 B( 12-C , 13-H ) :   0.9733 B( 12-C , 14-H ) :   0.9747
B( 12-C , 15-H ) :   0.9830 B( 16-S , 17-C ) :   1.1510 B( 16-S , 20-C ) :   1.1047
B( 17-C , 18-C ) :   1.6377 B( 17-C , 33-H ) :   0.9605 B( 18-C , 19-C ) :   1.1973
B( 18-C , 21-H ) :   0.9941 B( 19-C , 20-C ) :   1.6427 B( 19-C , 22-C ) :   1.0444
B( 22-C , 23-H ) :   0.9340 B( 22-C , 24-H ) :   0.9511 B( 22-C , 25-C ) :   1.0265
B( 25-C , 26-H ) :   0.9683 B( 25-C , 27-H ) :   0.9568 B( 25-C , 28-C ) :   1.0714
B( 28-C , 29-H ) :   0.9772 B( 28-C , 30-H ) :   0.9791 B( 28-C , 31-H ) :   0.9766

Dispersion correction           -0.013996339
FINAL SINGLE POINT ENERGY     -1339.845325941033

DIPOLE MOMENT
-------------
                                X             Y             Z
Electronic contribution:     13.03585     -26.80500     -14.12674
Nuclear contribution   :    -13.35148      27.19701      14.66230
                        -----------------------------------------
Total Dipole Moment    :     -0.31562       0.39201       0.53556
                        -----------------------------------------
Magnitude (a.u.)       :      0.73492
Magnitude (Debye)      :      1.86803

Rotational constants in cm-1:     0.017378     0.009704     0.006405
Rotational constants in MHz :   520.985288   290.919083   192.013826

                             ****ORCA TERMINATED NORMALLY****
TOTAL RUN TIME: 0 days 0 hours 0 minutes 21 seconds 909 msec
