                         Program Version 4.2.1 -  RELEASE  -
|  1> ! wB97X-D3 SP def2-SVP
|  2> %pal
|  3> nprocs 24
|  4> end
|  5>
|  6> * xyz 0 1
|  7> S 	 -119.554 	 65.3854 	 -63.5423
|  8> C 	 -119.744 	 63.8577 	 -64.2597
|  9> C 	 -119.524 	 62.8458 	 -63.4326
| 10> C 	 -119.154 	 63.32 	 -62.1424
| 11> C 	 -118.947 	 64.6735 	 -62.0885
| 12> H 	 -119.098 	 62.7933 	 -61.2059
| 13> C 	 -119.667 	 61.3616 	 -63.7592
| 14> H 	 -119.402 	 60.7724 	 -62.8886
| 15> H 	 -118.871 	 61.0809 	 -64.4785
| 16> C 	 -121.03 	 60.9352 	 -64.2178
| 17> H 	 -121.777 	 61.1744 	 -63.4482
| 18> H 	 -121.413 	 61.6291 	 -65.002
| 19> C 	 -121.095 	 59.5099 	 -64.6643
| 20> H 	 -120.928 	 58.9309 	 -63.766
| 21> H 	 -122.059 	 59.172 	 -65.0046
| 22> H 	 -120.382 	 59.2554 	 -65.4143
| 23> S 	 -119.46 	 66.8698 	 -60.5782
| 24> C 	 -118.565 	 67.1946 	 -59.1307
| 25> C 	 -117.481 	 66.3644 	 -59.0452
| 26> C 	 -117.463 	 65.3118 	 -60.0476
| 27> C 	 -118.457 	 65.5029 	 -60.9689
| 28> H 	 -116.806 	 66.5398 	 -58.2002
| 29> C 	 -116.392 	 64.3006 	 -60.0993
| 30> H 	 -116.8 	 63.2853 	 -60.1609
| 31> H 	 -115.808 	 64.3895 	 -59.169
| 32> C 	 -115.41 	 64.5334 	 -61.2444
| 33> H 	 -115.834 	 64.4012 	 -62.2028
| 34> H 	 -114.725 	 63.6887 	 -61.1414
| 35> C 	 -114.729 	 65.8865 	 -61.3055
| 36> H 	 -115.352 	 66.7767 	 -61.4801
| 37> H 	 -113.936 	 65.946 	 -62.1243
| 38> H 	 -114.062 	 66.073 	 -60.412
| 39> H 	 -120.168 	 63.6231 	 -65.2061
| 40> H 	 -118.661 	 68.0099 	 -58.4262
| 41> *
| 42>
| 43>                          ****END OF INPUT****

CARTESIAN COORDINATES (ANGSTROEM)
---------------------------------
  S    -119.554000   65.385400  -63.542300
  C    -119.744000   63.857700  -64.259700
  C    -119.524000   62.845800  -63.432600
  C    -119.154000   63.320000  -62.142400
  C    -118.947000   64.673500  -62.088500
  H    -119.098000   62.793300  -61.205900
  C    -119.667000   61.361600  -63.759200
  H    -119.402000   60.772400  -62.888600
  H    -118.871000   61.080900  -64.478500
  C    -121.030000   60.935200  -64.217800
  H    -121.777000   61.174400  -63.448200
  H    -121.413000   61.629100  -65.002000
  C    -121.095000   59.509900  -64.664300
  H    -120.928000   58.930900  -63.766000
  H    -122.059000   59.172000  -65.004600
  H    -120.382000   59.255400  -65.414300
  S    -119.460000   66.869800  -60.578200
  C    -118.565000   67.194600  -59.130700
  C    -117.481000   66.364400  -59.045200
  C    -117.463000   65.311800  -60.047600
  C    -118.457000   65.502900  -60.968900
  H    -116.806000   66.539800  -58.200200
  C    -116.392000   64.300600  -60.099300
  H    -116.800000   63.285300  -60.160900
  H    -115.808000   64.389500  -59.169000
  C    -115.410000   64.533400  -61.244400
  H    -115.834000   64.401200  -62.202800
  H    -114.725000   63.688700  -61.141400
  C    -114.729000   65.886500  -61.305500
  H    -115.352000   66.776700  -61.480100
  H    -113.936000   65.946000  -62.124300
  H    -114.062000   66.073000  -60.412000
  H    -120.168000   63.623100  -65.206100
  H    -118.661000   68.009900  -58.426200

 Total Charge           Charge          ....    0
 Multiplicity           Mult            ....    1
 Number of Electrons    NEL             ....  134
 Basis Dimension        Dim             ....  322

ORBITAL ENERGIES
----------------

  NO   OCC          E(Eh)            E(eV)
   0   2.0000     -88.963495     -2420.8198
   1   2.0000     -88.963234     -2420.8127
   2   2.0000     -10.325438      -280.9695
   3   2.0000     -10.324067      -280.9321
   4   2.0000     -10.313084      -280.6333
   5   2.0000     -10.300752      -280.2977
   6   2.0000     -10.299922      -280.2751
   7   2.0000     -10.293277      -280.0943
   8   2.0000     -10.292421      -280.0710
   9   2.0000     -10.291906      -280.0570
  10   2.0000     -10.289381      -279.9883
  11   2.0000     -10.288328      -279.9596
  12   2.0000     -10.285385      -279.8796
  13   2.0000     -10.281783      -279.7815
  14   2.0000     -10.279047      -279.7071
  15   2.0000     -10.273225      -279.5487
  16   2.0000      -8.079762      -219.8615
  17   2.0000      -8.078619      -219.8304
  18   2.0000      -6.038177      -164.3071
  19   2.0000      -6.037208      -164.2808
  20   2.0000      -6.034177      -164.1983
  21   2.0000      -6.032997      -164.1662
  22   2.0000      -6.030405      -164.0957
  23   2.0000      -6.029291      -164.0654
  24   2.0000      -1.016851       -27.6699
  25   2.0000      -0.993744       -27.0411
  26   2.0000      -0.919222       -25.0133
  27   2.0000      -0.913875       -24.8678
  28   2.0000      -0.874304       -23.7910
  29   2.0000      -0.853197       -23.2167
  30   2.0000      -0.844072       -22.9684
  31   2.0000      -0.819550       -22.3011
  32   2.0000      -0.785126       -21.3644
  33   2.0000      -0.776786       -21.1374
  34   2.0000      -0.710849       -19.3432
  35   2.0000      -0.704557       -19.1720
  36   2.0000      -0.688086       -18.7238
  37   2.0000      -0.664803       -18.0902
  38   2.0000      -0.642243       -17.4763
  39   2.0000      -0.617769       -16.8103
  40   2.0000      -0.592950       -16.1350
  41   2.0000      -0.577985       -15.7278
  42   2.0000      -0.561979       -15.2922
  43   2.0000      -0.553594       -15.0641
  44   2.0000      -0.540587       -14.7101
  45   2.0000      -0.529428       -14.4065
  46   2.0000      -0.516984       -14.0678
  47   2.0000      -0.512348       -13.9417
  48   2.0000      -0.505578       -13.7575
  49   2.0000      -0.504114       -13.7176
  50   2.0000      -0.488966       -13.3054
  51   2.0000      -0.482101       -13.1186
  52   2.0000      -0.476741       -12.9728
  53   2.0000      -0.465994       -12.6803
  54   2.0000      -0.463368       -12.6089
  55   2.0000      -0.446822       -12.1586
  56   2.0000      -0.442691       -12.0462
  57   2.0000      -0.439571       -11.9613
  58   2.0000      -0.435156       -11.8412
  59   2.0000      -0.426694       -11.6109
  60   2.0000      -0.417498       -11.3607
  61   2.0000      -0.412190       -11.2163
  62   2.0000      -0.406801       -11.0696
  63   2.0000      -0.352854        -9.6016
  64   2.0000      -0.331414        -9.0182
  65   2.0000      -0.327287        -8.9059
  66   2.0000      -0.293882        -7.9969
  67   0.0000       0.033260         0.9050
  68   0.0000       0.078008         2.1227
  69   0.0000       0.111428         3.0321
  70   0.0000       0.124366         3.3842
  71   0.0000       0.141390         3.8474

MULLIKEN ATOMIC CHARGES
-----------------------
   0 S :    0.113578
   1 C :   -0.093932
   2 C :   -0.081580
   3 C :    0.009482
   4 C :   -0.150737
   5 H :    0.011332
   6 C :    0.089063
   7 H :    0.006997
   8 H :    0.036919
   9 C :   -0.105218
  10 H :    0.027259
  11 H :    0.019160
  12 C :    0.004423
  13 H :    0.019860
  14 H :    0.025416
  15 H :    0.026996
  16 S :    0.102936
  17 C :   -0.078679
  18 C :   -0.058073
  19 C :   -0.060092
  20 C :   -0.136630
  21 H :    0.024057
  22 C :    0.091238
  23 H :    0.028757
  24 H :    0.016051
  25 C :   -0.033475
  26 H :    0.028011
  27 H :    0.022659
  28 C :   -0.097485
  29 H :    0.056765
  30 H :    0.034225
  31 H :    0.024496
  32 H :    0.024871
  33 H :    0.051346
Sum of atomic charges:    0.0000000

LOEWDIN ATOMIC CHARGES
----------------------
   0 S :    0.426894
   1 C :   -0.204278
   2 C :   -0.067156
   3 C :   -0.066087
   4 C :   -0.197398
   5 H :    0.029586
   6 C :   -0.030273
   7 H :    0.026933
   8 H :    0.036064
   9 C :   -0.050732
  10 H :    0.028451
  11 H :    0.020443
  12 C :   -0.059054
  13 H :    0.026548
  14 H :    0.025974
  15 H :    0.022504
  16 S :    0.411047
  17 C :   -0.191953
  18 C :   -0.073843
  19 C :   -0.058961
  20 C :   -0.199885
  21 H :    0.033874
  22 C :   -0.032269
  23 H :    0.033914
  24 H :    0.032330
  25 C :   -0.037649
  26 H :    0.021562
  27 H :    0.026635
  28 C :   -0.078700
  29 H :    0.030763
  30 H :    0.033646
  31 H :    0.024459
  32 H :    0.024132
  33 H :    0.032478

  Mayer bond orders larger than 0.100000
B(  0-S ,  1-C ) :   1.1383 B(  0-S ,  4-C ) :   1.1565 B(  1-C ,  2-C ) :   1.6513
B(  1-C , 32-H ) :   0.9648 B(  2-C ,  3-C ) :   1.2328 B(  2-C ,  6-C ) :   1.0066
B(  3-C ,  4-C ) :   1.5917 B(  3-C ,  5-H ) :   0.9974 B(  4-C , 20-C ) :   1.0105
B(  6-C ,  7-H ) :   0.9377 B(  6-C ,  8-H ) :   0.9376 B(  6-C ,  9-C ) :   1.0618
B(  9-C , 10-H ) :   0.9499 B(  9-C , 11-H ) :   0.9548 B(  9-C , 12-C ) :   1.0865
B( 12-C , 13-H ) :   0.9702 B( 12-C , 14-H ) :   0.9699 B( 12-C , 15-H ) :   0.9740
B( 16-S , 17-C ) :   1.1471 B( 16-S , 20-C ) :   1.1399 B( 17-C , 18-C ) :   1.6478
B( 17-C , 33-H ) :   0.9634 B( 18-C , 19-C ) :   1.2077 B( 18-C , 21-H ) :   0.9842
B( 19-C , 20-C ) :   1.6162 B( 19-C , 22-C ) :   1.0612 B( 22-C , 23-H ) :   0.9238
B( 22-C , 24-H ) :   0.9291 B( 22-C , 25-C ) :   1.0802 B( 25-C , 26-H ) :   0.9536
B( 25-C , 27-H ) :   0.9537 B( 25-C , 28-C ) :   1.0736 B( 28-C , 29-H ) :   0.9721
B( 28-C , 30-H ) :   0.9719 B( 28-C , 31-H ) :   0.9742

Dispersion correction           -0.014509402
FINAL SINGLE POINT ENERGY     -1339.885501391798

DIPOLE MOMENT
-------------
                                X             Y             Z
Electronic contribution:     -9.12373      20.99631       4.43214
Nuclear contribution   :      9.33604     -21.55188      -4.27115
                        -----------------------------------------
Total Dipole Moment    :      0.21231      -0.55557       0.16099
                        -----------------------------------------
Magnitude (a.u.)       :      0.61616
Magnitude (Debye)      :      1.56615

Rotational constants in cm-1:     0.023650     0.007479     0.006620
Rotational constants in MHz :   709.000007   224.204808   198.458174

                             ****ORCA TERMINATED NORMALLY****
TOTAL RUN TIME: 0 days 0 hours 0 minutes 21 seconds 881 msec
