                         Program Version 4.2.1 -  RELEASE  -
|  1> ! wB97X-D3 SP def2-SVP
|  2> %pal
|  3> nprocs 24
|  4> end
|  5>
|  6> * xyz 0 1
|  7> S 	 -136.702 	 8.83533 	 -15.681
|  8> C 	 -137.274 	 10.4164 	 -15.2711
|  9> C 	 -136.297 	 11.2877 	 -14.8856
| 10> C 	 -135.032 	 10.6133 	 -14.7749
| 11> C 	 -135.055 	 9.26176 	 -15.0482
| 12> H 	 -134.153 	 11.012 	 -14.4116
| 13> C 	 -136.457 	 12.7675 	 -14.6915
| 14> H 	 -136.971 	 13.1878 	 -15.5608
| 15> H 	 -135.422 	 13.1293 	 -14.8144
| 16> C 	 -137.112 	 13.1908 	 -13.3813
| 17> H 	 -138.176 	 12.8341 	 -13.3924
| 18> H 	 -136.667 	 12.6838 	 -12.54
| 19> C 	 -137.169 	 14.6878 	 -13.1524
| 20> H 	 -137.767 	 14.861 	 -12.2505
| 21> H 	 -136.194 	 15.1362 	 -13.0685
| 22> H 	 -137.641 	 15.1962 	 -14.0174
| 23> S 	 -133.455 	 8.40814 	 -17.009
| 24> C 	 -131.904 	 7.80727 	 -16.5656
| 25> C 	 -131.709 	 7.69981 	 -15.2342
| 26> C 	 -132.808 	 8.27214 	 -14.5535
| 27> C 	 -133.92 	 8.45987 	 -15.3601
| 28> H 	 -130.843 	 7.24375 	 -14.852
| 29> C 	 -132.854 	 8.16062 	 -13.0226
| 30> H 	 -132.574 	 7.10479 	 -12.7339
| 31> H 	 -133.885 	 8.21673 	 -12.751
| 32> C 	 -131.968 	 9.19816 	 -12.2774
| 33> H 	 -132.205 	 10.1841 	 -12.689
| 34> H 	 -130.923 	 9.10571 	 -12.5149
| 35> C 	 -132.262 	 9.16858 	 -10.7906
| 36> H 	 -132.039 	 8.14763 	 -10.5476
| 37> H 	 -133.207 	 9.432 	 -10.4257
| 38> H 	 -131.548 	 9.70361 	 -10.3112
| 39> H 	 -138.266 	 10.6772 	 -15.3083
| 40> H 	 -131.25 	 7.32715 	 -17.277
| 41> *
| 42>
| 43>                          ****END OF INPUT****

CARTESIAN COORDINATES (ANGSTROEM)
---------------------------------
  S    -136.702000    8.835330  -15.681000
  C    -137.274000   10.416400  -15.271100
  C    -136.297000   11.287700  -14.885600
  C    -135.032000   10.613300  -14.774900
  C    -135.055000    9.261760  -15.048200
  H    -134.153000   11.012000  -14.411600
  C    -136.457000   12.767500  -14.691500
  H    -136.971000   13.187800  -15.560800
  H    -135.422000   13.129300  -14.814400
  C    -137.112000   13.190800  -13.381300
  H    -138.176000   12.834100  -13.392400
  H    -136.667000   12.683800  -12.540000
  C    -137.169000   14.687800  -13.152400
  H    -137.767000   14.861000  -12.250500
  H    -136.194000   15.136200  -13.068500
  H    -137.641000   15.196200  -14.017400
  S    -133.455000    8.408140  -17.009000
  C    -131.904000    7.807270  -16.565600
  C    -131.709000    7.699810  -15.234200
  C    -132.808000    8.272140  -14.553500
  C    -133.920000    8.459870  -15.360100
  H    -130.843000    7.243750  -14.852000
  C    -132.854000    8.160620  -13.022600
  H    -132.574000    7.104790  -12.733900
  H    -133.885000    8.216730  -12.751000
  C    -131.968000    9.198160  -12.277400
  H    -132.205000   10.184100  -12.689000
  H    -130.923000    9.105710  -12.514900
  C    -132.262000    9.168580  -10.790600
  H    -132.039000    8.147630  -10.547600
  H    -133.207000    9.432000  -10.425700
  H    -131.548000    9.703610  -10.311200
  H    -138.266000   10.677200  -15.308300
  H    -131.250000    7.327150  -17.277000

 Total Charge           Charge          ....    0
 Multiplicity           Mult            ....    1
 Number of Electrons    NEL             ....  134
 Basis Dimension        Dim             ....  322

ORBITAL ENERGIES
----------------

  NO   OCC          E(Eh)            E(eV)
   0   2.0000     -88.961753     -2420.7724
   1   2.0000     -88.961047     -2420.7532
   2   2.0000     -10.325123      -280.9609
   3   2.0000     -10.315651      -280.7031
   4   2.0000     -10.308099      -280.4976
   5   2.0000     -10.305570      -280.4288
   6   2.0000     -10.297372      -280.2057
   7   2.0000     -10.296248      -280.1751
   8   2.0000     -10.291968      -280.0587
   9   2.0000     -10.289693      -279.9968
  10   2.0000     -10.288900      -279.9752
  11   2.0000     -10.288073      -279.9527
  12   2.0000     -10.284397      -279.8527
  13   2.0000     -10.284271      -279.8492
  14   2.0000     -10.279007      -279.7060
  15   2.0000     -10.261643      -279.2335
  16   2.0000      -8.077396      -219.7971
  17   2.0000      -8.076177      -219.7640
  18   2.0000      -6.035829      -164.2433
  19   2.0000      -6.034677      -164.2119
  20   2.0000      -6.031721      -164.1315
  21   2.0000      -6.030763      -164.1054
  22   2.0000      -6.028072      -164.0322
  23   2.0000      -6.026958      -164.0019
  24   2.0000      -1.014252       -27.5992
  25   2.0000      -0.985519       -26.8173
  26   2.0000      -0.913384       -24.8544
  27   2.0000      -0.907797       -24.7024
  28   2.0000      -0.878259       -23.8986
  29   2.0000      -0.856167       -23.2975
  30   2.0000      -0.850105       -23.1325
  31   2.0000      -0.818008       -22.2591
  32   2.0000      -0.782203       -21.2848
  33   2.0000      -0.769515       -20.9396
  34   2.0000      -0.708774       -19.2867
  35   2.0000      -0.702684       -19.1210
  36   2.0000      -0.698542       -19.0083
  37   2.0000      -0.664248       -18.0751
  38   2.0000      -0.648729       -17.6528
  39   2.0000      -0.619067       -16.8457
  40   2.0000      -0.596975       -16.2445
  41   2.0000      -0.570118       -15.5137
  42   2.0000      -0.563588       -15.3360
  43   2.0000      -0.560424       -15.2499
  44   2.0000      -0.533095       -14.5063
  45   2.0000      -0.528352       -14.3772
  46   2.0000      -0.524138       -14.2625
  47   2.0000      -0.516048       -14.0424
  48   2.0000      -0.505320       -13.7505
  49   2.0000      -0.503072       -13.6893
  50   2.0000      -0.487656       -13.2698
  51   2.0000      -0.484455       -13.1827
  52   2.0000      -0.473313       -12.8795
  53   2.0000      -0.464538       -12.6407
  54   2.0000      -0.459084       -12.4923
  55   2.0000      -0.450030       -12.2459
  56   2.0000      -0.445172       -12.1138
  57   2.0000      -0.439284       -11.9535
  58   2.0000      -0.433863       -11.8060
  59   2.0000      -0.424574       -11.5532
  60   2.0000      -0.418424       -11.3859
  61   2.0000      -0.414789       -11.2870
  62   2.0000      -0.412525       -11.2254
  63   2.0000      -0.349466        -9.5095
  64   2.0000      -0.327368        -8.9081
  65   2.0000      -0.324411        -8.8277
  66   2.0000      -0.296783        -8.0759
  67   0.0000       0.034120         0.9285
  68   0.0000       0.062596         1.7033
  69   0.0000       0.111204         3.0260
  70   0.0000       0.119467         3.2509
  71   0.0000       0.131501         3.5783

MULLIKEN ATOMIC CHARGES
-----------------------
   0 S :    0.086772
   1 C :   -0.077365
   2 C :   -0.084410
   3 C :    0.060509
   4 C :   -0.159132
   5 H :   -0.019856
   6 C :    0.067398
   7 H :    0.029820
   8 H :    0.017781
   9 C :   -0.078114
  10 H :    0.027960
  11 H :    0.027620
  12 C :   -0.030041
  13 H :    0.040821
  14 H :    0.027795
  15 H :    0.028043
  16 S :    0.113980
  17 C :   -0.079774
  18 C :   -0.002948
  19 C :   -0.059722
  20 C :   -0.122124
  21 H :    0.004426
  22 C :    0.026717
  23 H :    0.032773
  24 H :    0.017768
  25 C :   -0.080929
  26 H :    0.014959
  27 H :    0.022530
  28 C :    0.049401
  29 H :    0.006919
  30 H :    0.029286
  31 H :    0.000131
  32 H :    0.012231
  33 H :    0.048776
Sum of atomic charges:   -0.0000000

LOEWDIN ATOMIC CHARGES
----------------------
   0 S :    0.377558
   1 C :   -0.175845
   2 C :   -0.065291
   3 C :   -0.037191
   4 C :   -0.182919
   5 H :    0.017416
   6 C :   -0.035353
   7 H :    0.032764
   8 H :    0.032107
   9 C :   -0.042985
  10 H :    0.028309
  11 H :    0.023045
  12 C :   -0.064830
  13 H :    0.030453
  14 H :    0.020851
  15 H :    0.027431
  16 S :    0.432892
  17 C :   -0.184308
  18 C :   -0.063889
  19 C :   -0.053987
  20 C :   -0.222647
  21 H :    0.027207
  22 C :   -0.029636
  23 H :    0.033748
  24 H :    0.024124
  25 C :   -0.035800
  26 H :    0.018451
  27 H :    0.021822
  28 C :   -0.048098
  29 H :    0.025643
  30 H :    0.021312
  31 H :    0.013330
  32 H :    0.009716
  33 H :    0.024601

  Mayer bond orders larger than 0.100000
B(  0-S ,  1-C ) :   1.1491 B(  0-S ,  4-C ) :   1.1174 B(  1-C ,  2-C ) :   1.6175
B(  1-C , 32-H ) :   0.9763 B(  2-C ,  3-C ) :   1.2356 B(  2-C ,  6-C ) :   1.0133
B(  3-C ,  4-C ) :   1.5881 B(  3-C ,  5-H ) :   1.0039 B(  4-C , 20-C ) :   1.0236
B(  6-C ,  7-H ) :   0.9372 B(  6-C ,  8-H ) :   0.9403 B(  6-C ,  9-C ) :   1.0632
B(  9-C , 10-H ) :   0.9531 B(  9-C , 11-H ) :   0.9554 B(  9-C , 12-C ) :   1.0888
B( 12-C , 13-H ) :   0.9732 B( 12-C , 14-H ) :   0.9749 B( 12-C , 15-H ) :   0.9714
B( 16-S , 17-C ) :   1.1721 B( 16-S , 20-C ) :   1.1464 B( 17-C , 18-C ) :   1.6161
B( 17-C , 33-H ) :   0.9604 B( 18-C , 19-C ) :   1.2231 B( 18-C , 21-H ) :   1.0026
B( 19-C , 20-C ) :   1.5882 B( 19-C , 22-C ) :   1.0460 B( 22-C , 23-H ) :   0.9447
B( 22-C , 24-H ) :   0.9488 B( 22-C , 25-C ) :   1.0423 B( 25-C , 26-H ) :   0.9549
B( 25-C , 27-H ) :   0.9559 B( 25-C , 28-C ) :   1.0848 B( 28-C , 29-H ) :   0.9676
B( 28-C , 30-H ) :   0.9768 B( 28-C , 31-H ) :   0.9669

Dispersion correction           -0.013837148
FINAL SINGLE POINT ENERGY     -1339.862571306764

DIPOLE MOMENT
-------------
                                X             Y             Z
Electronic contribution:     -2.38750     -18.01066     -23.17514
Nuclear contribution   :      2.67924      18.43433      23.57947
                        -----------------------------------------
Total Dipole Moment    :      0.29174       0.42367       0.40433
                        -----------------------------------------
Magnitude (a.u.)       :      0.65429
Magnitude (Debye)      :      1.66307

Rotational constants in cm-1:     0.017030     0.008669     0.006571
Rotational constants in MHz :   510.559313   259.892378   196.998518

                             ****ORCA TERMINATED NORMALLY****
TOTAL RUN TIME: 0 days 0 hours 0 minutes 21 seconds 467 msec
