                         Program Version 4.2.1 -  RELEASE  -
|  1> ! wB97X-D3 SP def2-SVP
|  2> %pal
|  3> nprocs 24
|  4> end
|  5>
|  6> * xyz 0 1
|  7> S 	 44.1231 	 -18.5057 	 -110.274
|  8> C 	 45.7771 	 -17.7585 	 -110.492
|  9> C 	 46.6224 	 -17.9797 	 -109.396
| 10> C 	 46.0042 	 -18.873 	 -108.458
| 11> C 	 44.6964 	 -19.1692 	 -108.761
| 12> H 	 46.3983 	 -19.248 	 -107.588
| 13> C 	 47.9728 	 -17.2966 	 -109.257
| 14> H 	 48.4435 	 -17.3942 	 -108.26
| 15> H 	 47.6215 	 -16.2581 	 -109.337
| 16> C 	 49.0296 	 -17.6529 	 -110.335
| 17> H 	 48.6554 	 -17.2609 	 -111.258
| 18> H 	 49.9129 	 -17.1194 	 -110.041
| 19> C 	 49.3552 	 -19.1963 	 -110.357
| 20> H 	 49.9863 	 -19.6442 	 -109.556
| 21> H 	 48.42 	 -19.8009 	 -110.417
| 22> H 	 49.8775 	 -19.4214 	 -111.276
| 23> S 	 42.1861 	 -19.2304 	 -107.594
| 24> C 	 41.725 	 -20.762 	 -106.884
| 25> C 	 42.7163 	 -21.6838 	 -106.892
| 26> C 	 43.8887 	 -21.2269 	 -107.574
| 27> C 	 43.6876 	 -19.9677 	 -108.026
| 28> H 	 42.5414 	 -22.7118 	 -106.587
| 29> C 	 45.1171 	 -22.1662 	 -107.768
| 30> H 	 45.4394 	 -22.5024 	 -106.817
| 31> H 	 45.9366 	 -21.611 	 -108.198
| 32> C 	 44.829 	 -23.4205 	 -108.675
| 33> H 	 44.1453 	 -24.1368 	 -108.203
| 34> H 	 45.7418 	 -23.9942 	 -108.708
| 35> C 	 44.3688 	 -23.1396 	 -110.143
| 36> H 	 45.2658 	 -22.7746 	 -110.799
| 37> H 	 43.773 	 -22.2392 	 -110.115
| 38> H 	 43.9699 	 -23.9187 	 -110.771
| 39> H 	 45.9546 	 -17.0874 	 -111.371
| 40> H 	 40.7564 	 -21.0096 	 -106.69
| 41> *
| 42>
| 43>                          ****END OF INPUT****

CARTESIAN COORDINATES (ANGSTROEM)
---------------------------------
  S     44.123100  -18.505700  -110.274000
  C     45.777100  -17.758500  -110.492000
  C     46.622400  -17.979700  -109.396000
  C     46.004200  -18.873000  -108.458000
  C     44.696400  -19.169200  -108.761000
  H     46.398300  -19.248000  -107.588000
  C     47.972800  -17.296600  -109.257000
  H     48.443500  -17.394200  -108.260000
  H     47.621500  -16.258100  -109.337000
  C     49.029600  -17.652900  -110.335000
  H     48.655400  -17.260900  -111.258000
  H     49.912900  -17.119400  -110.041000
  C     49.355200  -19.196300  -110.357000
  H     49.986300  -19.644200  -109.556000
  H     48.420000  -19.800900  -110.417000
  H     49.877500  -19.421400  -111.276000
  S     42.186100  -19.230400  -107.594000
  C     41.725000  -20.762000  -106.884000
  C     42.716300  -21.683800  -106.892000
  C     43.888700  -21.226900  -107.574000
  C     43.687600  -19.967700  -108.026000
  H     42.541400  -22.711800  -106.587000
  C     45.117100  -22.166200  -107.768000
  H     45.439400  -22.502400  -106.817000
  H     45.936600  -21.611000  -108.198000
  C     44.829000  -23.420500  -108.675000
  H     44.145300  -24.136800  -108.203000
  H     45.741800  -23.994200  -108.708000
  C     44.368800  -23.139600  -110.143000
  H     45.265800  -22.774600  -110.799000
  H     43.773000  -22.239200  -110.115000
  H     43.969900  -23.918700  -110.771000
  H     45.954600  -17.087400  -111.371000
  H     40.756400  -21.009600  -106.690000

 Total Charge           Charge          ....    0
 Multiplicity           Mult            ....    1
 Number of Electrons    NEL             ....  134
 Basis Dimension        Dim             ....  322

ORBITAL ENERGIES
----------------

  NO   OCC          E(Eh)            E(eV)
   0   2.0000     -88.966454     -2420.9003
   1   2.0000     -88.964641     -2420.8510
   2   2.0000     -10.326572      -281.0003
   3   2.0000     -10.320494      -280.8349
   4   2.0000     -10.320165      -280.8260
   5   2.0000     -10.308135      -280.4986
   6   2.0000     -10.305803      -280.4352
   7   2.0000     -10.298646      -280.2404
   8   2.0000     -10.295857      -280.1645
   9   2.0000     -10.295570      -280.1567
  10   2.0000     -10.291184      -280.0374
  11   2.0000     -10.290150      -280.0092
  12   2.0000     -10.289653      -279.9957
  13   2.0000     -10.289365      -279.9879
  14   2.0000     -10.282781      -279.8087
  15   2.0000     -10.278110      -279.6816
  16   2.0000      -8.081834      -219.9179
  17   2.0000      -8.078390      -219.8242
  18   2.0000      -6.040233      -164.3631
  19   2.0000      -6.036817      -164.2702
  20   2.0000      -6.036510      -164.2618
  21   2.0000      -6.033154      -164.1705
  22   2.0000      -6.032414      -164.1503
  23   2.0000      -6.029176      -164.0622
  24   2.0000      -1.008876       -27.4529
  25   2.0000      -0.979016       -26.6404
  26   2.0000      -0.908289       -24.7158
  27   2.0000      -0.899658       -24.4809
  28   2.0000      -0.862459       -23.4687
  29   2.0000      -0.846952       -23.0467
  30   2.0000      -0.840521       -22.8717
  31   2.0000      -0.812610       -22.1123
  32   2.0000      -0.784725       -21.3534
  33   2.0000      -0.772844       -21.0302
  34   2.0000      -0.707855       -19.2617
  35   2.0000      -0.700439       -19.0599
  36   2.0000      -0.694457       -18.8971
  37   2.0000      -0.660623       -17.9765
  38   2.0000      -0.639562       -17.4034
  39   2.0000      -0.613353       -16.6902
  40   2.0000      -0.598302       -16.2806
  41   2.0000      -0.576375       -15.6840
  42   2.0000      -0.553975       -15.0744
  43   2.0000      -0.546113       -14.8605
  44   2.0000      -0.539442       -14.6790
  45   2.0000      -0.526263       -14.3204
  46   2.0000      -0.512307       -13.9406
  47   2.0000      -0.506821       -13.7913
  48   2.0000      -0.500940       -13.6313
  49   2.0000      -0.489654       -13.3242
  50   2.0000      -0.484271       -13.1777
  51   2.0000      -0.480591       -13.0776
  52   2.0000      -0.464233       -12.6324
  53   2.0000      -0.459072       -12.4920
  54   2.0000      -0.455296       -12.3892
  55   2.0000      -0.446969       -12.1626
  56   2.0000      -0.444126       -12.0853
  57   2.0000      -0.442296       -12.0355
  58   2.0000      -0.435715       -11.8564
  59   2.0000      -0.425721       -11.5844
  60   2.0000      -0.425015       -11.5652
  61   2.0000      -0.420344       -11.4382
  62   2.0000      -0.406591       -11.0639
  63   2.0000      -0.341135        -9.2827
  64   2.0000      -0.333643        -9.0789
  65   2.0000      -0.330741        -8.9999
  66   2.0000      -0.295064        -8.0291
  67   0.0000       0.034129         0.9287
  68   0.0000       0.070455         1.9172
  69   0.0000       0.103160         2.8071
  70   0.0000       0.118459         3.2234
  71   0.0000       0.129327         3.5192

MULLIKEN ATOMIC CHARGES
-----------------------
   0 S :    0.091347
   1 C :   -0.162300
   2 C :   -0.077778
   3 C :    0.081325
   4 C :   -0.171055
   5 H :   -0.027222
   6 C :    0.030748
   7 H :    0.028060
   8 H :    0.046234
   9 C :   -0.028257
  10 H :    0.026158
  11 H :    0.031302
  12 C :   -0.086868
  13 H :    0.041584
  14 H :    0.048095
  15 H :    0.030565
  16 S :    0.120930
  17 C :   -0.052163
  18 C :   -0.027600
  19 C :   -0.056754
  20 C :   -0.167489
  21 H :    0.019959
  22 C :    0.125368
  23 H :    0.021673
  24 H :    0.018221
  25 C :   -0.079284
  26 H :    0.026510
  27 H :    0.024293
  28 C :   -0.070109
  29 H :    0.027846
  30 H :    0.037351
  31 H :    0.043334
  32 H :    0.066272
  33 H :    0.019704
Sum of atomic charges:    0.0000000

LOEWDIN ATOMIC CHARGES
----------------------
   0 S :    0.372943
   1 C :   -0.190422
   2 C :   -0.053261
   3 C :   -0.058920
   4 C :   -0.176698
   5 H :    0.017294
   6 C :   -0.037642
   7 H :    0.030726
   8 H :    0.039916
   9 C :   -0.027872
  10 H :    0.020404
  11 H :    0.024342
  12 C :   -0.075714
  13 H :    0.029940
  14 H :    0.031205
  15 H :    0.024761
  16 S :    0.407976
  17 C :   -0.167582
  18 C :   -0.060202
  19 C :   -0.060473
  20 C :   -0.212252
  21 H :    0.032424
  22 C :   -0.015277
  23 H :    0.028586
  24 H :    0.027685
  25 C :   -0.040273
  26 H :    0.020672
  27 H :    0.022222
  28 C :   -0.077157
  29 H :    0.034257
  30 H :    0.024176
  31 H :    0.024952
  32 H :    0.030781
  33 H :    0.008483

  Mayer bond orders larger than 0.100000
B(  0-S ,  1-C ) :   1.1168 B(  0-S ,  4-C ) :   1.1572 B(  1-C ,  2-C ) :   1.6219
B(  1-C ,  4-C ) :   0.1022 B(  1-C , 32-H ) :   0.9662 B(  2-C ,  3-C ) :   1.2043
B(  2-C ,  6-C ) :   0.9932 B(  3-C ,  4-C ) :   1.6049 B(  3-C ,  5-H ) :   1.0094
B(  4-C , 20-C ) :   0.9853 B(  6-C ,  7-H ) :   0.9506 B(  6-C ,  8-H ) :   0.9420
B(  6-C ,  9-C ) :   1.0754 B(  9-C , 10-H ) :   0.9584 B(  9-C , 11-H ) :   0.9576
B(  9-C , 12-C ) :   1.0640 B( 12-C , 13-H ) :   0.9773 B( 12-C , 14-H ) :   0.9747
B( 12-C , 15-H ) :   0.9760 B( 16-S , 17-C ) :   1.1278 B( 16-S , 20-C ) :   1.1476
B( 17-C , 18-C ) :   1.6538 B( 17-C , 33-H ) :   0.9751 B( 18-C , 19-C ) :   1.2091
B( 18-C , 21-H ) :   0.9867 B( 19-C , 20-C ) :   1.6474 B( 19-C , 22-C ) :   1.0359
B( 22-C , 23-H ) :   0.9319 B( 22-C , 24-H ) :   0.9326 B( 22-C , 25-C ) :   1.0734
B( 25-C , 26-H ) :   0.9594 B( 25-C , 27-H ) :   0.9571 B( 25-C , 28-C ) :   1.0552
B( 28-C , 29-H ) :   0.9733 B( 28-C , 30-H ) :   0.9786 B( 28-C , 31-H ) :   0.9782

Dispersion correction           -0.015273605
FINAL SINGLE POINT ENERGY     -1339.870213228649

DIPOLE MOMENT
-------------
                                X             Y             Z
Electronic contribution:    -22.73599      11.53607       6.24572
Nuclear contribution   :     23.26552     -11.78594      -6.17006
                        -----------------------------------------
Total Dipole Moment    :      0.52953      -0.24986       0.07566
                        -----------------------------------------
Magnitude (a.u.)       :      0.59039
Magnitude (Debye)      :      1.50064

Rotational constants in cm-1:     0.020631     0.008832     0.007272
Rotational constants in MHz :   618.501624   264.791439   217.996203

                             ****ORCA TERMINATED NORMALLY****
TOTAL RUN TIME: 0 days 0 hours 0 minutes 22 seconds 224 msec
