                         Program Version 4.2.1 -  RELEASE  -
|  1> ! wB97X-D3 SP def2-SVP
|  2> %pal
|  3> nprocs 24
|  4> end
|  5>
|  6> * xyz 0 1
|  7> S 	 -151.496 	 5.87502 	 3.18821
|  8> C 	 -151.495 	 5.09962 	 4.74096
|  9> C 	 -150.957 	 5.90772 	 5.76087
| 10> C 	 -150.432 	 7.10153 	 5.19302
| 11> C 	 -150.456 	 7.16208 	 3.81532
| 12> H 	 -149.871 	 7.91424 	 5.71453
| 13> C 	 -151.129 	 5.58716 	 7.25979
| 14> H 	 -150.461 	 6.0938 	 7.89445
| 15> H 	 -150.955 	 4.55498 	 7.32426
| 16> C 	 -152.528 	 5.86405 	 7.69515
| 17> H 	 -153.267 	 5.51632 	 6.96378
| 18> H 	 -152.783 	 5.27236 	 8.56583
| 19> C 	 -152.698 	 7.36548 	 7.85283
| 20> H 	 -152.031 	 8.02758 	 8.38884
| 21> H 	 -152.76 	 7.6986 	 6.77693
| 22> H 	 -153.739 	 7.57575 	 8.16397
| 23> S 	 -151.072 	 9.13732 	 1.98906
| 24> C 	 -149.799 	 10.1716 	 1.30969
| 25> C 	 -148.61 	 9.93478 	 1.96838
| 26> C 	 -148.606 	 8.78073 	 2.83019
| 27> C 	 -149.928 	 8.27167 	 2.99941
| 28> H 	 -147.74 	 10.4934 	 1.69482
| 29> C 	 -147.351 	 8.4628 	 3.55211
| 30> H 	 -147.573 	 7.84537 	 4.47662
| 31> H 	 -146.933 	 9.46167 	 3.90929
| 32> C 	 -146.275 	 7.60901 	 2.74811
| 33> H 	 -145.917 	 8.05109 	 1.9093
| 34> H 	 -146.741 	 6.70403 	 2.2811
| 35> C 	 -145.043 	 7.23245 	 3.50042
| 36> H 	 -144.42 	 8.04896 	 3.87713
| 37> H 	 -144.422 	 6.57638 	 2.98619
| 38> H 	 -145.372 	 6.59126 	 4.33852
| 39> H 	 -152.029 	 4.23519 	 5.07381
| 40> H 	 -150.092 	 10.9064 	 0.526207
| 41> *
| 42>
| 43>                          ****END OF INPUT****

CARTESIAN COORDINATES (ANGSTROEM)
---------------------------------
  S    -151.496000    5.875020    3.188210
  C    -151.495000    5.099620    4.740960
  C    -150.957000    5.907720    5.760870
  C    -150.432000    7.101530    5.193020
  C    -150.456000    7.162080    3.815320
  H    -149.871000    7.914240    5.714530
  C    -151.129000    5.587160    7.259790
  H    -150.461000    6.093800    7.894450
  H    -150.955000    4.554980    7.324260
  C    -152.528000    5.864050    7.695150
  H    -153.267000    5.516320    6.963780
  H    -152.783000    5.272360    8.565830
  C    -152.698000    7.365480    7.852830
  H    -152.031000    8.027580    8.388840
  H    -152.760000    7.698600    6.776930
  H    -153.739000    7.575750    8.163970
  S    -151.072000    9.137320    1.989060
  C    -149.799000   10.171600    1.309690
  C    -148.610000    9.934780    1.968380
  C    -148.606000    8.780730    2.830190
  C    -149.928000    8.271670    2.999410
  H    -147.740000   10.493400    1.694820
  C    -147.351000    8.462800    3.552110
  H    -147.573000    7.845370    4.476620
  H    -146.933000    9.461670    3.909290
  C    -146.275000    7.609010    2.748110
  H    -145.917000    8.051090    1.909300
  H    -146.741000    6.704030    2.281100
  C    -145.043000    7.232450    3.500420
  H    -144.420000    8.048960    3.877130
  H    -144.422000    6.576380    2.986190
  H    -145.372000    6.591260    4.338520
  H    -152.029000    4.235190    5.073810
  H    -150.092000   10.906400    0.526207

 Total Charge           Charge          ....    0
 Multiplicity           Mult            ....    1
 Number of Electrons    NEL             ....  134
 Basis Dimension        Dim             ....  322

ORBITAL ENERGIES
----------------

  NO   OCC          E(Eh)            E(eV)
   0   2.0000     -88.970495     -2421.0102
   1   2.0000     -88.963153     -2420.8105
   2   2.0000     -10.333019      -281.1757
   3   2.0000     -10.329412      -281.0776
   4   2.0000     -10.323366      -280.9131
   5   2.0000     -10.313260      -280.6381
   6   2.0000     -10.308043      -280.4961
   7   2.0000     -10.303352      -280.3685
   8   2.0000     -10.303328      -280.3678
   9   2.0000     -10.296122      -280.1717
  10   2.0000     -10.294649      -280.1317
  11   2.0000     -10.284356      -279.8515
  12   2.0000     -10.282957      -279.8135
  13   2.0000     -10.279936      -279.7313
  14   2.0000     -10.276753      -279.6447
  15   2.0000     -10.270026      -279.4616
  16   2.0000      -8.084702      -219.9959
  17   2.0000      -8.077701      -219.8054
  18   2.0000      -6.043182      -164.4433
  19   2.0000      -6.039413      -164.3408
  20   2.0000      -6.036134      -164.2516
  21   2.0000      -6.035383      -164.2311
  22   2.0000      -6.032197      -164.1444
  23   2.0000      -6.028603      -164.0466
  24   2.0000      -1.002063       -27.2675
  25   2.0000      -0.980602       -26.6835
  26   2.0000      -0.921461       -25.0742
  27   2.0000      -0.905438       -24.6382
  28   2.0000      -0.865415       -23.5491
  29   2.0000      -0.856411       -23.3041
  30   2.0000      -0.843940       -22.9648
  31   2.0000      -0.813710       -22.1422
  32   2.0000      -0.782850       -21.3024
  33   2.0000      -0.767433       -20.8829
  34   2.0000      -0.706999       -19.2384
  35   2.0000      -0.702549       -19.1173
  36   2.0000      -0.691517       -18.8171
  37   2.0000      -0.660606       -17.9760
  38   2.0000      -0.638479       -17.3739
  39   2.0000      -0.613887       -16.7047
  40   2.0000      -0.596943       -16.2437
  41   2.0000      -0.577090       -15.7034
  42   2.0000      -0.560154       -15.2426
  43   2.0000      -0.556893       -15.1538
  44   2.0000      -0.537078       -14.6146
  45   2.0000      -0.526222       -14.3192
  46   2.0000      -0.518008       -14.0957
  47   2.0000      -0.513944       -13.9851
  48   2.0000      -0.506229       -13.7752
  49   2.0000      -0.496822       -13.5192
  50   2.0000      -0.484730       -13.1902
  51   2.0000      -0.475895       -12.9498
  52   2.0000      -0.468170       -12.7396
  53   2.0000      -0.460460       -12.5298
  54   2.0000      -0.453014       -12.3271
  55   2.0000      -0.451688       -12.2910
  56   2.0000      -0.445755       -12.1296
  57   2.0000      -0.437640       -11.9088
  58   2.0000      -0.431095       -11.7307
  59   2.0000      -0.427688       -11.6380
  60   2.0000      -0.422037       -11.4842
  61   2.0000      -0.411392       -11.1945
  62   2.0000      -0.410385       -11.1672
  63   2.0000      -0.343450        -9.3457
  64   2.0000      -0.330698        -8.9988
  65   2.0000      -0.326374        -8.8811
  66   2.0000      -0.292179        -7.9506
  67   0.0000       0.028250         0.7687
  68   0.0000       0.063021         1.7149
  69   0.0000       0.105630         2.8743
  70   0.0000       0.120934         3.2908
  71   0.0000       0.133547         3.6340

MULLIKEN ATOMIC CHARGES
-----------------------
   0 S :    0.128092
   1 C :   -0.091591
   2 C :   -0.145186
   3 C :    0.028666
   4 C :   -0.166443
   5 H :    0.031600
   6 C :    0.145408
   7 H :    0.011328
   8 H :    0.008700
   9 C :   -0.055339
  10 H :    0.021851
  11 H :    0.023159
  12 C :   -0.079939
  13 H :    0.041650
  14 H :    0.044342
  15 H :    0.026226
  16 S :    0.087078
  17 C :   -0.118056
  18 C :   -0.014840
  19 C :   -0.008146
  20 C :   -0.165090
  21 H :    0.019476
  22 C :    0.003712
  23 H :    0.031489
  24 H :    0.045925
  25 C :   -0.037930
  26 H :   -0.005626
  27 H :    0.032493
  28 C :   -0.027248
  29 H :    0.033997
  30 H :    0.015171
  31 H :    0.020269
  32 H :    0.034450
  33 H :    0.080352
Sum of atomic charges:    0.0000000

LOEWDIN ATOMIC CHARGES
----------------------
   0 S :    0.410843
   1 C :   -0.201105
   2 C :   -0.057982
   3 C :   -0.065937
   4 C :   -0.199536
   5 H :    0.038216
   6 C :   -0.018833
   7 H :    0.024090
   8 H :    0.025533
   9 C :   -0.039807
  10 H :    0.027350
  11 H :    0.017852
  12 C :   -0.075466
  13 H :    0.022470
  14 H :    0.038812
  15 H :    0.027377
  16 S :    0.389007
  17 C :   -0.180237
  18 C :   -0.068157
  19 C :   -0.058481
  20 C :   -0.196528
  21 H :    0.028936
  22 C :   -0.038157
  23 H :    0.035247
  24 H :    0.041203
  25 C :   -0.038911
  26 H :    0.006322
  27 H :    0.035737
  28 C :   -0.063369
  29 H :    0.026313
  30 H :    0.019350
  31 H :    0.026855
  32 H :    0.023165
  33 H :    0.037826

  Mayer bond orders larger than 0.100000
B(  0-S ,  1-C ) :   1.1524 B(  0-S ,  4-C ) :   1.1419 B(  1-C ,  2-C ) :   1.5957
B(  1-C ,  4-C ) :   0.1011 B(  1-C , 32-H ) :   0.9618 B(  2-C ,  3-C ) :   1.2593
B(  2-C ,  6-C ) :   1.0251 B(  3-C ,  4-C ) :   1.5742 B(  3-C ,  5-H ) :   0.9819
B(  4-C , 20-C ) :   1.0368 B(  6-C ,  7-H ) :   0.9431 B(  6-C ,  8-H ) :   0.9246
B(  6-C ,  9-C ) :   1.0794 B(  9-C , 10-H ) :   0.9521 B(  9-C , 11-H ) :   0.9550
B(  9-C , 12-C ) :   1.0677 B( 12-C , 13-H ) :   0.9807 B( 12-C , 14-H ) :   0.9717
B( 12-C , 15-H ) :   0.9691 B( 16-S , 17-C ) :   1.1481 B( 16-S , 20-C ) :   1.1534
B( 17-C , 18-C ) :   1.5976 B( 17-C , 33-H ) :   0.9664 B( 18-C , 19-C ) :   1.2389
B( 18-C , 21-H ) :   0.9894 B( 19-C , 20-C ) :   1.5695 B( 19-C , 22-C ) :   1.0569
B( 22-C , 23-H ) :   0.9362 B( 22-C , 24-H ) :   0.9397 B( 22-C , 25-C ) :   1.0436
B( 25-C , 26-H ) :   0.9523 B( 25-C , 27-H ) :   0.9497 B( 25-C , 28-C ) :   1.1014
B( 28-C , 29-H ) :   0.9722 B( 28-C , 30-H ) :   0.9685 B( 28-C , 31-H ) :   0.9712

Dispersion correction           -0.014052952
FINAL SINGLE POINT ENERGY     -1339.859214905232

DIPOLE MOMENT
-------------
                                X             Y             Z
Electronic contribution:    -12.72949       2.71666     -17.98575
Nuclear contribution   :     13.04252      -2.65212      18.36616
                        -----------------------------------------
Total Dipole Moment    :      0.31303       0.06453       0.38041
                        -----------------------------------------
Magnitude (a.u.)       :      0.49685
Magnitude (Debye)      :      1.26290

Rotational constants in cm-1:     0.018037     0.008276     0.006874
Rotational constants in MHz :   540.744946   248.121659   206.088516

                             ****ORCA TERMINATED NORMALLY****
TOTAL RUN TIME: 0 days 0 hours 0 minutes 21 seconds 302 msec
