                         Program Version 4.2.1 -  RELEASE  -
|  1> ! wB97X-D3 SP def2-SVP
|  2> %pal
|  3> nprocs 24
|  4> end
|  5>
|  6> * xyz 0 1
|  7> S 	 -54.8175 	 10.3602 	 -102.15
|  8> C 	 -55.3781 	 10.3769 	 -103.767
|  9> C 	 -55.1625 	 11.6397 	 -104.337
| 10> C 	 -54.5503 	 12.5625 	 -103.453
| 11> C 	 -54.2109 	 12.015 	 -102.184
| 12> H 	 -54.4015 	 13.5898 	 -103.616
| 13> C 	 -55.6217 	 12.0443 	 -105.689
| 14> H 	 -55.1013 	 11.4281 	 -106.424
| 15> H 	 -55.279 	 13.0477 	 -105.778
| 16> C 	 -57.1431 	 12.1955 	 -105.883
| 17> H 	 -57.6032 	 11.2982 	 -105.497
| 18> H 	 -57.4532 	 13.0992 	 -105.298
| 19> C 	 -57.4689 	 12.5871 	 -107.311
| 20> H 	 -58.4988 	 12.8285 	 -107.469
| 21> H 	 -56.8439 	 13.384 	 -107.718
| 22> H 	 -57.2886 	 11.786 	 -107.993
| 23> S 	 -54.5158 	 12.543 	 -99.5634
| 24> C 	 -53.6075 	 13.8109 	 -98.7941
| 25> C 	 -52.7253 	 14.3585 	 -99.6842
| 26> C 	 -52.7519 	 13.8235 	 -100.993
| 27> C 	 -53.6777 	 12.7194 	 -101.086
| 28> H 	 -52.0699 	 15.1184 	 -99.1927
| 29> C 	 -51.8167 	 14.4513 	 -102.028
| 30> H 	 -51.9087 	 13.8976 	 -102.922
| 31> H 	 -50.8734 	 14.1555 	 -101.591
| 32> C 	 -51.9541 	 16.012 	 -102.257
| 33> H 	 -51.3417 	 16.3613 	 -103.136
| 34> H 	 -51.4273 	 16.3834 	 -101.431
| 35> C 	 -53.3462 	 16.5819 	 -102.418
| 36> H 	 -53.9058 	 16.4094 	 -101.524
| 37> H 	 -53.899 	 16.0436 	 -103.222
| 38> H 	 -53.3301 	 17.5854 	 -102.792
| 39> H 	 -55.922 	 9.49579 	 -104.181
| 40> H 	 -53.6809 	 14.1335 	 -97.8269
| 41> *
| 42>
| 43>                          ****END OF INPUT****

CARTESIAN COORDINATES (ANGSTROEM)
---------------------------------
  S    -54.817500   10.360200  -102.150000
  C    -55.378100   10.376900  -103.767000
  C    -55.162500   11.639700  -104.337000
  C    -54.550300   12.562500  -103.453000
  C    -54.210900   12.015000  -102.184000
  H    -54.401500   13.589800  -103.616000
  C    -55.621700   12.044300  -105.689000
  H    -55.101300   11.428100  -106.424000
  H    -55.279000   13.047700  -105.778000
  C    -57.143100   12.195500  -105.883000
  H    -57.603200   11.298200  -105.497000
  H    -57.453200   13.099200  -105.298000
  C    -57.468900   12.587100  -107.311000
  H    -58.498800   12.828500  -107.469000
  H    -56.843900   13.384000  -107.718000
  H    -57.288600   11.786000  -107.993000
  S    -54.515800   12.543000  -99.563400
  C    -53.607500   13.810900  -98.794100
  C    -52.725300   14.358500  -99.684200
  C    -52.751900   13.823500  -100.993000
  C    -53.677700   12.719400  -101.086000
  H    -52.069900   15.118400  -99.192700
  C    -51.816700   14.451300  -102.028000
  H    -51.908700   13.897600  -102.922000
  H    -50.873400   14.155500  -101.591000
  C    -51.954100   16.012000  -102.257000
  H    -51.341700   16.361300  -103.136000
  H    -51.427300   16.383400  -101.431000
  C    -53.346200   16.581900  -102.418000
  H    -53.905800   16.409400  -101.524000
  H    -53.899000   16.043600  -103.222000
  H    -53.330100   17.585400  -102.792000
  H    -55.922000    9.495790  -104.181000
  H    -53.680900   14.133500  -97.826900

 Total Charge           Charge          ....    0
 Multiplicity           Mult            ....    1
 Number of Electrons    NEL             ....  134
 Basis Dimension        Dim             ....  322

ORBITAL ENERGIES
----------------

  NO   OCC          E(Eh)            E(eV)
   0   2.0000     -88.966885     -2420.9120
   1   2.0000     -88.964939     -2420.8591
   2   2.0000     -10.330480      -281.1067
   3   2.0000     -10.329428      -281.0780
   4   2.0000     -10.315947      -280.7112
   5   2.0000     -10.310745      -280.5696
   6   2.0000     -10.309030      -280.5230
   7   2.0000     -10.298664      -280.2409
   8   2.0000     -10.292713      -280.0790
   9   2.0000     -10.291981      -280.0591
  10   2.0000     -10.290929      -280.0304
  11   2.0000     -10.290100      -280.0079
  12   2.0000     -10.288041      -279.9518
  13   2.0000     -10.282968      -279.8138
  14   2.0000     -10.276508      -279.6380
  15   2.0000     -10.272505      -279.5291
  16   2.0000      -8.081777      -219.9163
  17   2.0000      -8.079905      -219.8654
  18   2.0000      -6.040181      -164.3617
  19   2.0000      -6.038383      -164.3128
  20   2.0000      -6.036042      -164.2491
  21   2.0000      -6.034249      -164.2003
  22   2.0000      -6.032869      -164.1627
  23   2.0000      -6.030797      -164.1063
  24   2.0000      -1.007391       -27.4125
  25   2.0000      -0.984654       -26.7938
  26   2.0000      -0.916028       -24.9264
  27   2.0000      -0.906980       -24.6802
  28   2.0000      -0.876325       -23.8460
  29   2.0000      -0.854618       -23.2553
  30   2.0000      -0.848742       -23.0954
  31   2.0000      -0.814960       -22.1762
  32   2.0000      -0.784367       -21.3437
  33   2.0000      -0.771481       -20.9931
  34   2.0000      -0.713372       -19.4118
  35   2.0000      -0.704504       -19.1705
  36   2.0000      -0.699627       -19.0378
  37   2.0000      -0.659696       -17.9512
  38   2.0000      -0.638918       -17.3858
  39   2.0000      -0.618099       -16.8193
  40   2.0000      -0.594087       -16.1659
  41   2.0000      -0.577061       -15.7026
  42   2.0000      -0.559530       -15.2256
  43   2.0000      -0.555475       -15.1152
  44   2.0000      -0.546503       -14.8711
  45   2.0000      -0.526026       -14.3139
  46   2.0000      -0.516805       -14.0630
  47   2.0000      -0.513428       -13.9711
  48   2.0000      -0.510359       -13.8876
  49   2.0000      -0.507914       -13.8210
  50   2.0000      -0.493219       -13.4212
  51   2.0000      -0.480365       -13.0714
  52   2.0000      -0.472131       -12.8473
  53   2.0000      -0.466417       -12.6919
  54   2.0000      -0.462930       -12.5970
  55   2.0000      -0.451899       -12.2968
  56   2.0000      -0.445501       -12.1227
  57   2.0000      -0.438542       -11.9333
  58   2.0000      -0.432270       -11.7627
  59   2.0000      -0.422849       -11.5063
  60   2.0000      -0.417995       -11.3742
  61   2.0000      -0.412721       -11.2307
  62   2.0000      -0.410665       -11.1748
  63   2.0000      -0.355987        -9.6869
  64   2.0000      -0.331377        -9.0172
  65   2.0000      -0.326785        -8.8923
  66   2.0000      -0.280333        -7.6283
  67   0.0000       0.019518         0.5311
  68   0.0000       0.076307         2.0764
  69   0.0000       0.115580         3.1451
  70   0.0000       0.122819         3.3421
  71   0.0000       0.131219         3.5707

MULLIKEN ATOMIC CHARGES
-----------------------
   0 S :    0.115604
   1 C :   -0.147847
   2 C :   -0.088348
   3 C :    0.045841
   4 C :   -0.150990
   5 H :   -0.021140
   6 C :    0.070922
   7 H :    0.038314
   8 H :   -0.002693
   9 C :   -0.067541
  10 H :    0.029175
  11 H :    0.035931
  12 C :   -0.015958
  13 H :    0.029659
  14 H :    0.023685
  15 H :    0.011735
  16 S :    0.102575
  17 C :   -0.061743
  18 C :   -0.070001
  19 C :   -0.063836
  20 C :   -0.139922
  21 H :    0.035127
  22 C :    0.098683
  23 H :    0.006775
  24 H :    0.038113
  25 C :   -0.077002
  26 H :    0.036047
  27 H :    0.016539
  28 C :   -0.024039
  29 H :    0.043310
  30 H :    0.025381
  31 H :    0.034110
  32 H :    0.073472
  33 H :    0.020061
Sum of atomic charges:    0.0000000

LOEWDIN ATOMIC CHARGES
----------------------
   0 S :    0.425657
   1 C :   -0.219805
   2 C :   -0.066641
   3 C :   -0.055131
   4 C :   -0.200065
   5 H :    0.019973
   6 C :   -0.034840
   7 H :    0.032400
   8 H :    0.024373
   9 C :   -0.033491
  10 H :    0.019142
  11 H :    0.032998
  12 C :   -0.065285
  13 H :    0.024002
  14 H :    0.027505
  15 H :    0.019501
  16 S :    0.417322
  17 C :   -0.177405
  18 C :   -0.082230
  19 C :   -0.053485
  20 C :   -0.205238
  21 H :    0.041166
  22 C :   -0.025821
  23 H :    0.018950
  24 H :    0.038378
  25 C :   -0.038526
  26 H :    0.032446
  27 H :    0.013880
  28 C :   -0.063293
  29 H :    0.026191
  30 H :    0.027867
  31 H :    0.027684
  32 H :    0.038914
  33 H :    0.012908

  Mayer bond orders larger than 0.100000
B(  0-S ,  1-C ) :   1.1658 B(  0-S ,  4-C ) :   1.1680 B(  1-C ,  2-C ) :   1.5265
B(  1-C ,  4-C ) :   0.1046 B(  1-C , 32-H ) :   0.9695 B(  2-C ,  3-C ) :   1.3145
B(  2-C ,  6-C ) :   1.0289 B(  3-C ,  4-C ) :   1.4929 B(  3-C ,  5-H ) :   0.9976
B(  4-C , 20-C ) :   1.0986 B(  6-C ,  7-H ) :   0.9381 B(  6-C ,  8-H ) :   0.9350
B(  6-C ,  9-C ) :   1.0591 B(  9-C , 10-H ) :   0.9621 B(  9-C , 11-H ) :   0.9558
B(  9-C , 12-C ) :   1.0814 B( 12-C , 13-H ) :   0.9736 B( 12-C , 14-H ) :   0.9702
B( 12-C , 15-H ) :   0.9719 B( 16-S , 17-C ) :   1.1592 B( 16-S , 20-C ) :   1.1529
B( 17-C , 18-C ) :   1.6076 B( 17-C , 20-C ) :   0.1051 B( 17-C , 33-H ) :   0.9768
B( 18-C , 19-C ) :   1.2494 B( 18-C , 21-H ) :   0.9839 B( 19-C , 20-C ) :   1.5272
B( 19-C , 22-C ) :   1.0231 B( 22-C , 23-H ) :   0.9346 B( 22-C , 24-H ) :   0.9433
B( 22-C , 25-C ) :   1.0505 B( 25-C , 26-H ) :   0.9586 B( 25-C , 27-H ) :   0.9535
B( 25-C , 28-C ) :   1.0870 B( 28-C , 29-H ) :   0.9686 B( 28-C , 30-H ) :   0.9707
B( 28-C , 31-H ) :   0.9691

Dispersion correction           -0.014384842
FINAL SINGLE POINT ENERGY     -1339.867390698988

DIPOLE MOMENT
-------------
                                X             Y             Z
Electronic contribution:      2.06555     -17.59486      22.54486
Nuclear contribution   :     -2.01665      18.16275     -22.91572
                        -----------------------------------------
Total Dipole Moment    :      0.04889       0.56789      -0.37086
                        -----------------------------------------
Magnitude (a.u.)       :      0.68002
Magnitude (Debye)      :      1.72846

Rotational constants in cm-1:     0.019130     0.008400     0.006487
Rotational constants in MHz :   573.513281   251.828159   194.465359

                             ****ORCA TERMINATED NORMALLY****
TOTAL RUN TIME: 0 days 0 hours 0 minutes 21 seconds 648 msec
