                         Program Version 4.2.1 -  RELEASE  -
|  1> ! wB97X-D3 SP def2-SVP
|  2> %pal
|  3> nprocs 24
|  4> end
|  5>
|  6> * xyz 0 1
|  7> S 	 -142.448 	 25.2157 	 -21.9406
|  8> C 	 -143.255 	 23.73 	 -21.3272
|  9> C 	 -143.587 	 23.9159 	 -19.9948
| 10> C 	 -143.245 	 25.2325 	 -19.4652
| 11> C 	 -142.571 	 26.0411 	 -20.3151
| 12> H 	 -143.55 	 25.6285 	 -18.5306
| 13> C 	 -144.388 	 22.973 	 -19.1213
| 14> H 	 -145.427 	 23.0368 	 -19.4084
| 15> H 	 -144.343 	 23.3198 	 -18.1458
| 16> C 	 -143.977 	 21.5029 	 -19.1853
| 17> H 	 -144.116 	 21.1132 	 -20.1556
| 18> H 	 -142.917 	 21.4526 	 -18.8964
| 19> C 	 -144.718 	 20.5342 	 -18.2093
| 20> H 	 -144.248 	 19.5773 	 -18.2476
| 21> H 	 -144.789 	 20.9149 	 -17.1503
| 22> H 	 -145.77 	 20.3756 	 -18.3911
| 23> S 	 -141.884 	 28.5148 	 -21.3655
| 24> C 	 -141.524 	 29.8677 	 -20.2826
| 25> C 	 -141.368 	 29.401 	 -18.9967
| 26> C 	 -141.63 	 27.9923 	 -18.8038
| 27> C 	 -142.043 	 27.3829 	 -19.9894
| 28> H 	 -141.1 	 30.0955 	 -18.1885
| 29> C 	 -141.511 	 27.3137 	 -17.4693
| 30> H 	 -140.948 	 26.4212 	 -17.4779
| 31> H 	 -142.538 	 27.018 	 -17.1334
| 32> C 	 -140.939 	 28.1445 	 -16.3174
| 33> H 	 -141.505 	 29.0354 	 -16.1342
| 34> H 	 -139.954 	 28.4561 	 -16.6642
| 35> C 	 -140.698 	 27.3607 	 -15.0216
| 36> H 	 -140.497 	 26.2893 	 -15.1629
| 37> H 	 -141.433 	 27.4452 	 -14.2978
| 38> H 	 -139.799 	 27.7083 	 -14.6262
| 39> H 	 -143.443 	 22.8751 	 -21.9822
| 40> H 	 -141.367 	 30.9369 	 -20.5546
| 41> *
| 42>
| 43>                          ****END OF INPUT****

CARTESIAN COORDINATES (ANGSTROEM)
---------------------------------
  S    -142.448000   25.215700  -21.940600
  C    -143.255000   23.730000  -21.327200
  C    -143.587000   23.915900  -19.994800
  C    -143.245000   25.232500  -19.465200
  C    -142.571000   26.041100  -20.315100
  H    -143.550000   25.628500  -18.530600
  C    -144.388000   22.973000  -19.121300
  H    -145.427000   23.036800  -19.408400
  H    -144.343000   23.319800  -18.145800
  C    -143.977000   21.502900  -19.185300
  H    -144.116000   21.113200  -20.155600
  H    -142.917000   21.452600  -18.896400
  C    -144.718000   20.534200  -18.209300
  H    -144.248000   19.577300  -18.247600
  H    -144.789000   20.914900  -17.150300
  H    -145.770000   20.375600  -18.391100
  S    -141.884000   28.514800  -21.365500
  C    -141.524000   29.867700  -20.282600
  C    -141.368000   29.401000  -18.996700
  C    -141.630000   27.992300  -18.803800
  C    -142.043000   27.382900  -19.989400
  H    -141.100000   30.095500  -18.188500
  C    -141.511000   27.313700  -17.469300
  H    -140.948000   26.421200  -17.477900
  H    -142.538000   27.018000  -17.133400
  C    -140.939000   28.144500  -16.317400
  H    -141.505000   29.035400  -16.134200
  H    -139.954000   28.456100  -16.664200
  C    -140.698000   27.360700  -15.021600
  H    -140.497000   26.289300  -15.162900
  H    -141.433000   27.445200  -14.297800
  H    -139.799000   27.708300  -14.626200
  H    -143.443000   22.875100  -21.982200
  H    -141.367000   30.936900  -20.554600

 Total Charge           Charge          ....    0
 Multiplicity           Mult            ....    1
 Number of Electrons    NEL             ....  134
 Basis Dimension        Dim             ....  322

ORBITAL ENERGIES
----------------

  NO   OCC          E(Eh)            E(eV)
   0   2.0000     -88.965501     -2420.8744
   1   2.0000     -88.962929     -2420.8044
   2   2.0000     -10.336369      -281.2669
   3   2.0000     -10.335425      -281.2412
   4   2.0000     -10.323701      -280.9222
   5   2.0000     -10.321639      -280.8661
   6   2.0000     -10.310459      -280.5619
   7   2.0000     -10.305920      -280.4383
   8   2.0000     -10.298117      -280.2260
   9   2.0000     -10.292771      -280.0805
  10   2.0000     -10.291268      -280.0397
  11   2.0000     -10.286457      -279.9087
  12   2.0000     -10.286415      -279.9076
  13   2.0000     -10.284151      -279.8460
  14   2.0000     -10.279793      -279.7274
  15   2.0000     -10.270872      -279.4846
  16   2.0000      -8.079385      -219.8512
  17   2.0000      -8.075913      -219.7568
  18   2.0000      -6.038120      -164.3056
  19   2.0000      -6.034862      -164.2169
  20   2.0000      -6.034023      -164.1941
  21   2.0000      -6.030764      -164.1054
  22   2.0000      -6.029946      -164.0832
  23   2.0000      -6.026204      -163.9813
  24   2.0000      -0.997725       -27.1495
  25   2.0000      -0.975212       -26.5369
  26   2.0000      -0.914675       -24.8896
  27   2.0000      -0.909130       -24.7387
  28   2.0000      -0.867898       -23.6167
  29   2.0000      -0.852915       -23.2090
  30   2.0000      -0.841489       -22.8981
  31   2.0000      -0.817006       -22.2319
  32   2.0000      -0.784999       -21.3609
  33   2.0000      -0.773193       -21.0396
  34   2.0000      -0.711580       -19.3631
  35   2.0000      -0.710645       -19.3376
  36   2.0000      -0.694368       -18.8947
  37   2.0000      -0.653592       -17.7852
  38   2.0000      -0.640569       -17.4308
  39   2.0000      -0.617126       -16.7929
  40   2.0000      -0.600878       -16.3507
  41   2.0000      -0.578486       -15.7414
  42   2.0000      -0.572625       -15.5819
  43   2.0000      -0.559149       -15.2152
  44   2.0000      -0.529406       -14.4059
  45   2.0000      -0.522442       -14.2164
  46   2.0000      -0.519801       -14.1445
  47   2.0000      -0.515739       -14.0340
  48   2.0000      -0.507737       -13.8162
  49   2.0000      -0.498746       -13.5716
  50   2.0000      -0.487680       -13.2705
  51   2.0000      -0.480672       -13.0797
  52   2.0000      -0.479295       -13.0423
  53   2.0000      -0.466582       -12.6963
  54   2.0000      -0.458205       -12.4684
  55   2.0000      -0.454535       -12.3685
  56   2.0000      -0.443239       -12.0611
  57   2.0000      -0.437317       -11.9000
  58   2.0000      -0.434750       -11.8301
  59   2.0000      -0.424350       -11.5472
  60   2.0000      -0.420744       -11.4490
  61   2.0000      -0.418198       -11.3797
  62   2.0000      -0.410038       -11.1577
  63   2.0000      -0.359629        -9.7860
  64   2.0000      -0.332380        -9.0445
  65   2.0000      -0.323858        -8.8126
  66   2.0000      -0.286612        -7.7991
  67   0.0000       0.019070         0.5189
  68   0.0000       0.076161         2.0725
  69   0.0000       0.096401         2.6232
  70   0.0000       0.124810         3.3963
  71   0.0000       0.137886         3.7521

MULLIKEN ATOMIC CHARGES
-----------------------
   0 S :    0.074606
   1 C :   -0.144645
   2 C :   -0.068699
   3 C :   -0.011643
   4 C :   -0.071410
   5 H :   -0.005637
   6 C :    0.120140
   7 H :    0.035673
   8 H :   -0.006851
   9 C :   -0.087202
  10 H :    0.024139
  11 H :    0.037973
  12 C :   -0.056241
  13 H :    0.036109
  14 H :    0.028187
  15 H :    0.021443
  16 S :    0.089437
  17 C :   -0.087261
  18 C :   -0.057790
  19 C :   -0.034691
  20 C :   -0.149881
  21 H :    0.029452
  22 C :    0.049407
  23 H :    0.028896
  24 H :    0.040562
  25 C :   -0.109442
  26 H :    0.031729
  27 H :    0.026047
  28 C :    0.022488
  29 H :    0.021477
  30 H :    0.022475
  31 H :    0.011700
  32 H :    0.066398
  33 H :    0.073057
Sum of atomic charges:   -0.0000000

LOEWDIN ATOMIC CHARGES
----------------------
   0 S :    0.340690
   1 C :   -0.180797
   2 C :   -0.055586
   3 C :   -0.064523
   4 C :   -0.158960
   5 H :    0.024935
   6 C :   -0.027191
   7 H :    0.034681
   8 H :    0.017506
   9 C :   -0.033621
  10 H :    0.016715
  11 H :    0.029700
  12 C :   -0.069677
  13 H :    0.024733
  14 H :    0.028827
  15 H :    0.020254
  16 S :    0.380365
  17 C :   -0.184319
  18 C :   -0.078063
  19 C :   -0.054956
  20 C :   -0.174754
  21 H :    0.035203
  22 C :   -0.033168
  23 H :    0.028260
  24 H :    0.034474
  25 C :   -0.037726
  26 H :    0.020143
  27 H :    0.023331
  28 C :   -0.053347
  29 H :    0.029776
  30 H :    0.016363
  31 H :    0.023026
  32 H :    0.034413
  33 H :    0.043294

  Mayer bond orders larger than 0.100000
B(  0-S ,  1-C ) :   1.1066 B(  0-S ,  4-C ) :   1.1055 B(  1-C ,  2-C ) :   1.6310
B(  1-C , 32-H ) :   0.9732 B(  2-C ,  3-C ) :   1.1991 B(  2-C ,  6-C ) :   1.0264
B(  3-C ,  4-C ) :   1.6242 B(  3-C ,  5-H ) :   0.9981 B(  4-C , 20-C ) :   1.0727
B(  6-C ,  7-H ) :   0.9303 B(  6-C ,  8-H ) :   0.9368 B(  6-C ,  9-C ) :   1.0705
B(  9-C , 10-H ) :   0.9539 B(  9-C , 11-H ) :   0.9615 B(  9-C , 12-C ) :   1.0839
B( 12-C , 13-H ) :   0.9762 B( 12-C , 14-H ) :   0.9749 B( 12-C , 15-H ) :   0.9743
B( 16-S , 17-C ) :   1.1420 B( 16-S , 20-C ) :   1.1241 B( 17-C , 18-C ) :   1.6188
B( 17-C , 33-H ) :   0.9587 B( 18-C , 19-C ) :   1.2442 B( 18-C , 21-H ) :   0.9779
B( 19-C , 20-C ) :   1.5970 B( 19-C , 22-C ) :   1.0355 B( 22-C , 23-H ) :   0.9308
B( 22-C , 24-H ) :   0.9230 B( 22-C , 25-C ) :   1.0949 B( 25-C , 26-H ) :   0.9471
B( 25-C , 27-H ) :   0.9570 B( 25-C , 28-C ) :   1.0763 B( 28-C , 29-H ) :   0.9710
B( 28-C , 30-H ) :   0.9754 B( 28-C , 31-H ) :   0.9720

Dispersion correction           -0.012997827
FINAL SINGLE POINT ENERGY     -1339.873523500760

DIPOLE MOMENT
-------------
                                X             Y             Z
Electronic contribution:      3.33406      15.73132     -27.65607
Nuclear contribution   :     -3.48060     -15.86210      28.52500
                        -----------------------------------------
Total Dipole Moment    :     -0.14655      -0.13078       0.86892
                        -----------------------------------------
Magnitude (a.u.)       :      0.89085
Magnitude (Debye)      :      2.26435

Rotational constants in cm-1:     0.017178     0.007959     0.005610
Rotational constants in MHz :   514.987442   238.601139   168.193265

                             ****ORCA TERMINATED NORMALLY****
TOTAL RUN TIME: 0 days 0 hours 0 minutes 19 seconds 599 msec
