                         Program Version 4.2.1 -  RELEASE  -
|  1> ! wB97X-D3 SP def2-SVP
|  2> %pal
|  3> nprocs 24
|  4> end
|  5>
|  6> * xyz 0 1
|  7> S 	 32.3931 	 -36.8298 	 -127.93
|  8> C 	 33.2293 	 -35.7395 	 -126.876
|  9> C 	 32.4452 	 -34.7121 	 -126.387
| 10> C 	 31.1236 	 -34.8461 	 -126.947
| 11> C 	 30.9443 	 -35.8604 	 -127.884
| 12> H 	 30.2834 	 -34.1348 	 -126.81
| 13> C 	 32.9621 	 -33.5637 	 -125.626
| 14> H 	 33.6882 	 -33.9166 	 -125.035
| 15> H 	 32.306 	 -33.1659 	 -124.855
| 16> C 	 33.6656 	 -32.4154 	 -126.437
| 17> H 	 33.993 	 -31.5494 	 -125.866
| 18> H 	 34.5706 	 -32.7983 	 -126.971
| 19> C 	 32.6464 	 -31.8894 	 -127.389
| 20> H 	 32.9377 	 -31.0211 	 -128.046
| 21> H 	 32.2953 	 -32.6337 	 -128.05
| 22> H 	 31.7443 	 -31.5338 	 -126.83
| 23> S 	 28.992 	 -37.7672 	 -127.99
| 24> C 	 27.6134 	 -37.532 	 -129.067
| 25> C 	 27.7496 	 -36.314 	 -129.704
| 26> C 	 28.8603 	 -35.59 	 -129.356
| 27> C 	 29.7037 	 -36.248 	 -128.496
| 28> H 	 26.8982 	 -35.9768 	 -130.338
| 29> C 	 29.1921 	 -34.207 	 -129.959
| 30> H 	 29.205 	 -33.6718 	 -129.02
| 31> H 	 28.4044 	 -33.8134 	 -130.581
| 32> C 	 30.4856 	 -34.1109 	 -130.729
| 33> H 	 30.505 	 -34.8681 	 -131.523
| 34> H 	 31.2837 	 -34.253 	 -130.084
| 35> C 	 30.5948 	 -32.7057 	 -131.236
| 36> H 	 30.0561 	 -32.6658 	 -132.225
| 37> H 	 31.6477 	 -32.4298 	 -131.176
| 38> H 	 30.1216 	 -32.0802 	 -130.54
| 39> H 	 34.2434 	 -35.8695 	 -126.538
| 40> H 	 26.8032 	 -38.2496 	 -129.362
| 41> *
| 42>
| 43>                          ****END OF INPUT****

CARTESIAN COORDINATES (ANGSTROEM)
---------------------------------
  S     32.393100  -36.829800  -127.930000
  C     33.229300  -35.739500  -126.876000
  C     32.445200  -34.712100  -126.387000
  C     31.123600  -34.846100  -126.947000
  C     30.944300  -35.860400  -127.884000
  H     30.283400  -34.134800  -126.810000
  C     32.962100  -33.563700  -125.626000
  H     33.688200  -33.916600  -125.035000
  H     32.306000  -33.165900  -124.855000
  C     33.665600  -32.415400  -126.437000
  H     33.993000  -31.549400  -125.866000
  H     34.570600  -32.798300  -126.971000
  C     32.646400  -31.889400  -127.389000
  H     32.937700  -31.021100  -128.046000
  H     32.295300  -32.633700  -128.050000
  H     31.744300  -31.533800  -126.830000
  S     28.992000  -37.767200  -127.990000
  C     27.613400  -37.532000  -129.067000
  C     27.749600  -36.314000  -129.704000
  C     28.860300  -35.590000  -129.356000
  C     29.703700  -36.248000  -128.496000
  H     26.898200  -35.976800  -130.338000
  C     29.192100  -34.207000  -129.959000
  H     29.205000  -33.671800  -129.020000
  H     28.404400  -33.813400  -130.581000
  C     30.485600  -34.110900  -130.729000
  H     30.505000  -34.868100  -131.523000
  H     31.283700  -34.253000  -130.084000
  C     30.594800  -32.705700  -131.236000
  H     30.056100  -32.665800  -132.225000
  H     31.647700  -32.429800  -131.176000
  H     30.121600  -32.080200  -130.540000
  H     34.243400  -35.869500  -126.538000
  H     26.803200  -38.249600  -129.362000

 Total Charge           Charge          ....    0
 Multiplicity           Mult            ....    1
 Number of Electrons    NEL             ....  134
 Basis Dimension        Dim             ....  322

ORBITAL ENERGIES
----------------

  NO   OCC          E(Eh)            E(eV)
   0   2.0000     -88.969472     -2420.9824
   1   2.0000     -88.964887     -2420.8577
   2   2.0000     -10.327854      -281.0352
   3   2.0000     -10.320564      -280.8368
   4   2.0000     -10.319053      -280.7957
   5   2.0000     -10.315614      -280.7021
   6   2.0000     -10.303156      -280.3631
   7   2.0000     -10.298831      -280.2454
   8   2.0000     -10.294581      -280.1298
   9   2.0000     -10.291841      -280.0552
  10   2.0000     -10.288318      -279.9594
  11   2.0000     -10.285108      -279.8720
  12   2.0000     -10.284897      -279.8663
  13   2.0000     -10.273750      -279.5630
  14   2.0000     -10.270233      -279.4673
  15   2.0000     -10.269695      -279.4526
  16   2.0000      -8.084430      -219.9885
  17   2.0000      -8.079214      -219.8466
  18   2.0000      -6.042820      -164.4335
  19   2.0000      -6.038845      -164.3253
  20   2.0000      -6.037747      -164.2954
  21   2.0000      -6.035354      -164.2303
  22   2.0000      -6.033634      -164.1835
  23   2.0000      -6.030103      -164.0874
  24   2.0000      -1.011221       -27.5167
  25   2.0000      -0.988626       -26.9019
  26   2.0000      -0.920837       -25.0572
  27   2.0000      -0.917094       -24.9554
  28   2.0000      -0.872870       -23.7520
  29   2.0000      -0.854236       -23.2449
  30   2.0000      -0.848061       -23.0769
  31   2.0000      -0.815908       -22.2020
  32   2.0000      -0.785400       -21.3718
  33   2.0000      -0.769217       -20.9315
  34   2.0000      -0.707658       -19.2563
  35   2.0000      -0.703639       -19.1470
  36   2.0000      -0.692471       -18.8431
  37   2.0000      -0.660329       -17.9685
  38   2.0000      -0.644307       -17.5325
  39   2.0000      -0.615218       -16.7409
  40   2.0000      -0.593195       -16.1417
  41   2.0000      -0.580175       -15.7874
  42   2.0000      -0.578711       -15.7475
  43   2.0000      -0.552582       -15.0365
  44   2.0000      -0.549408       -14.9501
  45   2.0000      -0.523199       -14.2370
  46   2.0000      -0.516829       -14.0636
  47   2.0000      -0.507389       -13.8068
  48   2.0000      -0.504930       -13.7398
  49   2.0000      -0.501722       -13.6526
  50   2.0000      -0.489197       -13.3117
  51   2.0000      -0.488536       -13.2938
  52   2.0000      -0.469354       -12.7718
  53   2.0000      -0.468121       -12.7382
  54   2.0000      -0.460446       -12.5294
  55   2.0000      -0.440038       -11.9741
  56   2.0000      -0.438643       -11.9361
  57   2.0000      -0.436808       -11.8861
  58   2.0000      -0.430856       -11.7242
  59   2.0000      -0.427744       -11.6395
  60   2.0000      -0.423491       -11.5238
  61   2.0000      -0.419245       -11.4082
  62   2.0000      -0.408444       -11.1143
  63   2.0000      -0.342051        -9.3077
  64   2.0000      -0.331712        -9.0263
  65   2.0000      -0.329147        -8.9566
  66   2.0000      -0.297523        -8.0960
  67   0.0000       0.031713         0.8630
  68   0.0000       0.061540         1.6746
  69   0.0000       0.117656         3.2016
  70   0.0000       0.122848         3.3429
  71   0.0000       0.124849         3.3973

MULLIKEN ATOMIC CHARGES
-----------------------
   0 S :    0.128294
   1 C :   -0.111020
   2 C :   -0.095164
   3 C :    0.030819
   4 C :   -0.199198
   5 H :    0.024978
   6 C :    0.118930
   7 H :   -0.020315
   8 H :    0.027300
   9 C :   -0.050254
  10 H :    0.033566
  11 H :    0.033597
  12 C :   -0.078929
  13 H :    0.034853
  14 H :    0.030476
  15 H :    0.023731
  16 S :    0.114831
  17 C :   -0.114909
  18 C :   -0.074422
  19 C :   -0.006081
  20 C :   -0.176145
  21 H :    0.028499
  22 C :    0.076716
  23 H :    0.018972
  24 H :    0.008617
  25 C :   -0.050744
  26 H :    0.034571
  27 H :    0.018760
  28 C :   -0.012322
  29 H :    0.046171
  30 H :    0.029937
  31 H :    0.008878
  32 H :    0.042865
  33 H :    0.074142
Sum of atomic charges:   -0.0000000

LOEWDIN ATOMIC CHARGES
----------------------
   0 S :    0.422717
   1 C :   -0.190122
   2 C :   -0.066071
   3 C :   -0.056555
   4 C :   -0.210094
   5 H :    0.032975
   6 C :   -0.030088
   7 H :    0.016419
   8 H :    0.036451
   9 C :   -0.032718
  10 H :    0.026983
  11 H :    0.027228
  12 C :   -0.074538
  13 H :    0.027011
  14 H :    0.015436
  15 H :    0.026597
  16 S :    0.406762
  17 C :   -0.194002
  18 C :   -0.084128
  19 C :   -0.059508
  20 C :   -0.206415
  21 H :    0.038507
  22 C :   -0.024149
  23 H :    0.030684
  24 H :    0.024527
  25 C :   -0.035587
  26 H :    0.027007
  27 H :    0.013048
  28 C :   -0.058686
  29 H :    0.034783
  30 H :    0.029244
  31 H :    0.015956
  32 H :    0.026292
  33 H :    0.044035

  Mayer bond orders larger than 0.100000
B(  0-S ,  1-C ) :   1.1600 B(  0-S ,  4-C ) :   1.1405 B(  1-C ,  2-C ) :   1.5942
B(  1-C , 32-H ) :   0.9643 B(  2-C ,  3-C ) :   1.2411 B(  2-C ,  6-C ) :   1.0440
B(  3-C ,  4-C ) :   1.5779 B(  3-C ,  5-H ) :   0.9837 B(  4-C , 20-C ) :   1.0426
B(  6-C ,  7-H ) :   0.9113 B(  6-C ,  8-H ) :   0.9362 B(  6-C ,  9-C ) :   1.0646
B(  9-C , 10-H ) :   0.9554 B(  9-C , 11-H ) :   0.9543 B(  9-C , 12-C ) :   1.0803
B( 12-C , 13-H ) :   0.9698 B( 12-C , 14-H ) :   0.9726 B( 12-C , 15-H ) :   0.9685
B( 16-S , 17-C ) :   1.1596 B( 16-S , 20-C ) :   1.1493 B( 17-C , 18-C ) :   1.5903
B( 17-C , 20-C ) :   0.1146 B( 17-C , 33-H ) :   0.9583 B( 18-C , 19-C ) :   1.2881
B( 18-C , 21-H ) :   0.9819 B( 19-C , 20-C ) :   1.5798 B( 19-C , 22-C ) :   1.0076
B( 22-C , 23-H ) :   0.9146 B( 22-C , 24-H ) :   0.9431 B( 22-C , 25-C ) :   1.0881
B( 25-C , 26-H ) :   0.9563 B( 25-C , 27-H ) :   0.9452 B( 25-C , 28-C ) :   1.0940
B( 28-C , 29-H ) :   0.9737 B( 28-C , 30-H ) :   0.9728 B( 28-C , 31-H ) :   0.9677

Dispersion correction           -0.016156982
FINAL SINGLE POINT ENERGY     -1339.862103953777

DIPOLE MOMENT
-------------
                                X             Y             Z
Electronic contribution:     -6.14363     -28.08133       5.47009
Nuclear contribution   :      6.18970      28.67588      -5.44460
                        -----------------------------------------
Total Dipole Moment    :      0.04607       0.59455       0.02548
                        -----------------------------------------
Magnitude (a.u.)       :      0.59688
Magnitude (Debye)      :      1.51714

Rotational constants in cm-1:     0.019237     0.010258     0.007700
Rotational constants in MHz :   576.712138   307.512260   230.832185

                             ****ORCA TERMINATED NORMALLY****
TOTAL RUN TIME: 0 days 0 hours 0 minutes 23 seconds 522 msec
