                         Program Version 4.2.1 -  RELEASE  -
|  1> ! wB97X-D3 SP def2-SVP
|  2> %pal
|  3> nprocs 24
|  4> end
|  5>
|  6> * xyz 0 1
|  7> S 	 -110.361 	 33.1448 	 -12.5096
|  8> C 	 -109.241 	 34.5223 	 -12.6179
|  9> C 	 -108.511 	 34.501 	 -13.8182
| 10> C 	 -109.018 	 33.4804 	 -14.6934
| 11> C 	 -110.187 	 32.9181 	 -14.2364
| 12> H 	 -108.593 	 33.2151 	 -15.6587
| 13> C 	 -107.308 	 35.3921 	 -14.2238
| 14> H 	 -107.675 	 36.4124 	 -14.2206
| 15> H 	 -107.105 	 35.2435 	 -15.3396
| 16> C 	 -105.976 	 35.2208 	 -13.4475
| 17> H 	 -106.263 	 35.2138 	 -12.4079
| 18> H 	 -105.462 	 34.2662 	 -13.5881
| 19> C 	 -105.037 	 36.3864 	 -13.4548
| 20> H 	 -104.278 	 36.07 	 -12.8889
| 21> H 	 -104.673 	 36.7096 	 -14.3904
| 22> H 	 -105.491 	 37.2432 	 -13.0649
| 23> S 	 -112.055 	 32.4459 	 -16.1892
| 24> C 	 -112.585 	 30.806 	 -16.4274
| 25> C 	 -112.081 	 29.9812 	 -15.4613
| 26> C 	 -111.267 	 30.5949 	 -14.4817
| 27> C 	 -111.007 	 31.9225 	 -14.8614
| 28> H 	 -112.281 	 28.9521 	 -15.4978
| 29> C 	 -110.512 	 29.7315 	 -13.4899
| 30> H 	 -111.128 	 28.7124 	 -13.4558
| 31> H 	 -110.586 	 30.1866 	 -12.5169
| 32> C 	 -109.04 	 29.4564 	 -14.0002
| 33> H 	 -108.496 	 30.3412 	 -14.1366
| 34> H 	 -109.168 	 29.0733 	 -14.9982
| 35> C 	 -108.263 	 28.5077 	 -13.1184
| 36> H 	 -108.124 	 28.8572 	 -12.1314
| 37> H 	 -107.284 	 28.3763 	 -13.5241
| 38> H 	 -108.837 	 27.6573 	 -12.9858
| 39> H 	 -109.14 	 35.2259 	 -11.7806
| 40> H 	 -113.24 	 30.5272 	 -17.2706
| 41> *
| 42>
| 43>                          ****END OF INPUT****

CARTESIAN COORDINATES (ANGSTROEM)
---------------------------------
  S    -110.361000   33.144800  -12.509600
  C    -109.241000   34.522300  -12.617900
  C    -108.511000   34.501000  -13.818200
  C    -109.018000   33.480400  -14.693400
  C    -110.187000   32.918100  -14.236400
  H    -108.593000   33.215100  -15.658700
  C    -107.308000   35.392100  -14.223800
  H    -107.675000   36.412400  -14.220600
  H    -107.105000   35.243500  -15.339600
  C    -105.976000   35.220800  -13.447500
  H    -106.263000   35.213800  -12.407900
  H    -105.462000   34.266200  -13.588100
  C    -105.037000   36.386400  -13.454800
  H    -104.278000   36.070000  -12.888900
  H    -104.673000   36.709600  -14.390400
  H    -105.491000   37.243200  -13.064900
  S    -112.055000   32.445900  -16.189200
  C    -112.585000   30.806000  -16.427400
  C    -112.081000   29.981200  -15.461300
  C    -111.267000   30.594900  -14.481700
  C    -111.007000   31.922500  -14.861400
  H    -112.281000   28.952100  -15.497800
  C    -110.512000   29.731500  -13.489900
  H    -111.128000   28.712400  -13.455800
  H    -110.586000   30.186600  -12.516900
  C    -109.040000   29.456400  -14.000200
  H    -108.496000   30.341200  -14.136600
  H    -109.168000   29.073300  -14.998200
  C    -108.263000   28.507700  -13.118400
  H    -108.124000   28.857200  -12.131400
  H    -107.284000   28.376300  -13.524100
  H    -108.837000   27.657300  -12.985800
  H    -109.140000   35.225900  -11.780600
  H    -113.240000   30.527200  -17.270600

 Total Charge           Charge          ....    0
 Multiplicity           Mult            ....    1
 Number of Electrons    NEL             ....  134
 Basis Dimension        Dim             ....  322

ORBITAL ENERGIES
----------------

  NO   OCC          E(Eh)            E(eV)
   0   2.0000     -88.964386     -2420.8440
   1   2.0000     -88.963667     -2420.8244
   2   2.0000     -10.323752      -280.9236
   3   2.0000     -10.323018      -280.9036
   4   2.0000     -10.319824      -280.8167
   5   2.0000     -10.312786      -280.6252
   6   2.0000     -10.308284      -280.5027
   7   2.0000     -10.301115      -280.3076
   8   2.0000     -10.300790      -280.2988
   9   2.0000     -10.299214      -280.2558
  10   2.0000     -10.295388      -280.1517
  11   2.0000     -10.284384      -279.8523
  12   2.0000     -10.284047      -279.8432
  13   2.0000     -10.278436      -279.6905
  14   2.0000     -10.261911      -279.2408
  15   2.0000     -10.259510      -279.1754
  16   2.0000      -8.078836      -219.8363
  17   2.0000      -8.078302      -219.8218
  18   2.0000      -6.037302      -164.2834
  19   2.0000      -6.036688      -164.2666
  20   2.0000      -6.033735      -164.1863
  21   2.0000      -6.032840      -164.1619
  22   2.0000      -6.029308      -164.0658
  23   2.0000      -6.029196      -164.0628
  24   2.0000      -1.005091       -27.3499
  25   2.0000      -0.980344       -26.6765
  26   2.0000      -0.911309       -24.7980
  27   2.0000      -0.905326       -24.6352
  28   2.0000      -0.870939       -23.6994
  29   2.0000      -0.855356       -23.2754
  30   2.0000      -0.848426       -23.0868
  31   2.0000      -0.811522       -22.0826
  32   2.0000      -0.785515       -21.3749
  33   2.0000      -0.767738       -20.8912
  34   2.0000      -0.708428       -19.2773
  35   2.0000      -0.705124       -19.1874
  36   2.0000      -0.690618       -18.7927
  37   2.0000      -0.662419       -18.0253
  38   2.0000      -0.639547       -17.4030
  39   2.0000      -0.616046       -16.7635
  40   2.0000      -0.593675       -16.1547
  41   2.0000      -0.565924       -15.3996
  42   2.0000      -0.564897       -15.3716
  43   2.0000      -0.556860       -15.1529
  44   2.0000      -0.538597       -14.6560
  45   2.0000      -0.528637       -14.3850
  46   2.0000      -0.516119       -14.0443
  47   2.0000      -0.509994       -13.8776
  48   2.0000      -0.504305       -13.7228
  49   2.0000      -0.504043       -13.7157
  50   2.0000      -0.489172       -13.3110
  51   2.0000      -0.477183       -12.9848
  52   2.0000      -0.469502       -12.7758
  53   2.0000      -0.463187       -12.6040
  54   2.0000      -0.459500       -12.5036
  55   2.0000      -0.450682       -12.2637
  56   2.0000      -0.445950       -12.1349
  57   2.0000      -0.440229       -11.9792
  58   2.0000      -0.430218       -11.7068
  59   2.0000      -0.427502       -11.6329
  60   2.0000      -0.425629       -11.5819
  61   2.0000      -0.416145       -11.3239
  62   2.0000      -0.408712       -11.1216
  63   2.0000      -0.336136        -9.1467
  64   2.0000      -0.332004        -9.0343
  65   2.0000      -0.327464        -8.9107
  66   2.0000      -0.289206        -7.8697
  67   0.0000       0.027331         0.7437
  68   0.0000       0.061587         1.6759
  69   0.0000       0.096166         2.6168
  70   0.0000       0.115291         3.1372
  71   0.0000       0.133475         3.6320

MULLIKEN ATOMIC CHARGES
-----------------------
   0 S :    0.101978
   1 C :   -0.140847
   2 C :   -0.062213
   3 C :    0.030224
   4 C :   -0.153053
   5 H :    0.018882
   6 C :    0.045360
   7 H :    0.030412
   8 H :    0.029054
   9 C :   -0.077665
  10 H :    0.014705
  11 H :    0.033146
  12 C :    0.046021
  13 H :    0.005410
  14 H :    0.010232
  15 H :    0.009970
  16 S :    0.112550
  17 C :   -0.102035
  18 C :   -0.022068
  19 C :   -0.009712
  20 C :   -0.195871
  21 H :   -0.003740
  22 C :    0.018987
  23 H :    0.037457
  24 H :    0.027307
  25 C :   -0.048517
  26 H :    0.018895
  27 H :    0.017937
  28 C :    0.040481
  29 H :    0.011121
  30 H :    0.028517
  31 H :    0.004487
  32 H :    0.056932
  33 H :    0.065656
Sum of atomic charges:    0.0000000

LOEWDIN ATOMIC CHARGES
----------------------
   0 S :    0.396293
   1 C :   -0.187986
   2 C :   -0.059625
   3 C :   -0.056728
   4 C :   -0.194244
   5 H :    0.033247
   6 C :   -0.037323
   7 H :    0.032713
   8 H :    0.034569
   9 C :   -0.039257
  10 H :    0.024357
  11 H :    0.026525
  12 C :   -0.043690
  13 H :    0.015237
  14 H :    0.016935
  15 H :    0.020142
  16 S :    0.406616
  17 C :   -0.194397
  18 C :   -0.069153
  19 C :   -0.062744
  20 C :   -0.198310
  21 H :    0.021759
  22 C :   -0.032574
  23 H :    0.040838
  24 H :    0.018751
  25 C :   -0.027530
  26 H :    0.017998
  27 H :    0.023691
  28 C :   -0.052255
  29 H :    0.021562
  30 H :    0.027012
  31 H :    0.015460
  32 H :    0.027672
  33 H :    0.034439

  Mayer bond orders larger than 0.100000
B(  0-S ,  1-C ) :   1.1358 B(  0-S ,  4-C ) :   1.1413 B(  1-C ,  2-C ) :   1.6000
B(  1-C ,  4-C ) :   0.1007 B(  1-C , 32-H ) :   0.9727 B(  2-C ,  3-C ) :   1.2359
B(  2-C ,  6-C ) :   1.0101 B(  3-C ,  4-C ) :   1.5788 B(  3-C ,  5-H ) :   0.9930
B(  4-C , 20-C ) :   1.0557 B(  6-C ,  7-H ) :   0.9429 B(  6-C ,  8-H ) :   0.9434
B(  6-C ,  9-C ) :   1.0540 B(  9-C , 10-H ) :   0.9572 B(  9-C , 11-H ) :   0.9588
B(  9-C , 12-C ) :   1.0844 B( 12-C , 13-H ) :   0.9680 B( 12-C , 14-H ) :   0.9724
B( 12-C , 15-H ) :   0.9711 B( 16-S , 17-C ) :   1.1490 B( 16-S , 20-C ) :   1.1620
B( 17-C , 18-C ) :   1.6029 B( 17-C , 20-C ) :   0.1051 B( 17-C , 33-H ) :   0.9653
B( 18-C , 19-C ) :   1.2519 B( 18-C , 21-H ) :   0.9940 B( 19-C , 20-C ) :   1.5474
B( 19-C , 22-C ) :   1.0536 B( 22-C , 23-H ) :   0.9390 B( 22-C , 24-H ) :   0.9275
B( 22-C , 25-C ) :   1.0509 B( 25-C , 26-H ) :   0.9551 B( 25-C , 27-H ) :   0.9532
B( 25-C , 28-C ) :   1.0926 B( 28-C , 29-H ) :   0.9695 B( 28-C , 30-H ) :   0.9699
B( 28-C , 31-H ) :   0.9709

Dispersion correction           -0.014312809
FINAL SINGLE POINT ENERGY     -1339.850655715171

DIPOLE MOMENT
-------------
                                X             Y             Z
Electronic contribution:    -24.65137       2.28064      -5.26002
Nuclear contribution   :     25.23718      -2.38020       5.27390
                        -----------------------------------------
Total Dipole Moment    :      0.58580      -0.09956       0.01388
                        -----------------------------------------
Magnitude (a.u.)       :      0.59437
Magnitude (Debye)      :      1.51076

Rotational constants in cm-1:     0.020089     0.007780     0.006597
Rotational constants in MHz :   602.243881   233.225063   197.773320

                             ****ORCA TERMINATED NORMALLY****
TOTAL RUN TIME: 0 days 0 hours 0 minutes 20 seconds 260 msec
