                         Program Version 4.2.1 -  RELEASE  -
|  1> ! wB97X-D3 SP def2-SVP
|  2> %pal
|  3> nprocs 24
|  4> end
|  5>
|  6> * xyz 0 1
|  7> S 	 -112.69 	 17.3641 	 -116.7
|  8> C 	 -113.516 	 18.2041 	 -115.41
|  9> C 	 -113.493 	 19.5706 	 -115.586
| 10> C 	 -112.813 	 19.9377 	 -116.808
| 11> C 	 -112.193 	 18.8517 	 -117.452
| 12> H 	 -112.681 	 20.8654 	 -117.259
| 13> C 	 -114.066 	 20.657 	 -114.673
| 14> H 	 -114.123 	 20.0698 	 -113.736
| 15> H 	 -115.079 	 20.9426 	 -114.915
| 16> C 	 -113.408 	 22.0451 	 -114.386
| 17> H 	 -113.455 	 22.5672 	 -115.329
| 18> H 	 -113.853 	 22.7153 	 -113.603
| 19> C 	 -111.906 	 21.76 	 -114.115
| 20> H 	 -111.355 	 22.6353 	 -113.883
| 21> H 	 -111.651 	 21.0117 	 -113.414
| 22> H 	 -111.362 	 21.467 	 -115.014
| 23> S 	 -112.456 	 18.3598 	 -120.231
| 24> C 	 -111.15 	 18.9215 	 -121.265
| 25> C 	 -110.134 	 19.5232 	 -120.519
| 26> C 	 -110.354 	 19.4968 	 -119.105
| 27> C 	 -111.569 	 18.9378 	 -118.765
| 28> H 	 -109.177 	 19.7824 	 -121.026
| 29> C 	 -109.36 	 20.0881 	 -118.116
| 30> H 	 -109.95 	 20.4634 	 -117.256
| 31> H 	 -109.032 	 20.9516 	 -118.649
| 32> C 	 -108.295 	 19.1075 	 -117.677
| 33> H 	 -107.73 	 18.8724 	 -118.61
| 34> H 	 -108.673 	 18.1551 	 -117.232
| 35> C 	 -107.283 	 19.9048 	 -116.705
| 36> H 	 -107.672 	 20.2007 	 -115.747
| 37> H 	 -106.94 	 20.8188 	 -117.296
| 38> H 	 -106.366 	 19.3237 	 -116.475
| 39> H 	 -114.003 	 17.6372 	 -114.603
| 40> H 	 -111.002 	 18.747 	 -122.294
| 41> *
| 42>
| 43>                          ****END OF INPUT****

CARTESIAN COORDINATES (ANGSTROEM)
---------------------------------
  S    -112.690000   17.364100  -116.700000
  C    -113.516000   18.204100  -115.410000
  C    -113.493000   19.570600  -115.586000
  C    -112.813000   19.937700  -116.808000
  C    -112.193000   18.851700  -117.452000
  H    -112.681000   20.865400  -117.259000
  C    -114.066000   20.657000  -114.673000
  H    -114.123000   20.069800  -113.736000
  H    -115.079000   20.942600  -114.915000
  C    -113.408000   22.045100  -114.386000
  H    -113.455000   22.567200  -115.329000
  H    -113.853000   22.715300  -113.603000
  C    -111.906000   21.760000  -114.115000
  H    -111.355000   22.635300  -113.883000
  H    -111.651000   21.011700  -113.414000
  H    -111.362000   21.467000  -115.014000
  S    -112.456000   18.359800  -120.231000
  C    -111.150000   18.921500  -121.265000
  C    -110.134000   19.523200  -120.519000
  C    -110.354000   19.496800  -119.105000
  C    -111.569000   18.937800  -118.765000
  H    -109.177000   19.782400  -121.026000
  C    -109.360000   20.088100  -118.116000
  H    -109.950000   20.463400  -117.256000
  H    -109.032000   20.951600  -118.649000
  C    -108.295000   19.107500  -117.677000
  H    -107.730000   18.872400  -118.610000
  H    -108.673000   18.155100  -117.232000
  C    -107.283000   19.904800  -116.705000
  H    -107.672000   20.200700  -115.747000
  H    -106.940000   20.818800  -117.296000
  H    -106.366000   19.323700  -116.475000
  H    -114.003000   17.637200  -114.603000
  H    -111.002000   18.747000  -122.294000

 Total Charge           Charge          ....    0
 Multiplicity           Mult            ....    1
 Number of Electrons    NEL             ....  134
 Basis Dimension        Dim             ....  322

ORBITAL ENERGIES
----------------

  NO   OCC          E(Eh)            E(eV)
   0   2.0000     -88.967842     -2420.9381
   1   2.0000     -88.966276     -2420.8954
   2   2.0000     -10.328042      -281.0403
   3   2.0000     -10.326720      -281.0043
   4   2.0000     -10.320716      -280.8410
   5   2.0000     -10.317653      -280.7576
   6   2.0000     -10.310180      -280.5543
   7   2.0000     -10.301169      -280.3090
   8   2.0000     -10.297304      -280.2039
   9   2.0000     -10.296867      -280.1920
  10   2.0000     -10.296664      -280.1865
  11   2.0000     -10.294985      -280.1408
  12   2.0000     -10.293667      -280.1049
  13   2.0000     -10.288662      -279.9687
  14   2.0000     -10.286553      -279.9113
  15   2.0000     -10.266889      -279.3763
  16   2.0000      -8.082752      -219.9429
  17   2.0000      -8.079860      -219.8642
  18   2.0000      -6.041203      -164.3895
  19   2.0000      -6.038503      -164.3160
  20   2.0000      -6.037143      -164.2790
  21   2.0000      -6.034562      -164.2088
  22   2.0000      -6.033660      -164.1842
  23   2.0000      -6.030508      -164.0985
  24   2.0000      -1.002845       -27.2888
  25   2.0000      -0.979617       -26.6567
  26   2.0000      -0.907767       -24.7016
  27   2.0000      -0.905552       -24.6413
  28   2.0000      -0.868405       -23.6305
  29   2.0000      -0.845558       -23.0088
  30   2.0000      -0.840151       -22.8617
  31   2.0000      -0.811052       -22.0699
  32   2.0000      -0.782409       -21.2904
  33   2.0000      -0.770192       -20.9580
  34   2.0000      -0.711852       -19.3705
  35   2.0000      -0.700878       -19.0719
  36   2.0000      -0.694670       -18.9029
  37   2.0000      -0.657534       -17.8924
  38   2.0000      -0.648496       -17.6465
  39   2.0000      -0.613540       -16.6953
  40   2.0000      -0.588889       -16.0245
  41   2.0000      -0.563761       -15.3407
  42   2.0000      -0.559871       -15.2349
  43   2.0000      -0.552939       -15.0462
  44   2.0000      -0.542655       -14.7664
  45   2.0000      -0.520010       -14.1502
  46   2.0000      -0.517047       -14.0696
  47   2.0000      -0.509197       -13.8560
  48   2.0000      -0.502896       -13.6845
  49   2.0000      -0.496304       -13.5051
  50   2.0000      -0.493457       -13.4277
  51   2.0000      -0.481380       -13.0990
  52   2.0000      -0.467288       -12.7155
  53   2.0000      -0.462659       -12.5896
  54   2.0000      -0.455997       -12.4083
  55   2.0000      -0.446876       -12.1601
  56   2.0000      -0.441924       -12.0254
  57   2.0000      -0.438161       -11.9230
  58   2.0000      -0.432572       -11.7709
  59   2.0000      -0.425335       -11.5740
  60   2.0000      -0.421810       -11.4780
  61   2.0000      -0.410984       -11.1834
  62   2.0000      -0.409010       -11.1297
  63   2.0000      -0.336535        -9.1576
  64   2.0000      -0.331432        -9.0187
  65   2.0000      -0.326936        -8.8964
  66   2.0000      -0.302144        -8.2217
  67   0.0000       0.034049         0.9265
  68   0.0000       0.058496         1.5917
  69   0.0000       0.115835         3.1520
  70   0.0000       0.119723         3.2578
  71   0.0000       0.125919         3.4264

MULLIKEN ATOMIC CHARGES
-----------------------
   0 S :    0.114145
   1 C :   -0.140748
   2 C :   -0.059314
   3 C :    0.056677
   4 C :   -0.193167
   5 H :   -0.005509
   6 C :    0.050488
   7 H :    0.021240
   8 H :    0.040275
   9 C :   -0.068260
  10 H :    0.027967
  11 H :    0.055077
  12 C :   -0.033654
  13 H :    0.011947
  14 H :    0.025363
  15 H :    0.017145
  16 S :    0.109691
  17 C :   -0.074799
  18 C :   -0.061076
  19 C :   -0.052393
  20 C :   -0.164799
  21 H :    0.033607
  22 C :    0.087212
  23 H :    0.027473
  24 H :    0.018487
  25 C :   -0.074045
  26 H :    0.032048
  27 H :    0.052227
  28 C :   -0.068952
  29 H :    0.037426
  30 H :    0.034466
  31 H :    0.038224
  32 H :    0.061509
  33 H :    0.044024
Sum of atomic charges:    0.0000000

LOEWDIN ATOMIC CHARGES
----------------------
   0 S :    0.415696
   1 C :   -0.196504
   2 C :   -0.061356
   3 C :   -0.043940
   4 C :   -0.206164
   5 H :    0.020312
   6 C :   -0.037586
   7 H :    0.031275
   8 H :    0.030386
   9 C :   -0.036253
  10 H :    0.022619
  11 H :    0.037730
  12 C :   -0.070142
  13 H :    0.017856
  14 H :    0.019468
  15 H :    0.026685
  16 S :    0.379806
  17 C :   -0.176298
  18 C :   -0.080962
  19 C :   -0.053550
  20 C :   -0.190308
  21 H :    0.036626
  22 C :   -0.032991
  23 H :    0.031307
  24 H :    0.027483
  25 C :   -0.035479
  26 H :    0.028198
  27 H :    0.032549
  28 C :   -0.072183
  29 H :    0.019994
  30 H :    0.031745
  31 H :    0.026104
  32 H :    0.034165
  33 H :    0.023711

  Mayer bond orders larger than 0.100000
B(  0-S ,  1-C ) :   1.1506 B(  0-S ,  4-C ) :   1.1540 B(  1-C ,  2-C ) :   1.6085
B(  1-C , 32-H ) :   0.9652 B(  2-C ,  3-C ) :   1.2258 B(  2-C ,  6-C ) :   1.0035
B(  3-C ,  4-C ) :   1.5735 B(  3-C ,  5-H ) :   0.9982 B(  4-C , 20-C ) :   1.0353
B(  6-C ,  7-H ) :   0.9451 B(  6-C ,  8-H ) :   0.9405 B(  6-C ,  9-C ) :   1.0660
B(  9-C , 10-H ) :   0.9490 B(  9-C , 11-H ) :   0.9603 B(  9-C , 12-C ) :   1.0802
B( 12-C , 13-H ) :   0.9698 B( 12-C , 14-H ) :   0.9784 B( 12-C , 15-H ) :   0.9680
B( 16-S , 17-C ) :   1.1493 B( 16-S , 20-C ) :   1.1169 B( 17-C , 18-C ) :   1.6308
B( 17-C , 33-H ) :   0.9675 B( 18-C , 19-C ) :   1.2402 B( 18-C , 21-H ) :   0.9768
B( 19-C , 20-C ) :   1.6268 B( 19-C , 22-C ) :   1.0234 B( 22-C , 23-H ) :   0.9274
B( 22-C , 24-H ) :   0.9321 B( 22-C , 25-C ) :   1.0648 B( 25-C , 26-H ) :   0.9553
B( 25-C , 27-H ) :   0.9578 B( 25-C , 28-C ) :   1.0644 B( 28-C , 29-H ) :   0.9797
B( 28-C , 30-H ) :   0.9745 B( 28-C , 31-H ) :   0.9778

Dispersion correction           -0.014949501
FINAL SINGLE POINT ENERGY     -1339.867403087118

DIPOLE MOMENT
-------------
                                X             Y             Z
Electronic contribution:    -14.47821     -17.58187     -16.66534
Nuclear contribution   :     14.73247      18.04411      16.89164
                        -----------------------------------------
Total Dipole Moment    :      0.25426       0.46224       0.22630
                        -----------------------------------------
Magnitude (a.u.)       :      0.57405
Magnitude (Debye)      :      1.45911

Rotational constants in cm-1:     0.016360     0.009735     0.007541
Rotational constants in MHz :   490.471878   291.859423   226.065642

                             ****ORCA TERMINATED NORMALLY****
TOTAL RUN TIME: 0 days 0 hours 0 minutes 22 seconds 122 msec
