                         Program Version 4.2.1 -  RELEASE  -
|  1> ! wB97X-D3 SP def2-SVP
|  2> %pal
|  3> nprocs 24
|  4> end
|  5>
|  6> * xyz 0 1
|  7> S 	 -124.2 	 53.7688 	 -32.7906
|  8> C 	 -123.239 	 53.0605 	 -31.4946
|  9> C 	 -121.864 	 53.2067 	 -31.7638
| 10> C 	 -121.655 	 53.9587 	 -32.9728
| 11> C 	 -122.771 	 54.4829 	 -33.5637
| 12> H 	 -120.63 	 54.0904 	 -33.3619
| 13> C 	 -120.765 	 52.3966 	 -30.9962
| 14> H 	 -119.772 	 52.5206 	 -31.44
| 15> H 	 -120.915 	 51.2904 	 -31.0336
| 16> C 	 -120.739 	 52.6437 	 -29.5066
| 17> H 	 -120.616 	 53.6925 	 -29.2173
| 18> H 	 -121.701 	 52.3537 	 -29.0931
| 19> C 	 -119.544 	 52.0059 	 -28.7278
| 20> H 	 -119.741 	 51.9357 	 -27.607
| 21> H 	 -119.444 	 50.9596 	 -29.0976
| 22> H 	 -118.627 	 52.581 	 -28.9427
| 23> S 	 -123.542 	 54.5147 	 -36.248
| 24> C 	 -123.554 	 56.0444 	 -37.0448
| 25> C 	 -123.338 	 57.0577 	 -36.1337
| 26> C 	 -122.928 	 56.6599 	 -34.8426
| 27> C 	 -122.942 	 55.2964 	 -34.7662
| 28> H 	 -123.298 	 58.1087 	 -36.3479
| 29> C 	 -122.773 	 57.7048 	 -33.7978
| 30> H 	 -123.584 	 57.6467 	 -33.1069
| 31> H 	 -122.768 	 58.6697 	 -34.3066
| 32> C 	 -121.381 	 57.5475 	 -33.0907
| 33> H 	 -120.509 	 57.5478 	 -33.6913
| 34> H 	 -121.4 	 56.5457 	 -32.5301
| 35> C 	 -121.31 	 58.5816 	 -31.9552
| 36> H 	 -120.369 	 58.6026 	 -31.3854
| 37> H 	 -122.058 	 58.3137 	 -31.266
| 38> H 	 -121.608 	 59.5792 	 -32.3282
| 39> H 	 -123.624 	 52.5571 	 -30.6251
| 40> H 	 -123.718 	 56.2022 	 -38.1271
| 41> *
| 42>
| 43>                          ****END OF INPUT****

CARTESIAN COORDINATES (ANGSTROEM)
---------------------------------
  S    -124.200000   53.768800  -32.790600
  C    -123.239000   53.060500  -31.494600
  C    -121.864000   53.206700  -31.763800
  C    -121.655000   53.958700  -32.972800
  C    -122.771000   54.482900  -33.563700
  H    -120.630000   54.090400  -33.361900
  C    -120.765000   52.396600  -30.996200
  H    -119.772000   52.520600  -31.440000
  H    -120.915000   51.290400  -31.033600
  C    -120.739000   52.643700  -29.506600
  H    -120.616000   53.692500  -29.217300
  H    -121.701000   52.353700  -29.093100
  C    -119.544000   52.005900  -28.727800
  H    -119.741000   51.935700  -27.607000
  H    -119.444000   50.959600  -29.097600
  H    -118.627000   52.581000  -28.942700
  S    -123.542000   54.514700  -36.248000
  C    -123.554000   56.044400  -37.044800
  C    -123.338000   57.057700  -36.133700
  C    -122.928000   56.659900  -34.842600
  C    -122.942000   55.296400  -34.766200
  H    -123.298000   58.108700  -36.347900
  C    -122.773000   57.704800  -33.797800
  H    -123.584000   57.646700  -33.106900
  H    -122.768000   58.669700  -34.306600
  C    -121.381000   57.547500  -33.090700
  H    -120.509000   57.547800  -33.691300
  H    -121.400000   56.545700  -32.530100
  C    -121.310000   58.581600  -31.955200
  H    -120.369000   58.602600  -31.385400
  H    -122.058000   58.313700  -31.266000
  H    -121.608000   59.579200  -32.328200
  H    -123.624000   52.557100  -30.625100
  H    -123.718000   56.202200  -38.127100

 Total Charge           Charge          ....    0
 Multiplicity           Mult            ....    1
 Number of Electrons    NEL             ....  134
 Basis Dimension        Dim             ....  322

ORBITAL ENERGIES
----------------

  NO   OCC          E(Eh)            E(eV)
   0   2.0000     -88.967405     -2420.9262
   1   2.0000     -88.965646     -2420.8783
   2   2.0000     -10.329025      -281.0671
   3   2.0000     -10.324147      -280.9343
   4   2.0000     -10.319223      -280.8003
   5   2.0000     -10.318103      -280.7699
   6   2.0000     -10.307714      -280.4872
   7   2.0000     -10.300417      -280.2886
   8   2.0000     -10.297793      -280.2172
   9   2.0000     -10.295346      -280.1506
  10   2.0000     -10.292670      -280.0778
  11   2.0000     -10.289811      -280.0000
  12   2.0000     -10.286710      -279.9156
  13   2.0000     -10.285629      -279.8862
  14   2.0000     -10.284652      -279.8596
  15   2.0000     -10.270852      -279.4841
  16   2.0000      -8.082194      -219.9277
  17   2.0000      -8.079782      -219.8621
  18   2.0000      -6.040682      -164.3753
  19   2.0000      -6.038348      -164.3118
  20   2.0000      -6.036803      -164.2698
  21   2.0000      -6.034336      -164.2026
  22   2.0000      -6.032856      -164.1623
  23   2.0000      -6.030546      -164.0995
  24   2.0000      -1.007023       -27.4025
  25   2.0000      -0.982453       -26.7339
  26   2.0000      -0.911407       -24.8006
  27   2.0000      -0.908230       -24.7142
  28   2.0000      -0.864714       -23.5301
  29   2.0000      -0.854627       -23.2556
  30   2.0000      -0.841860       -22.9082
  31   2.0000      -0.809962       -22.0402
  32   2.0000      -0.781573       -21.2677
  33   2.0000      -0.768478       -20.9114
  34   2.0000      -0.706769       -19.2322
  35   2.0000      -0.696244       -18.9458
  36   2.0000      -0.687948       -18.7200
  37   2.0000      -0.663471       -18.0540
  38   2.0000      -0.641837       -17.4653
  39   2.0000      -0.616694       -16.7811
  40   2.0000      -0.600413       -16.3381
  41   2.0000      -0.566734       -15.4216
  42   2.0000      -0.565991       -15.4014
  43   2.0000      -0.560479       -15.2514
  44   2.0000      -0.528113       -14.3707
  45   2.0000      -0.516369       -14.0511
  46   2.0000      -0.513443       -13.9715
  47   2.0000      -0.509905       -13.8752
  48   2.0000      -0.505351       -13.7513
  49   2.0000      -0.497607       -13.5406
  50   2.0000      -0.496926       -13.5221
  51   2.0000      -0.478025       -13.0077
  52   2.0000      -0.470623       -12.8063
  53   2.0000      -0.465312       -12.6618
  54   2.0000      -0.460064       -12.5190
  55   2.0000      -0.446292       -12.1442
  56   2.0000      -0.444871       -12.1056
  57   2.0000      -0.436651       -11.8819
  58   2.0000      -0.433853       -11.8057
  59   2.0000      -0.422540       -11.4979
  60   2.0000      -0.420560       -11.4440
  61   2.0000      -0.411684       -11.2025
  62   2.0000      -0.410273       -11.1641
  63   2.0000      -0.335453        -9.1281
  64   2.0000      -0.332816        -9.0564
  65   2.0000      -0.325339        -8.8529
  66   2.0000      -0.301267        -8.1979
  67   0.0000       0.040647         1.1061
  68   0.0000       0.047058         1.2805
  69   0.0000       0.110357         3.0030
  70   0.0000       0.113981         3.1016
  71   0.0000       0.136816         3.7230

MULLIKEN ATOMIC CHARGES
-----------------------
   0 S :    0.108019
   1 C :   -0.124366
   2 C :   -0.081806
   3 C :    0.053016
   4 C :   -0.188447
   5 H :    0.023029
   6 C :    0.056495
   7 H :    0.018206
   8 H :    0.043071
   9 C :   -0.101844
  10 H :    0.028733
  11 H :    0.022754
  12 C :   -0.084577
  13 H :    0.052973
  14 H :    0.028046
  15 H :    0.046450
  16 S :    0.120796
  17 C :   -0.095099
  18 C :   -0.026121
  19 C :   -0.016276
  20 C :   -0.189054
  21 H :    0.004158
  22 C :    0.114511
  23 H :    0.038727
  24 H :    0.015129
  25 C :   -0.135097
  26 H :    0.028812
  27 H :    0.059254
  28 C :   -0.010835
  29 H :    0.037403
  30 H :    0.012241
  31 H :    0.017838
  32 H :    0.052199
  33 H :    0.071662
Sum of atomic charges:    0.0000000

LOEWDIN ATOMIC CHARGES
----------------------
   0 S :    0.394048
   1 C :   -0.188756
   2 C :   -0.064962
   3 C :   -0.061147
   4 C :   -0.192171
   5 H :    0.036232
   6 C :   -0.033718
   7 H :    0.026510
   8 H :    0.038021
   9 C :   -0.049824
  10 H :    0.022920
  11 H :    0.017826
  12 C :   -0.072354
  13 H :    0.036606
  14 H :    0.022008
  15 H :    0.027714
  16 S :    0.408395
  17 C :   -0.193292
  18 C :   -0.072600
  19 C :   -0.050584
  20 C :   -0.200455
  21 H :    0.024029
  22 C :   -0.015458
  23 H :    0.034825
  24 H :    0.029473
  25 C :   -0.038862
  26 H :    0.016007
  27 H :    0.037015
  28 C :   -0.067041
  29 H :    0.026699
  30 H :    0.018254
  31 H :    0.020571
  32 H :    0.025393
  33 H :    0.038680

  Mayer bond orders larger than 0.100000
B(  0-S ,  1-C ) :   1.1510 B(  0-S ,  4-C ) :   1.1454 B(  1-C ,  2-C ) :   1.5913
B(  1-C ,  4-C ) :   0.1055 B(  1-C , 32-H ) :   0.9706 B(  2-C ,  3-C ) :   1.2641
B(  2-C ,  6-C ) :   1.0090 B(  3-C ,  4-C ) :   1.5828 B(  3-C ,  5-H ) :   0.9880
B(  4-C , 20-C ) :   1.0170 B(  6-C ,  7-H ) :   0.9508 B(  6-C ,  8-H ) :   0.9421
B(  6-C ,  9-C ) :   1.0513 B(  9-C , 10-H ) :   0.9607 B(  9-C , 11-H ) :   0.9581
B(  9-C , 12-C ) :   1.0737 B( 12-C , 13-H ) :   0.9749 B( 12-C , 14-H ) :   0.9746
B( 12-C , 15-H ) :   0.9777 B( 16-S , 17-C ) :   1.1570 B( 16-S , 20-C ) :   1.1448
B( 17-C , 18-C ) :   1.5881 B( 17-C , 33-H ) :   0.9647 B( 18-C , 19-C ) :   1.2773
B( 18-C , 21-H ) :   0.9842 B( 19-C , 20-C ) :   1.5947 B( 19-C , 22-C ) :   1.0411
B( 22-C , 23-H ) :   0.9285 B( 22-C , 24-H ) :   0.9294 B( 22-C , 25-C ) :   1.0541
B( 25-C , 26-H ) :   0.9656 B( 25-C , 27-H ) :   0.9507 B( 25-C , 28-C ) :   1.0772
B( 28-C , 29-H ) :   0.9735 B( 28-C , 30-H ) :   0.9737 B( 28-C , 31-H ) :   0.9713

Dispersion correction           -0.014074344
FINAL SINGLE POINT ENERGY     -1339.873215466933

DIPOLE MOMENT
-------------
                                X             Y             Z
Electronic contribution:    -18.59092      -5.82690     -23.13753
Nuclear contribution   :     18.93166       6.00858      23.38752
                        -----------------------------------------
Total Dipole Moment    :      0.34074       0.18167       0.24999
                        -----------------------------------------
Magnitude (a.u.)       :      0.46001
Magnitude (Debye)      :      1.16924

Rotational constants in cm-1:     0.020602     0.007951     0.006438
Rotational constants in MHz :   617.644791   238.364190   192.995673

                             ****ORCA TERMINATED NORMALLY****
TOTAL RUN TIME: 0 days 0 hours 0 minutes 20 seconds 415 msec
