                         Program Version 4.2.1 -  RELEASE  -
|  1> ! wB97X-D3 SP def2-SVP
|  2> %pal
|  3> nprocs 24
|  4> end
|  5>
|  6> * xyz 0 1
|  7> S 	 -61.2078 	 15.3294 	 -91.0847
|  8> C 	 -61.3239 	 16.9085 	 -91.9431
|  9> C 	 -60.9733 	 17.9067 	 -91.0414
| 10> C 	 -60.6672 	 17.4394 	 -89.7137
| 11> C 	 -60.8164 	 16.0777 	 -89.5588
| 12> H 	 -60.3654 	 18.0394 	 -88.8314
| 13> C 	 -60.9577 	 19.4088 	 -91.4041
| 14> H 	 -60.8623 	 19.3959 	 -92.4753
| 15> H 	 -59.9678 	 19.778 	 -91.0241
| 16> C 	 -62.0866 	 20.211 	 -90.8882
| 17> H 	 -62.0438 	 20.0183 	 -89.8482
| 18> H 	 -61.8157 	 21.2359 	 -91.0217
| 19> C 	 -63.4633 	 19.7242 	 -91.4142
| 20> H 	 -63.4425 	 19.7366 	 -92.5103
| 21> H 	 -63.6715 	 18.6817 	 -91.1034
| 22> H 	 -64.2813 	 20.3615 	 -91.0527
| 23> S 	 -62.2628 	 14.3265 	 -88.1215
| 24> C 	 -61.7197 	 13.7213 	 -86.6202
| 25> C 	 -60.5338 	 14.2878 	 -86.237
| 26> C 	 -59.9892 	 15.216 	 -87.2191
| 27> C 	 -60.8305 	 15.3641 	 -88.3044
| 28> H 	 -60.0683 	 13.8621 	 -85.3809
| 29> C 	 -58.6555 	 15.8871 	 -87.1881
| 30> H 	 -58.6586 	 16.1709 	 -86.2123
| 31> H 	 -58.6424 	 16.8123 	 -87.8488
| 32> C 	 -57.4234 	 14.9362 	 -87.5031
| 33> H 	 -57.5787 	 14.3072 	 -88.3329
| 34> H 	 -57.2694 	 14.1463 	 -86.695
| 35> C 	 -56.153 	 15.7388 	 -87.7668
| 36> H 	 -56.1547 	 16.2111 	 -88.7336
| 37> H 	 -55.227 	 15.0828 	 -87.6878
| 38> H 	 -56.0096 	 16.522 	 -87.0522
| 39> H 	 -61.938 	 17.0265 	 -92.8334
| 40> H 	 -62.1545 	 12.8326 	 -86.2378
| 41> *
| 42>
| 43>                          ****END OF INPUT****

CARTESIAN COORDINATES (ANGSTROEM)
---------------------------------
  S    -61.207800   15.329400  -91.084700
  C    -61.323900   16.908500  -91.943100
  C    -60.973300   17.906700  -91.041400
  C    -60.667200   17.439400  -89.713700
  C    -60.816400   16.077700  -89.558800
  H    -60.365400   18.039400  -88.831400
  C    -60.957700   19.408800  -91.404100
  H    -60.862300   19.395900  -92.475300
  H    -59.967800   19.778000  -91.024100
  C    -62.086600   20.211000  -90.888200
  H    -62.043800   20.018300  -89.848200
  H    -61.815700   21.235900  -91.021700
  C    -63.463300   19.724200  -91.414200
  H    -63.442500   19.736600  -92.510300
  H    -63.671500   18.681700  -91.103400
  H    -64.281300   20.361500  -91.052700
  S    -62.262800   14.326500  -88.121500
  C    -61.719700   13.721300  -86.620200
  C    -60.533800   14.287800  -86.237000
  C    -59.989200   15.216000  -87.219100
  C    -60.830500   15.364100  -88.304400
  H    -60.068300   13.862100  -85.380900
  C    -58.655500   15.887100  -87.188100
  H    -58.658600   16.170900  -86.212300
  H    -58.642400   16.812300  -87.848800
  C    -57.423400   14.936200  -87.503100
  H    -57.578700   14.307200  -88.332900
  H    -57.269400   14.146300  -86.695000
  C    -56.153000   15.738800  -87.766800
  H    -56.154700   16.211100  -88.733600
  H    -55.227000   15.082800  -87.687800
  H    -56.009600   16.522000  -87.052200
  H    -61.938000   17.026500  -92.833400
  H    -62.154500   12.832600  -86.237800

 Total Charge           Charge          ....    0
 Multiplicity           Mult            ....    1
 Number of Electrons    NEL             ....  134
 Basis Dimension        Dim             ....  322

ORBITAL ENERGIES
----------------

  NO   OCC          E(Eh)            E(eV)
   0   2.0000     -88.964097     -2420.8361
   1   2.0000     -88.958695     -2420.6892
   2   2.0000     -10.330268      -281.1009
   3   2.0000     -10.324667      -280.9485
   4   2.0000     -10.317170      -280.7445
   5   2.0000     -10.312073      -280.6058
   6   2.0000     -10.307975      -280.4943
   7   2.0000     -10.305855      -280.4366
   8   2.0000     -10.296666      -280.1865
   9   2.0000     -10.295355      -280.1508
  10   2.0000     -10.292014      -280.0599
  11   2.0000     -10.290379      -280.0155
  12   2.0000     -10.289317      -279.9866
  13   2.0000     -10.281424      -279.7718
  14   2.0000     -10.279120      -279.7091
  15   2.0000     -10.277500      -279.6650
  16   2.0000      -8.078207      -219.8192
  17   2.0000      -8.074416      -219.7160
  18   2.0000      -6.036843      -164.2708
  19   2.0000      -6.032799      -164.1608
  20   2.0000      -6.032731      -164.1590
  21   2.0000      -6.028914      -164.0551
  22   2.0000      -6.028667      -164.0484
  23   2.0000      -6.025342      -163.9579
  24   2.0000      -1.007266       -27.4091
  25   2.0000      -0.981752       -26.7148
  26   2.0000      -0.917601       -24.9692
  27   2.0000      -0.908069       -24.7098
  28   2.0000      -0.870809       -23.6959
  29   2.0000      -0.853427       -23.2229
  30   2.0000      -0.838048       -22.8044
  31   2.0000      -0.814387       -22.1606
  32   2.0000      -0.783204       -21.3121
  33   2.0000      -0.774499       -21.0752
  34   2.0000      -0.711978       -19.3739
  35   2.0000      -0.703193       -19.1349
  36   2.0000      -0.695556       -18.9270
  37   2.0000      -0.664163       -18.0728
  38   2.0000      -0.638391       -17.3715
  39   2.0000      -0.618521       -16.8308
  40   2.0000      -0.595113       -16.1939
  41   2.0000      -0.570909       -15.5352
  42   2.0000      -0.559288       -15.2190
  43   2.0000      -0.547833       -14.9073
  44   2.0000      -0.539819       -14.6892
  45   2.0000      -0.529045       -14.3960
  46   2.0000      -0.525632       -14.3032
  47   2.0000      -0.511612       -13.9217
  48   2.0000      -0.505082       -13.7440
  49   2.0000      -0.497818       -13.5463
  50   2.0000      -0.489056       -13.3079
  51   2.0000      -0.483019       -13.1436
  52   2.0000      -0.469994       -12.7892
  53   2.0000      -0.462271       -12.5790
  54   2.0000      -0.458108       -12.4658
  55   2.0000      -0.449905       -12.2425
  56   2.0000      -0.446074       -12.1383
  57   2.0000      -0.439366       -11.9558
  58   2.0000      -0.437040       -11.8925
  59   2.0000      -0.427264       -11.6264
  60   2.0000      -0.417804       -11.3690
  61   2.0000      -0.410756       -11.1772
  62   2.0000      -0.407575       -11.0907
  63   2.0000      -0.344655        -9.3785
  64   2.0000      -0.331276        -9.0145
  65   2.0000      -0.326379        -8.8812
  66   2.0000      -0.295632        -8.0446
  67   0.0000       0.023538         0.6405
  68   0.0000       0.073182         1.9914
  69   0.0000       0.111146         3.0244
  70   0.0000       0.120529         3.2797
  71   0.0000       0.131939         3.5902

MULLIKEN ATOMIC CHARGES
-----------------------
   0 S :    0.095455
   1 C :   -0.136337
   2 C :   -0.122241
   3 C :    0.017847
   4 C :   -0.134930
   5 H :    0.032880
   6 C :    0.042442
   7 H :    0.012648
   8 H :    0.032455
   9 C :   -0.004086
  10 H :    0.012164
  11 H :    0.028697
  12 C :   -0.069501
  13 H :    0.026283
  14 H :    0.052297
  15 H :    0.042570
  16 S :    0.088524
  17 C :   -0.080193
  18 C :   -0.028019
  19 C :   -0.046461
  20 C :   -0.170813
  21 H :    0.009816
  22 C :    0.099512
  23 H :    0.005503
  24 H :    0.032509
  25 C :   -0.066185
  26 H :    0.025346
  27 H :    0.031077
  28 C :   -0.053206
  29 H :    0.038166
  30 H :    0.039649
  31 H :    0.021098
  32 H :    0.069742
  33 H :    0.055294
Sum of atomic charges:    0.0000000

LOEWDIN ATOMIC CHARGES
----------------------
   0 S :    0.384416
   1 C :   -0.197530
   2 C :   -0.055754
   3 C :   -0.075460
   4 C :   -0.194148
   5 H :    0.036411
   6 C :   -0.030832
   7 H :    0.021523
   8 H :    0.036467
   9 C :   -0.040377
  10 H :    0.021174
  11 H :    0.024313
  12 C :   -0.063801
  13 H :    0.022003
  14 H :    0.033231
  15 H :    0.028872
  16 S :    0.405121
  17 C :   -0.185330
  18 C :   -0.073035
  19 C :   -0.049333
  20 C :   -0.188973
  21 H :    0.027629
  22 C :   -0.026034
  23 H :    0.019867
  24 H :    0.038996
  25 C :   -0.037183
  26 H :    0.019375
  27 H :    0.030130
  28 C :   -0.067879
  29 H :    0.024782
  30 H :    0.034730
  31 H :    0.018381
  32 H :    0.033814
  33 H :    0.024432

  Mayer bond orders larger than 0.100000
B(  0-S ,  1-C ) :   1.1118 B(  0-S ,  4-C ) :   1.1552 B(  1-C ,  2-C ) :   1.6194
B(  1-C , 32-H ) :   0.9654 B(  2-C ,  3-C ) :   1.2322 B(  2-C ,  6-C ) :   1.0097
B(  3-C ,  4-C ) :   1.5733 B(  3-C ,  5-H ) :   0.9816 B(  4-C , 20-C ) :   1.0479
B(  6-C ,  7-H ) :   0.9441 B(  6-C ,  8-H ) :   0.9398 B(  6-C ,  9-C ) :   1.0735
B(  9-C , 10-H ) :   0.9495 B(  9-C , 11-H ) :   0.9535 B(  9-C , 12-C ) :   1.0668
B( 12-C , 13-H ) :   0.9789 B( 12-C , 14-H ) :   0.9716 B( 12-C , 15-H ) :   0.9746
B( 16-S , 17-C ) :   1.1698 B( 16-S , 20-C ) :   1.1297 B( 17-C , 18-C ) :   1.6125
B( 17-C , 33-H ) :   0.9689 B( 18-C , 19-C ) :   1.2104 B( 18-C , 21-H ) :   0.9987
B( 19-C , 20-C ) :   1.6094 B( 19-C , 22-C ) :   1.0414 B( 22-C , 23-H ) :   0.9113
B( 22-C , 24-H ) :   0.9404 B( 22-C , 25-C ) :   1.0495 B( 25-C , 26-H ) :   0.9607
B( 25-C , 27-H ) :   0.9549 B( 25-C , 28-C ) :   1.0842 B( 28-C , 29-H ) :   0.9757
B( 28-C , 30-H ) :   0.9733 B( 28-C , 31-H ) :   0.9749

Dispersion correction           -0.014330772
FINAL SINGLE POINT ENERGY     -1339.870555351401

DIPOLE MOMENT
-------------
                                X             Y             Z
Electronic contribution:    -11.69548     -17.01204      -0.50054
Nuclear contribution   :     11.96135      17.33482       0.77289
                        -----------------------------------------
Total Dipole Moment    :      0.26587       0.32278       0.27235
                        -----------------------------------------
Magnitude (a.u.)       :      0.49905
Magnitude (Debye)      :      1.26849

Rotational constants in cm-1:     0.018777     0.008497     0.007057
Rotational constants in MHz :   562.905627   254.744519   211.559866

                             ****ORCA TERMINATED NORMALLY****
TOTAL RUN TIME: 0 days 0 hours 0 minutes 20 seconds 337 msec
