                         Program Version 4.2.1 -  RELEASE  -
|  1> ! wB97X-D3 SP def2-SVP
|  2> %pal
|  3> nprocs 24
|  4> end
|  5>
|  6> * xyz 0 1
|  7> S 	 -128.62 	 26.8825 	 -15.5588
|  8> C 	 -127.849 	 25.3377 	 -15.4088
|  9> C 	 -128.77 	 24.3399 	 -15.1063
| 10> C 	 -130.078 	 24.9482 	 -14.8194
| 11> C 	 -130.075 	 26.3216 	 -14.9147
| 12> H 	 -130.973 	 24.4886 	 -14.6339
| 13> C 	 -128.264 	 22.8595 	 -14.9296
| 14> H 	 -127.194 	 22.8315 	 -14.6699
| 15> H 	 -128.334 	 22.4329 	 -15.9182
| 16> C 	 -128.979 	 22.0153 	 -13.9194
| 17> H 	 -130.08 	 21.9817 	 -14.1059
| 18> H 	 -128.559 	 21.0286 	 -13.9984
| 19> C 	 -128.833 	 22.5794 	 -12.5389
| 20> H 	 -129.162 	 23.6106 	 -12.5541
| 21> H 	 -129.447 	 22.0789 	 -11.8929
| 22> H 	 -127.8 	 22.5544 	 -12.2822
| 23> S 	 -130.65 	 28.7616 	 -13.8892
| 24> C 	 -132.319 	 29.3808 	 -14.1021
| 25> C 	 -133.168 	 28.3274 	 -14.1465
| 26> C 	 -132.603 	 27.0379 	 -14.6129
| 27> C 	 -131.189 	 27.2302 	 -14.6446
| 28> H 	 -134.212 	 28.4684 	 -13.9126
| 29> C 	 -133.455 	 25.8725 	 -15.0292
| 30> H 	 -132.864 	 25.2597 	 -15.6814
| 31> H 	 -134.296 	 26.2851 	 -15.6147
| 32> C 	 -134.038 	 24.9932 	 -13.9129
| 33> H 	 -134.601 	 25.6135 	 -13.2056
| 34> H 	 -133.166 	 24.5333 	 -13.4854
| 35> C 	 -134.766 	 23.7862 	 -14.4919
| 36> H 	 -135.716 	 23.8446 	 -15.0258
| 37> H 	 -134.904 	 22.9033 	 -13.8474
| 38> H 	 -134.043 	 23.35 	 -15.2001
| 39> H 	 -126.807 	 25.1313 	 -15.5358
| 40> H 	 -132.609 	 30.3212 	 -13.6505
| 41> *
| 42>
| 43>                          ****END OF INPUT****

CARTESIAN COORDINATES (ANGSTROEM)
---------------------------------
  S    -128.620000   26.882500  -15.558800
  C    -127.849000   25.337700  -15.408800
  C    -128.770000   24.339900  -15.106300
  C    -130.078000   24.948200  -14.819400
  C    -130.075000   26.321600  -14.914700
  H    -130.973000   24.488600  -14.633900
  C    -128.264000   22.859500  -14.929600
  H    -127.194000   22.831500  -14.669900
  H    -128.334000   22.432900  -15.918200
  C    -128.979000   22.015300  -13.919400
  H    -130.080000   21.981700  -14.105900
  H    -128.559000   21.028600  -13.998400
  C    -128.833000   22.579400  -12.538900
  H    -129.162000   23.610600  -12.554100
  H    -129.447000   22.078900  -11.892900
  H    -127.800000   22.554400  -12.282200
  S    -130.650000   28.761600  -13.889200
  C    -132.319000   29.380800  -14.102100
  C    -133.168000   28.327400  -14.146500
  C    -132.603000   27.037900  -14.612900
  C    -131.189000   27.230200  -14.644600
  H    -134.212000   28.468400  -13.912600
  C    -133.455000   25.872500  -15.029200
  H    -132.864000   25.259700  -15.681400
  H    -134.296000   26.285100  -15.614700
  C    -134.038000   24.993200  -13.912900
  H    -134.601000   25.613500  -13.205600
  H    -133.166000   24.533300  -13.485400
  C    -134.766000   23.786200  -14.491900
  H    -135.716000   23.844600  -15.025800
  H    -134.904000   22.903300  -13.847400
  H    -134.043000   23.350000  -15.200100
  H    -126.807000   25.131300  -15.535800
  H    -132.609000   30.321200  -13.650500

 Total Charge           Charge          ....    0
 Multiplicity           Mult            ....    1
 Number of Electrons    NEL             ....  134
 Basis Dimension        Dim             ....  322

ORBITAL ENERGIES
----------------

  NO   OCC          E(Eh)            E(eV)
   0   2.0000     -88.963958     -2420.8324
   1   2.0000     -88.962790     -2420.8006
   2   2.0000     -10.337469      -281.2968
   3   2.0000     -10.324517      -280.9444
   4   2.0000     -10.314995      -280.6853
   5   2.0000     -10.314699      -280.6772
   6   2.0000     -10.309558      -280.5373
   7   2.0000     -10.309109      -280.5251
   8   2.0000     -10.298789      -280.2443
   9   2.0000     -10.297505      -280.2094
  10   2.0000     -10.294999      -280.1412
  11   2.0000     -10.294936      -280.1395
  12   2.0000     -10.292849      -280.0827
  13   2.0000     -10.284500      -279.8555
  14   2.0000     -10.281482      -279.7733
  15   2.0000     -10.259676      -279.1800
  16   2.0000      -8.080104      -219.8708
  17   2.0000      -8.076673      -219.7774
  18   2.0000      -6.038503      -164.3160
  19   2.0000      -6.035355      -164.2304
  20   2.0000      -6.034363      -164.2034
  21   2.0000      -6.031806      -164.1338
  22   2.0000      -6.030914      -164.1095
  23   2.0000      -6.026757      -163.9964
  24   2.0000      -1.009526       -27.4706
  25   2.0000      -0.979152       -26.6441
  26   2.0000      -0.919900       -25.0318
  27   2.0000      -0.917225       -24.9590
  28   2.0000      -0.871944       -23.7268
  29   2.0000      -0.853058       -23.2129
  30   2.0000      -0.841732       -22.9047
  31   2.0000      -0.818767       -22.2798
  32   2.0000      -0.786987       -21.4150
  33   2.0000      -0.775294       -21.0968
  34   2.0000      -0.711951       -19.3732
  35   2.0000      -0.699615       -19.0375
  36   2.0000      -0.687376       -18.7044
  37   2.0000      -0.659506       -17.9461
  38   2.0000      -0.643138       -17.5007
  39   2.0000      -0.623116       -16.9559
  40   2.0000      -0.598551       -16.2874
  41   2.0000      -0.579215       -15.7612
  42   2.0000      -0.569891       -15.5075
  43   2.0000      -0.560184       -15.2434
  44   2.0000      -0.547831       -14.9072
  45   2.0000      -0.523667       -14.2497
  46   2.0000      -0.516760       -14.0618
  47   2.0000      -0.514723       -14.0063
  48   2.0000      -0.506502       -13.7826
  49   2.0000      -0.500295       -13.6137
  50   2.0000      -0.487999       -13.2791
  51   2.0000      -0.480300       -13.0696
  52   2.0000      -0.475658       -12.9433
  53   2.0000      -0.460684       -12.5358
  54   2.0000      -0.458928       -12.4881
  55   2.0000      -0.454764       -12.3748
  56   2.0000      -0.444451       -12.0941
  57   2.0000      -0.438633       -11.9358
  58   2.0000      -0.433766       -11.8034
  59   2.0000      -0.428691       -11.6653
  60   2.0000      -0.425020       -11.5654
  61   2.0000      -0.422742       -11.5034
  62   2.0000      -0.412850       -11.2342
  63   2.0000      -0.352424        -9.5899
  64   2.0000      -0.329022        -8.9531
  65   2.0000      -0.321662        -8.7529
  66   2.0000      -0.289722        -7.8837
  67   0.0000       0.017938         0.4881
  68   0.0000       0.078239         2.1290
  69   0.0000       0.088668         2.4128
  70   0.0000       0.114428         3.1137
  71   0.0000       0.121355         3.3022

MULLIKEN ATOMIC CHARGES
-----------------------
   0 S :    0.128676
   1 C :   -0.119510
   2 C :   -0.094799
   3 C :    0.052900
   4 C :   -0.137876
   5 H :   -0.061864
   6 C :    0.061283
   7 H :    0.025520
   8 H :    0.037567
   9 C :   -0.085113
  10 H :    0.025687
  11 H :    0.026073
  12 C :    0.011409
  13 H :    0.032848
  14 H :    0.012437
  15 H :    0.015877
  16 S :    0.075375
  17 C :   -0.067641
  18 C :   -0.041856
  19 C :   -0.033816
  20 C :   -0.134807
  21 H :    0.020951
  22 C :    0.036563
  23 H :    0.018300
  24 H :    0.035148
  25 C :   -0.026122
  26 H :    0.038976
  27 H :    0.025398
  28 C :   -0.062036
  29 H :    0.038477
  30 H :    0.032421
  31 H :    0.013763
  32 H :    0.041159
  33 H :    0.058633
Sum of atomic charges:   -0.0000000

LOEWDIN ATOMIC CHARGES
----------------------
   0 S :    0.439467
   1 C :   -0.203613
   2 C :   -0.052778
   3 C :   -0.064641
   4 C :   -0.215867
   5 H :    0.007615
   6 C :   -0.029397
   7 H :    0.032225
   8 H :    0.031682
   9 C :   -0.044350
  10 H :    0.024086
  11 H :    0.023633
  12 C :   -0.050302
  13 H :    0.029015
  14 H :    0.012997
  15 H :    0.020504
  16 S :    0.360387
  17 C :   -0.178539
  18 C :   -0.054637
  19 C :   -0.052806
  20 C :   -0.167657
  21 H :    0.027371
  22 C :   -0.034080
  23 H :    0.026043
  24 H :    0.036175
  25 C :   -0.031913
  26 H :    0.025490
  27 H :    0.026511
  28 C :   -0.076509
  29 H :    0.024356
  30 H :    0.029735
  31 H :    0.028141
  32 H :    0.024464
  33 H :    0.027194

  Mayer bond orders larger than 0.100000
B(  0-S ,  1-C ) :   1.1406 B(  0-S ,  4-C ) :   1.1720 B(  1-C ,  2-C ) :   1.6094
B(  1-C , 32-H ) :   0.9734 B(  2-C ,  3-C ) :   1.2287 B(  2-C ,  6-C ) :   0.9977
B(  3-C ,  4-C ) :   1.5604 B(  3-C ,  5-H ) :   1.0097 B(  4-C , 20-C ) :   1.0490
B(  6-C ,  7-H ) :   0.9497 B(  6-C ,  8-H ) :   0.9326 B(  6-C ,  9-C ) :   1.0901
B(  9-C , 10-H ) :   0.9500 B(  9-C , 11-H ) :   0.9499 B(  9-C , 12-C ) :   1.0858
B( 12-C , 13-H ) :   0.9702 B( 12-C , 14-H ) :   0.9711 B( 12-C , 15-H ) :   0.9722
B( 16-S , 17-C ) :   1.0911 B( 16-S , 20-C ) :   1.1488 B( 17-C , 18-C ) :   1.6882
B( 17-C , 33-H ) :   0.9630 B( 18-C , 19-C ) :   1.1797 B( 18-C , 21-H ) :   0.9789
B( 19-C , 20-C ) :   1.5971 B( 19-C , 22-C ) :   1.0541 B( 22-C , 23-H ) :   0.9287
B( 22-C , 24-H ) :   0.9304 B( 22-C , 25-C ) :   1.0711 B( 25-C , 26-H ) :   0.9564
B( 25-C , 27-H ) :   0.9488 B( 25-C , 28-C ) :   1.0723 B( 28-C , 29-H ) :   0.9782
B( 28-C , 30-H ) :   0.9751 B( 28-C , 31-H ) :   0.9674

Dispersion correction           -0.014255988
FINAL SINGLE POINT ENERGY     -1339.849998700968

DIPOLE MOMENT
-------------
                                X             Y             Z
Electronic contribution:     11.14944      27.25863      -5.50832
Nuclear contribution   :    -11.53970     -27.94557       5.67258
                        -----------------------------------------
Total Dipole Moment    :     -0.39026      -0.68693       0.16425
                        -----------------------------------------
Magnitude (a.u.)       :      0.80694
Magnitude (Debye)      :      2.05109

Rotational constants in cm-1:     0.016000     0.010257     0.006986
Rotational constants in MHz :   479.659404   307.512086   209.443369

                             ****ORCA TERMINATED NORMALLY****
TOTAL RUN TIME: 0 days 0 hours 0 minutes 22 seconds 133 msec
