                         Program Version 4.2.1 -  RELEASE  -
|  1> ! wB97X-D3 SP def2-SVP
|  2> %pal
|  3> nprocs 24
|  4> end
|  5>
|  6> * xyz 0 1
|  7> S 	 -41.7178 	 16.1834 	 -100.236
|  8> C 	 -41.2313 	 14.551 	 -99.7672
|  9> C 	 -42.357 	 13.8413 	 -99.2787
| 10> C 	 -43.5906 	 14.5249 	 -99.6107
| 11> C 	 -43.4365 	 15.7466 	 -100.144
| 12> H 	 -44.5906 	 14.1888 	 -99.3852
| 13> C 	 -42.3903 	 12.5089 	 -98.6649
| 14> H 	 -41.3424 	 12.0673 	 -98.6037
| 15> H 	 -43.0496 	 11.9856 	 -99.2769
| 16> C 	 -42.8452 	 12.4977 	 -97.203
| 17> H 	 -43.8441 	 12.9101 	 -97.1407
| 18> H 	 -42.7703 	 11.5022 	 -96.7852
| 19> C 	 -42.017 	 13.4778 	 -96.3095
| 20> H 	 -42.3642 	 13.137 	 -95.2741
| 21> H 	 -40.9534 	 13.3635 	 -96.4406
| 22> H 	 -42.2957 	 14.5119 	 -96.5663
| 23> S 	 -44.5184 	 18.0647 	 -99.2987
| 24> C 	 -45.9013 	 18.8131 	 -100.079
| 25> C 	 -46.337 	 17.9864 	 -101.135
| 26> C 	 -45.5321 	 16.8594 	 -101.347
| 27> C 	 -44.4526 	 16.7741 	 -100.448
| 28> H 	 -47.1756 	 18.2647 	 -101.669
| 29> C 	 -45.7788 	 15.7953 	 -102.402
| 30> H 	 -44.8005 	 15.5374 	 -102.775
| 31> H 	 -46.3306 	 16.3803 	 -103.12
| 32> C 	 -46.5908 	 14.6483 	 -101.786
| 33> H 	 -47.6796 	 14.9433 	 -101.639
| 34> H 	 -46.2761 	 14.4495 	 -100.733
| 35> C 	 -46.459 	 13.2977 	 -102.587
| 36> H 	 -45.4094 	 12.8331 	 -102.485
| 37> H 	 -46.5545 	 13.4371 	 -103.641
| 38> H 	 -47.1526 	 12.5168 	 -102.29
| 39> H 	 -40.2399 	 14.1632 	 -99.6241
| 40> H 	 -46.4274 	 19.6587 	 -99.7274
| 41> *
| 42>
| 43>                          ****END OF INPUT****

CARTESIAN COORDINATES (ANGSTROEM)
---------------------------------
  S    -41.717800   16.183400  -100.236000
  C    -41.231300   14.551000  -99.767200
  C    -42.357000   13.841300  -99.278700
  C    -43.590600   14.524900  -99.610700
  C    -43.436500   15.746600  -100.144000
  H    -44.590600   14.188800  -99.385200
  C    -42.390300   12.508900  -98.664900
  H    -41.342400   12.067300  -98.603700
  H    -43.049600   11.985600  -99.276900
  C    -42.845200   12.497700  -97.203000
  H    -43.844100   12.910100  -97.140700
  H    -42.770300   11.502200  -96.785200
  C    -42.017000   13.477800  -96.309500
  H    -42.364200   13.137000  -95.274100
  H    -40.953400   13.363500  -96.440600
  H    -42.295700   14.511900  -96.566300
  S    -44.518400   18.064700  -99.298700
  C    -45.901300   18.813100  -100.079000
  C    -46.337000   17.986400  -101.135000
  C    -45.532100   16.859400  -101.347000
  C    -44.452600   16.774100  -100.448000
  H    -47.175600   18.264700  -101.669000
  C    -45.778800   15.795300  -102.402000
  H    -44.800500   15.537400  -102.775000
  H    -46.330600   16.380300  -103.120000
  C    -46.590800   14.648300  -101.786000
  H    -47.679600   14.943300  -101.639000
  H    -46.276100   14.449500  -100.733000
  C    -46.459000   13.297700  -102.587000
  H    -45.409400   12.833100  -102.485000
  H    -46.554500   13.437100  -103.641000
  H    -47.152600   12.516800  -102.290000
  H    -40.239900   14.163200  -99.624100
  H    -46.427400   19.658700  -99.727400

 Total Charge           Charge          ....    0
 Multiplicity           Mult            ....    1
 Number of Electrons    NEL             ....  134
 Basis Dimension        Dim             ....  322

ORBITAL ENERGIES
----------------

  NO   OCC          E(Eh)            E(eV)
   0   2.0000     -88.966432     -2420.8997
   1   2.0000     -88.965206     -2420.8663
   2   2.0000     -10.330526      -281.1079
   3   2.0000     -10.324879      -280.9542
   4   2.0000     -10.318334      -280.7761
   5   2.0000     -10.317259      -280.7469
   6   2.0000     -10.304338      -280.3953
   7   2.0000     -10.301853      -280.3277
   8   2.0000     -10.298962      -280.2490
   9   2.0000     -10.293674      -280.1051
  10   2.0000     -10.290410      -280.0163
  11   2.0000     -10.290068      -280.0070
  12   2.0000     -10.288195      -279.9560
  13   2.0000     -10.285854      -279.8923
  14   2.0000     -10.282976      -279.8140
  15   2.0000     -10.281266      -279.7675
  16   2.0000      -8.081140      -219.8990
  17   2.0000      -8.079245      -219.8474
  18   2.0000      -6.039492      -164.3429
  19   2.0000      -6.037911      -164.2999
  20   2.0000      -6.035384      -164.2311
  21   2.0000      -6.033931      -164.1916
  22   2.0000      -6.032343      -164.1484
  23   2.0000      -6.029782      -164.0787
  24   2.0000      -1.006353       -27.3843
  25   2.0000      -0.982997       -26.7487
  26   2.0000      -0.916929       -24.9509
  27   2.0000      -0.906912       -24.6783
  28   2.0000      -0.867237       -23.5987
  29   2.0000      -0.845960       -23.0197
  30   2.0000      -0.844176       -22.9712
  31   2.0000      -0.817296       -22.2398
  32   2.0000      -0.780630       -21.2420
  33   2.0000      -0.769637       -20.9429
  34   2.0000      -0.706030       -19.2121
  35   2.0000      -0.698680       -19.0120
  36   2.0000      -0.693197       -18.8628
  37   2.0000      -0.669025       -18.2051
  38   2.0000      -0.641756       -17.4631
  39   2.0000      -0.623366       -16.9626
  40   2.0000      -0.590634       -16.0720
  41   2.0000      -0.571180       -15.5426
  42   2.0000      -0.559916       -15.2361
  43   2.0000      -0.556538       -15.1442
  44   2.0000      -0.548536       -14.9264
  45   2.0000      -0.526313       -14.3217
  46   2.0000      -0.515366       -14.0238
  47   2.0000      -0.514580       -14.0024
  48   2.0000      -0.507593       -13.8123
  49   2.0000      -0.499580       -13.5943
  50   2.0000      -0.487342       -13.2613
  51   2.0000      -0.478460       -13.0196
  52   2.0000      -0.469534       -12.7767
  53   2.0000      -0.463311       -12.6073
  54   2.0000      -0.459844       -12.5130
  55   2.0000      -0.448038       -12.1917
  56   2.0000      -0.446293       -12.1443
  57   2.0000      -0.438009       -11.9188
  58   2.0000      -0.427069       -11.6211
  59   2.0000      -0.424359       -11.5474
  60   2.0000      -0.422370       -11.4933
  61   2.0000      -0.417707       -11.3664
  62   2.0000      -0.408050       -11.1036
  63   2.0000      -0.344749        -9.3811
  64   2.0000      -0.330209        -8.9854
  65   2.0000      -0.322676        -8.7804
  66   2.0000      -0.298635        -8.1263
  67   0.0000       0.036432         0.9914
  68   0.0000       0.054573         1.4850
  69   0.0000       0.112430         3.0594
  70   0.0000       0.122041         3.3209
  71   0.0000       0.130077         3.5396

MULLIKEN ATOMIC CHARGES
-----------------------
   0 S :    0.103257
   1 C :   -0.092141
   2 C :   -0.131248
   3 C :    0.043739
   4 C :   -0.151486
   5 H :    0.013187
   6 C :    0.092246
   7 H :    0.026428
   8 H :    0.023672
   9 C :   -0.091814
  10 H :    0.027166
  11 H :    0.037935
  12 C :   -0.081523
  13 H :    0.047076
  14 H :    0.027951
  15 H :    0.056250
  16 S :    0.115893
  17 C :   -0.083423
  18 C :   -0.027833
  19 C :   -0.064363
  20 C :   -0.178926
  21 H :   -0.011470
  22 C :    0.137856
  23 H :    0.036828
  24 H :    0.017832
  25 C :   -0.091313
  26 H :    0.036910
  27 H :    0.027366
  28 C :   -0.059880
  29 H :    0.041044
  30 H :    0.027412
  31 H :    0.036410
  32 H :    0.042377
  33 H :    0.046582
Sum of atomic charges:    0.0000000

LOEWDIN ATOMIC CHARGES
----------------------
   0 S :    0.385543
   1 C :   -0.193528
   2 C :   -0.056673
   3 C :   -0.061829
   4 C :   -0.187127
   5 H :    0.029174
   6 C :   -0.035840
   7 H :    0.036751
   8 H :    0.025248
   9 C :   -0.037847
  10 H :    0.021032
  11 H :    0.022769
  12 C :   -0.066138
  13 H :    0.036776
  14 H :    0.016507
  15 H :    0.030096
  16 S :    0.427574
  17 C :   -0.181250
  18 C :   -0.065962
  19 C :   -0.054016
  20 C :   -0.215056
  21 H :    0.018932
  22 C :   -0.023882
  23 H :    0.034101
  24 H :    0.030692
  25 C :   -0.042915
  26 H :    0.032018
  27 H :    0.022776
  28 C :   -0.074045
  29 H :    0.034293
  30 H :    0.019166
  31 H :    0.024390
  32 H :    0.026109
  33 H :    0.022161

  Mayer bond orders larger than 0.100000
B(  0-S ,  1-C ) :   1.1272 B(  0-S ,  4-C ) :   1.1333 B(  1-C ,  2-C ) :   1.6178
B(  1-C , 32-H ) :   0.9666 B(  2-C ,  3-C ) :   1.1938 B(  2-C ,  6-C ) :   1.0366
B(  3-C ,  4-C ) :   1.6386 B(  3-C ,  5-H ) :   0.9866 B(  4-C , 20-C ) :   0.9874
B(  6-C ,  7-H ) :   0.9395 B(  6-C ,  8-H ) :   0.9368 B(  6-C ,  9-C ) :   1.0740
B(  9-C , 10-H ) :   0.9551 B(  9-C , 11-H ) :   0.9639 B(  9-C , 12-C ) :   1.0633
B( 12-C , 13-H ) :   0.9763 B( 12-C , 14-H ) :   0.9799 B( 12-C , 15-H ) :   0.9724
B( 16-S , 17-C ) :   1.1785 B( 16-S , 20-C ) :   1.1803 B( 17-C , 18-C ) :   1.5516
B( 17-C , 20-C ) :   0.1172 B( 17-C , 33-H ) :   0.9749 B( 18-C , 19-C ) :   1.2936
B( 18-C , 21-H ) :   1.0030 B( 19-C , 20-C ) :   1.5536 B( 19-C , 22-C ) :   1.0268
B( 22-C , 23-H ) :   0.9386 B( 22-C , 24-H ) :   0.9255 B( 22-C , 25-C ) :   1.0502
B( 25-C , 26-H ) :   0.9506 B( 25-C , 27-H ) :   0.9622 B( 25-C , 28-C ) :   1.0693
B( 28-C , 29-H ) :   0.9762 B( 28-C , 30-H ) :   0.9760 B( 28-C , 31-H ) :   0.9765

Dispersion correction           -0.015263585
FINAL SINGLE POINT ENERGY     -1339.870626325889

DIPOLE MOMENT
-------------
                                X             Y             Z
Electronic contribution:      7.36236      22.16763      -1.98291
Nuclear contribution   :     -7.81101     -22.65959       2.05702
                        -----------------------------------------
Total Dipole Moment    :     -0.44865      -0.49196       0.07411
                        -----------------------------------------
Magnitude (a.u.)       :      0.66993
Magnitude (Debye)      :      1.70283

Rotational constants in cm-1:     0.018018     0.009482     0.007701
Rotational constants in MHz :   540.172146   284.260777   230.873426

                             ****ORCA TERMINATED NORMALLY****
TOTAL RUN TIME: 0 days 0 hours 0 minutes 21 seconds 61 msec
