                         Program Version 4.2.1 -  RELEASE  -
|  1> ! wB97X-D3 SP def2-SVP
|  2> %pal
|  3> nprocs 24
|  4> end
|  5>
|  6> * xyz 0 1
|  7> S 	 -4.50705 	 -23.8358 	 -117.296
|  8> C 	 -3.67998 	 -23.6272 	 -118.84
|  9> C 	 -2.33591 	 -23.9122 	 -118.693
| 10> C 	 -2.04795 	 -24.5143 	 -117.427
| 11> C 	 -3.09765 	 -24.3919 	 -116.539
| 12> H 	 -1.09903 	 -24.9227 	 -117.136
| 13> C 	 -1.24913 	 -23.7452 	 -119.872
| 14> H 	 -1.84605 	 -23.7704 	 -120.804
| 15> H 	 -0.78868 	 -24.7482 	 -120.017
| 16> C 	 -0.291009 	 -22.4959 	 -119.733
| 17> H 	 0.211026 	 -22.4997 	 -118.757
| 18> H 	 0.503867 	 -22.5879 	 -120.453
| 19> C 	 -1.00945 	 -21.1198 	 -119.81
| 20> H 	 -0.187453 	 -20.356 	 -119.734
| 21> H 	 -1.68886 	 -20.9712 	 -120.665
| 22> H 	 -1.61842 	 -20.9783 	 -118.89
| 23> S 	 -4.34636 	 -26.1868 	 -114.942
| 24> C 	 -3.93909 	 -26.3838 	 -113.28
| 25> C 	 -2.97753 	 -25.4572 	 -112.908
| 26> C 	 -2.4658 	 -24.7301 	 -113.961
| 27> C 	 -3.18799 	 -24.8849 	 -115.129
| 28> H 	 -2.64519 	 -25.6372 	 -111.901
| 29> C 	 -1.25216 	 -23.8024 	 -113.732
| 30> H 	 -1.57134 	 -22.885 	 -113.304
| 31> H 	 -0.96229 	 -23.4616 	 -114.707
| 32> C 	 0.0777822 	 -24.425 	 -113.048
| 33> H 	 0.202956 	 -25.4901 	 -113.362
| 34> H 	 -0.166215 	 -24.5374 	 -111.997
| 35> C 	 1.35414 	 -23.628 	 -113.115
| 36> H 	 1.10029 	 -22.6329 	 -113.021
| 37> H 	 1.82438 	 -23.7303 	 -114.107
| 38> H 	 2.11057 	 -23.9034 	 -112.351
| 39> H 	 -4.09914 	 -23.1399 	 -119.763
| 40> H 	 -4.20939 	 -27.1408 	 -112.636
| 41> *
| 42>
| 43>                          ****END OF INPUT****

CARTESIAN COORDINATES (ANGSTROEM)
---------------------------------
  S     -4.507050  -23.835800  -117.296000
  C     -3.679980  -23.627200  -118.840000
  C     -2.335910  -23.912200  -118.693000
  C     -2.047950  -24.514300  -117.427000
  C     -3.097650  -24.391900  -116.539000
  H     -1.099030  -24.922700  -117.136000
  C     -1.249130  -23.745200  -119.872000
  H     -1.846050  -23.770400  -120.804000
  H     -0.788680  -24.748200  -120.017000
  C     -0.291009  -22.495900  -119.733000
  H      0.211026  -22.499700  -118.757000
  H      0.503867  -22.587900  -120.453000
  C     -1.009450  -21.119800  -119.810000
  H     -0.187453  -20.356000  -119.734000
  H     -1.688860  -20.971200  -120.665000
  H     -1.618420  -20.978300  -118.890000
  S     -4.346360  -26.186800  -114.942000
  C     -3.939090  -26.383800  -113.280000
  C     -2.977530  -25.457200  -112.908000
  C     -2.465800  -24.730100  -113.961000
  C     -3.187990  -24.884900  -115.129000
  H     -2.645190  -25.637200  -111.901000
  C     -1.252160  -23.802400  -113.732000
  H     -1.571340  -22.885000  -113.304000
  H     -0.962290  -23.461600  -114.707000
  C      0.077782  -24.425000  -113.048000
  H      0.202956  -25.490100  -113.362000
  H     -0.166215  -24.537400  -111.997000
  C      1.354140  -23.628000  -113.115000
  H      1.100290  -22.632900  -113.021000
  H      1.824380  -23.730300  -114.107000
  H      2.110570  -23.903400  -112.351000
  H     -4.099140  -23.139900  -119.763000
  H     -4.209390  -27.140800  -112.636000

 Total Charge           Charge          ....    0
 Multiplicity           Mult            ....    1
 Number of Electrons    NEL             ....  134
 Basis Dimension        Dim             ....  322

ORBITAL ENERGIES
----------------

  NO   OCC          E(Eh)            E(eV)
   0   2.0000     -88.966252     -2420.8948
   1   2.0000     -88.964809     -2420.8555
   2   2.0000     -10.328839      -281.0620
   3   2.0000     -10.328177      -281.0440
   4   2.0000     -10.316347      -280.7221
   5   2.0000     -10.308077      -280.4970
   6   2.0000     -10.305405      -280.4243
   7   2.0000     -10.305257      -280.4203
   8   2.0000     -10.304312      -280.3946
   9   2.0000     -10.295101      -280.1439
  10   2.0000     -10.292476      -280.0725
  11   2.0000     -10.292157      -280.0638
  12   2.0000     -10.291703      -280.0515
  13   2.0000     -10.285934      -279.8945
  14   2.0000     -10.285415      -279.8804
  15   2.0000     -10.277061      -279.6531
  16   2.0000      -8.081727      -219.9150
  17   2.0000      -8.079908      -219.8655
  18   2.0000      -6.040223      -164.3628
  19   2.0000      -6.038208      -164.3080
  20   2.0000      -6.036028      -164.2487
  21   2.0000      -6.034248      -164.2002
  22   2.0000      -6.032544      -164.1539
  23   2.0000      -6.030966      -164.1109
  24   2.0000      -1.012138       -27.5417
  25   2.0000      -0.989477       -26.9250
  26   2.0000      -0.900889       -24.5144
  27   2.0000      -0.897271       -24.4160
  28   2.0000      -0.865648       -23.5555
  29   2.0000      -0.856901       -23.3175
  30   2.0000      -0.842724       -22.9317
  31   2.0000      -0.813687       -22.1415
  32   2.0000      -0.782519       -21.2934
  33   2.0000      -0.773924       -21.0596
  34   2.0000      -0.706317       -19.2199
  35   2.0000      -0.702463       -19.1150
  36   2.0000      -0.692298       -18.8384
  37   2.0000      -0.657750       -17.8983
  38   2.0000      -0.637745       -17.3539
  39   2.0000      -0.619744       -16.8641
  40   2.0000      -0.595567       -16.2062
  41   2.0000      -0.567808       -15.4508
  42   2.0000      -0.556722       -15.1492
  43   2.0000      -0.543664       -14.7939
  44   2.0000      -0.537650       -14.6302
  45   2.0000      -0.531233       -14.4556
  46   2.0000      -0.516176       -14.0459
  47   2.0000      -0.510273       -13.8852
  48   2.0000      -0.504356       -13.7242
  49   2.0000      -0.495375       -13.4798
  50   2.0000      -0.482207       -13.1215
  51   2.0000      -0.479385       -13.0447
  52   2.0000      -0.473416       -12.8823
  53   2.0000      -0.468589       -12.7509
  54   2.0000      -0.456896       -12.4328
  55   2.0000      -0.447044       -12.1647
  56   2.0000      -0.444486       -12.0951
  57   2.0000      -0.438844       -11.9416
  58   2.0000      -0.431663       -11.7462
  59   2.0000      -0.427667       -11.6374
  60   2.0000      -0.418716       -11.3938
  61   2.0000      -0.412267       -11.2184
  62   2.0000      -0.408849       -11.1253
  63   2.0000      -0.342184        -9.3113
  64   2.0000      -0.335653        -9.1336
  65   2.0000      -0.330026        -8.9805
  66   2.0000      -0.297214        -8.0876
  67   0.0000       0.038654         1.0518
  68   0.0000       0.065225         1.7749
  69   0.0000       0.120462         3.2779
  70   0.0000       0.123623         3.3640
  71   0.0000       0.128938         3.5086

MULLIKEN ATOMIC CHARGES
-----------------------
   0 S :    0.115968
   1 C :   -0.142308
   2 C :   -0.116697
   3 C :    0.056252
   4 C :   -0.159680
   5 H :    0.006519
   6 C :    0.034303
   7 H :    0.017901
   8 H :    0.035808
   9 C :   -0.042695
  10 H :    0.032294
  11 H :    0.032105
  12 C :   -0.085996
  13 H :    0.042343
  14 H :    0.041905
  15 H :    0.047806
  16 S :    0.114475
  17 C :   -0.072846
  18 C :   -0.044334
  19 C :   -0.028125
  20 C :   -0.151921
  21 H :    0.016101
  22 C :    0.105155
  23 H :    0.029191
  24 H :   -0.004979
  25 C :   -0.107976
  26 H :    0.036826
  27 H :    0.024637
  28 C :   -0.021968
  29 H :    0.015234
  30 H :    0.032773
  31 H :    0.045846
  32 H :    0.068815
  33 H :    0.027270
Sum of atomic charges:    0.0000000

LOEWDIN ATOMIC CHARGES
----------------------
   0 S :    0.426781
   1 C :   -0.212882
   2 C :   -0.063107
   3 C :   -0.067447
   4 C :   -0.211696
   5 H :    0.028467
   6 C :   -0.037130
   7 H :    0.028806
   8 H :    0.034795
   9 C :   -0.039446
  10 H :    0.028550
  11 H :    0.021195
  12 C :   -0.071760
  13 H :    0.033074
  14 H :    0.024343
  15 H :    0.031403
  16 S :    0.426062
  17 C :   -0.180480
  18 C :   -0.074141
  19 C :   -0.057578
  20 C :   -0.200374
  21 H :    0.032001
  22 C :   -0.024820
  23 H :    0.028387
  24 H :    0.021166
  25 C :   -0.043699
  26 H :    0.027732
  27 H :    0.019254
  28 C :   -0.062570
  29 H :    0.016150
  30 H :    0.028022
  31 H :    0.035701
  32 H :    0.040308
  33 H :    0.014933

  Mayer bond orders larger than 0.100000
B(  0-S ,  1-C ) :   1.1336 B(  0-S ,  4-C ) :   1.1819 B(  1-C ,  2-C ) :   1.6196
B(  1-C , 32-H ) :   0.9594 B(  2-C ,  3-C ) :   1.2455 B(  2-C ,  6-C ) :   0.9968
B(  3-C ,  4-C ) :   1.5687 B(  3-C ,  5-H ) :   0.9963 B(  4-C , 20-C ) :   0.9737
B(  6-C ,  7-H ) :   0.9508 B(  6-C ,  8-H ) :   0.9509 B(  6-C ,  9-C ) :   1.0449
B(  9-C , 10-H ) :   0.9593 B(  9-C , 11-H ) :   0.9615 B(  9-C , 12-C ) :   1.0664
B( 12-C , 13-H ) :   0.9738 B( 12-C , 14-H ) :   0.9790 B( 12-C , 15-H ) :   0.9753
B( 16-S , 17-C ) :   1.1765 B( 16-S , 20-C ) :   1.1652 B( 17-C , 18-C ) :   1.5948
B( 17-C , 20-C ) :   0.1106 B( 17-C , 33-H ) :   0.9744 B( 18-C , 19-C ) :   1.2543
B( 18-C , 21-H ) :   0.9930 B( 19-C , 20-C ) :   1.5950 B( 19-C , 22-C ) :   1.0365
B( 22-C , 23-H ) :   0.9342 B( 22-C , 24-H ) :   0.9331 B( 22-C , 25-C ) :   1.0390
B( 25-C , 26-H ) :   0.9620 B( 25-C , 27-H ) :   0.9541 B( 25-C , 28-C ) :   1.0894
B( 28-C , 29-H ) :   0.9715 B( 28-C , 30-H ) :   0.9739 B( 28-C , 31-H ) :   0.9731

Dispersion correction           -0.013842654
FINAL SINGLE POINT ENERGY     -1339.861912257157

DIPOLE MOMENT
-------------
                                X             Y             Z
Electronic contribution:    -26.69349     -12.73656       2.72956
Nuclear contribution   :     27.40625      12.81060      -2.67448
                        -----------------------------------------
Total Dipole Moment    :      0.71276       0.07405       0.05508
                        -----------------------------------------
Magnitude (a.u.)       :      0.71871
Magnitude (Debye)      :      1.82681

Rotational constants in cm-1:     0.016797     0.008958     0.006303
Rotational constants in MHz :   503.552738   268.561428   188.952217

                             ****ORCA TERMINATED NORMALLY****
TOTAL RUN TIME: 0 days 0 hours 0 minutes 20 seconds 866 msec
