                         Program Version 4.2.1 -  RELEASE  -
|  1> ! wB97X-D3 SP def2-SVP
|  2> %pal
|  3> nprocs 24
|  4> end
|  5>
|  6> * xyz 0 1
|  7> S 	 20.2729 	 -8.7101 	 -113.65
|  8> C 	 20.5917 	 -9.03935 	 -111.959
|  9> C 	 19.4556 	 -9.62334 	 -111.4
| 10> C 	 18.4457 	 -9.87688 	 -112.345
| 11> C 	 18.8174 	 -9.61802 	 -113.642
| 12> H 	 17.424 	 -10.3832 	 -112.105
| 13> C 	 19.3067 	 -9.90525 	 -109.924
| 14> H 	 19.135 	 -10.9494 	 -110.019
| 15> H 	 18.3882 	 -9.4163 	 -109.499
| 16> C 	 20.4619 	 -9.6735 	 -109.007
| 17> H 	 20.7024 	 -8.65098 	 -108.95
| 18> H 	 20.1093 	 -9.92427 	 -108.003
| 19> C 	 21.6719 	 -10.5985 	 -109.335
| 20> H 	 22.4296 	 -10.4977 	 -108.545
| 21> H 	 21.3736 	 -11.6508 	 -109.327
| 22> H 	 22.092 	 -10.3906 	 -110.338
| 23> S 	 19.2218 	 -10.8101 	 -116.065
| 24> C 	 17.9084 	 -11.1874 	 -117.126
| 25> C 	 16.7756 	 -10.5008 	 -116.724
| 26> C 	 16.981 	 -9.77783 	 -115.508
| 27> C 	 18.2031 	 -9.92209 	 -114.914
| 28> H 	 15.8288 	 -10.5154 	 -117.261
| 29> C 	 15.8656 	 -8.92412 	 -114.939
| 30> H 	 15.7714 	 -8.03823 	 -115.561
| 31> H 	 16.0211 	 -8.50673 	 -114.006
| 32> C 	 14.4535 	 -9.52645 	 -114.779
| 33> H 	 14.4717 	 -10.1058 	 -113.835
| 34> H 	 14.22 	 -10.1517 	 -115.594
| 35> C 	 13.3465 	 -8.47256 	 -114.811
| 36> H 	 12.4233 	 -9.0253 	 -114.464
| 37> H 	 12.9951 	 -8.04867 	 -115.736
| 38> H 	 13.5701 	 -7.63918 	 -114.149
| 39> H 	 21.444 	 -8.8134 	 -111.41
| 40> H 	 17.8678 	 -11.9185 	 -117.924
| 41> *
| 42>
| 43>                          ****END OF INPUT****

CARTESIAN COORDINATES (ANGSTROEM)
---------------------------------
  S     20.272900   -8.710100  -113.650000
  C     20.591700   -9.039350  -111.959000
  C     19.455600   -9.623340  -111.400000
  C     18.445700   -9.876880  -112.345000
  C     18.817400   -9.618020  -113.642000
  H     17.424000  -10.383200  -112.105000
  C     19.306700   -9.905250  -109.924000
  H     19.135000  -10.949400  -110.019000
  H     18.388200   -9.416300  -109.499000
  C     20.461900   -9.673500  -109.007000
  H     20.702400   -8.650980  -108.950000
  H     20.109300   -9.924270  -108.003000
  C     21.671900  -10.598500  -109.335000
  H     22.429600  -10.497700  -108.545000
  H     21.373600  -11.650800  -109.327000
  H     22.092000  -10.390600  -110.338000
  S     19.221800  -10.810100  -116.065000
  C     17.908400  -11.187400  -117.126000
  C     16.775600  -10.500800  -116.724000
  C     16.981000   -9.777830  -115.508000
  C     18.203100   -9.922090  -114.914000
  H     15.828800  -10.515400  -117.261000
  C     15.865600   -8.924120  -114.939000
  H     15.771400   -8.038230  -115.561000
  H     16.021100   -8.506730  -114.006000
  C     14.453500   -9.526450  -114.779000
  H     14.471700  -10.105800  -113.835000
  H     14.220000  -10.151700  -115.594000
  C     13.346500   -8.472560  -114.811000
  H     12.423300   -9.025300  -114.464000
  H     12.995100   -8.048670  -115.736000
  H     13.570100   -7.639180  -114.149000
  H     21.444000   -8.813400  -111.410000
  H     17.867800  -11.918500  -117.924000

 Total Charge           Charge          ....    0
 Multiplicity           Mult            ....    1
 Number of Electrons    NEL             ....  134
 Basis Dimension        Dim             ....  322

ORBITAL ENERGIES
----------------

  NO   OCC          E(Eh)            E(eV)
   0   2.0000     -88.962301     -2420.7873
   1   2.0000     -88.961545     -2420.7667
   2   2.0000     -10.328398      -281.0500
   3   2.0000     -10.326193      -280.9900
   4   2.0000     -10.319943      -280.8199
   5   2.0000     -10.306335      -280.4496
   6   2.0000     -10.303507      -280.3727
   7   2.0000     -10.298626      -280.2399
   8   2.0000     -10.298265      -280.2300
   9   2.0000     -10.294653      -280.1317
  10   2.0000     -10.287976      -279.9501
  11   2.0000     -10.284666      -279.8600
  12   2.0000     -10.284328      -279.8508
  13   2.0000     -10.282648      -279.8051
  14   2.0000     -10.280485      -279.7462
  15   2.0000     -10.280234      -279.7394
  16   2.0000      -8.077739      -219.8064
  17   2.0000      -8.076565      -219.7745
  18   2.0000      -6.036211      -164.2536
  19   2.0000      -6.035147      -164.2247
  20   2.0000      -6.032157      -164.1433
  21   2.0000      -6.030911      -164.1094
  22   2.0000      -6.028467      -164.0429
  23   2.0000      -6.027289      -164.0109
  24   2.0000      -1.012416       -27.5492
  25   2.0000      -0.988812       -26.9069
  26   2.0000      -0.920141       -25.0383
  27   2.0000      -0.910271       -24.7697
  28   2.0000      -0.869959       -23.6728
  29   2.0000      -0.851790       -23.1784
  30   2.0000      -0.844850       -22.9895
  31   2.0000      -0.813111       -22.1259
  32   2.0000      -0.784733       -21.3537
  33   2.0000      -0.776478       -21.1291
  34   2.0000      -0.711681       -19.3658
  35   2.0000      -0.707814       -19.2606
  36   2.0000      -0.699523       -19.0350
  37   2.0000      -0.661810       -18.0088
  38   2.0000      -0.638116       -17.3640
  39   2.0000      -0.613410       -16.6917
  40   2.0000      -0.602779       -16.4025
  41   2.0000      -0.578885       -15.7523
  42   2.0000      -0.561212       -15.2714
  43   2.0000      -0.555850       -15.1255
  44   2.0000      -0.539971       -14.6933
  45   2.0000      -0.527258       -14.3474
  46   2.0000      -0.522180       -14.2092
  47   2.0000      -0.516170       -14.0457
  48   2.0000      -0.510014       -13.8782
  49   2.0000      -0.504684       -13.7332
  50   2.0000      -0.492882       -13.4120
  51   2.0000      -0.478312       -13.0155
  52   2.0000      -0.471206       -12.8222
  53   2.0000      -0.468360       -12.7447
  54   2.0000      -0.459331       -12.4990
  55   2.0000      -0.446572       -12.1518
  56   2.0000      -0.443476       -12.0676
  57   2.0000      -0.439706       -11.9650
  58   2.0000      -0.432347       -11.7648
  59   2.0000      -0.427635       -11.6365
  60   2.0000      -0.422300       -11.4914
  61   2.0000      -0.410282       -11.1643
  62   2.0000      -0.407414       -11.0863
  63   2.0000      -0.344955        -9.3867
  64   2.0000      -0.328507        -8.9391
  65   2.0000      -0.325083        -8.8460
  66   2.0000      -0.293844        -7.9959
  67   0.0000       0.031878         0.8674
  68   0.0000       0.063017         1.7148
  69   0.0000       0.112925         3.0728
  70   0.0000       0.125794         3.4230
  71   0.0000       0.135121         3.6768

MULLIKEN ATOMIC CHARGES
-----------------------
   0 S :    0.114366
   1 C :   -0.100033
   2 C :   -0.117753
   3 C :    0.001215
   4 C :   -0.155801
   5 H :    0.041479
   6 C :    0.065307
   7 H :    0.019330
   8 H :    0.047483
   9 C :   -0.043525
  10 H :    0.022958
  11 H :    0.023456
  12 C :   -0.077683
  13 H :    0.038705
  14 H :    0.032751
  15 H :    0.041107
  16 S :    0.101794
  17 C :   -0.074245
  18 C :   -0.048438
  19 C :   -0.006283
  20 C :   -0.152232
  21 H :    0.025718
  22 C :    0.080259
  23 H :    0.027482
  24 H :   -0.002593
  25 C :   -0.068199
  26 H :    0.038766
  27 H :    0.014706
  28 C :   -0.074144
  29 H :    0.033878
  30 H :    0.032700
  31 H :    0.031156
  32 H :    0.025476
  33 H :    0.060837
Sum of atomic charges:   -0.0000000

LOEWDIN ATOMIC CHARGES
----------------------
   0 S :    0.421310
   1 C :   -0.199833
   2 C :   -0.061203
   3 C :   -0.079130
   4 C :   -0.200677
   5 H :    0.047076
   6 C :   -0.036122
   7 H :    0.030586
   8 H :    0.040317
   9 C :   -0.041147
  10 H :    0.017235
  11 H :    0.030704
  12 C :   -0.065560
  13 H :    0.027507
  14 H :    0.027535
  15 H :    0.026124
  16 S :    0.405493
  17 C :   -0.183232
  18 C :   -0.075041
  19 C :   -0.052906
  20 C :   -0.196600
  21 H :    0.032579
  22 C :   -0.032002
  23 H :    0.034311
  24 H :    0.018237
  25 C :   -0.035245
  26 H :    0.028817
  27 H :    0.013606
  28 C :   -0.069351
  29 H :    0.035126
  30 H :    0.022930
  31 H :    0.021437
  32 H :    0.012635
  33 H :    0.034483

  Mayer bond orders larger than 0.100000
B(  0-S ,  1-C ) :   1.1248 B(  0-S ,  4-C ) :   1.1797 B(  1-C ,  2-C ) :   1.5972
B(  1-C ,  4-C ) :   0.1053 B(  1-C , 32-H ) :   0.9662 B(  2-C ,  3-C ) :   1.2710
B(  2-C ,  6-C ) :   0.9866 B(  3-C ,  4-C ) :   1.5649 B(  3-C ,  5-H ) :   0.9842
B(  4-C , 20-C ) :   1.0200 B(  6-C ,  7-H ) :   0.9317 B(  6-C ,  8-H ) :   0.9399
B(  6-C ,  9-C ) :   1.1016 B(  9-C , 10-H ) :   0.9489 B(  9-C , 11-H ) :   0.9461
B(  9-C , 12-C ) :   1.0697 B( 12-C , 13-H ) :   0.9750 B( 12-C , 14-H ) :   0.9727
B( 12-C , 15-H ) :   0.9765 B( 16-S , 17-C ) :   1.1686 B( 16-S , 20-C ) :   1.1158
B( 17-C , 18-C ) :   1.5896 B( 17-C , 33-H ) :   0.9675 B( 18-C , 19-C ) :   1.2400
B( 18-C , 21-H ) :   0.9892 B( 19-C , 20-C ) :   1.6083 B( 19-C , 22-C ) :   1.0436
B( 22-C , 23-H ) :   0.9358 B( 22-C , 24-H ) :   0.9358 B( 22-C , 25-C ) :   1.0527
B( 25-C , 26-H ) :   0.9599 B( 25-C , 27-H ) :   0.9575 B( 25-C , 28-C ) :   1.0796
B( 28-C , 29-H ) :   0.9718 B( 28-C , 30-H ) :   0.9755 B( 28-C , 31-H ) :   0.9769

Dispersion correction           -0.013576652
FINAL SINGLE POINT ENERGY     -1339.864298037930

DIPOLE MOMENT
-------------
                                X             Y             Z
Electronic contribution:     14.00443      -1.03219     -17.62610
Nuclear contribution   :    -14.59124       0.92265      18.00552
                        -----------------------------------------
Total Dipole Moment    :     -0.58681      -0.10954       0.37942
                        -----------------------------------------
Magnitude (a.u.)       :      0.70732
Magnitude (Debye)      :      1.79787

Rotational constants in cm-1:     0.021153     0.007484     0.006058
Rotational constants in MHz :   634.149151   224.363734   181.620299

                             ****ORCA TERMINATED NORMALLY****
TOTAL RUN TIME: 0 days 0 hours 0 minutes 21 seconds 109 msec
