                         Program Version 4.2.1 -  RELEASE  -
|  1> ! wB97X-D3 SP def2-SVP
|  2> %pal
|  3> nprocs 24
|  4> end
|  5>
|  6> * xyz 0 1
|  7> S 	 -43.9211 	 21.7968 	 28.9341
|  8> C 	 -42.1868 	 21.4543 	 28.755
|  9> C 	 -41.5147 	 21.7932 	 29.8969
| 10> C 	 -42.3699 	 22.1277 	 30.9583
| 11> C 	 -43.7346 	 22.1861 	 30.6492
| 12> H 	 -42.0133 	 22.3912 	 31.9184
| 13> C 	 -40.0089 	 21.7598 	 30.0508
| 14> H 	 -39.7259 	 22.603 	 30.6769
| 15> H 	 -39.6648 	 21.8621 	 28.9943
| 16> C 	 -39.3585 	 20.4892 	 30.5664
| 17> H 	 -39.6447 	 20.4904 	 31.6406
| 18> H 	 -39.8278 	 19.5817 	 30.1093
| 19> C 	 -37.8276 	 20.3371 	 30.4271
| 20> H 	 -37.2727 	 20.5636 	 31.3595
| 21> H 	 -37.5315 	 19.2667 	 30.3012
| 22> H 	 -37.383 	 20.9613 	 29.7374
| 23> S 	 -45.0529 	 21.8048 	 33.0607
| 24> C 	 -46.4574 	 22.7589 	 33.4275
| 25> C 	 -46.9052 	 23.4806 	 32.3351
| 26> C 	 -46.0616 	 23.399 	 31.1908
| 27> C 	 -44.9586 	 22.5949 	 31.4632
| 28> H 	 -47.7499 	 24.1356 	 32.3734
| 29> C 	 -46.4241 	 24.13 	 29.9061
| 30> H 	 -47.4623 	 23.9781 	 29.7701
| 31> H 	 -45.8936 	 23.6212 	 29.1204
| 32> C 	 -46.1322 	 25.6752 	 29.9074
| 33> H 	 -46.6932 	 25.9308 	 30.7903
| 34> H 	 -46.5406 	 26.276 	 29.1003
| 35> C 	 -44.7611 	 26.1649 	 30.2883
| 36> H 	 -44.5325 	 25.7874 	 31.2507
| 37> H 	 -44.7773 	 27.2293 	 30.2201
| 38> H 	 -43.9711 	 25.6996 	 29.6554
| 39> H 	 -41.6402 	 21.2792 	 27.7851
| 40> H 	 -47.0359 	 22.6972 	 34.3284
| 41> *
| 42>
| 43>                          ****END OF INPUT****

CARTESIAN COORDINATES (ANGSTROEM)
---------------------------------
  S    -43.921100   21.796800   28.934100
  C    -42.186800   21.454300   28.755000
  C    -41.514700   21.793200   29.896900
  C    -42.369900   22.127700   30.958300
  C    -43.734600   22.186100   30.649200
  H    -42.013300   22.391200   31.918400
  C    -40.008900   21.759800   30.050800
  H    -39.725900   22.603000   30.676900
  H    -39.664800   21.862100   28.994300
  C    -39.358500   20.489200   30.566400
  H    -39.644700   20.490400   31.640600
  H    -39.827800   19.581700   30.109300
  C    -37.827600   20.337100   30.427100
  H    -37.272700   20.563600   31.359500
  H    -37.531500   19.266700   30.301200
  H    -37.383000   20.961300   29.737400
  S    -45.052900   21.804800   33.060700
  C    -46.457400   22.758900   33.427500
  C    -46.905200   23.480600   32.335100
  C    -46.061600   23.399000   31.190800
  C    -44.958600   22.594900   31.463200
  H    -47.749900   24.135600   32.373400
  C    -46.424100   24.130000   29.906100
  H    -47.462300   23.978100   29.770100
  H    -45.893600   23.621200   29.120400
  C    -46.132200   25.675200   29.907400
  H    -46.693200   25.930800   30.790300
  H    -46.540600   26.276000   29.100300
  C    -44.761100   26.164900   30.288300
  H    -44.532500   25.787400   31.250700
  H    -44.777300   27.229300   30.220100
  H    -43.971100   25.699600   29.655400
  H    -41.640200   21.279200   27.785100
  H    -47.035900   22.697200   34.328400

 Total Charge           Charge          ....    0
 Multiplicity           Mult            ....    1
 Number of Electrons    NEL             ....  134
 Basis Dimension        Dim             ....  322

ORBITAL ENERGIES
----------------

  NO   OCC          E(Eh)            E(eV)
   0   2.0000     -88.970724     -2421.0165
   1   2.0000     -88.967289     -2420.9230
   2   2.0000     -10.340153      -281.3699
   3   2.0000     -10.338544      -281.3261
   4   2.0000     -10.318019      -280.7676
   5   2.0000     -10.317679      -280.7583
   6   2.0000     -10.307425      -280.4793
   7   2.0000     -10.297666      -280.2137
   8   2.0000     -10.294202      -280.1195
   9   2.0000     -10.293351      -280.0963
  10   2.0000     -10.292703      -280.0787
  11   2.0000     -10.290980      -280.0318
  12   2.0000     -10.290541      -280.0199
  13   2.0000     -10.281486      -279.7735
  14   2.0000     -10.278242      -279.6852
  15   2.0000     -10.266261      -279.3592
  16   2.0000      -8.084948      -220.0026
  17   2.0000      -8.080853      -219.8912
  18   2.0000      -6.043458      -164.4509
  19   2.0000      -6.039585      -164.3455
  20   2.0000      -6.039474      -164.3424
  21   2.0000      -6.035681      -164.2392
  22   2.0000      -6.035470      -164.2335
  23   2.0000      -6.031617      -164.1287
  24   2.0000      -1.002549       -27.2807
  25   2.0000      -0.985066       -26.8050
  26   2.0000      -0.910516       -24.7764
  27   2.0000      -0.909413       -24.7464
  28   2.0000      -0.863174       -23.4881
  29   2.0000      -0.855079       -23.2679
  30   2.0000      -0.844527       -22.9808
  31   2.0000      -0.814147       -22.1541
  32   2.0000      -0.788579       -21.4583
  33   2.0000      -0.776228       -21.1222
  34   2.0000      -0.703273       -19.1370
  35   2.0000      -0.698123       -18.9969
  36   2.0000      -0.689355       -18.7583
  37   2.0000      -0.666969       -18.1491
  38   2.0000      -0.634439       -17.2640
  39   2.0000      -0.618922       -16.8417
  40   2.0000      -0.595037       -16.1918
  41   2.0000      -0.573641       -15.6096
  42   2.0000      -0.560496       -15.2519
  43   2.0000      -0.555937       -15.1278
  44   2.0000      -0.547046       -14.8859
  45   2.0000      -0.526070       -14.3151
  46   2.0000      -0.515271       -14.0212
  47   2.0000      -0.509168       -13.8552
  48   2.0000      -0.501203       -13.6384
  49   2.0000      -0.496085       -13.4992
  50   2.0000      -0.495093       -13.4722
  51   2.0000      -0.477859       -13.0032
  52   2.0000      -0.469267       -12.7694
  53   2.0000      -0.466143       -12.6844
  54   2.0000      -0.459657       -12.5079
  55   2.0000      -0.449747       -12.2382
  56   2.0000      -0.447223       -12.1696
  57   2.0000      -0.441592       -12.0163
  58   2.0000      -0.434605       -11.8262
  59   2.0000      -0.428204       -11.6520
  60   2.0000      -0.417260       -11.3542
  61   2.0000      -0.409736       -11.1495
  62   2.0000      -0.400910       -10.9093
  63   2.0000      -0.346697        -9.4341
  64   2.0000      -0.336117        -9.1462
  65   2.0000      -0.333096        -9.0640
  66   2.0000      -0.292903        -7.9703
  67   0.0000       0.024812         0.6752
  68   0.0000       0.072571         1.9748
  69   0.0000       0.102505         2.7893
  70   0.0000       0.110790         3.0147
  71   0.0000       0.132748         3.6123

MULLIKEN ATOMIC CHARGES
-----------------------
   0 S :    0.090659
   1 C :   -0.136891
   2 C :   -0.097447
   3 C :    0.042940
   4 C :   -0.129599
   5 H :   -0.010326
   6 C :    0.064460
   7 H :    0.033119
   8 H :    0.016317
   9 C :   -0.084035
  10 H :    0.028323
  11 H :    0.038545
  12 C :   -0.028929
  13 H :    0.026370
  14 H :    0.039583
  15 H :    0.016436
  16 S :    0.115513
  17 C :   -0.074662
  18 C :   -0.037124
  19 C :   -0.079489
  20 C :   -0.164980
  21 H :    0.014138
  22 C :    0.136248
  23 H :    0.022636
  24 H :    0.011616
  25 C :   -0.089127
  26 H :    0.007430
  27 H :    0.035818
  28 C :   -0.018153
  29 H :    0.026261
  30 H :    0.033837
  31 H :    0.030473
  32 H :    0.068394
  33 H :    0.051645
Sum of atomic charges:   -0.0000000

LOEWDIN ATOMIC CHARGES
----------------------
   0 S :    0.397709
   1 C :   -0.199582
   2 C :   -0.068492
   3 C :   -0.065762
   4 C :   -0.182447
   5 H :    0.022269
   6 C :   -0.031890
   7 H :    0.031604
   8 H :    0.030681
   9 C :   -0.048314
  10 H :    0.026641
  11 H :    0.030182
  12 C :   -0.069498
  13 H :    0.030618
  14 H :    0.036137
  15 H :    0.012688
  16 S :    0.406096
  17 C :   -0.185690
  18 C :   -0.067838
  19 C :   -0.057665
  20 C :   -0.184936
  21 H :    0.027372
  22 C :   -0.020612
  23 H :    0.030674
  24 H :    0.012687
  25 C :   -0.042212
  26 H :    0.021185
  27 H :    0.023930
  28 C :   -0.058294
  29 H :    0.020933
  30 H :    0.025609
  31 H :    0.027315
  32 H :    0.041714
  33 H :    0.027188

  Mayer bond orders larger than 0.100000
B(  0-S ,  1-C ) :   1.1334 B(  0-S ,  4-C ) :   1.1565 B(  1-C ,  2-C ) :   1.6186
B(  1-C , 32-H ) :   0.9539 B(  2-C ,  3-C ) :   1.2587 B(  2-C ,  6-C ) :   1.0263
B(  3-C ,  4-C ) :   1.5583 B(  3-C ,  5-H ) :   1.0002 B(  4-C , 20-C ) :   1.0028
B(  6-C ,  7-H ) :   0.9394 B(  6-C ,  8-H ) :   0.9322 B(  6-C ,  9-C ) :   1.0732
B(  9-C , 10-H ) :   0.9565 B(  9-C , 11-H ) :   0.9610 B(  9-C , 12-C ) :   1.0647
B( 12-C , 13-H ) :   0.9743 B( 12-C , 14-H ) :   0.9775 B( 12-C , 15-H ) :   0.9790
B( 16-S , 17-C ) :   1.1498 B( 16-S , 20-C ) :   1.1504 B( 17-C , 18-C ) :   1.6130
B( 17-C , 33-H ) :   0.9678 B( 18-C , 19-C ) :   1.2438 B( 18-C , 21-H ) :   0.9858
B( 19-C , 20-C ) :   1.5945 B( 19-C , 22-C ) :   1.0286 B( 22-C , 23-H ) :   0.9333
B( 22-C , 24-H ) :   0.9300 B( 22-C , 25-C ) :   1.0533 B( 25-C , 26-H ) :   0.9552
B( 25-C , 27-H ) :   0.9629 B( 25-C , 28-C ) :   1.0833 B( 28-C , 29-H ) :   0.9709
B( 28-C , 30-H ) :   0.9720 B( 28-C , 31-H ) :   0.9751

Dispersion correction           -0.014373922
FINAL SINGLE POINT ENERGY     -1339.871234227799

DIPOLE MOMENT
-------------
                                X             Y             Z
Electronic contribution:    -15.78195      -8.18114       4.40232
Nuclear contribution   :     15.94156       8.49101      -4.33544
                        -----------------------------------------
Total Dipole Moment    :      0.15961       0.30986       0.06688
                        -----------------------------------------
Magnitude (a.u.)       :      0.35491
Magnitude (Debye)      :      0.90212

Rotational constants in cm-1:     0.022499     0.007357     0.006403
Rotational constants in MHz :   674.507164   220.553846   191.958222

                             ****ORCA TERMINATED NORMALLY****
TOTAL RUN TIME: 0 days 0 hours 0 minutes 21 seconds 324 msec
