                         Program Version 4.2.1 -  RELEASE  -
|  1> ! wB97X-D3 SP def2-SVP
|  2> %pal
|  3> nprocs 24
|  4> end
|  5>
|  6> * xyz 0 1
|  7> S 	 -130.981 	 74.8599 	 -50.855
|  8> C 	 -131.489 	 74.6895 	 -52.5369
|  9> C 	 -130.608 	 73.9015 	 -53.2793
| 10> C 	 -129.482 	 73.5177 	 -52.4919
| 11> C 	 -129.655 	 73.7973 	 -51.1084
| 12> H 	 -128.667 	 72.9416 	 -52.8707
| 13> C 	 -130.698 	 73.6281 	 -54.8148
| 14> H 	 -129.752 	 73.171 	 -55.2063
| 15> H 	 -130.871 	 74.5889 	 -55.2543
| 16> C 	 -132.069 	 73.0158 	 -55.2776
| 17> H 	 -132.878 	 73.6961 	 -55.0378
| 18> H 	 -132.107 	 73.0346 	 -56.3785
| 19> C 	 -132.313 	 71.5958 	 -54.8562
| 20> H 	 -132.662 	 71.5546 	 -53.8249
| 21> H 	 -133.222 	 71.2296 	 -55.389
| 22> H 	 -131.489 	 70.8467 	 -54.9227
| 23> S 	 -128.415 	 74.9889 	 -48.9783
| 24> C 	 -127.267 	 74.1182 	 -47.9642
| 25> C 	 -127.185 	 72.8631 	 -48.3861
| 26> C 	 -127.872 	 72.6101 	 -49.6481
| 27> C 	 -128.664 	 73.6639 	 -50.0537
| 28> H 	 -126.713 	 72.1177 	 -47.758
| 29> C 	 -127.738 	 71.286 	 -50.273
| 30> H 	 -126.75 	 70.9975 	 -50.0179
| 31> H 	 -127.761 	 71.321 	 -51.3191
| 32> C 	 -128.589 	 70.1686 	 -49.7091
| 33> H 	 -129.665 	 70.3478 	 -49.9442
| 34> H 	 -128.37 	 70.1005 	 -48.6156
| 35> C 	 -128.227 	 68.7754 	 -50.214
| 36> H 	 -128.743 	 68.1057 	 -49.5319
| 37> H 	 -127.127 	 68.5025 	 -50.1633
| 38> H 	 -128.661 	 68.6756 	 -51.2123
| 39> H 	 -132.309 	 75.0696 	 -53.0203
| 40> H 	 -126.754 	 74.5763 	 -47.1151
| 41> *
| 42>
| 43>                          ****END OF INPUT****

CARTESIAN COORDINATES (ANGSTROEM)
---------------------------------
  S    -130.981000   74.859900  -50.855000
  C    -131.489000   74.689500  -52.536900
  C    -130.608000   73.901500  -53.279300
  C    -129.482000   73.517700  -52.491900
  C    -129.655000   73.797300  -51.108400
  H    -128.667000   72.941600  -52.870700
  C    -130.698000   73.628100  -54.814800
  H    -129.752000   73.171000  -55.206300
  H    -130.871000   74.588900  -55.254300
  C    -132.069000   73.015800  -55.277600
  H    -132.878000   73.696100  -55.037800
  H    -132.107000   73.034600  -56.378500
  C    -132.313000   71.595800  -54.856200
  H    -132.662000   71.554600  -53.824900
  H    -133.222000   71.229600  -55.389000
  H    -131.489000   70.846700  -54.922700
  S    -128.415000   74.988900  -48.978300
  C    -127.267000   74.118200  -47.964200
  C    -127.185000   72.863100  -48.386100
  C    -127.872000   72.610100  -49.648100
  C    -128.664000   73.663900  -50.053700
  H    -126.713000   72.117700  -47.758000
  C    -127.738000   71.286000  -50.273000
  H    -126.750000   70.997500  -50.017900
  H    -127.761000   71.321000  -51.319100
  C    -128.589000   70.168600  -49.709100
  H    -129.665000   70.347800  -49.944200
  H    -128.370000   70.100500  -48.615600
  C    -128.227000   68.775400  -50.214000
  H    -128.743000   68.105700  -49.531900
  H    -127.127000   68.502500  -50.163300
  H    -128.661000   68.675600  -51.212300
  H    -132.309000   75.069600  -53.020300
  H    -126.754000   74.576300  -47.115100

 Total Charge           Charge          ....    0
 Multiplicity           Mult            ....    1
 Number of Electrons    NEL             ....  134
 Basis Dimension        Dim             ....  322

ORBITAL ENERGIES
----------------

  NO   OCC          E(Eh)            E(eV)
   0   2.0000     -88.972715     -2421.0707
   1   2.0000     -88.956655     -2420.6336
   2   2.0000     -10.331969      -281.1472
   3   2.0000     -10.323384      -280.9136
   4   2.0000     -10.313222      -280.6370
   5   2.0000     -10.308845      -280.5179
   6   2.0000     -10.304681      -280.4046
   7   2.0000     -10.301014      -280.3048
   8   2.0000     -10.297658      -280.2135
   9   2.0000     -10.295830      -280.1638
  10   2.0000     -10.293024      -280.0874
  11   2.0000     -10.289670      -279.9962
  12   2.0000     -10.286624      -279.9133
  13   2.0000     -10.280134      -279.7367
  14   2.0000     -10.278021      -279.6792
  15   2.0000     -10.275600      -279.6133
  16   2.0000      -8.087144      -220.0624
  17   2.0000      -8.072319      -219.6590
  18   2.0000      -6.045657      -164.5107
  19   2.0000      -6.041633      -164.4012
  20   2.0000      -6.037972      -164.3016
  21   2.0000      -6.031004      -164.1120
  22   2.0000      -6.026647      -163.9934
  23   2.0000      -6.022866      -163.8905
  24   2.0000      -1.010775       -27.5046
  25   2.0000      -0.985134       -26.8069
  26   2.0000      -0.915821       -24.9208
  27   2.0000      -0.910436       -24.7742
  28   2.0000      -0.873214       -23.7614
  29   2.0000      -0.852451       -23.1964
  30   2.0000      -0.844704       -22.9856
  31   2.0000      -0.816257       -22.2115
  32   2.0000      -0.785195       -21.3662
  33   2.0000      -0.773264       -21.0416
  34   2.0000      -0.707644       -19.2560
  35   2.0000      -0.700961       -19.0741
  36   2.0000      -0.686985       -18.6938
  37   2.0000      -0.663719       -18.0607
  38   2.0000      -0.636752       -17.3269
  39   2.0000      -0.616906       -16.7869
  40   2.0000      -0.599884       -16.3237
  41   2.0000      -0.573349       -15.6016
  42   2.0000      -0.571026       -15.5384
  43   2.0000      -0.550574       -14.9819
  44   2.0000      -0.540714       -14.7136
  45   2.0000      -0.527015       -14.3408
  46   2.0000      -0.520323       -14.1587
  47   2.0000      -0.515815       -14.0360
  48   2.0000      -0.506035       -13.7699
  49   2.0000      -0.500861       -13.6291
  50   2.0000      -0.492941       -13.4136
  51   2.0000      -0.479940       -13.0598
  52   2.0000      -0.471868       -12.8402
  53   2.0000      -0.468592       -12.7510
  54   2.0000      -0.459806       -12.5120
  55   2.0000      -0.447746       -12.1838
  56   2.0000      -0.443692       -12.0735
  57   2.0000      -0.438778       -11.9398
  58   2.0000      -0.428101       -11.6492
  59   2.0000      -0.424764       -11.5584
  60   2.0000      -0.418688       -11.3931
  61   2.0000      -0.411495       -11.1974
  62   2.0000      -0.409117       -11.1326
  63   2.0000      -0.355038        -9.6611
  64   2.0000      -0.332148        -9.0382
  65   2.0000      -0.322257        -8.7690
  66   2.0000      -0.285525        -7.7695
  67   0.0000       0.026121         0.7108
  68   0.0000       0.075745         2.0611
  69   0.0000       0.109267         2.9733
  70   0.0000       0.120138         3.2691
  71   0.0000       0.130123         3.5408

MULLIKEN ATOMIC CHARGES
-----------------------
   0 S :    0.122588
   1 C :   -0.082855
   2 C :   -0.080682
   3 C :    0.009994
   4 C :   -0.128016
   5 H :    0.007800
   6 C :    0.069934
   7 H :    0.042326
   8 H :    0.030321
   9 C :   -0.094028
  10 H :    0.024870
  11 H :    0.028404
  12 C :   -0.050040
  13 H :    0.030806
  14 H :    0.029214
  15 H :    0.042101
  16 S :    0.070996
  17 C :   -0.093152
  18 C :   -0.025199
  19 C :   -0.065018
  20 C :   -0.117786
  21 H :    0.022858
  22 C :    0.129091
  23 H :   -0.006716
  24 H :   -0.004643
  25 C :   -0.108378
  26 H :    0.045107
  27 H :    0.026309
  28 C :   -0.052529
  29 H :    0.033534
  30 H :    0.040664
  31 H :    0.035651
  32 H :    0.002068
  33 H :    0.064407
Sum of atomic charges:   -0.0000000

LOEWDIN ATOMIC CHARGES
----------------------
   0 S :    0.429909
   1 C :   -0.192528
   2 C :   -0.054179
   3 C :   -0.061304
   4 C :   -0.198856
   5 H :    0.023690
   6 C :   -0.029774
   7 H :    0.035943
   8 H :    0.034744
   9 C :   -0.043721
  10 H :    0.024691
  11 H :    0.026024
  12 C :   -0.077571
  13 H :    0.025969
  14 H :    0.030071
  15 H :    0.030243
  16 S :    0.389324
  17 C :   -0.177742
  18 C :   -0.071024
  19 C :   -0.057399
  20 C :   -0.203179
  21 H :    0.032712
  22 C :   -0.035437
  23 H :    0.027726
  24 H :    0.019027
  25 C :   -0.039494
  26 H :    0.031113
  27 H :    0.025580
  28 C :   -0.069630
  29 H :    0.026977
  30 H :    0.029918
  31 H :    0.024432
  32 H :    0.007792
  33 H :    0.035950

  Mayer bond orders larger than 0.100000
B(  0-S ,  1-C ) :   1.1409 B(  0-S ,  4-C ) :   1.1680 B(  1-C ,  2-C ) :   1.5877
B(  1-C ,  4-C ) :   0.1058 B(  1-C , 32-H ) :   0.9742 B(  2-C ,  3-C ) :   1.2800
B(  2-C ,  6-C ) :   1.0073 B(  3-C ,  4-C ) :   1.5225 B(  3-C ,  5-H ) :   0.9899
B(  4-C , 20-C ) :   1.0571 B(  6-C ,  7-H ) :   0.9535 B(  6-C ,  8-H ) :   0.9357
B(  6-C ,  9-C ) :   1.0658 B(  9-C , 10-H ) :   0.9525 B(  9-C , 11-H ) :   0.9577
B(  9-C , 12-C ) :   1.0780 B( 12-C , 13-H ) :   0.9717 B( 12-C , 14-H ) :   0.9712
B( 12-C , 15-H ) :   0.9768 B( 16-S , 17-C ) :   1.1300 B( 16-S , 20-C ) :   1.1218
B( 17-C , 18-C ) :   1.6452 B( 17-C , 33-H ) :   0.9683 B( 18-C , 19-C ) :   1.2136
B( 18-C , 21-H ) :   0.9880 B( 19-C , 20-C ) :   1.6160 B( 19-C , 22-C ) :   1.0648
B( 22-C , 23-H ) :   0.9118 B( 22-C , 24-H ) :   0.9276 B( 22-C , 25-C ) :   1.0756
B( 25-C , 26-H ) :   0.9531 B( 25-C , 27-H ) :   0.9559 B( 25-C , 28-C ) :   1.0827
B( 28-C , 29-H ) :   0.9752 B( 28-C , 30-H ) :   0.9723 B( 28-C , 31-H ) :   0.9748

Dispersion correction           -0.013717695
FINAL SINGLE POINT ENERGY     -1339.863517529067

DIPOLE MOMENT
-------------
                                X             Y             Z
Electronic contribution:      3.18486      24.51899      16.07695
Nuclear contribution   :     -3.10614     -25.00413     -16.43758
                        -----------------------------------------
Total Dipole Moment    :      0.07872      -0.48514      -0.36063
                        -----------------------------------------
Magnitude (a.u.)       :      0.60960
Magnitude (Debye)      :      1.54949

Rotational constants in cm-1:     0.018304     0.008873     0.006443
Rotational constants in MHz :   548.742777   266.004658   193.151711

                             ****ORCA TERMINATED NORMALLY****
TOTAL RUN TIME: 0 days 0 hours 0 minutes 21 seconds 384 msec
