                         Program Version 4.2.1 -  RELEASE  -
|  1> ! wB97X-D3 SP def2-SVP
|  2> %pal
|  3> nprocs 24
|  4> end
|  5>
|  6> * xyz 0 1
|  7> S 	 -38.4304 	 15.6696 	 -99.0957
|  8> C 	 -38.1683 	 14.3446 	 -100.278
|  9> C 	 -39.3433 	 13.6357 	 -100.534
| 10> C 	 -40.3816 	 14.1758 	 -99.7444
| 11> C 	 -40.0995 	 15.1785 	 -98.811
| 12> H 	 -41.4177 	 13.88 	 -99.8862
| 13> C 	 -39.5065 	 12.7921 	 -101.798
| 14> H 	 -38.6089 	 12.4798 	 -102.226
| 15> H 	 -39.7681 	 13.5522 	 -102.539
| 16> C 	 -40.5284 	 11.6493 	 -101.798
| 17> H 	 -41.5167 	 12.0014 	 -102.036
| 18> H 	 -40.2677 	 10.979 	 -102.622
| 19> C 	 -40.4493 	 10.8088 	 -100.564
| 20> H 	 -39.5507 	 10.2815 	 -100.406
| 21> H 	 -40.5787 	 11.3341 	 -99.6968
| 22> H 	 -41.2155 	 10.0521 	 -100.5
| 23> S 	 -40.0426 	 16.3105 	 -96.3326
| 24> C 	 -41.389 	 16.7563 	 -95.4567
| 25> C 	 -42.5174 	 16.6029 	 -96.2802
| 26> C 	 -42.2732 	 16.0255 	 -97.5755
| 27> C 	 -40.9273 	 15.7756 	 -97.7862
| 28> H 	 -43.4457 	 16.8628 	 -95.8907
| 29> C 	 -43.3995 	 15.7512 	 -98.5251
| 30> H 	 -42.9546 	 15.7981 	 -99.543
| 31> H 	 -44.0539 	 16.5811 	 -98.4314
| 32> C 	 -44.1251 	 14.4148 	 -98.2042
| 33> H 	 -44.4888 	 14.5675 	 -97.2578
| 34> H 	 -43.4595 	 13.534 	 -98.2255
| 35> C 	 -45.2006 	 14.0117 	 -99.2517
| 36> H 	 -44.7806 	 13.4808 	 -100.103
| 37> H 	 -45.8144 	 14.8451 	 -99.6061
| 38> H 	 -45.8066 	 13.2174 	 -98.6977
| 39> H 	 -37.2664 	 14.0886 	 -100.698
| 40> H 	 -41.4039 	 17.3877 	 -94.5767
| 41> *
| 42>
| 43>                          ****END OF INPUT****

CARTESIAN COORDINATES (ANGSTROEM)
---------------------------------
  S    -38.430400   15.669600  -99.095700
  C    -38.168300   14.344600  -100.278000
  C    -39.343300   13.635700  -100.534000
  C    -40.381600   14.175800  -99.744400
  C    -40.099500   15.178500  -98.811000
  H    -41.417700   13.880000  -99.886200
  C    -39.506500   12.792100  -101.798000
  H    -38.608900   12.479800  -102.226000
  H    -39.768100   13.552200  -102.539000
  C    -40.528400   11.649300  -101.798000
  H    -41.516700   12.001400  -102.036000
  H    -40.267700   10.979000  -102.622000
  C    -40.449300   10.808800  -100.564000
  H    -39.550700   10.281500  -100.406000
  H    -40.578700   11.334100  -99.696800
  H    -41.215500   10.052100  -100.500000
  S    -40.042600   16.310500  -96.332600
  C    -41.389000   16.756300  -95.456700
  C    -42.517400   16.602900  -96.280200
  C    -42.273200   16.025500  -97.575500
  C    -40.927300   15.775600  -97.786200
  H    -43.445700   16.862800  -95.890700
  C    -43.399500   15.751200  -98.525100
  H    -42.954600   15.798100  -99.543000
  H    -44.053900   16.581100  -98.431400
  C    -44.125100   14.414800  -98.204200
  H    -44.488800   14.567500  -97.257800
  H    -43.459500   13.534000  -98.225500
  C    -45.200600   14.011700  -99.251700
  H    -44.780600   13.480800  -100.103000
  H    -45.814400   14.845100  -99.606100
  H    -45.806600   13.217400  -98.697700
  H    -37.266400   14.088600  -100.698000
  H    -41.403900   17.387700  -94.576700

 Total Charge           Charge          ....    0
 Multiplicity           Mult            ....    1
 Number of Electrons    NEL             ....  134
 Basis Dimension        Dim             ....  322

ORBITAL ENERGIES
----------------

  NO   OCC          E(Eh)            E(eV)
   0   2.0000     -88.966906     -2420.9126
   1   2.0000     -88.961798     -2420.7736
   2   2.0000     -10.335273      -281.2371
   3   2.0000     -10.330468      -281.1063
   4   2.0000     -10.314428      -280.6698
   5   2.0000     -10.312133      -280.6074
   6   2.0000     -10.304712      -280.4055
   7   2.0000     -10.303893      -280.3832
   8   2.0000     -10.294114      -280.1171
   9   2.0000     -10.291733      -280.0523
  10   2.0000     -10.291125      -280.0357
  11   2.0000     -10.290214      -280.0110
  12   2.0000     -10.286564      -279.9116
  13   2.0000     -10.286034      -279.8972
  14   2.0000     -10.285627      -279.8861
  15   2.0000     -10.260580      -279.2046
  16   2.0000      -8.080519      -219.8821
  17   2.0000      -8.077761      -219.8070
  18   2.0000      -6.039103      -164.3324
  19   2.0000      -6.036175      -164.2527
  20   2.0000      -6.035215      -164.2265
  21   2.0000      -6.031853      -164.1351
  22   2.0000      -6.031216      -164.1177
  23   2.0000      -6.028744      -164.0505
  24   2.0000      -1.007730       -27.4217
  25   2.0000      -0.983545       -26.7636
  26   2.0000      -0.917034       -24.9538
  27   2.0000      -0.912688       -24.8355
  28   2.0000      -0.873444       -23.7676
  29   2.0000      -0.854301       -23.2467
  30   2.0000      -0.840276       -22.8651
  31   2.0000      -0.816014       -22.2049
  32   2.0000      -0.789180       -21.4747
  33   2.0000      -0.778563       -21.1858
  34   2.0000      -0.715015       -19.4566
  35   2.0000      -0.704432       -19.1686
  36   2.0000      -0.699575       -19.0364
  37   2.0000      -0.666212       -18.1286
  38   2.0000      -0.642520       -17.4839
  39   2.0000      -0.623129       -16.9562
  40   2.0000      -0.593080       -16.1385
  41   2.0000      -0.573134       -15.5958
  42   2.0000      -0.566403       -15.4126
  43   2.0000      -0.559507       -15.2250
  44   2.0000      -0.542698       -14.7676
  45   2.0000      -0.528724       -14.3873
  46   2.0000      -0.520782       -14.1712
  47   2.0000      -0.518902       -14.1201
  48   2.0000      -0.507064       -13.7979
  49   2.0000      -0.502666       -13.6782
  50   2.0000      -0.492175       -13.3928
  51   2.0000      -0.484988       -13.1972
  52   2.0000      -0.477217       -12.9857
  53   2.0000      -0.470846       -12.8124
  54   2.0000      -0.462466       -12.5843
  55   2.0000      -0.441794       -12.0218
  56   2.0000      -0.441174       -12.0050
  57   2.0000      -0.437975       -11.9179
  58   2.0000      -0.432539       -11.7700
  59   2.0000      -0.429755       -11.6942
  60   2.0000      -0.423604       -11.5268
  61   2.0000      -0.418976       -11.4009
  62   2.0000      -0.405779       -11.0418
  63   2.0000      -0.354354        -9.6425
  64   2.0000      -0.329494        -8.9660
  65   2.0000      -0.327441        -8.9101
  66   2.0000      -0.283290        -7.7087
  67   0.0000       0.018376         0.5000
  68   0.0000       0.076808         2.0901
  69   0.0000       0.102978         2.8022
  70   0.0000       0.120752         3.2858
  71   0.0000       0.123162         3.3514

MULLIKEN ATOMIC CHARGES
-----------------------
   0 S :    0.103325
   1 C :   -0.094992
   2 C :   -0.081167
   3 C :    0.005882
   4 C :   -0.124150
   5 H :   -0.000568
   6 C :    0.072760
   7 H :   -0.000918
   8 H :    0.043617
   9 C :   -0.050373
  10 H :    0.024503
  11 H :    0.025787
  12 C :    0.002587
  13 H :    0.016401
  14 H :    0.005708
  15 H :    0.016605
  16 S :    0.098310
  17 C :   -0.074323
  18 C :   -0.047874
  19 C :   -0.056031
  20 C :   -0.132147
  21 H :   -0.009584
  22 C :    0.069443
  23 H :    0.028456
  24 H :    0.016254
  25 C :   -0.046223
  26 H :    0.009296
  27 H :    0.037144
  28 C :   -0.059114
  29 H :    0.034441
  30 H :    0.038981
  31 H :    0.042090
  32 H :    0.016337
  33 H :    0.069538
Sum of atomic charges:    0.0000000

LOEWDIN ATOMIC CHARGES
----------------------
   0 S :    0.385837
   1 C :   -0.168016
   2 C :   -0.059589
   3 C :   -0.071126
   4 C :   -0.189218
   5 H :    0.024186
   6 C :   -0.027076
   7 H :    0.022537
   8 H :    0.043924
   9 C :   -0.039845
  10 H :    0.021023
  11 H :    0.031249
  12 C :   -0.058676
  13 H :    0.023803
  14 H :    0.013336
  15 H :    0.026594
  16 S :    0.431495
  17 C :   -0.213539
  18 C :   -0.071998
  19 C :   -0.053691
  20 C :   -0.187693
  21 H :    0.015013
  22 C :   -0.030296
  23 H :    0.031798
  24 H :    0.026980
  25 C :   -0.029350
  26 H :    0.011637
  27 H :    0.030631
  28 C :   -0.068935
  29 H :    0.023107
  30 H :    0.023051
  31 H :    0.036930
  32 H :    0.009190
  33 H :    0.036729

  Mayer bond orders larger than 0.100000
B(  0-S ,  1-C ) :   1.1391 B(  0-S ,  4-C ) :   1.1365 B(  1-C ,  2-C ) :   1.5870
B(  1-C ,  4-C ) :   0.1104 B(  1-C , 32-H ) :   0.9761 B(  2-C ,  3-C ) :   1.2649
B(  2-C ,  6-C ) :   1.0237 B(  3-C ,  4-C ) :   1.5559 B(  3-C ,  5-H ) :   0.9843
B(  4-C , 20-C ) :   1.0821 B(  6-C ,  7-H ) :   0.9379 B(  6-C ,  8-H ) :   0.9378
B(  6-C ,  9-C ) :   1.0698 B(  9-C , 10-H ) :   0.9526 B(  9-C , 11-H ) :   0.9535
B(  9-C , 12-C ) :   1.0907 B( 12-C , 13-H ) :   0.9713 B( 12-C , 14-H ) :   0.9663
B( 12-C , 15-H ) :   0.9687 B( 16-S , 17-C ) :   1.1937 B( 16-S , 20-C ) :   1.1409
B( 17-C , 18-C ) :   1.5587 B( 17-C , 20-C ) :   0.1020 B( 17-C , 33-H ) :   0.9643
B( 18-C , 19-C ) :   1.2669 B( 18-C , 21-H ) :   0.9980 B( 19-C , 20-C ) :   1.5576
B( 19-C , 22-C ) :   1.0490 B( 22-C , 23-H ) :   0.9348 B( 22-C , 24-H ) :   0.9260
B( 22-C , 25-C ) :   1.0610 B( 25-C , 26-H ) :   0.9574 B( 25-C , 27-H ) :   0.9577
B( 25-C , 28-C ) :   1.0734 B( 28-C , 29-H ) :   0.9788 B( 28-C , 30-H ) :   0.9750
B( 28-C , 31-H ) :   0.9751

Dispersion correction           -0.014315211
FINAL SINGLE POINT ENERGY     -1339.857526005610

DIPOLE MOMENT
-------------
                                X             Y             Z
Electronic contribution:     19.67862      19.37460      14.25920
Nuclear contribution   :    -20.23771     -19.63143     -14.64963
                        -----------------------------------------
Total Dipole Moment    :     -0.55909      -0.25683      -0.39042
                        -----------------------------------------
Magnitude (a.u.)       :      0.72868
Magnitude (Debye)      :      1.85216

Rotational constants in cm-1:     0.016417     0.010199     0.006843
Rotational constants in MHz :   492.162542   305.753474   205.161041

                             ****ORCA TERMINATED NORMALLY****
TOTAL RUN TIME: 0 days 0 hours 0 minutes 21 seconds 803 msec
