                         Program Version 4.2.1 -  RELEASE  -
|  1> ! wB97X-D3 SP def2-SVP
|  2> %pal
|  3> nprocs 24
|  4> end
|  5>
|  6> * xyz 0 1
|  7> S 	 -45.1163 	 9.79386 	 -24.6713
|  8> C 	 -45.9875 	 8.39856 	 -25.2346
|  9> C 	 -47.364 	 8.65207 	 -25.3579
| 10> C 	 -47.6638 	 9.96731 	 -24.9714
| 11> C 	 -46.5237 	 10.7061 	 -24.5379
| 12> H 	 -48.6093 	 10.5184 	 -25.153
| 13> C 	 -48.4365 	 7.71711 	 -25.7855
| 14> H 	 -48.4323 	 6.87484 	 -25.0557
| 15> H 	 -48.1915 	 7.24274 	 -26.7728
| 16> C 	 -49.8584 	 8.32136 	 -26.1397
| 17> H 	 -50.1556 	 9.06604 	 -25.3685
| 18> H 	 -49.7172 	 9.0457 	 -26.9306
| 19> C 	 -50.9269 	 7.2688 	 -26.4406
| 20> H 	 -50.737 	 6.73666 	 -27.3819
| 21> H 	 -50.9648 	 6.46103 	 -25.6926
| 22> H 	 -51.9497 	 7.55624 	 -26.528
| 23> S 	 -45.601 	 13.3359 	 -24.897
| 24> C 	 -46.0254 	 14.514 	 -23.6669
| 25> C 	 -47.0694 	 14.0516 	 -22.8869
| 26> C 	 -47.4542 	 12.6838 	 -23.1745
| 27> C 	 -46.6105 	 12.0902 	 -24.1146
| 28> H 	 -47.512 	 14.6456 	 -22.1285
| 29> C 	 -48.6377 	 11.9841 	 -22.4776
| 30> H 	 -48.5013 	 11.9895 	 -21.3601
| 31> H 	 -48.7255 	 10.8922 	 -22.7092
| 32> C 	 -50.0176 	 12.7501 	 -22.7375
| 33> H 	 -50.185 	 12.7895 	 -23.816
| 34> H 	 -49.9144 	 13.8249 	 -22.4925
| 35> C 	 -51.1357 	 12.0635 	 -22.0001
| 36> H 	 -51.2982 	 11.0776 	 -22.4251
| 37> H 	 -52.0813 	 12.6694 	 -22.0383
| 38> H 	 -50.9539 	 11.8402 	 -20.9321
| 39> H 	 -45.6159 	 7.37263 	 -25.4548
| 40> H 	 -45.5343 	 15.4843 	 -23.6154
| 41> *
| 42>
| 43>                          ****END OF INPUT****

CARTESIAN COORDINATES (ANGSTROEM)
---------------------------------
  S    -45.116300    9.793860  -24.671300
  C    -45.987500    8.398560  -25.234600
  C    -47.364000    8.652070  -25.357900
  C    -47.663800    9.967310  -24.971400
  C    -46.523700   10.706100  -24.537900
  H    -48.609300   10.518400  -25.153000
  C    -48.436500    7.717110  -25.785500
  H    -48.432300    6.874840  -25.055700
  H    -48.191500    7.242740  -26.772800
  C    -49.858400    8.321360  -26.139700
  H    -50.155600    9.066040  -25.368500
  H    -49.717200    9.045700  -26.930600
  C    -50.926900    7.268800  -26.440600
  H    -50.737000    6.736660  -27.381900
  H    -50.964800    6.461030  -25.692600
  H    -51.949700    7.556240  -26.528000
  S    -45.601000   13.335900  -24.897000
  C    -46.025400   14.514000  -23.666900
  C    -47.069400   14.051600  -22.886900
  C    -47.454200   12.683800  -23.174500
  C    -46.610500   12.090200  -24.114600
  H    -47.512000   14.645600  -22.128500
  C    -48.637700   11.984100  -22.477600
  H    -48.501300   11.989500  -21.360100
  H    -48.725500   10.892200  -22.709200
  C    -50.017600   12.750100  -22.737500
  H    -50.185000   12.789500  -23.816000
  H    -49.914400   13.824900  -22.492500
  C    -51.135700   12.063500  -22.000100
  H    -51.298200   11.077600  -22.425100
  H    -52.081300   12.669400  -22.038300
  H    -50.953900   11.840200  -20.932100
  H    -45.615900    7.372630  -25.454800
  H    -45.534300   15.484300  -23.615400

 Total Charge           Charge          ....    0
 Multiplicity           Mult            ....    1
 Number of Electrons    NEL             ....  134
 Basis Dimension        Dim             ....  322

ORBITAL ENERGIES
----------------

  NO   OCC          E(Eh)            E(eV)
   0   2.0000     -88.975461     -2421.1454
   1   2.0000     -88.961595     -2420.7681
   2   2.0000     -10.327724      -281.0317
   3   2.0000     -10.325387      -280.9681
   4   2.0000     -10.319651      -280.8120
   5   2.0000     -10.315941      -280.7110
   6   2.0000     -10.307598      -280.4840
   7   2.0000     -10.301017      -280.3049
   8   2.0000     -10.301013      -280.3048
   9   2.0000     -10.300782      -280.2985
  10   2.0000     -10.297136      -280.1993
  11   2.0000     -10.295236      -280.1476
  12   2.0000     -10.293255      -280.0937
  13   2.0000     -10.292090      -280.0620
  14   2.0000     -10.283035      -279.8156
  15   2.0000     -10.282393      -279.7981
  16   2.0000      -8.090619      -220.1569
  17   2.0000      -8.076097      -219.7618
  18   2.0000      -6.048908      -164.5991
  19   2.0000      -6.044884      -164.4897
  20   2.0000      -6.041760      -164.4046
  21   2.0000      -6.034698      -164.2125
  22   2.0000      -6.030750      -164.1050
  23   2.0000      -6.026675      -163.9942
  24   2.0000      -1.008582       -27.4449
  25   2.0000      -0.981507       -26.7082
  26   2.0000      -0.911678       -24.8080
  27   2.0000      -0.900719       -24.5098
  28   2.0000      -0.868341       -23.6288
  29   2.0000      -0.853850       -23.2344
  30   2.0000      -0.844339       -22.9756
  31   2.0000      -0.807333       -21.9686
  32   2.0000      -0.782395       -21.2900
  33   2.0000      -0.767664       -20.8892
  34   2.0000      -0.717843       -19.5335
  35   2.0000      -0.699737       -19.0408
  36   2.0000      -0.692877       -18.8541
  37   2.0000      -0.657374       -17.8881
  38   2.0000      -0.634161       -17.2564
  39   2.0000      -0.620075       -16.8731
  40   2.0000      -0.596202       -16.2235
  41   2.0000      -0.568727       -15.4758
  42   2.0000      -0.558585       -15.1999
  43   2.0000      -0.554654       -15.0929
  44   2.0000      -0.525681       -14.3045
  45   2.0000      -0.522688       -14.2231
  46   2.0000      -0.515918       -14.0388
  47   2.0000      -0.505284       -13.7495
  48   2.0000      -0.503419       -13.6987
  49   2.0000      -0.496399       -13.5077
  50   2.0000      -0.493898       -13.4396
  51   2.0000      -0.479583       -13.0501
  52   2.0000      -0.476498       -12.9662
  53   2.0000      -0.461734       -12.5644
  54   2.0000      -0.458849       -12.4859
  55   2.0000      -0.456474       -12.4213
  56   2.0000      -0.450169       -12.2497
  57   2.0000      -0.438767       -11.9395
  58   2.0000      -0.436201       -11.8696
  59   2.0000      -0.426528       -11.6064
  60   2.0000      -0.418324       -11.3832
  61   2.0000      -0.413255       -11.2452
  62   2.0000      -0.411520       -11.1980
  63   2.0000      -0.340001        -9.2519
  64   2.0000      -0.334636        -9.1059
  65   2.0000      -0.326268        -8.8782
  66   2.0000      -0.287451        -7.8219
  67   0.0000       0.025779         0.7015
  68   0.0000       0.071224         1.9381
  69   0.0000       0.109363         2.9759
  70   0.0000       0.122277         3.3273
  71   0.0000       0.126416         3.4400

MULLIKEN ATOMIC CHARGES
-----------------------
   0 S :    0.159345
   1 C :   -0.138549
   2 C :   -0.065153
   3 C :   -0.025727
   4 C :   -0.159959
   5 H :    0.037850
   6 C :    0.018818
   7 H :    0.049050
   8 H :    0.037965
   9 C :   -0.088092
  10 H :    0.029261
  11 H :    0.028533
  12 C :   -0.017487
  13 H :    0.026689
  14 H :    0.027069
  15 H :    0.028707
  16 S :    0.092369
  17 C :   -0.100358
  18 C :   -0.011651
  19 C :   -0.003223
  20 C :   -0.170559
  21 H :    0.009851
  22 C :    0.005812
  23 H :    0.035262
  24 H :    0.040817
  25 C :   -0.086241
  26 H :    0.030555
  27 H :    0.031173
  28 C :   -0.044618
  29 H :    0.027576
  30 H :    0.044941
  31 H :    0.030848
  32 H :    0.052301
  33 H :    0.066824
Sum of atomic charges:   -0.0000000

LOEWDIN ATOMIC CHARGES
----------------------
   0 S :    0.468169
   1 C :   -0.222135
   2 C :   -0.067576
   3 C :   -0.071909
   4 C :   -0.225903
   5 H :    0.036542
   6 C :   -0.038988
   7 H :    0.038113
   8 H :    0.038563
   9 C :   -0.045596
  10 H :    0.021637
  11 H :    0.025167
  12 C :   -0.067764
  13 H :    0.028292
  14 H :    0.028724
  15 H :    0.025489
  16 S :    0.376752
  17 C :   -0.179448
  18 C :   -0.066203
  19 C :   -0.052241
  20 C :   -0.190055
  21 H :    0.025528
  22 C :   -0.037006
  23 H :    0.032545
  24 H :    0.032842
  25 C :   -0.042797
  26 H :    0.023700
  27 H :    0.023837
  28 C :   -0.072846
  29 H :    0.025138
  30 H :    0.033200
  31 H :    0.027178
  32 H :    0.037192
  33 H :    0.031859

  Mayer bond orders larger than 0.100000
B(  0-S ,  1-C ) :   1.1580 B(  0-S ,  4-C ) :   1.2032 B(  1-C ,  2-C ) :   1.5533
B(  1-C ,  4-C ) :   0.1079 B(  1-C , 32-H ) :   0.9672 B(  2-C ,  3-C ) :   1.3238
B(  2-C ,  6-C ) :   1.0123 B(  3-C ,  4-C ) :   1.4769 B(  3-C ,  5-H ) :   0.9769
B(  4-C , 20-C ) :   1.0597 B(  6-C ,  7-H ) :   0.9375 B(  6-C ,  8-H ) :   0.9397
B(  6-C ,  9-C ) :   1.0632 B(  9-C , 10-H ) :   0.9477 B(  9-C , 11-H ) :   0.9557
B(  9-C , 12-C ) :   1.0721 B( 12-C , 13-H ) :   0.9725 B( 12-C , 14-H ) :   0.9755
B( 12-C , 15-H ) :   0.9743 B( 16-S , 17-C ) :   1.1426 B( 16-S , 20-C ) :   1.1291
B( 17-C , 18-C ) :   1.6077 B( 17-C , 33-H ) :   0.9697 B( 18-C , 19-C ) :   1.2236
B( 18-C , 21-H ) :   0.9960 B( 19-C , 20-C ) :   1.5983 B( 19-C , 22-C ) :   1.0435
B( 22-C , 23-H ) :   0.9388 B( 22-C , 24-H ) :   0.9414 B( 22-C , 25-C ) :   1.0390
B( 25-C , 26-H ) :   0.9550 B( 25-C , 27-H ) :   0.9573 B( 25-C , 28-C ) :   1.0826
B( 28-C , 29-H ) :   0.9718 B( 28-C , 30-H ) :   0.9721 B( 28-C , 31-H ) :   0.9729

Dispersion correction           -0.014076476
FINAL SINGLE POINT ENERGY     -1339.880232577184

DIPOLE MOMENT
-------------
                                X             Y             Z
Electronic contribution:     31.31948      10.35945      -2.82491
Nuclear contribution   :    -31.98339     -10.55044       2.91476
                        -----------------------------------------
Total Dipole Moment    :     -0.66391      -0.19099       0.08985
                        -----------------------------------------
Magnitude (a.u.)       :      0.69665
Magnitude (Debye)      :      1.77075

Rotational constants in cm-1:     0.015763     0.009695     0.006617
Rotational constants in MHz :   472.567876   290.651241   198.358261

                             ****ORCA TERMINATED NORMALLY****
TOTAL RUN TIME: 0 days 0 hours 0 minutes 21 seconds 690 msec
