                         Program Version 4.2.1 -  RELEASE  -
|  1> ! wB97X-D3 SP def2-SVP
|  2> %pal
|  3> nprocs 24
|  4> end
|  5>
|  6> * xyz 0 1
|  7> S 	 -108.013 	 -0.971113 	 -116.38
|  8> C 	 -108.956 	 0.478906 	 -116.866
|  9> C 	 -109.306 	 1.17095 	 -115.652
| 10> C 	 -108.91 	 0.492249 	 -114.431
| 11> C 	 -108.173 	 -0.714 	 -114.631
| 12> H 	 -109.062 	 0.842503 	 -113.348
| 13> C 	 -110.006 	 2.53849 	 -115.637
| 14> H 	 -111.114 	 2.39245 	 -115.704
| 15> H 	 -109.837 	 3.04285 	 -116.618
| 16> C 	 -109.68 	 3.41944 	 -114.433
| 17> H 	 -110.011 	 3.02649 	 -113.44
| 18> H 	 -108.608 	 3.59569 	 -114.395
| 19> C 	 -110.4 	 4.71032 	 -114.638
| 20> H 	 -110.48 	 5.31119 	 -113.748
| 21> H 	 -109.704 	 5.21105 	 -115.356
| 22> H 	 -111.397 	 4.66876 	 -115.029
| 23> S 	 -108.203 	 -3.15594 	 -113.245
| 24> C 	 -107.126 	 -3.338 	 -111.881
| 25> C 	 -106.295 	 -2.2387 	 -111.759
| 26> C 	 -106.393 	 -1.23999 	 -112.828
| 27> C 	 -107.564 	 -1.47252 	 -113.586
| 28> H 	 -105.745 	 -2.11874 	 -110.853
| 29> C 	 -105.518 	 -0.0100529 	 -112.898
| 30> H 	 -105.696 	 0.44471 	 -113.882
| 31> H 	 -104.444 	 -0.3475 	 -112.822
| 32> C 	 -105.602 	 0.980608 	 -111.77
| 33> H 	 -105.154 	 0.408025 	 -110.987
| 34> H 	 -106.659 	 1.22985 	 -111.608
| 35> C 	 -104.841 	 2.28351 	 -112.039
| 36> H 	 -103.747 	 2.08697 	 -112.148
| 37> H 	 -105.004 	 3.02072 	 -111.226
| 38> H 	 -105.199 	 2.77405 	 -112.985
| 39> H 	 -109.111 	 0.921742 	 -117.838
| 40> H 	 -106.904 	 -4.29249 	 -111.405
| 41> *
| 42>
| 43>                          ****END OF INPUT****

CARTESIAN COORDINATES (ANGSTROEM)
---------------------------------
  S    -108.013000   -0.971113  -116.380000
  C    -108.956000    0.478906  -116.866000
  C    -109.306000    1.170950  -115.652000
  C    -108.910000    0.492249  -114.431000
  C    -108.173000   -0.714000  -114.631000
  H    -109.062000    0.842503  -113.348000
  C    -110.006000    2.538490  -115.637000
  H    -111.114000    2.392450  -115.704000
  H    -109.837000    3.042850  -116.618000
  C    -109.680000    3.419440  -114.433000
  H    -110.011000    3.026490  -113.440000
  H    -108.608000    3.595690  -114.395000
  C    -110.400000    4.710320  -114.638000
  H    -110.480000    5.311190  -113.748000
  H    -109.704000    5.211050  -115.356000
  H    -111.397000    4.668760  -115.029000
  S    -108.203000   -3.155940  -113.245000
  C    -107.126000   -3.338000  -111.881000
  C    -106.295000   -2.238700  -111.759000
  C    -106.393000   -1.239990  -112.828000
  C    -107.564000   -1.472520  -113.586000
  H    -105.745000   -2.118740  -110.853000
  C    -105.518000   -0.010053  -112.898000
  H    -105.696000    0.444710  -113.882000
  H    -104.444000   -0.347500  -112.822000
  C    -105.602000    0.980608  -111.770000
  H    -105.154000    0.408025  -110.987000
  H    -106.659000    1.229850  -111.608000
  C    -104.841000    2.283510  -112.039000
  H    -103.747000    2.086970  -112.148000
  H    -105.004000    3.020720  -111.226000
  H    -105.199000    2.774050  -112.985000
  H    -109.111000    0.921742  -117.838000
  H    -106.904000   -4.292490  -111.405000

 Total Charge           Charge          ....    0
 Multiplicity           Mult            ....    1
 Number of Electrons    NEL             ....  134
 Basis Dimension        Dim             ....  322

ORBITAL ENERGIES
----------------

  NO   OCC          E(Eh)            E(eV)
   0   2.0000     -88.970251     -2421.0036
   1   2.0000     -88.962698     -2420.7981
   2   2.0000     -10.334731      -281.2223
   3   2.0000     -10.334464      -281.2151
   4   2.0000     -10.325883      -280.9816
   5   2.0000     -10.319821      -280.8166
   6   2.0000     -10.315119      -280.6887
   7   2.0000     -10.312555      -280.6189
   8   2.0000     -10.308135      -280.4986
   9   2.0000     -10.299972      -280.2765
  10   2.0000     -10.295840      -280.1640
  11   2.0000     -10.293634      -280.1040
  12   2.0000     -10.289440      -279.9899
  13   2.0000     -10.288910      -279.9755
  14   2.0000     -10.285674      -279.8874
  15   2.0000     -10.275151      -279.6011
  16   2.0000      -8.083034      -219.9505
  17   2.0000      -8.076548      -219.7740
  18   2.0000      -6.041695      -164.4029
  19   2.0000      -6.037563      -164.2904
  20   2.0000      -6.035103      -164.2235
  21   2.0000      -6.033950      -164.1921
  22   2.0000      -6.031188      -164.1170
  23   2.0000      -6.027285      -164.0108
  24   2.0000      -0.992872       -27.0174
  25   2.0000      -0.969673       -26.3862
  26   2.0000      -0.916999       -24.9528
  27   2.0000      -0.915417       -24.9098
  28   2.0000      -0.870669       -23.6921
  29   2.0000      -0.847006       -23.0482
  30   2.0000      -0.840559       -22.8728
  31   2.0000      -0.808065       -21.9886
  32   2.0000      -0.779521       -21.2118
  33   2.0000      -0.766375       -20.8541
  34   2.0000      -0.712330       -19.3835
  35   2.0000      -0.696502       -18.9528
  36   2.0000      -0.691467       -18.8158
  37   2.0000      -0.653596       -17.7852
  38   2.0000      -0.637319       -17.3423
  39   2.0000      -0.608036       -16.5455
  40   2.0000      -0.592905       -16.1338
  41   2.0000      -0.581175       -15.8146
  42   2.0000      -0.573627       -15.6092
  43   2.0000      -0.564393       -15.3579
  44   2.0000      -0.529922       -14.4199
  45   2.0000      -0.520028       -14.1507
  46   2.0000      -0.518860       -14.1189
  47   2.0000      -0.514782       -14.0079
  48   2.0000      -0.500161       -13.6101
  49   2.0000      -0.497257       -13.5310
  50   2.0000      -0.491042       -13.3619
  51   2.0000      -0.478182       -13.0120
  52   2.0000      -0.473138       -12.8747
  53   2.0000      -0.463609       -12.6154
  54   2.0000      -0.453834       -12.3494
  55   2.0000      -0.449528       -12.2323
  56   2.0000      -0.439390       -11.9564
  57   2.0000      -0.438712       -11.9380
  58   2.0000      -0.431452       -11.7404
  59   2.0000      -0.424681       -11.5562
  60   2.0000      -0.419897       -11.4260
  61   2.0000      -0.414079       -11.2677
  62   2.0000      -0.406931       -11.0732
  63   2.0000      -0.330351        -8.9893
  64   2.0000      -0.325935        -8.8692
  65   2.0000      -0.320379        -8.7179
  66   2.0000      -0.304280        -8.2799
  67   0.0000       0.026944         0.7332
  68   0.0000       0.046906         1.2764
  69   0.0000       0.106803         2.9062
  70   0.0000       0.115472         3.1422
  71   0.0000       0.121701         3.3117

MULLIKEN ATOMIC CHARGES
-----------------------
   0 S :    0.119026
   1 C :   -0.110172
   2 C :   -0.093867
   3 C :    0.009677
   4 C :   -0.161745
   5 H :    0.052014
   6 C :    0.014757
   7 H :    0.045742
   8 H :    0.020916
   9 C :   -0.082186
  10 H :    0.039527
  11 H :    0.037722
  12 C :   -0.036318
  13 H :    0.026912
  14 H :    0.029886
  15 H :    0.028422
  16 S :    0.092182
  17 C :   -0.091421
  18 C :   -0.052079
  19 C :    0.003693
  20 C :   -0.194469
  21 H :    0.022964
  22 C :    0.037165
  23 H :    0.033280
  24 H :    0.031129
  25 C :   -0.058534
  26 H :    0.024269
  27 H :    0.031311
  28 C :   -0.069094
  29 H :    0.036165
  30 H :    0.045765
  31 H :    0.038878
  32 H :    0.054436
  33 H :    0.074047
Sum of atomic charges:    0.0000000

LOEWDIN ATOMIC CHARGES
----------------------
   0 S :    0.394418
   1 C :   -0.195691
   2 C :   -0.062206
   3 C :   -0.067023
   4 C :   -0.206218
   5 H :    0.046117
   6 C :   -0.040641
   7 H :    0.038126
   8 H :    0.032167
   9 C :   -0.045235
  10 H :    0.026065
  11 H :    0.026299
  12 C :   -0.063842
  13 H :    0.022061
  14 H :    0.032553
  15 H :    0.021325
  16 S :    0.372046
  17 C :   -0.185590
  18 C :   -0.075744
  19 C :   -0.035364
  20 C :   -0.182799
  21 H :    0.025687
  22 C :   -0.038149
  23 H :    0.029868
  24 H :    0.038997
  25 C :   -0.040948
  26 H :    0.021348
  27 H :    0.024027
  28 C :   -0.069622
  29 H :    0.028020
  30 H :    0.030388
  31 H :    0.030181
  32 H :    0.032497
  33 H :    0.036883

  Mayer bond orders larger than 0.100000
B(  0-S ,  1-C ) :   1.1400 B(  0-S ,  4-C ) :   1.1448 B(  1-C ,  2-C ) :   1.5733
B(  1-C ,  4-C ) :   0.1106 B(  1-C , 32-H ) :   0.9715 B(  2-C ,  3-C ) :   1.2646
B(  2-C ,  6-C ) :   1.0154 B(  3-C ,  4-C ) :   1.5387 B(  3-C ,  5-H ) :   0.9732
B(  4-C , 20-C ) :   1.0834 B(  6-C ,  7-H ) :   0.9341 B(  6-C ,  8-H ) :   0.9475
B(  6-C ,  9-C ) :   1.0716 B(  9-C , 10-H ) :   0.9450 B(  9-C , 11-H ) :   0.9619
B(  9-C , 12-C ) :   1.0787 B( 12-C , 13-H ) :   0.9731 B( 12-C , 14-H ) :   0.9772
B( 12-C , 15-H ) :   0.9739 B( 16-S , 17-C ) :   1.1525 B( 16-S , 20-C ) :   1.1100
B( 17-C , 18-C ) :   1.6403 B( 17-C , 33-H ) :   0.9606 B( 18-C , 19-C ) :   1.2019
B( 18-C , 21-H ) :   0.9858 B( 19-C , 20-C ) :   1.5918 B( 19-C , 22-C ) :   1.0673
B( 22-C , 23-H ) :   0.9309 B( 22-C , 24-H ) :   0.9293 B( 22-C , 25-C ) :   1.0575
B( 25-C , 26-H ) :   0.9534 B( 25-C , 27-H ) :   0.9549 B( 25-C , 28-C ) :   1.0895
B( 28-C , 29-H ) :   0.9719 B( 28-C , 30-H ) :   0.9744 B( 28-C , 31-H ) :   0.9739

Dispersion correction           -0.014060682
FINAL SINGLE POINT ENERGY     -1339.858062572468

DIPOLE MOMENT
-------------
                                X             Y             Z
Electronic contribution:     -2.98962     -30.59777      -8.32844
Nuclear contribution   :      3.19494      31.35570       8.65890
                        -----------------------------------------
Total Dipole Moment    :      0.20531       0.75793       0.33046
                        -----------------------------------------
Magnitude (a.u.)       :      0.85195
Magnitude (Debye)      :      2.16549

Rotational constants in cm-1:     0.016327     0.009064     0.006825
Rotational constants in MHz :   489.463468   271.729720   204.609710

                             ****ORCA TERMINATED NORMALLY****
TOTAL RUN TIME: 0 days 0 hours 0 minutes 20 seconds 172 msec
