                         Program Version 4.2.1 -  RELEASE  -
|  1> ! wB97X-D3 SP def2-SVP
|  2> %pal
|  3> nprocs 24
|  4> end
|  5>
|  6> * xyz 0 1
|  7> S 	 -57.2252 	 7.86297 	 -85.5608
|  8> C 	 -58.3334 	 8.33338 	 -86.8654
|  9> C 	 -59.1989 	 9.33424 	 -86.5066
| 10> C 	 -58.8996 	 9.83935 	 -85.2036
| 11> C 	 -58.0249 	 9.08639 	 -84.4426
| 12> H 	 -59.4264 	 10.6159 	 -84.7418
| 13> C 	 -60.2395 	 10.0036 	 -87.4259
| 14> H 	 -60.9655 	 10.4529 	 -86.7171
| 15> H 	 -60.6904 	 9.22019 	 -87.9855
| 16> C 	 -59.653 	 11.0331 	 -88.5266
| 17> H 	 -59.0605 	 10.5096 	 -89.2265
| 18> H 	 -60.4634 	 11.4286 	 -89.0218
| 19> C 	 -58.7882 	 12.069 	 -87.8749
| 20> H 	 -58.433 	 12.8892 	 -88.568
| 21> H 	 -59.397 	 12.6049 	 -87.1849
| 22> H 	 -57.9081 	 11.6865 	 -87.3516
| 23> S 	 -56.835 	 10.6215 	 -82.5502
| 24> C 	 -56.9569 	 10.2652 	 -80.8344
| 25> C 	 -57.7569 	 9.1429 	 -80.6682
| 26> C 	 -58.2294 	 8.62864 	 -81.8834
| 27> C 	 -57.7027 	 9.23174 	 -83.0194
| 28> H 	 -57.9264 	 8.67593 	 -79.6956
| 29> C 	 -59.2397 	 7.50649 	 -81.9239
| 30> H 	 -59.1829 	 7.0045 	 -81.0111
| 31> H 	 -58.9278 	 6.70417 	 -82.6015
| 32> C 	 -60.6126 	 7.97686 	 -82.4191
| 33> H 	 -61.2209 	 7.09216 	 -82.6829
| 34> H 	 -60.3739 	 8.41591 	 -83.3917
| 35> C 	 -61.2156 	 9.07935 	 -81.6439
| 36> H 	 -62.2464 	 9.25867 	 -81.8348
| 37> H 	 -60.6813 	 9.96873 	 -81.7882
| 38> H 	 -61.1293 	 8.80591 	 -80.5778
| 39> H 	 -58.4217 	 7.92727 	 -87.8652
| 40> H 	 -56.5645 	 10.8195 	 -80.0398
| 41> *
| 42>
| 43>                          ****END OF INPUT****

CARTESIAN COORDINATES (ANGSTROEM)
---------------------------------
  S    -57.225200    7.862970  -85.560800
  C    -58.333400    8.333380  -86.865400
  C    -59.198900    9.334240  -86.506600
  C    -58.899600    9.839350  -85.203600
  C    -58.024900    9.086390  -84.442600
  H    -59.426400   10.615900  -84.741800
  C    -60.239500   10.003600  -87.425900
  H    -60.965500   10.452900  -86.717100
  H    -60.690400    9.220190  -87.985500
  C    -59.653000   11.033100  -88.526600
  H    -59.060500   10.509600  -89.226500
  H    -60.463400   11.428600  -89.021800
  C    -58.788200   12.069000  -87.874900
  H    -58.433000   12.889200  -88.568000
  H    -59.397000   12.604900  -87.184900
  H    -57.908100   11.686500  -87.351600
  S    -56.835000   10.621500  -82.550200
  C    -56.956900   10.265200  -80.834400
  C    -57.756900    9.142900  -80.668200
  C    -58.229400    8.628640  -81.883400
  C    -57.702700    9.231740  -83.019400
  H    -57.926400    8.675930  -79.695600
  C    -59.239700    7.506490  -81.923900
  H    -59.182900    7.004500  -81.011100
  H    -58.927800    6.704170  -82.601500
  C    -60.612600    7.976860  -82.419100
  H    -61.220900    7.092160  -82.682900
  H    -60.373900    8.415910  -83.391700
  C    -61.215600    9.079350  -81.643900
  H    -62.246400    9.258670  -81.834800
  H    -60.681300    9.968730  -81.788200
  H    -61.129300    8.805910  -80.577800
  H    -58.421700    7.927270  -87.865200
  H    -56.564500   10.819500  -80.039800

 Total Charge           Charge          ....    0
 Multiplicity           Mult            ....    1
 Number of Electrons    NEL             ....  134
 Basis Dimension        Dim             ....  322

ORBITAL ENERGIES
----------------

  NO   OCC          E(Eh)            E(eV)
   0   2.0000     -88.968044     -2420.9435
   1   2.0000     -88.966726     -2420.9077
   2   2.0000     -10.337903      -281.3086
   3   2.0000     -10.322789      -280.8974
   4   2.0000     -10.316698      -280.7316
   5   2.0000     -10.316401      -280.7235
   6   2.0000     -10.300060      -280.2789
   7   2.0000     -10.299082      -280.2523
   8   2.0000     -10.298178      -280.2277
   9   2.0000     -10.294190      -280.1192
  10   2.0000     -10.293498      -280.1003
  11   2.0000     -10.283170      -279.8193
  12   2.0000     -10.279311      -279.7143
  13   2.0000     -10.275577      -279.6127
  14   2.0000     -10.273486      -279.5558
  15   2.0000     -10.262736      -279.2632
  16   2.0000      -8.081893      -219.9195
  17   2.0000      -8.080809      -219.8900
  18   2.0000      -6.040298      -164.3649
  19   2.0000      -6.039554      -164.3446
  20   2.0000      -6.036117      -164.2511
  21   2.0000      -6.035621      -164.2376
  22   2.0000      -6.032943      -164.1647
  23   2.0000      -6.031392      -164.1225
  24   2.0000      -1.008551       -27.4441
  25   2.0000      -0.980794       -26.6888
  26   2.0000      -0.912993       -24.8438
  27   2.0000      -0.906191       -24.6587
  28   2.0000      -0.872103       -23.7311
  29   2.0000      -0.849633       -23.1197
  30   2.0000      -0.844781       -22.9876
  31   2.0000      -0.817944       -22.2574
  32   2.0000      -0.783455       -21.3189
  33   2.0000      -0.772308       -21.0156
  34   2.0000      -0.710673       -19.3384
  35   2.0000      -0.708131       -19.2692
  36   2.0000      -0.689522       -18.7628
  37   2.0000      -0.667765       -18.1708
  38   2.0000      -0.639471       -17.4009
  39   2.0000      -0.615650       -16.7527
  40   2.0000      -0.593962       -16.1625
  41   2.0000      -0.575308       -15.6549
  42   2.0000      -0.554603       -15.0915
  43   2.0000      -0.550910       -14.9910
  44   2.0000      -0.549580       -14.9548
  45   2.0000      -0.540611       -14.7108
  46   2.0000      -0.516371       -14.0512
  47   2.0000      -0.511860       -13.9284
  48   2.0000      -0.503931       -13.7127
  49   2.0000      -0.497892       -13.5483
  50   2.0000      -0.486105       -13.2276
  51   2.0000      -0.483425       -13.1547
  52   2.0000      -0.474606       -12.9147
  53   2.0000      -0.464943       -12.6518
  54   2.0000      -0.462497       -12.5852
  55   2.0000      -0.446400       -12.1472
  56   2.0000      -0.439780       -11.9670
  57   2.0000      -0.435524       -11.8512
  58   2.0000      -0.431625       -11.7451
  59   2.0000      -0.424094       -11.5402
  60   2.0000      -0.421218       -11.4619
  61   2.0000      -0.418669       -11.3926
  62   2.0000      -0.403362       -10.9760
  63   2.0000      -0.337432        -9.1820
  64   2.0000      -0.334122        -9.0919
  65   2.0000      -0.322049        -8.7634
  66   2.0000      -0.305191        -8.3047
  67   0.0000       0.036772         1.0006
  68   0.0000       0.048587         1.3221
  69   0.0000       0.110041         2.9944
  70   0.0000       0.120465         3.2780
  71   0.0000       0.129076         3.5123

MULLIKEN ATOMIC CHARGES
-----------------------
   0 S :    0.102740
   1 C :   -0.102769
   2 C :   -0.130172
   3 C :    0.081592
   4 C :   -0.177247
   5 H :   -0.006655
   6 C :    0.051997
   7 H :    0.035927
   8 H :    0.021197
   9 C :    0.007944
  10 H :    0.015514
  11 H :    0.017373
  12 C :   -0.075430
  13 H :    0.035588
  14 H :    0.012922
  15 H :    0.055942
  16 S :    0.118905
  17 C :   -0.075115
  18 C :   -0.035301
  19 C :   -0.068212
  20 C :   -0.169548
  21 H :    0.025345
  22 C :    0.112786
  23 H :   -0.007253
  24 H :    0.022079
  25 C :   -0.073114
  26 H :    0.029311
  27 H :    0.022283
  28 C :    0.001132
  29 H :    0.026407
  30 H :    0.027365
  31 H :    0.017225
  32 H :    0.040884
  33 H :    0.038361
Sum of atomic charges:    0.0000000

LOEWDIN ATOMIC CHARGES
----------------------
   0 S :    0.360645
   1 C :   -0.183928
   2 C :   -0.071757
   3 C :   -0.048586
   4 C :   -0.170074
   5 H :    0.020212
   6 C :   -0.022878
   7 H :    0.032995
   8 H :    0.025658
   9 C :   -0.020542
  10 H :    0.017969
  11 H :    0.015420
  12 C :   -0.070299
  13 H :    0.031802
  14 H :    0.017264
  15 H :    0.030616
  16 S :    0.438480
  17 C :   -0.175984
  18 C :   -0.072681
  19 C :   -0.054842
  20 C :   -0.226665
  21 H :    0.035214
  22 C :   -0.028051
  23 H :    0.015092
  24 H :    0.035634
  25 C :   -0.044566
  26 H :    0.026203
  27 H :    0.027071
  28 C :   -0.059395
  29 H :    0.023786
  30 H :    0.020977
  31 H :    0.024838
  32 H :    0.030019
  33 H :    0.020350

  Mayer bond orders larger than 0.100000
B(  0-S ,  1-C ) :   1.1310 B(  0-S ,  4-C ) :   1.1101 B(  1-C ,  2-C ) :   1.6468
B(  1-C , 32-H ) :   0.9612 B(  2-C ,  3-C ) :   1.2215 B(  2-C ,  6-C ) :   1.0183
B(  3-C ,  4-C ) :   1.6087 B(  3-C ,  5-H ) :   0.9923 B(  4-C , 20-C ) :   1.0234
B(  6-C ,  7-H ) :   0.9463 B(  6-C ,  8-H ) :   0.9376 B(  6-C ,  9-C ) :   1.0615
B(  9-C , 10-H ) :   0.9553 B(  9-C , 11-H ) :   0.9561 B(  9-C , 12-C ) :   1.0851
B( 12-C , 13-H ) :   0.9710 B( 12-C , 14-H ) :   0.9759 B( 12-C , 15-H ) :   0.9715
B( 16-S , 17-C ) :   1.1810 B( 16-S , 20-C ) :   1.1625 B( 17-C , 18-C ) :   1.5532
B( 17-C , 20-C ) :   0.1074 B( 17-C , 33-H ) :   0.9767 B( 18-C , 19-C ) :   1.2964
B( 18-C , 21-H ) :   0.9877 B( 19-C , 20-C ) :   1.5488 B( 19-C , 22-C ) :   1.0416
B( 22-C , 23-H ) :   0.9319 B( 22-C , 24-H ) :   0.9296 B( 22-C , 25-C ) :   1.0685
B( 25-C , 26-H ) :   0.9528 B( 25-C , 27-H ) :   0.9533 B( 25-C , 28-C ) :   1.0726
B( 28-C , 29-H ) :   0.9704 B( 28-C , 30-H ) :   0.9675 B( 28-C , 31-H ) :   0.9762

Dispersion correction           -0.016273985
FINAL SINGLE POINT ENERGY     -1339.867883343094

DIPOLE MOMENT
-------------
                                X             Y             Z
Electronic contribution:     18.57541      -4.84402       6.02320
Nuclear contribution   :    -19.12157       4.99347      -6.09712
                        -----------------------------------------
Total Dipole Moment    :     -0.54616       0.14945      -0.07392
                        -----------------------------------------
Magnitude (a.u.)       :      0.57104
Magnitude (Debye)      :      1.45147

Rotational constants in cm-1:     0.020877     0.008590     0.008046
Rotational constants in MHz :   625.885605   257.522994   241.210266

                             ****ORCA TERMINATED NORMALLY****
TOTAL RUN TIME: 0 days 0 hours 0 minutes 22 seconds 776 msec
