                         Program Version 4.2.1 -  RELEASE  -
|  1> ! wB97X-D3 SP def2-SVP
|  2> %pal
|  3> nprocs 24
|  4> end
|  5>
|  6> * xyz 0 1
|  7> S 	 -125.073 	 52.4819 	 -32.2947
|  8> C 	 -124.243 	 51.3766 	 -31.1391
|  9> C 	 -122.947 	 51.8317 	 -30.9847
| 10> C 	 -122.665 	 52.886 	 -31.9254
| 11> C 	 -123.65 	 53.2934 	 -32.7968
| 12> H 	 -121.61 	 53.3362 	 -31.9253
| 13> C 	 -121.848 	 51.3572 	 -30.1639
| 14> H 	 -120.902 	 51.3699 	 -30.7286
| 15> H 	 -122.037 	 50.459 	 -29.5575
| 16> C 	 -121.616 	 52.296 	 -28.9946
| 17> H 	 -121.272 	 53.2821 	 -29.3432
| 18> H 	 -122.474 	 52.4444 	 -28.3803
| 19> C 	 -120.529 	 51.667 	 -28.1014
| 20> H 	 -120.201 	 52.3725 	 -27.3259
| 21> H 	 -120.915 	 50.7513 	 -27.6315
| 22> H 	 -119.655 	 51.4563 	 -28.6528
| 23> S 	 -124.723 	 53.9967 	 -35.1902
| 24> C 	 -123.882 	 55.1583 	 -36.2342
| 25> C 	 -122.808 	 55.7249 	 -35.5471
| 26> C 	 -122.551 	 55.152 	 -34.2754
| 27> C 	 -123.51 	 54.1994 	 -33.9385
| 28> H 	 -122.21 	 56.4975 	 -36.1151
| 29> C 	 -121.495 	 55.7604 	 -33.3071
| 30> H 	 -122.027 	 55.7064 	 -32.3202
| 31> H 	 -121.379 	 56.86 	 -33.4654
| 32> C 	 -120.129 	 55.1038 	 -33.3576
| 33> H 	 -119.531 	 55.4896 	 -34.2525
| 34> H 	 -120.35 	 54.1097 	 -33.6828
| 35> C 	 -119.273 	 55.2717 	 -32.1001
| 36> H 	 -118.653 	 54.3533 	 -32.1694
| 37> H 	 -119.856 	 55.1654 	 -31.1943
| 38> H 	 -118.706 	 56.1878 	 -32.0713
| 39> H 	 -124.722 	 50.56 	 -30.5177
| 40> H 	 -124.29 	 55.6896 	 -37.11
| 41> *
| 42>
| 43>                          ****END OF INPUT****

CARTESIAN COORDINATES (ANGSTROEM)
---------------------------------
  S    -125.073000   52.481900  -32.294700
  C    -124.243000   51.376600  -31.139100
  C    -122.947000   51.831700  -30.984700
  C    -122.665000   52.886000  -31.925400
  C    -123.650000   53.293400  -32.796800
  H    -121.610000   53.336200  -31.925300
  C    -121.848000   51.357200  -30.163900
  H    -120.902000   51.369900  -30.728600
  H    -122.037000   50.459000  -29.557500
  C    -121.616000   52.296000  -28.994600
  H    -121.272000   53.282100  -29.343200
  H    -122.474000   52.444400  -28.380300
  C    -120.529000   51.667000  -28.101400
  H    -120.201000   52.372500  -27.325900
  H    -120.915000   50.751300  -27.631500
  H    -119.655000   51.456300  -28.652800
  S    -124.723000   53.996700  -35.190200
  C    -123.882000   55.158300  -36.234200
  C    -122.808000   55.724900  -35.547100
  C    -122.551000   55.152000  -34.275400
  C    -123.510000   54.199400  -33.938500
  H    -122.210000   56.497500  -36.115100
  C    -121.495000   55.760400  -33.307100
  H    -122.027000   55.706400  -32.320200
  H    -121.379000   56.860000  -33.465400
  C    -120.129000   55.103800  -33.357600
  H    -119.531000   55.489600  -34.252500
  H    -120.350000   54.109700  -33.682800
  C    -119.273000   55.271700  -32.100100
  H    -118.653000   54.353300  -32.169400
  H    -119.856000   55.165400  -31.194300
  H    -118.706000   56.187800  -32.071300
  H    -124.722000   50.560000  -30.517700
  H    -124.290000   55.689600  -37.110000

 Total Charge           Charge          ....    0
 Multiplicity           Mult            ....    1
 Number of Electrons    NEL             ....  134
 Basis Dimension        Dim             ....  322

ORBITAL ENERGIES
----------------

  NO   OCC          E(Eh)            E(eV)
   0   2.0000     -88.969377     -2420.9798
   1   2.0000     -88.964747     -2420.8538
   2   2.0000     -10.335869      -281.2533
   3   2.0000     -10.332450      -281.1603
   4   2.0000     -10.324357      -280.9400
   5   2.0000     -10.320315      -280.8300
   6   2.0000     -10.308460      -280.5075
   7   2.0000     -10.300898      -280.3017
   8   2.0000     -10.300885      -280.3013
   9   2.0000     -10.298392      -280.2335
  10   2.0000     -10.295985      -280.1680
  11   2.0000     -10.291441      -280.0443
  12   2.0000     -10.289549      -279.9929
  13   2.0000     -10.284276      -279.8494
  14   2.0000     -10.283775      -279.8357
  15   2.0000     -10.277221      -279.6574
  16   2.0000      -8.083486      -219.9628
  17   2.0000      -8.079300      -219.8489
  18   2.0000      -6.042090      -164.4136
  19   2.0000      -6.038118      -164.3055
  20   2.0000      -6.038014      -164.3027
  21   2.0000      -6.034238      -164.2000
  22   2.0000      -6.033786      -164.1877
  23   2.0000      -6.029759      -164.0781
  24   2.0000      -1.009196       -27.4616
  25   2.0000      -0.984901       -26.8005
  26   2.0000      -0.927525       -25.2392
  27   2.0000      -0.909647       -24.7528
  28   2.0000      -0.872070       -23.7302
  29   2.0000      -0.852703       -23.2032
  30   2.0000      -0.843567       -22.9546
  31   2.0000      -0.811402       -22.0794
  32   2.0000      -0.781524       -21.2664
  33   2.0000      -0.776018       -21.1165
  34   2.0000      -0.707289       -19.2463
  35   2.0000      -0.700296       -19.0560
  36   2.0000      -0.694299       -18.8928
  37   2.0000      -0.660841       -17.9824
  38   2.0000      -0.638743       -17.3811
  39   2.0000      -0.622059       -16.9271
  40   2.0000      -0.592051       -16.1105
  41   2.0000      -0.579062       -15.7571
  42   2.0000      -0.569235       -15.4897
  43   2.0000      -0.561145       -15.2695
  44   2.0000      -0.530439       -14.4340
  45   2.0000      -0.523250       -14.2383
  46   2.0000      -0.519544       -14.1375
  47   2.0000      -0.510562       -13.8931
  48   2.0000      -0.503912       -13.7121
  49   2.0000      -0.499288       -13.5863
  50   2.0000      -0.497397       -13.5349
  51   2.0000      -0.488584       -13.2951
  52   2.0000      -0.470873       -12.8131
  53   2.0000      -0.464798       -12.6478
  54   2.0000      -0.462544       -12.5865
  55   2.0000      -0.446153       -12.1405
  56   2.0000      -0.442999       -12.0546
  57   2.0000      -0.440582       -11.9888
  58   2.0000      -0.436986       -11.8910
  59   2.0000      -0.426979       -11.6187
  60   2.0000      -0.422340       -11.4925
  61   2.0000      -0.409866       -11.1530
  62   2.0000      -0.404040       -10.9945
  63   2.0000      -0.358295        -9.7497
  64   2.0000      -0.336056        -9.1445
  65   2.0000      -0.323430        -8.8010
  66   2.0000      -0.287258        -7.8167
  67   0.0000       0.016408         0.4465
  68   0.0000       0.080237         2.1834
  69   0.0000       0.101547         2.7632
  70   0.0000       0.111631         3.0376
  71   0.0000       0.124697         3.3932

MULLIKEN ATOMIC CHARGES
-----------------------
   0 S :    0.086253
   1 C :   -0.149593
   2 C :   -0.033901
   3 C :   -0.057589
   4 C :   -0.065502
   5 H :    0.011616
   6 C :    0.059263
   7 H :    0.038185
   8 H :    0.015705
   9 C :   -0.103045
  10 H :    0.024406
  11 H :    0.028752
  12 C :   -0.031769
  13 H :    0.034734
  14 H :    0.034475
  15 H :    0.015730
  16 S :    0.103702
  17 C :   -0.100049
  18 C :   -0.067812
  19 C :   -0.043825
  20 C :   -0.132382
  21 H :    0.043530
  22 C :    0.007009
  23 H :    0.044713
  24 H :    0.033994
  25 C :   -0.100813
  26 H :    0.036453
  27 H :    0.032659
  28 C :   -0.025537
  29 H :    0.039582
  30 H :    0.029038
  31 H :    0.048232
  32 H :    0.072440
  33 H :    0.071343
Sum of atomic charges:   -0.0000000

LOEWDIN ATOMIC CHARGES
----------------------
   0 S :    0.391474
   1 C :   -0.193660
   2 C :   -0.065351
   3 C :   -0.079990
   4 C :   -0.204138
   5 H :    0.035977
   6 C :   -0.036503
   7 H :    0.038356
   8 H :    0.034844
   9 C :   -0.031939
  10 H :    0.017849
  11 H :    0.020411
  12 C :   -0.062239
  13 H :    0.028455
  14 H :    0.025458
  15 H :    0.016462
  16 S :    0.401387
  17 C :   -0.195512
  18 C :   -0.073225
  19 C :   -0.062063
  20 C :   -0.182748
  21 H :    0.042947
  22 C :   -0.038464
  23 H :    0.035212
  24 H :    0.032568
  25 C :   -0.055272
  26 H :    0.034950
  27 H :    0.017709
  28 C :   -0.063822
  29 H :    0.037744
  30 H :    0.020456
  31 H :    0.028322
  32 H :    0.045971
  33 H :    0.038371

  Mayer bond orders larger than 0.100000
B(  0-S ,  1-C ) :   1.1101 B(  0-S ,  4-C ) :   1.1394 B(  1-C ,  2-C ) :   1.5968
B(  1-C , 32-H ) :   0.9635 B(  2-C ,  3-C ) :   1.2466 B(  2-C ,  6-C ) :   1.0536
B(  3-C ,  4-C ) :   1.5573 B(  3-C ,  5-H ) :   0.9733 B(  4-C , 20-C ) :   1.0667
B(  6-C ,  7-H ) :   0.9343 B(  6-C ,  8-H ) :   0.9412 B(  6-C ,  9-C ) :   1.0513
B(  9-C , 10-H ) :   0.9523 B(  9-C , 11-H ) :   0.9562 B(  9-C , 12-C ) :   1.0914
B( 12-C , 13-H ) :   0.9725 B( 12-C , 14-H ) :   0.9727 B( 12-C , 15-H ) :   0.9707
B( 16-S , 17-C ) :   1.1437 B( 16-S , 20-C ) :   1.1459 B( 17-C , 18-C ) :   1.6233
B( 17-C , 20-C ) :   0.1074 B( 17-C , 33-H ) :   0.9584 B( 18-C , 19-C ) :   1.2561
B( 18-C , 21-H ) :   0.9755 B( 19-C , 20-C ) :   1.5744 B( 19-C , 22-C ) :   1.0217
B( 22-C , 23-H ) :   0.9506 B( 22-C , 24-H ) :   0.9437 B( 22-C , 25-C ) :   1.0421
B( 25-C , 26-H ) :   0.9437 B( 25-C , 27-H ) :   0.9660 B( 25-C , 28-C ) :   1.0615
B( 28-C , 29-H ) :   0.9761 B( 28-C , 30-H ) :   0.9776 B( 28-C , 31-H ) :   0.9745

Dispersion correction           -0.014518738
FINAL SINGLE POINT ENERGY     -1339.861644688215

DIPOLE MOMENT
-------------
                                X             Y             Z
Electronic contribution:    -27.72423      -1.89935     -19.48341
Nuclear contribution   :     28.43450       2.15133      19.85517
                        -----------------------------------------
Total Dipole Moment    :      0.71027       0.25198       0.37177
                        -----------------------------------------
Magnitude (a.u.)       :      0.84035
Magnitude (Debye)      :      2.13600

Rotational constants in cm-1:     0.018693     0.009633     0.006558
Rotational constants in MHz :   560.403995   288.783359   196.599568

                             ****ORCA TERMINATED NORMALLY****
TOTAL RUN TIME: 0 days 0 hours 0 minutes 21 seconds 164 msec
