                         Program Version 4.2.1 -  RELEASE  -
|  1> ! wB97X-D3 SP def2-SVP
|  2> %pal
|  3> nprocs 24
|  4> end
|  5>
|  6> * xyz 0 1
|  7> S 	 46.4612 	 -20.3391 	 -112.972
|  8> C 	 47.3161 	 -19.9728 	 -111.449
|  9> C 	 46.9912 	 -20.884 	 -110.495
| 10> C 	 45.9659 	 -21.7974 	 -110.961
| 11> C 	 45.5007 	 -21.4968 	 -112.219
| 12> H 	 45.659 	 -22.7317 	 -110.368
| 13> C 	 47.6552 	 -20.9804 	 -109.14
| 14> H 	 47.8428 	 -20.0005 	 -108.74
| 15> H 	 48.6779 	 -21.2954 	 -109.208
| 16> C 	 46.9498 	 -21.9289 	 -108.174
| 17> H 	 45.8666 	 -21.6769 	 -108.031
| 18> H 	 46.9824 	 -22.921 	 -108.626
| 19> C 	 47.6367 	 -21.8363 	 -106.766
| 20> H 	 47.0382 	 -22.5307 	 -106.055
| 21> H 	 48.7339 	 -22.1016 	 -106.695
| 22> H 	 47.6732 	 -20.851 	 -106.365
| 23> S 	 45.2927 	 -23.4458 	 -114.129
| 24> C 	 43.6843 	 -23.8278 	 -114.598
| 25> C 	 42.6646 	 -23.1941 	 -113.943
| 26> C 	 43.1972 	 -22.3506 	 -112.932
| 27> C 	 44.5662 	 -22.3246 	 -112.959
| 28> H 	 41.6249 	 -23.3783 	 -114.054
| 29> C 	 42.4707 	 -21.5861 	 -111.894
| 30> H 	 41.8963 	 -20.8432 	 -112.401
| 31> H 	 43.0859 	 -21.0491 	 -111.217
| 32> C 	 41.5021 	 -22.5052 	 -111.137
| 33> H 	 42.0725 	 -23.312 	 -110.725
| 34> H 	 40.7129 	 -22.9856 	 -111.774
| 35> C 	 40.8151 	 -21.7662 	 -109.965
| 36> H 	 40.0545 	 -21.0152 	 -110.307
| 37> H 	 41.4905 	 -21.2561 	 -109.406
| 38> H 	 40.0863 	 -22.5366 	 -109.411
| 39> H 	 48.0948 	 -19.2099 	 -111.295
| 40> H 	 43.5575 	 -24.5989 	 -115.306
| 41> *
| 42>
| 43>                          ****END OF INPUT****

CARTESIAN COORDINATES (ANGSTROEM)
---------------------------------
  S     46.461200  -20.339100  -112.972000
  C     47.316100  -19.972800  -111.449000
  C     46.991200  -20.884000  -110.495000
  C     45.965900  -21.797400  -110.961000
  C     45.500700  -21.496800  -112.219000
  H     45.659000  -22.731700  -110.368000
  C     47.655200  -20.980400  -109.140000
  H     47.842800  -20.000500  -108.740000
  H     48.677900  -21.295400  -109.208000
  C     46.949800  -21.928900  -108.174000
  H     45.866600  -21.676900  -108.031000
  H     46.982400  -22.921000  -108.626000
  C     47.636700  -21.836300  -106.766000
  H     47.038200  -22.530700  -106.055000
  H     48.733900  -22.101600  -106.695000
  H     47.673200  -20.851000  -106.365000
  S     45.292700  -23.445800  -114.129000
  C     43.684300  -23.827800  -114.598000
  C     42.664600  -23.194100  -113.943000
  C     43.197200  -22.350600  -112.932000
  C     44.566200  -22.324600  -112.959000
  H     41.624900  -23.378300  -114.054000
  C     42.470700  -21.586100  -111.894000
  H     41.896300  -20.843200  -112.401000
  H     43.085900  -21.049100  -111.217000
  C     41.502100  -22.505200  -111.137000
  H     42.072500  -23.312000  -110.725000
  H     40.712900  -22.985600  -111.774000
  C     40.815100  -21.766200  -109.965000
  H     40.054500  -21.015200  -110.307000
  H     41.490500  -21.256100  -109.406000
  H     40.086300  -22.536600  -109.411000
  H     48.094800  -19.209900  -111.295000
  H     43.557500  -24.598900  -115.306000

 Total Charge           Charge          ....    0
 Multiplicity           Mult            ....    1
 Number of Electrons    NEL             ....  134
 Basis Dimension        Dim             ....  322

ORBITAL ENERGIES
----------------

  NO   OCC          E(Eh)            E(eV)
   0   2.0000     -88.963409     -2420.8174
   1   2.0000     -88.963373     -2420.8165
   2   2.0000     -10.318797      -280.7887
   3   2.0000     -10.315730      -280.7053
   4   2.0000     -10.311490      -280.5899
   5   2.0000     -10.311122      -280.5799
   6   2.0000     -10.297544      -280.2104
   7   2.0000     -10.295800      -280.1630
   8   2.0000     -10.295462      -280.1538
   9   2.0000     -10.295220      -280.1472
  10   2.0000     -10.290494      -280.0186
  11   2.0000     -10.290441      -280.0171
  12   2.0000     -10.287804      -279.9454
  13   2.0000     -10.287094      -279.9261
  14   2.0000     -10.283327      -279.8235
  15   2.0000     -10.281038      -279.7613
  16   2.0000      -8.078880      -219.8375
  17   2.0000      -8.078829      -219.8361
  18   2.0000      -6.037404      -164.2861
  19   2.0000      -6.037027      -164.2759
  20   2.0000      -6.033525      -164.1806
  21   2.0000      -6.033295      -164.1743
  22   2.0000      -6.029619      -164.0743
  23   2.0000      -6.029541      -164.0722
  24   2.0000      -1.011815       -27.5329
  25   2.0000      -0.987639       -26.8750
  26   2.0000      -0.914298       -24.8793
  27   2.0000      -0.913865       -24.8675
  28   2.0000      -0.868930       -23.6448
  29   2.0000      -0.853030       -23.2121
  30   2.0000      -0.839312       -22.8388
  31   2.0000      -0.811261       -22.0755
  32   2.0000      -0.783308       -21.3149
  33   2.0000      -0.770942       -20.9784
  34   2.0000      -0.713104       -19.4045
  35   2.0000      -0.703206       -19.1352
  36   2.0000      -0.688344       -18.7308
  37   2.0000      -0.661555       -18.0018
  38   2.0000      -0.637992       -17.3606
  39   2.0000      -0.614898       -16.7322
  40   2.0000      -0.606366       -16.5000
  41   2.0000      -0.571057       -15.5392
  42   2.0000      -0.565772       -15.3954
  43   2.0000      -0.559493       -15.2246
  44   2.0000      -0.529579       -14.4106
  45   2.0000      -0.524256       -14.2657
  46   2.0000      -0.513490       -13.9728
  47   2.0000      -0.509165       -13.8551
  48   2.0000      -0.495141       -13.4735
  49   2.0000      -0.490279       -13.3412
  50   2.0000      -0.488796       -13.3008
  51   2.0000      -0.481817       -13.1109
  52   2.0000      -0.474092       -12.9007
  53   2.0000      -0.464139       -12.6299
  54   2.0000      -0.463157       -12.6032
  55   2.0000      -0.456802       -12.4302
  56   2.0000      -0.446536       -12.1509
  57   2.0000      -0.441331       -12.0092
  58   2.0000      -0.435614       -11.8536
  59   2.0000      -0.425289       -11.5727
  60   2.0000      -0.419499       -11.4152
  61   2.0000      -0.414663       -11.2835
  62   2.0000      -0.413118       -11.2415
  63   2.0000      -0.336022        -9.1436
  64   2.0000      -0.327436        -8.9100
  65   2.0000      -0.324486        -8.8297
  66   2.0000      -0.301638        -8.2080
  67   0.0000       0.047536         1.2935
  68   0.0000       0.059245         1.6122
  69   0.0000       0.116722         3.1762
  70   0.0000       0.117933         3.2091
  71   0.0000       0.133674         3.6375

MULLIKEN ATOMIC CHARGES
-----------------------
   0 S :    0.116711
   1 C :   -0.138467
   2 C :   -0.066066
   3 C :   -0.016993
   4 C :   -0.151347
   5 H :    0.045629
   6 C :    0.081094
   7 H :    0.009455
   8 H :    0.023768
   9 C :   -0.105631
  10 H :    0.045866
  11 H :    0.044997
  12 C :   -0.068034
  13 H :    0.048194
  14 H :    0.035753
  15 H :    0.026769
  16 S :    0.115194
  17 C :   -0.064693
  18 C :   -0.004832
  19 C :   -0.028445
  20 C :   -0.206903
  21 H :    0.002356
  22 C :    0.145674
  23 H :    0.014679
  24 H :    0.018259
  25 C :   -0.118749
  26 H :    0.029273
  27 H :    0.035472
  28 C :   -0.045662
  29 H :    0.028875
  30 H :    0.016912
  31 H :    0.047356
  32 H :    0.046374
  33 H :    0.037163
Sum of atomic charges:   -0.0000000

LOEWDIN ATOMIC CHARGES
----------------------
   0 S :    0.422186
   1 C :   -0.194960
   2 C :   -0.063406
   3 C :   -0.078679
   4 C :   -0.224661
   5 H :    0.044122
   6 C :   -0.036415
   7 H :    0.027719
   8 H :    0.032857
   9 C :   -0.043100
  10 H :    0.030550
  11 H :    0.025338
  12 C :   -0.074702
  13 H :    0.036131
  14 H :    0.029642
  15 H :    0.019037
  16 S :    0.402429
  17 C :   -0.170738
  18 C :   -0.065991
  19 C :   -0.045097
  20 C :   -0.197761
  21 H :    0.027987
  22 C :   -0.023234
  23 H :    0.029912
  24 H :    0.027073
  25 C :   -0.038855
  26 H :    0.020425
  27 H :    0.026591
  28 C :   -0.066469
  29 H :    0.027223
  30 H :    0.006802
  31 H :    0.041203
  32 H :    0.032541
  33 H :    0.014298

  Mayer bond orders larger than 0.100000
B(  0-S ,  1-C ) :   1.1202 B(  0-S ,  4-C ) :   1.1748 B(  1-C ,  2-C ) :   1.6389
B(  1-C , 32-H ) :   0.9698 B(  2-C ,  3-C ) :   1.2464 B(  2-C ,  6-C ) :   1.0088
B(  3-C ,  4-C ) :   1.5579 B(  3-C ,  5-H ) :   0.9772 B(  4-C , 20-C ) :   1.0056
B(  6-C ,  7-H ) :   0.9380 B(  6-C ,  8-H ) :   0.9265 B(  6-C ,  9-C ) :   1.0790
B(  9-C , 10-H ) :   0.9580 B(  9-C , 11-H ) :   0.9444 B(  9-C , 12-C ) :   1.0700
B( 12-C , 13-H ) :   0.9751 B( 12-C , 14-H ) :   0.9743 B( 12-C , 15-H ) :   0.9758
B( 16-S , 17-C ) :   1.1667 B( 16-S , 20-C ) :   1.1320 B( 17-C , 18-C ) :   1.6058
B( 17-C , 33-H ) :   0.9702 B( 18-C , 19-C ) :   1.2212 B( 18-C , 21-H ) :   0.9991
B( 19-C , 20-C ) :   1.6471 B( 19-C , 22-C ) :   1.0514 B( 22-C , 23-H ) :   0.9137
B( 22-C , 24-H ) :   0.9294 B( 22-C , 25-C ) :   1.0535 B( 25-C , 26-H ) :   0.9584
B( 25-C , 27-H ) :   0.9538 B( 25-C , 28-C ) :   1.0871 B( 28-C , 29-H ) :   0.9733
B( 28-C , 30-H ) :   0.9750 B( 28-C , 31-H ) :   0.9733

Dispersion correction           -0.013848225
FINAL SINGLE POINT ENERGY     -1339.865294145975

DIPOLE MOMENT
-------------
                                X             Y             Z
Electronic contribution:      8.93393       0.13084     -28.42085
Nuclear contribution   :     -9.04340      -0.23464      28.94448
                        -----------------------------------------
Total Dipole Moment    :     -0.10947      -0.10380       0.52364
                        -----------------------------------------
Magnitude (a.u.)       :      0.54493
Magnitude (Debye)      :      1.38511

Rotational constants in cm-1:     0.016528     0.009001     0.006901
Rotational constants in MHz :   495.494124   269.845488   206.882093

                             ****ORCA TERMINATED NORMALLY****
TOTAL RUN TIME: 0 days 0 hours 0 minutes 21 seconds 552 msec
