                         Program Version 4.2.1 -  RELEASE  -
|  1> ! wB97X-D3 SP def2-SVP
|  2> %pal
|  3> nprocs 24
|  4> end
|  5>
|  6> * xyz 0 1
|  7> S 	 50.0547 	 -35.4646 	 -120.422
|  8> C 	 50.066 	 -34.3313 	 -121.804
|  9> C 	 49.6326 	 -33.0922 	 -121.439
| 10> C 	 49.2647 	 -33.0017 	 -120.044
| 11> C 	 49.3863 	 -34.2121 	 -119.363
| 12> H 	 48.9201 	 -32.133 	 -119.524
| 13> C 	 49.3881 	 -31.908 	 -122.387
| 14> H 	 50.3194 	 -31.6938 	 -122.988
| 15> H 	 49.3326 	 -30.9545 	 -121.803
| 16> C 	 48.1154 	 -31.9775 	 -123.286
| 17> H 	 48.077 	 -31.1728 	 -124.015
| 18> H 	 48.247 	 -32.9664 	 -123.75
| 19> C 	 46.7772 	 -31.7866 	 -122.543
| 20> H 	 45.9801 	 -31.6656 	 -123.205
| 21> H 	 46.5518 	 -32.5209 	 -121.718
| 22> H 	 46.8687 	 -30.7605 	 -122.023
| 23> S 	 49.9837 	 -35.8351 	 -117.205
| 24> C 	 49.3131 	 -35.5101 	 -115.701
| 25> C 	 48.355 	 -34.5209 	 -115.774
| 26> C 	 48.1381 	 -33.9712 	 -117.074
| 27> C 	 49.06 	 -34.4997 	 -117.948
| 28> H 	 47.7632 	 -34.2643 	 -114.885
| 29> C 	 47.0879 	 -32.9404 	 -117.328
| 30> H 	 46.0889 	 -33.4027 	 -117.129
| 31> H 	 47.1181 	 -32.5958 	 -118.344
| 32> C 	 47.1725 	 -31.7186 	 -116.41
| 33> H 	 47.3911 	 -32.089 	 -115.402
| 34> H 	 46.2214 	 -31.1948 	 -116.234
| 35> C 	 48.2787 	 -30.6839 	 -116.697
| 36> H 	 48.095 	 -30.0841 	 -117.615
| 37> H 	 49.2573 	 -31.1468 	 -116.686
| 38> H 	 48.1794 	 -29.9863 	 -115.935
| 39> H 	 50.1786 	 -34.6371 	 -122.809
| 40> H 	 49.5733 	 -36.0719 	 -114.848
| 41> *
| 42>
| 43>                          ****END OF INPUT****

CARTESIAN COORDINATES (ANGSTROEM)
---------------------------------
  S     50.054700  -35.464600  -120.422000
  C     50.066000  -34.331300  -121.804000
  C     49.632600  -33.092200  -121.439000
  C     49.264700  -33.001700  -120.044000
  C     49.386300  -34.212100  -119.363000
  H     48.920100  -32.133000  -119.524000
  C     49.388100  -31.908000  -122.387000
  H     50.319400  -31.693800  -122.988000
  H     49.332600  -30.954500  -121.803000
  C     48.115400  -31.977500  -123.286000
  H     48.077000  -31.172800  -124.015000
  H     48.247000  -32.966400  -123.750000
  C     46.777200  -31.786600  -122.543000
  H     45.980100  -31.665600  -123.205000
  H     46.551800  -32.520900  -121.718000
  H     46.868700  -30.760500  -122.023000
  S     49.983700  -35.835100  -117.205000
  C     49.313100  -35.510100  -115.701000
  C     48.355000  -34.520900  -115.774000
  C     48.138100  -33.971200  -117.074000
  C     49.060000  -34.499700  -117.948000
  H     47.763200  -34.264300  -114.885000
  C     47.087900  -32.940400  -117.328000
  H     46.088900  -33.402700  -117.129000
  H     47.118100  -32.595800  -118.344000
  C     47.172500  -31.718600  -116.410000
  H     47.391100  -32.089000  -115.402000
  H     46.221400  -31.194800  -116.234000
  C     48.278700  -30.683900  -116.697000
  H     48.095000  -30.084100  -117.615000
  H     49.257300  -31.146800  -116.686000
  H     48.179400  -29.986300  -115.935000
  H     50.178600  -34.637100  -122.809000
  H     49.573300  -36.071900  -114.848000

 Total Charge           Charge          ....    0
 Multiplicity           Mult            ....    1
 Number of Electrons    NEL             ....  134
 Basis Dimension        Dim             ....  322

ORBITAL ENERGIES
----------------

  NO   OCC          E(Eh)            E(eV)
   0   2.0000     -88.966358     -2420.8977
   1   2.0000     -88.964675     -2420.8519
   2   2.0000     -10.335377      -281.2399
   3   2.0000     -10.330763      -281.1144
   4   2.0000     -10.312621      -280.6207
   5   2.0000     -10.312332      -280.6128
   6   2.0000     -10.304943      -280.4118
   7   2.0000     -10.304144      -280.3900
   8   2.0000     -10.300071      -280.2792
   9   2.0000     -10.294735      -280.1340
  10   2.0000     -10.294273      -280.1214
  11   2.0000     -10.293982      -280.1135
  12   2.0000     -10.292279      -280.0672
  13   2.0000     -10.288383      -279.9611
  14   2.0000     -10.283608      -279.8312
  15   2.0000     -10.274620      -279.5866
  16   2.0000      -8.080643      -219.8855
  17   2.0000      -8.080206      -219.8736
  18   2.0000      -6.039046      -164.3308
  19   2.0000      -6.038942      -164.3280
  20   2.0000      -6.035013      -164.2210
  21   2.0000      -6.034910      -164.2182
  22   2.0000      -6.031417      -164.1232
  23   2.0000      -6.030723      -164.1043
  24   2.0000      -1.008702       -27.4482
  25   2.0000      -0.982991       -26.7486
  26   2.0000      -0.916208       -24.9313
  27   2.0000      -0.904781       -24.6203
  28   2.0000      -0.867702       -23.6114
  29   2.0000      -0.855619       -23.2826
  30   2.0000      -0.840440       -22.8695
  31   2.0000      -0.812239       -22.1021
  32   2.0000      -0.790821       -21.5193
  33   2.0000      -0.774762       -21.0823
  34   2.0000      -0.706129       -19.2147
  35   2.0000      -0.702509       -19.1162
  36   2.0000      -0.693267       -18.8648
  37   2.0000      -0.659383       -17.9427
  38   2.0000      -0.639329       -17.3970
  39   2.0000      -0.618361       -16.8264
  40   2.0000      -0.602592       -16.3974
  41   2.0000      -0.573781       -15.6134
  42   2.0000      -0.561506       -15.2793
  43   2.0000      -0.548329       -14.9208
  44   2.0000      -0.543118       -14.7790
  45   2.0000      -0.531061       -14.4509
  46   2.0000      -0.521761       -14.1978
  47   2.0000      -0.509919       -13.8756
  48   2.0000      -0.502623       -13.6771
  49   2.0000      -0.497221       -13.5301
  50   2.0000      -0.491051       -13.3622
  51   2.0000      -0.476609       -12.9692
  52   2.0000      -0.473413       -12.8822
  53   2.0000      -0.466408       -12.6916
  54   2.0000      -0.461995       -12.5715
  55   2.0000      -0.451860       -12.2957
  56   2.0000      -0.448467       -12.2034
  57   2.0000      -0.438710       -11.9379
  58   2.0000      -0.431791       -11.7496
  59   2.0000      -0.423297       -11.5185
  60   2.0000      -0.418441       -11.3864
  61   2.0000      -0.415616       -11.3095
  62   2.0000      -0.410053       -11.1581
  63   2.0000      -0.359319        -9.7776
  64   2.0000      -0.335020        -9.1164
  65   2.0000      -0.329122        -8.9559
  66   2.0000      -0.285387        -7.7658
  67   0.0000       0.023421         0.6373
  68   0.0000       0.076851         2.0912
  69   0.0000       0.096670         2.6305
  70   0.0000       0.116328         3.1654
  71   0.0000       0.133037         3.6201

MULLIKEN ATOMIC CHARGES
-----------------------
   0 S :    0.087435
   1 C :   -0.105292
   2 C :   -0.061789
   3 C :    0.011607
   4 C :   -0.112802
   5 H :   -0.004380
   6 C :    0.011665
   7 H :    0.043914
   8 H :    0.017119
   9 C :   -0.048404
  10 H :    0.033090
  11 H :    0.030042
  12 C :   -0.070422
  13 H :    0.029390
  14 H :    0.056041
  15 H :    0.022455
  16 S :    0.102553
  17 C :   -0.061313
  18 C :   -0.059641
  19 C :   -0.045628
  20 C :   -0.150342
  21 H :    0.026446
  22 C :    0.111638
  23 H :    0.043850
  24 H :    0.009548
  25 C :   -0.113288
  26 H :    0.015521
  27 H :    0.026427
  28 C :   -0.025942
  29 H :    0.032812
  30 H :    0.048571
  31 H :    0.016480
  32 H :    0.037994
  33 H :    0.044645
Sum of atomic charges:    0.0000000

LOEWDIN ATOMIC CHARGES
----------------------
   0 S :    0.373314
   1 C :   -0.178597
   2 C :   -0.060276
   3 C :   -0.067939
   4 C :   -0.173042
   5 H :    0.024991
   6 C :   -0.041435
   7 H :    0.037806
   8 H :    0.027189
   9 C :   -0.039051
  10 H :    0.026630
  11 H :    0.022947
  12 C :   -0.069069
  13 H :    0.016419
  14 H :    0.031331
  15 H :    0.030799
  16 S :    0.415921
  17 C :   -0.193610
  18 C :   -0.076635
  19 C :   -0.056769
  20 C :   -0.182708
  21 H :    0.031810
  22 C :   -0.029973
  23 H :    0.045146
  24 H :    0.024398
  25 C :   -0.042880
  26 H :    0.021141
  27 H :    0.024931
  28 C :   -0.061277
  29 H :    0.025700
  30 H :    0.028776
  31 H :    0.019730
  32 H :    0.021706
  33 H :    0.022576

  Mayer bond orders larger than 0.100000
B(  0-S ,  1-C ) :   1.1107 B(  0-S ,  4-C ) :   1.1414 B(  1-C ,  2-C ) :   1.6502
B(  1-C , 32-H ) :   0.9718 B(  2-C ,  3-C ) :   1.2162 B(  2-C ,  6-C ) :   1.0155
B(  3-C ,  4-C ) :   1.5875 B(  3-C ,  5-H ) :   0.9933 B(  4-C , 20-C ) :   1.0510
B(  6-C ,  7-H ) :   0.9444 B(  6-C ,  8-H ) :   0.9446 B(  6-C ,  9-C ) :   1.0622
B(  9-C , 10-H ) :   0.9557 B(  9-C , 11-H ) :   0.9569 B(  9-C , 12-C ) :   1.0733
B( 12-C , 13-H ) :   0.9761 B( 12-C , 14-H ) :   0.9757 B( 12-C , 15-H ) :   0.9709
B( 16-S , 17-C ) :   1.1728 B( 16-S , 20-C ) :   1.1384 B( 17-C , 18-C ) :   1.5968
B( 17-C , 33-H ) :   0.9754 B( 18-C , 19-C ) :   1.2311 B( 18-C , 21-H ) :   0.9839
B( 19-C , 20-C ) :   1.5938 B( 19-C , 22-C ) :   1.0530 B( 22-C , 23-H ) :   0.9218
B( 22-C , 24-H ) :   0.9362 B( 22-C , 25-C ) :   1.0649 B( 25-C , 26-H ) :   0.9546
B( 25-C , 27-H ) :   0.9557 B( 25-C , 28-C ) :   1.0821 B( 28-C , 29-H ) :   0.9710
B( 28-C , 30-H ) :   0.9749 B( 28-C , 31-H ) :   0.9692

Dispersion correction           -0.014810698
FINAL SINGLE POINT ENERGY     -1339.885753092839

DIPOLE MOMENT
-------------
                                X             Y             Z
Electronic contribution:     14.67819     -25.50143       5.48752
Nuclear contribution   :    -15.16241      26.07124      -5.38043
                        -----------------------------------------
Total Dipole Moment    :     -0.48422       0.56980       0.10709
                        -----------------------------------------
Magnitude (a.u.)       :      0.75539
Magnitude (Debye)      :      1.92004

Rotational constants in cm-1:     0.018337     0.009736     0.006910
Rotational constants in MHz :   549.731116   291.872809   207.148357

                             ****ORCA TERMINATED NORMALLY****
TOTAL RUN TIME: 0 days 0 hours 0 minutes 22 seconds 214 msec
