                         Program Version 4.2.1 -  RELEASE  -
|  1> ! wB97X-D3 SP def2-SVP
|  2> %pal
|  3> nprocs 24
|  4> end
|  5>
|  6> * xyz 0 1
|  7> S 	 -48.02 	 10.3912 	 26.2395
|  8> C 	 -47.5526 	 10.4608 	 24.6331
|  9> C 	 -48.254 	 11.4818 	 23.9909
| 10> C 	 -49.091 	 12.2148 	 24.8481
| 11> C 	 -48.9324 	 11.8582 	 26.173
| 12> H 	 -49.9249 	 12.9209 	 24.5501
| 13> C 	 -48.2886 	 11.6246 	 22.4233
| 14> H 	 -49.2505 	 11.6293 	 21.9302
| 15> H 	 -47.8812 	 10.6717 	 21.9805
| 16> C 	 -47.4495 	 12.8459 	 21.9617
| 17> H 	 -46.4881 	 12.7466 	 22.3844
| 18> H 	 -47.2444 	 12.74 	 20.9131
| 19> C 	 -48.1049 	 14.1235 	 22.3197
| 20> H 	 -49.1042 	 14.2216 	 21.7967
| 21> H 	 -48.0945 	 14.2823 	 23.3653
| 22> H 	 -47.4706 	 14.9452 	 21.986
| 23> S 	 -49.7363 	 11.4218 	 28.8692
| 24> C 	 -50.8474 	 12.5399 	 29.5454
| 25> C 	 -50.7295 	 13.7522 	 28.9111
| 26> C 	 -49.9136 	 13.6889 	 27.739
| 27> C 	 -49.5647 	 12.3786 	 27.4099
| 28> H 	 -51.2496 	 14.5916 	 29.2543
| 29> C 	 -49.8165 	 14.8529 	 26.7765
| 30> H 	 -50.335 	 15.7242 	 27.2365
| 31> H 	 -50.3898 	 14.6555 	 25.9261
| 32> C 	 -48.4419 	 15.3 	 26.5101
| 33> H 	 -48.4903 	 16.1093 	 25.7745
| 34> H 	 -47.7084 	 14.574 	 26.1765
| 35> C 	 -47.7624 	 15.7782 	 27.8131
| 36> H 	 -48.1954 	 16.6957 	 28.3293
| 37> H 	 -46.7871 	 16.1319 	 27.5076
| 38> H 	 -47.6841 	 15.1259 	 28.7181
| 39> H 	 -46.9246 	 9.75369 	 24.0715
| 40> H 	 -51.2599 	 12.4235 	 30.5383
| 41> *
| 42>
| 43>                          ****END OF INPUT****

CARTESIAN COORDINATES (ANGSTROEM)
---------------------------------
  S    -48.020000   10.391200   26.239500
  C    -47.552600   10.460800   24.633100
  C    -48.254000   11.481800   23.990900
  C    -49.091000   12.214800   24.848100
  C    -48.932400   11.858200   26.173000
  H    -49.924900   12.920900   24.550100
  C    -48.288600   11.624600   22.423300
  H    -49.250500   11.629300   21.930200
  H    -47.881200   10.671700   21.980500
  C    -47.449500   12.845900   21.961700
  H    -46.488100   12.746600   22.384400
  H    -47.244400   12.740000   20.913100
  C    -48.104900   14.123500   22.319700
  H    -49.104200   14.221600   21.796700
  H    -48.094500   14.282300   23.365300
  H    -47.470600   14.945200   21.986000
  S    -49.736300   11.421800   28.869200
  C    -50.847400   12.539900   29.545400
  C    -50.729500   13.752200   28.911100
  C    -49.913600   13.688900   27.739000
  C    -49.564700   12.378600   27.409900
  H    -51.249600   14.591600   29.254300
  C    -49.816500   14.852900   26.776500
  H    -50.335000   15.724200   27.236500
  H    -50.389800   14.655500   25.926100
  C    -48.441900   15.300000   26.510100
  H    -48.490300   16.109300   25.774500
  H    -47.708400   14.574000   26.176500
  C    -47.762400   15.778200   27.813100
  H    -48.195400   16.695700   28.329300
  H    -46.787100   16.131900   27.507600
  H    -47.684100   15.125900   28.718100
  H    -46.924600    9.753690   24.071500
  H    -51.259900   12.423500   30.538300

 Total Charge           Charge          ....    0
 Multiplicity           Mult            ....    1
 Number of Electrons    NEL             ....  134
 Basis Dimension        Dim             ....  322

ORBITAL ENERGIES
----------------

  NO   OCC          E(Eh)            E(eV)
   0   2.0000     -88.967518     -2420.9292
   1   2.0000     -88.963151     -2420.8104
   2   2.0000     -10.331615      -281.1375
   3   2.0000     -10.330348      -281.1031
   4   2.0000     -10.313021      -280.6316
   5   2.0000     -10.312699      -280.6228
   6   2.0000     -10.302135      -280.3354
   7   2.0000     -10.300991      -280.3042
   8   2.0000     -10.297879      -280.2195
   9   2.0000     -10.295349      -280.1507
  10   2.0000     -10.289245      -279.9846
  11   2.0000     -10.283776      -279.8358
  12   2.0000     -10.282398      -279.7983
  13   2.0000     -10.276974      -279.6507
  14   2.0000     -10.274941      -279.5954
  15   2.0000     -10.273435      -279.5544
  16   2.0000      -8.083914      -219.9745
  17   2.0000      -8.078688      -219.8323
  18   2.0000      -6.042220      -164.4172
  19   2.0000      -6.038178      -164.3072
  20   2.0000      -6.037199      -164.2805
  21   2.0000      -6.034796      -164.2152
  22   2.0000      -6.033280      -164.1739
  23   2.0000      -6.029212      -164.0632
  24   2.0000      -1.016623       -27.6637
  25   2.0000      -0.995438       -27.0873
  26   2.0000      -0.918275       -24.9875
  27   2.0000      -0.911303       -24.7978
  28   2.0000      -0.870333       -23.6830
  29   2.0000      -0.851973       -23.1834
  30   2.0000      -0.843074       -22.9412
  31   2.0000      -0.816994       -22.2315
  32   2.0000      -0.783995       -21.3336
  33   2.0000      -0.773047       -21.0357
  34   2.0000      -0.706866       -19.2348
  35   2.0000      -0.697317       -18.9750
  36   2.0000      -0.687679       -18.7127
  37   2.0000      -0.664979       -18.0950
  38   2.0000      -0.640072       -17.4173
  39   2.0000      -0.619596       -16.8601
  40   2.0000      -0.599849       -16.3227
  41   2.0000      -0.578952       -15.7541
  42   2.0000      -0.561646       -15.2832
  43   2.0000      -0.548077       -14.9139
  44   2.0000      -0.544445       -14.8151
  45   2.0000      -0.543977       -14.8024
  46   2.0000      -0.514154       -13.9908
  47   2.0000      -0.509459       -13.8631
  48   2.0000      -0.502269       -13.6674
  49   2.0000      -0.499643       -13.5960
  50   2.0000      -0.491213       -13.3666
  51   2.0000      -0.482794       -13.1375
  52   2.0000      -0.476669       -12.9708
  53   2.0000      -0.466758       -12.7011
  54   2.0000      -0.460759       -12.5379
  55   2.0000      -0.445421       -12.1205
  56   2.0000      -0.435756       -11.8575
  57   2.0000      -0.429574       -11.6893
  58   2.0000      -0.428174       -11.6512
  59   2.0000      -0.424268       -11.5449
  60   2.0000      -0.422458       -11.4957
  61   2.0000      -0.412904       -11.2357
  62   2.0000      -0.403974       -10.9927
  63   2.0000      -0.359866        -9.7925
  64   2.0000      -0.334613        -9.1053
  65   2.0000      -0.326070        -8.8728
  66   2.0000      -0.282228        -7.6798
  67   0.0000       0.017206         0.4682
  68   0.0000       0.079110         2.1527
  69   0.0000       0.102160         2.7799
  70   0.0000       0.115610         3.1459
  71   0.0000       0.132933         3.6173

MULLIKEN ATOMIC CHARGES
-----------------------
   0 S :    0.118544
   1 C :   -0.103587
   2 C :   -0.105541
   3 C :   -0.012295
   4 C :   -0.144076
   5 H :    0.048174
   6 C :    0.022458
   7 H :    0.030100
   8 H :    0.013617
   9 C :   -0.032112
  10 H :    0.009163
  11 H :    0.017928
  12 C :   -0.033320
  13 H :    0.039180
  14 H :    0.026682
  15 H :    0.022980
  16 S :    0.095758
  17 C :   -0.070928
  18 C :   -0.025420
  19 C :   -0.057411
  20 C :   -0.124459
  21 H :   -0.000544
  22 C :    0.085731
  23 H :    0.014169
  24 H :    0.017319
  25 C :   -0.051758
  26 H :    0.030600
  27 H :    0.053866
  28 C :   -0.099086
  29 H :    0.016830
  30 H :    0.024568
  31 H :    0.056431
  32 H :    0.057134
  33 H :    0.059306
Sum of atomic charges:    0.0000000

LOEWDIN ATOMIC CHARGES
----------------------
   0 S :    0.451805
   1 C :   -0.225090
   2 C :   -0.068470
   3 C :   -0.076774
   4 C :   -0.196235
   5 H :    0.046130
   6 C :   -0.030502
   7 H :    0.025926
   8 H :    0.028757
   9 C :   -0.041113
  10 H :    0.018953
  11 H :    0.019908
  12 C :   -0.066706
  13 H :    0.032748
  14 H :    0.021184
  15 H :    0.027948
  16 S :    0.406225
  17 C :   -0.191125
  18 C :   -0.065608
  19 C :   -0.054857
  20 C :   -0.190995
  21 H :    0.022027
  22 C :   -0.033588
  23 H :    0.035316
  24 H :    0.019405
  25 C :   -0.040528
  26 H :    0.028225
  27 H :    0.029210
  28 C :   -0.077748
  29 H :    0.022511
  30 H :    0.022223
  31 H :    0.033316
  32 H :    0.037426
  33 H :    0.030095

  Mayer bond orders larger than 0.100000
B(  0-S ,  1-C ) :   1.1768 B(  0-S ,  4-C ) :   1.1767 B(  1-C ,  2-C ) :   1.5721
B(  1-C ,  4-C ) :   0.1053 B(  1-C , 32-H ) :   0.9654 B(  2-C ,  3-C ) :   1.2939
B(  2-C ,  6-C ) :   1.0070 B(  3-C ,  4-C ) :   1.5228 B(  3-C ,  5-H ) :   0.9807
B(  4-C , 20-C ) :   1.0757 B(  6-C ,  7-H ) :   0.9553 B(  6-C ,  8-H ) :   0.9456
B(  6-C ,  9-C ) :   1.0671 B(  9-C , 10-H ) :   0.9470 B(  9-C , 11-H ) :   0.9525
B(  9-C , 12-C ) :   1.1002 B( 12-C , 13-H ) :   0.9708 B( 12-C , 14-H ) :   0.9661
B( 12-C , 15-H ) :   0.9638 B( 16-S , 17-C ) :   1.1574 B( 16-S , 20-C ) :   1.1425
B( 17-C , 18-C ) :   1.5938 B( 17-C , 20-C ) :   0.1023 B( 17-C , 33-H ) :   0.9673
B( 18-C , 19-C ) :   1.2465 B( 18-C , 21-H ) :   1.0032 B( 19-C , 20-C ) :   1.5535
B( 19-C , 22-C ) :   1.0360 B( 22-C , 23-H ) :   0.9323 B( 22-C , 24-H ) :   0.9394
B( 22-C , 25-C ) :   1.0769 B( 25-C , 26-H ) :   0.9497 B( 25-C , 27-H ) :   0.9523
B( 25-C , 28-C ) :   1.0624 B( 28-C , 29-H ) :   0.9724 B( 28-C , 30-H ) :   0.9755
B( 28-C , 31-H ) :   0.9738

Dispersion correction           -0.015771272
FINAL SINGLE POINT ENERGY     -1339.856360255964

DIPOLE MOMENT
-------------
                                X             Y             Z
Electronic contribution:     -5.08668     -21.85095      17.53695
Nuclear contribution   :      5.00147      22.29297     -17.95550
                        -----------------------------------------
Total Dipole Moment    :     -0.08521       0.44202      -0.41855
                        -----------------------------------------
Magnitude (a.u.)       :      0.61468
Magnitude (Debye)      :      1.56238

Rotational constants in cm-1:     0.020293     0.010015     0.007475
Rotational constants in MHz :   608.367001   300.233406   224.082163

                             ****ORCA TERMINATED NORMALLY****
TOTAL RUN TIME: 0 days 0 hours 0 minutes 22 seconds 45 msec
