                         Program Version 4.2.1 -  RELEASE  -
|  1> ! wB97X-D3 SP def2-SVP
|  2> %pal
|  3> nprocs 24
|  4> end
|  5>
|  6> * xyz 0 1
|  7> S 	 31.8197 	 -32.9223 	 -113.697
|  8> C 	 31.8286 	 -31.9945 	 -112.309
|  9> C 	 32.6809 	 -30.92 	 -112.417
| 10> C 	 33.4758 	 -30.941 	 -113.583
| 11> C 	 33.239 	 -32.0582 	 -114.315
| 12> H 	 34.1274 	 -30.1789 	 -113.967
| 13> C 	 32.7406 	 -29.7747 	 -111.415
| 14> H 	 32.0558 	 -30.2158 	 -110.627
| 15> H 	 32.1846 	 -29.0003 	 -111.913
| 16> C 	 34.1742 	 -29.4196 	 -111.072
| 17> H 	 34.6798 	 -28.8884 	 -111.951
| 18> H 	 34.0889 	 -28.6436 	 -110.222
| 19> C 	 35.0043 	 -30.6158 	 -110.638
| 20> H 	 34.471 	 -31.2644 	 -109.929
| 21> H 	 35.4144 	 -31.2188 	 -111.455
| 22> H 	 35.8594 	 -30.2638 	 -109.958
| 23> S 	 33.1462 	 -32.0792 	 -117.121
| 24> C 	 34.3562 	 -33.0473 	 -117.962
| 25> C 	 35.3262 	 -33.4343 	 -117.093
| 26> C 	 35.1407 	 -33.02 	 -115.719
| 27> C 	 33.9173 	 -32.4391 	 -115.529
| 28> H 	 36.1817 	 -33.9838 	 -117.429
| 29> C 	 36.1323 	 -33.3912 	 -114.65
| 30> H 	 35.5136 	 -33.9822 	 -113.966
| 31> H 	 36.3727 	 -32.4957 	 -114.14
| 32> C 	 37.4227 	 -34.0913 	 -114.948
| 33> H 	 37.8833 	 -33.6336 	 -115.774
| 34> H 	 37.1694 	 -35.1008 	 -115.203
| 35> C 	 38.3541 	 -34.0814 	 -113.782
| 36> H 	 38.6073 	 -33.0552 	 -113.362
| 37> H 	 39.3285 	 -34.4833 	 -114.052
| 38> H 	 37.9796 	 -34.5494 	 -112.9
| 39> H 	 31.0862 	 -32.0869 	 -111.532
| 40> H 	 34.3358 	 -33.4171 	 -118.957
| 41> *
| 42>
| 43>                          ****END OF INPUT****

CARTESIAN COORDINATES (ANGSTROEM)
---------------------------------
  S     31.819700  -32.922300  -113.697000
  C     31.828600  -31.994500  -112.309000
  C     32.680900  -30.920000  -112.417000
  C     33.475800  -30.941000  -113.583000
  C     33.239000  -32.058200  -114.315000
  H     34.127400  -30.178900  -113.967000
  C     32.740600  -29.774700  -111.415000
  H     32.055800  -30.215800  -110.627000
  H     32.184600  -29.000300  -111.913000
  C     34.174200  -29.419600  -111.072000
  H     34.679800  -28.888400  -111.951000
  H     34.088900  -28.643600  -110.222000
  C     35.004300  -30.615800  -110.638000
  H     34.471000  -31.264400  -109.929000
  H     35.414400  -31.218800  -111.455000
  H     35.859400  -30.263800  -109.958000
  S     33.146200  -32.079200  -117.121000
  C     34.356200  -33.047300  -117.962000
  C     35.326200  -33.434300  -117.093000
  C     35.140700  -33.020000  -115.719000
  C     33.917300  -32.439100  -115.529000
  H     36.181700  -33.983800  -117.429000
  C     36.132300  -33.391200  -114.650000
  H     35.513600  -33.982200  -113.966000
  H     36.372700  -32.495700  -114.140000
  C     37.422700  -34.091300  -114.948000
  H     37.883300  -33.633600  -115.774000
  H     37.169400  -35.100800  -115.203000
  C     38.354100  -34.081400  -113.782000
  H     38.607300  -33.055200  -113.362000
  H     39.328500  -34.483300  -114.052000
  H     37.979600  -34.549400  -112.900000
  H     31.086200  -32.086900  -111.532000
  H     34.335800  -33.417100  -118.957000

 Total Charge           Charge          ....    0
 Multiplicity           Mult            ....    1
 Number of Electrons    NEL             ....  134
 Basis Dimension        Dim             ....  322

ORBITAL ENERGIES
----------------

  NO   OCC          E(Eh)            E(eV)
   0   2.0000     -88.962668     -2420.7973
   1   2.0000     -88.959010     -2420.6977
   2   2.0000     -10.322229      -280.8821
   3   2.0000     -10.320568      -280.8369
   4   2.0000     -10.311984      -280.6033
   5   2.0000     -10.305615      -280.4300
   6   2.0000     -10.301041      -280.3056
   7   2.0000     -10.300544      -280.2920
   8   2.0000     -10.292142      -280.0634
   9   2.0000     -10.291716      -280.0518
  10   2.0000     -10.288528      -279.9651
  11   2.0000     -10.286959      -279.9224
  12   2.0000     -10.283039      -279.8157
  13   2.0000     -10.282578      -279.8032
  14   2.0000     -10.279417      -279.7172
  15   2.0000     -10.279100      -279.7085
  16   2.0000      -8.078834      -219.8363
  17   2.0000      -8.072956      -219.6763
  18   2.0000      -6.037112      -164.2782
  19   2.0000      -6.033277      -164.1738
  20   2.0000      -6.031687      -164.1306
  21   2.0000      -6.029597      -164.0737
  22   2.0000      -6.027661      -164.0210
  23   2.0000      -6.023450      -163.9064
  24   2.0000      -1.011013       -27.5111
  25   2.0000      -0.984245       -26.7827
  26   2.0000      -0.919588       -25.0232
  27   2.0000      -0.913523       -24.8582
  28   2.0000      -0.875389       -23.8205
  29   2.0000      -0.849836       -23.1252
  30   2.0000      -0.846562       -23.0361
  31   2.0000      -0.817042       -22.2328
  32   2.0000      -0.782505       -21.2930
  33   2.0000      -0.769910       -20.9503
  34   2.0000      -0.712525       -19.3888
  35   2.0000      -0.706437       -19.2231
  36   2.0000      -0.687629       -18.7113
  37   2.0000      -0.651233       -17.7209
  38   2.0000      -0.646858       -17.6019
  39   2.0000      -0.617631       -16.8066
  40   2.0000      -0.598563       -16.2877
  41   2.0000      -0.581575       -15.8255
  42   2.0000      -0.562288       -15.3006
  43   2.0000      -0.554165       -15.0796
  44   2.0000      -0.540925       -14.7193
  45   2.0000      -0.531512       -14.4632
  46   2.0000      -0.519376       -14.1329
  47   2.0000      -0.509822       -13.8730
  48   2.0000      -0.505137       -13.7455
  49   2.0000      -0.499263       -13.5856
  50   2.0000      -0.490556       -13.3487
  51   2.0000      -0.482846       -13.1389
  52   2.0000      -0.472909       -12.8685
  53   2.0000      -0.463697       -12.6178
  54   2.0000      -0.456715       -12.4278
  55   2.0000      -0.452103       -12.3024
  56   2.0000      -0.446193       -12.1415
  57   2.0000      -0.433809       -11.8045
  58   2.0000      -0.429308       -11.6821
  59   2.0000      -0.426149       -11.5961
  60   2.0000      -0.423285       -11.5182
  61   2.0000      -0.416465       -11.3326
  62   2.0000      -0.404844       -11.0164
  63   2.0000      -0.339186        -9.2297
  64   2.0000      -0.325603        -8.8601
  65   2.0000      -0.318978        -8.6798
  66   2.0000      -0.303581        -8.2609
  67   0.0000       0.038772         1.0550
  68   0.0000       0.059142         1.6093
  69   0.0000       0.118826         3.2334
  70   0.0000       0.122145         3.3237
  71   0.0000       0.130636         3.5548

MULLIKEN ATOMIC CHARGES
-----------------------
   0 S :    0.128549
   1 C :   -0.112157
   2 C :   -0.145393
   3 C :    0.045834
   4 C :   -0.190466
   5 H :    0.015542
   6 C :    0.107687
   7 H :    0.021458
   8 H :    0.038943
   9 C :   -0.115966
  10 H :    0.047819
  11 H :    0.046580
  12 C :   -0.058601
  13 H :    0.029200
  14 H :    0.051121
  15 H :    0.037882
  16 S :    0.091767
  17 C :   -0.054463
  18 C :   -0.055338
  19 C :   -0.012310
  20 C :   -0.200776
  21 H :    0.010088
  22 C :    0.073742
  23 H :    0.036715
  24 H :    0.009885
  25 C :   -0.019232
  26 H :    0.020395
  27 H :    0.024682
  28 C :   -0.039781
  29 H :    0.023720
  30 H :    0.032081
  31 H :    0.023688
  32 H :    0.043527
  33 H :    0.043578
Sum of atomic charges:   -0.0000000

LOEWDIN ATOMIC CHARGES
----------------------
   0 S :    0.430523
   1 C :   -0.224070
   2 C :   -0.070379
   3 C :   -0.053411
   4 C :   -0.191439
   5 H :    0.034573
   6 C :   -0.037393
   7 H :    0.035260
   8 H :    0.032617
   9 C :   -0.055463
  10 H :    0.033315
  11 H :    0.034408
  12 C :   -0.075818
  13 H :    0.026818
  14 H :    0.027987
  15 H :    0.035267
  16 S :    0.365402
  17 C :   -0.173216
  18 C :   -0.075782
  19 C :   -0.044631
  20 C :   -0.191872
  21 H :    0.025894
  22 C :   -0.032918
  23 H :    0.039917
  24 H :    0.026013
  25 C :   -0.038046
  26 H :    0.019570
  27 H :    0.025658
  28 C :   -0.061734
  29 H :    0.029906
  30 H :    0.027502
  31 H :    0.021687
  32 H :    0.026145
  33 H :    0.027710

  Mayer bond orders larger than 0.100000
B(  0-S ,  1-C ) :   1.1582 B(  0-S ,  4-C ) :   1.1522 B(  1-C ,  2-C ) :   1.6105
B(  1-C , 32-H ) :   0.9623 B(  2-C ,  3-C ) :   1.2358 B(  2-C ,  6-C ) :   0.9971
B(  3-C ,  4-C ) :   1.5861 B(  3-C ,  5-H ) :   0.9995 B(  4-C , 20-C ) :   1.0441
B(  6-C ,  7-H ) :   0.9408 B(  6-C ,  8-H ) :   0.9348 B(  6-C ,  9-C ) :   1.0690
B(  9-C , 10-H ) :   0.9464 B(  9-C , 11-H ) :   0.9572 B(  9-C , 12-C ) :   1.0776
B( 12-C , 13-H ) :   0.9744 B( 12-C , 14-H ) :   0.9676 B( 12-C , 15-H ) :   0.9718
B( 16-S , 17-C ) :   1.1297 B( 16-S , 20-C ) :   1.1163 B( 17-C , 18-C ) :   1.6475
B( 17-C , 33-H ) :   0.9634 B( 18-C , 19-C ) :   1.2169 B( 18-C , 21-H ) :   0.9845
B( 19-C , 20-C ) :   1.6408 B( 19-C , 22-C ) :   1.0278 B( 22-C , 23-H ) :   0.9193
B( 22-C , 24-H ) :   0.9234 B( 22-C , 25-C ) :   1.0934 B( 25-C , 26-H ) :   0.9445
B( 25-C , 27-H ) :   0.9383 B( 25-C , 28-C ) :   1.0992 B( 28-C , 29-H ) :   0.9701
B( 28-C , 30-H ) :   0.9706 B( 28-C , 31-H ) :   0.9727

Dispersion correction           -0.014744554
FINAL SINGLE POINT ENERGY     -1339.870653204825

DIPOLE MOMENT
-------------
                                X             Y             Z
Electronic contribution:    -21.91468      -2.69163     -18.08926
Nuclear contribution   :     22.39094       2.77623      18.45788
                        -----------------------------------------
Total Dipole Moment    :      0.47626       0.08460       0.36862
                        -----------------------------------------
Magnitude (a.u.)       :      0.60816
Magnitude (Debye)      :      1.54583

Rotational constants in cm-1:     0.016436     0.009925     0.007174
Rotational constants in MHz :   492.744254   297.555366   215.086020

                             ****ORCA TERMINATED NORMALLY****
TOTAL RUN TIME: 0 days 0 hours 0 minutes 22 seconds 249 msec
