                         Program Version 4.2.1 -  RELEASE  -
|  1> ! wB97X-D3 SP def2-SVP
|  2> %pal
|  3> nprocs 24
|  4> end
|  5>
|  6> * xyz 0 1
|  7> S 	 -103.881 	 20.4185 	 -110.881
|  8> C 	 -104.084 	 19.5987 	 -109.304
|  9> C 	 -105.322 	 19.7559 	 -108.824
| 10> C 	 -106.167 	 20.5519 	 -109.676
| 11> C 	 -105.543 	 20.9414 	 -110.8
| 12> H 	 -107.236 	 20.8241 	 -109.604
| 13> C 	 -105.804 	 19.2422 	 -107.502
| 14> H 	 -105.781 	 18.1553 	 -107.683
| 15> H 	 -106.827 	 19.5607 	 -107.257
| 16> C 	 -104.818 	 19.5582 	 -106.329
| 17> H 	 -105.236 	 19.0842 	 -105.408
| 18> H 	 -103.887 	 19.1102 	 -106.499
| 19> C 	 -104.6 	 21.0522 	 -105.999
| 20> H 	 -104.13 	 20.9908 	 -104.964
| 21> H 	 -104.022 	 21.5614 	 -106.63
| 22> H 	 -105.515 	 21.5576 	 -106.023
| 23> S 	 -106.148 	 21.0228 	 -113.378
| 24> C 	 -106.929 	 22.4766 	 -114.052
| 25> C 	 -107.146 	 23.4309 	 -113.103
| 26> C 	 -106.739 	 22.9972 	 -111.811
| 27> C 	 -106.034 	 21.7841 	 -111.85
| 28> H 	 -107.816 	 24.2763 	 -113.305
| 29> C 	 -107.066 	 23.8058 	 -110.681
| 30> H 	 -107.569 	 23.184 	 -109.928
| 31> H 	 -107.793 	 24.5607 	 -111.068
| 32> C 	 -105.807 	 24.3999 	 -109.979
| 33> H 	 -105.348 	 25.0685 	 -110.722
| 34> H 	 -104.941 	 23.7279 	 -109.688
| 35> C 	 -106.321 	 25.4274 	 -108.865
| 36> H 	 -105.642 	 26.2747 	 -108.551
| 37> H 	 -106.671 	 24.8225 	 -108.043
| 38> H 	 -107.244 	 25.962 	 -109.186
| 39> H 	 -103.352 	 18.9895 	 -108.897
| 40> H 	 -107.307 	 22.4704 	 -115.097
| 41> *
| 42>
| 43>                          ****END OF INPUT****

CARTESIAN COORDINATES (ANGSTROEM)
---------------------------------
  S    -103.881000   20.418500  -110.881000
  C    -104.084000   19.598700  -109.304000
  C    -105.322000   19.755900  -108.824000
  C    -106.167000   20.551900  -109.676000
  C    -105.543000   20.941400  -110.800000
  H    -107.236000   20.824100  -109.604000
  C    -105.804000   19.242200  -107.502000
  H    -105.781000   18.155300  -107.683000
  H    -106.827000   19.560700  -107.257000
  C    -104.818000   19.558200  -106.329000
  H    -105.236000   19.084200  -105.408000
  H    -103.887000   19.110200  -106.499000
  C    -104.600000   21.052200  -105.999000
  H    -104.130000   20.990800  -104.964000
  H    -104.022000   21.561400  -106.630000
  H    -105.515000   21.557600  -106.023000
  S    -106.148000   21.022800  -113.378000
  C    -106.929000   22.476600  -114.052000
  C    -107.146000   23.430900  -113.103000
  C    -106.739000   22.997200  -111.811000
  C    -106.034000   21.784100  -111.850000
  H    -107.816000   24.276300  -113.305000
  C    -107.066000   23.805800  -110.681000
  H    -107.569000   23.184000  -109.928000
  H    -107.793000   24.560700  -111.068000
  C    -105.807000   24.399900  -109.979000
  H    -105.348000   25.068500  -110.722000
  H    -104.941000   23.727900  -109.688000
  C    -106.321000   25.427400  -108.865000
  H    -105.642000   26.274700  -108.551000
  H    -106.671000   24.822500  -108.043000
  H    -107.244000   25.962000  -109.186000
  H    -103.352000   18.989500  -108.897000
  H    -107.307000   22.470400  -115.097000

 Total Charge           Charge          ....    0
 Multiplicity           Mult            ....    1
 Number of Electrons    NEL             ....  134
 Basis Dimension        Dim             ....  322

ORBITAL ENERGIES
----------------

  NO   OCC          E(Eh)            E(eV)
   0   2.0000     -88.964225     -2420.8396
   1   2.0000     -88.960728     -2420.7445
   2   2.0000     -10.320405      -280.8325
   3   2.0000     -10.319814      -280.8164
   4   2.0000     -10.317510      -280.7537
   5   2.0000     -10.304491      -280.3994
   6   2.0000     -10.297285      -280.2034
   7   2.0000     -10.296865      -280.1919
   8   2.0000     -10.295254      -280.1481
   9   2.0000     -10.293502      -280.1004
  10   2.0000     -10.293383      -280.0972
  11   2.0000     -10.291868      -280.0560
  12   2.0000     -10.290422      -280.0166
  13   2.0000     -10.286867      -279.9199
  14   2.0000     -10.283857      -279.8380
  15   2.0000     -10.266626      -279.3691
  16   2.0000      -8.079392      -219.8514
  17   2.0000      -8.075459      -219.7444
  18   2.0000      -6.037839      -164.2979
  19   2.0000      -6.034017      -164.1939
  20   2.0000      -6.033853      -164.1895
  21   2.0000      -6.030168      -164.0892
  22   2.0000      -6.030123      -164.0880
  23   2.0000      -6.026019      -163.9763
  24   2.0000      -1.012803       -27.5598
  25   2.0000      -0.986959       -26.8565
  26   2.0000      -0.914126       -24.8746
  27   2.0000      -0.909580       -24.7509
  28   2.0000      -0.872938       -23.7538
  29   2.0000      -0.846655       -23.0386
  30   2.0000      -0.844872       -22.9901
  31   2.0000      -0.818066       -22.2607
  32   2.0000      -0.784297       -21.3418
  33   2.0000      -0.764879       -20.8134
  34   2.0000      -0.711138       -19.3510
  35   2.0000      -0.707679       -19.2569
  36   2.0000      -0.691280       -18.8107
  37   2.0000      -0.667170       -18.1546
  38   2.0000      -0.644742       -17.5443
  39   2.0000      -0.609627       -16.5888
  40   2.0000      -0.593631       -16.1535
  41   2.0000      -0.576589       -15.6898
  42   2.0000      -0.558593       -15.2001
  43   2.0000      -0.548556       -14.9270
  44   2.0000      -0.540132       -14.6977
  45   2.0000      -0.523606       -14.2480
  46   2.0000      -0.517029       -14.0691
  47   2.0000      -0.514640       -14.0041
  48   2.0000      -0.506965       -13.7952
  49   2.0000      -0.499485       -13.5917
  50   2.0000      -0.491298       -13.3689
  51   2.0000      -0.478580       -13.0228
  52   2.0000      -0.476677       -12.9710
  53   2.0000      -0.459330       -12.4990
  54   2.0000      -0.453569       -12.3422
  55   2.0000      -0.450153       -12.2493
  56   2.0000      -0.442024       -12.0281
  57   2.0000      -0.439358       -11.9555
  58   2.0000      -0.431695       -11.7470
  59   2.0000      -0.426039       -11.5931
  60   2.0000      -0.422646       -11.5008
  61   2.0000      -0.416925       -11.3451
  62   2.0000      -0.408067       -11.1041
  63   2.0000      -0.346934        -9.4405
  64   2.0000      -0.329058        -8.9541
  65   2.0000      -0.325349        -8.8532
  66   2.0000      -0.294192        -8.0054
  67   0.0000       0.034371         0.9353
  68   0.0000       0.068575         1.8660
  69   0.0000       0.106125         2.8878
  70   0.0000       0.113478         3.0879
  71   0.0000       0.134618         3.6631

MULLIKEN ATOMIC CHARGES
-----------------------
   0 S :    0.095474
   1 C :   -0.116584
   2 C :   -0.060474
   3 C :    0.005605
   4 C :   -0.166143
   5 H :    0.025704
   6 C :    0.072425
   7 H :    0.043877
   8 H :    0.025907
   9 C :   -0.094683
  10 H :    0.032252
  11 H :    0.015437
  12 C :    0.007526
  13 H :    0.042915
  14 H :    0.009913
  15 H :    0.012284
  16 S :    0.109018
  17 C :   -0.113619
  18 C :   -0.026275
  19 C :   -0.044132
  20 C :   -0.136806
  21 H :    0.031900
  22 C :    0.058254
  23 H :    0.023113
  24 H :    0.026205
  25 C :   -0.099758
  26 H :    0.026554
  27 H :    0.071420
  28 C :   -0.069530
  29 H :    0.051906
  30 H :    0.028159
  31 H :    0.023383
  32 H :    0.018054
  33 H :    0.070717
Sum of atomic charges:   -0.0000000

LOEWDIN ATOMIC CHARGES
----------------------
   0 S :    0.380740
   1 C :   -0.175962
   2 C :   -0.059703
   3 C :   -0.073740
   4 C :   -0.192492
   5 H :    0.039361
   6 C :   -0.033481
   7 H :    0.041352
   8 H :    0.028904
   9 C :   -0.033598
  10 H :    0.027640
  11 H :    0.012149
  12 C :   -0.050026
  13 H :    0.040537
  14 H :    0.005728
  15 H :    0.018264
  16 S :    0.417049
  17 C :   -0.176597
  18 C :   -0.076005
  19 C :   -0.056842
  20 C :   -0.221607
  21 H :    0.038392
  22 C :   -0.038063
  23 H :    0.029993
  24 H :    0.038587
  25 C :   -0.040700
  26 H :    0.023677
  27 H :    0.040111
  28 C :   -0.078511
  29 H :    0.032067
  30 H :    0.019718
  31 H :    0.026029
  32 H :    0.012689
  33 H :    0.034340

  Mayer bond orders larger than 0.100000
B(  0-S ,  1-C ) :   1.0995 B(  0-S ,  4-C ) :   1.1407 B(  1-C ,  2-C ) :   1.6663
B(  1-C , 32-H ) :   0.9814 B(  2-C ,  3-C ) :   1.1732 B(  2-C ,  6-C ) :   1.0053
B(  3-C ,  4-C ) :   1.6503 B(  3-C ,  5-H ) :   0.9913 B(  4-C , 20-C ) :   1.0019
B(  6-C ,  7-H ) :   0.9306 B(  6-C ,  8-H ) :   0.9488 B(  6-C ,  9-C ) :   1.0851
B(  9-C , 10-H ) :   0.9611 B(  9-C , 11-H ) :   0.9540 B(  9-C , 12-C ) :   1.0679
B( 12-C , 13-H ) :   0.9756 B( 12-C , 14-H ) :   0.9750 B( 12-C , 15-H ) :   0.9752
B( 16-S , 17-C ) :   1.1615 B( 16-S , 20-C ) :   1.1609 B( 17-C , 18-C ) :   1.6018
B( 17-C , 20-C ) :   0.1028 B( 17-C , 33-H ) :   0.9621 B( 18-C , 19-C ) :   1.2605
B( 18-C , 21-H ) :   0.9805 B( 19-C , 20-C ) :   1.5594 B( 19-C , 22-C ) :   1.0788
B( 22-C , 23-H ) :   0.9186 B( 22-C , 24-H ) :   0.9283 B( 22-C , 25-C ) :   1.0467
B( 25-C , 26-H ) :   0.9563 B( 25-C , 27-H ) :   0.9614 B( 25-C , 28-C ) :   1.0560
B( 28-C , 29-H ) :   0.9779 B( 28-C , 30-H ) :   0.9785 B( 28-C , 31-H ) :   0.9728

Dispersion correction           -0.015018323
FINAL SINGLE POINT ENERGY     -1339.856063289286

DIPOLE MOMENT
-------------
                                X             Y             Z
Electronic contribution:      3.66329     -11.47120     -26.54600
Nuclear contribution   :     -4.14646      11.62962      26.97905
                        -----------------------------------------
Total Dipole Moment    :     -0.48317       0.15842       0.43305
                        -----------------------------------------
Magnitude (a.u.)       :      0.66790
Magnitude (Debye)      :      1.69766

Rotational constants in cm-1:     0.019401     0.009640     0.007228
Rotational constants in MHz :   581.626954   288.990277   216.693135

                             ****ORCA TERMINATED NORMALLY****
TOTAL RUN TIME: 0 days 0 hours 0 minutes 22 seconds 445 msec
