                         Program Version 4.2.1 -  RELEASE  -
|  1> ! wB97X-D3 SP def2-SVP
|  2> %pal
|  3> nprocs 24
|  4> end
|  5>
|  6> * xyz 0 1
|  7> S 	 -74.7704 	 -3.23605 	 -66.1572
|  8> C 	 -74.242 	 -2.21624 	 -64.8499
|  9> C 	 -73.8024 	 -0.994375 	 -65.4003
| 10> C 	 -74.0583 	 -0.822881 	 -66.8061
| 11> C 	 -74.5823 	 -2.03238 	 -67.39
| 12> H 	 -73.7872 	 0.0501628 	 -67.3377
| 13> C 	 -72.9884 	 0.0342603 	 -64.6225
| 14> H 	 -72.6089 	 0.777483 	 -65.308
| 15> H 	 -72.0667 	 -0.416973 	 -64.1237
| 16> C 	 -73.7348 	 0.765848 	 -63.4746
| 17> H 	 -74.7034 	 1.15696 	 -63.7793
| 18> H 	 -73.9249 	 0.0170044 	 -62.6452
| 19> C 	 -72.8014 	 1.8196 	 -62.8054
| 20> H 	 -71.7676 	 1.6446 	 -62.7571
| 21> H 	 -72.7831 	 2.71069 	 -63.4494
| 22> H 	 -73.1526 	 2.19496 	 -61.7937
| 23> S 	 -74.6325 	 -3.73312 	 -69.5716
| 24> C 	 -75.5185 	 -3.26947 	 -71.0381
| 25> C 	 -75.9377 	 -1.96906 	 -70.9104
| 26> C 	 -75.6999 	 -1.41905 	 -69.6566
| 27> C 	 -75.0472 	 -2.25251 	 -68.781
| 28> H 	 -76.2473 	 -1.31957 	 -71.749
| 29> C 	 -76.1011 	 0.0692538 	 -69.3693
| 30> H 	 -76.4028 	 0.154047 	 -68.3773
| 31> H 	 -76.9665 	 0.411281 	 -70.0044
| 32> C 	 -74.9935 	 1.10265 	 -69.8114
| 33> H 	 -74.9208 	 1.14851 	 -70.8994
| 34> H 	 -74.0606 	 0.696537 	 -69.5223
| 35> C 	 -75.3108 	 2.53644 	 -69.3996
| 36> H 	 -76.3191 	 2.9155 	 -69.7369
| 37> H 	 -74.6074 	 3.25874 	 -69.8726
| 38> H 	 -75.3504 	 2.82255 	 -68.3504
| 39> H 	 -73.9454 	 -2.52042 	 -63.8275
| 40> H 	 -75.3263 	 -3.6736 	 -71.9846
| 41> *
| 42>
| 43>                          ****END OF INPUT****

CARTESIAN COORDINATES (ANGSTROEM)
---------------------------------
  S    -74.770400   -3.236050  -66.157200
  C    -74.242000   -2.216240  -64.849900
  C    -73.802400   -0.994375  -65.400300
  C    -74.058300   -0.822881  -66.806100
  C    -74.582300   -2.032380  -67.390000
  H    -73.787200    0.050163  -67.337700
  C    -72.988400    0.034260  -64.622500
  H    -72.608900    0.777483  -65.308000
  H    -72.066700   -0.416973  -64.123700
  C    -73.734800    0.765848  -63.474600
  H    -74.703400    1.156960  -63.779300
  H    -73.924900    0.017004  -62.645200
  C    -72.801400    1.819600  -62.805400
  H    -71.767600    1.644600  -62.757100
  H    -72.783100    2.710690  -63.449400
  H    -73.152600    2.194960  -61.793700
  S    -74.632500   -3.733120  -69.571600
  C    -75.518500   -3.269470  -71.038100
  C    -75.937700   -1.969060  -70.910400
  C    -75.699900   -1.419050  -69.656600
  C    -75.047200   -2.252510  -68.781000
  H    -76.247300   -1.319570  -71.749000
  C    -76.101100    0.069254  -69.369300
  H    -76.402800    0.154047  -68.377300
  H    -76.966500    0.411281  -70.004400
  C    -74.993500    1.102650  -69.811400
  H    -74.920800    1.148510  -70.899400
  H    -74.060600    0.696537  -69.522300
  C    -75.310800    2.536440  -69.399600
  H    -76.319100    2.915500  -69.736900
  H    -74.607400    3.258740  -69.872600
  H    -75.350400    2.822550  -68.350400
  H    -73.945400   -2.520420  -63.827500
  H    -75.326300   -3.673600  -71.984600

 Total Charge           Charge          ....    0
 Multiplicity           Mult            ....    1
 Number of Electrons    NEL             ....  134
 Basis Dimension        Dim             ....  322

ORBITAL ENERGIES
----------------

  NO   OCC          E(Eh)            E(eV)
   0   2.0000     -88.972279     -2421.0588
   1   2.0000     -88.968165     -2420.9469
   2   2.0000     -10.341128      -281.3964
   3   2.0000     -10.331177      -281.1256
   4   2.0000     -10.318802      -280.7889
   5   2.0000     -10.315118      -280.6886
   6   2.0000     -10.306320      -280.4492
   7   2.0000     -10.301399      -280.3153
   8   2.0000     -10.300758      -280.2979
   9   2.0000     -10.298089      -280.2253
  10   2.0000     -10.295421      -280.1526
  11   2.0000     -10.294724      -280.1337
  12   2.0000     -10.294057      -280.1155
  13   2.0000     -10.290896      -280.0295
  14   2.0000     -10.287204      -279.9291
  15   2.0000     -10.281318      -279.7689
  16   2.0000      -8.086754      -220.0518
  17   2.0000      -8.082905      -219.9470
  18   2.0000      -6.045326      -164.5017
  19   2.0000      -6.041451      -164.3962
  20   2.0000      -6.040956      -164.3828
  21   2.0000      -6.037791      -164.2966
  22   2.0000      -6.037377      -164.2854
  23   2.0000      -6.033652      -164.1840
  24   2.0000      -1.009838       -27.4791
  25   2.0000      -0.986221       -26.8364
  26   2.0000      -0.907043       -24.6819
  27   2.0000      -0.903914       -24.5968
  28   2.0000      -0.868915       -23.6444
  29   2.0000      -0.851762       -23.1776
  30   2.0000      -0.846557       -23.0360
  31   2.0000      -0.813335       -22.1320
  32   2.0000      -0.779605       -21.2141
  33   2.0000      -0.771091       -20.9825
  34   2.0000      -0.708086       -19.2680
  35   2.0000      -0.704099       -19.1595
  36   2.0000      -0.699982       -19.0475
  37   2.0000      -0.668425       -18.1888
  38   2.0000      -0.638744       -17.3811
  39   2.0000      -0.618731       -16.8365
  40   2.0000      -0.597717       -16.2647
  41   2.0000      -0.569950       -15.5091
  42   2.0000      -0.562160       -15.2972
  43   2.0000      -0.555984       -15.1291
  44   2.0000      -0.527753       -14.3609
  45   2.0000      -0.518661       -14.1135
  46   2.0000      -0.516771       -14.0621
  47   2.0000      -0.510185       -13.8828
  48   2.0000      -0.505589       -13.7578
  49   2.0000      -0.498902       -13.5758
  50   2.0000      -0.491822       -13.3831
  51   2.0000      -0.483762       -13.1638
  52   2.0000      -0.474709       -12.9175
  53   2.0000      -0.468001       -12.7350
  54   2.0000      -0.460981       -12.5439
  55   2.0000      -0.451724       -12.2920
  56   2.0000      -0.447537       -12.1781
  57   2.0000      -0.438299       -11.9267
  58   2.0000      -0.434083       -11.8120
  59   2.0000      -0.424533       -11.5521
  60   2.0000      -0.421821       -11.4783
  61   2.0000      -0.412881       -11.2351
  62   2.0000      -0.410246       -11.1634
  63   2.0000      -0.352529        -9.5928
  64   2.0000      -0.334249        -9.0954
  65   2.0000      -0.331188        -9.0121
  66   2.0000      -0.291485        -7.9317
  67   0.0000       0.020637         0.5616
  68   0.0000       0.067573         1.8388
  69   0.0000       0.101597         2.7646
  70   0.0000       0.121121         3.2959
  71   0.0000       0.131564         3.5800

MULLIKEN ATOMIC CHARGES
-----------------------
   0 S :    0.126289
   1 C :   -0.113081
   2 C :   -0.098417
   3 C :    0.041515
   4 C :   -0.135345
   5 H :   -0.003646
   6 C :    0.018125
   7 H :    0.015816
   8 H :    0.046358
   9 C :   -0.078268
  10 H :    0.038902
  11 H :    0.034701
  12 C :   -0.059065
  13 H :    0.019250
  14 H :    0.020452
  15 H :    0.045081
  16 S :    0.098450
  17 C :   -0.059359
  18 C :   -0.046612
  19 C :   -0.057429
  20 C :   -0.140757
  21 H :    0.032960
  22 C :    0.058714
  23 H :    0.023863
  24 H :    0.024936
  25 C :   -0.042044
  26 H :    0.022743
  27 H :    0.021665
  28 C :   -0.068464
  29 H :    0.027440
  30 H :    0.037794
  31 H :    0.030828
  32 H :    0.067113
  33 H :    0.049493
Sum of atomic charges:    0.0000000

LOEWDIN ATOMIC CHARGES
----------------------
   0 S :    0.437220
   1 C :   -0.218557
   2 C :   -0.062143
   3 C :   -0.061929
   4 C :   -0.196729
   5 H :    0.024057
   6 C :   -0.037533
   7 H :    0.023433
   8 H :    0.040195
   9 C :   -0.039041
  10 H :    0.024246
  11 H :    0.026236
  12 C :   -0.076264
  13 H :    0.017377
  14 H :    0.025281
  15 H :    0.033671
  16 S :    0.409869
  17 C :   -0.177278
  18 C :   -0.065872
  19 C :   -0.063552
  20 C :   -0.203448
  21 H :    0.038960
  22 C :   -0.021357
  23 H :    0.018879
  24 H :    0.033944
  25 C :   -0.037636
  26 H :    0.027699
  27 H :    0.013473
  28 C :   -0.077267
  29 H :    0.030639
  30 H :    0.031008
  31 H :    0.021723
  32 H :    0.039115
  33 H :    0.021579

  Mayer bond orders larger than 0.100000
B(  0-S ,  1-C ) :   1.1497 B(  0-S ,  4-C ) :   1.1973 B(  1-C ,  2-C ) :   1.5573
B(  1-C ,  4-C ) :   0.1121 B(  1-C , 32-H ) :   0.9635 B(  2-C ,  3-C ) :   1.2999
B(  2-C ,  6-C ) :   1.0232 B(  3-C ,  4-C ) :   1.4846 B(  3-C ,  5-H ) :   0.9989
B(  4-C , 20-C ) :   1.0216 B(  6-C ,  7-H ) :   0.9509 B(  6-C ,  8-H ) :   0.9436
B(  6-C ,  9-C ) :   1.0528 B(  9-C , 10-H ) :   0.9614 B(  9-C , 11-H ) :   0.9595
B(  9-C , 12-C ) :   1.0642 B( 12-C , 13-H ) :   0.9747 B( 12-C , 14-H ) :   0.9736
B( 12-C , 15-H ) :   0.9764 B( 16-S , 17-C ) :   1.1500 B( 16-S , 20-C ) :   1.1577
B( 17-C , 18-C ) :   1.5863 B( 17-C , 20-C ) :   0.1037 B( 17-C , 33-H ) :   0.9670
B( 18-C , 19-C ) :   1.3003 B( 18-C , 21-H ) :   0.9758 B( 19-C , 20-C ) :   1.5803
B( 19-C , 22-C ) :   1.0383 B( 22-C , 23-H ) :   0.9425 B( 22-C , 24-H ) :   0.9418
B( 22-C , 25-C ) :   1.0458 B( 25-C , 26-H ) :   0.9517 B( 25-C , 27-H ) :   0.9593
B( 25-C , 28-C ) :   1.0718 B( 28-C , 29-H ) :   0.9705 B( 28-C , 30-H ) :   0.9744
B( 28-C , 31-H ) :   0.9781

Dispersion correction           -0.013991811
FINAL SINGLE POINT ENERGY     -1339.867266920765

DIPOLE MOMENT
-------------
                                X             Y             Z
Electronic contribution:     -3.84315     -31.88660      -9.39023
Nuclear contribution   :      4.13969      32.66796       9.29161
                        -----------------------------------------
Total Dipole Moment    :      0.29654       0.78136      -0.09862
                        -----------------------------------------
Magnitude (a.u.)       :      0.84154
Magnitude (Debye)      :      2.13902

Rotational constants in cm-1:     0.018891     0.008447     0.006107
Rotational constants in MHz :   566.324274   253.234034   183.097237

                             ****ORCA TERMINATED NORMALLY****
TOTAL RUN TIME: 0 days 0 hours 0 minutes 21 seconds 379 msec
