                         Program Version 4.2.1 -  RELEASE  -
|  1> ! wB97X-D3 SP def2-SVP
|  2> %pal
|  3> nprocs 24
|  4> end
|  5>
|  6> * xyz 0 1
|  7> S 	 -125.658 	 27.7654 	 -112.438
|  8> C 	 -125.967 	 26.0445 	 -112.573
|  9> C 	 -125.887 	 25.4123 	 -111.35
| 10> C 	 -125.574 	 26.4106 	 -110.338
| 11> C 	 -125.543 	 27.7314 	 -110.7
| 12> H 	 -125.581 	 26.2746 	 -109.266
| 13> C 	 -126.07 	 23.8823 	 -111.109
| 14> H 	 -125.586 	 23.66 	 -110.171
| 15> H 	 -125.68 	 23.2042 	 -111.884
| 16> C 	 -127.554 	 23.5075 	 -110.824
| 17> H 	 -127.919 	 24.1886 	 -110.075
| 18> H 	 -128.3 	 23.7049 	 -111.591
| 19> C 	 -127.717 	 22.0744 	 -110.249
| 20> H 	 -128.665 	 21.4603 	 -110.444
| 21> H 	 -127.138 	 21.3529 	 -110.749
| 22> H 	 -127.496 	 22.1847 	 -109.19
| 23> S 	 -123.99 	 30.0118 	 -110.244
| 24> C 	 -124.118 	 30.8853 	 -108.737
| 25> C 	 -125.067 	 30.2621 	 -107.908
| 26> C 	 -125.653 	 29.1307 	 -108.5
| 27> C 	 -125.244 	 28.8416 	 -109.822
| 28> H 	 -125.241 	 30.7612 	 -106.926
| 29> C 	 -126.837 	 28.4558 	 -107.769
| 30> H 	 -127.351 	 27.7698 	 -108.467
| 31> H 	 -127.62 	 29.116 	 -107.474
| 32> C 	 -126.421 	 27.6795 	 -106.551
| 33> H 	 -126.074 	 28.4418 	 -105.821
| 34> H 	 -125.646 	 26.9691 	 -106.904
| 35> C 	 -127.69 	 27.0435 	 -105.913
| 36> H 	 -128.228 	 27.872 	 -105.426
| 37> H 	 -127.438 	 26.3784 	 -105.112
| 38> H 	 -128.395 	 26.5048 	 -106.48
| 39> H 	 -126.268 	 25.4975 	 -113.463
| 40> H 	 -123.491 	 31.6935 	 -108.509
| 41> *
| 42>
| 43>                          ****END OF INPUT****

CARTESIAN COORDINATES (ANGSTROEM)
---------------------------------
  S    -125.658000   27.765400  -112.438000
  C    -125.967000   26.044500  -112.573000
  C    -125.887000   25.412300  -111.350000
  C    -125.574000   26.410600  -110.338000
  C    -125.543000   27.731400  -110.700000
  H    -125.581000   26.274600  -109.266000
  C    -126.070000   23.882300  -111.109000
  H    -125.586000   23.660000  -110.171000
  H    -125.680000   23.204200  -111.884000
  C    -127.554000   23.507500  -110.824000
  H    -127.919000   24.188600  -110.075000
  H    -128.300000   23.704900  -111.591000
  C    -127.717000   22.074400  -110.249000
  H    -128.665000   21.460300  -110.444000
  H    -127.138000   21.352900  -110.749000
  H    -127.496000   22.184700  -109.190000
  S    -123.990000   30.011800  -110.244000
  C    -124.118000   30.885300  -108.737000
  C    -125.067000   30.262100  -107.908000
  C    -125.653000   29.130700  -108.500000
  C    -125.244000   28.841600  -109.822000
  H    -125.241000   30.761200  -106.926000
  C    -126.837000   28.455800  -107.769000
  H    -127.351000   27.769800  -108.467000
  H    -127.620000   29.116000  -107.474000
  C    -126.421000   27.679500  -106.551000
  H    -126.074000   28.441800  -105.821000
  H    -125.646000   26.969100  -106.904000
  C    -127.690000   27.043500  -105.913000
  H    -128.228000   27.872000  -105.426000
  H    -127.438000   26.378400  -105.112000
  H    -128.395000   26.504800  -106.480000
  H    -126.268000   25.497500  -113.463000
  H    -123.491000   31.693500  -108.509000

 Total Charge           Charge          ....    0
 Multiplicity           Mult            ....    1
 Number of Electrons    NEL             ....  134
 Basis Dimension        Dim             ....  322

ORBITAL ENERGIES
----------------

  NO   OCC          E(Eh)            E(eV)
   0   2.0000     -88.967338     -2420.9243
   1   2.0000     -88.966913     -2420.9128
   2   2.0000     -10.335513      -281.2436
   3   2.0000     -10.330872      -281.1173
   4   2.0000     -10.319743      -280.8145
   5   2.0000     -10.317814      -280.7620
   6   2.0000     -10.310156      -280.5536
   7   2.0000     -10.308242      -280.5015
   8   2.0000     -10.303770      -280.3798
   9   2.0000     -10.300552      -280.2923
  10   2.0000     -10.295469      -280.1540
  11   2.0000     -10.291323      -280.0411
  12   2.0000     -10.287787      -279.9449
  13   2.0000     -10.285653      -279.8868
  14   2.0000     -10.281783      -279.7816
  15   2.0000     -10.275697      -279.6159
  16   2.0000      -8.081882      -219.9192
  17   2.0000      -8.081638      -219.9125
  18   2.0000      -6.040283      -164.3645
  19   2.0000      -6.040240      -164.3633
  20   2.0000      -6.036269      -164.2552
  21   2.0000      -6.036122      -164.2512
  22   2.0000      -6.032930      -164.1644
  23   2.0000      -6.032265      -164.1463
  24   2.0000      -1.007805       -27.4238
  25   2.0000      -0.985085       -26.8055
  26   2.0000      -0.913133       -24.8476
  27   2.0000      -0.908789       -24.7294
  28   2.0000      -0.873844       -23.7785
  29   2.0000      -0.849841       -23.1254
  30   2.0000      -0.842364       -22.9219
  31   2.0000      -0.814764       -22.1709
  32   2.0000      -0.783471       -21.3193
  33   2.0000      -0.776092       -21.1185
  34   2.0000      -0.708106       -19.2685
  35   2.0000      -0.705338       -19.1932
  36   2.0000      -0.696447       -18.9513
  37   2.0000      -0.662654       -18.0317
  38   2.0000      -0.644148       -17.5282
  39   2.0000      -0.618051       -16.8180
  40   2.0000      -0.599873       -16.3234
  41   2.0000      -0.576582       -15.6896
  42   2.0000      -0.573052       -15.5935
  43   2.0000      -0.566079       -15.4038
  44   2.0000      -0.526548       -14.3281
  45   2.0000      -0.518484       -14.1087
  46   2.0000      -0.515547       -14.0287
  47   2.0000      -0.513945       -13.9852
  48   2.0000      -0.508106       -13.8263
  49   2.0000      -0.498694       -13.5701
  50   2.0000      -0.495775       -13.4907
  51   2.0000      -0.485798       -13.2192
  52   2.0000      -0.472356       -12.8535
  53   2.0000      -0.468645       -12.7525
  54   2.0000      -0.463221       -12.6049
  55   2.0000      -0.443009       -12.0549
  56   2.0000      -0.439945       -11.9715
  57   2.0000      -0.434409       -11.8209
  58   2.0000      -0.425674       -11.5832
  59   2.0000      -0.425248       -11.5716
  60   2.0000      -0.422097       -11.4858
  61   2.0000      -0.416197       -11.3253
  62   2.0000      -0.412058       -11.2127
  63   2.0000      -0.355299        -9.6682
  64   2.0000      -0.334208        -9.0943
  65   2.0000      -0.330359        -8.9895
  66   2.0000      -0.291304        -7.9268
  67   0.0000       0.024162         0.6575
  68   0.0000       0.071234         1.9384
  69   0.0000       0.115862         3.1528
  70   0.0000       0.120731         3.2852
  71   0.0000       0.127115         3.4590

MULLIKEN ATOMIC CHARGES
-----------------------
   0 S :    0.108439
   1 C :   -0.113781
   2 C :   -0.086011
   3 C :    0.035530
   4 C :   -0.155659
   5 H :   -0.009980
   6 C :    0.085414
   7 H :    0.019501
   8 H :    0.043200
   9 C :   -0.077187
  10 H :    0.019001
  11 H :    0.025542
  12 C :   -0.066108
  13 H :    0.038045
  14 H :    0.015764
  15 H :    0.045325
  16 S :    0.101143
  17 C :   -0.091534
  18 C :   -0.045516
  19 C :   -0.012855
  20 C :   -0.122749
  21 H :    0.041675
  22 C :    0.030613
  23 H :    0.020610
  24 H :    0.017644
  25 C :   -0.096604
  26 H :    0.037417
  27 H :    0.044956
  28 C :   -0.024495
  29 H :    0.024622
  30 H :    0.025691
  31 H :    0.023281
  32 H :    0.051529
  33 H :    0.047537
Sum of atomic charges:   -0.0000000

LOEWDIN ATOMIC CHARGES
----------------------
   0 S :    0.404634
   1 C :   -0.189091
   2 C :   -0.061811
   3 C :   -0.062802
   4 C :   -0.201109
   5 H :    0.024167
   6 C :   -0.021841
   7 H :    0.031462
   8 H :    0.033732
   9 C :   -0.045600
  10 H :    0.021729
  11 H :    0.021193
  12 C :   -0.079417
  13 H :    0.040153
  14 H :    0.016654
  15 H :    0.028481
  16 S :    0.409729
  17 C :   -0.175810
  18 C :   -0.076330
  19 C :   -0.057127
  20 C :   -0.192764
  21 H :    0.042324
  22 C :   -0.035182
  23 H :    0.026328
  24 H :    0.023952
  25 C :   -0.038500
  26 H :    0.029476
  27 H :    0.024055
  28 C :   -0.064917
  29 H :    0.030008
  30 H :    0.023773
  31 H :    0.017243
  32 H :    0.033523
  33 H :    0.019684

  Mayer bond orders larger than 0.100000
B(  0-S ,  1-C ) :   1.1439 B(  0-S ,  4-C ) :   1.1291 B(  1-C ,  2-C ) :   1.6203
B(  1-C , 32-H ) :   0.9661 B(  2-C ,  3-C ) :   1.2350 B(  2-C ,  6-C ) :   1.0172
B(  3-C ,  4-C ) :   1.5913 B(  3-C ,  5-H ) :   0.9869 B(  4-C , 20-C ) :   1.0639
B(  6-C ,  7-H ) :   0.9400 B(  6-C ,  8-H ) :   0.9503 B(  6-C ,  9-C ) :   1.0478
B(  9-C , 10-H ) :   0.9613 B(  9-C , 11-H ) :   0.9610 B(  9-C , 12-C ) :   1.0627
B( 12-C , 13-H ) :   0.9726 B( 12-C , 14-H ) :   0.9735 B( 12-C , 15-H ) :   0.9807
B( 16-S , 17-C ) :   1.1811 B( 16-S , 20-C ) :   1.1439 B( 17-C , 18-C ) :   1.5609
B( 17-C , 20-C ) :   0.1120 B( 17-C , 33-H ) :   0.9765 B( 18-C , 19-C ) :   1.2711
B( 18-C , 21-H ) :   0.9883 B( 19-C , 20-C ) :   1.5532 B( 19-C , 22-C ) :   1.0290
B( 22-C , 23-H ) :   0.9415 B( 22-C , 24-H ) :   0.9468 B( 22-C , 25-C ) :   1.0550
B( 25-C , 26-H ) :   0.9551 B( 25-C , 27-H ) :   0.9556 B( 25-C , 28-C ) :   1.0741
B( 28-C , 29-H ) :   0.9715 B( 28-C , 30-H ) :   0.9739 B( 28-C , 31-H ) :   0.9785

Dispersion correction           -0.013742833
FINAL SINGLE POINT ENERGY     -1339.860931603788

DIPOLE MOMENT
-------------
                                X             Y             Z
Electronic contribution:     16.03089      23.83588     -18.33895
Nuclear contribution   :    -16.34033     -24.24064      18.86686
                        -----------------------------------------
Total Dipole Moment    :     -0.30944      -0.40476       0.52792
                        -----------------------------------------
Magnitude (a.u.)       :      0.73368
Magnitude (Debye)      :      1.86486

Rotational constants in cm-1:     0.017088     0.009009     0.006192
Rotational constants in MHz :   512.290066   270.071225   185.634276

                             ****ORCA TERMINATED NORMALLY****
TOTAL RUN TIME: 0 days 0 hours 0 minutes 21 seconds 332 msec
