                         Program Version 4.2.1 -  RELEASE  -
|  1> ! wB97X-D3 SP def2-SVP
|  2> %pal
|  3> nprocs 24
|  4> end
|  5>
|  6> * xyz 0 1
|  7> S 	 -130.117 	 60.728 	 -57.6751
|  8> C 	 -131.033 	 59.8784 	 -59.0006
|  9> C 	 -130.231 	 59.5063 	 -60.0287
| 10> C 	 -128.841 	 59.7996 	 -59.7345
| 11> C 	 -128.658 	 60.5285 	 -58.5428
| 12> H 	 -128.025 	 59.4574 	 -60.2989
| 13> C 	 -130.676 	 58.696 	 -61.2132
| 14> H 	 -130.989 	 57.7123 	 -60.824
| 15> H 	 -129.88 	 58.5048 	 -61.9817
| 16> C 	 -131.69 	 59.4511 	 -62.0131
| 17> H 	 -132.616 	 59.5052 	 -61.411
| 18> H 	 -131.321 	 60.4221 	 -62.2989
| 19> C 	 -131.962 	 58.8125 	 -63.392
| 20> H 	 -132.39 	 57.7826 	 -63.3927
| 21> H 	 -132.567 	 59.511 	 -63.9007
| 22> H 	 -130.994 	 58.7337 	 -63.9777
| 23> S 	 -127.34 	 62.5437 	 -57.4099
| 24> C 	 -125.709 	 62.3324 	 -56.9679
| 25> C 	 -125.154 	 61.1867 	 -57.5001
| 26> C 	 -126.13 	 60.3742 	 -58.0994
| 27> C 	 -127.397 	 60.9651 	 -58.0349
| 28> H 	 -124.103 	 61.004 	 -57.3497
| 29> C 	 -125.661 	 59.0397 	 -58.4431
| 30> H 	 -126.523 	 58.4275 	 -58.408
| 31> H 	 -125.025 	 58.5812 	 -57.6081
| 32> C 	 -124.923 	 58.9577 	 -59.7876
| 33> H 	 -124.232 	 59.7959 	 -59.9687
| 34> H 	 -125.759 	 59.192 	 -60.4189
| 35> C 	 -124.428 	 57.549 	 -60.1259
| 36> H 	 -125.236 	 56.8795 	 -59.8873
| 37> H 	 -123.424 	 57.2927 	 -59.7902
| 38> H 	 -124.31 	 57.4849 	 -61.1968
| 39> H 	 -132.039 	 59.5469 	 -59.02
| 40> H 	 -125.038 	 63.1108 	 -56.5989
| 41> *
| 42>
| 43>                          ****END OF INPUT****

CARTESIAN COORDINATES (ANGSTROEM)
---------------------------------
  S    -130.117000   60.728000  -57.675100
  C    -131.033000   59.878400  -59.000600
  C    -130.231000   59.506300  -60.028700
  C    -128.841000   59.799600  -59.734500
  C    -128.658000   60.528500  -58.542800
  H    -128.025000   59.457400  -60.298900
  C    -130.676000   58.696000  -61.213200
  H    -130.989000   57.712300  -60.824000
  H    -129.880000   58.504800  -61.981700
  C    -131.690000   59.451100  -62.013100
  H    -132.616000   59.505200  -61.411000
  H    -131.321000   60.422100  -62.298900
  C    -131.962000   58.812500  -63.392000
  H    -132.390000   57.782600  -63.392700
  H    -132.567000   59.511000  -63.900700
  H    -130.994000   58.733700  -63.977700
  S    -127.340000   62.543700  -57.409900
  C    -125.709000   62.332400  -56.967900
  C    -125.154000   61.186700  -57.500100
  C    -126.130000   60.374200  -58.099400
  C    -127.397000   60.965100  -58.034900
  H    -124.103000   61.004000  -57.349700
  C    -125.661000   59.039700  -58.443100
  H    -126.523000   58.427500  -58.408000
  H    -125.025000   58.581200  -57.608100
  C    -124.923000   58.957700  -59.787600
  H    -124.232000   59.795900  -59.968700
  H    -125.759000   59.192000  -60.418900
  C    -124.428000   57.549000  -60.125900
  H    -125.236000   56.879500  -59.887300
  H    -123.424000   57.292700  -59.790200
  H    -124.310000   57.484900  -61.196800
  H    -132.039000   59.546900  -59.020000
  H    -125.038000   63.110800  -56.598900

 Total Charge           Charge          ....    0
 Multiplicity           Mult            ....    1
 Number of Electrons    NEL             ....  134
 Basis Dimension        Dim             ....  322

ORBITAL ENERGIES
----------------

  NO   OCC          E(Eh)            E(eV)
   0   2.0000     -88.969492     -2420.9830
   1   2.0000     -88.966824     -2420.9104
   2   2.0000     -10.326594      -281.0009
   3   2.0000     -10.321386      -280.8592
   4   2.0000     -10.310397      -280.5602
   5   2.0000     -10.307965      -280.4940
   6   2.0000     -10.298558      -280.2380
   7   2.0000     -10.294408      -280.1251
   8   2.0000     -10.294332      -280.1230
   9   2.0000     -10.290998      -280.0323
  10   2.0000     -10.286701      -279.9154
  11   2.0000     -10.286257      -279.9033
  12   2.0000     -10.285335      -279.8782
  13   2.0000     -10.285196      -279.8744
  14   2.0000     -10.282102      -279.7902
  15   2.0000     -10.278131      -279.6822
  16   2.0000      -8.083584      -219.9655
  17   2.0000      -8.083365      -219.9596
  18   2.0000      -6.042268      -164.4185
  19   2.0000      -6.041630      -164.4011
  20   2.0000      -6.038255      -164.3093
  21   2.0000      -6.037654      -164.2929
  22   2.0000      -6.034242      -164.2001
  23   2.0000      -6.034111      -164.1965
  24   2.0000      -1.017236       -27.6804
  25   2.0000      -0.985884       -26.8273
  26   2.0000      -0.922852       -25.1121
  27   2.0000      -0.918001       -24.9801
  28   2.0000      -0.874152       -23.7869
  29   2.0000      -0.858707       -23.3666
  30   2.0000      -0.845052       -22.9950
  31   2.0000      -0.811748       -22.0888
  32   2.0000      -0.785272       -21.3683
  33   2.0000      -0.774295       -21.0697
  34   2.0000      -0.711226       -19.3534
  35   2.0000      -0.700358       -19.0577
  36   2.0000      -0.693723       -18.8771
  37   2.0000      -0.667106       -18.1529
  38   2.0000      -0.635386       -17.2897
  39   2.0000      -0.619128       -16.8473
  40   2.0000      -0.599893       -16.3239
  41   2.0000      -0.580357       -15.7923
  42   2.0000      -0.566420       -15.4131
  43   2.0000      -0.559824       -15.2336
  44   2.0000      -0.532852       -14.4997
  45   2.0000      -0.530766       -14.4429
  46   2.0000      -0.522299       -14.2125
  47   2.0000      -0.518114       -14.0986
  48   2.0000      -0.502916       -13.6850
  49   2.0000      -0.498046       -13.5525
  50   2.0000      -0.493390       -13.4258
  51   2.0000      -0.476271       -12.9600
  52   2.0000      -0.473388       -12.8815
  53   2.0000      -0.462622       -12.5886
  54   2.0000      -0.457669       -12.4538
  55   2.0000      -0.453269       -12.3341
  56   2.0000      -0.446205       -12.1418
  57   2.0000      -0.443913       -12.0795
  58   2.0000      -0.436403       -11.8751
  59   2.0000      -0.432582       -11.7712
  60   2.0000      -0.422916       -11.5081
  61   2.0000      -0.412466       -11.2238
  62   2.0000      -0.405642       -11.0381
  63   2.0000      -0.351389        -9.5618
  64   2.0000      -0.333105        -9.0643
  65   2.0000      -0.328610        -8.9419
  66   2.0000      -0.284009        -7.7283
  67   0.0000       0.027691         0.7535
  68   0.0000       0.078108         2.1254
  69   0.0000       0.103298         2.8109
  70   0.0000       0.118415         3.2222
  71   0.0000       0.129027         3.5110

MULLIKEN ATOMIC CHARGES
-----------------------
   0 S :    0.115368
   1 C :   -0.111663
   2 C :   -0.068474
   3 C :    0.037914
   4 C :   -0.137714
   5 H :   -0.029522
   6 C :    0.054989
   7 H :    0.047606
   8 H :    0.016891
   9 C :   -0.095122
  10 H :    0.034155
  11 H :    0.035238
  12 C :   -0.053969
  13 H :    0.039871
  14 H :    0.029824
  15 H :    0.030743
  16 S :    0.129553
  17 C :   -0.086245
  18 C :   -0.052171
  19 C :   -0.019029
  20 C :   -0.147233
  21 H :    0.017605
  22 C :    0.034354
  23 H :    0.004587
  24 H :    0.036375
  25 C :   -0.076474
  26 H :    0.032645
  27 H :    0.006877
  28 C :    0.003126
  29 H :    0.029363
  30 H :    0.039639
  31 H :    0.019907
  32 H :    0.026587
  33 H :    0.054400
Sum of atomic charges:   -0.0000000

LOEWDIN ATOMIC CHARGES
----------------------
   0 S :    0.398558
   1 C :   -0.180186
   2 C :   -0.054801
   3 C :   -0.061861
   4 C :   -0.204299
   5 H :    0.016298
   6 C :   -0.037714
   7 H :    0.036566
   8 H :    0.031888
   9 C :   -0.038652
  10 H :    0.023852
  11 H :    0.029581
  12 C :   -0.067979
  13 H :    0.026724
  14 H :    0.020251
  15 H :    0.028519
  16 S :    0.451912
  17 C :   -0.208207
  18 C :   -0.061488
  19 C :   -0.061544
  20 C :   -0.215268
  21 H :    0.032028
  22 C :   -0.037997
  23 H :    0.020509
  24 H :    0.035153
  25 C :   -0.040275
  26 H :    0.025844
  27 H :    0.020360
  28 C :   -0.061921
  29 H :    0.028501
  30 H :    0.027752
  31 H :    0.026819
  32 H :    0.021063
  33 H :    0.030017

  Mayer bond orders larger than 0.100000
B(  0-S ,  1-C ) :   1.1002 B(  0-S ,  4-C ) :   1.1564 B(  1-C ,  2-C ) :   1.6479
B(  1-C , 32-H ) :   0.9677 B(  2-C ,  3-C ) :   1.2305 B(  2-C ,  6-C ) :   1.0161
B(  3-C ,  4-C ) :   1.5534 B(  3-C ,  5-H ) :   1.0047 B(  4-C , 20-C ) :   1.0525
B(  6-C ,  7-H ) :   0.9364 B(  6-C ,  8-H ) :   0.9444 B(  6-C ,  9-C ) :   1.0669
B(  9-C , 10-H ) :   0.9523 B(  9-C , 11-H ) :   0.9563 B(  9-C , 12-C ) :   1.0900
B( 12-C , 13-H ) :   0.9732 B( 12-C , 14-H ) :   0.9764 B( 12-C , 15-H ) :   0.9703
B( 16-S , 17-C ) :   1.1642 B( 16-S , 20-C ) :   1.1713 B( 17-C , 18-C ) :   1.6009
B( 17-C , 33-H ) :   0.9615 B( 18-C , 19-C ) :   1.2603 B( 18-C , 21-H ) :   0.9930
B( 19-C , 20-C ) :   1.5422 B( 19-C , 22-C ) :   1.0566 B( 22-C , 23-H ) :   0.9217
B( 22-C , 24-H ) :   0.9433 B( 22-C , 25-C ) :   1.0434 B( 25-C , 26-H ) :   0.9572
B( 25-C , 27-H ) :   0.9495 B( 25-C , 28-C ) :   1.0836 B( 28-C , 29-H ) :   0.9678
B( 28-C , 30-H ) :   0.9748 B( 28-C , 31-H ) :   0.9715

Dispersion correction           -0.013703222
FINAL SINGLE POINT ENERGY     -1339.860854541952

DIPOLE MOMENT
-------------
                                X             Y             Z
Electronic contribution:     -2.91311      19.18406      23.20202
Nuclear contribution   :      3.16938     -19.63028     -23.72887
                        -----------------------------------------
Total Dipole Moment    :      0.25627      -0.44622      -0.52684
                        -----------------------------------------
Magnitude (a.u.)       :      0.73645
Magnitude (Debye)      :      1.87190

Rotational constants in cm-1:     0.018005     0.008415     0.006220
Rotational constants in MHz :   539.772888   252.273687   186.481799

                             ****ORCA TERMINATED NORMALLY****
TOTAL RUN TIME: 0 days 0 hours 0 minutes 21 seconds 368 msec
