                         Program Version 4.2.1 -  RELEASE  -
|  1> ! wB97X-D3 SP def2-SVP
|  2> %pal
|  3> nprocs 24
|  4> end
|  5>
|  6> * xyz 0 1
|  7> S 	 -97.6585 	 42.1089 	 -87.7238
|  8> C 	 -97.0949 	 40.5529 	 -87.0886
|  9> C 	 -96.3779 	 39.8917 	 -88.0445
| 10> C 	 -96.0818 	 40.6788 	 -89.2153
| 11> C 	 -96.9119 	 41.8315 	 -89.2813
| 12> H 	 -95.4185 	 40.303 	 -90.0489
| 13> C 	 -95.7132 	 38.5542 	 -87.9869
| 14> H 	 -94.7064 	 38.7727 	 -88.2321
| 15> H 	 -96.1535 	 37.9197 	 -88.7451
| 16> C 	 -95.6591 	 37.7049 	 -86.6786
| 17> H 	 -95.2543 	 38.2414 	 -85.8298
| 18> H 	 -96.6676 	 37.5812 	 -86.3628
| 19> C 	 -94.865 	 36.3211 	 -86.6196
| 20> H 	 -93.8179 	 36.4947 	 -86.7426
| 21> H 	 -94.982 	 35.8075 	 -85.646
| 22> H 	 -95.144 	 35.684 	 -87.4415
| 23> S 	 -97.0578 	 44.4529 	 -90.1475
| 24> C 	 -97.4572 	 44.7788 	 -91.767
| 25> C 	 -97.4933 	 43.6192 	 -92.5015
| 26> C 	 -97.1568 	 42.4616 	 -91.7779
| 27> C 	 -96.895 	 42.7392 	 -90.3897
| 28> H 	 -97.715 	 43.6983 	 -93.5306
| 29> C 	 -97.2108 	 41.1338 	 -92.4896
| 30> H 	 -96.3307 	 40.6749 	 -92.0807
| 31> H 	 -97.1871 	 41.2061 	 -93.6014
| 32> C 	 -98.4234 	 40.2467 	 -91.9858
| 33> H 	 -98.1001 	 39.9237 	 -91.0143
| 34> H 	 -98.4858 	 39.3358 	 -92.6475
| 35> C 	 -99.7925 	 40.9287 	 -91.9204
| 36> H 	 -100.544 	 40.2281 	 -91.5652
| 37> H 	 -99.8855 	 41.2406 	 -92.9964
| 38> H 	 -99.8933 	 41.8116 	 -91.3829
| 39> H 	 -97.4639 	 40.0248 	 -86.2707
| 40> H 	 -97.6708 	 45.7554 	 -92.2346
| 41> *
| 42>
| 43>                          ****END OF INPUT****

CARTESIAN COORDINATES (ANGSTROEM)
---------------------------------
  S    -97.658500   42.108900  -87.723800
  C    -97.094900   40.552900  -87.088600
  C    -96.377900   39.891700  -88.044500
  C    -96.081800   40.678800  -89.215300
  C    -96.911900   41.831500  -89.281300
  H    -95.418500   40.303000  -90.048900
  C    -95.713200   38.554200  -87.986900
  H    -94.706400   38.772700  -88.232100
  H    -96.153500   37.919700  -88.745100
  C    -95.659100   37.704900  -86.678600
  H    -95.254300   38.241400  -85.829800
  H    -96.667600   37.581200  -86.362800
  C    -94.865000   36.321100  -86.619600
  H    -93.817900   36.494700  -86.742600
  H    -94.982000   35.807500  -85.646000
  H    -95.144000   35.684000  -87.441500
  S    -97.057800   44.452900  -90.147500
  C    -97.457200   44.778800  -91.767000
  C    -97.493300   43.619200  -92.501500
  C    -97.156800   42.461600  -91.777900
  C    -96.895000   42.739200  -90.389700
  H    -97.715000   43.698300  -93.530600
  C    -97.210800   41.133800  -92.489600
  H    -96.330700   40.674900  -92.080700
  H    -97.187100   41.206100  -93.601400
  C    -98.423400   40.246700  -91.985800
  H    -98.100100   39.923700  -91.014300
  H    -98.485800   39.335800  -92.647500
  C    -99.792500   40.928700  -91.920400
  H    -100.544000   40.228100  -91.565200
  H    -99.885500   41.240600  -92.996400
  H    -99.893300   41.811600  -91.382900
  H    -97.463900   40.024800  -86.270700
  H    -97.670800   45.755400  -92.234600

 Total Charge           Charge          ....    0
 Multiplicity           Mult            ....    1
 Number of Electrons    NEL             ....  134
 Basis Dimension        Dim             ....  322

ORBITAL ENERGIES
----------------

  NO   OCC          E(Eh)            E(eV)
   0   2.0000     -88.969869     -2420.9932
   1   2.0000     -88.968914     -2420.9672
   2   2.0000     -10.337009      -281.2843
   3   2.0000     -10.328587      -281.0551
   4   2.0000     -10.316432      -280.7244
   5   2.0000     -10.308591      -280.5110
   6   2.0000     -10.307169      -280.4723
   7   2.0000     -10.301392      -280.3151
   8   2.0000     -10.299878      -280.2739
   9   2.0000     -10.293326      -280.0956
  10   2.0000     -10.290989      -280.0320
  11   2.0000     -10.288141      -279.9545
  12   2.0000     -10.286159      -279.9006
  13   2.0000     -10.285685      -279.8877
  14   2.0000     -10.284273      -279.8493
  15   2.0000     -10.269585      -279.4496
  16   2.0000      -8.084457      -219.9893
  17   2.0000      -8.083836      -219.9724
  18   2.0000      -6.042791      -164.4327
  19   2.0000      -6.042626      -164.4282
  20   2.0000      -6.038628      -164.3194
  21   2.0000      -6.038417      -164.3137
  22   2.0000      -6.035576      -164.2364
  23   2.0000      -6.034368      -164.2035
  24   2.0000      -1.010618       -27.5003
  25   2.0000      -0.986776       -26.8515
  26   2.0000      -0.909104       -24.7380
  27   2.0000      -0.907026       -24.6814
  28   2.0000      -0.871115       -23.7043
  29   2.0000      -0.849772       -23.1235
  30   2.0000      -0.846823       -23.0432
  31   2.0000      -0.811921       -22.0935
  32   2.0000      -0.785933       -21.3863
  33   2.0000      -0.775826       -21.1113
  34   2.0000      -0.720926       -19.6174
  35   2.0000      -0.705315       -19.1926
  36   2.0000      -0.684771       -18.6336
  37   2.0000      -0.662749       -18.0343
  38   2.0000      -0.633076       -17.2269
  39   2.0000      -0.613188       -16.6857
  40   2.0000      -0.586427       -15.9575
  41   2.0000      -0.573763       -15.6129
  42   2.0000      -0.569637       -15.5006
  43   2.0000      -0.561007       -15.2658
  44   2.0000      -0.542142       -14.7524
  45   2.0000      -0.520371       -14.1600
  46   2.0000      -0.516064       -14.0428
  47   2.0000      -0.511616       -13.9218
  48   2.0000      -0.507620       -13.8130
  49   2.0000      -0.499792       -13.6000
  50   2.0000      -0.494535       -13.4570
  51   2.0000      -0.485858       -13.2209
  52   2.0000      -0.479020       -13.0348
  53   2.0000      -0.468788       -12.7564
  54   2.0000      -0.458488       -12.4761
  55   2.0000      -0.451454       -12.2847
  56   2.0000      -0.438807       -11.9405
  57   2.0000      -0.435282       -11.8446
  58   2.0000      -0.430601       -11.7172
  59   2.0000      -0.422288       -11.4910
  60   2.0000      -0.419795       -11.4232
  61   2.0000      -0.414083       -11.2678
  62   2.0000      -0.406479       -11.0609
  63   2.0000      -0.354499        -9.6464
  64   2.0000      -0.333376        -9.0716
  65   2.0000      -0.328549        -8.9403
  66   2.0000      -0.283136        -7.7045
  67   0.0000       0.017335         0.4717
  68   0.0000       0.077456         2.1077
  69   0.0000       0.111086         3.0228
  70   0.0000       0.120681         3.2839
  71   0.0000       0.134038         3.6473

MULLIKEN ATOMIC CHARGES
-----------------------
   0 S :    0.107729
   1 C :   -0.088201
   2 C :   -0.093560
   3 C :   -0.047334
   4 C :   -0.117717
   5 H :    0.048612
   6 C :    0.081252
   7 H :    0.028756
   8 H :    0.036852
   9 C :   -0.098599
  10 H :    0.022941
  11 H :    0.016653
  12 C :   -0.044670
  13 H :    0.027702
  14 H :    0.046065
  15 H :    0.029091
  16 S :    0.119975
  17 C :   -0.096589
  18 C :   -0.039399
  19 C :   -0.058790
  20 C :   -0.149069
  21 H :    0.002330
  22 C :    0.079899
  23 H :    0.013703
  24 H :    0.036677
  25 C :   -0.091037
  26 H :    0.027368
  27 H :    0.036127
  28 C :   -0.024805
  29 H :    0.042712
  30 H :    0.021072
  31 H :    0.030686
  32 H :    0.027590
  33 H :    0.065978
Sum of atomic charges:    0.0000000

LOEWDIN ATOMIC CHARGES
----------------------
   0 S :    0.398594
   1 C :   -0.196735
   2 C :   -0.056054
   3 C :   -0.073282
   4 C :   -0.186401
   5 H :    0.039942
   6 C :   -0.030879
   7 H :    0.030912
   8 H :    0.034726
   9 C :   -0.045172
  10 H :    0.022319
  11 H :    0.014218
  12 C :   -0.060047
  13 H :    0.021266
  14 H :    0.034912
  15 H :    0.020739
  16 S :    0.442003
  17 C :   -0.202927
  18 C :   -0.078234
  19 C :   -0.042172
  20 C :   -0.220186
  21 H :    0.025258
  22 C :   -0.032265
  23 H :    0.028577
  24 H :    0.033270
  25 C :   -0.037406
  26 H :    0.014389
  27 H :    0.028057
  28 C :   -0.062943
  29 H :    0.029975
  30 H :    0.030451
  31 H :    0.016079
  32 H :    0.019283
  33 H :    0.039733

  Mayer bond orders larger than 0.100000
B(  0-S ,  1-C ) :   1.0996 B(  0-S ,  4-C ) :   1.1510 B(  1-C ,  2-C ) :   1.6505
B(  1-C , 32-H ) :   0.9634 B(  2-C ,  3-C ) :   1.2370 B(  2-C ,  6-C ) :   1.0128
B(  3-C ,  4-C ) :   1.5353 B(  3-C ,  5-H ) :   0.9781 B(  4-C , 20-C ) :   1.1029
B(  6-C ,  7-H ) :   0.9418 B(  6-C ,  8-H ) :   0.9322 B(  6-C ,  9-C ) :   1.0684
B(  9-C , 10-H ) :   0.9573 B(  9-C , 11-H ) :   0.9537 B(  9-C , 12-C ) :   1.0769
B( 12-C , 13-H ) :   0.9778 B( 12-C , 14-H ) :   0.9748 B( 12-C , 15-H ) :   0.9787
B( 16-S , 17-C ) :   1.1886 B( 16-S , 20-C ) :   1.1507 B( 17-C , 18-C ) :   1.5535
B( 17-C , 33-H ) :   0.9625 B( 18-C , 19-C ) :   1.3103 B( 18-C , 21-H ) :   1.0006
B( 19-C , 20-C ) :   1.4882 B( 19-C , 22-C ) :   1.0305 B( 22-C , 23-H ) :   0.9314
B( 22-C , 24-H ) :   0.9425 B( 22-C , 25-C ) :   1.0610 B( 25-C , 26-H ) :   0.9522
B( 25-C , 27-H ) :   0.9586 B( 25-C , 28-C ) :   1.0747 B( 28-C , 29-H ) :   0.9737
B( 28-C , 30-H ) :   0.9772 B( 28-C , 31-H ) :   0.9719

Dispersion correction           -0.015157145
FINAL SINGLE POINT ENERGY     -1339.857770739298

DIPOLE MOMENT
-------------
                                X             Y             Z
Electronic contribution:     -1.32864      27.64979       2.92735
Nuclear contribution   :      1.36857     -28.17499      -3.30997
                        -----------------------------------------
Total Dipole Moment    :      0.03993      -0.52520      -0.38262
                        -----------------------------------------
Magnitude (a.u.)       :      0.65102
Magnitude (Debye)      :      1.65475

Rotational constants in cm-1:     0.023863     0.007660     0.006595
Rotational constants in MHz :   715.405870   229.651575   197.703757

                             ****ORCA TERMINATED NORMALLY****
TOTAL RUN TIME: 0 days 0 hours 0 minutes 22 seconds 235 msec
