                         Program Version 4.2.1 -  RELEASE  -
|  1> ! wB97X-D3 SP def2-SVP
|  2> %pal
|  3> nprocs 24
|  4> end
|  5>
|  6> * xyz 0 1
|  7> S 	 36.4873 	 -26.6433 	 -115.395
|  8> C 	 37.7276 	 -26.7357 	 -116.621
|  9> C 	 38.9825 	 -26.2841 	 -116.167
| 10> C 	 38.8986 	 -25.7381 	 -114.895
| 11> C 	 37.6101 	 -25.743 	 -114.406
| 12> H 	 39.6676 	 -25.2102 	 -114.352
| 13> C 	 40.2253 	 -26.1285 	 -117.002
| 14> H 	 40.8803 	 -25.5004 	 -116.42
| 15> H 	 39.9603 	 -25.6134 	 -117.919
| 16> C 	 40.8125 	 -27.5142 	 -117.363
| 17> H 	 39.9887 	 -28.0346 	 -117.933
| 18> H 	 41.8076 	 -27.4353 	 -117.846
| 19> C 	 41.0592 	 -28.4453 	 -116.2
| 20> H 	 40.2388 	 -28.7149 	 -115.588
| 21> H 	 41.3039 	 -29.4082 	 -116.601
| 22> H 	 41.9089 	 -27.9813 	 -115.633
| 23> S 	 35.7479 	 -23.9274 	 -113.662
| 24> C 	 35.6588 	 -23.497 	 -111.944
| 25> C 	 36.5314 	 -24.2038 	 -111.144
| 26> C 	 37.3257 	 -25.1674 	 -111.847
| 27> C 	 37.0813 	 -24.9975 	 -113.232
| 28> H 	 36.5178 	 -23.952 	 -110.156
| 29> C 	 38.2965 	 -26.0802 	 -111.2
| 30> H 	 39.0431 	 -25.4616 	 -110.769
| 31> H 	 38.8998 	 -26.472 	 -111.975
| 32> C 	 37.6349 	 -27.2209 	 -110.425
| 33> H 	 37.0259 	 -26.876 	 -109.643
| 34> H 	 38.4138 	 -27.8444 	 -109.901
| 35> C 	 36.7369 	 -28.2069 	 -111.304
| 36> H 	 37.3196 	 -28.4419 	 -112.15
| 37> H 	 35.9091 	 -27.5111 	 -111.715
| 38> H 	 36.4123 	 -29.1617 	 -110.821
| 39> H 	 37.6403 	 -27.1302 	 -117.641
| 40> H 	 34.9447 	 -22.7927 	 -111.512
| 41> *
| 42>
| 43>                          ****END OF INPUT****

CARTESIAN COORDINATES (ANGSTROEM)
---------------------------------
  S     36.487300  -26.643300  -115.395000
  C     37.727600  -26.735700  -116.621000
  C     38.982500  -26.284100  -116.167000
  C     38.898600  -25.738100  -114.895000
  C     37.610100  -25.743000  -114.406000
  H     39.667600  -25.210200  -114.352000
  C     40.225300  -26.128500  -117.002000
  H     40.880300  -25.500400  -116.420000
  H     39.960300  -25.613400  -117.919000
  C     40.812500  -27.514200  -117.363000
  H     39.988700  -28.034600  -117.933000
  H     41.807600  -27.435300  -117.846000
  C     41.059200  -28.445300  -116.200000
  H     40.238800  -28.714900  -115.588000
  H     41.303900  -29.408200  -116.601000
  H     41.908900  -27.981300  -115.633000
  S     35.747900  -23.927400  -113.662000
  C     35.658800  -23.497000  -111.944000
  C     36.531400  -24.203800  -111.144000
  C     37.325700  -25.167400  -111.847000
  C     37.081300  -24.997500  -113.232000
  H     36.517800  -23.952000  -110.156000
  C     38.296500  -26.080200  -111.200000
  H     39.043100  -25.461600  -110.769000
  H     38.899800  -26.472000  -111.975000
  C     37.634900  -27.220900  -110.425000
  H     37.025900  -26.876000  -109.643000
  H     38.413800  -27.844400  -109.901000
  C     36.736900  -28.206900  -111.304000
  H     37.319600  -28.441900  -112.150000
  H     35.909100  -27.511100  -111.715000
  H     36.412300  -29.161700  -110.821000
  H     37.640300  -27.130200  -117.641000
  H     34.944700  -22.792700  -111.512000

 Total Charge           Charge          ....    0
 Multiplicity           Mult            ....    1
 Number of Electrons    NEL             ....  134
 Basis Dimension        Dim             ....  322

ORBITAL ENERGIES
----------------

  NO   OCC          E(Eh)            E(eV)
   0   2.0000     -88.970349     -2421.0063
   1   2.0000     -88.967771     -2420.9361
   2   2.0000     -10.327822      -281.0343
   3   2.0000     -10.325027      -280.9583
   4   2.0000     -10.315898      -280.7099
   5   2.0000     -10.311961      -280.6027
   6   2.0000     -10.305921      -280.4384
   7   2.0000     -10.295399      -280.1520
   8   2.0000     -10.290691      -280.0239
   9   2.0000     -10.289353      -279.9875
  10   2.0000     -10.288840      -279.9736
  11   2.0000     -10.287915      -279.9484
  12   2.0000     -10.286400      -279.9072
  13   2.0000     -10.285798      -279.8908
  14   2.0000     -10.281645      -279.7778
  15   2.0000     -10.269285      -279.4415
  16   2.0000      -8.084752      -219.9973
  17   2.0000      -8.081836      -219.9180
  18   2.0000      -6.043068      -164.4403
  19   2.0000      -6.040191      -164.3619
  20   2.0000      -6.039363      -164.3394
  21   2.0000      -6.036658      -164.2658
  22   2.0000      -6.035690      -164.2395
  23   2.0000      -6.032563      -164.1544
  24   2.0000      -1.005357       -27.3572
  25   2.0000      -0.981290       -26.7023
  26   2.0000      -0.914514       -24.8852
  27   2.0000      -0.909404       -24.7461
  28   2.0000      -0.862762       -23.4769
  29   2.0000      -0.853107       -23.2142
  30   2.0000      -0.842470       -22.9248
  31   2.0000      -0.813257       -22.1299
  32   2.0000      -0.786002       -21.3882
  33   2.0000      -0.768782       -20.9196
  34   2.0000      -0.705253       -19.1909
  35   2.0000      -0.698407       -19.0046
  36   2.0000      -0.688763       -18.7422
  37   2.0000      -0.658665       -17.9232
  38   2.0000      -0.637159       -17.3380
  39   2.0000      -0.615723       -16.7547
  40   2.0000      -0.597220       -16.2512
  41   2.0000      -0.580274       -15.7901
  42   2.0000      -0.556694       -15.1484
  43   2.0000      -0.551026       -14.9942
  44   2.0000      -0.545352       -14.8398
  45   2.0000      -0.530794       -14.4436
  46   2.0000      -0.515122       -14.0172
  47   2.0000      -0.508777       -13.8445
  48   2.0000      -0.496381       -13.5072
  49   2.0000      -0.488088       -13.2816
  50   2.0000      -0.483575       -13.1588
  51   2.0000      -0.473460       -12.8835
  52   2.0000      -0.471327       -12.8255
  53   2.0000      -0.461064       -12.5462
  54   2.0000      -0.456042       -12.4095
  55   2.0000      -0.453184       -12.3318
  56   2.0000      -0.450133       -12.2487
  57   2.0000      -0.439142       -11.9497
  58   2.0000      -0.436799       -11.8859
  59   2.0000      -0.421532       -11.4705
  60   2.0000      -0.418977       -11.4009
  61   2.0000      -0.410916       -11.1816
  62   2.0000      -0.409942       -11.1551
  63   2.0000      -0.344267        -9.3680
  64   2.0000      -0.330998        -9.0069
  65   2.0000      -0.326724        -8.8906
  66   2.0000      -0.289501        -7.8777
  67   0.0000       0.030898         0.8408
  68   0.0000       0.062235         1.6935
  69   0.0000       0.108542         2.9536
  70   0.0000       0.119869         3.2618
  71   0.0000       0.128992         3.5100

MULLIKEN ATOMIC CHARGES
-----------------------
   0 S :    0.136255
   1 C :   -0.134759
   2 C :   -0.113573
   3 C :    0.047129
   4 C :   -0.181403
   5 H :    0.009234
   6 C :    0.116447
   7 H :    0.009814
   8 H :    0.039204
   9 C :   -0.106122
  10 H :    0.030217
  11 H :    0.042381
  12 C :   -0.042670
  13 H :    0.033575
  14 H :    0.021771
  15 H :    0.032374
  16 S :    0.112387
  17 C :   -0.095555
  18 C :   -0.000277
  19 C :   -0.064510
  20 C :   -0.181669
  21 H :   -0.020374
  22 C :    0.156264
  23 H :    0.024082
  24 H :   -0.009030
  25 C :   -0.073919
  26 H :    0.022679
  27 H :    0.032692
  28 C :   -0.078294
  29 H :    0.022188
  30 H :    0.055966
  31 H :    0.056170
  32 H :    0.047285
  33 H :    0.054040
Sum of atomic charges:    0.0000000

LOEWDIN ATOMIC CHARGES
----------------------
   0 S :    0.416608
   1 C :   -0.213334
   2 C :   -0.060707
   3 C :   -0.065662
   4 C :   -0.196061
   5 H :    0.032189
   6 C :   -0.027938
   7 H :    0.023891
   8 H :    0.035259
   9 C :   -0.043523
  10 H :    0.027778
  11 H :    0.029147
  12 C :   -0.067977
  13 H :    0.019934
  14 H :    0.024547
  15 H :    0.027932
  16 S :    0.393542
  17 C :   -0.178180
  18 C :   -0.059180
  19 C :   -0.048348
  20 C :   -0.196768
  21 H :    0.016043
  22 C :   -0.033981
  23 H :    0.035419
  24 H :    0.027978
  25 C :   -0.034601
  26 H :    0.012714
  27 H :    0.027753
  28 C :   -0.069189
  29 H :    0.015007
  30 H :    0.039118
  31 H :    0.033922
  32 H :    0.027566
  33 H :    0.029104

  Mayer bond orders larger than 0.100000
B(  0-S ,  1-C ) :   1.1398 B(  0-S ,  4-C ) :   1.1694 B(  1-C ,  2-C ) :   1.5870
B(  1-C ,  4-C ) :   0.1017 B(  1-C , 32-H ) :   0.9618 B(  2-C ,  3-C ) :   1.2639
B(  2-C ,  6-C ) :   1.0101 B(  3-C ,  4-C ) :   1.5714 B(  3-C ,  5-H ) :   0.9916
B(  4-C , 20-C ) :   1.0117 B(  6-C ,  7-H ) :   0.9423 B(  6-C ,  8-H ) :   0.9434
B(  6-C ,  9-C ) :   1.0584 B(  9-C , 10-H ) :   0.9572 B(  9-C , 11-H ) :   0.9588
B(  9-C , 12-C ) :   1.0851 B( 12-C , 13-H ) :   0.9675 B( 12-C , 14-H ) :   0.9703
B( 12-C , 15-H ) :   0.9776 B( 16-S , 17-C ) :   1.1312 B( 16-S , 20-C ) :   1.1521
B( 17-C , 18-C ) :   1.6479 B( 17-C , 33-H ) :   0.9636 B( 18-C , 19-C ) :   1.1983
B( 18-C , 21-H ) :   1.0032 B( 19-C , 20-C ) :   1.5812 B( 19-C , 22-C ) :   1.0434
B( 22-C , 23-H ) :   0.9271 B( 22-C , 24-H ) :   0.9139 B( 22-C , 25-C ) :   1.0507
B( 25-C , 26-H ) :   0.9664 B( 25-C , 27-H ) :   0.9569 B( 25-C , 28-C ) :   1.0570
B( 28-C , 29-H ) :   0.9781 B( 28-C , 30-H ) :   0.9726 B( 28-C , 31-H ) :   0.9761

Dispersion correction           -0.015493088
FINAL SINGLE POINT ENERGY     -1339.857084866760

DIPOLE MOMENT
-------------
                                X             Y             Z
Electronic contribution:    -17.77131      15.00655      -3.29536
Nuclear contribution   :     18.22075     -15.06492       3.47304
                        -----------------------------------------
Total Dipole Moment    :      0.44944      -0.05837       0.17768
                        -----------------------------------------
Magnitude (a.u.)       :      0.48680
Magnitude (Debye)      :      1.23734

Rotational constants in cm-1:     0.021324     0.008762     0.007418
Rotational constants in MHz :   639.269400   262.665143   222.387587

                             ****ORCA TERMINATED NORMALLY****
TOTAL RUN TIME: 0 days 0 hours 0 minutes 22 seconds 262 msec
