                         Program Version 4.2.1 -  RELEASE  -
|  1> ! wB97X-D3 SP def2-SVP
|  2> %pal
|  3> nprocs 24
|  4> end
|  5>
|  6> * xyz 0 1
|  7> S 	 -62.515 	 14.7341 	 -91.9702
|  8> C 	 -62.3817 	 15.4447 	 -93.5775
|  9> C 	 -61.7856 	 16.6694 	 -93.5071
| 10> C 	 -61.7513 	 17.1734 	 -92.1588
| 11> C 	 -62.0953 	 16.232 	 -91.201
| 12> H 	 -61.3372 	 18.1189 	 -91.8465
| 13> C 	 -61.3796 	 17.5051 	 -94.7157
| 14> H 	 -60.9146 	 16.8761 	 -95.4763
| 15> H 	 -60.5976 	 18.0851 	 -94.1985
| 16> C 	 -62.2882 	 18.5858 	 -95.2175
| 17> H 	 -61.7947 	 19.5112 	 -95.4712
| 18> H 	 -62.7716 	 18.2956 	 -96.123
| 19> C 	 -63.5145 	 19.0485 	 -94.3322
| 20> H 	 -64.3747 	 18.2314 	 -94.2564
| 21> H 	 -63.1179 	 19.2986 	 -93.3785
| 22> H 	 -63.8987 	 19.9424 	 -94.7521
| 23> S 	 -63.3589 	 16.8424 	 -88.8979
| 24> C 	 -62.5225 	 16.4536 	 -87.3988
| 25> C 	 -61.1951 	 16.0659 	 -87.5893
| 26> C 	 -60.8386 	 16.057 	 -88.9671
| 27> C 	 -61.933 	 16.3686 	 -89.7848
| 28> H 	 -60.5982 	 15.8416 	 -86.7559
| 29> C 	 -59.5305 	 15.4669 	 -89.4616
| 30> H 	 -59.4422 	 15.3972 	 -90.579
| 31> H 	 -59.5029 	 14.4491 	 -89.0055
| 32> C 	 -58.271 	 16.1385 	 -88.93
| 33> H 	 -58.2689 	 15.8697 	 -87.8618
| 34> H 	 -58.2735 	 17.1891 	 -89.0694
| 35> C 	 -57.0129 	 15.3909 	 -89.4976
| 36> H 	 -57.0256 	 14.4006 	 -89.0081
| 37> H 	 -56.0765 	 15.9336 	 -89.228
| 38> H 	 -57.0456 	 15.3935 	 -90.575
| 39> H 	 -62.6386 	 15.0446 	 -94.517
| 40> H 	 -63.0427 	 16.3362 	 -86.4465
| 41> *
| 42>
| 43>                          ****END OF INPUT****

CARTESIAN COORDINATES (ANGSTROEM)
---------------------------------
  S    -62.515000   14.734100  -91.970200
  C    -62.381700   15.444700  -93.577500
  C    -61.785600   16.669400  -93.507100
  C    -61.751300   17.173400  -92.158800
  C    -62.095300   16.232000  -91.201000
  H    -61.337200   18.118900  -91.846500
  C    -61.379600   17.505100  -94.715700
  H    -60.914600   16.876100  -95.476300
  H    -60.597600   18.085100  -94.198500
  C    -62.288200   18.585800  -95.217500
  H    -61.794700   19.511200  -95.471200
  H    -62.771600   18.295600  -96.123000
  C    -63.514500   19.048500  -94.332200
  H    -64.374700   18.231400  -94.256400
  H    -63.117900   19.298600  -93.378500
  H    -63.898700   19.942400  -94.752100
  S    -63.358900   16.842400  -88.897900
  C    -62.522500   16.453600  -87.398800
  C    -61.195100   16.065900  -87.589300
  C    -60.838600   16.057000  -88.967100
  C    -61.933000   16.368600  -89.784800
  H    -60.598200   15.841600  -86.755900
  C    -59.530500   15.466900  -89.461600
  H    -59.442200   15.397200  -90.579000
  H    -59.502900   14.449100  -89.005500
  C    -58.271000   16.138500  -88.930000
  H    -58.268900   15.869700  -87.861800
  H    -58.273500   17.189100  -89.069400
  C    -57.012900   15.390900  -89.497600
  H    -57.025600   14.400600  -89.008100
  H    -56.076500   15.933600  -89.228000
  H    -57.045600   15.393500  -90.575000
  H    -62.638600   15.044600  -94.517000
  H    -63.042700   16.336200  -86.446500

 Total Charge           Charge          ....    0
 Multiplicity           Mult            ....    1
 Number of Electrons    NEL             ....  134
 Basis Dimension        Dim             ....  322

ORBITAL ENERGIES
----------------

  NO   OCC          E(Eh)            E(eV)
   0   2.0000     -88.966187     -2420.8930
   1   2.0000     -88.963663     -2420.8243
   2   2.0000     -10.322467      -280.8886
   3   2.0000     -10.320819      -280.8438
   4   2.0000     -10.319310      -280.8027
   5   2.0000     -10.307348      -280.4772
   6   2.0000     -10.305503      -280.4270
   7   2.0000     -10.297619      -280.2125
   8   2.0000     -10.293745      -280.1070
   9   2.0000     -10.293299      -280.0949
  10   2.0000     -10.291769      -280.0533
  11   2.0000     -10.291363      -280.0422
  12   2.0000     -10.283796      -279.8363
  13   2.0000     -10.283193      -279.8199
  14   2.0000     -10.281212      -279.7660
  15   2.0000     -10.279698      -279.7248
  16   2.0000      -8.080935      -219.8934
  17   2.0000      -8.078260      -219.8206
  18   2.0000      -6.039326      -164.3384
  19   2.0000      -6.036886      -164.2720
  20   2.0000      -6.035476      -164.2337
  21   2.0000      -6.032747      -164.1594
  22   2.0000      -6.031792      -164.1334
  23   2.0000      -6.028937      -164.0557
  24   2.0000      -1.006214       -27.3805
  25   2.0000      -0.982205       -26.7271
  26   2.0000      -0.911607       -24.8061
  27   2.0000      -0.909608       -24.7517
  28   2.0000      -0.869390       -23.6573
  29   2.0000      -0.849532       -23.1169
  30   2.0000      -0.840620       -22.8744
  31   2.0000      -0.811970       -22.0948
  32   2.0000      -0.784242       -21.3403
  33   2.0000      -0.769034       -20.9265
  34   2.0000      -0.704748       -19.1772
  35   2.0000      -0.698893       -19.0178
  36   2.0000      -0.692104       -18.8331
  37   2.0000      -0.660922       -17.9846
  38   2.0000      -0.638563       -17.3762
  39   2.0000      -0.611862       -16.6496
  40   2.0000      -0.593831       -16.1590
  41   2.0000      -0.578702       -15.7473
  42   2.0000      -0.564919       -15.3722
  43   2.0000      -0.556997       -15.1567
  44   2.0000      -0.547355       -14.8943
  45   2.0000      -0.522407       -14.2154
  46   2.0000      -0.512829       -13.9548
  47   2.0000      -0.507549       -13.8111
  48   2.0000      -0.505115       -13.7449
  49   2.0000      -0.495426       -13.4812
  50   2.0000      -0.485805       -13.2194
  51   2.0000      -0.474557       -12.9134
  52   2.0000      -0.465521       -12.6675
  53   2.0000      -0.462392       -12.5823
  54   2.0000      -0.459838       -12.5128
  55   2.0000      -0.451009       -12.2726
  56   2.0000      -0.447944       -12.1892
  57   2.0000      -0.439524       -11.9601
  58   2.0000      -0.434625       -11.8267
  59   2.0000      -0.421032       -11.4569
  60   2.0000      -0.419268       -11.4089
  61   2.0000      -0.413480       -11.2514
  62   2.0000      -0.400598       -10.9008
  63   2.0000      -0.335899        -9.1403
  64   2.0000      -0.328000        -8.9253
  65   2.0000      -0.317134        -8.6297
  66   2.0000      -0.307739        -8.3740
  67   0.0000       0.042748         1.1632
  68   0.0000       0.054431         1.4811
  69   0.0000       0.108675         2.9572
  70   0.0000       0.117946         3.2095
  71   0.0000       0.121153         3.2967

MULLIKEN ATOMIC CHARGES
-----------------------
   0 S :    0.121039
   1 C :   -0.087022
   2 C :   -0.135086
   3 C :    0.049128
   4 C :   -0.168636
   5 H :    0.009004
   6 C :    0.109231
   7 H :    0.036904
   8 H :    0.019278
   9 C :   -0.083479
  10 H :    0.024625
  11 H :    0.016152
  12 C :   -0.045496
  13 H :    0.057494
  14 H :    0.015531
  15 H :    0.025046
  16 S :    0.122462
  17 C :   -0.100773
  18 C :   -0.030241
  19 C :    0.040519
  20 C :   -0.215191
  21 H :    0.006193
  22 C :    0.025345
  23 H :    0.042097
  24 H :    0.036710
  25 C :   -0.101934
  26 H :    0.027222
  27 H :    0.032757
  28 C :   -0.046327
  29 H :    0.039391
  30 H :    0.039348
  31 H :    0.033070
  32 H :    0.022132
  33 H :    0.063506
Sum of atomic charges:   -0.0000000

LOEWDIN ATOMIC CHARGES
----------------------
   0 S :    0.407529
   1 C :   -0.187228
   2 C :   -0.063658
   3 C :   -0.059582
   4 C :   -0.208957
   5 H :    0.027208
   6 C :   -0.037694
   7 H :    0.034353
   8 H :    0.039943
   9 C :   -0.043955
  10 H :    0.024204
  11 H :    0.018067
  12 C :   -0.060758
  13 H :    0.040867
  14 H :    0.014115
  15 H :    0.019183
  16 S :    0.412477
  17 C :   -0.179769
  18 C :   -0.064378
  19 C :   -0.048086
  20 C :   -0.212278
  21 H :    0.024404
  22 C :   -0.036021
  23 H :    0.032785
  24 H :    0.038301
  25 C :   -0.039135
  26 H :    0.023492
  27 H :    0.016215
  28 C :   -0.062741
  29 H :    0.030156
  30 H :    0.029541
  31 H :    0.020397
  32 H :    0.021085
  33 H :    0.029917

  Mayer bond orders larger than 0.100000
B(  0-S ,  1-C ) :   1.1283 B(  0-S ,  4-C ) :   1.1448 B(  1-C ,  2-C ) :   1.6235
B(  1-C , 32-H ) :   0.9751 B(  2-C ,  3-C ) :   1.2257 B(  2-C ,  6-C ) :   1.0303
B(  3-C ,  4-C ) :   1.5960 B(  3-C ,  5-H ) :   0.9859 B(  4-C , 20-C ) :   1.0230
B(  6-C ,  7-H ) :   0.9477 B(  6-C ,  8-H ) :   0.9253 B(  6-C ,  9-C ) :   1.0504
B(  9-C , 10-H ) :   0.9575 B(  9-C , 11-H ) :   0.9560 B(  9-C , 12-C ) :   1.0989
B( 12-C , 13-H ) :   0.9706 B( 12-C , 14-H ) :   0.9719 B( 12-C , 15-H ) :   0.9724
B( 16-S , 17-C ) :   1.1592 B( 16-S , 20-C ) :   1.1535 B( 17-C , 18-C ) :   1.6160
B( 17-C , 20-C ) :   0.1004 B( 17-C , 33-H ) :   0.9644 B( 18-C , 19-C ) :   1.2220
B( 18-C , 21-H ) :   0.9978 B( 19-C , 20-C ) :   1.5925 B( 19-C , 22-C ) :   1.0428
B( 22-C , 23-H ) :   0.9405 B( 22-C , 24-H ) :   0.9393 B( 22-C , 25-C ) :   1.0488
B( 25-C , 26-H ) :   0.9583 B( 25-C , 27-H ) :   0.9641 B( 25-C , 28-C ) :   1.0766
B( 28-C , 29-H ) :   0.9756 B( 28-C , 30-H ) :   0.9753 B( 28-C , 31-H ) :   0.9772

Dispersion correction           -0.014441198
FINAL SINGLE POINT ENERGY     -1339.860942395658

DIPOLE MOMENT
-------------
                                X             Y             Z
Electronic contribution:    -16.32425      -7.96480       9.66459
Nuclear contribution   :     16.81190       8.09625      -9.76546
                        -----------------------------------------
Total Dipole Moment    :      0.48765       0.13145      -0.10087
                        -----------------------------------------
Magnitude (a.u.)       :      0.51503
Magnitude (Debye)      :      1.30911

Rotational constants in cm-1:     0.018156     0.008575     0.007080
Rotational constants in MHz :   544.299680   257.071258   212.265554

                             ****ORCA TERMINATED NORMALLY****
TOTAL RUN TIME: 0 days 0 hours 0 minutes 21 seconds 578 msec
