                         Program Version 4.2.1 -  RELEASE  -
|  1> ! wB97X-D3 SP def2-SVP
|  2> %pal
|  3> nprocs 24
|  4> end
|  5>
|  6> * xyz 0 1
|  7> S 	 -67.5057 	 1.63141 	 -72.818
|  8> C 	 -67.8855 	 3.00495 	 -73.7944
|  9> C 	 -68.2559 	 2.60655 	 -75.0568
| 10> C 	 -67.8739 	 1.21791 	 -75.371
| 11> C 	 -67.3648 	 0.605775 	 -74.2748
| 12> H 	 -67.9889 	 0.604181 	 -76.2678
| 13> C 	 -69.0602 	 3.56369 	 -75.9546
| 14> H 	 -68.2797 	 3.91788 	 -76.5743
| 15> H 	 -69.3756 	 4.37022 	 -75.2278
| 16> C 	 -70.3018 	 2.89568 	 -76.6786
| 17> H 	 -69.9785 	 2.32881 	 -77.5239
| 18> H 	 -70.8399 	 2.18854 	 -75.9664
| 19> C 	 -71.2364 	 3.95568 	 -77.2369
| 20> H 	 -70.9501 	 4.34232 	 -78.1988
| 21> H 	 -72.1623 	 3.52225 	 -77.631
| 22> H 	 -71.6971 	 4.69306 	 -76.6383
| 23> S 	 -65.8932 	 -1.6657 	 -74.7838
| 24> C 	 -66.6192 	 -3.22282 	 -74.3996
| 25> C 	 -67.6829 	 -3.11113 	 -73.5443
| 26> C 	 -68.0653 	 -1.73634 	 -73.3938
| 27> C 	 -67.2447 	 -0.832076 	 -74.0293
| 28> H 	 -68.1183 	 -4.0704 	 -73.2169
| 29> C 	 -69.3599 	 -1.30526 	 -72.705
| 30> H 	 -70.2077 	 -1.50268 	 -73.4215
| 31> H 	 -69.2945 	 -0.200475 	 -72.5828
| 32> C 	 -69.674 	 -1.92425 	 -71.3721
| 33> H 	 -70.1104 	 -1.13664 	 -70.7102
| 34> H 	 -68.8437 	 -2.14936 	 -70.7859
| 35> C 	 -70.6368 	 -3.09065 	 -71.4093
| 36> H 	 -70.9558 	 -3.45185 	 -70.4081
| 37> H 	 -70.2472 	 -3.85381 	 -72.1022
| 38> H 	 -71.6427 	 -2.82071 	 -71.759
| 39> H 	 -68.0802 	 4.00041 	 -73.4196
| 40> H 	 -66.1605 	 -4.16049 	 -74.6576
| 41> *
| 42>
| 43>                          ****END OF INPUT****

CARTESIAN COORDINATES (ANGSTROEM)
---------------------------------
  S    -67.505700    1.631410  -72.818000
  C    -67.885500    3.004950  -73.794400
  C    -68.255900    2.606550  -75.056800
  C    -67.873900    1.217910  -75.371000
  C    -67.364800    0.605775  -74.274800
  H    -67.988900    0.604181  -76.267800
  C    -69.060200    3.563690  -75.954600
  H    -68.279700    3.917880  -76.574300
  H    -69.375600    4.370220  -75.227800
  C    -70.301800    2.895680  -76.678600
  H    -69.978500    2.328810  -77.523900
  H    -70.839900    2.188540  -75.966400
  C    -71.236400    3.955680  -77.236900
  H    -70.950100    4.342320  -78.198800
  H    -72.162300    3.522250  -77.631000
  H    -71.697100    4.693060  -76.638300
  S    -65.893200   -1.665700  -74.783800
  C    -66.619200   -3.222820  -74.399600
  C    -67.682900   -3.111130  -73.544300
  C    -68.065300   -1.736340  -73.393800
  C    -67.244700   -0.832076  -74.029300
  H    -68.118300   -4.070400  -73.216900
  C    -69.359900   -1.305260  -72.705000
  H    -70.207700   -1.502680  -73.421500
  H    -69.294500   -0.200475  -72.582800
  C    -69.674000   -1.924250  -71.372100
  H    -70.110400   -1.136640  -70.710200
  H    -68.843700   -2.149360  -70.785900
  C    -70.636800   -3.090650  -71.409300
  H    -70.955800   -3.451850  -70.408100
  H    -70.247200   -3.853810  -72.102200
  H    -71.642700   -2.820710  -71.759000
  H    -68.080200    4.000410  -73.419600
  H    -66.160500   -4.160490  -74.657600

 Total Charge           Charge          ....    0
 Multiplicity           Mult            ....    1
 Number of Electrons    NEL             ....  134
 Basis Dimension        Dim             ....  322

ORBITAL ENERGIES
----------------

  NO   OCC          E(Eh)            E(eV)
   0   2.0000     -88.961859     -2420.7752
   1   2.0000     -88.960956     -2420.7507
   2   2.0000     -10.328748      -281.0595
   3   2.0000     -10.322687      -280.8946
   4   2.0000     -10.314328      -280.6671
   5   2.0000     -10.310764      -280.5702
   6   2.0000     -10.305529      -280.4277
   7   2.0000     -10.302725      -280.3514
   8   2.0000     -10.302426      -280.3433
   9   2.0000     -10.300036      -280.2782
  10   2.0000     -10.297049      -280.1969
  11   2.0000     -10.295752      -280.1617
  12   2.0000     -10.288253      -279.9576
  13   2.0000     -10.278992      -279.7056
  14   2.0000     -10.276789      -279.6457
  15   2.0000     -10.274225      -279.5759
  16   2.0000      -8.076307      -219.7675
  17   2.0000      -8.075675      -219.7503
  18   2.0000      -6.034896      -164.2179
  19   2.0000      -6.034189      -164.1986
  20   2.0000      -6.031065      -164.1136
  21   2.0000      -6.030232      -164.0910
  22   2.0000      -6.026757      -163.9964
  23   2.0000      -6.026394      -163.9865
  24   2.0000      -1.005982       -27.3742
  25   2.0000      -0.983002       -26.7488
  26   2.0000      -0.908213       -24.7137
  27   2.0000      -0.905707       -24.6455
  28   2.0000      -0.873625       -23.7725
  29   2.0000      -0.849071       -23.1044
  30   2.0000      -0.843972       -22.9656
  31   2.0000      -0.823361       -22.4048
  32   2.0000      -0.780009       -21.2251
  33   2.0000      -0.768510       -20.9122
  34   2.0000      -0.714892       -19.4532
  35   2.0000      -0.699232       -19.0271
  36   2.0000      -0.688722       -18.7411
  37   2.0000      -0.659993       -17.9593
  38   2.0000      -0.642747       -17.4900
  39   2.0000      -0.612551       -16.6683
  40   2.0000      -0.593318       -16.1450
  41   2.0000      -0.572735       -15.5849
  42   2.0000      -0.561083       -15.2678
  43   2.0000      -0.555343       -15.1116
  44   2.0000      -0.528599       -14.3839
  45   2.0000      -0.519896       -14.1471
  46   2.0000      -0.516175       -14.0458
  47   2.0000      -0.513694       -13.9783
  48   2.0000      -0.512638       -13.9496
  49   2.0000      -0.502701       -13.6792
  50   2.0000      -0.494312       -13.4509
  51   2.0000      -0.476653       -12.9704
  52   2.0000      -0.472501       -12.8574
  53   2.0000      -0.461365       -12.5544
  54   2.0000      -0.456756       -12.4290
  55   2.0000      -0.447273       -12.1709
  56   2.0000      -0.444546       -12.0967
  57   2.0000      -0.435822       -11.8593
  58   2.0000      -0.434322       -11.8185
  59   2.0000      -0.424170       -11.5422
  60   2.0000      -0.419539       -11.4162
  61   2.0000      -0.410666       -11.1748
  62   2.0000      -0.398665       -10.8482
  63   2.0000      -0.344948        -9.3865
  64   2.0000      -0.330811        -9.0018
  65   2.0000      -0.319494        -8.6939
  66   2.0000      -0.298247        -8.1157
  67   0.0000       0.037987         1.0337
  68   0.0000       0.064381         1.7519
  69   0.0000       0.102189         2.7807
  70   0.0000       0.117741         3.2039
  71   0.0000       0.134822         3.6687

MULLIKEN ATOMIC CHARGES
-----------------------
   0 S :    0.084189
   1 C :   -0.089997
   2 C :   -0.148063
   3 C :    0.062312
   4 C :   -0.151585
   5 H :    0.028032
   6 C :    0.074311
   7 H :    0.040817
   8 H :    0.028739
   9 C :   -0.065869
  10 H :    0.031369
  11 H :    0.052146
  12 C :   -0.033343
  13 H :    0.020812
  14 H :    0.007011
  15 H :    0.027283
  16 S :    0.095566
  17 C :   -0.099245
  18 C :   -0.041720
  19 C :   -0.017562
  20 C :   -0.181531
  21 H :    0.036807
  22 C :    0.049782
  23 H :    0.044092
  24 H :    0.027346
  25 C :   -0.042420
  26 H :    0.020607
  27 H :    0.013862
  28 C :   -0.053733
  29 H :    0.031433
  30 H :    0.031458
  31 H :    0.020177
  32 H :    0.047356
  33 H :    0.049561
Sum of atomic charges:   -0.0000000

LOEWDIN ATOMIC CHARGES
----------------------
   0 S :    0.401394
   1 C :   -0.204723
   2 C :   -0.060508
   3 C :   -0.053559
   4 C :   -0.179791
   5 H :    0.040643
   6 C :   -0.029693
   7 H :    0.029326
   8 H :    0.035217
   9 C :   -0.035461
  10 H :    0.025476
  11 H :    0.035493
  12 C :   -0.077495
  13 H :    0.026787
  14 H :    0.031316
  15 H :    0.020424
  16 S :    0.389993
  17 C :   -0.173241
  18 C :   -0.077785
  19 C :   -0.056750
  20 C :   -0.205820
  21 H :    0.040735
  22 C :   -0.039376
  23 H :    0.039291
  24 H :    0.021171
  25 C :   -0.049801
  26 H :    0.032232
  27 H :    0.017588
  28 C :   -0.070520
  29 H :    0.030135
  30 H :    0.022539
  31 H :    0.023425
  32 H :    0.027194
  33 H :    0.024143

  Mayer bond orders larger than 0.100000
B(  0-S ,  1-C ) :   1.1238 B(  0-S ,  4-C ) :   1.1376 B(  1-C ,  2-C ) :   1.6596
B(  1-C , 32-H ) :   0.9671 B(  2-C ,  3-C ) :   1.1780 B(  2-C ,  6-C ) :   1.0012
B(  3-C ,  4-C ) :   1.6311 B(  3-C ,  5-H ) :   0.9911 B(  4-C , 20-C ) :   0.9944
B(  6-C ,  7-H ) :   0.9374 B(  6-C ,  8-H ) :   0.9515 B(  6-C ,  9-C ) :   1.0534
B(  9-C , 10-H ) :   0.9467 B(  9-C , 11-H ) :   0.9640 B(  9-C , 12-C ) :   1.0953
B( 12-C , 13-H ) :   0.9707 B( 12-C , 14-H ) :   0.9613 B( 12-C , 15-H ) :   0.9773
B( 16-S , 17-C ) :   1.1559 B( 16-S , 20-C ) :   1.1254 B( 17-C , 18-C ) :   1.6452
B( 17-C , 33-H ) :   0.9646 B( 18-C , 19-C ) :   1.1946 B( 18-C , 21-H ) :   0.9879
B( 19-C , 20-C ) :   1.6359 B( 19-C , 22-C ) :   1.0470 B( 22-C , 23-H ) :   0.9365
B( 22-C , 24-H ) :   0.9246 B( 22-C , 25-C ) :   1.0495 B( 25-C , 26-H ) :   0.9515
B( 25-C , 27-H ) :   0.9588 B( 25-C , 28-C ) :   1.0846 B( 28-C , 29-H ) :   0.9691
B( 28-C , 30-H ) :   0.9755 B( 28-C , 31-H ) :   0.9705

Dispersion correction           -0.014181984
FINAL SINGLE POINT ENERGY     -1339.851657162346

DIPOLE MOMENT
-------------
                                X             Y             Z
Electronic contribution:     24.36504      -3.65133       2.44237
Nuclear contribution   :    -25.12913       3.71716      -2.70224
                        -----------------------------------------
Total Dipole Moment    :     -0.76409       0.06583      -0.25987
                        -----------------------------------------
Magnitude (a.u.)       :      0.80975
Magnitude (Debye)      :      2.05823

Rotational constants in cm-1:     0.018415     0.007798     0.006928
Rotational constants in MHz :   552.074943   233.763491   207.683142

                             ****ORCA TERMINATED NORMALLY****
TOTAL RUN TIME: 0 days 0 hours 0 minutes 21 seconds 286 msec
