                         Program Version 4.2.1 -  RELEASE  -
|  1> ! wB97X-D3 SP def2-SVP
|  2> %pal
|  3> nprocs 24
|  4> end
|  5>
|  6> * xyz 0 1
|  7> S 	 -67.4956 	 10.44 	 -72.5063
|  8> C 	 -66.1158 	 11.5281 	 -72.519
|  9> C 	 -66.3051 	 12.4579 	 -71.5268
| 10> C 	 -67.5706 	 12.3737 	 -70.8775
| 11> C 	 -68.3612 	 11.2844 	 -71.2671
| 12> H 	 -67.9738 	 13.0877 	 -70.138
| 13> C 	 -65.4685 	 13.6692 	 -71.3138
| 14> H 	 -66.0132 	 14.5237 	 -70.9017
| 15> H 	 -65.0584 	 14.1226 	 -72.2154
| 16> C 	 -64.264 	 13.3487 	 -70.4425
| 17> H 	 -63.7059 	 12.4767 	 -70.786
| 18> H 	 -63.654 	 14.1783 	 -70.5329
| 19> C 	 -64.6811 	 13.059 	 -69.0184
| 20> H 	 -63.9101 	 12.9721 	 -68.3016
| 21> H 	 -65.3558 	 13.8588 	 -68.6085
| 22> H 	 -65.2228 	 12.1585 	 -68.9586
| 23> S 	 -70.1873 	 9.16477 	 -70.7518
| 24> C 	 -71.8144 	 9.55139 	 -70.2549
| 25> C 	 -71.8201 	 10.8174 	 -69.706
| 26> C 	 -70.6302 	 11.5703 	 -70.0752
| 27> C 	 -69.6586 	 10.8541 	 -70.7397
| 28> H 	 -72.6544 	 11.1211 	 -69.1424
| 29> C 	 -70.6965 	 12.9752 	 -69.621
| 30> H 	 -71.6902 	 13.2942 	 -69.869
| 31> H 	 -70.0073 	 13.6122 	 -70.226
| 32> C 	 -70.2925 	 13.3275 	 -68.1834
| 33> H 	 -70.6518 	 14.278 	 -67.8346
| 34> H 	 -69.2251 	 13.4162 	 -68.1068
| 35> C 	 -70.7126 	 12.3833 	 -67.0653
| 36> H 	 -70.231 	 12.6191 	 -66.1532
| 37> H 	 -70.3663 	 11.3606 	 -67.3853
| 38> H 	 -71.773 	 12.2624 	 -66.8979
| 39> H 	 -65.286 	 11.5213 	 -73.2142
| 40> H 	 -72.4232 	 8.7211 	 -69.9837
| 41> *
| 42>
| 43>                          ****END OF INPUT****

CARTESIAN COORDINATES (ANGSTROEM)
---------------------------------
  S    -67.495600   10.440000  -72.506300
  C    -66.115800   11.528100  -72.519000
  C    -66.305100   12.457900  -71.526800
  C    -67.570600   12.373700  -70.877500
  C    -68.361200   11.284400  -71.267100
  H    -67.973800   13.087700  -70.138000
  C    -65.468500   13.669200  -71.313800
  H    -66.013200   14.523700  -70.901700
  H    -65.058400   14.122600  -72.215400
  C    -64.264000   13.348700  -70.442500
  H    -63.705900   12.476700  -70.786000
  H    -63.654000   14.178300  -70.532900
  C    -64.681100   13.059000  -69.018400
  H    -63.910100   12.972100  -68.301600
  H    -65.355800   13.858800  -68.608500
  H    -65.222800   12.158500  -68.958600
  S    -70.187300    9.164770  -70.751800
  C    -71.814400    9.551390  -70.254900
  C    -71.820100   10.817400  -69.706000
  C    -70.630200   11.570300  -70.075200
  C    -69.658600   10.854100  -70.739700
  H    -72.654400   11.121100  -69.142400
  C    -70.696500   12.975200  -69.621000
  H    -71.690200   13.294200  -69.869000
  H    -70.007300   13.612200  -70.226000
  C    -70.292500   13.327500  -68.183400
  H    -70.651800   14.278000  -67.834600
  H    -69.225100   13.416200  -68.106800
  C    -70.712600   12.383300  -67.065300
  H    -70.231000   12.619100  -66.153200
  H    -70.366300   11.360600  -67.385300
  H    -71.773000   12.262400  -66.897900
  H    -65.286000   11.521300  -73.214200
  H    -72.423200    8.721100  -69.983700

 Total Charge           Charge          ....    0
 Multiplicity           Mult            ....    1
 Number of Electrons    NEL             ....  134
 Basis Dimension        Dim             ....  322

ORBITAL ENERGIES
----------------

  NO   OCC          E(Eh)            E(eV)
   0   2.0000     -88.967665     -2420.9333
   1   2.0000     -88.961867     -2420.7755
   2   2.0000     -10.335666      -281.2478
   3   2.0000     -10.335364      -281.2396
   4   2.0000     -10.317774      -280.7609
   5   2.0000     -10.317119      -280.7431
   6   2.0000     -10.304443      -280.3982
   7   2.0000     -10.299666      -280.2682
   8   2.0000     -10.297455      -280.2080
   9   2.0000     -10.295905      -280.1658
  10   2.0000     -10.290825      -280.0276
  11   2.0000     -10.287177      -279.9283
  12   2.0000     -10.285148      -279.8731
  13   2.0000     -10.276326      -279.6330
  14   2.0000     -10.272610      -279.5319
  15   2.0000     -10.267163      -279.3837
  16   2.0000      -8.082290      -219.9303
  17   2.0000      -8.076889      -219.7833
  18   2.0000      -6.040872      -164.3805
  19   2.0000      -6.036544      -164.2627
  20   2.0000      -6.035582      -164.2365
  21   2.0000      -6.033221      -164.1723
  22   2.0000      -6.031472      -164.1247
  23   2.0000      -6.027305      -164.0113
  24   2.0000      -1.009461       -27.4688
  25   2.0000      -0.989428       -26.9237
  26   2.0000      -0.920972       -25.0609
  27   2.0000      -0.914274       -24.8787
  28   2.0000      -0.873747       -23.7759
  29   2.0000      -0.852619       -23.2009
  30   2.0000      -0.843157       -22.9435
  31   2.0000      -0.817905       -22.2563
  32   2.0000      -0.787115       -21.4185
  33   2.0000      -0.779628       -21.2148
  34   2.0000      -0.713147       -19.4057
  35   2.0000      -0.705296       -19.1921
  36   2.0000      -0.692803       -18.8521
  37   2.0000      -0.670799       -18.2534
  38   2.0000      -0.641804       -17.4644
  39   2.0000      -0.618388       -16.8272
  40   2.0000      -0.593502       -16.1500
  41   2.0000      -0.584087       -15.8938
  42   2.0000      -0.565543       -15.3892
  43   2.0000      -0.552605       -15.0371
  44   2.0000      -0.549679       -14.9575
  45   2.0000      -0.547556       -14.8998
  46   2.0000      -0.517767       -14.0891
  47   2.0000      -0.515285       -14.0216
  48   2.0000      -0.510183       -13.8828
  49   2.0000      -0.495998       -13.4968
  50   2.0000      -0.489271       -13.3137
  51   2.0000      -0.486070       -13.2266
  52   2.0000      -0.477011       -12.9801
  53   2.0000      -0.468188       -12.7400
  54   2.0000      -0.463287       -12.6067
  55   2.0000      -0.446370       -12.1463
  56   2.0000      -0.439012       -11.9461
  57   2.0000      -0.435807       -11.8589
  58   2.0000      -0.428697       -11.6654
  59   2.0000      -0.425212       -11.5706
  60   2.0000      -0.419801       -11.4234
  61   2.0000      -0.411867       -11.2075
  62   2.0000      -0.408787       -11.1237
  63   2.0000      -0.362534        -9.8651
  64   2.0000      -0.330696        -8.9987
  65   2.0000      -0.324246        -8.8232
  66   2.0000      -0.289902        -7.8886
  67   0.0000       0.017230         0.4689
  68   0.0000       0.078179         2.1274
  69   0.0000       0.101397         2.7592
  70   0.0000       0.113120         3.0781
  71   0.0000       0.130961         3.5636

MULLIKEN ATOMIC CHARGES
-----------------------
   0 S :    0.110356
   1 C :   -0.113432
   2 C :   -0.054142
   3 C :    0.001836
   4 C :   -0.141928
   5 H :    0.005583
   6 C :    0.028618
   7 H :    0.023658
   8 H :    0.020873
   9 C :   -0.027219
  10 H :    0.027426
  11 H :    0.005678
  12 C :   -0.035775
  13 H :    0.020948
  14 H :    0.016118
  15 H :    0.028982
  16 S :    0.081799
  17 C :   -0.073048
  18 C :   -0.028836
  19 C :   -0.092906
  20 C :   -0.078018
  21 H :    0.012954
  22 C :    0.071988
  23 H :    0.023538
  24 H :    0.022851
  25 C :   -0.040521
  26 H :    0.020169
  27 H :    0.020424
  28 C :   -0.067094
  29 H :    0.027585
  30 H :    0.042197
  31 H :    0.026193
  32 H :    0.051030
  33 H :    0.062116
Sum of atomic charges:   -0.0000000

LOEWDIN ATOMIC CHARGES
----------------------
   0 S :    0.419017
   1 C :   -0.190475
   2 C :   -0.066327
   3 C :   -0.069841
   4 C :   -0.194497
   5 H :    0.031198
   6 C :   -0.030741
   7 H :    0.030251
   8 H :    0.029746
   9 C :   -0.031082
  10 H :    0.025985
  11 H :    0.011566
  12 C :   -0.062082
  13 H :    0.018804
  14 H :    0.025180
  15 H :    0.021219
  16 S :    0.389521
  17 C :   -0.176125
  18 C :   -0.056862
  19 C :   -0.060325
  20 C :   -0.186803
  21 H :    0.025561
  22 C :   -0.036031
  23 H :    0.030487
  24 H :    0.032811
  25 C :   -0.035805
  26 H :    0.023845
  27 H :    0.020331
  28 C :   -0.066677
  29 H :    0.021439
  30 H :    0.030858
  31 H :    0.018372
  32 H :    0.033552
  33 H :    0.023928

  Mayer bond orders larger than 0.100000
B(  0-S ,  1-C ) :   1.1396 B(  0-S ,  4-C ) :   1.1655 B(  1-C ,  2-C ) :   1.5846
B(  1-C ,  4-C ) :   0.1029 B(  1-C , 32-H ) :   0.9718 B(  2-C ,  3-C ) :   1.2677
B(  2-C ,  6-C ) :   1.0196 B(  3-C ,  4-C ) :   1.5269 B(  3-C ,  5-H ) :   0.9856
B(  4-C , 20-C ) :   1.0775 B(  6-C ,  7-H ) :   0.9506 B(  6-C ,  8-H ) :   0.9454
B(  6-C ,  9-C ) :   1.0742 B(  9-C , 10-H ) :   0.9567 B(  9-C , 11-H ) :   0.9538
B(  9-C , 12-C ) :   1.0776 B( 12-C , 13-H ) :   0.9731 B( 12-C , 14-H ) :   0.9729
B( 12-C , 15-H ) :   0.9720 B( 16-S , 17-C ) :   1.1528 B( 16-S , 20-C ) :   1.1236
B( 17-C , 18-C ) :   1.6024 B( 17-C , 33-H ) :   0.9654 B( 18-C , 19-C ) :   1.2211
B( 18-C , 21-H ) :   0.9989 B( 19-C , 20-C ) :   1.5906 B( 19-C , 22-C ) :   1.0513
B( 22-C , 23-H ) :   0.9286 B( 22-C , 24-H ) :   0.9316 B( 22-C , 25-C ) :   1.0686
B( 25-C , 26-H ) :   0.9516 B( 25-C , 27-H ) :   0.9516 B( 25-C , 28-C ) :   1.1000
B( 28-C , 29-H ) :   0.9721 B( 28-C , 30-H ) :   0.9652 B( 28-C , 31-H ) :   0.9745

Dispersion correction           -0.015006419
FINAL SINGLE POINT ENERGY     -1339.867412640817

DIPOLE MOMENT
-------------
                                X             Y             Z
Electronic contribution:     -7.72624     -19.83450     -18.13830
Nuclear contribution   :      7.78710      20.45284      18.57355
                        -----------------------------------------
Total Dipole Moment    :      0.06086       0.61834       0.43525
                        -----------------------------------------
Magnitude (a.u.)       :      0.75862
Magnitude (Debye)      :      1.92825

Rotational constants in cm-1:     0.019557     0.009408     0.006991
Rotational constants in MHz :   586.309644   282.033238   209.589399

                             ****ORCA TERMINATED NORMALLY****
TOTAL RUN TIME: 0 days 0 hours 0 minutes 22 seconds 568 msec
