                         Program Version 4.2.1 -  RELEASE  -
|  1> ! wB97X-D3 SP def2-SVP
|  2> %pal
|  3> nprocs 24
|  4> end
|  5>
|  6> * xyz 0 1
|  7> S 	 37.604 	 -32.7248 	 -124.859
|  8> C 	 38.3928 	 -33.8018 	 -123.689
|  9> C 	 37.5735 	 -34.3721 	 -122.734
| 10> C 	 36.2601 	 -33.8671 	 -122.924
| 11> C 	 36.143 	 -32.9697 	 -123.987
| 12> H 	 35.4001 	 -34.0263 	 -122.277
| 13> C 	 38.0284 	 -35.1588 	 -121.63
| 14> H 	 38.5264 	 -36.0487 	 -122.008
| 15> H 	 37.151 	 -35.6269 	 -121.214
| 16> C 	 38.7006 	 -34.3516 	 -120.511
| 17> H 	 37.8155 	 -33.697 	 -120.232
| 18> H 	 38.7826 	 -34.9795 	 -119.585
| 19> C 	 40.0764 	 -33.6603 	 -120.728
| 20> H 	 40.0118 	 -32.6009 	 -120.901
| 21> H 	 40.8035 	 -33.7679 	 -119.92
| 22> H 	 40.6062 	 -33.9833 	 -121.686
| 23> S 	 34.4127 	 -32.867 	 -126.154
| 24> C 	 32.7811 	 -32.2904 	 -125.925
| 25> C 	 32.5903 	 -31.7606 	 -124.666
| 26> C 	 33.7643 	 -31.9341 	 -123.799
| 27> C 	 34.8038 	 -32.5309 	 -124.444
| 28> H 	 31.6372 	 -31.1845 	 -124.494
| 29> C 	 33.6963 	 -31.4382 	 -122.316
| 30> H 	 33.7793 	 -30.3336 	 -122.377
| 31> H 	 34.6792 	 -31.7633 	 -121.855
| 32> C 	 32.526 	 -31.933 	 -121.477
| 33> H 	 32.3328 	 -32.9679 	 -121.867
| 34> H 	 31.5688 	 -31.4927 	 -121.902
| 35> C 	 32.8532 	 -31.7609 	 -119.968
| 36> H 	 32.1339 	 -32.2307 	 -119.246
| 37> H 	 32.6702 	 -30.6456 	 -119.74
| 38> H 	 33.8866 	 -32.1269 	 -119.68
| 39> H 	 39.4787 	 -34.0001 	 -123.87
| 40> H 	 32.0728 	 -32.2857 	 -126.793
| 41> *
| 42>
| 43>                          ****END OF INPUT****

CARTESIAN COORDINATES (ANGSTROEM)
---------------------------------
  S     37.604000  -32.724800  -124.859000
  C     38.392800  -33.801800  -123.689000
  C     37.573500  -34.372100  -122.734000
  C     36.260100  -33.867100  -122.924000
  C     36.143000  -32.969700  -123.987000
  H     35.400100  -34.026300  -122.277000
  C     38.028400  -35.158800  -121.630000
  H     38.526400  -36.048700  -122.008000
  H     37.151000  -35.626900  -121.214000
  C     38.700600  -34.351600  -120.511000
  H     37.815500  -33.697000  -120.232000
  H     38.782600  -34.979500  -119.585000
  C     40.076400  -33.660300  -120.728000
  H     40.011800  -32.600900  -120.901000
  H     40.803500  -33.767900  -119.920000
  H     40.606200  -33.983300  -121.686000
  S     34.412700  -32.867000  -126.154000
  C     32.781100  -32.290400  -125.925000
  C     32.590300  -31.760600  -124.666000
  C     33.764300  -31.934100  -123.799000
  C     34.803800  -32.530900  -124.444000
  H     31.637200  -31.184500  -124.494000
  C     33.696300  -31.438200  -122.316000
  H     33.779300  -30.333600  -122.377000
  H     34.679200  -31.763300  -121.855000
  C     32.526000  -31.933000  -121.477000
  H     32.332800  -32.967900  -121.867000
  H     31.568800  -31.492700  -121.902000
  C     32.853200  -31.760900  -119.968000
  H     32.133900  -32.230700  -119.246000
  H     32.670200  -30.645600  -119.740000
  H     33.886600  -32.126900  -119.680000
  H     39.478700  -34.000100  -123.870000
  H     32.072800  -32.285700  -126.793000

 Total Charge           Charge          ....    0
 Multiplicity           Mult            ....    1
 Number of Electrons    NEL             ....  134
 Basis Dimension        Dim             ....  322

ORBITAL ENERGIES
----------------

  NO   OCC          E(Eh)            E(eV)
   0   2.0000     -88.971185     -2421.0290
   1   2.0000     -88.959399     -2420.7083
   2   2.0000     -10.327050      -281.0133
   3   2.0000     -10.326692      -281.0036
   4   2.0000     -10.319559      -280.8095
   5   2.0000     -10.316491      -280.7260
   6   2.0000     -10.306252      -280.4474
   7   2.0000     -10.300657      -280.2951
   8   2.0000     -10.300064      -280.2790
   9   2.0000     -10.299892      -280.2743
  10   2.0000     -10.298291      -280.2307
  11   2.0000     -10.298005      -280.2230
  12   2.0000     -10.296905      -280.1930
  13   2.0000     -10.293130      -280.0903
  14   2.0000     -10.287229      -279.9297
  15   2.0000     -10.285771      -279.8901
  16   2.0000      -8.085981      -220.0307
  17   2.0000      -8.074233      -219.7110
  18   2.0000      -6.044256      -164.4726
  19   2.0000      -6.040634      -164.3740
  20   2.0000      -6.036849      -164.2710
  21   2.0000      -6.032848      -164.1621
  22   2.0000      -6.028829      -164.0528
  23   2.0000      -6.024775      -163.9425
  24   2.0000      -1.005300       -27.3556
  25   2.0000      -0.981219       -26.7003
  26   2.0000      -0.919879       -25.0312
  27   2.0000      -0.902687       -24.5634
  28   2.0000      -0.860807       -23.4238
  29   2.0000      -0.851666       -23.1750
  30   2.0000      -0.838914       -22.8280
  31   2.0000      -0.809153       -22.0182
  32   2.0000      -0.786901       -21.4127
  33   2.0000      -0.770292       -20.9607
  34   2.0000      -0.708586       -19.2816
  35   2.0000      -0.699435       -19.0326
  36   2.0000      -0.689606       -18.7651
  37   2.0000      -0.654954       -17.8222
  38   2.0000      -0.637477       -17.3466
  39   2.0000      -0.615591       -16.7511
  40   2.0000      -0.591251       -16.0888
  41   2.0000      -0.570217       -15.5164
  42   2.0000      -0.556229       -15.1358
  43   2.0000      -0.547262       -14.8917
  44   2.0000      -0.537665       -14.6306
  45   2.0000      -0.517438       -14.0802
  46   2.0000      -0.513396       -13.9702
  47   2.0000      -0.509122       -13.8539
  48   2.0000      -0.496730       -13.5167
  49   2.0000      -0.490503       -13.3473
  50   2.0000      -0.486397       -13.2355
  51   2.0000      -0.479456       -13.0467
  52   2.0000      -0.476079       -12.9548
  53   2.0000      -0.466149       -12.6846
  54   2.0000      -0.455656       -12.3990
  55   2.0000      -0.450301       -12.2533
  56   2.0000      -0.443550       -12.0696
  57   2.0000      -0.434474       -11.8226
  58   2.0000      -0.432308       -11.7637
  59   2.0000      -0.425866       -11.5884
  60   2.0000      -0.416515       -11.3339
  61   2.0000      -0.413426       -11.2499
  62   2.0000      -0.405080       -11.0228
  63   2.0000      -0.344357        -9.3704
  64   2.0000      -0.335830        -9.1384
  65   2.0000      -0.327162        -8.9025
  66   2.0000      -0.290995        -7.9184
  67   0.0000       0.034936         0.9507
  68   0.0000       0.069123         1.8809
  69   0.0000       0.107791         2.9331
  70   0.0000       0.121646         3.3102
  71   0.0000       0.124742         3.3944

MULLIKEN ATOMIC CHARGES
-----------------------
   0 S :    0.123193
   1 C :   -0.166646
   2 C :   -0.060534
   3 C :    0.010660
   4 C :   -0.153475
   5 H :    0.016535
   6 C :    0.095245
   7 H :    0.028579
   8 H :    0.004154
   9 C :   -0.076980
  10 H :    0.032112
  11 H :    0.036616
  12 C :   -0.049939
  13 H :    0.035214
  14 H :    0.040489
  15 H :    0.030563
  16 S :    0.084703
  17 C :   -0.120482
  18 C :   -0.052809
  19 C :   -0.055502
  20 C :   -0.147279
  21 H :    0.046680
  22 C :    0.040390
  23 H :    0.045169
  24 H :    0.021684
  25 C :   -0.086761
  26 H :    0.034367
  27 H :    0.036698
  28 C :   -0.080697
  29 H :    0.044129
  30 H :    0.049751
  31 H :    0.054592
  32 H :    0.062941
  33 H :    0.076641
Sum of atomic charges:   -0.0000000

LOEWDIN ATOMIC CHARGES
----------------------
   0 S :    0.413434
   1 C :   -0.188091
   2 C :   -0.066419
   3 C :   -0.058524
   4 C :   -0.206576
   5 H :    0.031281
   6 C :   -0.041503
   7 H :    0.033190
   8 H :    0.033455
   9 C :   -0.043099
  10 H :    0.034556
  11 H :    0.029870
  12 C :   -0.077964
  13 H :    0.027382
  14 H :    0.029600
  15 H :    0.032818
  16 S :    0.376338
  17 C :   -0.189444
  18 C :   -0.085611
  19 C :   -0.061112
  20 C :   -0.182821
  21 H :    0.042618
  22 C :   -0.036826
  23 H :    0.034063
  24 H :    0.029576
  25 C :   -0.060462
  26 H :    0.027783
  27 H :    0.031132
  28 C :   -0.078130
  29 H :    0.029964
  30 H :    0.039847
  31 H :    0.034569
  32 H :    0.027786
  33 H :    0.037322

  Mayer bond orders larger than 0.100000
B(  0-S ,  1-C ) :   1.1401 B(  0-S ,  4-C ) :   1.1676 B(  1-C ,  2-C ) :   1.5895
B(  1-C , 32-H ) :   0.9601 B(  2-C ,  3-C ) :   1.2560 B(  2-C ,  6-C ) :   1.0497
B(  3-C ,  4-C ) :   1.5555 B(  3-C ,  5-H ) :   0.9895 B(  4-C , 20-C ) :   1.0157
B(  6-C ,  7-H ) :   0.9220 B(  6-C ,  8-H ) :   0.9236 B(  6-C ,  9-C ) :   1.0693
B(  9-C , 10-H ) :   0.9556 B(  9-C , 11-H ) :   0.9615 B(  9-C , 12-C ) :   1.0495
B( 12-C , 13-H ) :   0.9749 B( 12-C , 14-H ) :   0.9773 B( 12-C , 15-H ) :   0.9753
B( 16-S , 17-C ) :   1.1481 B( 16-S , 20-C ) :   1.1148 B( 17-C , 18-C ) :   1.6477
B( 17-C , 33-H ) :   0.9608 B( 18-C , 19-C ) :   1.1818 B( 18-C , 21-H ) :   0.9815
B( 19-C , 20-C ) :   1.6798 B( 19-C , 22-C ) :   1.0290 B( 22-C , 23-H ) :   0.9337
B( 22-C , 24-H ) :   0.9409 B( 22-C , 25-C ) :   1.0417 B( 25-C , 26-H ) :   0.9614
B( 25-C , 27-H ) :   0.9488 B( 25-C , 28-C ) :   1.0581 B( 28-C , 29-H ) :   0.9760
B( 28-C , 30-H ) :   0.9734 B( 28-C , 31-H ) :   0.9745

Dispersion correction           -0.014384954
FINAL SINGLE POINT ENERGY     -1339.864529548885

DIPOLE MOMENT
-------------
                                X             Y             Z
Electronic contribution:     -0.70097       0.78701     -28.93594
Nuclear contribution   :      0.59432      -0.82135      29.55909
                        -----------------------------------------
Total Dipole Moment    :     -0.10664      -0.03434       0.62315
                        -----------------------------------------
Magnitude (a.u.)       :      0.63314
Magnitude (Debye)      :      1.60932

Rotational constants in cm-1:     0.017737     0.009128     0.006492
Rotational constants in MHz :   531.749150   273.656228   194.636242

                             ****ORCA TERMINATED NORMALLY****
TOTAL RUN TIME: 0 days 0 hours 0 minutes 21 seconds 409 msec
