                         Program Version 4.2.1 -  RELEASE  -
|  1> ! wB97X-D3 SP def2-SVP
|  2> %pal
|  3> nprocs 24
|  4> end
|  5>
|  6> * xyz 0 1
|  7> S 	 0.845416 	 -16.8835 	 -102.831
|  8> C 	 2.48173 	 -16.658 	 -102.359
|  9> C 	 3.20589 	 -15.8327 	 -103.162
| 10> C 	 2.40863 	 -15.2589 	 -104.212
| 11> C 	 1.09686 	 -15.792 	 -104.209
| 12> H 	 2.70733 	 -14.5905 	 -105.044
| 13> C 	 4.71149 	 -15.4734 	 -102.972
| 14> H 	 5.27245 	 -16.3578 	 -103.203
| 15> H 	 4.89471 	 -15.2872 	 -101.89
| 16> C 	 5.36886 	 -14.3292 	 -103.741
| 17> H 	 5.40247 	 -14.5007 	 -104.813
| 18> H 	 4.76061 	 -13.4214 	 -103.613
| 19> C 	 6.74444 	 -14.047 	 -103.182
| 20> H 	 6.76055 	 -13.2347 	 -102.418
| 21> H 	 7.24668 	 -14.9285 	 -102.816
| 22> H 	 7.35806 	 -13.6939 	 -104.006
| 23> S 	 -0.831249 	 -16.8384 	 -105.927
| 24> C 	 -1.89082 	 -15.7993 	 -106.781
| 25> C 	 -1.77815 	 -14.5084 	 -106.295
| 26> C 	 -0.605359 	 -14.3557 	 -105.525
| 27> C 	 -0.00349236 	 -15.5541 	 -105.159
| 28> H 	 -2.31947 	 -13.7324 	 -106.793
| 29> C 	 -0.185853 	 -13.0045 	 -105.041
| 30> H 	 0.542628 	 -13.2034 	 -104.269
| 31> H 	 -0.974271 	 -12.5191 	 -104.453
| 32> C 	 0.386009 	 -12.0425 	 -106.126
| 33> H 	 -0.463818 	 -11.8315 	 -106.788
| 34> H 	 1.17992 	 -12.533 	 -106.824
| 35> C 	 0.913044 	 -10.7339 	 -105.607
| 36> H 	 1.88315 	 -10.7697 	 -105.223
| 37> H 	 0.189428 	 -10.2202 	 -104.852
| 38> H 	 0.988524 	 -10.1188 	 -106.483
| 39> H 	 2.8991 	 -17.1844 	 -101.527
| 40> H 	 -2.53128 	 -16.0471 	 -107.643
| 41> *
| 42>
| 43>                          ****END OF INPUT****

CARTESIAN COORDINATES (ANGSTROEM)
---------------------------------
  S      0.845416  -16.883500  -102.831000
  C      2.481730  -16.658000  -102.359000
  C      3.205890  -15.832700  -103.162000
  C      2.408630  -15.258900  -104.212000
  C      1.096860  -15.792000  -104.209000
  H      2.707330  -14.590500  -105.044000
  C      4.711490  -15.473400  -102.972000
  H      5.272450  -16.357800  -103.203000
  H      4.894710  -15.287200  -101.890000
  C      5.368860  -14.329200  -103.741000
  H      5.402470  -14.500700  -104.813000
  H      4.760610  -13.421400  -103.613000
  C      6.744440  -14.047000  -103.182000
  H      6.760550  -13.234700  -102.418000
  H      7.246680  -14.928500  -102.816000
  H      7.358060  -13.693900  -104.006000
  S     -0.831249  -16.838400  -105.927000
  C     -1.890820  -15.799300  -106.781000
  C     -1.778150  -14.508400  -106.295000
  C     -0.605359  -14.355700  -105.525000
  C     -0.003492  -15.554100  -105.159000
  H     -2.319470  -13.732400  -106.793000
  C     -0.185853  -13.004500  -105.041000
  H      0.542628  -13.203400  -104.269000
  H     -0.974271  -12.519100  -104.453000
  C      0.386009  -12.042500  -106.126000
  H     -0.463818  -11.831500  -106.788000
  H      1.179920  -12.533000  -106.824000
  C      0.913044  -10.733900  -105.607000
  H      1.883150  -10.769700  -105.223000
  H      0.189428  -10.220200  -104.852000
  H      0.988524  -10.118800  -106.483000
  H      2.899100  -17.184400  -101.527000
  H     -2.531280  -16.047100  -107.643000

 Total Charge           Charge          ....    0
 Multiplicity           Mult            ....    1
 Number of Electrons    NEL             ....  134
 Basis Dimension        Dim             ....  322

ORBITAL ENERGIES
----------------

  NO   OCC          E(Eh)            E(eV)
   0   2.0000     -88.967074     -2420.9172
   1   2.0000     -88.964419     -2420.8449
   2   2.0000     -10.333974      -281.2017
   3   2.0000     -10.321505      -280.8624
   4   2.0000     -10.316400      -280.7235
   5   2.0000     -10.306321      -280.4493
   6   2.0000     -10.302423      -280.3432
   7   2.0000     -10.300993      -280.3043
   8   2.0000     -10.296241      -280.1750
   9   2.0000     -10.294177      -280.1188
  10   2.0000     -10.293344      -280.0961
  11   2.0000     -10.287313      -279.9320
  12   2.0000     -10.286872      -279.9200
  13   2.0000     -10.282561      -279.8027
  14   2.0000     -10.279705      -279.7250
  15   2.0000     -10.277152      -279.6555
  16   2.0000      -8.081940      -219.9208
  17   2.0000      -8.080455      -219.8804
  18   2.0000      -6.040372      -164.3669
  19   2.0000      -6.038775      -164.3234
  20   2.0000      -6.036445      -164.2600
  21   2.0000      -6.034615      -164.2102
  22   2.0000      -6.032770      -164.1600
  23   2.0000      -6.031487      -164.1251
  24   2.0000      -1.010785       -27.5049
  25   2.0000      -0.987169       -26.8622
  26   2.0000      -0.912010       -24.8171
  27   2.0000      -0.906683       -24.6721
  28   2.0000      -0.870630       -23.6911
  29   2.0000      -0.855422       -23.2772
  30   2.0000      -0.847700       -23.0671
  31   2.0000      -0.814380       -22.1604
  32   2.0000      -0.781238       -21.2586
  33   2.0000      -0.769698       -20.9445
  34   2.0000      -0.708188       -19.2708
  35   2.0000      -0.693895       -18.8818
  36   2.0000      -0.689057       -18.7502
  37   2.0000      -0.657897       -17.9023
  38   2.0000      -0.640918       -17.4403
  39   2.0000      -0.617480       -16.8025
  40   2.0000      -0.594877       -16.1874
  41   2.0000      -0.572546       -15.5798
  42   2.0000      -0.569862       -15.5067
  43   2.0000      -0.557231       -15.1630
  44   2.0000      -0.528839       -14.3904
  45   2.0000      -0.523884       -14.2556
  46   2.0000      -0.513369       -13.9695
  47   2.0000      -0.506716       -13.7885
  48   2.0000      -0.503726       -13.7071
  49   2.0000      -0.497344       -13.5334
  50   2.0000      -0.490704       -13.3527
  51   2.0000      -0.484569       -13.1858
  52   2.0000      -0.476215       -12.9585
  53   2.0000      -0.469821       -12.7845
  54   2.0000      -0.463364       -12.6088
  55   2.0000      -0.449660       -12.2359
  56   2.0000      -0.435648       -11.8546
  57   2.0000      -0.432809       -11.7773
  58   2.0000      -0.430951       -11.7268
  59   2.0000      -0.427308       -11.6276
  60   2.0000      -0.421909       -11.4807
  61   2.0000      -0.419297       -11.4097
  62   2.0000      -0.407804       -11.0969
  63   2.0000      -0.345387        -9.3984
  64   2.0000      -0.332106        -9.0371
  65   2.0000      -0.329741        -8.9727
  66   2.0000      -0.289590        -7.8801
  67   0.0000       0.036746         0.9999
  68   0.0000       0.065173         1.7735
  69   0.0000       0.121667         3.3107
  70   0.0000       0.122776         3.3409
  71   0.0000       0.131033         3.5656

MULLIKEN ATOMIC CHARGES
-----------------------
   0 S :    0.121188
   1 C :   -0.122810
   2 C :   -0.055370
   3 C :    0.010725
   4 C :   -0.177964
   5 H :    0.032913
   6 C :    0.031967
   7 H :    0.033518
   8 H :    0.036813
   9 C :   -0.079002
  10 H :    0.033868
  11 H :    0.029945
  12 C :   -0.042189
  13 H :    0.044598
  14 H :    0.028853
  15 H :    0.025332
  16 S :    0.122101
  17 C :   -0.114950
  18 C :   -0.008654
  19 C :   -0.061849
  20 C :   -0.144931
  21 H :    0.017594
  22 C :    0.077245
  23 H :    0.008229
  24 H :    0.026852
  25 C :   -0.117456
  26 H :    0.024200
  27 H :    0.041490
  28 C :   -0.019458
  29 H :    0.025046
  30 H :    0.041709
  31 H :    0.025040
  32 H :    0.034560
  33 H :    0.070847
Sum of atomic charges:    0.0000000

LOEWDIN ATOMIC CHARGES
----------------------
   0 S :    0.411868
   1 C :   -0.205155
   2 C :   -0.064234
   3 C :   -0.066743
   4 C :   -0.181674
   5 H :    0.039440
   6 C :   -0.034098
   7 H :    0.029487
   8 H :    0.035366
   9 C :   -0.046979
  10 H :    0.022040
  11 H :    0.026398
  12 C :   -0.063952
  13 H :    0.032175
  14 H :    0.022614
  15 H :    0.028493
  16 S :    0.440804
  17 C :   -0.196976
  18 C :   -0.073149
  19 C :   -0.056813
  20 C :   -0.226596
  21 H :    0.027637
  22 C :   -0.039872
  23 H :    0.024199
  24 H :    0.033707
  25 C :   -0.046857
  26 H :    0.020688
  27 H :    0.033582
  28 C :   -0.066206
  29 H :    0.015732
  30 H :    0.036582
  31 H :    0.026831
  32 H :    0.022862
  33 H :    0.038798

  Mayer bond orders larger than 0.100000
B(  0-S ,  1-C ) :   1.1387 B(  0-S ,  4-C ) :   1.1640 B(  1-C ,  2-C ) :   1.6371
B(  1-C , 32-H ) :   0.9725 B(  2-C ,  3-C ) :   1.2425 B(  2-C ,  6-C ) :   0.9890
B(  3-C ,  4-C ) :   1.5639 B(  3-C ,  5-H ) :   0.9863 B(  4-C , 20-C ) :   1.0302
B(  6-C ,  7-H ) :   0.9321 B(  6-C ,  8-H ) :   0.9524 B(  6-C ,  9-C ) :   1.0846
B(  9-C , 10-H ) :   0.9525 B(  9-C , 11-H ) :   0.9533 B(  9-C , 12-C ) :   1.0799
B( 12-C , 13-H ) :   0.9753 B( 12-C , 14-H ) :   0.9755 B( 12-C , 15-H ) :   0.9714
B( 16-S , 17-C ) :   1.1863 B( 16-S , 20-C ) :   1.1524 B( 17-C , 18-C ) :   1.5704
B( 17-C , 33-H ) :   0.9646 B( 18-C , 19-C ) :   1.2840 B( 18-C , 21-H ) :   0.9849
B( 19-C , 20-C ) :   1.5556 B( 19-C , 22-C ) :   1.0569 B( 22-C , 23-H ) :   0.9283
B( 22-C , 24-H ) :   0.9312 B( 22-C , 25-C ) :   1.0471 B( 25-C , 26-H ) :   0.9572
B( 25-C , 27-H ) :   0.9527 B( 25-C , 28-C ) :   1.0910 B( 28-C , 29-H ) :   0.9745
B( 28-C , 30-H ) :   0.9689 B( 28-C , 31-H ) :   0.9707

Dispersion correction           -0.013738432
FINAL SINGLE POINT ENERGY     -1339.880977255418

DIPOLE MOMENT
-------------
                                X             Y             Z
Electronic contribution:    -20.96242     -24.74256       0.66817
Nuclear contribution   :     21.38506      25.27057      -0.86493
                        -----------------------------------------
Total Dipole Moment    :      0.42263       0.52801      -0.19676
                        -----------------------------------------
Magnitude (a.u.)       :      0.70436
Magnitude (Debye)      :      1.79035

Rotational constants in cm-1:     0.016817     0.008900     0.006387
Rotational constants in MHz :   504.167800   266.818703   191.469116

                             ****ORCA TERMINATED NORMALLY****
TOTAL RUN TIME: 0 days 0 hours 0 minutes 21 seconds 226 msec
