                         Program Version 4.2.1 -  RELEASE  -
|  1> ! wB97X-D3 SP def2-SVP
|  2> %pal
|  3> nprocs 24
|  4> end
|  5>
|  6> * xyz 0 1
|  7> S 	 -42.4351 	 -2.3349 	 -9.211
|  8> C 	 -43.3142 	 -1.64688 	 -7.81155
|  9> C 	 -44.6677 	 -1.5466 	 -8.04093
| 10> C 	 -45.0459 	 -2.23115 	 -9.20527
| 11> C 	 -43.9669 	 -2.614 	 -10.0193
| 12> H 	 -46.0628 	 -2.39292 	 -9.46781
| 13> C 	 -45.7073 	 -1.05239 	 -7.0168
| 14> H 	 -45.2048 	 -0.883448 	 -6.10285
| 15> H 	 -46.4023 	 -1.81953 	 -6.72627
| 16> C 	 -46.5999 	 0.0657114 	 -7.4425
| 17> H 	 -46.0148 	 1.03317 	 -7.35786
| 18> H 	 -46.9822 	 -0.0632839 	 -8.43437
| 19> C 	 -47.7447 	 0.300952 	 -6.46078
| 20> H 	 -47.3392 	 0.417848 	 -5.44272
| 21> H 	 -48.1905 	 1.28239 	 -6.70674
| 22> H 	 -48.4357 	 -0.528777 	 -6.45117
| 23> S 	 -44.5696 	 -2.74748 	 -12.7557
| 24> C 	 -44.5985 	 -4.34346 	 -13.4783
| 25> C 	 -44.3325 	 -5.3269 	 -12.6018
| 26> C 	 -44.0581 	 -4.86127 	 -11.3133
| 27> C 	 -44.0211 	 -3.46478 	 -11.193
| 28> H 	 -44.3585 	 -6.37952 	 -13.0019
| 29> C 	 -43.9323 	 -5.80613 	 -10.1634
| 30> H 	 -44.8363 	 -6.52105 	 -10.0905
| 31> H 	 -44.0659 	 -5.11187 	 -9.36238
| 32> C 	 -42.6435 	 -6.55353 	 -10.2026
| 33> H 	 -41.758 	 -6.02778 	 -10.3101
| 34> H 	 -42.6934 	 -7.08232 	 -11.1451
| 35> C 	 -42.3797 	 -7.53996 	 -9.03759
| 36> H 	 -43.2453 	 -7.87762 	 -8.42527
| 37> H 	 -41.7314 	 -6.99621 	 -8.35234
| 38> H 	 -41.7388 	 -8.33687 	 -9.32264
| 39> H 	 -42.8387 	 -1.37227 	 -6.8666
| 40> H 	 -44.93 	 -4.44483 	 -14.4626
| 41> *
| 42>
| 43>                          ****END OF INPUT****

CARTESIAN COORDINATES (ANGSTROEM)
---------------------------------
  S    -42.435100   -2.334900   -9.211000
  C    -43.314200   -1.646880   -7.811550
  C    -44.667700   -1.546600   -8.040930
  C    -45.045900   -2.231150   -9.205270
  C    -43.966900   -2.614000  -10.019300
  H    -46.062800   -2.392920   -9.467810
  C    -45.707300   -1.052390   -7.016800
  H    -45.204800   -0.883448   -6.102850
  H    -46.402300   -1.819530   -6.726270
  C    -46.599900    0.065711   -7.442500
  H    -46.014800    1.033170   -7.357860
  H    -46.982200   -0.063284   -8.434370
  C    -47.744700    0.300952   -6.460780
  H    -47.339200    0.417848   -5.442720
  H    -48.190500    1.282390   -6.706740
  H    -48.435700   -0.528777   -6.451170
  S    -44.569600   -2.747480  -12.755700
  C    -44.598500   -4.343460  -13.478300
  C    -44.332500   -5.326900  -12.601800
  C    -44.058100   -4.861270  -11.313300
  C    -44.021100   -3.464780  -11.193000
  H    -44.358500   -6.379520  -13.001900
  C    -43.932300   -5.806130  -10.163400
  H    -44.836300   -6.521050  -10.090500
  H    -44.065900   -5.111870   -9.362380
  C    -42.643500   -6.553530  -10.202600
  H    -41.758000   -6.027780  -10.310100
  H    -42.693400   -7.082320  -11.145100
  C    -42.379700   -7.539960   -9.037590
  H    -43.245300   -7.877620   -8.425270
  H    -41.731400   -6.996210   -8.352340
  H    -41.738800   -8.336870   -9.322640
  H    -42.838700   -1.372270   -6.866600
  H    -44.930000   -4.444830  -14.462600

 Total Charge           Charge          ....    0
 Multiplicity           Mult            ....    1
 Number of Electrons    NEL             ....  134
 Basis Dimension        Dim             ....  322

ORBITAL ENERGIES
----------------

  NO   OCC          E(Eh)            E(eV)
   0   2.0000     -88.969557     -2420.9847
   1   2.0000     -88.960060     -2420.7263
   2   2.0000     -10.329936      -281.0918
   3   2.0000     -10.326199      -280.9902
   4   2.0000     -10.319220      -280.8003
   5   2.0000     -10.309831      -280.5448
   6   2.0000     -10.300499      -280.2908
   7   2.0000     -10.299871      -280.2737
   8   2.0000     -10.294364      -280.1239
   9   2.0000     -10.289736      -279.9980
  10   2.0000     -10.287161      -279.9279
  11   2.0000     -10.286467      -279.9090
  12   2.0000     -10.285254      -279.8760
  13   2.0000     -10.280423      -279.7445
  14   2.0000     -10.274938      -279.5953
  15   2.0000     -10.272547      -279.5302
  16   2.0000      -8.083326      -219.9585
  17   2.0000      -8.074404      -219.7157
  18   2.0000      -6.041769      -164.4049
  19   2.0000      -6.037987      -164.3020
  20   2.0000      -6.034191      -164.1987
  21   2.0000      -6.032801      -164.1609
  22   2.0000      -6.029083      -164.0597
  23   2.0000      -6.025190      -163.9538
  24   2.0000      -1.003415       -27.3043
  25   2.0000      -0.983294       -26.7568
  26   2.0000      -0.918702       -24.9992
  27   2.0000      -0.911913       -24.8144
  28   2.0000      -0.871714       -23.7205
  29   2.0000      -0.849001       -23.1025
  30   2.0000      -0.847974       -23.0745
  31   2.0000      -0.812396       -22.1064
  32   2.0000      -0.785858       -21.3843
  33   2.0000      -0.771245       -20.9866
  34   2.0000      -0.709126       -19.2963
  35   2.0000      -0.702710       -19.1217
  36   2.0000      -0.692578       -18.8460
  37   2.0000      -0.657498       -17.8914
  38   2.0000      -0.641144       -17.4464
  39   2.0000      -0.623321       -16.9614
  40   2.0000      -0.599026       -16.3003
  41   2.0000      -0.576563       -15.6891
  42   2.0000      -0.567512       -15.4428
  43   2.0000      -0.560075       -15.2404
  44   2.0000      -0.529104       -14.3977
  45   2.0000      -0.525049       -14.2873
  46   2.0000      -0.518503       -14.1092
  47   2.0000      -0.510338       -13.8870
  48   2.0000      -0.504875       -13.7384
  49   2.0000      -0.504242       -13.7211
  50   2.0000      -0.492215       -13.3939
  51   2.0000      -0.470668       -12.8075
  52   2.0000      -0.468495       -12.7484
  53   2.0000      -0.462505       -12.5854
  54   2.0000      -0.456466       -12.4211
  55   2.0000      -0.451355       -12.2820
  56   2.0000      -0.447539       -12.1781
  57   2.0000      -0.439874       -11.9696
  58   2.0000      -0.438745       -11.9389
  59   2.0000      -0.425103       -11.5676
  60   2.0000      -0.417311       -11.3556
  61   2.0000      -0.414178       -11.2704
  62   2.0000      -0.402540       -10.9537
  63   2.0000      -0.337786        -9.1916
  64   2.0000      -0.331764        -9.0278
  65   2.0000      -0.321870        -8.7585
  66   2.0000      -0.305617        -8.3163
  67   0.0000       0.035984         0.9792
  68   0.0000       0.055881         1.5206
  69   0.0000       0.109942         2.9917
  70   0.0000       0.112835         3.0704
  71   0.0000       0.127232         3.4622

MULLIKEN ATOMIC CHARGES
-----------------------
   0 S :    0.117079
   1 C :   -0.145843
   2 C :   -0.040296
   3 C :    0.051344
   4 C :   -0.188180
   5 H :    0.004955
   6 C :    0.090727
   7 H :   -0.004391
   8 H :    0.013636
   9 C :   -0.088635
  10 H :    0.033902
  11 H :    0.032372
  12 C :   -0.051896
  13 H :    0.025456
  14 H :    0.041432
  15 H :    0.032756
  16 S :    0.083350
  17 C :   -0.074845
  18 C :   -0.033999
  19 C :   -0.038056
  20 C :   -0.167270
  21 H :    0.041448
  22 C :    0.093457
  23 H :    0.043845
  24 H :    0.013570
  25 C :   -0.044945
  26 H :    0.008634
  27 H :    0.008909
  28 C :   -0.027912
  29 H :    0.038020
  30 H :    0.021157
  31 H :    0.022840
  32 H :    0.051665
  33 H :    0.035714
Sum of atomic charges:    0.0000000

LOEWDIN ATOMIC CHARGES
----------------------
   0 S :    0.398358
   1 C :   -0.181554
   2 C :   -0.062320
   3 C :   -0.045619
   4 C :   -0.203171
   5 H :    0.027248
   6 C :   -0.030322
   7 H :    0.022644
   8 H :    0.028935
   9 C :   -0.042109
  10 H :    0.031631
  11 H :    0.020632
  12 C :   -0.063459
  13 H :    0.025436
  14 H :    0.031934
  15 H :    0.018921
  16 S :    0.377258
  17 C :   -0.162410
  18 C :   -0.083741
  19 C :   -0.046209
  20 C :   -0.198380
  21 H :    0.045383
  22 C :   -0.032261
  23 H :    0.042696
  24 H :    0.022678
  25 C :   -0.036490
  26 H :    0.018896
  27 H :    0.020793
  28 C :   -0.067531
  29 H :    0.028795
  30 H :    0.026635
  31 H :    0.022049
  32 H :    0.029019
  33 H :    0.015635

  Mayer bond orders larger than 0.100000
B(  0-S ,  1-C ) :   1.1452 B(  0-S ,  4-C ) :   1.1480 B(  1-C ,  2-C ) :   1.6055
B(  1-C ,  4-C ) :   0.1021 B(  1-C , 32-H ) :   0.9642 B(  2-C ,  3-C ) :   1.2484
B(  2-C ,  6-C ) :   1.0208 B(  3-C ,  4-C ) :   1.5688 B(  3-C ,  5-H ) :   0.9988
B(  4-C , 20-C ) :   1.0187 B(  6-C ,  7-H ) :   0.9327 B(  6-C ,  8-H ) :   0.9430
B(  6-C ,  9-C ) :   1.0614 B(  9-C , 10-H ) :   0.9524 B(  9-C , 11-H ) :   0.9590
B(  9-C , 12-C ) :   1.0849 B( 12-C , 13-H ) :   0.9731 B( 12-C , 14-H ) :   0.9746
B( 12-C , 15-H ) :   0.9743 B( 16-S , 17-C ) :   1.1640 B( 16-S , 20-C ) :   1.1213
B( 17-C , 18-C ) :   1.6189 B( 17-C , 33-H ) :   0.9711 B( 18-C , 19-C ) :   1.2312
B( 18-C , 21-H ) :   0.9838 B( 19-C , 20-C ) :   1.6014 B( 19-C , 22-C ) :   1.0349
B( 22-C , 23-H ) :   0.9361 B( 22-C , 24-H ) :   0.9240 B( 22-C , 25-C ) :   1.0562
B( 25-C , 26-H ) :   0.9542 B( 25-C , 27-H ) :   0.9593 B( 25-C , 28-C ) :   1.0735
B( 28-C , 29-H ) :   0.9764 B( 28-C , 30-H ) :   0.9779 B( 28-C , 31-H ) :   0.9730

Dispersion correction           -0.013958172
FINAL SINGLE POINT ENERGY     -1339.864668972277

DIPOLE MOMENT
-------------
                                X             Y             Z
Electronic contribution:      9.02621       5.88815     -18.14744
Nuclear contribution   :     -9.42029      -6.19930      18.56490
                        -----------------------------------------
Total Dipole Moment    :     -0.39408      -0.31115       0.41745
                        -----------------------------------------
Magnitude (a.u.)       :      0.65298
Magnitude (Debye)      :      1.65974

Rotational constants in cm-1:     0.018646     0.007787     0.006553
Rotational constants in MHz :   558.996819   233.462267   196.448910

                             ****ORCA TERMINATED NORMALLY****
TOTAL RUN TIME: 0 days 0 hours 0 minutes 21 seconds 277 msec
