                         Program Version 4.2.1 -  RELEASE  -
|  1> ! wB97X-D3 SP def2-SVP
|  2> %pal
|  3> nprocs 24
|  4> end
|  5>
|  6> * xyz 0 1
|  7> S 	 -19.582 	 -33.9745 	 -92.8676
|  8> C 	 -18.0392 	 -34.6928 	 -93.1046
|  9> C 	 -17.2067 	 -33.9219 	 -93.947
| 10> C 	 -17.9143 	 -32.7649 	 -94.4674
| 11> C 	 -19.1696 	 -32.6042 	 -93.974
| 12> H 	 -17.5534 	 -32.1432 	 -95.2868
| 13> C 	 -15.7558 	 -34.09 	 -94.3112
| 14> H 	 -15.0961 	 -33.5691 	 -93.6093
| 15> H 	 -15.562 	 -33.7762 	 -95.3064
| 16> C 	 -15.2474 	 -35.5432 	 -94.4062
| 17> H 	 -14.2469 	 -35.4833 	 -94.6492
| 18> H 	 -15.2123 	 -35.9839 	 -93.3755
| 19> C 	 -15.9833 	 -36.4379 	 -95.3772
| 20> H 	 -15.679 	 -37.4953 	 -95.4515
| 21> H 	 -17.034 	 -36.3815 	 -95.1947
| 22> H 	 -15.9425 	 -36.0565 	 -96.3884
| 23> S 	 -21.7616 	 -32.3609 	 -94.8056
| 24> C 	 -22.1787 	 -31.0153 	 -95.7868
| 25> C 	 -21.2902 	 -29.9726 	 -95.5639
| 26> C 	 -20.1471 	 -30.3869 	 -94.8567
| 27> C 	 -20.2036 	 -31.7011 	 -94.5089
| 28> H 	 -21.4923 	 -28.951 	 -95.879
| 29> C 	 -18.9712 	 -29.4801 	 -94.6094
| 30> H 	 -19.118 	 -28.7261 	 -95.4307
| 31> H 	 -18.0937 	 -30.0498 	 -94.926
| 32> C 	 -18.8767 	 -29.0354 	 -93.1908
| 33> H 	 -18.6604 	 -29.8461 	 -92.4728
| 34> H 	 -19.8256 	 -28.6032 	 -92.8927
| 35> C 	 -17.9728 	 -27.8781 	 -92.8276
| 36> H 	 -18.1258 	 -26.9296 	 -93.3201
| 37> H 	 -16.9559 	 -28.169 	 -93.1564
| 38> H 	 -17.9372 	 -27.7101 	 -91.6911
| 39> H 	 -17.7792 	 -35.635 	 -92.5845
| 40> H 	 -23.1057 	 -30.8047 	 -96.2837
| 41> *
| 42>
| 43>                          ****END OF INPUT****

CARTESIAN COORDINATES (ANGSTROEM)
---------------------------------
  S    -19.582000  -33.974500  -92.867600
  C    -18.039200  -34.692800  -93.104600
  C    -17.206700  -33.921900  -93.947000
  C    -17.914300  -32.764900  -94.467400
  C    -19.169600  -32.604200  -93.974000
  H    -17.553400  -32.143200  -95.286800
  C    -15.755800  -34.090000  -94.311200
  H    -15.096100  -33.569100  -93.609300
  H    -15.562000  -33.776200  -95.306400
  C    -15.247400  -35.543200  -94.406200
  H    -14.246900  -35.483300  -94.649200
  H    -15.212300  -35.983900  -93.375500
  C    -15.983300  -36.437900  -95.377200
  H    -15.679000  -37.495300  -95.451500
  H    -17.034000  -36.381500  -95.194700
  H    -15.942500  -36.056500  -96.388400
  S    -21.761600  -32.360900  -94.805600
  C    -22.178700  -31.015300  -95.786800
  C    -21.290200  -29.972600  -95.563900
  C    -20.147100  -30.386900  -94.856700
  C    -20.203600  -31.701100  -94.508900
  H    -21.492300  -28.951000  -95.879000
  C    -18.971200  -29.480100  -94.609400
  H    -19.118000  -28.726100  -95.430700
  H    -18.093700  -30.049800  -94.926000
  C    -18.876700  -29.035400  -93.190800
  H    -18.660400  -29.846100  -92.472800
  H    -19.825600  -28.603200  -92.892700
  C    -17.972800  -27.878100  -92.827600
  H    -18.125800  -26.929600  -93.320100
  H    -16.955900  -28.169000  -93.156400
  H    -17.937200  -27.710100  -91.691100
  H    -17.779200  -35.635000  -92.584500
  H    -23.105700  -30.804700  -96.283700

 Total Charge           Charge          ....    0
 Multiplicity           Mult            ....    1
 Number of Electrons    NEL             ....  134
 Basis Dimension        Dim             ....  322

ORBITAL ENERGIES
----------------

  NO   OCC          E(Eh)            E(eV)
   0   2.0000     -88.967283     -2420.9228
   1   2.0000     -88.965732     -2420.8806
   2   2.0000     -10.332470      -281.1608
   3   2.0000     -10.321194      -280.8540
   4   2.0000     -10.320082      -280.8237
   5   2.0000     -10.312220      -280.6098
   6   2.0000     -10.307218      -280.4737
   7   2.0000     -10.294915      -280.1389
   8   2.0000     -10.293572      -280.1023
   9   2.0000     -10.291911      -280.0571
  10   2.0000     -10.291148      -280.0364
  11   2.0000     -10.290920      -280.0302
  12   2.0000     -10.281308      -279.7686
  13   2.0000     -10.280656      -279.7509
  14   2.0000     -10.279342      -279.7151
  15   2.0000     -10.270618      -279.4777
  16   2.0000      -8.081757      -219.9158
  17   2.0000      -8.081543      -219.9100
  18   2.0000      -6.040384      -164.3672
  19   2.0000      -6.039945      -164.3553
  20   2.0000      -6.036319      -164.2566
  21   2.0000      -6.036034      -164.2488
  22   2.0000      -6.032407      -164.1501
  23   2.0000      -6.032214      -164.1449
  24   2.0000      -1.013950       -27.5910
  25   2.0000      -0.985818       -26.8255
  26   2.0000      -0.915672       -24.9167
  27   2.0000      -0.913994       -24.8710
  28   2.0000      -0.868943       -23.6451
  29   2.0000      -0.857480       -23.3332
  30   2.0000      -0.848390       -23.0859
  31   2.0000      -0.813738       -22.1429
  32   2.0000      -0.783691       -21.3253
  33   2.0000      -0.773665       -21.0525
  34   2.0000      -0.707034       -19.2394
  35   2.0000      -0.701163       -19.0796
  36   2.0000      -0.688811       -18.7435
  37   2.0000      -0.668447       -18.1894
  38   2.0000      -0.641038       -17.4435
  39   2.0000      -0.613622       -16.6975
  40   2.0000      -0.593233       -16.1427
  41   2.0000      -0.575941       -15.6721
  42   2.0000      -0.563384       -15.3305
  43   2.0000      -0.559645       -15.2287
  44   2.0000      -0.538287       -14.6475
  45   2.0000      -0.532558       -14.4916
  46   2.0000      -0.514318       -13.9953
  47   2.0000      -0.509538       -13.8652
  48   2.0000      -0.505180       -13.7467
  49   2.0000      -0.500268       -13.6130
  50   2.0000      -0.487376       -13.2622
  51   2.0000      -0.483404       -13.1541
  52   2.0000      -0.476339       -12.9618
  53   2.0000      -0.468092       -12.7374
  54   2.0000      -0.454634       -12.3712
  55   2.0000      -0.453441       -12.3388
  56   2.0000      -0.447174       -12.1682
  57   2.0000      -0.439259       -11.9528
  58   2.0000      -0.435602       -11.8533
  59   2.0000      -0.421591       -11.4721
  60   2.0000      -0.417873       -11.3709
  61   2.0000      -0.410550       -11.1716
  62   2.0000      -0.401186       -10.9168
  63   2.0000      -0.358031        -9.7425
  64   2.0000      -0.333396        -9.0722
  65   2.0000      -0.325203        -8.8492
  66   2.0000      -0.286978        -7.8091
  67   0.0000       0.027735         0.7547
  68   0.0000       0.068979         1.8770
  69   0.0000       0.104329         2.8389
  70   0.0000       0.119341         3.2474
  71   0.0000       0.137644         3.7455

MULLIKEN ATOMIC CHARGES
-----------------------
   0 S :    0.095729
   1 C :   -0.134269
   2 C :   -0.094429
   3 C :   -0.003743
   4 C :   -0.120234
   5 H :    0.034045
   6 C :    0.071035
   7 H :    0.051382
   8 H :    0.014948
   9 C :   -0.064426
  10 H :    0.006689
  11 H :    0.020746
  12 C :   -0.037791
  13 H :    0.042492
  14 H :    0.025166
  15 H :    0.012925
  16 S :    0.121364
  17 C :   -0.079569
  18 C :   -0.056679
  19 C :   -0.074649
  20 C :   -0.148130
  21 H :    0.018615
  22 C :    0.107485
  23 H :    0.022081
  24 H :    0.009647
  25 C :   -0.053288
  26 H :    0.046881
  27 H :    0.019460
  28 C :   -0.063660
  29 H :    0.028439
  30 H :    0.014435
  31 H :    0.047671
  32 H :    0.070329
  33 H :    0.049300
Sum of atomic charges:    0.0000000

LOEWDIN ATOMIC CHARGES
----------------------
   0 S :    0.387280
   1 C :   -0.207662
   2 C :   -0.063287
   3 C :   -0.062466
   4 C :   -0.172135
   5 H :    0.034965
   6 C :   -0.027015
   7 H :    0.040173
   8 H :    0.026009
   9 C :   -0.040846
  10 H :    0.013321
  11 H :    0.022209
  12 C :   -0.070093
  13 H :    0.031380
  14 H :    0.022405
  15 H :    0.023448
  16 S :    0.434778
  17 C :   -0.196103
  18 C :   -0.071447
  19 C :   -0.063373
  20 C :   -0.205838
  21 H :    0.031336
  22 C :   -0.033199
  23 H :    0.036409
  24 H :    0.028506
  25 C :   -0.048089
  26 H :    0.036530
  27 H :    0.025051
  28 C :   -0.070988
  29 H :    0.019121
  30 H :    0.019372
  31 H :    0.037182
  32 H :    0.035406
  33 H :    0.027661

  Mayer bond orders larger than 0.100000
B(  0-S ,  1-C ) :   1.1434 B(  0-S ,  4-C ) :   1.1210 B(  1-C ,  2-C ) :   1.6005
B(  1-C , 32-H ) :   0.9637 B(  2-C ,  3-C ) :   1.2339 B(  2-C ,  6-C ) :   1.0262
B(  3-C ,  4-C ) :   1.6165 B(  3-C ,  5-H ) :   0.9788 B(  4-C , 20-C ) :   1.0342
B(  6-C ,  7-H ) :   0.9338 B(  6-C ,  8-H ) :   0.9442 B(  6-C ,  9-C ) :   1.0845
B(  9-C , 10-H ) :   0.9539 B(  9-C , 11-H ) :   0.9484 B(  9-C , 12-C ) :   1.0760
B( 12-C , 13-H ) :   0.9744 B( 12-C , 14-H ) :   0.9719 B( 12-C , 15-H ) :   0.9697
B( 16-S , 17-C ) :   1.1722 B( 16-S , 20-C ) :   1.1456 B( 17-C , 18-C ) :   1.5801
B( 17-C , 33-H ) :   0.9685 B( 18-C , 19-C ) :   1.2802 B( 18-C , 21-H ) :   0.9877
B( 19-C , 20-C ) :   1.5816 B( 19-C , 22-C ) :   1.0315 B( 22-C , 23-H ) :   0.9335
B( 22-C , 24-H ) :   0.9197 B( 22-C , 25-C ) :   1.0624 B( 25-C , 26-H ) :   0.9488
B( 25-C , 27-H ) :   0.9546 B( 25-C , 28-C ) :   1.0879 B( 28-C , 29-H ) :   0.9761
B( 28-C , 30-H ) :   0.9703 B( 28-C , 31-H ) :   0.9737

Dispersion correction           -0.014200819
FINAL SINGLE POINT ENERGY     -1339.871590236780

DIPOLE MOMENT
-------------
                                X             Y             Z
Electronic contribution:    -22.57374      -5.77460       1.63795
Nuclear contribution   :     23.01073       6.05695      -1.86725
                        -----------------------------------------
Total Dipole Moment    :      0.43699       0.28235      -0.22930
                        -----------------------------------------
Magnitude (a.u.)       :      0.56856
Magnitude (Debye)      :      1.44515

Rotational constants in cm-1:     0.019263     0.008360     0.006810
Rotational constants in MHz :   577.498508   250.638821   204.153670

                             ****ORCA TERMINATED NORMALLY****
TOTAL RUN TIME: 0 days 0 hours 0 minutes 20 seconds 599 msec
