                         Program Version 4.2.1 -  RELEASE  -
|  1> ! wB97X-D3 SP def2-SVP
|  2> %pal
|  3> nprocs 24
|  4> end
|  5>
|  6> * xyz 0 1
|  7> S 	 -39.7959 	 -47.8097 	 -73.5534
|  8> C 	 -41.2009 	 -46.7711 	 -73.5231
|  9> C 	 -40.9364 	 -45.4689 	 -73.215
| 10> C 	 -39.5176 	 -45.3053 	 -73.0361
| 11> C 	 -38.7859 	 -46.439 	 -73.1169
| 12> H 	 -39.0838 	 -44.3277 	 -72.8317
| 13> C 	 -41.9072 	 -44.3177 	 -73.0921
| 14> H 	 -42.8985 	 -44.7968 	 -73.3328
| 15> H 	 -41.5828 	 -43.5706 	 -73.8553
| 16> C 	 -41.9713 	 -43.8114 	 -71.6755
| 17> H 	 -40.9882 	 -43.4167 	 -71.4122
| 18> H 	 -42.6723 	 -42.9707 	 -71.6299
| 19> C 	 -42.3374 	 -44.9818 	 -70.7419
| 20> H 	 -42.588 	 -44.6924 	 -69.7118
| 21> H 	 -43.2354 	 -45.5385 	 -71.1679
| 22> H 	 -41.4889 	 -45.7107 	 -70.589
| 23> S 	 -37.0643 	 -47.6803 	 -71.6039
| 24> C 	 -35.324 	 -47.6047 	 -72.0348
| 25> C 	 -35.0543 	 -46.6433 	 -72.9913
| 26> C 	 -36.228 	 -46.1217 	 -73.5434
| 27> C 	 -37.3786 	 -46.6616 	 -72.9013
| 28> H 	 -34.0935 	 -46.4494 	 -73.3034
| 29> C 	 -36.3146 	 -45.0993 	 -74.683
| 30> H 	 -35.554 	 -44.2846 	 -74.5928
| 31> H 	 -37.239 	 -44.5697 	 -74.6306
| 32> C 	 -36.3886 	 -45.7635 	 -76.0756
| 33> H 	 -35.4573 	 -46.2297 	 -76.3927
| 34> H 	 -36.5774 	 -45.0155 	 -76.8846
| 35> C 	 -37.4226 	 -46.8895 	 -76.2325
| 36> H 	 -37.2573 	 -47.296 	 -77.2803
| 37> H 	 -38.4587 	 -46.4304 	 -76.1438
| 38> H 	 -37.2532 	 -47.6816 	 -75.5901
| 39> H 	 -42.2299 	 -47.1284 	 -73.7841
| 40> H 	 -34.4895 	 -48.0741 	 -71.4317
| 41> *
| 42>
| 43>                          ****END OF INPUT****

CARTESIAN COORDINATES (ANGSTROEM)
---------------------------------
  S    -39.795900  -47.809700  -73.553400
  C    -41.200900  -46.771100  -73.523100
  C    -40.936400  -45.468900  -73.215000
  C    -39.517600  -45.305300  -73.036100
  C    -38.785900  -46.439000  -73.116900
  H    -39.083800  -44.327700  -72.831700
  C    -41.907200  -44.317700  -73.092100
  H    -42.898500  -44.796800  -73.332800
  H    -41.582800  -43.570600  -73.855300
  C    -41.971300  -43.811400  -71.675500
  H    -40.988200  -43.416700  -71.412200
  H    -42.672300  -42.970700  -71.629900
  C    -42.337400  -44.981800  -70.741900
  H    -42.588000  -44.692400  -69.711800
  H    -43.235400  -45.538500  -71.167900
  H    -41.488900  -45.710700  -70.589000
  S    -37.064300  -47.680300  -71.603900
  C    -35.324000  -47.604700  -72.034800
  C    -35.054300  -46.643300  -72.991300
  C    -36.228000  -46.121700  -73.543400
  C    -37.378600  -46.661600  -72.901300
  H    -34.093500  -46.449400  -73.303400
  C    -36.314600  -45.099300  -74.683000
  H    -35.554000  -44.284600  -74.592800
  H    -37.239000  -44.569700  -74.630600
  C    -36.388600  -45.763500  -76.075600
  H    -35.457300  -46.229700  -76.392700
  H    -36.577400  -45.015500  -76.884600
  C    -37.422600  -46.889500  -76.232500
  H    -37.257300  -47.296000  -77.280300
  H    -38.458700  -46.430400  -76.143800
  H    -37.253200  -47.681600  -75.590100
  H    -42.229900  -47.128400  -73.784100
  H    -34.489500  -48.074100  -71.431700

 Total Charge           Charge          ....    0
 Multiplicity           Mult            ....    1
 Number of Electrons    NEL             ....  134
 Basis Dimension        Dim             ....  322

ORBITAL ENERGIES
----------------

  NO   OCC          E(Eh)            E(eV)
   0   2.0000     -88.970277     -2421.0043
   1   2.0000     -88.963701     -2420.8254
   2   2.0000     -10.323274      -280.9106
   3   2.0000     -10.320070      -280.8234
   4   2.0000     -10.320043      -280.8226
   5   2.0000     -10.313272      -280.6384
   6   2.0000     -10.303223      -280.3649
   7   2.0000     -10.298364      -280.2327
   8   2.0000     -10.295941      -280.1668
   9   2.0000     -10.292187      -280.0647
  10   2.0000     -10.290575      -280.0208
  11   2.0000     -10.289626      -279.9950
  12   2.0000     -10.288795      -279.9724
  13   2.0000     -10.285374      -279.8792
  14   2.0000     -10.282742      -279.8076
  15   2.0000     -10.271133      -279.4917
  16   2.0000      -8.085410      -220.0152
  17   2.0000      -8.078440      -219.8255
  18   2.0000      -6.043696      -164.4573
  19   2.0000      -6.039903      -164.3541
  20   2.0000      -6.036998      -164.2751
  21   2.0000      -6.036318      -164.2566
  22   2.0000      -6.033066      -164.1681
  23   2.0000      -6.029020      -164.0580
  24   2.0000      -1.012744       -27.5582
  25   2.0000      -0.986016       -26.8309
  26   2.0000      -0.919369       -25.0173
  27   2.0000      -0.903450       -24.5841
  28   2.0000      -0.873995       -23.7826
  29   2.0000      -0.845279       -23.0012
  30   2.0000      -0.841260       -22.8918
  31   2.0000      -0.811087       -22.0708
  32   2.0000      -0.781049       -21.2534
  33   2.0000      -0.767360       -20.8809
  34   2.0000      -0.707731       -19.2583
  35   2.0000      -0.691164       -18.8075
  36   2.0000      -0.683865       -18.6089
  37   2.0000      -0.663836       -18.0639
  38   2.0000      -0.636542       -17.3212
  39   2.0000      -0.625579       -17.0229
  40   2.0000      -0.592627       -16.1262
  41   2.0000      -0.565022       -15.3750
  42   2.0000      -0.558799       -15.2057
  43   2.0000      -0.548431       -14.9236
  44   2.0000      -0.545957       -14.8562
  45   2.0000      -0.539705       -14.6861
  46   2.0000      -0.512315       -13.9408
  47   2.0000      -0.502030       -13.6609
  48   2.0000      -0.492482       -13.4011
  49   2.0000      -0.487432       -13.2637
  50   2.0000      -0.486016       -13.2252
  51   2.0000      -0.474271       -12.9056
  52   2.0000      -0.465408       -12.6644
  53   2.0000      -0.461727       -12.5642
  54   2.0000      -0.454891       -12.3782
  55   2.0000      -0.452347       -12.3090
  56   2.0000      -0.441868       -12.0238
  57   2.0000      -0.439779       -11.9670
  58   2.0000      -0.431148       -11.7321
  59   2.0000      -0.427297       -11.6273
  60   2.0000      -0.421411       -11.4672
  61   2.0000      -0.416466       -11.3326
  62   2.0000      -0.406435       -11.0597
  63   2.0000      -0.348487        -9.4828
  64   2.0000      -0.331601        -9.0233
  65   2.0000      -0.327671        -8.9164
  66   2.0000      -0.292028        -7.9465
  67   0.0000       0.035873         0.9761
  68   0.0000       0.066923         1.8211
  69   0.0000       0.105146         2.8612
  70   0.0000       0.114499         3.1157
  71   0.0000       0.135488         3.6868

MULLIKEN ATOMIC CHARGES
-----------------------
   0 S :    0.114592
   1 C :   -0.144654
   2 C :   -0.118888
   3 C :    0.044932
   4 C :   -0.170750
   5 H :    0.011733
   6 C :    0.062103
   7 H :    0.023221
   8 H :    0.050295
   9 C :   -0.046033
  10 H :    0.027432
  11 H :    0.037195
  12 C :   -0.092973
  13 H :    0.035166
  14 H :    0.034404
  15 H :    0.062155
  16 S :    0.134969
  17 C :   -0.116650
  18 C :   -0.011305
  19 C :   -0.023200
  20 C :   -0.188812
  21 H :   -0.011478
  22 C :    0.116222
  23 H :    0.034565
  24 H :    0.001621
  25 C :   -0.095336
  26 H :    0.015629
  27 H :    0.030357
  28 C :   -0.061700
  29 H :    0.035441
  30 H :    0.050336
  31 H :    0.033643
  32 H :    0.054440
  33 H :    0.071327
Sum of atomic charges:    0.0000000

LOEWDIN ATOMIC CHARGES
----------------------
   0 S :    0.401397
   1 C :   -0.202462
   2 C :   -0.069931
   3 C :   -0.062508
   4 C :   -0.196706
   5 H :    0.029646
   6 C :   -0.032974
   7 H :    0.032325
   8 H :    0.038395
   9 C :   -0.042558
  10 H :    0.022727
  11 H :    0.026052
  12 C :   -0.072964
  13 H :    0.024149
  14 H :    0.029165
  15 H :    0.037351
  16 S :    0.437916
  17 C :   -0.190315
  18 C :   -0.055325
  19 C :   -0.053787
  20 C :   -0.224904
  21 H :    0.021312
  22 C :   -0.034712
  23 H :    0.035896
  24 H :    0.025009
  25 C :   -0.044780
  26 H :    0.015989
  27 H :    0.025950
  28 C :   -0.064356
  29 H :    0.033948
  30 H :    0.030913
  31 H :    0.009204
  32 H :    0.033064
  33 H :    0.037872

  Mayer bond orders larger than 0.100000
B(  0-S ,  1-C ) :   1.1299 B(  0-S ,  4-C ) :   1.1357 B(  1-C ,  2-C ) :   1.6524
B(  1-C , 32-H ) :   0.9535 B(  2-C ,  3-C ) :   1.2098 B(  2-C ,  6-C ) :   1.0060
B(  3-C ,  4-C ) :   1.6234 B(  3-C ,  5-H ) :   0.9915 B(  4-C , 20-C ) :   1.0094
B(  6-C ,  7-H ) :   0.9412 B(  6-C ,  8-H ) :   0.9394 B(  6-C ,  9-C ) :   1.0715
B(  9-C , 10-H ) :   0.9529 B(  9-C , 11-H ) :   0.9585 B(  9-C , 12-C ) :   1.0634
B( 12-C , 13-H ) :   0.9746 B( 12-C , 14-H ) :   0.9764 B( 12-C , 15-H ) :   0.9673
B( 16-S , 17-C ) :   1.1437 B( 16-S , 20-C ) :   1.2008 B( 17-C , 18-C ) :   1.5931
B( 17-C , 20-C ) :   0.1124 B( 17-C , 33-H ) :   0.9591 B( 18-C , 19-C ) :   1.2674
B( 18-C , 21-H ) :   1.0017 B( 19-C , 20-C ) :   1.5357 B( 19-C , 22-C ) :   1.0443
B( 22-C , 23-H ) :   0.9400 B( 22-C , 24-H ) :   0.9257 B( 22-C , 25-C ) :   1.0545
B( 25-C , 26-H ) :   0.9593 B( 25-C , 27-H ) :   0.9584 B( 25-C , 28-C ) :   1.0823
B( 28-C , 29-H ) :   0.9716 B( 28-C , 30-H ) :   0.9733 B( 28-C , 31-H ) :   0.9726

Dispersion correction           -0.016408631
FINAL SINGLE POINT ENERGY     -1339.881930459745

DIPOLE MOMENT
-------------
                                X             Y             Z
Electronic contribution:      7.70651     -13.89878       7.04901
Nuclear contribution   :     -7.71152      14.45292      -7.11095
                        -----------------------------------------
Total Dipole Moment    :     -0.00501       0.55415      -0.06193
                        -----------------------------------------
Magnitude (a.u.)       :      0.55762
Magnitude (Debye)      :      1.41735

Rotational constants in cm-1:     0.021789     0.009197     0.008205
Rotational constants in MHz :   653.210717   275.720912   245.993315

                             ****ORCA TERMINATED NORMALLY****
TOTAL RUN TIME: 0 days 0 hours 0 minutes 23 seconds 139 msec
