                         Program Version 4.2.1 -  RELEASE  -
|  1> ! wB97X-D3 SP def2-SVP
|  2> %pal
|  3> nprocs 24
|  4> end
|  5>
|  6> * xyz 0 1
|  7> S 	 -78.3052 	 4.29752 	 -112.895
|  8> C 	 -79.3998 	 2.97223 	 -112.648
|  9> C 	 -80.4708 	 3.08183 	 -113.481
| 10> C 	 -80.4585 	 4.2979 	 -114.272
| 11> C 	 -79.3893 	 5.1188 	 -113.984
| 12> H 	 -81.2781 	 4.60179 	 -114.968
| 13> C 	 -81.6558 	 2.11964 	 -113.464
| 14> H 	 -81.2338 	 1.08063 	 -113.525
| 15> H 	 -82.1684 	 2.06799 	 -114.445
| 16> C 	 -82.6762 	 2.35801 	 -112.276
| 17> H 	 -83.2599 	 1.50775 	 -112.133
| 18> H 	 -82.2061 	 2.56043 	 -111.28
| 19> C 	 -83.6185 	 3.52364 	 -112.659
| 20> H 	 -84.3704 	 3.14366 	 -113.349
| 21> H 	 -84.2008 	 3.97199 	 -111.786
| 22> H 	 -83.0585 	 4.29988 	 -113.125
| 23> S 	 -77.5361 	 6.68658 	 -115.266
| 24> C 	 -77.8301 	 8.39146 	 -115.462
| 25> C 	 -79.1685 	 8.71414 	 -115.117
| 26> C 	 -79.8528 	 7.55812 	 -114.568
| 27> C 	 -79.0565 	 6.42415 	 -114.484
| 28> H 	 -79.4557 	 9.74474 	 -115.162
| 29> C 	 -81.3063 	 7.60763 	 -114.155
| 30> H 	 -81.8155 	 7.01359 	 -114.932
| 31> H 	 -81.5394 	 8.66155 	 -114.482
| 32> C 	 -81.6979 	 7.28249 	 -112.667
| 33> H 	 -81.4338 	 6.15877 	 -112.508
| 34> H 	 -82.7845 	 7.33679 	 -112.589
| 35> C 	 -81.0362 	 8.32581 	 -111.714
| 36> H 	 -79.9641 	 8.12761 	 -111.577
| 37> H 	 -81.4571 	 8.24605 	 -110.657
| 38> H 	 -81.0718 	 9.39172 	 -112.037
| 39> H 	 -79.2595 	 2.15475 	 -111.949
| 40> H 	 -77.1931 	 9.15782 	 -115.901
| 41> *
| 42>
| 43>                          ****END OF INPUT****

CARTESIAN COORDINATES (ANGSTROEM)
---------------------------------
  S    -78.305200    4.297520  -112.895000
  C    -79.399800    2.972230  -112.648000
  C    -80.470800    3.081830  -113.481000
  C    -80.458500    4.297900  -114.272000
  C    -79.389300    5.118800  -113.984000
  H    -81.278100    4.601790  -114.968000
  C    -81.655800    2.119640  -113.464000
  H    -81.233800    1.080630  -113.525000
  H    -82.168400    2.067990  -114.445000
  C    -82.676200    2.358010  -112.276000
  H    -83.259900    1.507750  -112.133000
  H    -82.206100    2.560430  -111.280000
  C    -83.618500    3.523640  -112.659000
  H    -84.370400    3.143660  -113.349000
  H    -84.200800    3.971990  -111.786000
  H    -83.058500    4.299880  -113.125000
  S    -77.536100    6.686580  -115.266000
  C    -77.830100    8.391460  -115.462000
  C    -79.168500    8.714140  -115.117000
  C    -79.852800    7.558120  -114.568000
  C    -79.056500    6.424150  -114.484000
  H    -79.455700    9.744740  -115.162000
  C    -81.306300    7.607630  -114.155000
  H    -81.815500    7.013590  -114.932000
  H    -81.539400    8.661550  -114.482000
  C    -81.697900    7.282490  -112.667000
  H    -81.433800    6.158770  -112.508000
  H    -82.784500    7.336790  -112.589000
  C    -81.036200    8.325810  -111.714000
  H    -79.964100    8.127610  -111.577000
  H    -81.457100    8.246050  -110.657000
  H    -81.071800    9.391720  -112.037000
  H    -79.259500    2.154750  -111.949000
  H    -77.193100    9.157820  -115.901000

 Total Charge           Charge          ....    0
 Multiplicity           Mult            ....    1
 Number of Electrons    NEL             ....  134
 Basis Dimension        Dim             ....  322

ORBITAL ENERGIES
----------------

  NO   OCC          E(Eh)            E(eV)
   0   2.0000     -88.967983     -2420.9419
   1   2.0000     -88.965032     -2420.8616
   2   2.0000     -10.329406      -281.0774
   3   2.0000     -10.321217      -280.8546
   4   2.0000     -10.320065      -280.8232
   5   2.0000     -10.312649      -280.6215
   6   2.0000     -10.303951      -280.3847
   7   2.0000     -10.301984      -280.3312
   8   2.0000     -10.301467      -280.3172
   9   2.0000     -10.299810      -280.2721
  10   2.0000     -10.298651      -280.2405
  11   2.0000     -10.297841      -280.2185
  12   2.0000     -10.295066      -280.1430
  13   2.0000     -10.291024      -280.0330
  14   2.0000     -10.284235      -279.8483
  15   2.0000     -10.279722      -279.7255
  16   2.0000      -8.082819      -219.9447
  17   2.0000      -8.080295      -219.8760
  18   2.0000      -6.041305      -164.3923
  19   2.0000      -6.038779      -164.3235
  20   2.0000      -6.037209      -164.2808
  21   2.0000      -6.034633      -164.2107
  22   2.0000      -6.033697      -164.1852
  23   2.0000      -6.031125      -164.1153
  24   2.0000      -1.010360       -27.4933
  25   2.0000      -0.985095       -26.8058
  26   2.0000      -0.906183       -24.6585
  27   2.0000      -0.899611       -24.4797
  28   2.0000      -0.870626       -23.6909
  29   2.0000      -0.844908       -22.9911
  30   2.0000      -0.840417       -22.8689
  31   2.0000      -0.814589       -22.1661
  32   2.0000      -0.778195       -21.1758
  33   2.0000      -0.766264       -20.8511
  34   2.0000      -0.710169       -19.3247
  35   2.0000      -0.705892       -19.2083
  36   2.0000      -0.688230       -18.7277
  37   2.0000      -0.664792       -18.0899
  38   2.0000      -0.640671       -17.4335
  39   2.0000      -0.614292       -16.7157
  40   2.0000      -0.579691       -15.7742
  41   2.0000      -0.572196       -15.5702
  42   2.0000      -0.552167       -15.0252
  43   2.0000      -0.543891       -14.8000
  44   2.0000      -0.539256       -14.6739
  45   2.0000      -0.533355       -14.5133
  46   2.0000      -0.513085       -13.9618
  47   2.0000      -0.507604       -13.8126
  48   2.0000      -0.505091       -13.7442
  49   2.0000      -0.496474       -13.5098
  50   2.0000      -0.485525       -13.2118
  51   2.0000      -0.476250       -12.9594
  52   2.0000      -0.470329       -12.7983
  53   2.0000      -0.464323       -12.6349
  54   2.0000      -0.460500       -12.5309
  55   2.0000      -0.441277       -12.0077
  56   2.0000      -0.436433       -11.8760
  57   2.0000      -0.434925       -11.8349
  58   2.0000      -0.430303       -11.7091
  59   2.0000      -0.425200       -11.5703
  60   2.0000      -0.422093       -11.4857
  61   2.0000      -0.419749       -11.4219
  62   2.0000      -0.408172       -11.1069
  63   2.0000      -0.346408        -9.4262
  64   2.0000      -0.330938        -9.0053
  65   2.0000      -0.328609        -8.9419
  66   2.0000      -0.293268        -7.9802
  67   0.0000       0.028718         0.7815
  68   0.0000       0.068624         1.8674
  69   0.0000       0.110886         3.0174
  70   0.0000       0.121304         3.3009
  71   0.0000       0.131368         3.5747

MULLIKEN ATOMIC CHARGES
-----------------------
   0 S :    0.114737
   1 C :   -0.112722
   2 C :   -0.090700
   3 C :    0.020829
   4 C :   -0.179581
   5 H :    0.032907
   6 C :    0.010406
   7 H :    0.031270
   8 H :    0.024243
   9 C :   -0.022495
  10 H :    0.018072
  11 H :    0.039178
  12 C :   -0.069251
  13 H :    0.029243
  14 H :    0.042987
  15 H :    0.020879
  16 S :    0.127246
  17 C :   -0.102776
  18 C :   -0.048315
  19 C :   -0.054114
  20 C :   -0.138939
  21 H :    0.020652
  22 C :    0.027385
  23 H :    0.038011
  24 H :    0.012337
  25 C :   -0.060607
  26 H :    0.075619
  27 H :    0.036983
  28 C :   -0.081328
  29 H :    0.045214
  30 H :    0.043371
  31 H :    0.039120
  32 H :    0.049126
  33 H :    0.061013
Sum of atomic charges:   -0.0000000

LOEWDIN ATOMIC CHARGES
----------------------
   0 S :    0.416277
   1 C :   -0.196436
   2 C :   -0.069985
   3 C :   -0.070043
   4 C :   -0.196525
   5 H :    0.038116
   6 C :   -0.041223
   7 H :    0.034977
   8 H :    0.032480
   9 C :   -0.031901
  10 H :    0.014346
  11 H :    0.029729
  12 C :   -0.066745
  13 H :    0.024071
  14 H :    0.033135
  15 H :    0.015491
  16 S :    0.425916
  17 C :   -0.194896
  18 C :   -0.072877
  19 C :   -0.055974
  20 C :   -0.218729
  21 H :    0.029672
  22 C :   -0.043320
  23 H :    0.031541
  24 H :    0.031538
  25 C :   -0.044219
  26 H :    0.041860
  27 H :    0.023806
  28 C :   -0.077564
  29 H :    0.029514
  30 H :    0.032968
  31 H :    0.028986
  32 H :    0.032484
  33 H :    0.033528

  Mayer bond orders larger than 0.100000
B(  0-S ,  1-C ) :   1.1377 B(  0-S ,  4-C ) :   1.1568 B(  1-C ,  2-C ) :   1.6232
B(  1-C , 32-H ) :   0.9712 B(  2-C ,  3-C ) :   1.2307 B(  2-C ,  6-C ) :   1.0249
B(  3-C ,  4-C ) :   1.5658 B(  3-C ,  5-H ) :   0.9883 B(  4-C , 20-C ) :   1.0465
B(  6-C ,  7-H ) :   0.9423 B(  6-C ,  8-H ) :   0.9464 B(  6-C ,  9-C ) :   1.0451
B(  9-C , 10-H ) :   0.9590 B(  9-C , 11-H ) :   0.9636 B(  9-C , 12-C ) :   1.0658
B( 12-C , 13-H ) :   0.9757 B( 12-C , 14-H ) :   0.9740 B( 12-C , 15-H ) :   0.9784
B( 16-S , 17-C ) :   1.1681 B( 16-S , 20-C ) :   1.1486 B( 17-C , 18-C ) :   1.5968
B( 17-C , 20-C ) :   0.1017 B( 17-C , 33-H ) :   0.9644 B( 18-C , 19-C ) :   1.2504
B( 18-C , 21-H ) :   0.9895 B( 19-C , 20-C ) :   1.5757 B( 19-C , 22-C ) :   1.0230
B( 22-C , 23-H ) :   0.9329 B( 22-C , 24-H ) :   0.9363 B( 22-C , 25-C ) :   1.0575
B( 25-C , 26-H ) :   0.9463 B( 25-C , 27-H ) :   0.9566 B( 25-C , 28-C ) :   1.0541
B( 28-C , 29-H ) :   0.9744 B( 28-C , 30-H ) :   0.9759 B( 28-C , 31-H ) :   0.9771

Dispersion correction           -0.016485579
FINAL SINGLE POINT ENERGY     -1339.880899467346

DIPOLE MOMENT
-------------
                                X             Y             Z
Electronic contribution:     26.45870       0.37802      -9.80949
Nuclear contribution   :    -27.08707      -0.39351       9.85043
                        -----------------------------------------
Total Dipole Moment    :     -0.62836      -0.01549       0.04094
                        -----------------------------------------
Magnitude (a.u.)       :      0.62989
Magnitude (Debye)      :      1.60104

Rotational constants in cm-1:     0.020659     0.009870     0.007752
Rotational constants in MHz :   619.342771   295.898435   232.397240

                             ****ORCA TERMINATED NORMALLY****
TOTAL RUN TIME: 0 days 0 hours 0 minutes 21 seconds 992 msec
