                         Program Version 4.2.1 -  RELEASE  -
|  1> ! wB97X-D3 SP def2-SVP
|  2> %pal
|  3> nprocs 24
|  4> end
|  5>
|  6> * xyz 0 1
|  7> S 	 -139.077 	 15.4693 	 -5.09165
|  8> C 	 -139.971 	 14.3041 	 -4.17184
|  9> C 	 -139.321 	 13.9065 	 -3.00867
| 10> C 	 -138.116 	 14.6022 	 -2.88655
| 11> C 	 -137.834 	 15.402 	 -3.97227
| 12> H 	 -137.545 	 14.3851 	 -2.00774
| 13> C 	 -139.763 	 12.9058 	 -1.9223
| 14> H 	 -140.577 	 13.4333 	 -1.40742
| 15> H 	 -138.98 	 12.8173 	 -1.10221
| 16> C 	 -140.2 	 11.5167 	 -2.35833
| 17> H 	 -141.219 	 11.5038 	 -2.7538
| 18> H 	 -139.544 	 11.0386 	 -3.1014
| 19> C 	 -140.396 	 10.6207 	 -1.17122
| 20> H 	 -140.773 	 11.2142 	 -0.447077
| 21> H 	 -141.159 	 9.89455 	 -1.39427
| 22> H 	 -139.429 	 10.1523 	 -0.885233
| 23> S 	 -136.796 	 17.9865 	 -3.48411
| 24> C 	 -135.254 	 18.4848 	 -4.01897
| 25> C 	 -134.541 	 17.4031 	 -4.53204
| 26> C 	 -135.353 	 16.2059 	 -4.62416
| 27> C 	 -136.704 	 16.3649 	 -4.13463
| 28> H 	 -133.48 	 17.4748 	 -4.79677
| 29> C 	 -134.841 	 14.8633 	 -5.11502
| 30> H 	 -134.637 	 15.1119 	 -6.15421
| 31> H 	 -135.639 	 14.2159 	 -5.19942
| 32> C 	 -133.573 	 14.3333 	 -4.39576
| 33> H 	 -133.622 	 14.3195 	 -3.29161
| 34> H 	 -132.748 	 14.9542 	 -4.80338
| 35> C 	 -133.244 	 12.857 	 -4.81759
| 36> H 	 -133.067 	 12.7758 	 -5.88188
| 37> H 	 -134.186 	 12.3241 	 -4.68039
| 38> H 	 -132.527 	 12.288 	 -4.33844
| 39> H 	 -140.841 	 13.7865 	 -4.46331
| 40> H 	 -134.805 	 19.4623 	 -3.86277
| 41> *
| 42>
| 43>                          ****END OF INPUT****

CARTESIAN COORDINATES (ANGSTROEM)
---------------------------------
  S    -139.077000   15.469300   -5.091650
  C    -139.971000   14.304100   -4.171840
  C    -139.321000   13.906500   -3.008670
  C    -138.116000   14.602200   -2.886550
  C    -137.834000   15.402000   -3.972270
  H    -137.545000   14.385100   -2.007740
  C    -139.763000   12.905800   -1.922300
  H    -140.577000   13.433300   -1.407420
  H    -138.980000   12.817300   -1.102210
  C    -140.200000   11.516700   -2.358330
  H    -141.219000   11.503800   -2.753800
  H    -139.544000   11.038600   -3.101400
  C    -140.396000   10.620700   -1.171220
  H    -140.773000   11.214200   -0.447077
  H    -141.159000    9.894550   -1.394270
  H    -139.429000   10.152300   -0.885233
  S    -136.796000   17.986500   -3.484110
  C    -135.254000   18.484800   -4.018970
  C    -134.541000   17.403100   -4.532040
  C    -135.353000   16.205900   -4.624160
  C    -136.704000   16.364900   -4.134630
  H    -133.480000   17.474800   -4.796770
  C    -134.841000   14.863300   -5.115020
  H    -134.637000   15.111900   -6.154210
  H    -135.639000   14.215900   -5.199420
  C    -133.573000   14.333300   -4.395760
  H    -133.622000   14.319500   -3.291610
  H    -132.748000   14.954200   -4.803380
  C    -133.244000   12.857000   -4.817590
  H    -133.067000   12.775800   -5.881880
  H    -134.186000   12.324100   -4.680390
  H    -132.527000   12.288000   -4.338440
  H    -140.841000   13.786500   -4.463310
  H    -134.805000   19.462300   -3.862770

 Total Charge           Charge          ....    0
 Multiplicity           Mult            ....    1
 Number of Electrons    NEL             ....  134
 Basis Dimension        Dim             ....  322

ORBITAL ENERGIES
----------------

  NO   OCC          E(Eh)            E(eV)
   0   2.0000     -88.970716     -2421.0163
   1   2.0000     -88.961252     -2420.7587
   2   2.0000     -10.326462      -280.9973
   3   2.0000     -10.325339      -280.9668
   4   2.0000     -10.315508      -280.6993
   5   2.0000     -10.307119      -280.4710
   6   2.0000     -10.306906      -280.4652
   7   2.0000     -10.302350      -280.3412
   8   2.0000     -10.296426      -280.1800
   9   2.0000     -10.294670      -280.1322
  10   2.0000     -10.294645      -280.1315
  11   2.0000     -10.287142      -279.9274
  12   2.0000     -10.285188      -279.8742
  13   2.0000     -10.282215      -279.7933
  14   2.0000     -10.269785      -279.4550
  15   2.0000     -10.269348      -279.4432
  16   2.0000      -8.086751      -220.0517
  17   2.0000      -8.076441      -219.7711
  18   2.0000      -6.044992      -164.4926
  19   2.0000      -6.040939      -164.3823
  20   2.0000      -6.037856      -164.2984
  21   2.0000      -6.034820      -164.2158
  22   2.0000      -6.030645      -164.1022
  23   2.0000      -6.027556      -164.0181
  24   2.0000      -1.012550       -27.5529
  25   2.0000      -0.984443       -26.7881
  26   2.0000      -0.920027       -25.0352
  27   2.0000      -0.903663       -24.5899
  28   2.0000      -0.872265       -23.7355
  29   2.0000      -0.853453       -23.2236
  30   2.0000      -0.843305       -22.9475
  31   2.0000      -0.811356       -22.0781
  32   2.0000      -0.785349       -21.3704
  33   2.0000      -0.768703       -20.9175
  34   2.0000      -0.705892       -19.2083
  35   2.0000      -0.703269       -19.1369
  36   2.0000      -0.692453       -18.8426
  37   2.0000      -0.647400       -17.6167
  38   2.0000      -0.640204       -17.4208
  39   2.0000      -0.625124       -17.0105
  40   2.0000      -0.592922       -16.1342
  41   2.0000      -0.575794       -15.6682
  42   2.0000      -0.571687       -15.5564
  43   2.0000      -0.562390       -15.3034
  44   2.0000      -0.536295       -14.5933
  45   2.0000      -0.524180       -14.2637
  46   2.0000      -0.519366       -14.1327
  47   2.0000      -0.511768       -13.9259
  48   2.0000      -0.502304       -13.6684
  49   2.0000      -0.499581       -13.5943
  50   2.0000      -0.488165       -13.2836
  51   2.0000      -0.474139       -12.9020
  52   2.0000      -0.468195       -12.7402
  53   2.0000      -0.464267       -12.6333
  54   2.0000      -0.457190       -12.4408
  55   2.0000      -0.452729       -12.3194
  56   2.0000      -0.450054       -12.2466
  57   2.0000      -0.443334       -12.0637
  58   2.0000      -0.433573       -11.7981
  59   2.0000      -0.429493       -11.6871
  60   2.0000      -0.417638       -11.3645
  61   2.0000      -0.415039       -11.2938
  62   2.0000      -0.407881       -11.0990
  63   2.0000      -0.339099        -9.2274
  64   2.0000      -0.324050        -8.8178
  65   2.0000      -0.315464        -8.5842
  66   2.0000      -0.309098        -8.4110
  67   0.0000       0.048945         1.3319
  68   0.0000       0.054564         1.4848
  69   0.0000       0.118807         3.2329
  70   0.0000       0.124694         3.3931
  71   0.0000       0.134827         3.6688

MULLIKEN ATOMIC CHARGES
-----------------------
   0 S :    0.152601
   1 C :   -0.104975
   2 C :   -0.089167
   3 C :    0.047010
   4 C :   -0.173197
   5 H :   -0.003158
   6 C :    0.030217
   7 H :    0.044383
   8 H :    0.029382
   9 C :   -0.089550
  10 H :    0.023555
  11 H :    0.039747
  12 C :   -0.001944
  13 H :   -0.001948
  14 H :    0.025180
  15 H :    0.041849
  16 S :    0.118379
  17 C :   -0.094926
  18 C :   -0.043825
  19 C :   -0.066688
  20 C :   -0.163202
  21 H :    0.027215
  22 C :    0.109478
  23 H :    0.027381
  24 H :   -0.003053
  25 C :   -0.086277
  26 H :    0.049368
  27 H :    0.038170
  28 C :   -0.024838
  29 H :    0.018332
  30 H :    0.017507
  31 H :    0.023044
  32 H :    0.020636
  33 H :    0.063314
Sum of atomic charges:   -0.0000000

LOEWDIN ATOMIC CHARGES
----------------------
   0 S :    0.467667
   1 C :   -0.203512
   2 C :   -0.061492
   3 C :   -0.057494
   4 C :   -0.228198
   5 H :    0.029015
   6 C :   -0.036594
   7 H :    0.038768
   8 H :    0.034147
   9 C :   -0.046480
  10 H :    0.025552
  11 H :    0.026398
  12 C :   -0.051906
  13 H :    0.008948
  14 H :    0.026362
  15 H :    0.029550
  16 S :    0.429397
  17 C :   -0.201400
  18 C :   -0.083922
  19 C :   -0.046216
  20 C :   -0.226427
  21 H :    0.033707
  22 C :   -0.029789
  23 H :    0.037584
  24 H :    0.015408
  25 C :   -0.033238
  26 H :    0.029750
  27 H :    0.026964
  28 C :   -0.065615
  29 H :    0.023110
  30 H :    0.025731
  31 H :    0.014129
  32 H :    0.016139
  33 H :    0.033957

  Mayer bond orders larger than 0.100000
B(  0-S ,  1-C ) :   1.1651 B(  0-S ,  4-C ) :   1.2010 B(  1-C ,  2-C ) :   1.5830
B(  1-C ,  4-C ) :   0.1008 B(  1-C , 32-H ) :   0.9695 B(  2-C ,  3-C ) :   1.3073
B(  2-C ,  6-C ) :   0.9999 B(  3-C ,  4-C ) :   1.5257 B(  3-C ,  5-H ) :   1.0054
B(  4-C , 20-C ) :   0.9749 B(  6-C ,  7-H ) :   0.9244 B(  6-C ,  8-H ) :   0.9524
B(  6-C ,  9-C ) :   1.0699 B(  9-C , 10-H ) :   0.9505 B(  9-C , 11-H ) :   0.9647
B(  9-C , 12-C ) :   1.0868 B( 12-C , 13-H ) :   0.9675 B( 12-C , 14-H ) :   0.9751
B( 12-C , 15-H ) :   0.9740 B( 16-S , 17-C ) :   1.1950 B( 16-S , 20-C ) :   1.1574
B( 17-C , 18-C ) :   1.5557 B( 17-C , 20-C ) :   0.1037 B( 17-C , 33-H ) :   0.9667
B( 18-C , 19-C ) :   1.2815 B( 18-C , 21-H ) :   0.9892 B( 19-C , 20-C ) :   1.5522
B( 19-C , 22-C ) :   1.0427 B( 22-C , 23-H ) :   0.9273 B( 22-C , 24-H ) :   0.9345
B( 22-C , 25-C ) :   1.0469 B( 25-C , 26-H ) :   0.9654 B( 25-C , 27-H ) :   0.9531
B( 25-C , 28-C ) :   1.0781 B( 28-C , 29-H ) :   0.9741 B( 28-C , 30-H ) :   0.9753
B( 28-C , 31-H ) :   0.9793

Dispersion correction           -0.013356541
FINAL SINGLE POINT ENERGY     -1339.857664278921

DIPOLE MOMENT
-------------
                                X             Y             Z
Electronic contribution:     -5.94345      27.06433      -7.04799
Nuclear contribution   :      6.05022     -27.62741       7.27352
                        -----------------------------------------
Total Dipole Moment    :      0.10677      -0.56308       0.22554
                        -----------------------------------------
Magnitude (a.u.)       :      0.61590
Magnitude (Debye)      :      1.56549

Rotational constants in cm-1:     0.018153     0.007723     0.006187
Rotational constants in MHz :   544.199773   231.531612   185.494586

                             ****ORCA TERMINATED NORMALLY****
TOTAL RUN TIME: 0 days 0 hours 0 minutes 20 seconds 774 msec
