                         Program Version 4.2.1 -  RELEASE  -
|  1> ! wB97X-D3 SP def2-SVP
|  2> %pal
|  3> nprocs 24
|  4> end
|  5>
|  6> * xyz 0 1
|  7> S 	 -133.354 	 63.4704 	 -56.4567
|  8> C 	 -133.755 	 65.102 	 -55.9677
|  9> C 	 -133.365 	 66.0349 	 -56.904
| 10> C 	 -132.852 	 65.4003 	 -58.1173
| 11> C 	 -132.806 	 64.043 	 -58.0374
| 12> H 	 -132.541 	 65.8851 	 -58.9426
| 13> C 	 -133.357 	 67.5537 	 -56.681
| 14> H 	 -133.554 	 67.8099 	 -55.6403
| 15> H 	 -134.146 	 67.949 	 -57.3319
| 16> C 	 -131.985 	 68.1653 	 -57.042
| 17> H 	 -131.652 	 67.8787 	 -58.0457
| 18> H 	 -132.103 	 69.2464 	 -56.9976
| 19> C 	 -130.882 	 67.8152 	 -56.0271
| 20> H 	 -129.99 	 68.3347 	 -56.2479
| 21> H 	 -131.267 	 68.2367 	 -55.119
| 22> H 	 -130.727 	 66.7851 	 -55.9767
| 23> S 	 -133.861 	 62.5156 	 -60.0961
| 24> C 	 -132.658 	 61.7186 	 -61.136
| 25> C 	 -131.329 	 61.8602 	 -60.7364
| 26> C 	 -131.329 	 62.6966 	 -59.6058
| 27> C 	 -132.506 	 63.0958 	 -59.1289
| 28> H 	 -130.579 	 61.3671 	 -61.2679
| 29> C 	 -130.046 	 63.2076 	 -59.0668
| 30> H 	 -129.959 	 64.2542 	 -59.1405
| 31> H 	 -129.288 	 63.0306 	 -59.7405
| 32> C 	 -129.641 	 62.7229 	 -57.6105
| 33> H 	 -129.278 	 61.7312 	 -57.6434
| 34> H 	 -130.478 	 62.8313 	 -56.9044
| 35> C 	 -128.524 	 63.624 	 -56.9072
| 36> H 	 -127.51 	 63.6935 	 -57.44
| 37> H 	 -128.215 	 63.3071 	 -55.947
| 38> H 	 -128.86 	 64.627 	 -56.8295
| 39> H 	 -133.965 	 65.3921 	 -54.949
| 40> H 	 -133 	 61.2471 	 -62.0247
| 41> *
| 42>
| 43>                          ****END OF INPUT****

CARTESIAN COORDINATES (ANGSTROEM)
---------------------------------
  S    -133.354000   63.470400  -56.456700
  C    -133.755000   65.102000  -55.967700
  C    -133.365000   66.034900  -56.904000
  C    -132.852000   65.400300  -58.117300
  C    -132.806000   64.043000  -58.037400
  H    -132.541000   65.885100  -58.942600
  C    -133.357000   67.553700  -56.681000
  H    -133.554000   67.809900  -55.640300
  H    -134.146000   67.949000  -57.331900
  C    -131.985000   68.165300  -57.042000
  H    -131.652000   67.878700  -58.045700
  H    -132.103000   69.246400  -56.997600
  C    -130.882000   67.815200  -56.027100
  H    -129.990000   68.334700  -56.247900
  H    -131.267000   68.236700  -55.119000
  H    -130.727000   66.785100  -55.976700
  S    -133.861000   62.515600  -60.096100
  C    -132.658000   61.718600  -61.136000
  C    -131.329000   61.860200  -60.736400
  C    -131.329000   62.696600  -59.605800
  C    -132.506000   63.095800  -59.128900
  H    -130.579000   61.367100  -61.267900
  C    -130.046000   63.207600  -59.066800
  H    -129.959000   64.254200  -59.140500
  H    -129.288000   63.030600  -59.740500
  C    -129.641000   62.722900  -57.610500
  H    -129.278000   61.731200  -57.643400
  H    -130.478000   62.831300  -56.904400
  C    -128.524000   63.624000  -56.907200
  H    -127.510000   63.693500  -57.440000
  H    -128.215000   63.307100  -55.947000
  H    -128.860000   64.627000  -56.829500
  H    -133.965000   65.392100  -54.949000
  H    -133.000000   61.247100  -62.024700

 Total Charge           Charge          ....    0
 Multiplicity           Mult            ....    1
 Number of Electrons    NEL             ....  134
 Basis Dimension        Dim             ....  322

ORBITAL ENERGIES
----------------

  NO   OCC          E(Eh)            E(eV)
   0   2.0000     -88.965789     -2420.8822
   1   2.0000     -88.963807     -2420.8283
   2   2.0000     -10.328847      -281.0622
   3   2.0000     -10.319322      -280.8030
   4   2.0000     -10.317697      -280.7588
   5   2.0000     -10.311090      -280.5790
   6   2.0000     -10.303335      -280.3680
   7   2.0000     -10.296487      -280.1816
   8   2.0000     -10.294034      -280.1149
   9   2.0000     -10.292769      -280.0805
  10   2.0000     -10.288775      -279.9718
  11   2.0000     -10.287302      -279.9317
  12   2.0000     -10.286913      -279.9211
  13   2.0000     -10.277112      -279.6544
  14   2.0000     -10.274844      -279.5927
  15   2.0000     -10.266714      -279.3715
  16   2.0000      -8.080185      -219.8730
  17   2.0000      -8.078001      -219.8136
  18   2.0000      -6.038514      -164.3163
  19   2.0000      -6.036580      -164.2637
  20   2.0000      -6.034939      -164.2190
  21   2.0000      -6.032592      -164.1552
  22   2.0000      -6.030956      -164.1107
  23   2.0000      -6.028702      -164.0493
  24   2.0000      -1.007342       -27.4112
  25   2.0000      -0.983822       -26.7712
  26   2.0000      -0.911840       -24.8124
  27   2.0000      -0.900054       -24.4917
  28   2.0000      -0.869496       -23.6602
  29   2.0000      -0.846915       -23.0457
  30   2.0000      -0.845058       -22.9952
  31   2.0000      -0.818899       -22.2834
  32   2.0000      -0.784943       -21.3594
  33   2.0000      -0.773619       -21.0512
  34   2.0000      -0.710322       -19.3288
  35   2.0000      -0.700053       -19.0494
  36   2.0000      -0.687985       -18.7210
  37   2.0000      -0.672656       -18.3039
  38   2.0000      -0.646187       -17.5836
  39   2.0000      -0.625600       -17.0234
  40   2.0000      -0.602042       -16.3824
  41   2.0000      -0.573032       -15.5930
  42   2.0000      -0.560438       -15.2503
  43   2.0000      -0.555139       -15.1061
  44   2.0000      -0.548408       -14.9229
  45   2.0000      -0.520701       -14.1690
  46   2.0000      -0.517199       -14.0737
  47   2.0000      -0.509231       -13.8569
  48   2.0000      -0.502130       -13.6636
  49   2.0000      -0.493288       -13.4230
  50   2.0000      -0.489764       -13.3272
  51   2.0000      -0.476887       -12.9768
  52   2.0000      -0.469739       -12.7822
  53   2.0000      -0.464324       -12.6349
  54   2.0000      -0.458873       -12.4866
  55   2.0000      -0.448460       -12.2032
  56   2.0000      -0.446361       -12.1461
  57   2.0000      -0.439845       -11.9688
  58   2.0000      -0.430358       -11.7106
  59   2.0000      -0.426767       -11.6129
  60   2.0000      -0.421823       -11.4784
  61   2.0000      -0.418139       -11.3781
  62   2.0000      -0.412311       -11.2196
  63   2.0000      -0.341493        -9.2925
  64   2.0000      -0.330369        -8.9898
  65   2.0000      -0.319331        -8.6894
  66   2.0000      -0.312030        -8.4908
  67   0.0000       0.047792         1.3005
  68   0.0000       0.052417         1.4263
  69   0.0000       0.110211         2.9990
  70   0.0000       0.116730         3.1764
  71   0.0000       0.127520         3.4700

MULLIKEN ATOMIC CHARGES
-----------------------
   0 S :    0.105625
   1 C :   -0.111285
   2 C :   -0.119100
   3 C :    0.104972
   4 C :   -0.182309
   5 H :   -0.036988
   6 C :    0.089876
   7 H :    0.015183
   8 H :    0.045933
   9 C :   -0.114674
  10 H :    0.029608
  11 H :    0.028807
  12 C :   -0.000422
  13 H :    0.025124
  14 H :    0.011302
  15 H :    0.038833
  16 S :    0.112400
  17 C :   -0.097133
  18 C :   -0.000578
  19 C :   -0.012736
  20 C :   -0.163237
  21 H :    0.003521
  22 C :    0.145636
  23 H :   -0.001725
  24 H :   -0.024095
  25 C :   -0.053712
  26 H :    0.028094
  27 H :    0.040825
  28 C :   -0.072895
  29 H :    0.024790
  30 H :    0.023569
  31 H :    0.025781
  32 H :    0.046007
  33 H :    0.045002
Sum of atomic charges:    0.0000000

LOEWDIN ATOMIC CHARGES
----------------------
   0 S :    0.393937
   1 C :   -0.200382
   2 C :   -0.058866
   3 C :   -0.043446
   4 C :   -0.178832
   5 H :    0.011187
   6 C :   -0.026357
   7 H :    0.027091
   8 H :    0.036600
   9 C :   -0.037824
  10 H :    0.018046
  11 H :    0.023421
  12 C :   -0.049139
  13 H :    0.022155
  14 H :    0.022262
  15 H :    0.018137
  16 S :    0.391809
  17 C :   -0.152965
  18 C :   -0.057689
  19 C :   -0.055921
  20 C :   -0.200492
  21 H :    0.028597
  22 C :   -0.028070
  23 H :    0.027320
  24 H :    0.019238
  25 C :   -0.023036
  26 H :    0.017351
  27 H :    0.021736
  28 C :   -0.070758
  29 H :    0.026958
  30 H :    0.018570
  31 H :    0.017048
  32 H :    0.026493
  33 H :    0.015824

  Mayer bond orders larger than 0.100000
B(  0-S ,  1-C ) :   1.1260 B(  0-S ,  4-C ) :   1.1419 B(  1-C ,  2-C ) :   1.6547
B(  1-C , 32-H ) :   0.9617 B(  2-C ,  3-C ) :   1.1900 B(  2-C ,  6-C ) :   1.0185
B(  3-C ,  4-C ) :   1.6309 B(  3-C ,  5-H ) :   1.0090 B(  4-C , 20-C ) :   0.9870
B(  6-C ,  7-H ) :   0.9458 B(  6-C ,  8-H ) :   0.9341 B(  6-C ,  9-C ) :   1.0735
B(  9-C , 10-H ) :   0.9568 B(  9-C , 11-H ) :   0.9577 B(  9-C , 12-C ) :   1.0701
B( 12-C , 13-H ) :   0.9736 B( 12-C , 14-H ) :   0.9719 B( 12-C , 15-H ) :   0.9792
B( 16-S , 17-C ) :   1.1700 B( 16-S , 20-C ) :   1.1205 B( 17-C , 18-C ) :   1.6063
B( 17-C , 33-H ) :   0.9692 B( 18-C , 19-C ) :   1.2112 B( 18-C , 21-H ) :   1.0097
B( 19-C , 20-C ) :   1.6638 B( 19-C , 22-C ) :   1.0467 B( 22-C , 23-H ) :   0.9235
B( 22-C , 24-H ) :   0.9138 B( 22-C , 25-C ) :   1.0433 B( 25-C , 26-H ) :   0.9604
B( 25-C , 27-H ) :   0.9610 B( 25-C , 28-C ) :   1.0693 B( 28-C , 29-H ) :   0.9757
B( 28-C , 30-H ) :   0.9766 B( 28-C , 31-H ) :   0.9790

Dispersion correction           -0.015694026
FINAL SINGLE POINT ENERGY     -1339.863634860250

DIPOLE MOMENT
-------------
                                X             Y             Z
Electronic contribution:    -20.61019     -17.01945      -8.94737
Nuclear contribution   :     21.06748      17.52219       8.78781
                        -----------------------------------------
Total Dipole Moment    :      0.45730       0.50274      -0.15956
                        -----------------------------------------
Magnitude (a.u.)       :      0.69809
Magnitude (Debye)      :      1.77440

Rotational constants in cm-1:     0.018647     0.009773     0.007984
Rotational constants in MHz :   559.019237   292.991979   239.356637

                             ****ORCA TERMINATED NORMALLY****
TOTAL RUN TIME: 0 days 0 hours 0 minutes 21 seconds 692 msec
