                         Program Version 4.2.1 -  RELEASE  -
|  1> ! wB97X-D3 SP def2-SVP
|  2> %pal
|  3> nprocs 24
|  4> end
|  5>
|  6> * xyz 0 1
|  7> S 	 28.0826 	 -8.10906 	 -118.742
|  8> C 	 29.3681 	 -8.79749 	 -119.647
|  9> C 	 30.6437 	 -8.5949 	 -119.074
| 10> C 	 30.4968 	 -8.33569 	 -117.65
| 11> C 	 29.1701 	 -8.0433 	 -117.347
| 12> H 	 31.2359 	 -8.27473 	 -116.888
| 13> C 	 31.9533 	 -8.85492 	 -119.718
| 14> H 	 32.4214 	 -7.84971 	 -119.809
| 15> H 	 31.7023 	 -9.21941 	 -120.718
| 16> C 	 32.8765 	 -9.74912 	 -118.963
| 17> H 	 33.8716 	 -9.65105 	 -119.386
| 18> H 	 32.9738 	 -9.29072 	 -117.919
| 19> C 	 32.463 	 -11.1942 	 -118.712
| 20> H 	 33.0381 	 -11.6338 	 -117.891
| 21> H 	 31.4057 	 -11.2267 	 -118.417
| 22> H 	 32.5882 	 -11.743 	 -119.638
| 23> S 	 27.51 	 -6.14983 	 -116.139
| 24> C 	 27.32 	 -6.26512 	 -114.351
| 25> C 	 28.122 	 -7.25459 	 -113.805
| 26> C 	 28.8686 	 -7.99597 	 -114.798
| 27> C 	 28.675 	 -7.50056 	 -116.086
| 28> H 	 28.1914 	 -7.46376 	 -112.741
| 29> C 	 29.7438 	 -9.17416 	 -114.439
| 30> H 	 30.7027 	 -8.73712 	 -114.025
| 31> H 	 29.9804 	 -9.75325 	 -115.392
| 32> C 	 29.138 	 -10.2275 	 -113.441
| 33> H 	 28.2612 	 -10.6873 	 -114.006
| 34> H 	 28.6237 	 -9.75199 	 -112.575
| 35> C 	 30.1574 	 -11.2405 	 -112.758
| 36> H 	 30.2329 	 -12.226 	 -113.247
| 37> H 	 29.8907 	 -11.3713 	 -111.711
| 38> H 	 31.1368 	 -10.8563 	 -112.715
| 39> H 	 29.2958 	 -8.87272 	 -120.738
| 40> H 	 26.501 	 -5.90254 	 -113.756
| 41> *
| 42>
| 43>                          ****END OF INPUT****

CARTESIAN COORDINATES (ANGSTROEM)
---------------------------------
  S     28.082600   -8.109060  -118.742000
  C     29.368100   -8.797490  -119.647000
  C     30.643700   -8.594900  -119.074000
  C     30.496800   -8.335690  -117.650000
  C     29.170100   -8.043300  -117.347000
  H     31.235900   -8.274730  -116.888000
  C     31.953300   -8.854920  -119.718000
  H     32.421400   -7.849710  -119.809000
  H     31.702300   -9.219410  -120.718000
  C     32.876500   -9.749120  -118.963000
  H     33.871600   -9.651050  -119.386000
  H     32.973800   -9.290720  -117.919000
  C     32.463000  -11.194200  -118.712000
  H     33.038100  -11.633800  -117.891000
  H     31.405700  -11.226700  -118.417000
  H     32.588200  -11.743000  -119.638000
  S     27.510000   -6.149830  -116.139000
  C     27.320000   -6.265120  -114.351000
  C     28.122000   -7.254590  -113.805000
  C     28.868600   -7.995970  -114.798000
  C     28.675000   -7.500560  -116.086000
  H     28.191400   -7.463760  -112.741000
  C     29.743800   -9.174160  -114.439000
  H     30.702700   -8.737120  -114.025000
  H     29.980400   -9.753250  -115.392000
  C     29.138000  -10.227500  -113.441000
  H     28.261200  -10.687300  -114.006000
  H     28.623700   -9.751990  -112.575000
  C     30.157400  -11.240500  -112.758000
  H     30.232900  -12.226000  -113.247000
  H     29.890700  -11.371300  -111.711000
  H     31.136800  -10.856300  -112.715000
  H     29.295800   -8.872720  -120.738000
  H     26.501000   -5.902540  -113.756000

 Total Charge           Charge          ....    0
 Multiplicity           Mult            ....    1
 Number of Electrons    NEL             ....  134
 Basis Dimension        Dim             ....  322

ORBITAL ENERGIES
----------------

  NO   OCC          E(Eh)            E(eV)
   0   2.0000     -88.968671     -2420.9606
   1   2.0000     -88.967964     -2420.9414
   2   2.0000     -10.331129      -281.1243
   3   2.0000     -10.328342      -281.0485
   4   2.0000     -10.319338      -280.8035
   5   2.0000     -10.312466      -280.6165
   6   2.0000     -10.306277      -280.4480
   7   2.0000     -10.303503      -280.3726
   8   2.0000     -10.303175      -280.3636
   9   2.0000     -10.300322      -280.2860
  10   2.0000     -10.297790      -280.2171
  11   2.0000     -10.297497      -280.2091
  12   2.0000     -10.292575      -280.0752
  13   2.0000     -10.289041      -279.9790
  14   2.0000     -10.281805      -279.7821
  15   2.0000     -10.277014      -279.6518
  16   2.0000      -8.083646      -219.9672
  17   2.0000      -8.081200      -219.9006
  18   2.0000      -6.042037      -164.4122
  19   2.0000      -6.039939      -164.3551
  20   2.0000      -6.038383      -164.3128
  21   2.0000      -6.036050      -164.2493
  22   2.0000      -6.034253      -164.2004
  23   2.0000      -6.031683      -164.1304
  24   2.0000      -1.003011       -27.2933
  25   2.0000      -0.976750       -26.5787
  26   2.0000      -0.920421       -25.0459
  27   2.0000      -0.895836       -24.3769
  28   2.0000      -0.867172       -23.5969
  29   2.0000      -0.851359       -23.1667
  30   2.0000      -0.841932       -22.9101
  31   2.0000      -0.815876       -22.2011
  32   2.0000      -0.784002       -21.3338
  33   2.0000      -0.769551       -20.9405
  34   2.0000      -0.709313       -19.3014
  35   2.0000      -0.696642       -18.9566
  36   2.0000      -0.689684       -18.7673
  37   2.0000      -0.655062       -17.8251
  38   2.0000      -0.639802       -17.4099
  39   2.0000      -0.621802       -16.9201
  40   2.0000      -0.589240       -16.0340
  41   2.0000      -0.560968       -15.2647
  42   2.0000      -0.556657       -15.1474
  43   2.0000      -0.553400       -15.0588
  44   2.0000      -0.542432       -14.7603
  45   2.0000      -0.523440       -14.2435
  46   2.0000      -0.514844       -14.0096
  47   2.0000      -0.509155       -13.8548
  48   2.0000      -0.502804       -13.6820
  49   2.0000      -0.494271       -13.4498
  50   2.0000      -0.488273       -13.2866
  51   2.0000      -0.479260       -13.0413
  52   2.0000      -0.468267       -12.7422
  53   2.0000      -0.460572       -12.5328
  54   2.0000      -0.457891       -12.4599
  55   2.0000      -0.454602       -12.3704
  56   2.0000      -0.451440       -12.2843
  57   2.0000      -0.442794       -12.0490
  58   2.0000      -0.431152       -11.7322
  59   2.0000      -0.425242       -11.5714
  60   2.0000      -0.420710       -11.4481
  61   2.0000      -0.413335       -11.2474
  62   2.0000      -0.409921       -11.1545
  63   2.0000      -0.349540        -9.5115
  64   2.0000      -0.331366        -9.0169
  65   2.0000      -0.327427        -8.9097
  66   2.0000      -0.285469        -7.7680
  67   0.0000       0.022403         0.6096
  68   0.0000       0.064779         1.7627
  69   0.0000       0.101777         2.7695
  70   0.0000       0.114673         3.1204
  71   0.0000       0.125867         3.4250

MULLIKEN ATOMIC CHARGES
-----------------------
   0 S :    0.116747
   1 C :   -0.097508
   2 C :   -0.149038
   3 C :    0.019986
   4 C :   -0.152613
   5 H :    0.013348
   6 C :    0.106030
   7 H :    0.047253
   8 H :    0.012356
   9 C :   -0.112289
  10 H :    0.028740
  11 H :    0.024575
  12 C :   -0.029955
  13 H :    0.039033
  14 H :    0.041218
  15 H :    0.031700
  16 S :    0.089965
  17 C :   -0.085186
  18 C :   -0.036778
  19 C :   -0.045940
  20 C :   -0.143145
  21 H :    0.027862
  22 C :    0.020342
  23 H :    0.047309
  24 H :    0.054190
  25 C :   -0.127117
  26 H :    0.049655
  27 H :    0.030564
  28 C :   -0.033485
  29 H :    0.046705
  30 H :    0.032426
  31 H :    0.017187
  32 H :    0.054746
  33 H :    0.061115
Sum of atomic charges:   -0.0000000

LOEWDIN ATOMIC CHARGES
----------------------
   0 S :    0.410869
   1 C :   -0.222353
   2 C :   -0.051951
   3 C :   -0.055666
   4 C :   -0.179340
   5 H :    0.026558
   6 C :   -0.038437
   7 H :    0.045904
   8 H :    0.028662
   9 C :   -0.049649
  10 H :    0.023898
  11 H :    0.027685
  12 C :   -0.063923
  13 H :    0.029899
  14 H :    0.030021
  15 H :    0.023808
  16 S :    0.363870
  17 C :   -0.176548
  18 C :   -0.061971
  19 C :   -0.063554
  20 C :   -0.186480
  21 H :    0.032340
  22 C :   -0.045449
  23 H :    0.035161
  24 H :    0.040274
  25 C :   -0.050230
  26 H :    0.035448
  27 H :    0.021650
  28 C :   -0.066200
  29 H :    0.030709
  30 H :    0.029155
  31 H :    0.018941
  32 H :    0.025646
  33 H :    0.031252

  Mayer bond orders larger than 0.100000
B(  0-S ,  1-C ) :   1.1376 B(  0-S ,  4-C ) :   1.1497 B(  1-C ,  2-C ) :   1.6163
B(  1-C , 32-H ) :   0.9538 B(  2-C ,  3-C ) :   1.2016 B(  2-C ,  6-C ) :   1.0379
B(  3-C ,  4-C ) :   1.5721 B(  3-C ,  5-H ) :   0.9932 B(  4-C , 20-C ) :   1.0661
B(  6-C ,  7-H ) :   0.9197 B(  6-C ,  8-H ) :   0.9361 B(  6-C ,  9-C ) :   1.0864
B(  9-C , 10-H ) :   0.9510 B(  9-C , 11-H ) :   0.9477 B(  9-C , 12-C ) :   1.0747
B( 12-C , 13-H ) :   0.9739 B( 12-C , 14-H ) :   0.9717 B( 12-C , 15-H ) :   0.9743
B( 16-S , 17-C ) :   1.1209 B( 16-S , 20-C ) :   1.1140 B( 17-C , 18-C ) :   1.6460
B( 17-C , 33-H ) :   0.9618 B( 18-C , 19-C ) :   1.2248 B( 18-C , 21-H ) :   0.9809
B( 19-C , 20-C ) :   1.6133 B( 19-C , 22-C ) :   1.0470 B( 22-C , 23-H ) :   0.9313
B( 22-C , 24-H ) :   0.9341 B( 22-C , 25-C ) :   1.0488 B( 25-C , 26-H ) :   0.9603
B( 25-C , 27-H ) :   0.9663 B( 25-C , 28-C ) :   1.0531 B( 28-C , 29-H ) :   0.9790
B( 28-C , 30-H ) :   0.9810 B( 28-C , 31-H ) :   0.9765

Dispersion correction           -0.014172177
FINAL SINGLE POINT ENERGY     -1339.870643458152

DIPOLE MOMENT
-------------
                                X             Y             Z
Electronic contribution:    -20.38073      20.96686      -8.42181
Nuclear contribution   :     20.92575     -21.29672       8.66162
                        -----------------------------------------
Total Dipole Moment    :      0.54502      -0.32986       0.23981
                        -----------------------------------------
Magnitude (a.u.)       :      0.68071
Magnitude (Debye)      :      1.73022

Rotational constants in cm-1:     0.016064     0.009857     0.006709
Rotational constants in MHz :   481.572294   295.491738   201.119270

                             ****ORCA TERMINATED NORMALLY****
TOTAL RUN TIME: 0 days 0 hours 0 minutes 21 seconds 832 msec
