                         Program Version 4.2.1 -  RELEASE  -
|  1> ! wB97X-D3 SP def2-SVP
|  2> %pal
|  3> nprocs 24
|  4> end
|  5>
|  6> * xyz 0 1
|  7> S 	 37.4434 	 -34.0343 	 -114.31
|  8> C 	 36.4593 	 -34.5468 	 -115.659
|  9> C 	 37.2208 	 -34.6294 	 -116.841
| 10> C 	 38.5852 	 -34.2722 	 -116.502
| 11> C 	 38.84 	 -33.7906 	 -115.269
| 12> H 	 39.3603 	 -34.3078 	 -117.229
| 13> C 	 36.6565 	 -34.8477 	 -118.147
| 14> H 	 35.5818 	 -35.2416 	 -118.072
| 15> H 	 37.1485 	 -35.7076 	 -118.597
| 16> C 	 36.558 	 -33.6798 	 -119.183
| 17> H 	 35.8595 	 -34.017 	 -119.972
| 18> H 	 35.9923 	 -32.8373 	 -118.646
| 19> C 	 37.8209 	 -33.1368 	 -119.819
| 20> H 	 38.1843 	 -33.8971 	 -120.536
| 21> H 	 37.7269 	 -32.1363 	 -120.186
| 22> H 	 38.5915 	 -33.149 	 -119.088
| 23> S 	 40.1352 	 -31.596 	 -114.247
| 24> C 	 41.9401 	 -31.7008 	 -113.914
| 25> C 	 42.3611 	 -32.9743 	 -114.038
| 26> C 	 41.3417 	 -33.8871 	 -114.46
| 27> C 	 40.1072 	 -33.2638 	 -114.728
| 28> H 	 43.3233 	 -33.1622 	 -113.841
| 29> C 	 41.4958 	 -35.3675 	 -114.695
| 30> H 	 40.6155 	 -35.8293 	 -115.116
| 31> H 	 41.6274 	 -35.8674 	 -113.762
| 32> C 	 42.6219 	 -35.8992 	 -115.712
| 33> H 	 42.7209 	 -36.9628 	 -115.576
| 34> H 	 43.6216 	 -35.5549 	 -115.502
| 35> C 	 42.2792 	 -35.5635 	 -117.153
| 36> H 	 43.0543 	 -35.8886 	 -117.84
| 37> H 	 42.2267 	 -34.5076 	 -117.289
| 38> H 	 41.3188 	 -35.9479 	 -117.422
| 39> H 	 35.4292 	 -34.6422 	 -115.681
| 40> H 	 42.5576 	 -30.8613 	 -113.538
| 41> *
| 42>
| 43>                          ****END OF INPUT****

CARTESIAN COORDINATES (ANGSTROEM)
---------------------------------
  S     37.443400  -34.034300  -114.310000
  C     36.459300  -34.546800  -115.659000
  C     37.220800  -34.629400  -116.841000
  C     38.585200  -34.272200  -116.502000
  C     38.840000  -33.790600  -115.269000
  H     39.360300  -34.307800  -117.229000
  C     36.656500  -34.847700  -118.147000
  H     35.581800  -35.241600  -118.072000
  H     37.148500  -35.707600  -118.597000
  C     36.558000  -33.679800  -119.183000
  H     35.859500  -34.017000  -119.972000
  H     35.992300  -32.837300  -118.646000
  C     37.820900  -33.136800  -119.819000
  H     38.184300  -33.897100  -120.536000
  H     37.726900  -32.136300  -120.186000
  H     38.591500  -33.149000  -119.088000
  S     40.135200  -31.596000  -114.247000
  C     41.940100  -31.700800  -113.914000
  C     42.361100  -32.974300  -114.038000
  C     41.341700  -33.887100  -114.460000
  C     40.107200  -33.263800  -114.728000
  H     43.323300  -33.162200  -113.841000
  C     41.495800  -35.367500  -114.695000
  H     40.615500  -35.829300  -115.116000
  H     41.627400  -35.867400  -113.762000
  C     42.621900  -35.899200  -115.712000
  H     42.720900  -36.962800  -115.576000
  H     43.621600  -35.554900  -115.502000
  C     42.279200  -35.563500  -117.153000
  H     43.054300  -35.888600  -117.840000
  H     42.226700  -34.507600  -117.289000
  H     41.318800  -35.947900  -117.422000
  H     35.429200  -34.642200  -115.681000
  H     42.557600  -30.861300  -113.538000

 Total Charge           Charge          ....    0
 Multiplicity           Mult            ....    1
 Number of Electrons    NEL             ....  134
 Basis Dimension        Dim             ....  322

ORBITAL ENERGIES
----------------

  NO   OCC          E(Eh)            E(eV)
   0   2.0000     -88.964462     -2420.8461
   1   2.0000     -88.964117     -2420.8367
   2   2.0000     -10.330497      -281.1071
   3   2.0000     -10.325652      -280.9753
   4   2.0000     -10.325205      -280.9631
   5   2.0000     -10.310511      -280.5633
   6   2.0000     -10.308638      -280.5123
   7   2.0000     -10.301108      -280.3074
   8   2.0000     -10.296696      -280.1874
   9   2.0000     -10.294310      -280.1224
  10   2.0000     -10.290023      -280.0058
  11   2.0000     -10.289559      -279.9931
  12   2.0000     -10.288579      -279.9665
  13   2.0000     -10.285403      -279.8800
  14   2.0000     -10.273297      -279.5506
  15   2.0000     -10.269430      -279.4454
  16   2.0000      -8.079559      -219.8560
  17   2.0000      -8.078378      -219.8238
  18   2.0000      -6.038090      -164.3048
  19   2.0000      -6.037000      -164.2751
  20   2.0000      -6.033852      -164.1895
  21   2.0000      -6.033060      -164.1679
  22   2.0000      -6.030354      -164.0943
  23   2.0000      -6.028993      -164.0572
  24   2.0000      -1.008959       -27.4552
  25   2.0000      -0.983931       -26.7741
  26   2.0000      -0.914634       -24.8884
  27   2.0000      -0.901313       -24.5260
  28   2.0000      -0.874274       -23.7902
  29   2.0000      -0.848886       -23.0994
  30   2.0000      -0.846751       -23.0413
  31   2.0000      -0.826636       -22.4939
  32   2.0000      -0.785762       -21.3817
  33   2.0000      -0.769969       -20.9519
  34   2.0000      -0.709026       -19.2936
  35   2.0000      -0.700528       -19.0623
  36   2.0000      -0.698444       -19.0056
  37   2.0000      -0.662041       -18.0151
  38   2.0000      -0.644517       -17.5382
  39   2.0000      -0.622920       -16.9505
  40   2.0000      -0.597756       -16.2658
  41   2.0000      -0.579441       -15.7674
  42   2.0000      -0.554562       -15.0904
  43   2.0000      -0.544902       -14.8275
  44   2.0000      -0.544156       -14.8072
  45   2.0000      -0.539711       -14.6863
  46   2.0000      -0.523895       -14.2559
  47   2.0000      -0.516114       -14.0442
  48   2.0000      -0.508732       -13.8433
  49   2.0000      -0.501956       -13.6589
  50   2.0000      -0.493884       -13.4393
  51   2.0000      -0.476621       -12.9695
  52   2.0000      -0.473544       -12.8858
  53   2.0000      -0.470322       -12.7981
  54   2.0000      -0.458895       -12.4872
  55   2.0000      -0.443697       -12.0736
  56   2.0000      -0.435893       -11.8613
  57   2.0000      -0.432949       -11.7811
  58   2.0000      -0.429859       -11.6971
  59   2.0000      -0.425249       -11.5716
  60   2.0000      -0.423524       -11.5247
  61   2.0000      -0.415433       -11.3045
  62   2.0000      -0.410738       -11.1768
  63   2.0000      -0.346000        -9.4151
  64   2.0000      -0.327871        -8.9218
  65   2.0000      -0.323722        -8.8089
  66   2.0000      -0.303639        -8.2624
  67   0.0000       0.037513         1.0208
  68   0.0000       0.062038         1.6881
  69   0.0000       0.108464         2.9515
  70   0.0000       0.116573         3.1721
  71   0.0000       0.131754         3.5852

MULLIKEN ATOMIC CHARGES
-----------------------
   0 S :    0.119324
   1 C :   -0.085426
   2 C :   -0.078563
   3 C :    0.042723
   4 C :   -0.147387
   5 H :   -0.010718
   6 C :    0.021259
   7 H :    0.027878
   8 H :    0.027240
   9 C :   -0.102353
  10 H :    0.034253
  11 H :    0.034809
  12 C :   -0.000607
  13 H :    0.027313
  14 H :    0.042599
  15 H :    0.006603
  16 S :    0.091760
  17 C :   -0.107536
  18 C :    0.031411
  19 C :    0.006074
  20 C :   -0.173590
  21 H :   -0.029576
  22 C :    0.060056
  23 H :    0.023902
  24 H :    0.028198
  25 C :   -0.069084
  26 H :    0.022061
  27 H :    0.015654
  28 C :   -0.033991
  29 H :    0.032138
  30 H :    0.029054
  31 H :    0.023678
  32 H :    0.018814
  33 H :    0.072031
Sum of atomic charges:    0.0000000

LOEWDIN ATOMIC CHARGES
----------------------
   0 S :    0.423339
   1 C :   -0.183807
   2 C :   -0.063452
   3 C :   -0.060168
   4 C :   -0.212323
   5 H :    0.018975
   6 C :   -0.046921
   7 H :    0.043438
   8 H :    0.031299
   9 C :   -0.043909
  10 H :    0.025499
  11 H :    0.030027
  12 C :   -0.065678
  13 H :    0.030049
  14 H :    0.029336
  15 H :    0.018920
  16 S :    0.375979
  17 C :   -0.153582
  18 C :   -0.054069
  19 C :   -0.050329
  20 C :   -0.199755
  21 H :    0.014524
  22 C :   -0.028914
  23 H :    0.031385
  24 H :    0.029571
  25 C :   -0.034657
  26 H :    0.021613
  27 H :    0.015694
  28 C :   -0.062591
  29 H :    0.027809
  30 H :    0.022352
  31 H :    0.018212
  32 H :    0.012927
  33 H :    0.039207

  Mayer bond orders larger than 0.100000
B(  0-S ,  1-C ) :   1.1502 B(  0-S ,  4-C ) :   1.1542 B(  1-C ,  2-C ) :   1.5900
B(  1-C , 32-H ) :   0.9729 B(  2-C ,  3-C ) :   1.2291 B(  2-C ,  6-C ) :   1.0638
B(  3-C ,  4-C ) :   1.5958 B(  3-C ,  5-H ) :   0.9975 B(  4-C , 20-C ) :   0.9979
B(  6-C ,  7-H ) :   0.9332 B(  6-C ,  8-H ) :   0.9274 B(  6-C ,  9-C ) :   1.0631
B(  9-C , 10-H ) :   0.9563 B(  9-C , 11-H ) :   0.9542 B(  9-C , 12-C ) :   1.0753
B( 12-C , 13-H ) :   0.9708 B( 12-C , 14-H ) :   0.9704 B( 12-C , 15-H ) :   0.9737
B( 16-S , 17-C ) :   1.1250 B( 16-S , 20-C ) :   1.1461 B( 17-C , 18-C ) :   1.6405
B( 17-C , 33-H ) :   0.9630 B( 18-C , 19-C ) :   1.2012 B( 18-C , 21-H ) :   1.0133
B( 19-C , 20-C ) :   1.5948 B( 19-C , 22-C ) :   1.0542 B( 22-C , 23-H ) :   0.9377
B( 22-C , 24-H ) :   0.9292 B( 22-C , 25-C ) :   1.0607 B( 25-C , 26-H ) :   0.9557
B( 25-C , 27-H ) :   0.9587 B( 25-C , 28-C ) :   1.0785 B( 28-C , 29-H ) :   0.9695
B( 28-C , 30-H ) :   0.9755 B( 28-C , 31-H ) :   0.9718

Dispersion correction           -0.015224852
FINAL SINGLE POINT ENERGY     -1339.867091087437

DIPOLE MOMENT
-------------
                                X             Y             Z
Electronic contribution:     -5.16669      11.04230      22.72303
Nuclear contribution   :      5.49411     -11.32977     -23.12219
                        -----------------------------------------
Total Dipole Moment    :      0.32742      -0.28746      -0.39917
                        -----------------------------------------
Magnitude (a.u.)       :      0.59091
Magnitude (Debye)      :      1.50197

Rotational constants in cm-1:     0.017785     0.009190     0.007896
Rotational constants in MHz :   533.180429   275.503381   236.703453

                             ****ORCA TERMINATED NORMALLY****
TOTAL RUN TIME: 0 days 0 hours 0 minutes 22 seconds 396 msec
