                         Program Version 4.2.1 -  RELEASE  -
|  1> ! wB97X-D3 SP def2-SVP
|  2> %pal
|  3> nprocs 24
|  4> end
|  5>
|  6> * xyz 0 1
|  7> S 	 -60.8113 	 9.57139 	 -13.9381
|  8> C 	 -60.1583 	 8.28647 	 -14.8503
|  9> C 	 -60.8822 	 7.12111 	 -14.6116
| 10> C 	 -62.0598 	 7.38296 	 -13.8088
| 11> C 	 -62.1517 	 8.64927 	 -13.3631
| 12> H 	 -62.7625 	 6.69679 	 -13.5056
| 13> C 	 -60.7065 	 5.74504 	 -15.2108
| 14> H 	 -61.0481 	 5.04238 	 -14.496
| 15> H 	 -59.6976 	 5.51395 	 -15.3475
| 16> C 	 -61.6248 	 5.38395 	 -16.3596
| 17> H 	 -62.6568 	 5.58923 	 -15.9743
| 18> H 	 -61.4144 	 6.11396 	 -17.0991
| 19> C 	 -61.5705 	 3.98532 	 -16.878
| 20> H 	 -62.066 	 3.41326 	 -16.097
| 21> H 	 -61.9264 	 3.77861 	 -17.8496
| 22> H 	 -60.5384 	 3.73716 	 -16.9655
| 23> S 	 -62.6802 	 10.4714 	 -11.2864
| 24> C 	 -64.3275 	 10.9768 	 -11.0798
| 25> C 	 -65.2331 	 10.2657 	 -11.8702
| 26> C 	 -64.5321 	 9.39963 	 -12.8021
| 27> C 	 -63.1627 	 9.34028 	 -12.5839
| 28> H 	 -66.2151 	 10.562 	 -11.8148
| 29> C 	 -65.3329 	 8.58858 	 -13.7428
| 30> H 	 -64.741 	 8.14015 	 -14.5162
| 31> H 	 -65.9274 	 9.31177 	 -14.2733
| 32> C 	 -66.312 	 7.66355 	 -13.0775
| 33> H 	 -67.1436 	 7.52796 	 -13.7388
| 34> H 	 -66.6936 	 8.14011 	 -12.1975
| 35> C 	 -65.733 	 6.31232 	 -12.6231
| 36> H 	 -65.3969 	 5.77803 	 -13.4834
| 37> H 	 -66.4611 	 5.71588 	 -12.0605
| 38> H 	 -64.8408 	 6.38496 	 -12.0852
| 39> H 	 -59.3104 	 8.42302 	 -15.5122
| 40> H 	 -64.6659 	 11.7765 	 -10.368
| 41> *
| 42>
| 43>                          ****END OF INPUT****

CARTESIAN COORDINATES (ANGSTROEM)
---------------------------------
  S    -60.811300    9.571390  -13.938100
  C    -60.158300    8.286470  -14.850300
  C    -60.882200    7.121110  -14.611600
  C    -62.059800    7.382960  -13.808800
  C    -62.151700    8.649270  -13.363100
  H    -62.762500    6.696790  -13.505600
  C    -60.706500    5.745040  -15.210800
  H    -61.048100    5.042380  -14.496000
  H    -59.697600    5.513950  -15.347500
  C    -61.624800    5.383950  -16.359600
  H    -62.656800    5.589230  -15.974300
  H    -61.414400    6.113960  -17.099100
  C    -61.570500    3.985320  -16.878000
  H    -62.066000    3.413260  -16.097000
  H    -61.926400    3.778610  -17.849600
  H    -60.538400    3.737160  -16.965500
  S    -62.680200   10.471400  -11.286400
  C    -64.327500   10.976800  -11.079800
  C    -65.233100   10.265700  -11.870200
  C    -64.532100    9.399630  -12.802100
  C    -63.162700    9.340280  -12.583900
  H    -66.215100   10.562000  -11.814800
  C    -65.332900    8.588580  -13.742800
  H    -64.741000    8.140150  -14.516200
  H    -65.927400    9.311770  -14.273300
  C    -66.312000    7.663550  -13.077500
  H    -67.143600    7.527960  -13.738800
  H    -66.693600    8.140110  -12.197500
  C    -65.733000    6.312320  -12.623100
  H    -65.396900    5.778030  -13.483400
  H    -66.461100    5.715880  -12.060500
  H    -64.840800    6.384960  -12.085200
  H    -59.310400    8.423020  -15.512200
  H    -64.665900   11.776500  -10.368000

 Total Charge           Charge          ....    0
 Multiplicity           Mult            ....    1
 Number of Electrons    NEL             ....  134
 Basis Dimension        Dim             ....  322

ORBITAL ENERGIES
----------------

  NO   OCC          E(Eh)            E(eV)
   0   2.0000     -88.966846     -2420.9110
   1   2.0000     -88.960005     -2420.7248
   2   2.0000     -10.327263      -281.0191
   3   2.0000     -10.322567      -280.8913
   4   2.0000     -10.322439      -280.8878
   5   2.0000     -10.313277      -280.6385
   6   2.0000     -10.304706      -280.4053
   7   2.0000     -10.303347      -280.3683
   8   2.0000     -10.291216      -280.0382
   9   2.0000     -10.285223      -279.8752
  10   2.0000     -10.281957      -279.7863
  11   2.0000     -10.280727      -279.7528
  12   2.0000     -10.279943      -279.7315
  13   2.0000     -10.279524      -279.7201
  14   2.0000     -10.271610      -279.5047
  15   2.0000     -10.270378      -279.4712
  16   2.0000      -8.081194      -219.9005
  17   2.0000      -8.076406      -219.7702
  18   2.0000      -6.039716      -164.3490
  19   2.0000      -6.035825      -164.2431
  20   2.0000      -6.034816      -164.2157
  21   2.0000      -6.031896      -164.1362
  22   2.0000      -6.030563      -164.1000
  23   2.0000      -6.027265      -164.0102
  24   2.0000      -1.011346       -27.5201
  25   2.0000      -0.985080       -26.8054
  26   2.0000      -0.921543       -25.0765
  27   2.0000      -0.918305       -24.9883
  28   2.0000      -0.873233       -23.7619
  29   2.0000      -0.854912       -23.2633
  30   2.0000      -0.848599       -23.0916
  31   2.0000      -0.819756       -22.3067
  32   2.0000      -0.789963       -21.4960
  33   2.0000      -0.777095       -21.1458
  34   2.0000      -0.712175       -19.3793
  35   2.0000      -0.699786       -19.0421
  36   2.0000      -0.693512       -18.8714
  37   2.0000      -0.663211       -18.0469
  38   2.0000      -0.650416       -17.6987
  39   2.0000      -0.627887       -17.0857
  40   2.0000      -0.602282       -16.3889
  41   2.0000      -0.583244       -15.8709
  42   2.0000      -0.568381       -15.4664
  43   2.0000      -0.555539       -15.1170
  44   2.0000      -0.540063       -14.6959
  45   2.0000      -0.526129       -14.3167
  46   2.0000      -0.523242       -14.2381
  47   2.0000      -0.521115       -14.1803
  48   2.0000      -0.507166       -13.8007
  49   2.0000      -0.503285       -13.6951
  50   2.0000      -0.495151       -13.4737
  51   2.0000      -0.483398       -13.1539
  52   2.0000      -0.475908       -12.9501
  53   2.0000      -0.467118       -12.7109
  54   2.0000      -0.460547       -12.5321
  55   2.0000      -0.452128       -12.3030
  56   2.0000      -0.448166       -12.1952
  57   2.0000      -0.442351       -12.0370
  58   2.0000      -0.428042       -11.6476
  59   2.0000      -0.423716       -11.5299
  60   2.0000      -0.421760       -11.4767
  61   2.0000      -0.418878       -11.3982
  62   2.0000      -0.410051       -11.1580
  63   2.0000      -0.351220        -9.5572
  64   2.0000      -0.329309        -8.9610
  65   2.0000      -0.327600        -8.9145
  66   2.0000      -0.291989        -7.9454
  67   0.0000       0.035819         0.9747
  68   0.0000       0.072294         1.9672
  69   0.0000       0.112332         3.0567
  70   0.0000       0.121615         3.3093
  71   0.0000       0.125226         3.4076

MULLIKEN ATOMIC CHARGES
-----------------------
   0 S :    0.106132
   1 C :   -0.126290
   2 C :   -0.078926
   3 C :    0.033972
   4 C :   -0.122511
   5 H :   -0.044682
   6 C :    0.109931
   7 H :   -0.005070
   8 H :    0.004426
   9 C :   -0.086879
  10 H :    0.021618
  11 H :    0.011621
  12 C :    0.013138
  13 H :    0.031436
  14 H :    0.028892
  15 H :    0.013873
  16 S :    0.108128
  17 C :   -0.113324
  18 C :   -0.011442
  19 C :   -0.050008
  20 C :   -0.144210
  21 H :   -0.002750
  22 C :    0.098536
  23 H :    0.014287
  24 H :    0.014768
  25 C :   -0.046968
  26 H :    0.021691
  27 H :    0.019269
  28 C :   -0.024528
  29 H :    0.011195
  30 H :    0.039934
  31 H :    0.026121
  32 H :    0.052875
  33 H :    0.075744
Sum of atomic charges:    0.0000000

LOEWDIN ATOMIC CHARGES
----------------------
   0 S :    0.429623
   1 C :   -0.207393
   2 C :   -0.055715
   3 C :   -0.058026
   4 C :   -0.192915
   5 H :    0.015122
   6 C :   -0.029971
   7 H :    0.025834
   8 H :    0.018771
   9 C :   -0.039159
  10 H :    0.023867
  11 H :    0.013137
  12 C :   -0.057138
  13 H :    0.029564
  14 H :    0.025208
  15 H :    0.022954
  16 S :    0.391373
  17 C :   -0.186611
  18 C :   -0.067213
  19 C :   -0.042935
  20 C :   -0.198484
  21 H :    0.018891
  22 C :   -0.032457
  23 H :    0.026318
  24 H :    0.035158
  25 C :   -0.029366
  26 H :    0.022258
  27 H :    0.021672
  28 C :   -0.059827
  29 H :    0.018466
  30 H :    0.030701
  31 H :    0.017226
  32 H :    0.030510
  33 H :    0.040557

  Mayer bond orders larger than 0.100000
B(  0-S ,  1-C ) :   1.1560 B(  0-S ,  4-C ) :   1.1541 B(  1-C ,  2-C ) :   1.5877
B(  1-C , 32-H ) :   0.9770 B(  2-C ,  3-C ) :   1.2156 B(  2-C ,  6-C ) :   1.0473
B(  3-C ,  4-C ) :   1.5916 B(  3-C ,  5-H ) :   1.0170 B(  4-C , 20-C ) :   1.0324
B(  6-C ,  7-H ) :   0.9265 B(  6-C ,  8-H ) :   0.9355 B(  6-C ,  9-C ) :   1.0546
B(  9-C , 10-H ) :   0.9581 B(  9-C , 11-H ) :   0.9535 B(  9-C , 12-C ) :   1.0782
B( 12-C , 13-H ) :   0.9744 B( 12-C , 14-H ) :   0.9716 B( 12-C , 15-H ) :   0.9711
B( 16-S , 17-C ) :   1.1591 B( 16-S , 20-C ) :   1.1130 B( 17-C , 18-C ) :   1.6306
B( 17-C , 33-H ) :   0.9578 B( 18-C , 19-C ) :   1.2004 B( 18-C , 21-H ) :   0.9975
B( 19-C , 20-C ) :   1.6096 B( 19-C , 22-C ) :   1.0700 B( 22-C , 23-H ) :   0.9328
B( 22-C , 24-H ) :   0.9102 B( 22-C , 25-C ) :   1.0760 B( 25-C , 26-H ) :   0.9517
B( 25-C , 27-H ) :   0.9531 B( 25-C , 28-C ) :   1.0781 B( 28-C , 29-H ) :   0.9716
B( 28-C , 30-H ) :   0.9709 B( 28-C , 31-H ) :   0.9713

Dispersion correction           -0.014693363
FINAL SINGLE POINT ENERGY     -1339.870945318399

DIPOLE MOMENT
-------------
                                X             Y             Z
Electronic contribution:     11.85652      25.58113      12.95164
Nuclear contribution   :    -12.30920     -25.94541     -13.28055
                        -----------------------------------------
Total Dipole Moment    :     -0.45268      -0.36428      -0.32891
                        -----------------------------------------
Magnitude (a.u.)       :      0.66768
Magnitude (Debye)      :      1.69712

Rotational constants in cm-1:     0.019490     0.009216     0.006662
Rotational constants in MHz :   584.280855   276.287293   199.718435

                             ****ORCA TERMINATED NORMALLY****
TOTAL RUN TIME: 0 days 0 hours 0 minutes 21 seconds 73 msec
