                         Program Version 4.2.1 -  RELEASE  -
|  1> ! wB97X-D3 SP def2-SVP
|  2> %pal
|  3> nprocs 24
|  4> end
|  5>
|  6> * xyz 0 1
|  7> S 	 -94.2273 	 6.2949 	 -2.12589
|  8> C 	 -92.8022 	 6.60225 	 -3.05752
|  9> C 	 -91.6507 	 6.47057 	 -2.29203
| 10> C 	 -91.9737 	 6.10931 	 -0.949312
| 11> C 	 -93.3354 	 5.81349 	 -0.751925
| 12> H 	 -91.2834 	 5.98063 	 -0.172165
| 13> C 	 -90.1949 	 6.65815 	 -2.70122
| 14> H 	 -89.6155 	 6.74081 	 -1.75948
| 15> H 	 -90.1008 	 7.58704 	 -3.20246
| 16> C 	 -89.7207 	 5.56038 	 -3.68853
| 17> H 	 -89.8742 	 4.53132 	 -3.25541
| 18> H 	 -90.2678 	 5.50877 	 -4.59716
| 19> C 	 -88.2284 	 5.74588 	 -3.92683
| 20> H 	 -87.6597 	 5.71991 	 -2.96314
| 21> H 	 -87.8372 	 4.99628 	 -4.63131
| 22> H 	 -88.0479 	 6.75882 	 -4.46891
| 23> S 	 -95.5246 	 6.12544 	 0.837496
| 24> C 	 -95.7146 	 4.95994 	 2.19762
| 25> C 	 -94.6799 	 4.04597 	 2.23666
| 26> C 	 -93.7169 	 4.20766 	 1.17345
| 27> C 	 -94.0442 	 5.28901 	 0.377247
| 28> H 	 -94.6617 	 3.33438 	 2.98877
| 29> C 	 -92.6404 	 3.19888 	 1.01237
| 30> H 	 -91.9934 	 3.23387 	 1.93641
| 31> H 	 -91.9888 	 3.45961 	 0.138936
| 32> C 	 -93.1128 	 1.76335 	 0.743075
| 33> H 	 -93.7394 	 1.49666 	 1.62562
| 34> H 	 -92.185 	 1.19937 	 0.755593
| 35> C 	 -93.7676 	 1.60264 	 -0.637573
| 36> H 	 -93.1689 	 1.91944 	 -1.51898
| 37> H 	 -94.6304 	 2.27635 	 -0.714709
| 38> H 	 -94.1455 	 0.621992 	 -0.978462
| 39> H 	 -92.7237 	 6.55103 	 -4.15124
| 40> H 	 -96.5217 	 5.11218 	 2.90929
| 41> *
| 42>
| 43>                          ****END OF INPUT****

CARTESIAN COORDINATES (ANGSTROEM)
---------------------------------
  S    -94.227300    6.294900   -2.125890
  C    -92.802200    6.602250   -3.057520
  C    -91.650700    6.470570   -2.292030
  C    -91.973700    6.109310   -0.949312
  C    -93.335400    5.813490   -0.751925
  H    -91.283400    5.980630   -0.172165
  C    -90.194900    6.658150   -2.701220
  H    -89.615500    6.740810   -1.759480
  H    -90.100800    7.587040   -3.202460
  C    -89.720700    5.560380   -3.688530
  H    -89.874200    4.531320   -3.255410
  H    -90.267800    5.508770   -4.597160
  C    -88.228400    5.745880   -3.926830
  H    -87.659700    5.719910   -2.963140
  H    -87.837200    4.996280   -4.631310
  H    -88.047900    6.758820   -4.468910
  S    -95.524600    6.125440    0.837496
  C    -95.714600    4.959940    2.197620
  C    -94.679900    4.045970    2.236660
  C    -93.716900    4.207660    1.173450
  C    -94.044200    5.289010    0.377247
  H    -94.661700    3.334380    2.988770
  C    -92.640400    3.198880    1.012370
  H    -91.993400    3.233870    1.936410
  H    -91.988800    3.459610    0.138936
  C    -93.112800    1.763350    0.743075
  H    -93.739400    1.496660    1.625620
  H    -92.185000    1.199370    0.755593
  C    -93.767600    1.602640   -0.637573
  H    -93.168900    1.919440   -1.518980
  H    -94.630400    2.276350   -0.714709
  H    -94.145500    0.621992   -0.978462
  H    -92.723700    6.551030   -4.151240
  H    -96.521700    5.112180    2.909290

 Total Charge           Charge          ....    0
 Multiplicity           Mult            ....    1
 Number of Electrons    NEL             ....  134
 Basis Dimension        Dim             ....  322

ORBITAL ENERGIES
----------------

  NO   OCC          E(Eh)            E(eV)
   0   2.0000     -88.965291     -2420.8686
   1   2.0000     -88.964845     -2420.8565
   2   2.0000     -10.326320      -280.9935
   3   2.0000     -10.324476      -280.9433
   4   2.0000     -10.322905      -280.9005
   5   2.0000     -10.308929      -280.5202
   6   2.0000     -10.302258      -280.3387
   7   2.0000     -10.299324      -280.2589
   8   2.0000     -10.295946      -280.1669
   9   2.0000     -10.294049      -280.1153
  10   2.0000     -10.294045      -280.1152
  11   2.0000     -10.292211      -280.0653
  12   2.0000     -10.290437      -280.0170
  13   2.0000     -10.289343      -279.9872
  14   2.0000     -10.289250      -279.9847
  15   2.0000     -10.278393      -279.6893
  16   2.0000      -8.080639      -219.8854
  17   2.0000      -8.079463      -219.8534
  18   2.0000      -6.039041      -164.3307
  19   2.0000      -6.038011      -164.3026
  20   2.0000      -6.034893      -164.2178
  21   2.0000      -6.034236      -164.1999
  22   2.0000      -6.031550      -164.1268
  23   2.0000      -6.030032      -164.0855
  24   2.0000      -1.009690       -27.4751
  25   2.0000      -0.981773       -26.7154
  26   2.0000      -0.914465       -24.8839
  27   2.0000      -0.909535       -24.7497
  28   2.0000      -0.871040       -23.7022
  29   2.0000      -0.850265       -23.1369
  30   2.0000      -0.843445       -22.9513
  31   2.0000      -0.810186       -22.0463
  32   2.0000      -0.780891       -21.2491
  33   2.0000      -0.770635       -20.9700
  34   2.0000      -0.707336       -19.2476
  35   2.0000      -0.702624       -19.1194
  36   2.0000      -0.692418       -18.8416
  37   2.0000      -0.666348       -18.1323
  38   2.0000      -0.639257       -17.3951
  39   2.0000      -0.620146       -16.8750
  40   2.0000      -0.599210       -16.3053
  41   2.0000      -0.569669       -15.5015
  42   2.0000      -0.560995       -15.2654
  43   2.0000      -0.553248       -15.0546
  44   2.0000      -0.541224       -14.7275
  45   2.0000      -0.523338       -14.2407
  46   2.0000      -0.516593       -14.0572
  47   2.0000      -0.510855       -13.9011
  48   2.0000      -0.501047       -13.6342
  49   2.0000      -0.494967       -13.4687
  50   2.0000      -0.491884       -13.3848
  51   2.0000      -0.472743       -12.8640
  52   2.0000      -0.468781       -12.7562
  53   2.0000      -0.464395       -12.6368
  54   2.0000      -0.457676       -12.4540
  55   2.0000      -0.452942       -12.3252
  56   2.0000      -0.445150       -12.1131
  57   2.0000      -0.441629       -12.0173
  58   2.0000      -0.431217       -11.7340
  59   2.0000      -0.420956       -11.4548
  60   2.0000      -0.419179       -11.4065
  61   2.0000      -0.418543       -11.3891
  62   2.0000      -0.415640       -11.3101
  63   2.0000      -0.350408        -9.5351
  64   2.0000      -0.331160        -9.0113
  65   2.0000      -0.329825        -8.9750
  66   2.0000      -0.283899        -7.7253
  67   0.0000       0.027060         0.7364
  68   0.0000       0.068167         1.8549
  69   0.0000       0.099976         2.7205
  70   0.0000       0.119278         3.2457
  71   0.0000       0.131222         3.5707

MULLIKEN ATOMIC CHARGES
-----------------------
   0 S :    0.113827
   1 C :   -0.115706
   2 C :   -0.118010
   3 C :    0.058085
   4 C :   -0.173296
   5 H :   -0.012430
   6 C :    0.082571
   7 H :    0.028878
   8 H :    0.024103
   9 C :   -0.078677
  10 H :    0.033372
  11 H :    0.024952
  12 C :   -0.077338
  13 H :    0.044451
  14 H :    0.039051
  15 H :    0.037127
  16 S :    0.090856
  17 C :   -0.099554
  18 C :   -0.001430
  19 C :   -0.026561
  20 C :   -0.136342
  21 H :   -0.004649
  22 C :    0.012122
  23 H :    0.045369
  24 H :    0.028215
  25 C :   -0.039385
  26 H :    0.037310
  27 H :    0.032694
  28 C :   -0.073629
  29 H :    0.030871
  30 H :    0.037538
  31 H :    0.037075
  32 H :    0.055492
  33 H :    0.063049
Sum of atomic charges:   -0.0000000

LOEWDIN ATOMIC CHARGES
----------------------
   0 S :    0.435754
   1 C :   -0.223314
   2 C :   -0.057748
   3 C :   -0.063857
   4 C :   -0.202380
   5 H :    0.018680
   6 C :   -0.024962
   7 H :    0.035312
   8 H :    0.027482
   9 C :   -0.041612
  10 H :    0.028830
  11 H :    0.018974
  12 C :   -0.075091
  13 H :    0.029713
  14 H :    0.025204
  15 H :    0.031557
  16 S :    0.370552
  17 C :   -0.161854
  18 C :   -0.054317
  19 C :   -0.059938
  20 C :   -0.193099
  21 H :    0.019399
  22 C :   -0.040455
  23 H :    0.039310
  24 H :    0.032674
  25 C :   -0.037354
  26 H :    0.026589
  27 H :    0.026129
  28 C :   -0.079229
  29 H :    0.031397
  30 H :    0.029111
  31 H :    0.028117
  32 H :    0.032245
  33 H :    0.028179

  Mayer bond orders larger than 0.100000
B(  0-S ,  1-C ) :   1.1443 B(  0-S ,  4-C ) :   1.1844 B(  1-C ,  2-C ) :   1.5976
B(  1-C ,  4-C ) :   0.1052 B(  1-C , 32-H ) :   0.9614 B(  2-C ,  3-C ) :   1.2686
B(  2-C ,  6-C ) :   1.0158 B(  3-C ,  4-C ) :   1.5261 B(  3-C ,  5-H ) :   1.0028
B(  4-C , 20-C ) :   1.0458 B(  6-C ,  7-H ) :   0.9478 B(  6-C ,  8-H ) :   0.9356
B(  6-C ,  9-C ) :   1.0536 B(  9-C , 10-H ) :   0.9555 B(  9-C , 11-H ) :   0.9556
B(  9-C , 12-C ) :   1.0870 B( 12-C , 13-H ) :   0.9742 B( 12-C , 14-H ) :   0.9733
B( 12-C , 15-H ) :   0.9719 B( 16-S , 17-C ) :   1.1236 B( 16-S , 20-C ) :   1.1307
B( 17-C , 18-C ) :   1.6365 B( 17-C , 33-H ) :   0.9703 B( 18-C , 19-C ) :   1.1888
B( 18-C , 21-H ) :   1.0001 B( 19-C , 20-C ) :   1.6181 B( 19-C , 22-C ) :   1.0585
B( 22-C , 23-H ) :   0.9290 B( 22-C , 24-H ) :   0.9296 B( 22-C , 25-C ) :   1.0739
B( 25-C , 26-H ) :   0.9551 B( 25-C , 27-H ) :   0.9533 B( 25-C , 28-C ) :   1.0604
B( 28-C , 29-H ) :   0.9717 B( 28-C , 30-H ) :   0.9761 B( 28-C , 31-H ) :   0.9768

Dispersion correction           -0.014524564
FINAL SINGLE POINT ENERGY     -1339.883482363416

DIPOLE MOMENT
-------------
                                X             Y             Z
Electronic contribution:    -22.95631      14.53842       8.15503
Nuclear contribution   :     23.51521     -14.98355      -8.10201
                        -----------------------------------------
Total Dipole Moment    :      0.55890      -0.44513       0.05302
                        -----------------------------------------
Magnitude (a.u.)       :      0.71647
Magnitude (Debye)      :      1.82111

Rotational constants in cm-1:     0.020948     0.008304     0.006782
Rotational constants in MHz :   628.012840   248.934332   203.320736

                             ****ORCA TERMINATED NORMALLY****
TOTAL RUN TIME: 0 days 0 hours 0 minutes 21 seconds 957 msec
