                         Program Version 4.2.1 -  RELEASE  -
|  1> ! wB97X-D3 SP def2-SVP
|  2> %pal
|  3> nprocs 24
|  4> end
|  5>
|  6> * xyz 0 1
|  7> S 	 -69.3528 	 -44.7669 	 -89.1867
|  8> C 	 -68.7488 	 -43.8392 	 -90.5005
|  9> C 	 -67.7671 	 -44.49 	 -91.308
| 10> C 	 -67.5963 	 -45.8117 	 -90.7991
| 11> C 	 -68.362 	 -46.1402 	 -89.6429
| 12> H 	 -66.7583 	 -46.4887 	 -91.1528
| 13> C 	 -67.0508 	 -43.7965 	 -92.496
| 14> H 	 -67.739 	 -43.3385 	 -93.1625
| 15> H 	 -66.6548 	 -44.5435 	 -93.173
| 16> C 	 -65.8228 	 -43.028 	 -92.0166
| 17> H 	 -65.5457 	 -42.1762 	 -92.7669
| 18> H 	 -65.9893 	 -42.7124 	 -90.9621
| 19> C 	 -64.5002 	 -43.8461 	 -91.9702
| 20> H 	 -64.7999 	 -44.8502 	 -91.7236
| 21> H 	 -64.0406 	 -43.8124 	 -92.9614
| 22> H 	 -63.8647 	 -43.5413 	 -91.173
| 23> S 	 -67.9677 	 -46.9851 	 -86.9937
| 24> C 	 -67.7719 	 -48.6466 	 -86.6161
| 25> C 	 -67.565 	 -49.387 	 -87.7865
| 26> C 	 -67.8597 	 -48.6785 	 -89.0029
| 27> C 	 -68.0642 	 -47.3122 	 -88.717
| 28> H 	 -67.2502 	 -50.4775 	 -87.7551
| 29> C 	 -67.7969 	 -49.3178 	 -90.3886
| 30> H 	 -67.2117 	 -50.3154 	 -90.4381
| 31> H 	 -67.1694 	 -48.6709 	 -91.0181
| 32> C 	 -69.1097 	 -49.3597 	 -91.222
| 33> H 	 -68.8954 	 -49.7221 	 -92.2395
| 34> H 	 -69.5003 	 -48.3728 	 -91.3391
| 35> C 	 -70.0772 	 -50.2258 	 -90.5314
| 36> H 	 -69.8399 	 -51.3137 	 -90.6198
| 37> H 	 -71.0531 	 -50.0707 	 -90.9743
| 38> H 	 -70.153 	 -50.0856 	 -89.4174
| 39> H 	 -69.2365 	 -42.9356 	 -90.7582
| 40> H 	 -67.5387 	 -48.9669 	 -85.6059
| 41> *
| 42>
| 43>                          ****END OF INPUT****

CARTESIAN COORDINATES (ANGSTROEM)
---------------------------------
  S    -69.352800  -44.766900  -89.186700
  C    -68.748800  -43.839200  -90.500500
  C    -67.767100  -44.490000  -91.308000
  C    -67.596300  -45.811700  -90.799100
  C    -68.362000  -46.140200  -89.642900
  H    -66.758300  -46.488700  -91.152800
  C    -67.050800  -43.796500  -92.496000
  H    -67.739000  -43.338500  -93.162500
  H    -66.654800  -44.543500  -93.173000
  C    -65.822800  -43.028000  -92.016600
  H    -65.545700  -42.176200  -92.766900
  H    -65.989300  -42.712400  -90.962100
  C    -64.500200  -43.846100  -91.970200
  H    -64.799900  -44.850200  -91.723600
  H    -64.040600  -43.812400  -92.961400
  H    -63.864700  -43.541300  -91.173000
  S    -67.967700  -46.985100  -86.993700
  C    -67.771900  -48.646600  -86.616100
  C    -67.565000  -49.387000  -87.786500
  C    -67.859700  -48.678500  -89.002900
  C    -68.064200  -47.312200  -88.717000
  H    -67.250200  -50.477500  -87.755100
  C    -67.796900  -49.317800  -90.388600
  H    -67.211700  -50.315400  -90.438100
  H    -67.169400  -48.670900  -91.018100
  C    -69.109700  -49.359700  -91.222000
  H    -68.895400  -49.722100  -92.239500
  H    -69.500300  -48.372800  -91.339100
  C    -70.077200  -50.225800  -90.531400
  H    -69.839900  -51.313700  -90.619800
  H    -71.053100  -50.070700  -90.974300
  H    -70.153000  -50.085600  -89.417400
  H    -69.236500  -42.935600  -90.758200
  H    -67.538700  -48.966900  -85.605900

 Total Charge           Charge          ....    0
 Multiplicity           Mult            ....    1
 Number of Electrons    NEL             ....  134
 Basis Dimension        Dim             ....  322

ORBITAL ENERGIES
----------------

  NO   OCC          E(Eh)            E(eV)
   0   2.0000     -88.975502     -2421.1465
   1   2.0000     -88.968124     -2420.9457
   2   2.0000     -10.339272      -281.3459
   3   2.0000     -10.335697      -281.2486
   4   2.0000     -10.316575      -280.7283
   5   2.0000     -10.316184      -280.7176
   6   2.0000     -10.312734      -280.6237
   7   2.0000     -10.308897      -280.5194
   8   2.0000     -10.306958      -280.4666
   9   2.0000     -10.301903      -280.3290
  10   2.0000     -10.298915      -280.2477
  11   2.0000     -10.295931      -280.1665
  12   2.0000     -10.295593      -280.1573
  13   2.0000     -10.278899      -279.7031
  14   2.0000     -10.274430      -279.5815
  15   2.0000     -10.268743      -279.4267
  16   2.0000      -8.090093      -220.1426
  17   2.0000      -8.083189      -219.9548
  18   2.0000      -6.048442      -164.5865
  19   2.0000      -6.044417      -164.4770
  20   2.0000      -6.041598      -164.4003
  21   2.0000      -6.041248      -164.3907
  22   2.0000      -6.037604      -164.2916
  23   2.0000      -6.034083      -164.1958
  24   2.0000      -1.002982       -27.2925
  25   2.0000      -0.984104       -26.7788
  26   2.0000      -0.911527       -24.8039
  27   2.0000      -0.909375       -24.7453
  28   2.0000      -0.858744       -23.3676
  29   2.0000      -0.852287       -23.1919
  30   2.0000      -0.845579       -23.0094
  31   2.0000      -0.809015       -22.0144
  32   2.0000      -0.783309       -21.3149
  33   2.0000      -0.771030       -20.9808
  34   2.0000      -0.699574       -19.0364
  35   2.0000      -0.692030       -18.8311
  36   2.0000      -0.681712       -18.5503
  37   2.0000      -0.658208       -17.9108
  38   2.0000      -0.641151       -17.4466
  39   2.0000      -0.617156       -16.7937
  40   2.0000      -0.592895       -16.1335
  41   2.0000      -0.573601       -15.6085
  42   2.0000      -0.551734       -15.0135
  43   2.0000      -0.549185       -14.9441
  44   2.0000      -0.547509       -14.8985
  45   2.0000      -0.539234       -14.6733
  46   2.0000      -0.513162       -13.9639
  47   2.0000      -0.507625       -13.8132
  48   2.0000      -0.495999       -13.4968
  49   2.0000      -0.488242       -13.2857
  50   2.0000      -0.483875       -13.1669
  51   2.0000      -0.480402       -13.0724
  52   2.0000      -0.474598       -12.9145
  53   2.0000      -0.464131       -12.6297
  54   2.0000      -0.458480       -12.4759
  55   2.0000      -0.450076       -12.2472
  56   2.0000      -0.445709       -12.1284
  57   2.0000      -0.433245       -11.7892
  58   2.0000      -0.429658       -11.6916
  59   2.0000      -0.424647       -11.5552
  60   2.0000      -0.417114       -11.3503
  61   2.0000      -0.413018       -11.2388
  62   2.0000      -0.403730       -10.9861
  63   2.0000      -0.350412        -9.5352
  64   2.0000      -0.336116        -9.1462
  65   2.0000      -0.330256        -8.9867
  66   2.0000      -0.285732        -7.7752
  67   0.0000       0.022260         0.6057
  68   0.0000       0.067595         1.8394
  69   0.0000       0.105965         2.8835
  70   0.0000       0.115217         3.1352
  71   0.0000       0.130018         3.5380

MULLIKEN ATOMIC CHARGES
-----------------------
   0 S :    0.132007
   1 C :   -0.115854
   2 C :   -0.120603
   3 C :   -0.002940
   4 C :   -0.149790
   5 H :    0.049770
   6 C :    0.100864
   7 H :    0.027865
   8 H :    0.009377
   9 C :   -0.117606
  10 H :    0.046430
  11 H :    0.047341
  12 C :   -0.031265
  13 H :    0.008387
  14 H :    0.041029
  15 H :    0.035911
  16 S :    0.112167
  17 C :   -0.101780
  18 C :   -0.059964
  19 C :   -0.029436
  20 C :   -0.154825
  21 H :    0.044074
  22 C :    0.006131
  23 H :    0.040333
  24 H :    0.017369
  25 C :   -0.035387
  26 H :    0.028076
  27 H :    0.031291
  28 C :   -0.064607
  29 H :    0.022026
  30 H :    0.027872
  31 H :    0.047003
  32 H :    0.044212
  33 H :    0.064522
Sum of atomic charges:    0.0000000

LOEWDIN ATOMIC CHARGES
----------------------
   0 S :    0.435183
   1 C :   -0.200740
   2 C :   -0.058503
   3 C :   -0.070591
   4 C :   -0.208095
   5 H :    0.038559
   6 C :   -0.034105
   7 H :    0.030014
   8 H :    0.030314
   9 C :   -0.047393
  10 H :    0.034403
  11 H :    0.028927
  12 C :   -0.062341
  13 H :    0.017748
  14 H :    0.026112
  15 H :    0.025538
  16 S :    0.421670
  17 C :   -0.206985
  18 C :   -0.075966
  19 C :   -0.063722
  20 C :   -0.192912
  21 H :    0.041061
  22 C :   -0.040117
  23 H :    0.039740
  24 H :    0.027231
  25 C :   -0.038522
  26 H :    0.028564
  27 H :    0.022905
  28 C :   -0.074980
  29 H :    0.024932
  30 H :    0.022265
  31 H :    0.032471
  32 H :    0.017687
  33 H :    0.029650

  Mayer bond orders larger than 0.100000
B(  0-S ,  1-C ) :   1.1849 B(  0-S ,  4-C ) :   1.1726 B(  1-C ,  2-C ) :   1.5383
B(  1-C ,  4-C ) :   0.1076 B(  1-C , 32-H ) :   0.9698 B(  2-C ,  3-C ) :   1.3273
B(  2-C ,  6-C ) :   1.0227 B(  3-C ,  4-C ) :   1.5096 B(  3-C ,  5-H ) :   0.9643
B(  4-C , 20-C ) :   1.0285 B(  6-C ,  7-H ) :   0.9444 B(  6-C ,  8-H ) :   0.9426
B(  6-C ,  9-C ) :   1.0371 B(  9-C , 10-H ) :   0.9607 B(  9-C , 11-H ) :   0.9633
B(  9-C , 12-C ) :   1.0735 B( 12-C , 13-H ) :   0.9763 B( 12-C , 14-H ) :   0.9781
B( 12-C , 15-H ) :   0.9747 B( 16-S , 17-C ) :   1.1678 B( 16-S , 20-C ) :   1.1662
B( 17-C , 18-C ) :   1.5750 B( 17-C , 33-H ) :   0.9679 B( 18-C , 19-C ) :   1.2692
B( 18-C , 21-H ) :   0.9770 B( 19-C , 20-C ) :   1.5633 B( 19-C , 22-C ) :   1.0305
B( 22-C , 23-H ) :   0.9453 B( 22-C , 24-H ) :   0.9343 B( 22-C , 25-C ) :   1.0736
B( 25-C , 26-H ) :   0.9488 B( 25-C , 27-H ) :   0.9520 B( 25-C , 28-C ) :   1.0860
B( 28-C , 29-H ) :   0.9718 B( 28-C , 30-H ) :   0.9725 B( 28-C , 31-H ) :   0.9733

Dispersion correction           -0.014659166
FINAL SINGLE POINT ENERGY     -1339.864642305306

DIPOLE MOMENT
-------------
                                X             Y             Z
Electronic contribution:     -8.74197       5.07555      20.43586
Nuclear contribution   :      9.09475      -5.09636     -20.92739
                        -----------------------------------------
Total Dipole Moment    :      0.35278      -0.02081      -0.49153
                        -----------------------------------------
Magnitude (a.u.)       :      0.60539
Magnitude (Debye)      :      1.53877

Rotational constants in cm-1:     0.019021     0.008298     0.007480
Rotational constants in MHz :   570.245962   248.777322   224.255721

                             ****ORCA TERMINATED NORMALLY****
TOTAL RUN TIME: 0 days 0 hours 0 minutes 21 seconds 654 msec
