                         Program Version 4.2.1 -  RELEASE  -
|  1> ! wB97X-D3 SP def2-SVP
|  2> %pal
|  3> nprocs 24
|  4> end
|  5>
|  6> * xyz 0 1
|  7> S 	 39.2781 	 -17.3549 	 -112.37
|  8> C 	 38.9209 	 -18.2762 	 -113.822
|  9> C 	 38.3638 	 -19.5429 	 -113.487
| 10> C 	 38.2899 	 -19.7611 	 -112.08
| 11> C 	 38.7803 	 -18.6928 	 -111.343
| 12> H 	 37.9142 	 -20.6178 	 -111.641
| 13> C 	 37.8555 	 -20.6421 	 -114.445
| 14> H 	 37.6504 	 -20.1805 	 -115.407
| 15> H 	 36.8702 	 -20.9958 	 -114.132
| 16> C 	 38.9238 	 -21.7437 	 -114.663
| 17> H 	 39.5826 	 -21.5242 	 -115.455
| 18> H 	 39.4728 	 -21.9069 	 -113.781
| 19> C 	 38.0751 	 -22.9941 	 -115.058
| 20> H 	 37.2797 	 -22.6423 	 -115.751
| 21> H 	 38.5684 	 -23.852 	 -115.481
| 22> H 	 37.501 	 -23.386 	 -114.248
| 23> S 	 37.3812 	 -17.5586 	 -109.211
| 24> C 	 37.8581 	 -17.9145 	 -107.568
| 25> C 	 38.9004 	 -18.8644 	 -107.573
| 26> C 	 39.2894 	 -19.2822 	 -108.853
| 27> C 	 38.6327 	 -18.6216 	 -109.894
| 28> H 	 39.4309 	 -19.1496 	 -106.686
| 29> C 	 40.5163 	 -20.1938 	 -109.007
| 30> H 	 41.1372 	 -20.0212 	 -108.148
| 31> H 	 41.1203 	 -19.7507 	 -109.792
| 32> C 	 40.2787 	 -21.6865 	 -109.298
| 33> H 	 41.356 	 -22.1195 	 -109.339
| 34> H 	 39.8352 	 -21.8927 	 -110.319
| 35> C 	 39.573 	 -22.3676 	 -108.133
| 36> H 	 38.5096 	 -22.1765 	 -108.119
| 37> H 	 39.9388 	 -22.0625 	 -107.177
| 38> H 	 39.7188 	 -23.4662 	 -108.213
| 39> H 	 39.0215 	 -17.9838 	 -114.843
| 40> H 	 37.4272 	 -17.4839 	 -106.7
| 41> *
| 42>
| 43>                          ****END OF INPUT****

CARTESIAN COORDINATES (ANGSTROEM)
---------------------------------
  S     39.278100  -17.354900  -112.370000
  C     38.920900  -18.276200  -113.822000
  C     38.363800  -19.542900  -113.487000
  C     38.289900  -19.761100  -112.080000
  C     38.780300  -18.692800  -111.343000
  H     37.914200  -20.617800  -111.641000
  C     37.855500  -20.642100  -114.445000
  H     37.650400  -20.180500  -115.407000
  H     36.870200  -20.995800  -114.132000
  C     38.923800  -21.743700  -114.663000
  H     39.582600  -21.524200  -115.455000
  H     39.472800  -21.906900  -113.781000
  C     38.075100  -22.994100  -115.058000
  H     37.279700  -22.642300  -115.751000
  H     38.568400  -23.852000  -115.481000
  H     37.501000  -23.386000  -114.248000
  S     37.381200  -17.558600  -109.211000
  C     37.858100  -17.914500  -107.568000
  C     38.900400  -18.864400  -107.573000
  C     39.289400  -19.282200  -108.853000
  C     38.632700  -18.621600  -109.894000
  H     39.430900  -19.149600  -106.686000
  C     40.516300  -20.193800  -109.007000
  H     41.137200  -20.021200  -108.148000
  H     41.120300  -19.750700  -109.792000
  C     40.278700  -21.686500  -109.298000
  H     41.356000  -22.119500  -109.339000
  H     39.835200  -21.892700  -110.319000
  C     39.573000  -22.367600  -108.133000
  H     38.509600  -22.176500  -108.119000
  H     39.938800  -22.062500  -107.177000
  H     39.718800  -23.466200  -108.213000
  H     39.021500  -17.983800  -114.843000
  H     37.427200  -17.483900  -106.700000

 Total Charge           Charge          ....    0
 Multiplicity           Mult            ....    1
 Number of Electrons    NEL             ....  134
 Basis Dimension        Dim             ....  322

ORBITAL ENERGIES
----------------

  NO   OCC          E(Eh)            E(eV)
   0   2.0000     -88.973053     -2421.0799
   1   2.0000     -88.965023     -2420.8614
   2   2.0000     -10.329818      -281.0886
   3   2.0000     -10.326507      -280.9986
   4   2.0000     -10.318517      -280.7811
   5   2.0000     -10.317444      -280.7519
   6   2.0000     -10.304274      -280.3935
   7   2.0000     -10.299182      -280.2550
   8   2.0000     -10.297031      -280.1965
   9   2.0000     -10.295401      -280.1521
  10   2.0000     -10.290773      -280.0262
  11   2.0000     -10.289724      -279.9976
  12   2.0000     -10.286958      -279.9224
  13   2.0000     -10.284372      -279.8520
  14   2.0000     -10.276718      -279.6437
  15   2.0000     -10.274089      -279.5722
  16   2.0000      -8.086861      -220.0547
  17   2.0000      -8.079208      -219.8464
  18   2.0000      -6.045435      -164.5046
  19   2.0000      -6.041434      -164.3958
  20   2.0000      -6.037678      -164.2936
  21   2.0000      -6.037667      -164.2933
  22   2.0000      -6.033618      -164.1831
  23   2.0000      -6.030239      -164.0911
  24   2.0000      -1.001162       -27.2430
  25   2.0000      -0.978944       -26.6384
  26   2.0000      -0.911128       -24.7931
  27   2.0000      -0.904674       -24.6174
  28   2.0000      -0.865273       -23.5453
  29   2.0000      -0.849859       -23.1258
  30   2.0000      -0.846639       -23.0382
  31   2.0000      -0.808129       -21.9903
  32   2.0000      -0.780690       -21.2436
  33   2.0000      -0.768129       -20.9019
  34   2.0000      -0.712799       -19.3963
  35   2.0000      -0.705581       -19.1998
  36   2.0000      -0.688196       -18.7268
  37   2.0000      -0.663711       -18.0605
  38   2.0000      -0.646043       -17.5797
  39   2.0000      -0.620950       -16.8969
  40   2.0000      -0.589760       -16.0482
  41   2.0000      -0.566542       -15.4164
  42   2.0000      -0.562574       -15.3084
  43   2.0000      -0.549980       -14.9657
  44   2.0000      -0.542560       -14.7638
  45   2.0000      -0.526073       -14.3152
  46   2.0000      -0.519300       -14.1309
  47   2.0000      -0.509006       -13.8508
  48   2.0000      -0.502005       -13.6603
  49   2.0000      -0.495726       -13.4894
  50   2.0000      -0.488591       -13.2952
  51   2.0000      -0.480388       -13.0720
  52   2.0000      -0.470273       -12.7968
  53   2.0000      -0.464817       -12.6483
  54   2.0000      -0.454468       -12.3667
  55   2.0000      -0.452233       -12.3059
  56   2.0000      -0.444885       -12.1059
  57   2.0000      -0.438447       -11.9308
  58   2.0000      -0.434290       -11.8176
  59   2.0000      -0.428750       -11.6669
  60   2.0000      -0.423266       -11.5177
  61   2.0000      -0.417571       -11.3627
  62   2.0000      -0.405373       -11.0307
  63   2.0000      -0.340382        -9.2623
  64   2.0000      -0.330420        -8.9912
  65   2.0000      -0.324163        -8.8209
  66   2.0000      -0.298023        -8.1096
  67   0.0000       0.032427         0.8824
  68   0.0000       0.057236         1.5575
  69   0.0000       0.118275         3.2184
  70   0.0000       0.121261         3.2997
  71   0.0000       0.126318         3.4373

MULLIKEN ATOMIC CHARGES
-----------------------
   0 S :    0.129511
   1 C :   -0.102704
   2 C :   -0.112579
   3 C :    0.070889
   4 C :   -0.159222
   5 H :   -0.011412
   6 C :    0.036185
   7 H :    0.016537
   8 H :    0.036169
   9 C :   -0.002791
  10 H :    0.028745
  11 H :    0.027455
  12 C :   -0.073406
  13 H :    0.028958
  14 H :    0.030764
  15 H :    0.023661
  16 S :    0.111067
  17 C :   -0.088529
  18 C :   -0.036657
  19 C :   -0.017617
  20 C :   -0.183324
  21 H :    0.012801
  22 C :    0.065373
  23 H :    0.013603
  24 H :    0.027646
  25 C :   -0.095831
  26 H :    0.037615
  27 H :    0.044648
  28 C :   -0.035688
  29 H :    0.039113
  30 H :    0.015943
  31 H :    0.036341
  32 H :    0.036581
  33 H :    0.050156
Sum of atomic charges:   -0.0000000

LOEWDIN ATOMIC CHARGES
----------------------
   0 S :    0.413767
   1 C :   -0.200508
   2 C :   -0.057768
   3 C :   -0.044162
   4 C :   -0.199727
   5 H :    0.019661
   6 C :   -0.028534
   7 H :    0.028498
   8 H :    0.031427
   9 C :   -0.021393
  10 H :    0.022356
  11 H :    0.016511
  12 C :   -0.066818
  13 H :    0.028027
  14 H :    0.019299
  15 H :    0.019950
  16 S :    0.404145
  17 C :   -0.182949
  18 C :   -0.073196
  19 C :   -0.058960
  20 C :   -0.196241
  21 H :    0.027206
  22 C :   -0.032254
  23 H :    0.026866
  24 H :    0.032611
  25 C :   -0.045451
  26 H :    0.033525
  27 H :    0.028850
  28 C :   -0.068036
  29 H :    0.025363
  30 H :    0.019296
  31 H :    0.030391
  32 H :    0.024795
  33 H :    0.023453

  Mayer bond orders larger than 0.100000
B(  0-S ,  1-C ) :   1.1428 B(  0-S ,  4-C ) :   1.1525 B(  1-C ,  2-C ) :   1.5930
B(  1-C , 32-H ) :   0.9702 B(  2-C ,  3-C ) :   1.2575 B(  2-C ,  6-C ) :   1.0255
B(  3-C ,  4-C ) :   1.5552 B(  3-C ,  5-H ) :   1.0020 B(  4-C , 20-C ) :   1.0312
B(  6-C ,  7-H ) :   0.9319 B(  6-C ,  8-H ) :   0.9574 B(  6-C ,  9-C ) :   1.0419
B(  9-C , 10-H ) :   0.9554 B(  9-C , 11-H ) :   0.9692 B(  9-C , 12-C ) :   1.0649
B( 12-C , 13-H ) :   0.9728 B( 12-C , 14-H ) :   0.9752 B( 12-C , 15-H ) :   0.9797
B( 16-S , 17-C ) :   1.1738 B( 16-S , 20-C ) :   1.1491 B( 17-C , 18-C ) :   1.5581
B( 17-C , 20-C ) :   0.1138 B( 17-C , 33-H ) :   0.9745 B( 18-C , 19-C ) :   1.2848
B( 18-C , 21-H ) :   0.9904 B( 19-C , 20-C ) :   1.5772 B( 19-C , 22-C ) :   1.0185
B( 22-C , 23-H ) :   0.9433 B( 22-C , 24-H ) :   0.9329 B( 22-C , 25-C ) :   1.0769
B( 25-C , 26-H ) :   0.9532 B( 25-C , 27-H ) :   0.9539 B( 25-C , 28-C ) :   1.0696
B( 28-C , 29-H ) :   0.9731 B( 28-C , 30-H ) :   0.9735 B( 28-C , 31-H ) :   0.9744

Dispersion correction           -0.014598384
FINAL SINGLE POINT ENERGY     -1339.878260227851

DIPOLE MOMENT
-------------
                                X             Y             Z
Electronic contribution:     -4.51581      28.55814       6.12581
Nuclear contribution   :      4.62510     -29.09928      -6.22187
                        -----------------------------------------
Total Dipole Moment    :      0.10929      -0.54113      -0.09606
                        -----------------------------------------
Magnitude (a.u.)       :      0.56036
Magnitude (Debye)      :      1.42431

Rotational constants in cm-1:     0.017786     0.009059     0.006858
Rotational constants in MHz :   533.220867   271.577768   205.605974

                             ****ORCA TERMINATED NORMALLY****
TOTAL RUN TIME: 0 days 0 hours 0 minutes 20 seconds 578 msec
