                         Program Version 4.2.1 -  RELEASE  -
|  1> ! wB97X-D3 SP def2-SVP
|  2> %pal
|  3> nprocs 24
|  4> end
|  5>
|  6> * xyz 0 1
|  7> S 	 -135.525 	 72.0674 	 -54.8947
|  8> C 	 -135.401 	 70.9649 	 -56.2406
|  9> C 	 -135.655 	 69.6687 	 -55.9112
| 10> C 	 -136.048 	 69.5885 	 -54.5158
| 11> C 	 -136.001 	 70.805 	 -53.8026
| 12> H 	 -136.267 	 68.7219 	 -53.8924
| 13> C 	 -135.631 	 68.4891 	 -56.8639
| 14> H 	 -134.623 	 68.4165 	 -57.1537
| 15> H 	 -136.149 	 68.9488 	 -57.7224
| 16> C 	 -136.216 	 67.1726 	 -56.3665
| 17> H 	 -137.051 	 67.4032 	 -55.6966
| 18> H 	 -136.652 	 66.5911 	 -57.1488
| 19> C 	 -135.166 	 66.3345 	 -55.4674
| 20> H 	 -134.807 	 66.8842 	 -54.6275
| 21> H 	 -135.533 	 65.3764 	 -55.1311
| 22> H 	 -134.256 	 66.0021 	 -55.9708
| 23> S 	 -137.632 	 72.2663 	 -52.1308
| 24> C 	 -137.922 	 71.5949 	 -50.5812
| 25> C 	 -137.11 	 70.5339 	 -50.2502
| 26> C 	 -136.332 	 70.1439 	 -51.3477
| 27> C 	 -136.481 	 70.9616 	 -52.4673
| 28> H 	 -137.202 	 70.0012 	 -49.3577
| 29> C 	 -135.365 	 68.9425 	 -51.2082
| 30> H 	 -134.595 	 69.2495 	 -50.4901
| 31> H 	 -134.96 	 68.6933 	 -52.1765
| 32> C 	 -136.13 	 67.6186 	 -50.7326
| 33> H 	 -136.838 	 67.3348 	 -51.5037
| 34> H 	 -136.694 	 67.8859 	 -49.8495
| 35> C 	 -135.272 	 66.4529 	 -50.5573
| 36> H 	 -135.827 	 65.4979 	 -50.6744
| 37> H 	 -134.788 	 66.4404 	 -49.6025
| 38> H 	 -134.534 	 66.4489 	 -51.3601
| 39> H 	 -134.988 	 71.1963 	 -57.2404
| 40> H 	 -138.711 	 71.9504 	 -49.8908
| 41> *
| 42>
| 43>                          ****END OF INPUT****

CARTESIAN COORDINATES (ANGSTROEM)
---------------------------------
  S    -135.525000   72.067400  -54.894700
  C    -135.401000   70.964900  -56.240600
  C    -135.655000   69.668700  -55.911200
  C    -136.048000   69.588500  -54.515800
  C    -136.001000   70.805000  -53.802600
  H    -136.267000   68.721900  -53.892400
  C    -135.631000   68.489100  -56.863900
  H    -134.623000   68.416500  -57.153700
  H    -136.149000   68.948800  -57.722400
  C    -136.216000   67.172600  -56.366500
  H    -137.051000   67.403200  -55.696600
  H    -136.652000   66.591100  -57.148800
  C    -135.166000   66.334500  -55.467400
  H    -134.807000   66.884200  -54.627500
  H    -135.533000   65.376400  -55.131100
  H    -134.256000   66.002100  -55.970800
  S    -137.632000   72.266300  -52.130800
  C    -137.922000   71.594900  -50.581200
  C    -137.110000   70.533900  -50.250200
  C    -136.332000   70.143900  -51.347700
  C    -136.481000   70.961600  -52.467300
  H    -137.202000   70.001200  -49.357700
  C    -135.365000   68.942500  -51.208200
  H    -134.595000   69.249500  -50.490100
  H    -134.960000   68.693300  -52.176500
  C    -136.130000   67.618600  -50.732600
  H    -136.838000   67.334800  -51.503700
  H    -136.694000   67.885900  -49.849500
  C    -135.272000   66.452900  -50.557300
  H    -135.827000   65.497900  -50.674400
  H    -134.788000   66.440400  -49.602500
  H    -134.534000   66.448900  -51.360100
  H    -134.988000   71.196300  -57.240400
  H    -138.711000   71.950400  -49.890800

 Total Charge           Charge          ....    0
 Multiplicity           Mult            ....    1
 Number of Electrons    NEL             ....  134
 Basis Dimension        Dim             ....  322

ORBITAL ENERGIES
----------------

  NO   OCC          E(Eh)            E(eV)
   0   2.0000     -88.967418     -2420.9265
   1   2.0000     -88.966321     -2420.8967
   2   2.0000     -10.326249      -280.9915
   3   2.0000     -10.324679      -280.9488
   4   2.0000     -10.316841      -280.7355
   5   2.0000     -10.309519      -280.5363
   6   2.0000     -10.301605      -280.3209
   7   2.0000     -10.300765      -280.2981
   8   2.0000     -10.296273      -280.1758
   9   2.0000     -10.295921      -280.1663
  10   2.0000     -10.292954      -280.0855
  11   2.0000     -10.291903      -280.0569
  12   2.0000     -10.286114      -279.8994
  13   2.0000     -10.284013      -279.8422
  14   2.0000     -10.282440      -279.7994
  15   2.0000     -10.274512      -279.5837
  16   2.0000      -8.082569      -219.9379
  17   2.0000      -8.081044      -219.8964
  18   2.0000      -6.040909      -164.3815
  19   2.0000      -6.039661      -164.3475
  20   2.0000      -6.037118      -164.2783
  21   2.0000      -6.035503      -164.2344
  22   2.0000      -6.033379      -164.1766
  23   2.0000      -6.031764      -164.1326
  24   2.0000      -1.008375       -27.4393
  25   2.0000      -0.985734       -26.8232
  26   2.0000      -0.912751       -24.8372
  27   2.0000      -0.910607       -24.7789
  28   2.0000      -0.871942       -23.7267
  29   2.0000      -0.860232       -23.4081
  30   2.0000      -0.839622       -22.8473
  31   2.0000      -0.811504       -22.0822
  32   2.0000      -0.787598       -21.4316
  33   2.0000      -0.772932       -21.0326
  34   2.0000      -0.719379       -19.5753
  35   2.0000      -0.699011       -19.0210
  36   2.0000      -0.694062       -18.8864
  37   2.0000      -0.663020       -18.0417
  38   2.0000      -0.635938       -17.3047
  39   2.0000      -0.617956       -16.8154
  40   2.0000      -0.596444       -16.2301
  41   2.0000      -0.573160       -15.5965
  42   2.0000      -0.568316       -15.4647
  43   2.0000      -0.553269       -15.0552
  44   2.0000      -0.532349       -14.4859
  45   2.0000      -0.523313       -14.2401
  46   2.0000      -0.521939       -14.2027
  47   2.0000      -0.514870       -14.0103
  48   2.0000      -0.504231       -13.7208
  49   2.0000      -0.498205       -13.5568
  50   2.0000      -0.493416       -13.4265
  51   2.0000      -0.483681       -13.1616
  52   2.0000      -0.474617       -12.9150
  53   2.0000      -0.468207       -12.7406
  54   2.0000      -0.457804       -12.4575
  55   2.0000      -0.456151       -12.4125
  56   2.0000      -0.446197       -12.1416
  57   2.0000      -0.437591       -11.9075
  58   2.0000      -0.432848       -11.7784
  59   2.0000      -0.427885       -11.6433
  60   2.0000      -0.423981       -11.5371
  61   2.0000      -0.420640       -11.4462
  62   2.0000      -0.413371       -11.2484
  63   2.0000      -0.351062        -9.5529
  64   2.0000      -0.335480        -9.1289
  65   2.0000      -0.327173        -8.9028
  66   2.0000      -0.281844        -7.6694
  67   0.0000       0.029090         0.7916
  68   0.0000       0.072519         1.9733
  69   0.0000       0.115179         3.1342
  70   0.0000       0.119584         3.2540
  71   0.0000       0.127771         3.4768

MULLIKEN ATOMIC CHARGES
-----------------------
   0 S :    0.117237
   1 C :   -0.146331
   2 C :   -0.101338
   3 C :   -0.006478
   4 C :   -0.159852
   5 H :    0.005968
   6 C :    0.104427
   7 H :    0.025334
   8 H :    0.038294
   9 C :   -0.042433
  10 H :    0.036214
  11 H :    0.030902
  12 C :   -0.061552
  13 H :    0.026660
  14 H :    0.027853
  15 H :    0.024639
  16 S :    0.120230
  17 C :   -0.099520
  18 C :   -0.011286
  19 C :   -0.044938
  20 C :   -0.146882
  21 H :   -0.002476
  22 C :    0.068461
  23 H :    0.047898
  24 H :    0.014150
  25 C :   -0.103659
  26 H :    0.028199
  27 H :    0.022284
  28 C :   -0.010148
  29 H :    0.034827
  30 H :    0.028087
  31 H :    0.019644
  32 H :    0.050562
  33 H :    0.065024
Sum of atomic charges:   -0.0000000

LOEWDIN ATOMIC CHARGES
----------------------
   0 S :    0.411687
   1 C :   -0.215016
   2 C :   -0.059402
   3 C :   -0.072769
   4 C :   -0.201504
   5 H :    0.026022
   6 C :   -0.031204
   7 H :    0.028735
   8 H :    0.041634
   9 C :   -0.031320
  10 H :    0.029330
  11 H :    0.025110
  12 C :   -0.067315
  13 H :    0.018727
  14 H :    0.024536
  15 H :    0.025607
  16 S :    0.415798
  17 C :   -0.189720
  18 C :   -0.070410
  19 C :   -0.051285
  20 C :   -0.198055
  21 H :    0.022473
  22 C :   -0.021370
  23 H :    0.035445
  24 H :    0.020150
  25 C :   -0.042354
  26 H :    0.025221
  27 H :    0.017239
  28 C :   -0.064593
  29 H :    0.032107
  30 H :    0.022049
  31 H :    0.025238
  32 H :    0.034487
  33 H :    0.034721

  Mayer bond orders larger than 0.100000
B(  0-S ,  1-C ) :   1.1308 B(  0-S ,  4-C ) :   1.1496 B(  1-C ,  2-C ) :   1.6374
B(  1-C , 32-H ) :   0.9615 B(  2-C ,  3-C ) :   1.2400 B(  2-C ,  6-C ) :   0.9834
B(  3-C ,  4-C ) :   1.5580 B(  3-C ,  5-H ) :   0.9808 B(  4-C , 20-C ) :   1.0787
B(  6-C ,  7-H ) :   0.9320 B(  6-C ,  8-H ) :   0.9396 B(  6-C ,  9-C ) :   1.0726
B(  9-C , 10-H ) :   0.9567 B(  9-C , 11-H ) :   0.9579 B(  9-C , 12-C ) :   1.0586
B( 12-C , 13-H ) :   0.9805 B( 12-C , 14-H ) :   0.9768 B( 12-C , 15-H ) :   0.9750
B( 16-S , 17-C ) :   1.1769 B( 16-S , 20-C ) :   1.1272 B( 17-C , 18-C ) :   1.5905
B( 17-C , 33-H ) :   0.9601 B( 18-C , 19-C ) :   1.2571 B( 18-C , 21-H ) :   0.9992
B( 19-C , 20-C ) :   1.5854 B( 19-C , 22-C ) :   1.0340 B( 22-C , 23-H ) :   0.9409
B( 22-C , 24-H ) :   0.9318 B( 22-C , 25-C ) :   1.0566 B( 25-C , 26-H ) :   0.9549
B( 25-C , 27-H ) :   0.9561 B( 25-C , 28-C ) :   1.0997 B( 28-C , 29-H ) :   0.9727
B( 28-C , 30-H ) :   0.9716 B( 28-C , 31-H ) :   0.9660

Dispersion correction           -0.014725303
FINAL SINGLE POINT ENERGY     -1339.875055073034

DIPOLE MOMENT
-------------
                                X             Y             Z
Electronic contribution:     -6.17170      32.17386      -0.88697
Nuclear contribution   :      6.18388     -32.97166       0.94243
                        -----------------------------------------
Total Dipole Moment    :      0.01218      -0.79780       0.05547
                        -----------------------------------------
Magnitude (a.u.)       :      0.79982
Magnitude (Debye)      :      2.03298

Rotational constants in cm-1:     0.015156     0.011210     0.006997
Rotational constants in MHz :   454.369424   336.076169   209.771635

                             ****ORCA TERMINATED NORMALLY****
TOTAL RUN TIME: 0 days 0 hours 0 minutes 22 seconds 648 msec
