                         Program Version 4.2.1 -  RELEASE  -
|  1> ! wB97X-D3 SP def2-SVP
|  2> %pal
|  3> nprocs 24
|  4> end
|  5>
|  6> * xyz 0 1
|  7> S 	 -66.7964 	 20.3371 	 -115.774
|  8> C 	 -67.2785 	 20.095 	 -117.416
|  9> C 	 -67.7302 	 18.7916 	 -117.667
| 10> C 	 -67.7632 	 18.0012 	 -116.454
| 11> C 	 -67.3713 	 18.7041 	 -115.373
| 12> H 	 -67.9896 	 16.9225 	 -116.429
| 13> C 	 -68.0711 	 18.3893 	 -119.056
| 14> H 	 -67.9937 	 17.3085 	 -119.037
| 15> H 	 -67.4282 	 19.0006 	 -119.693
| 16> C 	 -69.5635 	 18.8224 	 -119.438
| 17> H 	 -70.305 	 18.4107 	 -118.718
| 18> H 	 -69.554 	 19.9009 	 -119.429
| 19> C 	 -69.8725 	 18.4256 	 -120.868
| 20> H 	 -69.5101 	 17.3827 	 -121.133
| 21> H 	 -70.9648 	 18.4516 	 -121.117
| 22> H 	 -69.3771 	 19.137 	 -121.538
| 23> S 	 -68.0142 	 16.6899 	 -113.576
| 24> C 	 -66.89 	 16.4318 	 -112.21
| 25> C 	 -65.9016 	 17.332 	 -112.245
| 26> C 	 -65.8963 	 18.2669 	 -113.327
| 27> C 	 -66.9963 	 18.0717 	 -114.143
| 28> H 	 -65.1198 	 17.2229 	 -111.501
| 29> C 	 -64.7007 	 19.0866 	 -113.564
| 30> H 	 -64.0571 	 19.1608 	 -112.641
| 31> H 	 -65.018 	 20.1427 	 -113.714
| 32> C 	 -63.8167 	 18.4904 	 -114.566
| 33> H 	 -64.1989 	 18.7476 	 -115.569
| 34> H 	 -63.8113 	 17.4429 	 -114.56
| 35> C 	 -62.2782 	 18.8072 	 -114.643
| 36> H 	 -61.6578 	 18.4031 	 -113.836
| 37> H 	 -62.134 	 19.907 	 -114.501
| 38> H 	 -61.9406 	 18.561 	 -115.637
| 39> H 	 -67.1467 	 20.9519 	 -118.153
| 40> H 	 -67.0218 	 15.6443 	 -111.477
| 41> *
| 42>
| 43>                          ****END OF INPUT****

CARTESIAN COORDINATES (ANGSTROEM)
---------------------------------
  S    -66.796400   20.337100  -115.774000
  C    -67.278500   20.095000  -117.416000
  C    -67.730200   18.791600  -117.667000
  C    -67.763200   18.001200  -116.454000
  C    -67.371300   18.704100  -115.373000
  H    -67.989600   16.922500  -116.429000
  C    -68.071100   18.389300  -119.056000
  H    -67.993700   17.308500  -119.037000
  H    -67.428200   19.000600  -119.693000
  C    -69.563500   18.822400  -119.438000
  H    -70.305000   18.410700  -118.718000
  H    -69.554000   19.900900  -119.429000
  C    -69.872500   18.425600  -120.868000
  H    -69.510100   17.382700  -121.133000
  H    -70.964800   18.451600  -121.117000
  H    -69.377100   19.137000  -121.538000
  S    -68.014200   16.689900  -113.576000
  C    -66.890000   16.431800  -112.210000
  C    -65.901600   17.332000  -112.245000
  C    -65.896300   18.266900  -113.327000
  C    -66.996300   18.071700  -114.143000
  H    -65.119800   17.222900  -111.501000
  C    -64.700700   19.086600  -113.564000
  H    -64.057100   19.160800  -112.641000
  H    -65.018000   20.142700  -113.714000
  C    -63.816700   18.490400  -114.566000
  H    -64.198900   18.747600  -115.569000
  H    -63.811300   17.442900  -114.560000
  C    -62.278200   18.807200  -114.643000
  H    -61.657800   18.403100  -113.836000
  H    -62.134000   19.907000  -114.501000
  H    -61.940600   18.561000  -115.637000
  H    -67.146700   20.951900  -118.153000
  H    -67.021800   15.644300  -111.477000

 Total Charge           Charge          ....    0
 Multiplicity           Mult            ....    1
 Number of Electrons    NEL             ....  134
 Basis Dimension        Dim             ....  322

ORBITAL ENERGIES
----------------

  NO   OCC          E(Eh)            E(eV)
   0   2.0000     -88.968446     -2420.9545
   1   2.0000     -88.961613     -2420.7685
   2   2.0000     -10.328023      -281.0398
   3   2.0000     -10.326148      -280.9888
   4   2.0000     -10.319069      -280.7961
   5   2.0000     -10.314116      -280.6614
   6   2.0000     -10.303122      -280.3622
   7   2.0000     -10.297929      -280.2209
   8   2.0000     -10.297734      -280.2156
   9   2.0000     -10.295194      -280.1465
  10   2.0000     -10.290819      -280.0274
  11   2.0000     -10.290021      -280.0057
  12   2.0000     -10.287530      -279.9379
  13   2.0000     -10.284343      -279.8512
  14   2.0000     -10.279146      -279.7098
  15   2.0000     -10.275557      -279.6121
  16   2.0000      -8.082749      -219.9428
  17   2.0000      -8.075181      -219.7369
  18   2.0000      -6.041287      -164.3918
  19   2.0000      -6.037407      -164.2862
  20   2.0000      -6.033929      -164.1916
  21   2.0000      -6.033430      -164.1780
  22   2.0000      -6.030017      -164.0851
  23   2.0000      -6.025625      -163.9656
  24   2.0000      -1.007788       -27.4233
  25   2.0000      -0.981720       -26.7140
  26   2.0000      -0.914988       -24.8981
  27   2.0000      -0.911796       -24.8112
  28   2.0000      -0.873782       -23.7768
  29   2.0000      -0.854135       -23.2422
  30   2.0000      -0.843718       -22.9587
  31   2.0000      -0.816094       -22.2070
  32   2.0000      -0.783420       -21.3179
  33   2.0000      -0.763615       -20.7790
  34   2.0000      -0.706069       -19.2131
  35   2.0000      -0.696231       -18.9454
  36   2.0000      -0.689896       -18.7730
  37   2.0000      -0.666961       -18.1489
  38   2.0000      -0.637317       -17.3423
  39   2.0000      -0.616626       -16.7792
  40   2.0000      -0.598762       -16.2931
  41   2.0000      -0.576284       -15.6815
  42   2.0000      -0.561914       -15.2905
  43   2.0000      -0.554749       -15.0955
  44   2.0000      -0.529975       -14.4213
  45   2.0000      -0.521972       -14.2036
  46   2.0000      -0.517277       -14.0758
  47   2.0000      -0.514500       -14.0002
  48   2.0000      -0.509419       -13.8620
  49   2.0000      -0.505495       -13.7552
  50   2.0000      -0.485237       -13.2040
  51   2.0000      -0.479675       -13.0526
  52   2.0000      -0.473167       -12.8755
  53   2.0000      -0.467339       -12.7169
  54   2.0000      -0.452970       -12.3259
  55   2.0000      -0.449537       -12.2325
  56   2.0000      -0.444922       -12.1069
  57   2.0000      -0.432806       -11.7773
  58   2.0000      -0.428977       -11.6731
  59   2.0000      -0.425073       -11.5668
  60   2.0000      -0.424097       -11.5403
  61   2.0000      -0.410726       -11.1764
  62   2.0000      -0.400018       -10.8850
  63   2.0000      -0.363088        -9.8801
  64   2.0000      -0.330335        -8.9889
  65   2.0000      -0.327296        -8.9062
  66   2.0000      -0.282302        -7.6818
  67   0.0000       0.022572         0.6142
  68   0.0000       0.083114         2.2616
  69   0.0000       0.100595         2.7373
  70   0.0000       0.110500         3.0069
  71   0.0000       0.134578         3.6620

MULLIKEN ATOMIC CHARGES
-----------------------
   0 S :    0.092475
   1 C :   -0.159185
   2 C :   -0.090496
   3 C :   -0.016782
   4 C :   -0.084751
   5 H :    0.035070
   6 C :    0.075451
   7 H :    0.025122
   8 H :    0.029379
   9 C :   -0.082285
  10 H :    0.044419
  11 H :    0.023842
  12 C :   -0.060953
  13 H :    0.035264
  14 H :    0.043679
  15 H :    0.029095
  16 S :    0.068926
  17 C :   -0.090079
  18 C :   -0.020735
  19 C :   -0.055366
  20 C :   -0.137095
  21 H :    0.014000
  22 C :    0.059325
  23 H :    0.016606
  24 H :    0.042911
  25 C :   -0.050838
  26 H :    0.024329
  27 H :    0.020657
  28 C :   -0.058703
  29 H :    0.035795
  30 H :    0.021768
  31 H :    0.037956
  32 H :    0.075300
  33 H :    0.055902
Sum of atomic charges:    0.0000000

LOEWDIN ATOMIC CHARGES
----------------------
   0 S :    0.413312
   1 C :   -0.214107
   2 C :   -0.062161
   3 C :   -0.063057
   4 C :   -0.183599
   5 H :    0.036265
   6 C :   -0.026918
   7 H :    0.030013
   8 H :    0.035016
   9 C :   -0.036934
  10 H :    0.027986
  11 H :    0.021025
  12 C :   -0.076971
  13 H :    0.027738
  14 H :    0.030680
  15 H :    0.024086
  16 S :    0.354078
  17 C :   -0.169231
  18 C :   -0.068376
  19 C :   -0.063680
  20 C :   -0.162745
  21 H :    0.031642
  22 C :   -0.047702
  23 H :    0.035685
  24 H :    0.027639
  25 C :   -0.043088
  26 H :    0.024438
  27 H :    0.020889
  28 C :   -0.066156
  29 H :    0.022396
  30 H :    0.024589
  31 H :    0.027504
  32 H :    0.038457
  33 H :    0.031287

  Mayer bond orders larger than 0.100000
B(  0-S ,  1-C ) :   1.1403 B(  0-S ,  4-C ) :   1.1384 B(  1-C ,  2-C ) :   1.5948
B(  1-C , 32-H ) :   0.9590 B(  2-C ,  3-C ) :   1.2494 B(  2-C ,  6-C ) :   1.0365
B(  3-C ,  4-C ) :   1.5600 B(  3-C ,  5-H ) :   0.9839 B(  4-C , 20-C ) :   1.0632
B(  6-C ,  7-H ) :   0.9342 B(  6-C ,  8-H ) :   0.9386 B(  6-C ,  9-C ) :   1.0637
B(  9-C , 10-H ) :   0.9597 B(  9-C , 11-H ) :   0.9591 B(  9-C , 12-C ) :   1.0779
B( 12-C , 13-H ) :   0.9738 B( 12-C , 14-H ) :   0.9742 B( 12-C , 15-H ) :   0.9750
B( 16-S , 17-C ) :   1.1115 B( 16-S , 20-C ) :   1.1164 B( 17-C , 18-C ) :   1.6663
B( 17-C , 33-H ) :   0.9666 B( 18-C , 19-C ) :   1.2119 B( 18-C , 21-H ) :   0.9862
B( 19-C , 20-C ) :   1.6021 B( 19-C , 22-C ) :   1.0586 B( 22-C , 23-H ) :   0.9274
B( 22-C , 24-H ) :   0.9186 B( 22-C , 25-C ) :   1.0630 B( 25-C , 26-H ) :   0.9456
B( 25-C , 27-H ) :   0.9540 B( 25-C , 28-C ) :   1.0849 B( 28-C , 29-H ) :   0.9758
B( 28-C , 30-H ) :   0.9755 B( 28-C , 31-H ) :   0.9752

Dispersion correction           -0.014226757
FINAL SINGLE POINT ENERGY     -1339.871467308758

DIPOLE MOMENT
-------------
                                X             Y             Z
Electronic contribution:     -7.67147      -0.81878      17.14879
Nuclear contribution   :      8.02208       0.71538     -17.53101
                        -----------------------------------------
Total Dipole Moment    :      0.35061      -0.10339      -0.38223
                        -----------------------------------------
Magnitude (a.u.)       :      0.52888
Magnitude (Debye)      :      1.34431

Rotational constants in cm-1:     0.021050     0.007949     0.006459
Rotational constants in MHz :   631.062678   238.294353   193.632955

                             ****ORCA TERMINATED NORMALLY****
TOTAL RUN TIME: 0 days 0 hours 0 minutes 21 seconds 538 msec
