                         Program Version 4.2.1 -  RELEASE  -
|  1> ! wB97X-D3 SP def2-SVP
|  2> %pal
|  3> nprocs 24
|  4> end
|  5>
|  6> * xyz 0 1
|  7> S 	 -119.362 	 48.0612 	 -26.6157
|  8> C 	 -119.289 	 47.9991 	 -28.4089
|  9> C 	 -120.245 	 48.7769 	 -29.0498
| 10> C 	 -121.068 	 49.4358 	 -28.1073
| 11> C 	 -120.721 	 49.2267 	 -26.7763
| 12> H 	 -121.955 	 50.1039 	 -28.2398
| 13> C 	 -120.378 	 48.9103 	 -30.5327
| 14> H 	 -119.96 	 49.8945 	 -30.8267
| 15> H 	 -121.433 	 49.1387 	 -30.6368
| 16> C 	 -119.949 	 47.6937 	 -31.4075
| 17> H 	 -118.879 	 47.363 	 -31.3266
| 18> H 	 -120.449 	 46.7935 	 -31.0283
| 19> C 	 -120.222 	 48.0562 	 -32.8636
| 20> H 	 -119.517 	 48.8366 	 -33.2823
| 21> H 	 -120.136 	 47.1958 	 -33.5751
| 22> H 	 -121.267 	 48.3595 	 -33.0945
| 23> S 	 -120.568 	 51.1004 	 -24.9053
| 24> C 	 -121.915 	 51.333 	 -23.8222
| 25> C 	 -122.984 	 50.44 	 -24.0916
| 26> C 	 -122.671 	 49.6 	 -25.2335
| 27> C 	 -121.432 	 49.8837 	 -25.7254
| 28> H 	 -123.777 	 50.367 	 -23.4662
| 29> C 	 -123.482 	 48.3099 	 -25.4927
| 30> H 	 -122.98 	 47.563 	 -24.7995
| 31> H 	 -123.216 	 47.9269 	 -26.3942
| 32> C 	 -124.986 	 48.4188 	 -25.1175
| 33> H 	 -125.185 	 48.8248 	 -24.0944
| 34> H 	 -125.499 	 47.4544 	 -25.2218
| 35> C 	 -125.917 	 49.333 	 -25.9341
| 36> H 	 -125.92 	 49.2175 	 -26.9198
| 37> H 	 -125.724 	 50.341 	 -25.6458
| 38> H 	 -126.942 	 49.1452 	 -25.6501
| 39> H 	 -118.66 	 47.2623 	 -28.92
| 40> H 	 -121.891 	 52.0356 	 -23.013
| 41> *
| 42>
| 43>                          ****END OF INPUT****

CARTESIAN COORDINATES (ANGSTROEM)
---------------------------------
  S    -119.362000   48.061200  -26.615700
  C    -119.289000   47.999100  -28.408900
  C    -120.245000   48.776900  -29.049800
  C    -121.068000   49.435800  -28.107300
  C    -120.721000   49.226700  -26.776300
  H    -121.955000   50.103900  -28.239800
  C    -120.378000   48.910300  -30.532700
  H    -119.960000   49.894500  -30.826700
  H    -121.433000   49.138700  -30.636800
  C    -119.949000   47.693700  -31.407500
  H    -118.879000   47.363000  -31.326600
  H    -120.449000   46.793500  -31.028300
  C    -120.222000   48.056200  -32.863600
  H    -119.517000   48.836600  -33.282300
  H    -120.136000   47.195800  -33.575100
  H    -121.267000   48.359500  -33.094500
  S    -120.568000   51.100400  -24.905300
  C    -121.915000   51.333000  -23.822200
  C    -122.984000   50.440000  -24.091600
  C    -122.671000   49.600000  -25.233500
  C    -121.432000   49.883700  -25.725400
  H    -123.777000   50.367000  -23.466200
  C    -123.482000   48.309900  -25.492700
  H    -122.980000   47.563000  -24.799500
  H    -123.216000   47.926900  -26.394200
  C    -124.986000   48.418800  -25.117500
  H    -125.185000   48.824800  -24.094400
  H    -125.499000   47.454400  -25.221800
  C    -125.917000   49.333000  -25.934100
  H    -125.920000   49.217500  -26.919800
  H    -125.724000   50.341000  -25.645800
  H    -126.942000   49.145200  -25.650100
  H    -118.660000   47.262300  -28.920000
  H    -121.891000   52.035600  -23.013000

 Total Charge           Charge          ....    0
 Multiplicity           Mult            ....    1
 Number of Electrons    NEL             ....  134
 Basis Dimension        Dim             ....  322

ORBITAL ENERGIES
----------------

  NO   OCC          E(Eh)            E(eV)
   0   2.0000     -88.967607     -2420.9317
   1   2.0000     -88.964508     -2420.8473
   2   2.0000     -10.324598      -280.9466
   3   2.0000     -10.317139      -280.7436
   4   2.0000     -10.315264      -280.6926
   5   2.0000     -10.312467      -280.6165
   6   2.0000     -10.301404      -280.3154
   7   2.0000     -10.300524      -280.2915
   8   2.0000     -10.299489      -280.2633
   9   2.0000     -10.295776      -280.1623
  10   2.0000     -10.294449      -280.1262
  11   2.0000     -10.293311      -280.0952
  12   2.0000     -10.292494      -280.0730
  13   2.0000     -10.290771      -280.0261
  14   2.0000     -10.289376      -279.9881
  15   2.0000     -10.260879      -279.2127
  16   2.0000      -8.080676      -219.8864
  17   2.0000      -8.080320      -219.8767
  18   2.0000      -6.039192      -164.3348
  19   2.0000      -6.038634      -164.3196
  20   2.0000      -6.035580      -164.2365
  21   2.0000      -6.034660      -164.2115
  22   2.0000      -6.031383      -164.1223
  23   2.0000      -6.031240      -164.1184
  24   2.0000      -1.006587       -27.3906
  25   2.0000      -0.976986       -26.5851
  26   2.0000      -0.909874       -24.7589
  27   2.0000      -0.905085       -24.6286
  28   2.0000      -0.867451       -23.6045
  29   2.0000      -0.853188       -23.2164
  30   2.0000      -0.848412       -23.0865
  31   2.0000      -0.810342       -22.0505
  32   2.0000      -0.786275       -21.3956
  33   2.0000      -0.768332       -20.9074
  34   2.0000      -0.715888       -19.4803
  35   2.0000      -0.704999       -19.1840
  36   2.0000      -0.691339       -18.8123
  37   2.0000      -0.665311       -18.1040
  38   2.0000      -0.637525       -17.3479
  39   2.0000      -0.608158       -16.5488
  40   2.0000      -0.598003       -16.2725
  41   2.0000      -0.565088       -15.3768
  42   2.0000      -0.560281       -15.2460
  43   2.0000      -0.545354       -14.8398
  44   2.0000      -0.542607       -14.7651
  45   2.0000      -0.533913       -14.5285
  46   2.0000      -0.520281       -14.1576
  47   2.0000      -0.512701       -13.9513
  48   2.0000      -0.501250       -13.6397
  49   2.0000      -0.493524       -13.4295
  50   2.0000      -0.488943       -13.3048
  51   2.0000      -0.474693       -12.9171
  52   2.0000      -0.469575       -12.7778
  53   2.0000      -0.459720       -12.5096
  54   2.0000      -0.453777       -12.3479
  55   2.0000      -0.450609       -12.2617
  56   2.0000      -0.448437       -12.2026
  57   2.0000      -0.439899       -11.9703
  58   2.0000      -0.432864       -11.7788
  59   2.0000      -0.426782       -11.6133
  60   2.0000      -0.425213       -11.5706
  61   2.0000      -0.420274       -11.4362
  62   2.0000      -0.411240       -11.1904
  63   2.0000      -0.335973        -9.1423
  64   2.0000      -0.327493        -8.9116
  65   2.0000      -0.324406        -8.8275
  66   2.0000      -0.296999        -8.0817
  67   0.0000       0.041629         1.1328
  68   0.0000       0.057932         1.5764
  69   0.0000       0.109813         2.9882
  70   0.0000       0.116201         3.1620
  71   0.0000       0.130083         3.5397

MULLIKEN ATOMIC CHARGES
-----------------------
   0 S :    0.105882
   1 C :   -0.146573
   2 C :   -0.062427
   3 C :    0.015062
   4 C :   -0.175816
   5 H :    0.033119
   6 C :    0.079354
   7 H :    0.043699
   8 H :    0.015829
   9 C :   -0.076232
  10 H :    0.044036
  11 H :    0.035772
  12 C :   -0.079780
  13 H :    0.048354
  14 H :    0.031791
  15 H :    0.032605
  16 S :    0.131017
  17 C :   -0.091185
  18 C :   -0.008771
  19 C :   -0.031821
  20 C :   -0.207789
  21 H :   -0.022589
  22 C :    0.137009
  23 H :    0.050680
  24 H :   -0.005907
  25 C :   -0.112757
  26 H :    0.035551
  27 H :    0.032913
  28 C :    0.008686
  29 H :    0.001358
  30 H :    0.020016
  31 H :    0.016852
  32 H :    0.053288
  33 H :    0.048774
Sum of atomic charges:    0.0000000

LOEWDIN ATOMIC CHARGES
----------------------
   0 S :    0.363184
   1 C :   -0.188289
   2 C :   -0.065561
   3 C :   -0.062393
   4 C :   -0.189225
   5 H :    0.042252
   6 C :   -0.034481
   7 H :    0.040708
   8 H :    0.032989
   9 C :   -0.045538
  10 H :    0.031140
  11 H :    0.028739
  12 C :   -0.078784
  13 H :    0.034301
  14 H :    0.028100
  15 H :    0.026652
  16 S :    0.435789
  17 C :   -0.181140
  18 C :   -0.055795
  19 C :   -0.051393
  20 C :   -0.226618
  21 H :    0.009368
  22 C :   -0.019650
  23 H :    0.050824
  24 H :    0.013654
  25 C :   -0.042942
  26 H :    0.030415
  27 H :    0.027577
  28 C :   -0.052143
  29 H :    0.002562
  30 H :    0.020319
  31 H :    0.028242
  32 H :    0.026014
  33 H :    0.021124

  Mayer bond orders larger than 0.100000
B(  0-S ,  1-C ) :   1.1206 B(  0-S ,  4-C ) :   1.1237 B(  1-C ,  2-C ) :   1.6237
B(  1-C , 32-H ) :   0.9613 B(  2-C ,  3-C ) :   1.2213 B(  2-C ,  6-C ) :   1.0104
B(  3-C ,  4-C ) :   1.6088 B(  3-C ,  5-H ) :   0.9837 B(  4-C , 20-C ) :   1.0289
B(  6-C ,  7-H ) :   0.9290 B(  6-C ,  8-H ) :   0.9367 B(  6-C ,  9-C ) :   1.0524
B(  9-C , 10-H ) :   0.9500 B(  9-C , 11-H ) :   0.9581 B(  9-C , 12-C ) :   1.0803
B( 12-C , 13-H ) :   0.9743 B( 12-C , 14-H ) :   0.9729 B( 12-C , 15-H ) :   0.9747
B( 16-S , 17-C ) :   1.1639 B( 16-S , 20-C ) :   1.1602 B( 17-C , 18-C ) :   1.6012
B( 17-C , 33-H ) :   0.9709 B( 18-C , 19-C ) :   1.2215 B( 18-C , 21-H ) :   1.0031
B( 19-C , 20-C ) :   1.6166 B( 19-C , 22-C ) :   1.0321 B( 22-C , 23-H ) :   0.9337
B( 22-C , 24-H ) :   0.9286 B( 22-C , 25-C ) :   1.0588 B( 25-C , 26-H ) :   0.9570
B( 25-C , 27-H ) :   0.9605 B( 25-C , 28-C ) :   1.0784 B( 28-C , 29-H ) :   0.9752
B( 28-C , 30-H ) :   0.9753 B( 28-C , 31-H ) :   0.9713

Dispersion correction           -0.013957994
FINAL SINGLE POINT ENERGY     -1339.852458575112

DIPOLE MOMENT
-------------
                                X             Y             Z
Electronic contribution:     17.05751       7.10514      18.91161
Nuclear contribution   :    -17.53201      -7.31590     -19.25576
                        -----------------------------------------
Total Dipole Moment    :     -0.47451      -0.21075      -0.34415
                        -----------------------------------------
Magnitude (a.u.)       :      0.62291
Magnitude (Debye)      :      1.58330

Rotational constants in cm-1:     0.019943     0.007451     0.006186
Rotational constants in MHz :   597.879297   223.380989   185.448661

                             ****ORCA TERMINATED NORMALLY****
TOTAL RUN TIME: 0 days 0 hours 0 minutes 20 seconds 99 msec
