                         Program Version 4.2.1 -  RELEASE  -
|  1> ! wB97X-D3 SP def2-SVP
|  2> %pal
|  3> nprocs 24
|  4> end
|  5>
|  6> * xyz 0 1
|  7> S 	 -104.95 	 -1.30814 	 -107.071
|  8> C 	 -105.597 	 -1.196 	 -105.477
|  9> C 	 -104.672 	 -0.841465 	 -104.504
| 10> C 	 -103.352 	 -0.73133 	 -105.087
| 11> C 	 -103.285 	 -0.951278 	 -106.467
| 12> H 	 -102.465 	 -0.499107 	 -104.553
| 13> C 	 -104.984 	 -0.59277 	 -103.051
| 14> H 	 -104.337 	 -1.21338 	 -102.48
| 15> H 	 -106.035 	 -0.860083 	 -102.881
| 16> C 	 -104.781 	 0.888017 	 -102.647
| 17> H 	 -103.791 	 1.14583 	 -102.336
| 18> H 	 -105.078 	 1.62332 	 -103.42
| 19> C 	 -105.578 	 1.22837 	 -101.371
| 20> H 	 -105.18 	 2.15675 	 -100.898
| 21> H 	 -106.61 	 1.24933 	 -101.622
| 22> H 	 -105.365 	 0.449194 	 -100.603
| 23> S 	 -102.453 	 -1.26297 	 -109.047
| 24> C 	 -100.811 	 -1.1006 	 -109.426
| 25> C 	 -100.074 	 -0.605772 	 -108.366
| 26> C 	 -100.8 	 -0.547113 	 -107.17
| 27> C 	 -102.149 	 -0.860943 	 -107.337
| 28> H 	 -99.0108 	 -0.38685 	 -108.513
| 29> C 	 -100.038 	 -0.0527547 	 -105.938
| 30> H 	 -100.744 	 0.508025 	 -105.382
| 31> H 	 -99.1797 	 0.613939 	 -106.333
| 32> C 	 -99.3602 	 -1.08721 	 -104.881
| 33> H 	 -98.6795 	 -1.72847 	 -105.397
| 34> H 	 -100.139 	 -1.77354 	 -104.366
| 35> C 	 -98.6536 	 -0.363446 	 -103.75
| 36> H 	 -98.2545 	 -1.14708 	 -103.128
| 37> H 	 -99.2714 	 0.273763 	 -103.108
| 38> H 	 -97.7477 	 0.132657 	 -104.183
| 39> H 	 -106.651 	 -1.34504 	 -105.291
| 40> H 	 -100.374 	 -1.24327 	 -110.36
| 41> *
| 42>
| 43>                          ****END OF INPUT****

CARTESIAN COORDINATES (ANGSTROEM)
---------------------------------
  S    -104.950000   -1.308140  -107.071000
  C    -105.597000   -1.196000  -105.477000
  C    -104.672000   -0.841465  -104.504000
  C    -103.352000   -0.731330  -105.087000
  C    -103.285000   -0.951278  -106.467000
  H    -102.465000   -0.499107  -104.553000
  C    -104.984000   -0.592770  -103.051000
  H    -104.337000   -1.213380  -102.480000
  H    -106.035000   -0.860083  -102.881000
  C    -104.781000    0.888017  -102.647000
  H    -103.791000    1.145830  -102.336000
  H    -105.078000    1.623320  -103.420000
  C    -105.578000    1.228370  -101.371000
  H    -105.180000    2.156750  -100.898000
  H    -106.610000    1.249330  -101.622000
  H    -105.365000    0.449194  -100.603000
  S    -102.453000   -1.262970  -109.047000
  C    -100.811000   -1.100600  -109.426000
  C    -100.074000   -0.605772  -108.366000
  C    -100.800000   -0.547113  -107.170000
  C    -102.149000   -0.860943  -107.337000
  H    -99.010800   -0.386850  -108.513000
  C    -100.038000   -0.052755  -105.938000
  H    -100.744000    0.508025  -105.382000
  H    -99.179700    0.613939  -106.333000
  C    -99.360200   -1.087210  -104.881000
  H    -98.679500   -1.728470  -105.397000
  H    -100.139000   -1.773540  -104.366000
  C    -98.653600   -0.363446  -103.750000
  H    -98.254500   -1.147080  -103.128000
  H    -99.271400    0.273763  -103.108000
  H    -97.747700    0.132657  -104.183000
  H    -106.651000   -1.345040  -105.291000
  H    -100.374000   -1.243270  -110.360000

 Total Charge           Charge          ....    0
 Multiplicity           Mult            ....    1
 Number of Electrons    NEL             ....  134
 Basis Dimension        Dim             ....  322

ORBITAL ENERGIES
----------------

  NO   OCC          E(Eh)            E(eV)
   0   2.0000     -88.966743     -2420.9082
   1   2.0000     -88.965374     -2420.8709
   2   2.0000     -10.334660      -281.2204
   3   2.0000     -10.330399      -281.1044
   4   2.0000     -10.311149      -280.5806
   5   2.0000     -10.308842      -280.5179
   6   2.0000     -10.304374      -280.3963
   7   2.0000     -10.303018      -280.3594
   8   2.0000     -10.301788      -280.3259
   9   2.0000     -10.298621      -280.2397
  10   2.0000     -10.294115      -280.1171
  11   2.0000     -10.293550      -280.1017
  12   2.0000     -10.289440      -279.9899
  13   2.0000     -10.285405      -279.8801
  14   2.0000     -10.283095      -279.8172
  15   2.0000     -10.279531      -279.7203
  16   2.0000      -8.082107      -219.9253
  17   2.0000      -8.079617      -219.8575
  18   2.0000      -6.040569      -164.3722
  19   2.0000      -6.038327      -164.3112
  20   2.0000      -6.036545      -164.2627
  21   2.0000      -6.034304      -164.2017
  22   2.0000      -6.032877      -164.1629
  23   2.0000      -6.030119      -164.0879
  24   2.0000      -1.007524       -27.4161
  25   2.0000      -0.982266       -26.7288
  26   2.0000      -0.911915       -24.8145
  27   2.0000      -0.902178       -24.5495
  28   2.0000      -0.872159       -23.7327
  29   2.0000      -0.860889       -23.4260
  30   2.0000      -0.846623       -23.0378
  31   2.0000      -0.813140       -22.1267
  32   2.0000      -0.781383       -21.2625
  33   2.0000      -0.768388       -20.9089
  34   2.0000      -0.709220       -19.2989
  35   2.0000      -0.695507       -18.9257
  36   2.0000      -0.692223       -18.8363
  37   2.0000      -0.667977       -18.1766
  38   2.0000      -0.639252       -17.3949
  39   2.0000      -0.621926       -16.9235
  40   2.0000      -0.595152       -16.1949
  41   2.0000      -0.577967       -15.7273
  42   2.0000      -0.563761       -15.3407
  43   2.0000      -0.558916       -15.2089
  44   2.0000      -0.525583       -14.3018
  45   2.0000      -0.523110       -14.2345
  46   2.0000      -0.516575       -14.0567
  47   2.0000      -0.513326       -13.9683
  48   2.0000      -0.508202       -13.8289
  49   2.0000      -0.501323       -13.6417
  50   2.0000      -0.492073       -13.3900
  51   2.0000      -0.484708       -13.1896
  52   2.0000      -0.474133       -12.9018
  53   2.0000      -0.467318       -12.7164
  54   2.0000      -0.457934       -12.4610
  55   2.0000      -0.451775       -12.2934
  56   2.0000      -0.437593       -11.9075
  57   2.0000      -0.435128       -11.8404
  58   2.0000      -0.431456       -11.7405
  59   2.0000      -0.428030       -11.6473
  60   2.0000      -0.422155       -11.4874
  61   2.0000      -0.421211       -11.4617
  62   2.0000      -0.412785       -11.2325
  63   2.0000      -0.367091        -9.9891
  64   2.0000      -0.335536        -9.1304
  65   2.0000      -0.326147        -8.8749
  66   2.0000      -0.273836        -7.4515
  67   0.0000       0.016569         0.4509
  68   0.0000       0.085000         2.3130
  69   0.0000       0.097163         2.6439
  70   0.0000       0.117448         3.1959
  71   0.0000       0.133339         3.6283

MULLIKEN ATOMIC CHARGES
-----------------------
   0 S :    0.093792
   1 C :   -0.120645
   2 C :   -0.092059
   3 C :   -0.002783
   4 C :   -0.096682
   5 H :   -0.018772
   6 C :    0.117688
   7 H :    0.026904
   8 H :    0.016696
   9 C :   -0.084382
  10 H :    0.018922
  11 H :    0.043983
  12 C :   -0.076861
  13 H :    0.039276
  14 H :    0.038102
  15 H :    0.028701
  16 S :    0.103185
  17 C :   -0.051103
  18 C :   -0.059514
  19 C :   -0.026572
  20 C :   -0.117905
  21 H :    0.022897
  22 C :    0.018140
  23 H :    0.018930
  24 H :    0.040570
  25 C :   -0.086266
  26 H :    0.025280
  27 H :    0.042969
  28 C :   -0.046232
  29 H :    0.030333
  30 H :    0.041386
  31 H :    0.035609
  32 H :    0.046014
  33 H :    0.030398
Sum of atomic charges:   -0.0000000

LOEWDIN ATOMIC CHARGES
----------------------
   0 S :    0.381886
   1 C :   -0.203836
   2 C :   -0.060673
   3 C :   -0.062829
   4 C :   -0.168618
   5 H :    0.020534
   6 C :   -0.023345
   7 H :    0.030261
   8 H :    0.031812
   9 C :   -0.041124
  10 H :    0.018370
  11 H :    0.029350
  12 C :   -0.065850
  13 H :    0.029818
  14 H :    0.017582
  15 H :    0.025866
  16 S :    0.418829
  17 C :   -0.189230
  18 C :   -0.076321
  19 C :   -0.058831
  20 C :   -0.184538
  21 H :    0.034554
  22 C :   -0.031744
  23 H :    0.018374
  24 H :    0.041823
  25 C :   -0.039901
  26 H :    0.018849
  27 H :    0.031034
  28 C :   -0.069383
  29 H :    0.027646
  30 H :    0.026066
  31 H :    0.029653
  32 H :    0.025832
  33 H :    0.018083

  Mayer bond orders larger than 0.100000
B(  0-S ,  1-C ) :   1.1353 B(  0-S ,  4-C ) :   1.1187 B(  1-C ,  2-C ) :   1.6219
B(  1-C , 32-H ) :   0.9635 B(  2-C ,  3-C ) :   1.2261 B(  2-C ,  6-C ) :   1.0388
B(  3-C ,  4-C ) :   1.5758 B(  3-C ,  5-H ) :   0.9940 B(  4-C , 20-C ) :   1.1318
B(  6-C ,  7-H ) :   0.9249 B(  6-C ,  8-H ) :   0.9459 B(  6-C ,  9-C ) :   1.0525
B(  9-C , 10-H ) :   0.9540 B(  9-C , 11-H ) :   0.9637 B(  9-C , 12-C ) :   1.0842
B( 12-C , 13-H ) :   0.9767 B( 12-C , 14-H ) :   0.9800 B( 12-C , 15-H ) :   0.9720
B( 16-S , 17-C ) :   1.1774 B( 16-S , 20-C ) :   1.1278 B( 17-C , 18-C ) :   1.5872
B( 17-C , 33-H ) :   0.9719 B( 18-C , 19-C ) :   1.2734 B( 18-C , 21-H ) :   0.9872
B( 19-C , 20-C ) :   1.5577 B( 19-C , 22-C ) :   1.0291 B( 22-C , 23-H ) :   0.9345
B( 22-C , 24-H ) :   0.9430 B( 22-C , 25-C ) :   1.0494 B( 25-C , 26-H ) :   0.9550
B( 25-C , 27-H ) :   0.9564 B( 25-C , 28-C ) :   1.0846 B( 28-C , 29-H ) :   0.9707
B( 28-C , 30-H ) :   0.9752 B( 28-C , 31-H ) :   0.9725

Dispersion correction           -0.013385853
FINAL SINGLE POINT ENERGY     -1339.878754320620

DIPOLE MOMENT
-------------
                                X             Y             Z
Electronic contribution:     -9.37986      -9.15484     -30.38109
Nuclear contribution   :      9.84732       9.33540      30.95943
                        -----------------------------------------
Total Dipole Moment    :      0.46746       0.18056       0.57834
                        -----------------------------------------
Magnitude (a.u.)       :      0.76525
Magnitude (Debye)      :      1.94510

Rotational constants in cm-1:     0.016529     0.009072     0.006144
Rotational constants in MHz :   495.531385   271.982378   184.177915

                             ****ORCA TERMINATED NORMALLY****
TOTAL RUN TIME: 0 days 0 hours 0 minutes 20 seconds 242 msec
