                         Program Version 4.2.1 -  RELEASE  -
|  1> ! wB97X-D3 SP def2-SVP
|  2> %pal
|  3> nprocs 24
|  4> end
|  5>
|  6> * xyz 0 1
|  7> S 	 -139.269 	 10.2209 	 3.60568
|  8> C 	 -140.681 	 10.4403 	 2.77027
|  9> C 	 -141.709 	 10.9883 	 3.5039
| 10> C 	 -141.281 	 11.3929 	 4.78008
| 11> C 	 -139.961 	 11.017 	 5.00138
| 12> H 	 -141.86 	 11.8461 	 5.53312
| 13> C 	 -143.015 	 11.3958 	 2.85633
| 14> H 	 -143.828 	 10.6777 	 3.01086
| 15> H 	 -142.804 	 11.1837 	 1.77568
| 16> C 	 -143.441 	 12.8409 	 3.22782
| 17> H 	 -143.7 	 12.8916 	 4.27142
| 18> H 	 -142.505 	 13.427 	 3.11672
| 19> C 	 -144.583 	 13.403 	 2.39262
| 20> H 	 -145.465 	 12.7393 	 2.17945
| 21> H 	 -144.92 	 14.3925 	 2.69796
| 22> H 	 -144.054 	 13.6988 	 1.54378
| 23> S 	 -137.609 	 11.4029 	 6.25766
| 24> C 	 -137.529 	 11.5136 	 7.97563
| 25> C 	 -138.734 	 11.2542 	 8.52053
| 26> C 	 -139.758 	 11.1341 	 7.55312
| 27> C 	 -139.291 	 11.0431 	 6.26266
| 28> H 	 -138.827 	 11.1754 	 9.60445
| 29> C 	 -141.249 	 10.993 	 7.99255
| 30> H 	 -141.064 	 10.416 	 8.86002
| 31> H 	 -141.639 	 10.1676 	 7.33375
| 32> C 	 -142.133 	 12.1374 	 8.29819
| 33> H 	 -143.223 	 11.8451 	 8.3619
| 34> H 	 -142.043 	 12.8638 	 7.49973
| 35> C 	 -141.821 	 12.8012 	 9.69465
| 36> H 	 -142.506 	 13.5767 	 9.89866
| 37> H 	 -140.799 	 13.2392 	 9.58449
| 38> H 	 -141.88 	 12.1182 	 10.5313
| 39> H 	 -140.856 	 10.2019 	 1.74616
| 40> H 	 -136.678 	 11.8679 	 8.50804
| 41> *
| 42>
| 43>                          ****END OF INPUT****

CARTESIAN COORDINATES (ANGSTROEM)
---------------------------------
  S    -139.269000   10.220900    3.605680
  C    -140.681000   10.440300    2.770270
  C    -141.709000   10.988300    3.503900
  C    -141.281000   11.392900    4.780080
  C    -139.961000   11.017000    5.001380
  H    -141.860000   11.846100    5.533120
  C    -143.015000   11.395800    2.856330
  H    -143.828000   10.677700    3.010860
  H    -142.804000   11.183700    1.775680
  C    -143.441000   12.840900    3.227820
  H    -143.700000   12.891600    4.271420
  H    -142.505000   13.427000    3.116720
  C    -144.583000   13.403000    2.392620
  H    -145.465000   12.739300    2.179450
  H    -144.920000   14.392500    2.697960
  H    -144.054000   13.698800    1.543780
  S    -137.609000   11.402900    6.257660
  C    -137.529000   11.513600    7.975630
  C    -138.734000   11.254200    8.520530
  C    -139.758000   11.134100    7.553120
  C    -139.291000   11.043100    6.262660
  H    -138.827000   11.175400    9.604450
  C    -141.249000   10.993000    7.992550
  H    -141.064000   10.416000    8.860020
  H    -141.639000   10.167600    7.333750
  C    -142.133000   12.137400    8.298190
  H    -143.223000   11.845100    8.361900
  H    -142.043000   12.863800    7.499730
  C    -141.821000   12.801200    9.694650
  H    -142.506000   13.576700    9.898660
  H    -140.799000   13.239200    9.584490
  H    -141.880000   12.118200   10.531300
  H    -140.856000   10.201900    1.746160
  H    -136.678000   11.867900    8.508040

 Total Charge           Charge          ....    0
 Multiplicity           Mult            ....    1
 Number of Electrons    NEL             ....  134
 Basis Dimension        Dim             ....  322

ORBITAL ENERGIES
----------------

  NO   OCC          E(Eh)            E(eV)
   0   2.0000     -88.968257     -2420.9493
   1   2.0000     -88.959589     -2420.7135
   2   2.0000     -10.323649      -280.9208
   3   2.0000     -10.318064      -280.7688
   4   2.0000     -10.309420      -280.5336
   5   2.0000     -10.301091      -280.3069
   6   2.0000     -10.300178      -280.2821
   7   2.0000     -10.293981      -280.1135
   8   2.0000     -10.293354      -280.0964
   9   2.0000     -10.292308      -280.0679
  10   2.0000     -10.289051      -279.9793
  11   2.0000     -10.288881      -279.9747
  12   2.0000     -10.287530      -279.9379
  13   2.0000     -10.287046      -279.9247
  14   2.0000     -10.279940      -279.7314
  15   2.0000     -10.276046      -279.6254
  16   2.0000      -8.084714      -219.9962
  17   2.0000      -8.075902      -219.7565
  18   2.0000      -6.042917      -164.4361
  19   2.0000      -6.039061      -164.3312
  20   2.0000      -6.035615      -164.2374
  21   2.0000      -6.034317      -164.2021
  22   2.0000      -6.030187      -164.0897
  23   2.0000      -6.026677      -163.9942
  24   2.0000      -1.019196       -27.7337
  25   2.0000      -0.996998       -27.1297
  26   2.0000      -0.912239       -24.8233
  27   2.0000      -0.910319       -24.7710
  28   2.0000      -0.878575       -23.9073
  29   2.0000      -0.858173       -23.3521
  30   2.0000      -0.846628       -23.0379
  31   2.0000      -0.819675       -22.3045
  32   2.0000      -0.784769       -21.3546
  33   2.0000      -0.772350       -21.0167
  34   2.0000      -0.717179       -19.5154
  35   2.0000      -0.702534       -19.1169
  36   2.0000      -0.688826       -18.7439
  37   2.0000      -0.668043       -18.1784
  38   2.0000      -0.641223       -17.4486
  39   2.0000      -0.623253       -16.9596
  40   2.0000      -0.592463       -16.1217
  41   2.0000      -0.574049       -15.6207
  42   2.0000      -0.560379       -15.2487
  43   2.0000      -0.555240       -15.1089
  44   2.0000      -0.547199       -14.8900
  45   2.0000      -0.524122       -14.2621
  46   2.0000      -0.517598       -14.0846
  47   2.0000      -0.512579       -13.9480
  48   2.0000      -0.509642       -13.8681
  49   2.0000      -0.504277       -13.7221
  50   2.0000      -0.494964       -13.4687
  51   2.0000      -0.479933       -13.0596
  52   2.0000      -0.472678       -12.8622
  53   2.0000      -0.466827       -12.7030
  54   2.0000      -0.461024       -12.5451
  55   2.0000      -0.453937       -12.3523
  56   2.0000      -0.447916       -12.1884
  57   2.0000      -0.441541       -12.0149
  58   2.0000      -0.433411       -11.7937
  59   2.0000      -0.428823       -11.6689
  60   2.0000      -0.413368       -11.2483
  61   2.0000      -0.409988       -11.1563
  62   2.0000      -0.406384       -11.0583
  63   2.0000      -0.360965        -9.8224
  64   2.0000      -0.335545        -9.1306
  65   2.0000      -0.328200        -8.9308
  66   2.0000      -0.281563        -7.6617
  67   0.0000       0.028351         0.7715
  68   0.0000       0.083777         2.2797
  69   0.0000       0.118396         3.2217
  70   0.0000       0.125425         3.4130
  71   0.0000       0.132363         3.6018

MULLIKEN ATOMIC CHARGES
-----------------------
   0 S :    0.138600
   1 C :   -0.095878
   2 C :   -0.095675
   3 C :    0.020685
   4 C :   -0.115880
   5 H :   -0.033486
   6 C :    0.064014
   7 H :    0.029480
   8 H :    0.009954
   9 C :   -0.107805
  10 H :    0.032843
  11 H :    0.043393
  12 C :   -0.011166
  13 H :    0.051465
  14 H :    0.021596
  15 H :    0.011913
  16 S :    0.088277
  17 C :   -0.078746
  18 C :   -0.024505
  19 C :   -0.108698
  20 C :   -0.105851
  21 H :    0.021843
  22 C :    0.038129
  23 H :   -0.000331
  24 H :    0.045645
  25 C :   -0.052234
  26 H :    0.041339
  27 H :    0.039497
  28 C :   -0.050493
  29 H :    0.025534
  30 H :    0.044297
  31 H :    0.031333
  32 H :    0.032051
  33 H :    0.048861
Sum of atomic charges:    0.0000000

LOEWDIN ATOMIC CHARGES
----------------------
   0 S :    0.450332
   1 C :   -0.225700
   2 C :   -0.067498
   3 C :   -0.052619
   4 C :   -0.191736
   5 H :    0.023284
   6 C :   -0.035795
   7 H :    0.028513
   8 H :    0.031087
   9 C :   -0.040449
  10 H :    0.017979
  11 H :    0.032248
  12 C :   -0.070416
  13 H :    0.034359
  14 H :    0.027595
  15 H :    0.022309
  16 S :    0.419465
  17 C :   -0.185219
  18 C :   -0.077127
  19 C :   -0.060693
  20 C :   -0.208619
  21 H :    0.034946
  22 C :   -0.047354
  23 H :    0.025298
  24 H :    0.041927
  25 C :   -0.043514
  26 H :    0.034601
  27 H :    0.020905
  28 C :   -0.060293
  29 H :    0.019184
  30 H :    0.031623
  31 H :    0.022675
  32 H :    0.022218
  33 H :    0.026483

  Mayer bond orders larger than 0.100000
B(  0-S ,  1-C ) :   1.1648 B(  0-S ,  4-C ) :   1.1617 B(  1-C ,  2-C ) :   1.5933
B(  1-C , 32-H ) :   0.9592 B(  2-C ,  3-C ) :   1.2707 B(  2-C ,  6-C ) :   1.0247
B(  3-C ,  4-C ) :   1.5355 B(  3-C ,  5-H ) :   1.0050 B(  4-C , 20-C ) :   1.0557
B(  6-C ,  7-H ) :   0.9228 B(  6-C ,  8-H ) :   0.9465 B(  6-C ,  9-C ) :   1.0586
B(  9-C , 10-H ) :   0.9495 B(  9-C , 11-H ) :   0.9629 B(  9-C , 12-C ) :   1.0751
B( 12-C , 13-H ) :   0.9746 B( 12-C , 14-H ) :   0.9691 B( 12-C , 15-H ) :   0.9717
B( 16-S , 17-C ) :   1.1647 B( 16-S , 20-C ) :   1.1357 B( 17-C , 18-C ) :   1.5981
B( 17-C , 33-H ) :   0.9700 B( 18-C , 19-C ) :   1.2579 B( 18-C , 21-H ) :   0.9895
B( 19-C , 20-C ) :   1.6040 B( 19-C , 22-C ) :   1.0030 B( 22-C , 23-H ) :   0.9311
B( 22-C , 24-H ) :   0.9376 B( 22-C , 25-C ) :   1.0572 B( 25-C , 26-H ) :   0.9519
B( 25-C , 27-H ) :   0.9485 B( 25-C , 28-C ) :   1.0806 B( 28-C , 29-H ) :   0.9737
B( 28-C , 30-H ) :   0.9760 B( 28-C , 31-H ) :   0.9763

Dispersion correction           -0.014398691
FINAL SINGLE POINT ENERGY     -1339.865033721800

DIPOLE MOMENT
-------------
                                X             Y             Z
Electronic contribution:     27.62997     -11.53037      -5.26711
Nuclear contribution   :    -28.20206      11.77210       5.53367
                        -----------------------------------------
Total Dipole Moment    :     -0.57209       0.24173       0.26657
                        -----------------------------------------
Magnitude (a.u.)       :      0.67585
Magnitude (Debye)      :      1.71788

Rotational constants in cm-1:     0.017708     0.009462     0.006637
Rotational constants in MHz :   530.877300   283.656981   198.958950

                             ****ORCA TERMINATED NORMALLY****
TOTAL RUN TIME: 0 days 0 hours 0 minutes 22 seconds 299 msec
