                         Program Version 4.2.1 -  RELEASE  -
|  1> ! wB97X-D3 SP def2-SVP
|  2> %pal
|  3> nprocs 24
|  4> end
|  5>
|  6> * xyz 0 1
|  7> S 	 33.4944 	 -36.7603 	 -129.738
|  8> C 	 34.4153 	 -35.3189 	 -129.55
|  9> C 	 33.8175 	 -34.2232 	 -130.244
| 10> C 	 32.6687 	 -34.7279 	 -130.957
| 11> C 	 32.3421 	 -36.0621 	 -130.736
| 12> H 	 31.9759 	 -34.1524 	 -131.494
| 13> C 	 34.3805 	 -32.8833 	 -130.406
| 14> H 	 34.7028 	 -32.5058 	 -131.386
| 15> H 	 35.3455 	 -32.816 	 -129.818
| 16> C 	 33.4427 	 -31.8558 	 -129.789
| 17> H 	 33.534 	 -31.0079 	 -130.463
| 18> H 	 32.4842 	 -32.1746 	 -129.932
| 19> C 	 33.829 	 -31.4261 	 -128.353
| 20> H 	 33.2816 	 -30.5087 	 -128.029
| 21> H 	 33.5531 	 -32.2992 	 -127.75
| 22> H 	 34.9089 	 -31.3046 	 -128.375
| 23> S 	 31.8064 	 -38.4725 	 -131.857
| 24> C 	 30.2781 	 -39.0105 	 -132.082
| 25> C 	 29.3821 	 -37.9891 	 -131.97
| 26> C 	 30.0028 	 -36.7336 	 -131.626
| 27> C 	 31.3104 	 -36.9339 	 -131.339
| 28> H 	 28.3284 	 -38.1965 	 -132.123
| 29> C 	 29.1908 	 -35.4877 	 -131.389
| 30> H 	 28.5771 	 -35.3325 	 -132.248
| 31> H 	 29.8828 	 -34.616 	 -131.242
| 32> C 	 28.2833 	 -35.5356 	 -130.134
| 33> H 	 28.9809 	 -35.5775 	 -129.271
| 34> H 	 27.7377 	 -36.4509 	 -130.146
| 35> C 	 27.3629 	 -34.3505 	 -129.892
| 36> H 	 26.581 	 -34.2692 	 -130.661
| 37> H 	 27.7945 	 -33.4088 	 -129.913
| 38> H 	 26.8568 	 -34.5381 	 -128.881
| 39> H 	 35.3333 	 -35.4024 	 -128.958
| 40> H 	 30.0069 	 -40.0656 	 -132.233
| 41> *
| 42>
| 43>                          ****END OF INPUT****

CARTESIAN COORDINATES (ANGSTROEM)
---------------------------------
  S     33.494400  -36.760300  -129.738000
  C     34.415300  -35.318900  -129.550000
  C     33.817500  -34.223200  -130.244000
  C     32.668700  -34.727900  -130.957000
  C     32.342100  -36.062100  -130.736000
  H     31.975900  -34.152400  -131.494000
  C     34.380500  -32.883300  -130.406000
  H     34.702800  -32.505800  -131.386000
  H     35.345500  -32.816000  -129.818000
  C     33.442700  -31.855800  -129.789000
  H     33.534000  -31.007900  -130.463000
  H     32.484200  -32.174600  -129.932000
  C     33.829000  -31.426100  -128.353000
  H     33.281600  -30.508700  -128.029000
  H     33.553100  -32.299200  -127.750000
  H     34.908900  -31.304600  -128.375000
  S     31.806400  -38.472500  -131.857000
  C     30.278100  -39.010500  -132.082000
  C     29.382100  -37.989100  -131.970000
  C     30.002800  -36.733600  -131.626000
  C     31.310400  -36.933900  -131.339000
  H     28.328400  -38.196500  -132.123000
  C     29.190800  -35.487700  -131.389000
  H     28.577100  -35.332500  -132.248000
  H     29.882800  -34.616000  -131.242000
  C     28.283300  -35.535600  -130.134000
  H     28.980900  -35.577500  -129.271000
  H     27.737700  -36.450900  -130.146000
  C     27.362900  -34.350500  -129.892000
  H     26.581000  -34.269200  -130.661000
  H     27.794500  -33.408800  -129.913000
  H     26.856800  -34.538100  -128.881000
  H     35.333300  -35.402400  -128.958000
  H     30.006900  -40.065600  -132.233000

 Total Charge           Charge          ....    0
 Multiplicity           Mult            ....    1
 Number of Electrons    NEL             ....  134
 Basis Dimension        Dim             ....  322

ORBITAL ENERGIES
----------------

  NO   OCC          E(Eh)            E(eV)
   0   2.0000     -88.964118     -2420.8367
   1   2.0000     -88.959831     -2420.7201
   2   2.0000     -10.325044      -280.9587
   3   2.0000     -10.319925      -280.8194
   4   2.0000     -10.317244      -280.7465
   5   2.0000     -10.307855      -280.4910
   6   2.0000     -10.306256      -280.4475
   7   2.0000     -10.298699      -280.2418
   8   2.0000     -10.291594      -280.0485
   9   2.0000     -10.291082      -280.0346
  10   2.0000     -10.290679      -280.0236
  11   2.0000     -10.289134      -279.9816
  12   2.0000     -10.283841      -279.8375
  13   2.0000     -10.281838      -279.7830
  14   2.0000     -10.278650      -279.6963
  15   2.0000     -10.273459      -279.5550
  16   2.0000      -8.080766      -219.8888
  17   2.0000      -8.078298      -219.8217
  18   2.0000      -6.038989      -164.3292
  19   2.0000      -6.036497      -164.2614
  20   2.0000      -6.034700      -164.2125
  21   2.0000      -6.032217      -164.1450
  22   2.0000      -6.032010      -164.1393
  23   2.0000      -6.029197      -164.0628
  24   2.0000      -1.026157       -27.9231
  25   2.0000      -0.997947       -27.1555
  26   2.0000      -0.922310       -25.0973
  27   2.0000      -0.911840       -24.8124
  28   2.0000      -0.870192       -23.6791
  29   2.0000      -0.856822       -23.3153
  30   2.0000      -0.845112       -22.9967
  31   2.0000      -0.815169       -22.1819
  32   2.0000      -0.785496       -21.3744
  33   2.0000      -0.775681       -21.1073
  34   2.0000      -0.710645       -19.3376
  35   2.0000      -0.698968       -19.0199
  36   2.0000      -0.686574       -18.6826
  37   2.0000      -0.664230       -18.0746
  38   2.0000      -0.647506       -17.6195
  39   2.0000      -0.627902       -17.0861
  40   2.0000      -0.602349       -16.3907
  41   2.0000      -0.579465       -15.7680
  42   2.0000      -0.565125       -15.3778
  43   2.0000      -0.550664       -14.9843
  44   2.0000      -0.536861       -14.6087
  45   2.0000      -0.527499       -14.3540
  46   2.0000      -0.515747       -14.0342
  47   2.0000      -0.513555       -13.9746
  48   2.0000      -0.505512       -13.7557
  49   2.0000      -0.500976       -13.6322
  50   2.0000      -0.497555       -13.5392
  51   2.0000      -0.484648       -13.1879
  52   2.0000      -0.476292       -12.9606
  53   2.0000      -0.471005       -12.8167
  54   2.0000      -0.463266       -12.6061
  55   2.0000      -0.449106       -12.2208
  56   2.0000      -0.441067       -12.0020
  57   2.0000      -0.440269       -11.9803
  58   2.0000      -0.429806       -11.6956
  59   2.0000      -0.427137       -11.6230
  60   2.0000      -0.425099       -11.5675
  61   2.0000      -0.416093       -11.3225
  62   2.0000      -0.405161       -11.0250
  63   2.0000      -0.351518        -9.5653
  64   2.0000      -0.329627        -8.9696
  65   2.0000      -0.326159        -8.8752
  66   2.0000      -0.292670        -7.9639
  67   0.0000       0.035315         0.9610
  68   0.0000       0.081148         2.2081
  69   0.0000       0.112384         3.0581
  70   0.0000       0.123609         3.3636
  71   0.0000       0.133962         3.6453

MULLIKEN ATOMIC CHARGES
-----------------------
   0 S :    0.116487
   1 C :   -0.142562
   2 C :   -0.061484
   3 C :    0.051100
   4 C :   -0.157552
   5 H :   -0.013032
   6 C :    0.023318
   7 H :    0.046517
   8 H :    0.015733
   9 C :   -0.057868
  10 H :    0.008399
  11 H :    0.003555
  12 C :   -0.035301
  13 H :    0.051325
  14 H :    0.038084
  15 H :    0.028537
  16 S :    0.126317
  17 C :   -0.089536
  18 C :   -0.060389
  19 C :   -0.029816
  20 C :   -0.149174
  21 H :    0.015829
  22 C :    0.079794
  23 H :    0.019519
  24 H :    0.015978
  25 C :   -0.082460
  26 H :    0.033348
  27 H :    0.020567
  28 C :   -0.029300
  29 H :    0.022049
  30 H :    0.017020
  31 H :    0.048250
  32 H :    0.062117
  33 H :    0.064630
Sum of atomic charges:   -0.0000000

LOEWDIN ATOMIC CHARGES
----------------------
   0 S :    0.456041
   1 C :   -0.212396
   2 C :   -0.059402
   3 C :   -0.064499
   4 C :   -0.217520
   5 H :    0.015283
   6 C :   -0.038296
   7 H :    0.036823
   8 H :    0.034293
   9 C :   -0.035993
  10 H :    0.019594
  11 H :    0.006555
  12 C :   -0.060062
  13 H :    0.032196
  14 H :    0.029623
  15 H :    0.023000
  16 S :    0.465603
  17 C :   -0.224510
  18 C :   -0.075754
  19 C :   -0.059525
  20 C :   -0.214702
  21 H :    0.029329
  22 C :   -0.030432
  23 H :    0.026225
  24 H :    0.031093
  25 C :   -0.038810
  26 H :    0.029750
  27 H :    0.017909
  28 C :   -0.064900
  29 H :    0.023198
  30 H :    0.013441
  31 H :    0.040726
  32 H :    0.028915
  33 H :    0.037205

  Mayer bond orders larger than 0.100000
B(  0-S ,  1-C ) :   1.1804 B(  0-S ,  4-C ) :   1.1940 B(  1-C ,  2-C ) :   1.5283
B(  1-C ,  4-C ) :   0.1009 B(  1-C , 32-H ) :   0.9714 B(  2-C ,  3-C ) :   1.2749
B(  2-C ,  6-C ) :   1.0463 B(  3-C ,  4-C ) :   1.5440 B(  3-C ,  5-H ) :   0.9919
B(  4-C , 20-C ) :   1.0019 B(  6-C ,  7-H ) :   0.9504 B(  6-C ,  8-H ) :   0.9420
B(  6-C ,  9-C ) :   1.0485 B(  9-C , 10-H ) :   0.9528 B(  9-C , 11-H ) :   0.9631
B(  9-C , 12-C ) :   1.0735 B( 12-C , 13-H ) :   0.9762 B( 12-C , 14-H ) :   0.9762
B( 12-C , 15-H ) :   0.9750 B( 16-S , 17-C ) :   1.1814 B( 16-S , 20-C ) :   1.1726
B( 17-C , 18-C ) :   1.5916 B( 17-C , 33-H ) :   0.9665 B( 18-C , 19-C ) :   1.2292
B( 18-C , 21-H ) :   0.9966 B( 19-C , 20-C ) :   1.5979 B( 19-C , 22-C ) :   1.0637
B( 22-C , 23-H ) :   0.9241 B( 22-C , 24-H ) :   0.9313 B( 22-C , 25-C ) :   1.0684
B( 25-C , 26-H ) :   0.9549 B( 25-C , 27-H ) :   0.9569 B( 25-C , 28-C ) :   1.0857
B( 28-C , 29-H ) :   0.9721 B( 28-C , 30-H ) :   0.9747 B( 28-C , 31-H ) :   0.9723

Dispersion correction           -0.013761808
FINAL SINGLE POINT ENERGY     -1339.867604307585

DIPOLE MOMENT
-------------
                                X             Y             Z
Electronic contribution:     10.72246     -26.46979      -7.77788
Nuclear contribution   :    -10.99692      26.85626       7.77299
                        -----------------------------------------
Total Dipole Moment    :     -0.27446       0.38648      -0.00489
                        -----------------------------------------
Magnitude (a.u.)       :      0.47404
Magnitude (Debye)      :      1.20491

Rotational constants in cm-1:     0.018062     0.009112     0.006568
Rotational constants in MHz :   541.491553   273.169237   196.892194

                             ****ORCA TERMINATED NORMALLY****
TOTAL RUN TIME: 0 days 0 hours 0 minutes 21 seconds 453 msec
