                         Program Version 4.2.1 -  RELEASE  -
|  1> ! wB97X-D3 SP def2-SVP
|  2> %pal
|  3> nprocs 24
|  4> end
|  5>
|  6> * xyz 0 1
|  7> S 	 -103.396 	 24.5526 	 -110.552
|  8> C 	 -103.134 	 23.396 	 -109.284
|  9> C 	 -103.146 	 24.0699 	 -108.029
| 10> C 	 -103.215 	 25.4813 	 -108.077
| 11> C 	 -103.342 	 25.8836 	 -109.371
| 12> H 	 -103.257 	 26.0962 	 -107.279
| 13> C 	 -102.823 	 23.3805 	 -106.734
| 14> H 	 -102.593 	 22.3309 	 -106.888
| 15> H 	 -103.76 	 23.4769 	 -106.088
| 16> C 	 -101.688 	 24.0822 	 -105.998
| 17> H 	 -100.785 	 24.051 	 -106.61
| 18> H 	 -101.883 	 25.1542 	 -105.862
| 19> C 	 -101.506 	 23.5331 	 -104.496
| 20> H 	 -100.681 	 24.0439 	 -104.033
| 21> H 	 -102.446 	 23.7443 	 -103.911
| 22> H 	 -101.299 	 22.4674 	 -104.406
| 23> S 	 -102.014 	 27.8218 	 -110.708
| 24> C 	 -102.602 	 29.4348 	 -110.628
| 25> C 	 -103.72 	 29.616 	 -109.868
| 26> C 	 -104.214 	 28.3759 	 -109.314
| 27> C 	 -103.385 	 27.2866 	 -109.739
| 28> H 	 -104.234 	 30.5082 	 -109.757
| 29> C 	 -105.454 	 28.3344 	 -108.491
| 30> H 	 -105.85 	 27.2913 	 -108.489
| 31> H 	 -106.221 	 28.885 	 -109.025
| 32> C 	 -105.305 	 28.6436 	 -107.001
| 33> H 	 -104.531 	 28.0287 	 -106.662
| 34> H 	 -106.162 	 28.2467 	 -106.524
| 35> C 	 -105.197 	 30.1888 	 -106.752
| 36> H 	 -105.969 	 30.7447 	 -107.206
| 37> H 	 -104.208 	 30.5312 	 -107.118
| 38> H 	 -105.35 	 30.3702 	 -105.663
| 39> H 	 -102.823 	 22.389 	 -109.498
| 40> H 	 -102.128 	 30.267 	 -111.192
| 41> *
| 42>
| 43>                          ****END OF INPUT****

CARTESIAN COORDINATES (ANGSTROEM)
---------------------------------
  S    -103.396000   24.552600  -110.552000
  C    -103.134000   23.396000  -109.284000
  C    -103.146000   24.069900  -108.029000
  C    -103.215000   25.481300  -108.077000
  C    -103.342000   25.883600  -109.371000
  H    -103.257000   26.096200  -107.279000
  C    -102.823000   23.380500  -106.734000
  H    -102.593000   22.330900  -106.888000
  H    -103.760000   23.476900  -106.088000
  C    -101.688000   24.082200  -105.998000
  H    -100.785000   24.051000  -106.610000
  H    -101.883000   25.154200  -105.862000
  C    -101.506000   23.533100  -104.496000
  H    -100.681000   24.043900  -104.033000
  H    -102.446000   23.744300  -103.911000
  H    -101.299000   22.467400  -104.406000
  S    -102.014000   27.821800  -110.708000
  C    -102.602000   29.434800  -110.628000
  C    -103.720000   29.616000  -109.868000
  C    -104.214000   28.375900  -109.314000
  C    -103.385000   27.286600  -109.739000
  H    -104.234000   30.508200  -109.757000
  C    -105.454000   28.334400  -108.491000
  H    -105.850000   27.291300  -108.489000
  H    -106.221000   28.885000  -109.025000
  C    -105.305000   28.643600  -107.001000
  H    -104.531000   28.028700  -106.662000
  H    -106.162000   28.246700  -106.524000
  C    -105.197000   30.188800  -106.752000
  H    -105.969000   30.744700  -107.206000
  H    -104.208000   30.531200  -107.118000
  H    -105.350000   30.370200  -105.663000
  H    -102.823000   22.389000  -109.498000
  H    -102.128000   30.267000  -111.192000

 Total Charge           Charge          ....    0
 Multiplicity           Mult            ....    1
 Number of Electrons    NEL             ....  134
 Basis Dimension        Dim             ....  322

ORBITAL ENERGIES
----------------

  NO   OCC          E(Eh)            E(eV)
   0   2.0000     -88.966116     -2420.8911
   1   2.0000     -88.965767     -2420.8816
   2   2.0000     -10.326656      -281.0026
   3   2.0000     -10.325332      -280.9666
   4   2.0000     -10.314171      -280.6629
   5   2.0000     -10.313973      -280.6575
   6   2.0000     -10.306094      -280.4431
   7   2.0000     -10.300464      -280.2899
   8   2.0000     -10.291796      -280.0540
   9   2.0000     -10.290826      -280.0276
  10   2.0000     -10.288378      -279.9610
  11   2.0000     -10.286523      -279.9105
  12   2.0000     -10.284792      -279.8634
  13   2.0000     -10.284283      -279.8496
  14   2.0000     -10.283132      -279.8182
  15   2.0000     -10.281890      -279.7844
  16   2.0000      -8.080924      -219.8931
  17   2.0000      -8.080548      -219.8829
  18   2.0000      -6.039306      -164.3379
  19   2.0000      -6.039047      -164.3308
  20   2.0000      -6.035403      -164.2317
  21   2.0000      -6.035072      -164.2227
  22   2.0000      -6.031773      -164.1329
  23   2.0000      -6.031384      -164.1223
  24   2.0000      -1.004638       -27.3376
  25   2.0000      -0.981974       -26.7209
  26   2.0000      -0.913064       -24.8457
  27   2.0000      -0.907349       -24.6902
  28   2.0000      -0.869170       -23.6513
  29   2.0000      -0.850311       -23.1381
  30   2.0000      -0.843964       -22.9654
  31   2.0000      -0.812604       -22.1121
  32   2.0000      -0.782643       -21.2968
  33   2.0000      -0.763311       -20.7707
  34   2.0000      -0.716331       -19.4924
  35   2.0000      -0.701712       -19.0946
  36   2.0000      -0.687141       -18.6981
  37   2.0000      -0.663028       -18.0419
  38   2.0000      -0.648726       -17.6527
  39   2.0000      -0.625608       -17.0237
  40   2.0000      -0.598067       -16.2742
  41   2.0000      -0.563630       -15.3371
  42   2.0000      -0.556085       -15.1319
  43   2.0000      -0.551278       -15.0010
  44   2.0000      -0.538617       -14.6565
  45   2.0000      -0.526784       -14.3345
  46   2.0000      -0.517388       -14.0788
  47   2.0000      -0.508134       -13.8270
  48   2.0000      -0.505555       -13.7568
  49   2.0000      -0.496946       -13.5226
  50   2.0000      -0.492967       -13.4143
  51   2.0000      -0.477929       -13.0051
  52   2.0000      -0.470593       -12.8055
  53   2.0000      -0.465106       -12.6562
  54   2.0000      -0.459011       -12.4903
  55   2.0000      -0.451516       -12.2864
  56   2.0000      -0.450545       -12.2600
  57   2.0000      -0.444641       -12.0993
  58   2.0000      -0.439553       -11.9609
  59   2.0000      -0.425149       -11.5689
  60   2.0000      -0.424342       -11.5469
  61   2.0000      -0.411812       -11.2060
  62   2.0000      -0.407128       -11.0785
  63   2.0000      -0.345100        -9.3906
  64   2.0000      -0.329925        -8.9777
  65   2.0000      -0.322145        -8.7660
  66   2.0000      -0.292262        -7.9529
  67   0.0000       0.031026         0.8443
  68   0.0000       0.069263         1.8847
  69   0.0000       0.115200         3.1348
  70   0.0000       0.120423         3.2769
  71   0.0000       0.126027         3.4294

MULLIKEN ATOMIC CHARGES
-----------------------
   0 S :    0.114007
   1 C :   -0.134945
   2 C :   -0.066265
   3 C :    0.075525
   4 C :   -0.139433
   5 H :   -0.040930
   6 C :    0.067015
   7 H :    0.021729
   8 H :    0.036696
   9 C :   -0.115386
  10 H :    0.038429
  11 H :    0.033597
  12 C :   -0.059578
  13 H :    0.033936
  14 H :    0.037909
  15 H :    0.034746
  16 S :    0.119914
  17 C :   -0.089008
  18 C :   -0.007474
  19 C :   -0.028728
  20 C :   -0.188192
  21 H :   -0.009818
  22 C :    0.017253
  23 H :    0.026439
  24 H :    0.028606
  25 C :   -0.005900
  26 H :    0.006778
  27 H :    0.016211
  28 C :   -0.049508
  29 H :    0.020942
  30 H :    0.048356
  31 H :    0.037691
  32 H :    0.054125
  33 H :    0.065260
Sum of atomic charges:    0.0000000

LOEWDIN ATOMIC CHARGES
----------------------
   0 S :    0.398619
   1 C :   -0.211309
   2 C :   -0.055075
   3 C :   -0.044749
   4 C :   -0.183343
   5 H :    0.012451
   6 C :   -0.037679
   7 H :    0.027240
   8 H :    0.037853
   9 C :   -0.040478
  10 H :    0.025407
  11 H :    0.023682
  12 C :   -0.068332
  13 H :    0.022974
  14 H :    0.030419
  15 H :    0.022153
  16 S :    0.419509
  17 C :   -0.196123
  18 C :   -0.068727
  19 C :   -0.046347
  20 C :   -0.200882
  21 H :    0.019423
  22 C :   -0.039412
  23 H :    0.037536
  24 H :    0.030268
  25 C :   -0.026603
  26 H :    0.015887
  27 H :    0.020437
  28 C :   -0.063883
  29 H :    0.017506
  30 H :    0.030405
  31 H :    0.030775
  32 H :    0.026019
  33 H :    0.034379

  Mayer bond orders larger than 0.100000
B(  0-S ,  1-C ) :   1.1330 B(  0-S ,  4-C ) :   1.1593 B(  1-C ,  2-C ) :   1.5780
B(  1-C , 32-H ) :   0.9734 B(  2-C ,  3-C ) :   1.2368 B(  2-C ,  6-C ) :   1.0397
B(  3-C ,  4-C ) :   1.5584 B(  3-C ,  5-H ) :   1.0149 B(  4-C , 20-C ) :   1.0281
B(  6-C ,  7-H ) :   0.9480 B(  6-C ,  8-H ) :   0.9281 B(  6-C ,  9-C ) :   1.0635
B(  9-C , 10-H ) :   0.9594 B(  9-C , 11-H ) :   0.9515 B(  9-C , 12-C ) :   1.0672
B( 12-C , 13-H ) :   0.9773 B( 12-C , 14-H ) :   0.9761 B( 12-C , 15-H ) :   0.9791
B( 16-S , 17-C ) :   1.1613 B( 16-S , 20-C ) :   1.1553 B( 17-C , 18-C ) :   1.6031
B( 17-C , 33-H ) :   0.9589 B( 18-C , 19-C ) :   1.2403 B( 18-C , 21-H ) :   0.9979
B( 19-C , 20-C ) :   1.5766 B( 19-C , 22-C ) :   1.0569 B( 22-C , 23-H ) :   0.9278
B( 22-C , 24-H ) :   0.9381 B( 22-C , 25-C ) :   1.0749 B( 25-C , 26-H ) :   0.9508
B( 25-C , 27-H ) :   0.9522 B( 25-C , 28-C ) :   1.0721 B( 28-C , 29-H ) :   0.9761
B( 28-C , 30-H ) :   0.9747 B( 28-C , 31-H ) :   0.9746

Dispersion correction           -0.014580991
FINAL SINGLE POINT ENERGY     -1339.872411238536

DIPOLE MOMENT
-------------
                                X             Y             Z
Electronic contribution:      4.58758      -2.04811     -27.84039
Nuclear contribution   :     -4.71607       2.21159      28.40796
                        -----------------------------------------
Total Dipole Moment    :     -0.12849       0.16348       0.56757
                        -----------------------------------------
Magnitude (a.u.)       :      0.60446
Magnitude (Debye)      :      1.53641

Rotational constants in cm-1:     0.016799     0.009151     0.007083
Rotational constants in MHz :   503.620803   274.340125   212.336355

                             ****ORCA TERMINATED NORMALLY****
TOTAL RUN TIME: 0 days 0 hours 0 minutes 20 seconds 863 msec
