                         Program Version 4.2.1 -  RELEASE  -
|  1> ! wB97X-D3 SP def2-SVP
|  2> %pal
|  3> nprocs 24
|  4> end
|  5>
|  6> * xyz 0 1
|  7> S 	 -85.0576 	 -46.1517 	 -71.0904
|  8> C 	 -84.5352 	 -45.8093 	 -69.5066
|  9> C 	 -85.6007 	 -45.7752 	 -68.6146
| 10> C 	 -86.8381 	 -46.0135 	 -69.2629
| 11> C 	 -86.7157 	 -46.1161 	 -70.6473
| 12> H 	 -87.7699 	 -46.0277 	 -68.8463
| 13> C 	 -85.3243 	 -45.5697 	 -67.1554
| 14> H 	 -84.6578 	 -44.6908 	 -67.2054
| 15> H 	 -84.6669 	 -46.2899 	 -66.8156
| 16> C 	 -86.3762 	 -45.334 	 -66.0934
| 17> H 	 -85.7384 	 -45.0662 	 -65.2353
| 18> H 	 -86.9871 	 -44.4621 	 -66.3987
| 19> C 	 -87.3112 	 -46.4198 	 -65.7252
| 20> H 	 -88.0431 	 -46.2727 	 -66.4898
| 21> H 	 -86.8357 	 -47.4097 	 -65.8881
| 22> H 	 -87.7719 	 -46.258 	 -64.7419
| 23> S 	 -88.0824 	 -44.5677 	 -72.393
| 24> C 	 -89.4833 	 -45.1928 	 -73.2689
| 25> C 	 -89.7046 	 -46.5216 	 -72.8708
| 26> C 	 -88.7537 	 -47.0068 	 -71.8964
| 27> C 	 -87.7542 	 -46.0823 	 -71.5837
| 28> H 	 -90.4037 	 -47.1629 	 -73.4336
| 29> C 	 -88.7262 	 -48.4692 	 -71.3585
| 30> H 	 -89.6996 	 -48.8798 	 -71.3469
| 31> H 	 -88.4756 	 -48.5945 	 -70.3263
| 32> C 	 -87.7564 	 -49.378 	 -72.1446
| 33> H 	 -87.8588 	 -50.423 	 -71.8391
| 34> H 	 -86.7215 	 -49.0532 	 -71.8948
| 35> C 	 -87.9716 	 -49.3149 	 -73.6479
| 36> H 	 -87.9216 	 -48.3107 	 -74.0826
| 37> H 	 -88.9199 	 -49.7689 	 -73.9323
| 38> H 	 -87.1589 	 -49.9434 	 -74.1112
| 39> H 	 -83.4873 	 -45.7017 	 -69.184
| 40> H 	 -89.9552 	 -44.844 	 -74.1899
| 41> *
| 42>
| 43>                          ****END OF INPUT****

CARTESIAN COORDINATES (ANGSTROEM)
---------------------------------
  S    -85.057600  -46.151700  -71.090400
  C    -84.535200  -45.809300  -69.506600
  C    -85.600700  -45.775200  -68.614600
  C    -86.838100  -46.013500  -69.262900
  C    -86.715700  -46.116100  -70.647300
  H    -87.769900  -46.027700  -68.846300
  C    -85.324300  -45.569700  -67.155400
  H    -84.657800  -44.690800  -67.205400
  H    -84.666900  -46.289900  -66.815600
  C    -86.376200  -45.334000  -66.093400
  H    -85.738400  -45.066200  -65.235300
  H    -86.987100  -44.462100  -66.398700
  C    -87.311200  -46.419800  -65.725200
  H    -88.043100  -46.272700  -66.489800
  H    -86.835700  -47.409700  -65.888100
  H    -87.771900  -46.258000  -64.741900
  S    -88.082400  -44.567700  -72.393000
  C    -89.483300  -45.192800  -73.268900
  C    -89.704600  -46.521600  -72.870800
  C    -88.753700  -47.006800  -71.896400
  C    -87.754200  -46.082300  -71.583700
  H    -90.403700  -47.162900  -73.433600
  C    -88.726200  -48.469200  -71.358500
  H    -89.699600  -48.879800  -71.346900
  H    -88.475600  -48.594500  -70.326300
  C    -87.756400  -49.378000  -72.144600
  H    -87.858800  -50.423000  -71.839100
  H    -86.721500  -49.053200  -71.894800
  C    -87.971600  -49.314900  -73.647900
  H    -87.921600  -48.310700  -74.082600
  H    -88.919900  -49.768900  -73.932300
  H    -87.158900  -49.943400  -74.111200
  H    -83.487300  -45.701700  -69.184000
  H    -89.955200  -44.844000  -74.189900

 Total Charge           Charge          ....    0
 Multiplicity           Mult            ....    1
 Number of Electrons    NEL             ....  134
 Basis Dimension        Dim             ....  322

ORBITAL ENERGIES
----------------

  NO   OCC          E(Eh)            E(eV)
   0   2.0000     -88.968769     -2420.9633
   1   2.0000     -88.964725     -2420.8532
   2   2.0000     -10.322118      -280.8791
   3   2.0000     -10.321308      -280.8571
   4   2.0000     -10.320834      -280.8442
   5   2.0000     -10.310954      -280.5753
   6   2.0000     -10.307754      -280.4883
   7   2.0000     -10.300160      -280.2816
   8   2.0000     -10.299766      -280.2709
   9   2.0000     -10.289585      -279.9938
  10   2.0000     -10.284988      -279.8688
  11   2.0000     -10.284690      -279.8606
  12   2.0000     -10.284291      -279.8498
  13   2.0000     -10.283310      -279.8231
  14   2.0000     -10.276323      -279.6330
  15   2.0000     -10.272960      -279.5415
  16   2.0000      -8.084498      -219.9904
  17   2.0000      -8.079074      -219.8428
  18   2.0000      -6.042746      -164.4315
  19   2.0000      -6.038663      -164.3204
  20   2.0000      -6.037710      -164.2944
  21   2.0000      -6.035681      -164.2392
  22   2.0000      -6.033409      -164.1774
  23   2.0000      -6.029913      -164.0823
  24   2.0000      -1.014131       -27.5959
  25   2.0000      -0.983654       -26.7666
  26   2.0000      -0.922116       -25.0921
  27   2.0000      -0.903074       -24.5739
  28   2.0000      -0.878915       -23.9165
  29   2.0000      -0.855960       -23.2919
  30   2.0000      -0.837887       -22.8001
  31   2.0000      -0.820887       -22.3375
  32   2.0000      -0.788700       -21.4616
  33   2.0000      -0.773508       -21.0482
  34   2.0000      -0.713489       -19.4150
  35   2.0000      -0.688572       -18.7370
  36   2.0000      -0.682776       -18.5793
  37   2.0000      -0.658364       -17.9150
  38   2.0000      -0.649112       -17.6632
  39   2.0000      -0.625177       -17.0119
  40   2.0000      -0.592078       -16.1113
  41   2.0000      -0.577963       -15.7272
  42   2.0000      -0.552094       -15.0232
  43   2.0000      -0.549801       -14.9608
  44   2.0000      -0.548596       -14.9280
  45   2.0000      -0.537438       -14.6244
  46   2.0000      -0.522746       -14.2246
  47   2.0000      -0.512255       -13.9392
  48   2.0000      -0.510742       -13.8980
  49   2.0000      -0.500300       -13.6138
  50   2.0000      -0.491440       -13.3728
  51   2.0000      -0.482485       -13.1291
  52   2.0000      -0.480654       -13.0793
  53   2.0000      -0.464492       -12.6395
  54   2.0000      -0.459391       -12.5007
  55   2.0000      -0.446315       -12.1449
  56   2.0000      -0.433826       -11.8050
  57   2.0000      -0.432766       -11.7762
  58   2.0000      -0.425859       -11.5882
  59   2.0000      -0.424434       -11.5494
  60   2.0000      -0.421602       -11.4724
  61   2.0000      -0.412418       -11.2225
  62   2.0000      -0.409267       -11.1367
  63   2.0000      -0.340634        -9.2691
  64   2.0000      -0.327167        -8.9027
  65   2.0000      -0.321075        -8.7369
  66   2.0000      -0.303229        -8.2513
  67   0.0000       0.031341         0.8528
  68   0.0000       0.058285         1.5860
  69   0.0000       0.116874         3.1803
  70   0.0000       0.126035         3.4296
  71   0.0000       0.129851         3.5334

MULLIKEN ATOMIC CHARGES
-----------------------
   0 S :    0.148811
   1 C :   -0.143449
   2 C :   -0.062730
   3 C :    0.093541
   4 C :   -0.203485
   5 H :   -0.034887
   6 C :    0.040491
   7 H :    0.031721
   8 H :    0.014303
   9 C :   -0.073121
  10 H :    0.025567
  11 H :    0.028677
  12 C :   -0.023496
  13 H :    0.019204
  14 H :    0.037948
  15 H :    0.047320
  16 S :    0.116387
  17 C :   -0.095908
  18 C :   -0.062570
  19 C :   -0.041571
  20 C :   -0.171880
  21 H :    0.033866
  22 C :    0.117496
  23 H :    0.001841
  24 H :    0.014436
  25 C :   -0.077576
  26 H :    0.028856
  27 H :    0.031067
  28 C :   -0.077756
  29 H :    0.052887
  30 H :    0.023440
  31 H :    0.036917
  32 H :    0.054533
  33 H :    0.069121
Sum of atomic charges:   -0.0000000

LOEWDIN ATOMIC CHARGES
----------------------
   0 S :    0.455522
   1 C :   -0.219390
   2 C :   -0.061597
   3 C :   -0.044459
   4 C :   -0.219414
   5 H :    0.014777
   6 C :   -0.039131
   7 H :    0.044039
   8 H :    0.022390
   9 C :   -0.047024
  10 H :    0.027614
  11 H :    0.026067
  12 C :   -0.066299
  13 H :    0.022571
  14 H :    0.029815
  15 H :    0.033497
  16 S :    0.409699
  17 C :   -0.195110
  18 C :   -0.073930
  19 C :   -0.050274
  20 C :   -0.209118
  21 H :    0.034412
  22 C :   -0.030572
  23 H :    0.020886
  24 H :    0.028331
  25 C :   -0.038897
  26 H :    0.024735
  27 H :    0.023134
  28 C :   -0.072865
  29 H :    0.026926
  30 H :    0.019652
  31 H :    0.032025
  32 H :    0.033783
  33 H :    0.038205

  Mayer bond orders larger than 0.100000
B(  0-S ,  1-C ) :   1.1680 B(  0-S ,  4-C ) :   1.1815 B(  1-C ,  2-C ) :   1.5582
B(  1-C ,  4-C ) :   0.1075 B(  1-C , 32-H ) :   0.9721 B(  2-C ,  3-C ) :   1.2811
B(  2-C ,  6-C ) :   0.9932 B(  3-C ,  4-C ) :   1.5247 B(  3-C ,  5-H ) :   1.0122
B(  4-C , 20-C ) :   1.0491 B(  6-C ,  7-H ) :   0.9342 B(  6-C ,  8-H ) :   0.9333
B(  6-C ,  9-C ) :   1.0958 B(  9-C , 10-H ) :   0.9449 B(  9-C , 11-H ) :   0.9595
B(  9-C , 12-C ) :   1.0662 B( 12-C , 13-H ) :   0.9788 B( 12-C , 14-H ) :   0.9754
B( 12-C , 15-H ) :   0.9689 B( 16-S , 17-C ) :   1.1541 B( 16-S , 20-C ) :   1.1449
B( 17-C , 18-C ) :   1.6079 B( 17-C , 20-C ) :   0.1094 B( 17-C , 33-H ) :   0.9617
B( 18-C , 19-C ) :   1.2514 B( 18-C , 21-H ) :   0.9781 B( 19-C , 20-C ) :   1.5786
B( 19-C , 22-C ) :   1.0448 B( 22-C , 23-H ) :   0.9331 B( 22-C , 24-H ) :   0.9322
B( 22-C , 25-C ) :   1.0713 B( 25-C , 26-H ) :   0.9550 B( 25-C , 27-H ) :   0.9567
B( 25-C , 28-C ) :   1.0824 B( 28-C , 29-H ) :   0.9694 B( 28-C , 30-H ) :   0.9751
B( 28-C , 31-H ) :   0.9724

Dispersion correction           -0.015197562
FINAL SINGLE POINT ENERGY     -1339.867167036845

DIPOLE MOMENT
-------------
                                X             Y             Z
Electronic contribution:      4.11230      13.62408     -13.77056
Nuclear contribution   :     -4.11830     -13.94657      14.16924
                        -----------------------------------------
Total Dipole Moment    :     -0.00600      -0.32250       0.39868
                        -----------------------------------------
Magnitude (a.u.)       :      0.51282
Magnitude (Debye)      :      1.30348

Rotational constants in cm-1:     0.020374     0.008154     0.007865
Rotational constants in MHz :   610.792776   244.439534   235.782121

                             ****ORCA TERMINATED NORMALLY****
TOTAL RUN TIME: 0 days 0 hours 0 minutes 22 seconds 201 msec
