                         Program Version 4.2.1 -  RELEASE  -
|  1> ! wB97X-D3 SP def2-SVP
|  2> %pal
|  3> nprocs 24
|  4> end
|  5>
|  6> * xyz 0 1
|  7> S 	 -48.2051 	 14.0727 	 -105.432
|  8> C 	 -49.4281 	 13.3081 	 -106.534
|  9> C 	 -50.1616 	 12.3274 	 -105.896
| 10> C 	 -49.7001 	 12.0925 	 -104.494
| 11> C 	 -48.649 	 12.9674 	 -104.128
| 12> H 	 -50.1605 	 11.3915 	 -103.788
| 13> C 	 -51.2365 	 11.3584 	 -106.414
| 14> H 	 -50.9357 	 11.2836 	 -107.43
| 15> H 	 -52.3147 	 11.779 	 -106.436
| 16> C 	 -51.2958 	 9.87355 	 -105.875
| 17> H 	 -51.7694 	 9.96261 	 -104.941
| 18> H 	 -52.0192 	 9.28022 	 -106.421
| 19> C 	 -49.9741 	 9.09522 	 -105.95
| 20> H 	 -49.9407 	 8.03631 	 -105.601
| 21> H 	 -49.6481 	 9.18313 	 -106.967
| 22> H 	 -49.2776 	 9.55989 	 -105.283
| 23> S 	 -46.1387 	 12.3988 	 -103.134
| 24> C 	 -45.8278 	 12.6465 	 -101.396
| 25> C 	 -46.9172 	 13.2627 	 -100.779
| 26> C 	 -48.02 	 13.4129 	 -101.659
| 27> C 	 -47.7799 	 12.9546 	 -102.96
| 28> H 	 -46.8887 	 13.5987 	 -99.7972
| 29> C 	 -49.2994 	 14.0464 	 -101.143
| 30> H 	 -49.6613 	 13.6886 	 -100.079
| 31> H 	 -50.1832 	 13.7664 	 -101.709
| 32> C 	 -49.3004 	 15.594 	 -101.113
| 33> H 	 -49.223 	 15.8467 	 -102.138
| 34> H 	 -48.3661 	 15.9879 	 -100.653
| 35> C 	 -50.6678 	 16.1645 	 -100.733
| 36> H 	 -51.4328 	 15.8398 	 -101.401
| 37> H 	 -50.6317 	 17.2512 	 -100.833
| 38> H 	 -50.9449 	 15.8955 	 -99.6765
| 39> H 	 -49.5306 	 13.6389 	 -107.572
| 40> H 	 -44.8962 	 12.4358 	 -100.983
| 41> *
| 42>
| 43>                          ****END OF INPUT****

CARTESIAN COORDINATES (ANGSTROEM)
---------------------------------
  S    -48.205100   14.072700  -105.432000
  C    -49.428100   13.308100  -106.534000
  C    -50.161600   12.327400  -105.896000
  C    -49.700100   12.092500  -104.494000
  C    -48.649000   12.967400  -104.128000
  H    -50.160500   11.391500  -103.788000
  C    -51.236500   11.358400  -106.414000
  H    -50.935700   11.283600  -107.430000
  H    -52.314700   11.779000  -106.436000
  C    -51.295800    9.873550  -105.875000
  H    -51.769400    9.962610  -104.941000
  H    -52.019200    9.280220  -106.421000
  C    -49.974100    9.095220  -105.950000
  H    -49.940700    8.036310  -105.601000
  H    -49.648100    9.183130  -106.967000
  H    -49.277600    9.559890  -105.283000
  S    -46.138700   12.398800  -103.134000
  C    -45.827800   12.646500  -101.396000
  C    -46.917200   13.262700  -100.779000
  C    -48.020000   13.412900  -101.659000
  C    -47.779900   12.954600  -102.960000
  H    -46.888700   13.598700  -99.797200
  C    -49.299400   14.046400  -101.143000
  H    -49.661300   13.688600  -100.079000
  H    -50.183200   13.766400  -101.709000
  C    -49.300400   15.594000  -101.113000
  H    -49.223000   15.846700  -102.138000
  H    -48.366100   15.987900  -100.653000
  C    -50.667800   16.164500  -100.733000
  H    -51.432800   15.839800  -101.401000
  H    -50.631700   17.251200  -100.833000
  H    -50.944900   15.895500  -99.676500
  H    -49.530600   13.638900  -107.572000
  H    -44.896200   12.435800  -100.983000

 Total Charge           Charge          ....    0
 Multiplicity           Mult            ....    1
 Number of Electrons    NEL             ....  134
 Basis Dimension        Dim             ....  322

ORBITAL ENERGIES
----------------

  NO   OCC          E(Eh)            E(eV)
   0   2.0000     -88.967272     -2420.9226
   1   2.0000     -88.967005     -2420.9153
   2   2.0000     -10.335463      -281.2423
   3   2.0000     -10.326915      -281.0097
   4   2.0000     -10.324222      -280.9364
   5   2.0000     -10.319147      -280.7983
   6   2.0000     -10.314071      -280.6601
   7   2.0000     -10.305275      -280.4208
   8   2.0000     -10.304459      -280.3986
   9   2.0000     -10.302170      -280.3363
  10   2.0000     -10.295039      -280.1423
  11   2.0000     -10.292299      -280.0677
  12   2.0000     -10.288031      -279.9515
  13   2.0000     -10.281058      -279.7618
  14   2.0000     -10.278954      -279.7046
  15   2.0000     -10.275318      -279.6056
  16   2.0000      -8.081618      -219.9120
  17   2.0000      -8.080582      -219.8838
  18   2.0000      -6.040110      -164.3597
  19   2.0000      -6.039309      -164.3379
  20   2.0000      -6.036140      -164.2517
  21   2.0000      -6.035248      -164.2275
  22   2.0000      -6.032448      -164.1513
  23   2.0000      -6.031174      -164.1166
  24   2.0000      -0.999950       -27.2100
  25   2.0000      -0.972331       -26.4585
  26   2.0000      -0.906768       -24.6744
  27   2.0000      -0.904691       -24.6179
  28   2.0000      -0.868103       -23.6223
  29   2.0000      -0.849358       -23.1122
  30   2.0000      -0.837524       -22.7902
  31   2.0000      -0.811016       -22.0689
  32   2.0000      -0.781458       -21.2646
  33   2.0000      -0.768695       -20.9173
  34   2.0000      -0.711097       -19.3499
  35   2.0000      -0.698383       -19.0040
  36   2.0000      -0.692528       -18.8446
  37   2.0000      -0.666782       -18.1441
  38   2.0000      -0.636875       -17.3303
  39   2.0000      -0.618102       -16.8194
  40   2.0000      -0.602417       -16.3926
  41   2.0000      -0.562636       -15.3101
  42   2.0000      -0.557513       -15.1707
  43   2.0000      -0.551870       -15.0172
  44   2.0000      -0.535350       -14.5676
  45   2.0000      -0.517878       -14.0922
  46   2.0000      -0.515169       -14.0185
  47   2.0000      -0.513279       -13.9670
  48   2.0000      -0.505678       -13.7602
  49   2.0000      -0.499672       -13.5968
  50   2.0000      -0.491844       -13.3838
  51   2.0000      -0.473344       -12.8804
  52   2.0000      -0.469749       -12.7825
  53   2.0000      -0.461425       -12.5560
  54   2.0000      -0.457052       -12.4370
  55   2.0000      -0.444432       -12.0936
  56   2.0000      -0.442178       -12.0323
  57   2.0000      -0.438298       -11.9267
  58   2.0000      -0.435869       -11.8606
  59   2.0000      -0.423723       -11.5301
  60   2.0000      -0.423063       -11.5121
  61   2.0000      -0.408146       -11.1062
  62   2.0000      -0.405124       -11.0240
  63   2.0000      -0.338693        -9.2163
  64   2.0000      -0.328659        -8.9433
  65   2.0000      -0.325174        -8.8484
  66   2.0000      -0.302681        -8.2364
  67   0.0000       0.034976         0.9517
  68   0.0000       0.053901         1.4667
  69   0.0000       0.106984         2.9112
  70   0.0000       0.116956         3.1825
  71   0.0000       0.121581         3.3084

MULLIKEN ATOMIC CHARGES
-----------------------
   0 S :    0.097451
   1 C :   -0.142301
   2 C :   -0.076047
   3 C :    0.040809
   4 C :   -0.176809
   5 H :    0.034526
   6 C :    0.027625
   7 H :    0.012930
   8 H :    0.064215
   9 C :   -0.070094
  10 H :    0.017501
  11 H :    0.026507
  12 C :   -0.039280
  13 H :    0.043878
  14 H :    0.031977
  15 H :    0.027408
  16 S :    0.114385
  17 C :   -0.079259
  18 C :    0.011491
  19 C :    0.007402
  20 C :   -0.167711
  21 H :   -0.001660
  22 C :    0.014121
  23 H :    0.030548
  24 H :    0.008716
  25 C :   -0.066560
  26 H :    0.014352
  27 H :    0.034387
  28 C :   -0.039574
  29 H :    0.030677
  30 H :    0.037150
  31 H :    0.034368
  32 H :    0.058042
  33 H :    0.038827
Sum of atomic charges:    0.0000000

LOEWDIN ATOMIC CHARGES
----------------------
   0 S :    0.373871
   1 C :   -0.181893
   2 C :   -0.058209
   3 C :   -0.057990
   4 C :   -0.188046
   5 H :    0.036254
   6 C :   -0.038400
   7 H :    0.023071
   8 H :    0.046933
   9 C :   -0.040646
  10 H :    0.012501
  11 H :    0.027653
  12 C :   -0.065157
  13 H :    0.034335
  14 H :    0.025707
  15 H :    0.022236
  16 S :    0.406252
  17 C :   -0.159777
  18 C :   -0.054359
  19 C :   -0.053431
  20 C :   -0.215621
  21 H :    0.023147
  22 C :   -0.041818
  23 H :    0.033433
  24 H :    0.024395
  25 C :   -0.044010
  26 H :    0.020944
  27 H :    0.025661
  28 C :   -0.062192
  29 H :    0.023960
  30 H :    0.029455
  31 H :    0.026206
  32 H :    0.031287
  33 H :    0.014248

  Mayer bond orders larger than 0.100000
B(  0-S ,  1-C ) :   1.1097 B(  0-S ,  4-C ) :   1.1453 B(  1-C ,  2-C ) :   1.6613
B(  1-C , 32-H ) :   0.9675 B(  2-C ,  3-C ) :   1.1936 B(  2-C ,  6-C ) :   0.9977
B(  3-C ,  4-C ) :   1.6148 B(  3-C ,  5-H ) :   0.9801 B(  4-C , 20-C ) :   1.0154
B(  6-C ,  7-H ) :   0.9423 B(  6-C ,  8-H ) :   0.9395 B(  6-C ,  9-C ) :   1.0729
B(  9-C , 10-H ) :   0.9515 B(  9-C , 11-H ) :   0.9542 B(  9-C , 12-C ) :   1.0669
B( 12-C , 13-H ) :   0.9735 B( 12-C , 14-H ) :   0.9747 B( 12-C , 15-H ) :   0.9725
B( 16-S , 17-C ) :   1.1601 B( 16-S , 20-C ) :   1.1496 B( 17-C , 18-C ) :   1.5725
B( 17-C , 20-C ) :   0.1024 B( 17-C , 33-H ) :   0.9795 B( 18-C , 19-C ) :   1.2616
B( 18-C , 21-H ) :   1.0022 B( 19-C , 20-C ) :   1.5806 B( 19-C , 22-C ) :   1.0435
B( 22-C , 23-H ) :   0.9446 B( 22-C , 24-H ) :   0.9316 B( 22-C , 25-C ) :   1.0553
B( 25-C , 26-H ) :   0.9483 B( 25-C , 27-H ) :   0.9600 B( 25-C , 28-C ) :   1.0801
B( 28-C , 29-H ) :   0.9716 B( 28-C , 30-H ) :   0.9735 B( 28-C , 31-H ) :   0.9756

Dispersion correction           -0.014342209
FINAL SINGLE POINT ENERGY     -1339.862712168722

DIPOLE MOMENT
-------------
                                X             Y             Z
Electronic contribution:     19.52296       3.39999      -4.50814
Nuclear contribution   :    -19.93512      -3.54404       4.60314
                        -----------------------------------------
Total Dipole Moment    :     -0.41216      -0.14405       0.09500
                        -----------------------------------------
Magnitude (a.u.)       :      0.44683
Magnitude (Debye)      :      1.13575

Rotational constants in cm-1:     0.017523     0.008633     0.007449
Rotational constants in MHz :   525.323976   258.824246   223.327030

                             ****ORCA TERMINATED NORMALLY****
TOTAL RUN TIME: 0 days 0 hours 0 minutes 21 seconds 480 msec
