                         Program Version 4.2.1 -  RELEASE  -
|  1> ! wB97X-D3 SP def2-SVP
|  2> %pal
|  3> nprocs 24
|  4> end
|  5>
|  6> * xyz 0 1
|  7> S 	 -56.9112 	 4.50787 	 -100.769
|  8> C 	 -58.421 	 5.20557 	 -101.225
|  9> C 	 -58.4223 	 6.60435 	 -101.009
| 10> C 	 -57.1798 	 7.09579 	 -100.54
| 11> C 	 -56.2709 	 6.08331 	 -100.265
| 12> H 	 -56.9311 	 8.10322 	 -100.338
| 13> C 	 -59.5467 	 7.52711 	 -101.474
| 14> H 	 -60.2181 	 7.69097 	 -100.671
| 15> H 	 -60.0575 	 7.08878 	 -102.356
| 16> C 	 -59.1205 	 8.95539 	 -102.005
| 17> H 	 -58.8882 	 9.61803 	 -101.229
| 18> H 	 -58.2636 	 8.8621 	 -102.662
| 19> C 	 -60.2721 	 9.65435 	 -102.748
| 20> H 	 -59.7977 	 10.5818 	 -103.115
| 21> H 	 -60.604 	 9.04395 	 -103.65
| 22> H 	 -61.2053 	 9.79424 	 -102.253
| 23> S 	 -54.2284 	 4.77466 	 -98.9408
| 24> C 	 -52.9583 	 5.69729 	 -98.1368
| 25> C 	 -52.8936 	 6.90787 	 -98.7322
| 26> C 	 -54.0389 	 7.27443 	 -99.5818
| 27> C 	 -54.9642 	 6.21156 	 -99.6392
| 28> H 	 -52.0818 	 7.51783 	 -98.4004
| 29> C 	 -54.0044 	 8.69123 	 -100.157
| 30> H 	 -54.7197 	 8.81694 	 -100.989
| 31> H 	 -53.061 	 9.00722 	 -100.544
| 32> C 	 -54.3465 	 9.80607 	 -99.1277
| 33> H 	 -53.4197 	 9.9091 	 -98.5232
| 34> H 	 -55.1815 	 9.46626 	 -98.506
| 35> C 	 -54.7877 	 11.2474 	 -99.7031
| 36> H 	 -55.6822 	 11.0951 	 -100.349
| 37> H 	 -53.9868 	 11.7243 	 -100.179
| 38> H 	 -54.9609 	 11.961 	 -98.8838
| 39> H 	 -59.3652 	 4.72006 	 -101.552
| 40> H 	 -52.2148 	 5.30163 	 -97.5036
| 41> *
| 42>
| 43>                          ****END OF INPUT****

CARTESIAN COORDINATES (ANGSTROEM)
---------------------------------
  S    -56.911200    4.507870  -100.769000
  C    -58.421000    5.205570  -101.225000
  C    -58.422300    6.604350  -101.009000
  C    -57.179800    7.095790  -100.540000
  C    -56.270900    6.083310  -100.265000
  H    -56.931100    8.103220  -100.338000
  C    -59.546700    7.527110  -101.474000
  H    -60.218100    7.690970  -100.671000
  H    -60.057500    7.088780  -102.356000
  C    -59.120500    8.955390  -102.005000
  H    -58.888200    9.618030  -101.229000
  H    -58.263600    8.862100  -102.662000
  C    -60.272100    9.654350  -102.748000
  H    -59.797700   10.581800  -103.115000
  H    -60.604000    9.043950  -103.650000
  H    -61.205300    9.794240  -102.253000
  S    -54.228400    4.774660  -98.940800
  C    -52.958300    5.697290  -98.136800
  C    -52.893600    6.907870  -98.732200
  C    -54.038900    7.274430  -99.581800
  C    -54.964200    6.211560  -99.639200
  H    -52.081800    7.517830  -98.400400
  C    -54.004400    8.691230  -100.157000
  H    -54.719700    8.816940  -100.989000
  H    -53.061000    9.007220  -100.544000
  C    -54.346500    9.806070  -99.127700
  H    -53.419700    9.909100  -98.523200
  H    -55.181500    9.466260  -98.506000
  C    -54.787700   11.247400  -99.703100
  H    -55.682200   11.095100  -100.349000
  H    -53.986800   11.724300  -100.179000
  H    -54.960900   11.961000  -98.883800
  H    -59.365200    4.720060  -101.552000
  H    -52.214800    5.301630  -97.503600

 Total Charge           Charge          ....    0
 Multiplicity           Mult            ....    1
 Number of Electrons    NEL             ....  134
 Basis Dimension        Dim             ....  322

ORBITAL ENERGIES
----------------

  NO   OCC          E(Eh)            E(eV)
   0   2.0000     -88.971676     -2421.0424
   1   2.0000     -88.960877     -2420.7485
   2   2.0000     -10.336816      -281.2791
   3   2.0000     -10.333631      -281.1924
   4   2.0000     -10.316958      -280.7387
   5   2.0000     -10.314627      -280.6753
   6   2.0000     -10.312907      -280.6285
   7   2.0000     -10.302468      -280.3444
   8   2.0000     -10.296377      -280.1787
   9   2.0000     -10.294480      -280.1271
  10   2.0000     -10.293220      -280.0928
  11   2.0000     -10.292628      -280.0767
  12   2.0000     -10.292315      -280.0681
  13   2.0000     -10.286862      -279.9198
  14   2.0000     -10.286191      -279.9015
  15   2.0000     -10.283675      -279.8330
  16   2.0000      -8.085869      -220.0277
  17   2.0000      -8.075776      -219.7530
  18   2.0000      -6.044414      -164.4769
  19   2.0000      -6.040422      -164.3683
  20   2.0000      -6.036670      -164.2661
  21   2.0000      -6.034542      -164.2082
  22   2.0000      -6.030452      -164.0970
  23   2.0000      -6.026060      -163.9774
  24   2.0000      -1.005321       -27.3562
  25   2.0000      -0.982445       -26.7337
  26   2.0000      -0.908110       -24.7109
  27   2.0000      -0.901939       -24.5430
  28   2.0000      -0.872748       -23.7487
  29   2.0000      -0.853057       -23.2129
  30   2.0000      -0.839044       -22.8315
  31   2.0000      -0.818639       -22.2763
  32   2.0000      -0.781746       -21.2724
  33   2.0000      -0.770443       -20.9648
  34   2.0000      -0.714006       -19.4291
  35   2.0000      -0.696371       -18.9492
  36   2.0000      -0.691320       -18.8118
  37   2.0000      -0.662147       -18.0179
  38   2.0000      -0.636809       -17.3284
  39   2.0000      -0.624492       -16.9933
  40   2.0000      -0.598829       -16.2950
  41   2.0000      -0.575402       -15.6575
  42   2.0000      -0.570196       -15.5158
  43   2.0000      -0.564806       -15.3692
  44   2.0000      -0.528556       -14.3827
  45   2.0000      -0.519624       -14.1397
  46   2.0000      -0.517231       -14.0746
  47   2.0000      -0.508210       -13.8291
  48   2.0000      -0.505283       -13.7494
  49   2.0000      -0.501057       -13.6345
  50   2.0000      -0.488187       -13.2842
  51   2.0000      -0.485318       -13.2062
  52   2.0000      -0.475662       -12.9434
  53   2.0000      -0.470274       -12.7968
  54   2.0000      -0.461423       -12.5560
  55   2.0000      -0.448645       -12.2083
  56   2.0000      -0.443417       -12.0660
  57   2.0000      -0.432137       -11.7590
  58   2.0000      -0.429613       -11.6904
  59   2.0000      -0.426546       -11.6069
  60   2.0000      -0.424066       -11.5394
  61   2.0000      -0.416109       -11.3229
  62   2.0000      -0.410960       -11.1828
  63   2.0000      -0.363290        -9.8856
  64   2.0000      -0.336200        -9.1485
  65   2.0000      -0.321877        -8.7587
  66   2.0000      -0.280654        -7.6370
  67   0.0000       0.016047         0.4367
  68   0.0000       0.077646         2.1128
  69   0.0000       0.099052         2.6954
  70   0.0000       0.116949         3.1823
  71   0.0000       0.129578         3.5260

MULLIKEN ATOMIC CHARGES
-----------------------
   0 S :    0.122846
   1 C :   -0.123342
   2 C :   -0.087486
   3 C :    0.013373
   4 C :   -0.109943
   5 H :   -0.011102
   6 C :    0.053490
   7 H :    0.034286
   8 H :    0.030697
   9 C :   -0.086955
  10 H :    0.024919
  11 H :    0.037316
  12 C :   -0.066475
  13 H :    0.041464
  14 H :    0.029769
  15 H :    0.033185
  16 S :    0.073774
  17 C :   -0.068711
  18 C :   -0.031451
  19 C :   -0.027122
  20 C :   -0.123636
  21 H :    0.015231
  22 C :    0.071901
  23 H :    0.016189
  24 H :    0.022844
  25 C :   -0.129344
  26 H :    0.034991
  27 H :    0.042739
  28 C :   -0.047006
  29 H :    0.046161
  30 H :    0.021158
  31 H :    0.038840
  32 H :    0.061960
  33 H :    0.045440
Sum of atomic charges:    0.0000000

LOEWDIN ATOMIC CHARGES
----------------------
   0 S :    0.414149
   1 C :   -0.218328
   2 C :   -0.063404
   3 C :   -0.060020
   4 C :   -0.178870
   5 H :    0.024392
   6 C :   -0.030404
   7 H :    0.027316
   8 H :    0.033245
   9 C :   -0.036512
  10 H :    0.014403
  11 H :    0.025463
  12 C :   -0.066893
  13 H :    0.032532
  14 H :    0.028003
  15 H :    0.020179
  16 S :    0.378702
  17 C :   -0.169127
  18 C :   -0.065641
  19 C :   -0.052416
  20 C :   -0.183169
  21 H :    0.027293
  22 C :   -0.035322
  23 H :    0.024934
  24 H :    0.029308
  25 C :   -0.041288
  26 H :    0.023244
  27 H :    0.022445
  28 C :   -0.066424
  29 H :    0.029344
  30 H :    0.015519
  31 H :    0.032527
  32 H :    0.040070
  33 H :    0.024750

  Mayer bond orders larger than 0.100000
B(  0-S ,  1-C ) :   1.1453 B(  0-S ,  4-C ) :   1.1472 B(  1-C ,  2-C ) :   1.5946
B(  1-C ,  4-C ) :   0.1014 B(  1-C , 32-H ) :   0.9622 B(  2-C ,  3-C ) :   1.2733
B(  2-C ,  6-C ) :   1.0128 B(  3-C ,  4-C ) :   1.5401 B(  3-C ,  5-H ) :   0.9990
B(  4-C , 20-C ) :   1.0997 B(  6-C ,  7-H ) :   0.9278 B(  6-C ,  8-H ) :   0.9577
B(  6-C ,  9-C ) :   1.0784 B(  9-C , 10-H ) :   0.9472 B(  9-C , 11-H ) :   0.9593
B(  9-C , 12-C ) :   1.0848 B( 12-C , 13-H ) :   0.9729 B( 12-C , 14-H ) :   0.9735
B( 12-C , 15-H ) :   0.9771 B( 16-S , 17-C ) :   1.1223 B( 16-S , 20-C ) :   1.1281
B( 17-C , 18-C ) :   1.6598 B( 17-C , 33-H ) :   0.9734 B( 18-C , 19-C ) :   1.1900
B( 18-C , 21-H ) :   0.9896 B( 19-C , 20-C ) :   1.5803 B( 19-C , 22-C ) :   1.0561
B( 22-C , 23-H ) :   0.9381 B( 22-C , 24-H ) :   0.9385 B( 22-C , 25-C ) :   1.0438
B( 25-C , 26-H ) :   0.9589 B( 25-C , 27-H ) :   0.9621 B( 25-C , 28-C ) :   1.0763
B( 28-C , 29-H ) :   0.9761 B( 28-C , 30-H ) :   0.9764 B( 28-C , 31-H ) :   0.9744

Dispersion correction           -0.013787423
FINAL SINGLE POINT ENERGY     -1339.861529002427

DIPOLE MOMENT
-------------
                                X             Y             Z
Electronic contribution:     10.24761     -32.11741       7.25775
Nuclear contribution   :    -10.27547      32.92498      -7.31492
                        -----------------------------------------
Total Dipole Moment    :     -0.02787       0.80757      -0.05717
                        -----------------------------------------
Magnitude (a.u.)       :      0.81007
Magnitude (Debye)      :      2.05904

Rotational constants in cm-1:     0.016277     0.009592     0.006184
Rotational constants in MHz :   487.984544   287.558002   185.392079

                             ****ORCA TERMINATED NORMALLY****
TOTAL RUN TIME: 0 days 0 hours 0 minutes 20 seconds 207 msec
