                         Program Version 4.2.1 -  RELEASE  -
|  1> ! wB97X-D3 SP def2-SVP
|  2> %pal
|  3> nprocs 24
|  4> end
|  5>
|  6> * xyz 0 1
|  7> S 	 -60.7622 	 -5.23406 	 -29.5347
|  8> C 	 -61.7901 	 -4.97351 	 -30.945
|  9> C 	 -62.9749 	 -4.35973 	 -30.5643
| 10> C 	 -62.9768 	 -4.12858 	 -29.1746
| 11> C 	 -61.8441 	 -4.42012 	 -28.4864
| 12> H 	 -63.7792 	 -3.75336 	 -28.5305
| 13> C 	 -64.1227 	 -4.0415 	 -31.4109
| 14> H 	 -63.9309 	 -4.37099 	 -32.4003
| 15> H 	 -64.1787 	 -2.93968 	 -31.3266
| 16> C 	 -65.3972 	 -4.80992 	 -30.9809
| 17> H 	 -65.2112 	 -5.79072 	 -31.422
| 18> H 	 -65.475 	 -4.83931 	 -29.8792
| 19> C 	 -66.6694 	 -4.33065 	 -31.633
| 20> H 	 -66.8019 	 -3.23309 	 -31.5877
| 21> H 	 -66.7963 	 -4.56349 	 -32.6802
| 22> H 	 -67.5837 	 -4.79001 	 -31.25
| 23> S 	 -61.2316 	 -5.69636 	 -26.1636
| 24> C 	 -61.0331 	 -4.73692 	 -24.7463
| 25> C 	 -61.4396 	 -3.40845 	 -24.9084
| 26> C 	 -61.6709 	 -3.06032 	 -26.254
| 27> C 	 -61.6455 	 -4.23562 	 -26.9954
| 28> H 	 -61.4183 	 -2.753 	 -24.0852
| 29> C 	 -61.9407 	 -1.65229 	 -26.8267
| 30> H 	 -62.0372 	 -0.997696 	 -25.991
| 31> H 	 -62.8931 	 -1.56544 	 -27.2754
| 32> C 	 -60.9905 	 -1.01184 	 -27.8925
| 33> H 	 -61.1149 	 0.153566 	 -27.8889
| 34> H 	 -61.1848 	 -1.36472 	 -28.9517
| 35> C 	 -59.5323 	 -1.41791 	 -27.6193
| 36> H 	 -59.2302 	 -0.934819 	 -26.7205
| 37> H 	 -58.7416 	 -1.06638 	 -28.3678
| 38> H 	 -59.4763 	 -2.45613 	 -27.313
| 39> H 	 -61.5274 	 -5.24326 	 -31.965
| 40> H 	 -60.696 	 -5.05888 	 -23.7996
| 41> *
| 42>
| 43>                          ****END OF INPUT****

CARTESIAN COORDINATES (ANGSTROEM)
---------------------------------
  S    -60.762200   -5.234060  -29.534700
  C    -61.790100   -4.973510  -30.945000
  C    -62.974900   -4.359730  -30.564300
  C    -62.976800   -4.128580  -29.174600
  C    -61.844100   -4.420120  -28.486400
  H    -63.779200   -3.753360  -28.530500
  C    -64.122700   -4.041500  -31.410900
  H    -63.930900   -4.370990  -32.400300
  H    -64.178700   -2.939680  -31.326600
  C    -65.397200   -4.809920  -30.980900
  H    -65.211200   -5.790720  -31.422000
  H    -65.475000   -4.839310  -29.879200
  C    -66.669400   -4.330650  -31.633000
  H    -66.801900   -3.233090  -31.587700
  H    -66.796300   -4.563490  -32.680200
  H    -67.583700   -4.790010  -31.250000
  S    -61.231600   -5.696360  -26.163600
  C    -61.033100   -4.736920  -24.746300
  C    -61.439600   -3.408450  -24.908400
  C    -61.670900   -3.060320  -26.254000
  C    -61.645500   -4.235620  -26.995400
  H    -61.418300   -2.753000  -24.085200
  C    -61.940700   -1.652290  -26.826700
  H    -62.037200   -0.997696  -25.991000
  H    -62.893100   -1.565440  -27.275400
  C    -60.990500   -1.011840  -27.892500
  H    -61.114900    0.153566  -27.888900
  H    -61.184800   -1.364720  -28.951700
  C    -59.532300   -1.417910  -27.619300
  H    -59.230200   -0.934819  -26.720500
  H    -58.741600   -1.066380  -28.367800
  H    -59.476300   -2.456130  -27.313000
  H    -61.527400   -5.243260  -31.965000
  H    -60.696000   -5.058880  -23.799600

 Total Charge           Charge          ....    0
 Multiplicity           Mult            ....    1
 Number of Electrons    NEL             ....  134
 Basis Dimension        Dim             ....  322

ORBITAL ENERGIES
----------------

  NO   OCC          E(Eh)            E(eV)
   0   2.0000     -88.973942     -2421.1041
   1   2.0000     -88.962603     -2420.7955
   2   2.0000     -10.327924      -281.0371
   3   2.0000     -10.322288      -280.8837
   4   2.0000     -10.313562      -280.6463
   5   2.0000     -10.312786      -280.6252
   6   2.0000     -10.307960      -280.4938
   7   2.0000     -10.297684      -280.2142
   8   2.0000     -10.295849      -280.1643
   9   2.0000     -10.292799      -280.0813
  10   2.0000     -10.292596      -280.0758
  11   2.0000     -10.289291      -279.9858
  12   2.0000     -10.287579      -279.9393
  13   2.0000     -10.283829      -279.8372
  14   2.0000     -10.276621      -279.6411
  15   2.0000     -10.267989      -279.4062
  16   2.0000      -8.089097      -220.1155
  17   2.0000      -8.077659      -219.8043
  18   2.0000      -6.047322      -164.5560
  19   2.0000      -6.043648      -164.4560
  20   2.0000      -6.040041      -164.3579
  21   2.0000      -6.036183      -164.2529
  22   2.0000      -6.032007      -164.1393
  23   2.0000      -6.028504      -164.0439
  24   2.0000      -1.011969       -27.5371
  25   2.0000      -0.991327       -26.9754
  26   2.0000      -0.918613       -24.9967
  27   2.0000      -0.904293       -24.6071
  28   2.0000      -0.866323       -23.5738
  29   2.0000      -0.850890       -23.1539
  30   2.0000      -0.847121       -23.0513
  31   2.0000      -0.813189       -22.1280
  32   2.0000      -0.786660       -21.4061
  33   2.0000      -0.775039       -21.0899
  34   2.0000      -0.705220       -19.1900
  35   2.0000      -0.697099       -18.9690
  36   2.0000      -0.683501       -18.5990
  37   2.0000      -0.665704       -18.1147
  38   2.0000      -0.641970       -17.4689
  39   2.0000      -0.622777       -16.9466
  40   2.0000      -0.594345       -16.1729
  41   2.0000      -0.568038       -15.4571
  42   2.0000      -0.565465       -15.3871
  43   2.0000      -0.546934       -14.8828
  44   2.0000      -0.544367       -14.8130
  45   2.0000      -0.521548       -14.1920
  46   2.0000      -0.517879       -14.0922
  47   2.0000      -0.506468       -13.7817
  48   2.0000      -0.503622       -13.7043
  49   2.0000      -0.494982       -13.4691
  50   2.0000      -0.486056       -13.2263
  51   2.0000      -0.481971       -13.1151
  52   2.0000      -0.471824       -12.8390
  53   2.0000      -0.462175       -12.5764
  54   2.0000      -0.459299       -12.4982
  55   2.0000      -0.454358       -12.3637
  56   2.0000      -0.448038       -12.1917
  57   2.0000      -0.433118       -11.7857
  58   2.0000      -0.429749       -11.6941
  59   2.0000      -0.425100       -11.5676
  60   2.0000      -0.422913       -11.5080
  61   2.0000      -0.416296       -11.3280
  62   2.0000      -0.403389       -10.9768
  63   2.0000      -0.341332        -9.2881
  64   2.0000      -0.336620        -9.1599
  65   2.0000      -0.326203        -8.8764
  66   2.0000      -0.295986        -8.0542
  67   0.0000       0.034448         0.9374
  68   0.0000       0.071391         1.9426
  69   0.0000       0.108919         2.9638
  70   0.0000       0.122843         3.3427
  71   0.0000       0.137216         3.7338

MULLIKEN ATOMIC CHARGES
-----------------------
   0 S :    0.104478
   1 C :   -0.133918
   2 C :   -0.076479
   3 C :    0.004183
   4 C :   -0.152347
   5 H :    0.014211
   6 C :    0.108317
   7 H :    0.002234
   8 H :    0.041981
   9 C :   -0.088959
  10 H :    0.031822
  11 H :    0.046321
  12 C :   -0.037260
  13 H :    0.026739
  14 H :    0.018928
  15 H :    0.029378
  16 S :    0.144982
  17 C :   -0.074888
  18 C :   -0.023159
  19 C :   -0.062905
  20 C :   -0.185228
  21 H :   -0.001748
  22 C :    0.140831
  23 H :    0.005158
  24 H :    0.019542
  25 C :   -0.125799
  26 H :    0.047900
  27 H :    0.052159
  28 C :   -0.049639
  29 H :    0.002128
  30 H :    0.047691
  31 H :    0.044822
  32 H :    0.045399
  33 H :    0.033126
Sum of atomic charges:   -0.0000000

LOEWDIN ATOMIC CHARGES
----------------------
   0 S :    0.408111
   1 C :   -0.197030
   2 C :   -0.065739
   3 C :   -0.076052
   4 C :   -0.211174
   5 H :    0.032128
   6 C :   -0.028090
   7 H :    0.024186
   8 H :    0.036922
   9 C :   -0.036646
  10 H :    0.031702
  11 H :    0.027455
  12 C :   -0.074088
  13 H :    0.024868
  14 H :    0.023275
  15 H :    0.028865
  16 S :    0.439200
  17 C :   -0.191439
  18 C :   -0.059743
  19 C :   -0.057183
  20 C :   -0.196780
  21 H :    0.022975
  22 C :   -0.027049
  23 H :    0.027675
  24 H :    0.029775
  25 C :   -0.045658
  26 H :    0.035646
  27 H :    0.029222
  28 C :   -0.079575
  29 H :    0.015495
  30 H :    0.034549
  31 H :    0.027244
  32 H :    0.028602
  33 H :    0.018349

  Mayer bond orders larger than 0.100000
B(  0-S ,  1-C ) :   1.1374 B(  0-S ,  4-C ) :   1.1596 B(  1-C ,  2-C ) :   1.5901
B(  1-C , 32-H ) :   0.9708 B(  2-C ,  3-C ) :   1.2302 B(  2-C ,  6-C ) :   1.0371
B(  3-C ,  4-C ) :   1.6003 B(  3-C ,  5-H ) :   0.9863 B(  4-C , 20-C ) :   0.9937
B(  6-C ,  7-H ) :   0.9348 B(  6-C ,  8-H ) :   0.9311 B(  6-C ,  9-C ) :   1.0554
B(  9-C , 10-H ) :   0.9535 B(  9-C , 11-H ) :   0.9632 B(  9-C , 12-C ) :   1.0859
B( 12-C , 13-H ) :   0.9755 B( 12-C , 14-H ) :   0.9713 B( 12-C , 15-H ) :   0.9710
B( 16-S , 17-C ) :   1.1579 B( 16-S , 20-C ) :   1.1767 B( 17-C , 18-C ) :   1.6046
B( 17-C , 33-H ) :   0.9706 B( 18-C , 19-C ) :   1.2583 B( 18-C , 21-H ) :   0.9898
B( 19-C , 20-C ) :   1.5784 B( 19-C , 22-C ) :   1.0343 B( 22-C , 23-H ) :   0.9275
B( 22-C , 24-H ) :   0.9296 B( 22-C , 25-C ) :   1.0525 B( 25-C , 26-H ) :   0.9568
B( 25-C , 27-H ) :   0.9562 B( 25-C , 28-C ) :   1.0779 B( 28-C , 29-H ) :   0.9720
B( 28-C , 30-H ) :   0.9745 B( 28-C , 31-H ) :   0.9657

Dispersion correction           -0.015260868
FINAL SINGLE POINT ENERGY     -1339.866768948544

DIPOLE MOMENT
-------------
                                X             Y             Z
Electronic contribution:     13.08040     -15.99530      10.59492
Nuclear contribution   :    -13.50869      16.33309     -10.63795
                        -----------------------------------------
Total Dipole Moment    :     -0.42829       0.33779      -0.04303
                        -----------------------------------------
Magnitude (a.u.)       :      0.54716
Magnitude (Debye)      :      1.39078

Rotational constants in cm-1:     0.019955     0.008291     0.007794
Rotational constants in MHz :   598.231012   248.545025   233.658539

                             ****ORCA TERMINATED NORMALLY****
TOTAL RUN TIME: 0 days 0 hours 0 minutes 21 seconds 206 msec
