                         Program Version 4.2.1 -  RELEASE  -
|  1> ! wB97X-D3 SP def2-SVP
|  2> %pal
|  3> nprocs 24
|  4> end
|  5>
|  6> * xyz 0 1
|  7> S 	 -40.9996 	 -48.5742 	 -75.8821
|  8> C 	 -41.6975 	 -47.0759 	 -76.4408
|  9> C 	 -40.7966 	 -46.0432 	 -76.3247
| 10> C 	 -39.4844 	 -46.4887 	 -75.9657
| 11> C 	 -39.4416 	 -47.8632 	 -75.8284
| 12> H 	 -38.5495 	 -45.8176 	 -75.9631
| 13> C 	 -41.1634 	 -44.6272 	 -76.5156
| 14> H 	 -41.939 	 -44.5343 	 -77.312
| 15> H 	 -40.3763 	 -44.0424 	 -76.8937
| 16> C 	 -41.67 	 -43.8837 	 -75.2395
| 17> H 	 -40.8345 	 -43.6961 	 -74.6225
| 18> H 	 -41.875 	 -42.9666 	 -75.6698
| 19> C 	 -42.9386 	 -44.3772 	 -74.6545
| 20> H 	 -43.3865 	 -43.7253 	 -73.8847
| 21> H 	 -43.7747 	 -44.4565 	 -75.3314
| 22> H 	 -42.9003 	 -45.3373 	 -74.1245
| 23> S 	 -38.642 	 -49.6008 	 -73.8676
| 24> C 	 -37.0536 	 -50.2065 	 -73.7889
| 25> C 	 -36.2916 	 -49.6023 	 -74.7273
| 26> C 	 -36.9521 	 -48.5962 	 -75.5324
| 27> C 	 -38.3409 	 -48.6065 	 -75.3377
| 28> H 	 -35.2902 	 -49.9414 	 -74.7804
| 29> C 	 -36.2702 	 -47.7088 	 -76.5167
| 30> H 	 -36.0835 	 -46.829 	 -75.9898
| 31> H 	 -37.087 	 -47.3407 	 -77.2236
| 32> C 	 -35.059 	 -48.3046 	 -77.323
| 33> H 	 -34.381 	 -48.7093 	 -76.5381
| 34> H 	 -34.4744 	 -47.516 	 -77.8807
| 35> C 	 -35.5045 	 -49.5189 	 -78.2004
| 36> H 	 -34.6681 	 -49.7392 	 -78.845
| 37> H 	 -36.3144 	 -49.2848 	 -78.8904
| 38> H 	 -35.5964 	 -50.4099 	 -77.7578
| 39> H 	 -42.7241 	 -46.9508 	 -76.7035
| 40> H 	 -36.6792 	 -50.9499 	 -73.0957
| 41> *
| 42>
| 43>                          ****END OF INPUT****

CARTESIAN COORDINATES (ANGSTROEM)
---------------------------------
  S    -40.999600  -48.574200  -75.882100
  C    -41.697500  -47.075900  -76.440800
  C    -40.796600  -46.043200  -76.324700
  C    -39.484400  -46.488700  -75.965700
  C    -39.441600  -47.863200  -75.828400
  H    -38.549500  -45.817600  -75.963100
  C    -41.163400  -44.627200  -76.515600
  H    -41.939000  -44.534300  -77.312000
  H    -40.376300  -44.042400  -76.893700
  C    -41.670000  -43.883700  -75.239500
  H    -40.834500  -43.696100  -74.622500
  H    -41.875000  -42.966600  -75.669800
  C    -42.938600  -44.377200  -74.654500
  H    -43.386500  -43.725300  -73.884700
  H    -43.774700  -44.456500  -75.331400
  H    -42.900300  -45.337300  -74.124500
  S    -38.642000  -49.600800  -73.867600
  C    -37.053600  -50.206500  -73.788900
  C    -36.291600  -49.602300  -74.727300
  C    -36.952100  -48.596200  -75.532400
  C    -38.340900  -48.606500  -75.337700
  H    -35.290200  -49.941400  -74.780400
  C    -36.270200  -47.708800  -76.516700
  H    -36.083500  -46.829000  -75.989800
  H    -37.087000  -47.340700  -77.223600
  C    -35.059000  -48.304600  -77.323000
  H    -34.381000  -48.709300  -76.538100
  H    -34.474400  -47.516000  -77.880700
  C    -35.504500  -49.518900  -78.200400
  H    -34.668100  -49.739200  -78.845000
  H    -36.314400  -49.284800  -78.890400
  H    -35.596400  -50.409900  -77.757800
  H    -42.724100  -46.950800  -76.703500
  H    -36.679200  -50.949900  -73.095700

 Total Charge           Charge          ....    0
 Multiplicity           Mult            ....    1
 Number of Electrons    NEL             ....  134
 Basis Dimension        Dim             ....  322

ORBITAL ENERGIES
----------------

  NO   OCC          E(Eh)            E(eV)
   0   2.0000     -88.966021     -2420.8885
   1   2.0000     -88.955314     -2420.5972
   2   2.0000     -10.324368      -280.9403
   3   2.0000     -10.323625      -280.9201
   4   2.0000     -10.309537      -280.5368
   5   2.0000     -10.308117      -280.4981
   6   2.0000     -10.304328      -280.3950
   7   2.0000     -10.300404      -280.2882
   8   2.0000     -10.299740      -280.2702
   9   2.0000     -10.296650      -280.1861
  10   2.0000     -10.289444      -279.9900
  11   2.0000     -10.287408      -279.9346
  12   2.0000     -10.285101      -279.8718
  13   2.0000     -10.277451      -279.6637
  14   2.0000     -10.274809      -279.5918
  15   2.0000     -10.266561      -279.3673
  16   2.0000      -8.081607      -219.9117
  17   2.0000      -8.070622      -219.6128
  18   2.0000      -6.040092      -164.3593
  19   2.0000      -6.036035      -164.2488
  20   2.0000      -6.032283      -164.1468
  21   2.0000      -6.029144      -164.0614
  22   2.0000      -6.025065      -163.9503
  23   2.0000      -6.021294      -163.8477
  24   2.0000      -1.012211       -27.5437
  25   2.0000      -0.985791       -26.8247
  26   2.0000      -0.919607       -25.0238
  27   2.0000      -0.904055       -24.6006
  28   2.0000      -0.875620       -23.8268
  29   2.0000      -0.853631       -23.2285
  30   2.0000      -0.840693       -22.8764
  31   2.0000      -0.814713       -22.1695
  32   2.0000      -0.788620       -21.4594
  33   2.0000      -0.777612       -21.1599
  34   2.0000      -0.717632       -19.5278
  35   2.0000      -0.704213       -19.1626
  36   2.0000      -0.700411       -19.0592
  37   2.0000      -0.651108       -17.7176
  38   2.0000      -0.636592       -17.3226
  39   2.0000      -0.619348       -16.8533
  40   2.0000      -0.595394       -16.2015
  41   2.0000      -0.572445       -15.5770
  42   2.0000      -0.555454       -15.1147
  43   2.0000      -0.553197       -15.0533
  44   2.0000      -0.545646       -14.8478
  45   2.0000      -0.535063       -14.5598
  46   2.0000      -0.522641       -14.2218
  47   2.0000      -0.507551       -13.8112
  48   2.0000      -0.507014       -13.7966
  49   2.0000      -0.496267       -13.5041
  50   2.0000      -0.491978       -13.3874
  51   2.0000      -0.486026       -13.2254
  52   2.0000      -0.472525       -12.8581
  53   2.0000      -0.463331       -12.6079
  54   2.0000      -0.458031       -12.4637
  55   2.0000      -0.450480       -12.2582
  56   2.0000      -0.446629       -12.1534
  57   2.0000      -0.436612       -11.8808
  58   2.0000      -0.429648       -11.6913
  59   2.0000      -0.428585       -11.6624
  60   2.0000      -0.415431       -11.3045
  61   2.0000      -0.414011       -11.2658
  62   2.0000      -0.407785       -11.0964
  63   2.0000      -0.351485        -9.5644
  64   2.0000      -0.329182        -8.9575
  65   2.0000      -0.321734        -8.7548
  66   2.0000      -0.286418        -7.7938
  67   0.0000       0.027503         0.7484
  68   0.0000       0.074766         2.0345
  69   0.0000       0.118325         3.2198
  70   0.0000       0.123511         3.3609
  71   0.0000       0.129950         3.5361

MULLIKEN ATOMIC CHARGES
-----------------------
   0 S :    0.116051
   1 C :   -0.102754
   2 C :   -0.070705
   3 C :   -0.003970
   4 C :   -0.144957
   5 H :    0.045651
   6 C :    0.030912
   7 H :    0.022883
   8 H :    0.003191
   9 C :    0.014735
  10 H :    0.020345
  11 H :    0.004898
  12 C :   -0.053897
  13 H :    0.026976
  14 H :    0.014861
  15 H :    0.039417
  16 S :    0.076930
  17 C :   -0.076643
  18 C :   -0.045015
  19 C :   -0.037335
  20 C :   -0.139350
  21 H :   -0.000452
  22 C :    0.056277
  23 H :    0.025233
  24 H :    0.033122
  25 C :   -0.097723
  26 H :    0.034290
  27 H :    0.047284
  28 C :    0.006136
  29 H :    0.012718
  30 H :    0.037778
  31 H :    0.010608
  32 H :    0.036612
  33 H :    0.055893
Sum of atomic charges:   -0.0000000

LOEWDIN ATOMIC CHARGES
----------------------
   0 S :    0.428994
   1 C :   -0.192163
   2 C :   -0.064945
   3 C :   -0.066749
   4 C :   -0.209879
   5 H :    0.046046
   6 C :   -0.029996
   7 H :    0.033012
   8 H :    0.021973
   9 C :   -0.028173
  10 H :    0.021640
  11 H :    0.020284
  12 C :   -0.072654
  13 H :    0.031529
  14 H :    0.023192
  15 H :    0.027777
  16 S :    0.389779
  17 C :   -0.196222
  18 C :   -0.080850
  19 C :   -0.051521
  20 C :   -0.181956
  21 H :    0.023008
  22 C :   -0.041959
  23 H :    0.023318
  24 H :    0.037335
  25 C :   -0.038708
  26 H :    0.025657
  27 H :    0.032791
  28 C :   -0.057097
  29 H :    0.029113
  30 H :    0.029749
  31 H :    0.010051
  32 H :    0.023098
  33 H :    0.034527

  Mayer bond orders larger than 0.100000
B(  0-S ,  1-C ) :   1.1312 B(  0-S ,  4-C ) :   1.1646 B(  1-C ,  2-C ) :   1.5973
B(  1-C , 32-H ) :   0.9737 B(  2-C ,  3-C ) :   1.2553 B(  2-C ,  6-C ) :   1.0427
B(  3-C ,  4-C ) :   1.5296 B(  3-C ,  5-H ) :   0.9788 B(  4-C , 20-C ) :   1.0733
B(  6-C ,  7-H ) :   0.9415 B(  6-C ,  8-H ) :   0.9333 B(  6-C ,  9-C ) :   1.0798
B(  9-C , 10-H ) :   0.9538 B(  9-C , 11-H ) :   0.9452 B(  9-C , 12-C ) :   1.0842
B( 12-C , 13-H ) :   0.9686 B( 12-C , 14-H ) :   0.9698 B( 12-C , 15-H ) :   0.9720
B( 16-S , 17-C ) :   1.1523 B( 16-S , 20-C ) :   1.1232 B( 17-C , 18-C ) :   1.6299
B( 17-C , 33-H ) :   0.9649 B( 18-C , 19-C ) :   1.2035 B( 18-C , 21-H ) :   0.9982
B( 19-C , 20-C ) :   1.5929 B( 19-C , 22-C ) :   1.0437 B( 22-C , 23-H ) :   0.9225
B( 22-C , 24-H ) :   0.9335 B( 22-C , 25-C ) :   1.0592 B( 25-C , 26-H ) :   0.9528
B( 25-C , 27-H ) :   0.9595 B( 25-C , 28-C ) :   1.0739 B( 28-C , 29-H ) :   0.9674
B( 28-C , 30-H ) :   0.9774 B( 28-C , 31-H ) :   0.9727

Dispersion correction           -0.014432298
FINAL SINGLE POINT ENERGY     -1339.857665893801

DIPOLE MOMENT
-------------
                                X             Y             Z
Electronic contribution:     -5.02330     -15.75697       9.07062
Nuclear contribution   :      5.30121      16.34051      -9.26102
                        -----------------------------------------
Total Dipole Moment    :      0.27791       0.58354      -0.19040
                        -----------------------------------------
Magnitude (a.u.)       :      0.67380
Magnitude (Debye)      :      1.71266

Rotational constants in cm-1:     0.022874     0.007758     0.006733
Rotational constants in MHz :   685.732099   232.564173   201.861472

                             ****ORCA TERMINATED NORMALLY****
TOTAL RUN TIME: 0 days 0 hours 0 minutes 21 seconds 546 msec
