                         Program Version 4.2.1 -  RELEASE  -
|  1> ! wB97X-D3 SP def2-SVP
|  2> %pal
|  3> nprocs 24
|  4> end
|  5>
|  6> * xyz 0 1
|  7> S 	 -43.2598 	 1.16736 	 14.5947
|  8> C 	 -42.7108 	 1.28241 	 16.2745
|  9> C 	 -42.3702 	 0.0334527 	 16.7595
| 10> C 	 -42.9663 	 -0.982326 	 15.9365
| 11> C 	 -43.563 	 -0.511187 	 14.7858
| 12> H 	 -43.0617 	 -2.04806 	 16.1079
| 13> C 	 -41.73 	 -0.275584 	 18.0643
| 14> H 	 -41.5579 	 -1.37144 	 17.9939
| 15> H 	 -42.4482 	 -0.0282061 	 18.7972
| 16> C 	 -40.4209 	 0.46303 	 18.1584
| 17> H 	 -39.7586 	 0.363287 	 17.3022
| 18> H 	 -40.7816 	 1.46187 	 18.1366
| 19> C 	 -39.7125 	 0.0936567 	 19.4958
| 20> H 	 -40.2427 	 0.551119 	 20.4222
| 21> H 	 -39.7696 	 -0.957625 	 19.7047
| 22> H 	 -38.7252 	 0.503696 	 19.477
| 23> S 	 -43.8945 	 -1.02554 	 12.1897
| 24> C 	 -45.1619 	 -2.11069 	 11.6547
| 25> C 	 -45.9871 	 -2.46322 	 12.7169
| 26> C 	 -45.5616 	 -1.91891 	 13.9505
| 27> C 	 -44.3679 	 -1.15652 	 13.8236
| 28> H 	 -46.792 	 -3.20507 	 12.5135
| 29> C 	 -46.2795 	 -2.21621 	 15.2136
| 30> H 	 -45.8514 	 -1.5745 	 15.9639
| 31> H 	 -46.1293 	 -3.27336 	 15.5088
| 32> C 	 -47.8359 	 -2.0903 	 15.1431
| 33> H 	 -48.327 	 -2.84927 	 14.5542
| 34> H 	 -48.1108 	 -1.07578 	 14.7063
| 35> C 	 -48.5258 	 -2.10205 	 16.5032
| 36> H 	 -49.5496 	 -1.69726 	 16.3786
| 37> H 	 -48.0314 	 -1.40631 	 17.172
| 38> H 	 -48.4786 	 -3.07225 	 16.9571
| 39> H 	 -42.6481 	 2.26747 	 16.8231
| 40> H 	 -45.3602 	 -2.40717 	 10.6781
| 41> *
| 42>
| 43>                          ****END OF INPUT****

CARTESIAN COORDINATES (ANGSTROEM)
---------------------------------
  S    -43.259800    1.167360   14.594700
  C    -42.710800    1.282410   16.274500
  C    -42.370200    0.033453   16.759500
  C    -42.966300   -0.982326   15.936500
  C    -43.563000   -0.511187   14.785800
  H    -43.061700   -2.048060   16.107900
  C    -41.730000   -0.275584   18.064300
  H    -41.557900   -1.371440   17.993900
  H    -42.448200   -0.028206   18.797200
  C    -40.420900    0.463030   18.158400
  H    -39.758600    0.363287   17.302200
  H    -40.781600    1.461870   18.136600
  C    -39.712500    0.093657   19.495800
  H    -40.242700    0.551119   20.422200
  H    -39.769600   -0.957625   19.704700
  H    -38.725200    0.503696   19.477000
  S    -43.894500   -1.025540   12.189700
  C    -45.161900   -2.110690   11.654700
  C    -45.987100   -2.463220   12.716900
  C    -45.561600   -1.918910   13.950500
  C    -44.367900   -1.156520   13.823600
  H    -46.792000   -3.205070   12.513500
  C    -46.279500   -2.216210   15.213600
  H    -45.851400   -1.574500   15.963900
  H    -46.129300   -3.273360   15.508800
  C    -47.835900   -2.090300   15.143100
  H    -48.327000   -2.849270   14.554200
  H    -48.110800   -1.075780   14.706300
  C    -48.525800   -2.102050   16.503200
  H    -49.549600   -1.697260   16.378600
  H    -48.031400   -1.406310   17.172000
  H    -48.478600   -3.072250   16.957100
  H    -42.648100    2.267470   16.823100
  H    -45.360200   -2.407170   10.678100

 Total Charge           Charge          ....    0
 Multiplicity           Mult            ....    1
 Number of Electrons    NEL             ....  134
 Basis Dimension        Dim             ....  322

ORBITAL ENERGIES
----------------

  NO   OCC          E(Eh)            E(eV)
   0   2.0000     -88.965376     -2420.8710
   1   2.0000     -88.960613     -2420.7414
   2   2.0000     -10.321120      -280.8520
   3   2.0000     -10.320431      -280.8332
   4   2.0000     -10.318137      -280.7708
   5   2.0000     -10.310753      -280.5698
   6   2.0000     -10.300958      -280.3033
   7   2.0000     -10.300796      -280.2989
   8   2.0000     -10.293609      -280.1033
   9   2.0000     -10.293282      -280.0945
  10   2.0000     -10.288652      -279.9685
  11   2.0000     -10.287804      -279.9454
  12   2.0000     -10.287465      -279.9362
  13   2.0000     -10.283905      -279.8393
  14   2.0000     -10.282598      -279.8037
  15   2.0000     -10.274392      -279.5804
  16   2.0000      -8.080781      -219.8892
  17   2.0000      -8.076230      -219.7654
  18   2.0000      -6.039224      -164.3356
  19   2.0000      -6.035081      -164.2229
  20   2.0000      -6.034729      -164.2133
  21   2.0000      -6.031698      -164.1308
  22   2.0000      -6.030778      -164.1058
  23   2.0000      -6.026769      -163.9967
  24   2.0000      -1.013480       -27.5782
  25   2.0000      -0.986015       -26.8308
  26   2.0000      -0.923703       -25.1352
  27   2.0000      -0.907496       -24.6942
  28   2.0000      -0.872055       -23.7298
  29   2.0000      -0.853041       -23.2124
  30   2.0000      -0.845243       -23.0002
  31   2.0000      -0.813947       -22.1486
  32   2.0000      -0.782192       -21.2845
  33   2.0000      -0.766972       -20.8704
  34   2.0000      -0.712186       -19.3796
  35   2.0000      -0.701046       -19.0764
  36   2.0000      -0.696365       -18.9490
  37   2.0000      -0.655454       -17.8358
  38   2.0000      -0.640555       -17.4304
  39   2.0000      -0.616022       -16.7628
  40   2.0000      -0.594927       -16.1888
  41   2.0000      -0.573158       -15.5964
  42   2.0000      -0.568932       -15.4814
  43   2.0000      -0.561655       -15.2834
  44   2.0000      -0.533686       -14.5223
  45   2.0000      -0.528510       -14.3815
  46   2.0000      -0.521367       -14.1871
  47   2.0000      -0.516282       -14.0488
  48   2.0000      -0.506286       -13.7767
  49   2.0000      -0.500024       -13.6063
  50   2.0000      -0.493621       -13.4321
  51   2.0000      -0.477591       -12.9959
  52   2.0000      -0.475856       -12.9487
  53   2.0000      -0.463747       -12.6192
  54   2.0000      -0.453672       -12.3450
  55   2.0000      -0.449457       -12.2304
  56   2.0000      -0.444771       -12.1028
  57   2.0000      -0.440773       -11.9940
  58   2.0000      -0.429584       -11.6896
  59   2.0000      -0.423512       -11.5244
  60   2.0000      -0.418184       -11.3794
  61   2.0000      -0.416082       -11.3222
  62   2.0000      -0.413570       -11.2538
  63   2.0000      -0.345019        -9.3884
  64   2.0000      -0.329072        -8.9545
  65   2.0000      -0.326314        -8.8795
  66   2.0000      -0.284364        -7.7379
  67   0.0000       0.032239         0.8773
  68   0.0000       0.060235         1.6391
  69   0.0000       0.104019         2.8305
  70   0.0000       0.121464         3.3052
  71   0.0000       0.139015         3.7828

MULLIKEN ATOMIC CHARGES
-----------------------
   0 S :    0.107445
   1 C :   -0.173608
   2 C :   -0.091380
   3 C :    0.027521
   4 C :   -0.168988
   5 H :    0.009438
   6 C :    0.092550
   7 H :    0.025191
   8 H :    0.040296
   9 C :   -0.086867
  10 H :    0.040245
  11 H :    0.013457
  12 C :   -0.030070
  13 H :    0.031145
  14 H :    0.029360
  15 H :    0.036755
  16 S :    0.114065
  17 C :   -0.070574
  18 C :   -0.057755
  19 C :   -0.014635
  20 C :   -0.158037
  21 H :    0.036751
  22 C :    0.087629
  23 H :    0.020904
  24 H :    0.034948
  25 C :   -0.129573
  26 H :    0.032460
  27 H :    0.038376
  28 C :   -0.033202
  29 H :    0.041152
  30 H :    0.020465
  31 H :    0.027991
  32 H :    0.077258
  33 H :    0.029287
Sum of atomic charges:   -0.0000000

LOEWDIN ATOMIC CHARGES
----------------------
   0 S :    0.402540
   1 C :   -0.199908
   2 C :   -0.060139
   3 C :   -0.064935
   4 C :   -0.206141
   5 H :    0.032285
   6 C :   -0.028262
   7 H :    0.031810
   8 H :    0.032470
   9 C :   -0.035555
  10 H :    0.029291
  11 H :    0.018818
  12 C :   -0.066806
  13 H :    0.034455
  14 H :    0.021172
  15 H :    0.022529
  16 S :    0.428359
  17 C :   -0.180749
  18 C :   -0.070196
  19 C :   -0.059227
  20 C :   -0.220167
  21 H :    0.040220
  22 C :   -0.034505
  23 H :    0.028034
  24 H :    0.035637
  25 C :   -0.043636
  26 H :    0.019009
  27 H :    0.030177
  28 C :   -0.064221
  29 H :    0.032771
  30 H :    0.021815
  31 H :    0.019208
  32 H :    0.038319
  33 H :    0.015527

  Mayer bond orders larger than 0.100000
B(  0-S ,  1-C ) :   1.1365 B(  0-S ,  4-C ) :   1.1434 B(  1-C ,  2-C ) :   1.5972
B(  1-C ,  4-C ) :   0.1001 B(  1-C , 32-H ) :   0.9653 B(  2-C ,  3-C ) :   1.2082
B(  2-C ,  6-C ) :   1.0133 B(  3-C ,  4-C ) :   1.5915 B(  3-C ,  5-H ) :   1.0020
B(  4-C , 20-C ) :   1.0474 B(  6-C ,  7-H ) :   0.9387 B(  6-C ,  8-H ) :   0.9371
B(  6-C ,  9-C ) :   1.0539 B(  9-C , 10-H ) :   0.9633 B(  9-C , 11-H ) :   0.9547
B(  9-C , 12-C ) :   1.0770 B( 12-C , 13-H ) :   0.9724 B( 12-C , 14-H ) :   0.9758
B( 12-C , 15-H ) :   0.9756 B( 16-S , 17-C ) :   1.1569 B( 16-S , 20-C ) :   1.1609
B( 17-C , 18-C ) :   1.5984 B( 17-C , 20-C ) :   0.1109 B( 17-C , 33-H ) :   0.9752
B( 18-C , 19-C ) :   1.2527 B( 18-C , 21-H ) :   0.9845 B( 19-C , 20-C ) :   1.5396
B( 19-C , 22-C ) :   1.0699 B( 22-C , 23-H ) :   0.9297 B( 22-C , 24-H ) :   0.9249
B( 22-C , 25-C ) :   1.0588 B( 25-C , 26-H ) :   0.9513 B( 25-C , 27-H ) :   0.9612
B( 25-C , 28-C ) :   1.0920 B( 28-C , 29-H ) :   0.9742 B( 28-C , 30-H ) :   0.9738
B( 28-C , 31-H ) :   0.9737

Dispersion correction           -0.013437643
FINAL SINGLE POINT ENERGY     -1339.863768063917

DIPOLE MOMENT
-------------
                                X             Y             Z
Electronic contribution:      3.86309       6.00158     -25.02551
Nuclear contribution   :     -4.03767      -6.29670      25.59035
                        -----------------------------------------
Total Dipole Moment    :     -0.17459      -0.29512       0.56484
                        -----------------------------------------
Magnitude (a.u.)       :      0.66077
Magnitude (Debye)      :      1.67955

Rotational constants in cm-1:     0.019898     0.007513     0.006091
Rotational constants in MHz :   596.523004   225.232081   182.598132

                             ****ORCA TERMINATED NORMALLY****
TOTAL RUN TIME: 0 days 0 hours 0 minutes 21 seconds 238 msec
