                         Program Version 4.2.1 -  RELEASE  -
|  1> ! wB97X-D3 SP def2-SVP
|  2> %pal
|  3> nprocs 24
|  4> end
|  5>
|  6> * xyz 0 1
|  7> S 	 -125.097 	 65.8707 	 -52.2246
|  8> C 	 -124.205 	 65.6879 	 -53.7958
|  9> C 	 -122.805 	 65.6956 	 -53.5473
| 10> C 	 -122.521 	 65.7753 	 -52.1304
| 11> C 	 -123.61 	 65.9058 	 -51.2863
| 12> H 	 -121.475 	 65.8305 	 -51.6946
| 13> C 	 -121.662 	 65.7302 	 -54.5655
| 14> H 	 -121.986 	 65.0043 	 -55.272
| 15> H 	 -120.671 	 65.4083 	 -54.2184
| 16> C 	 -121.444 	 66.9902 	 -55.41
| 17> H 	 -120.695 	 66.7906 	 -56.1742
| 18> H 	 -122.389 	 67.3388 	 -55.8954
| 19> C 	 -120.827 	 68.1386 	 -54.5902
| 20> H 	 -120.125 	 68.8407 	 -55.0778
| 21> H 	 -121.596 	 68.7312 	 -54.1047
| 22> H 	 -120.415 	 67.7367 	 -53.6638
| 23> S 	 -124.023 	 67.7969 	 -49.3632
| 24> C 	 -124.15 	 67.2702 	 -47.6969
| 25> C 	 -123.741 	 65.9569 	 -47.5299
| 26> C 	 -123.278 	 65.3642 	 -48.7267
| 27> C 	 -123.589 	 66.1122 	 -49.8729
| 28> H 	 -123.783 	 65.5632 	 -46.5383
| 29> C 	 -122.692 	 63.9243 	 -48.6977
| 30> H 	 -122.062 	 63.693 	 -47.9244
| 31> H 	 -122.048 	 63.9002 	 -49.6173
| 32> C 	 -123.693 	 62.8039 	 -48.734
| 33> H 	 -124.368 	 63.0211 	 -49.5536
| 34> H 	 -124.196 	 62.7359 	 -47.8007
| 35> C 	 -122.979 	 61.4545 	 -48.9978
| 36> H 	 -123.58 	 60.5586 	 -48.9375
| 37> H 	 -122.092 	 61.3532 	 -48.3417
| 38> H 	 -122.466 	 61.4806 	 -49.9652
| 39> H 	 -124.585 	 65.5089 	 -54.7968
| 40> H 	 -124.54 	 67.7795 	 -46.8807
| 41> *
| 42>
| 43>                          ****END OF INPUT****

CARTESIAN COORDINATES (ANGSTROEM)
---------------------------------
  S    -125.097000   65.870700  -52.224600
  C    -124.205000   65.687900  -53.795800
  C    -122.805000   65.695600  -53.547300
  C    -122.521000   65.775300  -52.130400
  C    -123.610000   65.905800  -51.286300
  H    -121.475000   65.830500  -51.694600
  C    -121.662000   65.730200  -54.565500
  H    -121.986000   65.004300  -55.272000
  H    -120.671000   65.408300  -54.218400
  C    -121.444000   66.990200  -55.410000
  H    -120.695000   66.790600  -56.174200
  H    -122.389000   67.338800  -55.895400
  C    -120.827000   68.138600  -54.590200
  H    -120.125000   68.840700  -55.077800
  H    -121.596000   68.731200  -54.104700
  H    -120.415000   67.736700  -53.663800
  S    -124.023000   67.796900  -49.363200
  C    -124.150000   67.270200  -47.696900
  C    -123.741000   65.956900  -47.529900
  C    -123.278000   65.364200  -48.726700
  C    -123.589000   66.112200  -49.872900
  H    -123.783000   65.563200  -46.538300
  C    -122.692000   63.924300  -48.697700
  H    -122.062000   63.693000  -47.924400
  H    -122.048000   63.900200  -49.617300
  C    -123.693000   62.803900  -48.734000
  H    -124.368000   63.021100  -49.553600
  H    -124.196000   62.735900  -47.800700
  C    -122.979000   61.454500  -48.997800
  H    -123.580000   60.558600  -48.937500
  H    -122.092000   61.353200  -48.341700
  H    -122.466000   61.480600  -49.965200
  H    -124.585000   65.508900  -54.796800
  H    -124.540000   67.779500  -46.880700

 Total Charge           Charge          ....    0
 Multiplicity           Mult            ....    1
 Number of Electrons    NEL             ....  134
 Basis Dimension        Dim             ....  322

ORBITAL ENERGIES
----------------

  NO   OCC          E(Eh)            E(eV)
   0   2.0000     -88.972368     -2421.0612
   1   2.0000     -88.965101     -2420.8635
   2   2.0000     -10.331881      -281.1448
   3   2.0000     -10.331612      -281.1375
   4   2.0000     -10.328415      -281.0505
   5   2.0000     -10.312832      -280.6264
   6   2.0000     -10.312592      -280.6199
   7   2.0000     -10.311398      -280.5874
   8   2.0000     -10.301739      -280.3246
   9   2.0000     -10.295026      -280.1419
  10   2.0000     -10.291021      -280.0329
  11   2.0000     -10.290343      -280.0145
  12   2.0000     -10.286326      -279.9052
  13   2.0000     -10.279388      -279.7164
  14   2.0000     -10.277240      -279.6579
  15   2.0000     -10.272929      -279.5406
  16   2.0000      -8.085489      -220.0173
  17   2.0000      -8.078958      -219.8396
  18   2.0000      -6.044268      -164.4729
  19   2.0000      -6.040131      -164.3603
  20   2.0000      -6.037525      -164.2894
  21   2.0000      -6.036095      -164.2505
  22   2.0000      -6.033667      -164.1844
  23   2.0000      -6.029613      -164.0741
  24   2.0000      -1.000262       -27.2185
  25   2.0000      -0.975762       -26.5518
  26   2.0000      -0.912563       -24.8321
  27   2.0000      -0.910838       -24.7851
  28   2.0000      -0.869090       -23.6491
  29   2.0000      -0.846266       -23.0281
  30   2.0000      -0.841230       -22.8910
  31   2.0000      -0.811174       -22.0732
  32   2.0000      -0.783951       -21.3324
  33   2.0000      -0.772738       -21.0273
  34   2.0000      -0.710793       -19.3417
  35   2.0000      -0.701754       -19.0957
  36   2.0000      -0.696009       -18.9394
  37   2.0000      -0.661891       -18.0110
  38   2.0000      -0.637566       -17.3491
  39   2.0000      -0.611760       -16.6468
  40   2.0000      -0.596276       -16.2255
  41   2.0000      -0.577333       -15.7100
  42   2.0000      -0.571272       -15.5451
  43   2.0000      -0.550813       -14.9884
  44   2.0000      -0.549735       -14.9590
  45   2.0000      -0.522682       -14.2229
  46   2.0000      -0.513860       -13.9829
  47   2.0000      -0.506655       -13.7868
  48   2.0000      -0.500646       -13.6233
  49   2.0000      -0.497189       -13.5292
  50   2.0000      -0.489927       -13.3316
  51   2.0000      -0.473853       -12.8942
  52   2.0000      -0.468768       -12.7558
  53   2.0000      -0.466685       -12.6991
  54   2.0000      -0.457380       -12.4460
  55   2.0000      -0.443882       -12.0786
  56   2.0000      -0.440966       -11.9993
  57   2.0000      -0.436304       -11.8724
  58   2.0000      -0.430694       -11.7198
  59   2.0000      -0.424982       -11.5643
  60   2.0000      -0.421857       -11.4793
  61   2.0000      -0.415444       -11.3048
  62   2.0000      -0.410864       -11.1802
  63   2.0000      -0.337533        -9.1848
  64   2.0000      -0.330610        -8.9964
  65   2.0000      -0.326738        -8.8910
  66   2.0000      -0.299723        -8.1559
  67   0.0000       0.026540         0.7222
  68   0.0000       0.049491         1.3467
  69   0.0000       0.106930         2.9097
  70   0.0000       0.109810         2.9881
  71   0.0000       0.126133         3.4322

MULLIKEN ATOMIC CHARGES
-----------------------
   0 S :    0.124551
   1 C :   -0.120922
   2 C :   -0.093464
   3 C :    0.029031
   4 C :   -0.168899
   5 H :    0.038514
   6 C :    0.062700
   7 H :    0.019367
   8 H :    0.032219
   9 C :   -0.067945
  10 H :    0.033592
  11 H :    0.037306
  12 C :   -0.065035
  13 H :    0.047598
  14 H :    0.027743
  15 H :    0.011170
  16 S :    0.103123
  17 C :   -0.055710
  18 C :   -0.045387
  19 C :    0.014192
  20 C :   -0.192880
  21 H :    0.013575
  22 C :    0.060824
  23 H :   -0.001889
  24 H :    0.019255
  25 C :   -0.030365
  26 H :    0.033772
  27 H :    0.022840
  28 C :   -0.054220
  29 H :    0.041657
  30 H :    0.016783
  31 H :    0.023761
  32 H :    0.053008
  33 H :    0.030138
Sum of atomic charges:    0.0000000

LOEWDIN ATOMIC CHARGES
----------------------
   0 S :    0.393999
   1 C :   -0.185146
   2 C :   -0.058745
   3 C :   -0.066546
   4 C :   -0.209517
   5 H :    0.041153
   6 C :   -0.034245
   7 H :    0.030937
   8 H :    0.033770
   9 C :   -0.038666
  10 H :    0.026774
  11 H :    0.027331
  12 C :   -0.080155
  13 H :    0.029086
  14 H :    0.027927
  15 H :    0.022862
  16 S :    0.384429
  17 C :   -0.170841
  18 C :   -0.070946
  19 C :   -0.040372
  20 C :   -0.185199
  21 H :    0.030240
  22 C :   -0.025920
  23 H :    0.015294
  24 H :    0.033216
  25 C :   -0.031562
  26 H :    0.026295
  27 H :    0.018964
  28 C :   -0.068034
  29 H :    0.024388
  30 H :    0.023865
  31 H :    0.026126
  32 H :    0.032210
  33 H :    0.017028

  Mayer bond orders larger than 0.100000
B(  0-S ,  1-C ) :   1.1313 B(  0-S ,  4-C ) :   1.1336 B(  1-C ,  2-C ) :   1.6031
B(  1-C ,  4-C ) :   0.1042 B(  1-C , 32-H ) :   0.9678 B(  2-C ,  3-C ) :   1.2393
B(  2-C ,  6-C ) :   1.0112 B(  3-C ,  4-C ) :   1.5874 B(  3-C ,  5-H ) :   0.9794
B(  4-C , 20-C ) :   1.0547 B(  6-C ,  7-H ) :   0.9267 B(  6-C ,  8-H ) :   0.9483
B(  6-C ,  9-C ) :   1.0937 B(  9-C , 10-H ) :   0.9568 B(  9-C , 11-H ) :   0.9572
B(  9-C , 12-C ) :   1.0580 B( 12-C , 13-H ) :   0.9789 B( 12-C , 14-H ) :   0.9709
B( 12-C , 15-H ) :   0.9738 B( 16-S , 17-C ) :   1.1482 B( 16-S , 20-C ) :   1.1297
B( 17-C , 18-C ) :   1.6324 B( 17-C , 20-C ) :   0.1100 B( 17-C , 33-H ) :   0.9702
B( 18-C , 19-C ) :   1.2196 B( 18-C , 21-H ) :   0.9947 B( 19-C , 20-C ) :   1.5914
B( 19-C , 22-C ) :   1.0374 B( 22-C , 23-H ) :   0.9361 B( 22-C , 24-H ) :   0.9377
B( 22-C , 25-C ) :   1.0709 B( 25-C , 26-H ) :   0.9549 B( 25-C , 27-H ) :   0.9540
B( 25-C , 28-C ) :   1.0795 B( 28-C , 29-H ) :   0.9755 B( 28-C , 30-H ) :   0.9717
B( 28-C , 31-H ) :   0.9737

Dispersion correction           -0.014146044
FINAL SINGLE POINT ENERGY     -1339.854919466127

DIPOLE MOMENT
-------------
                                X             Y             Z
Electronic contribution:    -15.26759      12.06191       6.96074
Nuclear contribution   :     15.67574     -12.39511      -6.98490
                        -----------------------------------------
Total Dipole Moment    :      0.40815      -0.33320      -0.02416
                        -----------------------------------------
Magnitude (a.u.)       :      0.52744
Magnitude (Debye)      :      1.34064

Rotational constants in cm-1:     0.018272     0.008282     0.006956
Rotational constants in MHz :   547.782014   248.275049   208.549579

                             ****ORCA TERMINATED NORMALLY****
TOTAL RUN TIME: 0 days 0 hours 0 minutes 22 seconds 331 msec
