                         Program Version 4.2.1 -  RELEASE  -
|  1> ! wB97X-D3 SP def2-SVP
|  2> %pal
|  3> nprocs 24
|  4> end
|  5>
|  6> * xyz 0 1
|  7> S 	 -108.284 	 15.0439 	 -120.71
|  8> C 	 -109.953 	 14.4241 	 -120.798
|  9> C 	 -110.708 	 15.18 	 -121.66
| 10> C 	 -109.943 	 16.1694 	 -122.325
| 11> C 	 -108.661 	 16.3117 	 -121.865
| 12> H 	 -110.239 	 16.6824 	 -123.225
| 13> C 	 -112.159 	 15.0538 	 -121.84
| 14> H 	 -112.51 	 16.0543 	 -121.997
| 15> H 	 -112.597 	 14.7003 	 -120.866
| 16> C 	 -112.53 	 14.1822 	 -123.034
| 17> H 	 -112.104 	 13.2413 	 -122.808
| 18> H 	 -113.613 	 14.0554 	 -123.151
| 19> C 	 -112.016 	 14.5416 	 -124.426
| 20> H 	 -111.567 	 15.5399 	 -124.427
| 21> H 	 -111.16 	 13.8747 	 -124.646
| 22> H 	 -112.84 	 14.5099 	 -125.19
| 23> S 	 -105.972 	 16.6098 	 -122.411
| 24> C 	 -105.335 	 18.0408 	 -123.202
| 25> C 	 -106.351 	 18.9456 	 -123.427
| 26> C 	 -107.653 	 18.5046 	 -123.015
| 27> C 	 -107.635 	 17.2158 	 -122.435
| 28> H 	 -105.98 	 19.8254 	 -123.779
| 29> C 	 -108.841 	 19.4395 	 -123.098
| 30> H 	 -108.985 	 19.8894 	 -122.071
| 31> H 	 -109.739 	 18.9006 	 -123.319
| 32> C 	 -108.687 	 20.4944 	 -124.276
| 33> H 	 -108.168 	 20.0501 	 -125.216
| 34> H 	 -108.043 	 21.3102 	 -123.908
| 35> C 	 -110.043 	 21.2078 	 -124.589
| 36> H 	 -110.469 	 21.8089 	 -123.869
| 37> H 	 -110.803 	 20.608 	 -125.01
| 38> H 	 -109.736 	 22.0258 	 -125.34
| 39> H 	 -110.431 	 13.7002 	 -120.195
| 40> H 	 -104.35 	 18.1867 	 -123.451
| 41> *
| 42>
| 43>                          ****END OF INPUT****

CARTESIAN COORDINATES (ANGSTROEM)
---------------------------------
  S    -108.284000   15.043900  -120.710000
  C    -109.953000   14.424100  -120.798000
  C    -110.708000   15.180000  -121.660000
  C    -109.943000   16.169400  -122.325000
  C    -108.661000   16.311700  -121.865000
  H    -110.239000   16.682400  -123.225000
  C    -112.159000   15.053800  -121.840000
  H    -112.510000   16.054300  -121.997000
  H    -112.597000   14.700300  -120.866000
  C    -112.530000   14.182200  -123.034000
  H    -112.104000   13.241300  -122.808000
  H    -113.613000   14.055400  -123.151000
  C    -112.016000   14.541600  -124.426000
  H    -111.567000   15.539900  -124.427000
  H    -111.160000   13.874700  -124.646000
  H    -112.840000   14.509900  -125.190000
  S    -105.972000   16.609800  -122.411000
  C    -105.335000   18.040800  -123.202000
  C    -106.351000   18.945600  -123.427000
  C    -107.653000   18.504600  -123.015000
  C    -107.635000   17.215800  -122.435000
  H    -105.980000   19.825400  -123.779000
  C    -108.841000   19.439500  -123.098000
  H    -108.985000   19.889400  -122.071000
  H    -109.739000   18.900600  -123.319000
  C    -108.687000   20.494400  -124.276000
  H    -108.168000   20.050100  -125.216000
  H    -108.043000   21.310200  -123.908000
  C    -110.043000   21.207800  -124.589000
  H    -110.469000   21.808900  -123.869000
  H    -110.803000   20.608000  -125.010000
  H    -109.736000   22.025800  -125.340000
  H    -110.431000   13.700200  -120.195000
  H    -104.350000   18.186700  -123.451000

 Total Charge           Charge          ....    0
 Multiplicity           Mult            ....    1
 Number of Electrons    NEL             ....  134
 Basis Dimension        Dim             ....  322

ORBITAL ENERGIES
----------------

  NO   OCC          E(Eh)            E(eV)
   0   2.0000     -88.968345     -2420.9517
   1   2.0000     -88.962663     -2420.7971
   2   2.0000     -10.333818      -281.1975
   3   2.0000     -10.333539      -281.1899
   4   2.0000     -10.311925      -280.6017
   5   2.0000     -10.311699      -280.5956
   6   2.0000     -10.309777      -280.5433
   7   2.0000     -10.303635      -280.3762
   8   2.0000     -10.296852      -280.1916
   9   2.0000     -10.294594      -280.1301
  10   2.0000     -10.290315      -280.0137
  11   2.0000     -10.289105      -279.9808
  12   2.0000     -10.287809      -279.9455
  13   2.0000     -10.281895      -279.7846
  14   2.0000     -10.280649      -279.7507
  15   2.0000     -10.278575      -279.6942
  16   2.0000      -8.082268      -219.9297
  17   2.0000      -8.077144      -219.7903
  18   2.0000      -6.040978      -164.3834
  19   2.0000      -6.036987      -164.2748
  20   2.0000      -6.035703      -164.2398
  21   2.0000      -6.032742      -164.1593
  22   2.0000      -6.031572      -164.1274
  23   2.0000      -6.027992      -164.0300
  24   2.0000      -1.004787       -27.3416
  25   2.0000      -0.983115       -26.7519
  26   2.0000      -0.919193       -25.0125
  27   2.0000      -0.901194       -24.5227
  28   2.0000      -0.870132       -23.6775
  29   2.0000      -0.850225       -23.1358
  30   2.0000      -0.842752       -22.9324
  31   2.0000      -0.822004       -22.3679
  32   2.0000      -0.783753       -21.3270
  33   2.0000      -0.773090       -21.0369
  34   2.0000      -0.709289       -19.3007
  35   2.0000      -0.706473       -19.2241
  36   2.0000      -0.698728       -19.0133
  37   2.0000      -0.656782       -17.8719
  38   2.0000      -0.638853       -17.3841
  39   2.0000      -0.621541       -16.9130
  40   2.0000      -0.596770       -16.2389
  41   2.0000      -0.581553       -15.8249
  42   2.0000      -0.565159       -15.3788
  43   2.0000      -0.551489       -15.0068
  44   2.0000      -0.544273       -14.8104
  45   2.0000      -0.525658       -14.3039
  46   2.0000      -0.520315       -14.1585
  47   2.0000      -0.510899       -13.9023
  48   2.0000      -0.505557       -13.7569
  49   2.0000      -0.500359       -13.6155
  50   2.0000      -0.489377       -13.3166
  51   2.0000      -0.483390       -13.1537
  52   2.0000      -0.473313       -12.8795
  53   2.0000      -0.467322       -12.7165
  54   2.0000      -0.461101       -12.5472
  55   2.0000      -0.451306       -12.2807
  56   2.0000      -0.440251       -11.9798
  57   2.0000      -0.437753       -11.9119
  58   2.0000      -0.428537       -11.6611
  59   2.0000      -0.424711       -11.5570
  60   2.0000      -0.421025       -11.4567
  61   2.0000      -0.414840       -11.2884
  62   2.0000      -0.405337       -11.0298
  63   2.0000      -0.356952        -9.7132
  64   2.0000      -0.332443        -9.0462
  65   2.0000      -0.326770        -8.8919
  66   2.0000      -0.285525        -7.7695
  67   0.0000       0.021503         0.5851
  68   0.0000       0.080180         2.1818
  69   0.0000       0.099984         2.7207
  70   0.0000       0.116232         3.1628
  71   0.0000       0.133946         3.6449

MULLIKEN ATOMIC CHARGES
-----------------------
   0 S :    0.103610
   1 C :   -0.092687
   2 C :   -0.104443
   3 C :   -0.020470
   4 C :   -0.100274
   5 H :    0.024271
   6 C :    0.076141
   7 H :    0.019343
   8 H :    0.032803
   9 C :   -0.050716
  10 H :    0.010894
  11 H :    0.032426
  12 C :   -0.065788
  13 H :    0.011615
  14 H :    0.047210
  15 H :    0.048713
  16 S :    0.082154
  17 C :   -0.059112
  18 C :   -0.014832
  19 C :   -0.045816
  20 C :   -0.136914
  21 H :   -0.018453
  22 C :    0.087939
  23 H :    0.059516
  24 H :    0.008432
  25 C :   -0.150688
  26 H :    0.063979
  27 H :    0.040376
  28 C :   -0.023290
  29 H :    0.017435
  30 H :    0.033043
  31 H :    0.030053
  32 H :    0.026435
  33 H :    0.027095
Sum of atomic charges:   -0.0000000

LOEWDIN ATOMIC CHARGES
----------------------
   0 S :    0.387480
   1 C :   -0.183462
   2 C :   -0.062722
   3 C :   -0.070008
   4 C :   -0.181783
   5 H :    0.027145
   6 C :   -0.031171
   7 H :    0.026635
   8 H :    0.039164
   9 C :   -0.042677
  10 H :    0.018777
  11 H :    0.025207
  12 C :   -0.070769
  13 H :    0.019969
  14 H :    0.035231
  15 H :    0.034441
  16 S :    0.390684
  17 C :   -0.163704
  18 C :   -0.063387
  19 C :   -0.058135
  20 C :   -0.187015
  21 H :    0.017108
  22 C :   -0.035335
  23 H :    0.046764
  24 H :    0.020639
  25 C :   -0.046123
  26 H :    0.039878
  27 H :    0.025817
  28 C :   -0.065497
  29 H :    0.015194
  30 H :    0.017394
  31 H :    0.038863
  32 H :    0.021906
  33 H :    0.013493

  Mayer bond orders larger than 0.100000
B(  0-S ,  1-C ) :   1.1114 B(  0-S ,  4-C ) :   1.1408 B(  1-C ,  2-C ) :   1.6372
B(  1-C , 32-H ) :   0.9670 B(  2-C ,  3-C ) :   1.2317 B(  2-C ,  6-C ) :   1.0216
B(  3-C ,  4-C ) :   1.5974 B(  3-C ,  5-H ) :   0.9803 B(  4-C , 20-C ) :   1.0605
B(  6-C ,  7-H ) :   0.9389 B(  6-C ,  8-H ) :   0.9410 B(  6-C ,  9-C ) :   1.0744
B(  9-C , 10-H ) :   0.9582 B(  9-C , 11-H ) :   0.9625 B(  9-C , 12-C ) :   1.0636
B( 12-C , 13-H ) :   0.9786 B( 12-C , 14-H ) :   0.9764 B( 12-C , 15-H ) :   0.9756
B( 16-S , 17-C ) :   1.1540 B( 16-S , 20-C ) :   1.1398 B( 17-C , 18-C ) :   1.6070
B( 17-C , 33-H ) :   0.9757 B( 18-C , 19-C ) :   1.2240 B( 18-C , 21-H ) :   1.0097
B( 19-C , 20-C ) :   1.5781 B( 19-C , 22-C ) :   1.0382 B( 22-C , 23-H ) :   0.9262
B( 22-C , 24-H ) :   0.9404 B( 22-C , 25-C ) :   1.0574 B( 25-C , 26-H ) :   0.9611
B( 25-C , 27-H ) :   0.9473 B( 25-C , 28-C ) :   1.0789 B( 28-C , 29-H ) :   0.9734
B( 28-C , 30-H ) :   0.9773 B( 28-C , 31-H ) :   0.9720

Dispersion correction           -0.013856427
FINAL SINGLE POINT ENERGY     -1339.856230564740

DIPOLE MOMENT
-------------
                                X             Y             Z
Electronic contribution:     22.60208     -11.09161      14.96937
Nuclear contribution   :    -23.10050      11.54400     -15.27969
                        -----------------------------------------
Total Dipole Moment    :     -0.49842       0.45240      -0.31032
                        -----------------------------------------
Magnitude (a.u.)       :      0.74120
Magnitude (Debye)      :      1.88399

Rotational constants in cm-1:     0.016360     0.009346     0.006599
Rotational constants in MHz :   490.472891   280.180534   197.839742

                             ****ORCA TERMINATED NORMALLY****
TOTAL RUN TIME: 0 days 0 hours 0 minutes 21 seconds 418 msec
