                         Program Version 4.2.1 -  RELEASE  -
|  1> ! wB97X-D3 SP def2-SVP
|  2> %pal
|  3> nprocs 24
|  4> end
|  5>
|  6> * xyz 0 1
|  7> S 	 -141.19 	 7.46236 	 6.07555
|  8> C 	 -139.983 	 7.83533 	 4.82763
|  9> C 	 -138.701 	 7.84649 	 5.3546
| 10> C 	 -138.735 	 7.76749 	 6.78266
| 11> C 	 -139.974 	 7.53449 	 7.2883
| 12> H 	 -137.834 	 7.78954 	 7.38594
| 13> C 	 -137.428 	 8.09803 	 4.5965
| 14> H 	 -136.624 	 8.16802 	 5.29819
| 15> H 	 -137.535 	 9.06861 	 4.15442
| 16> C 	 -137.012 	 7.01817 	 3.5831
| 17> H 	 -136.747 	 6.18459 	 4.16148
| 18> H 	 -137.838 	 6.78237 	 2.92401
| 19> C 	 -135.775 	 7.35803 	 2.71049
| 20> H 	 -135.551 	 6.415 	 2.17513
| 21> H 	 -136.026 	 8.16185 	 2.02563
| 22> H 	 -134.929 	 7.65459 	 3.35826
| 23> S 	 -140.666 	 5.46869 	 9.08111
| 24> C 	 -140.964 	 5.95626 	 10.7277
| 25> C 	 -140.811 	 7.34108 	 10.9274
| 26> C 	 -140.384 	 8.0723 	 9.77648
| 27> C 	 -140.256 	 7.20945 	 8.72284
| 28> H 	 -140.908 	 7.79997 	 11.8866
| 29> C 	 -140.068 	 9.60182 	 9.85182
| 30> H 	 -140.962 	 10.1898 	 10.0802
| 31> H 	 -139.902 	 9.92833 	 8.85233
| 32> C 	 -138.883 	 10.0764 	 10.801
| 33> H 	 -138.079 	 9.43181 	 10.5662
| 34> H 	 -139.088 	 9.84665 	 11.8117
| 35> C 	 -138.433 	 11.5199 	 10.7489
| 36> H 	 -139.128 	 12.0428 	 10.0585
| 37> H 	 -137.437 	 11.6032 	 10.3751
| 38> H 	 -138.576 	 11.8723 	 11.7485
| 39> H 	 -140.221 	 8.16337 	 3.84242
| 40> H 	 -141.327 	 5.34359 	 11.6083
| 41> *
| 42>
| 43>                          ****END OF INPUT****

CARTESIAN COORDINATES (ANGSTROEM)
---------------------------------
  S    -141.190000    7.462360    6.075550
  C    -139.983000    7.835330    4.827630
  C    -138.701000    7.846490    5.354600
  C    -138.735000    7.767490    6.782660
  C    -139.974000    7.534490    7.288300
  H    -137.834000    7.789540    7.385940
  C    -137.428000    8.098030    4.596500
  H    -136.624000    8.168020    5.298190
  H    -137.535000    9.068610    4.154420
  C    -137.012000    7.018170    3.583100
  H    -136.747000    6.184590    4.161480
  H    -137.838000    6.782370    2.924010
  C    -135.775000    7.358030    2.710490
  H    -135.551000    6.415000    2.175130
  H    -136.026000    8.161850    2.025630
  H    -134.929000    7.654590    3.358260
  S    -140.666000    5.468690    9.081110
  C    -140.964000    5.956260   10.727700
  C    -140.811000    7.341080   10.927400
  C    -140.384000    8.072300    9.776480
  C    -140.256000    7.209450    8.722840
  H    -140.908000    7.799970   11.886600
  C    -140.068000    9.601820    9.851820
  H    -140.962000   10.189800   10.080200
  H    -139.902000    9.928330    8.852330
  C    -138.883000   10.076400   10.801000
  H    -138.079000    9.431810   10.566200
  H    -139.088000    9.846650   11.811700
  C    -138.433000   11.519900   10.748900
  H    -139.128000   12.042800   10.058500
  H    -137.437000   11.603200   10.375100
  H    -138.576000   11.872300   11.748500
  H    -140.221000    8.163370    3.842420
  H    -141.327000    5.343590   11.608300

 Total Charge           Charge          ....    0
 Multiplicity           Mult            ....    1
 Number of Electrons    NEL             ....  134
 Basis Dimension        Dim             ....  322

ORBITAL ENERGIES
----------------

  NO   OCC          E(Eh)            E(eV)
   0   2.0000     -88.969993     -2420.9966
   1   2.0000     -88.965347     -2420.8702
   2   2.0000     -10.329981      -281.0931
   3   2.0000     -10.323024      -280.9038
   4   2.0000     -10.321996      -280.8758
   5   2.0000     -10.311062      -280.5783
   6   2.0000     -10.305164      -280.4178
   7   2.0000     -10.298137      -280.2266
   8   2.0000     -10.296478      -280.1814
   9   2.0000     -10.290014      -280.0055
  10   2.0000     -10.288208      -279.9564
  11   2.0000     -10.285571      -279.8846
  12   2.0000     -10.282313      -279.7960
  13   2.0000     -10.280246      -279.7397
  14   2.0000     -10.279279      -279.7134
  15   2.0000     -10.275928      -279.6222
  16   2.0000      -8.083474      -219.9625
  17   2.0000      -8.080177      -219.8728
  18   2.0000      -6.042020      -164.4117
  19   2.0000      -6.038714      -164.3218
  20   2.0000      -6.038381      -164.3127
  21   2.0000      -6.034641      -164.2109
  22   2.0000      -6.034039      -164.1945
  23   2.0000      -6.030943      -164.1103
  24   2.0000      -1.002374       -27.2760
  25   2.0000      -0.978359       -26.6225
  26   2.0000      -0.911690       -24.8084
  27   2.0000      -0.902925       -24.5699
  28   2.0000      -0.861721       -23.4486
  29   2.0000      -0.855188       -23.2709
  30   2.0000      -0.846196       -23.0262
  31   2.0000      -0.807795       -21.9812
  32   2.0000      -0.785825       -21.3834
  33   2.0000      -0.772261       -21.0143
  34   2.0000      -0.703068       -19.1315
  35   2.0000      -0.701260       -19.0823
  36   2.0000      -0.690086       -18.7782
  37   2.0000      -0.655373       -17.8336
  38   2.0000      -0.641187       -17.4476
  39   2.0000      -0.615503       -16.7487
  40   2.0000      -0.591771       -16.1029
  41   2.0000      -0.575886       -15.6707
  42   2.0000      -0.568717       -15.4756
  43   2.0000      -0.554728       -15.0949
  44   2.0000      -0.525614       -14.3027
  45   2.0000      -0.523107       -14.2345
  46   2.0000      -0.515296       -14.0219
  47   2.0000      -0.513018       -13.9599
  48   2.0000      -0.505197       -13.7471
  49   2.0000      -0.497040       -13.5251
  50   2.0000      -0.486794       -13.2463
  51   2.0000      -0.479919       -13.0592
  52   2.0000      -0.464602       -12.6425
  53   2.0000      -0.463619       -12.6157
  54   2.0000      -0.457224       -12.4417
  55   2.0000      -0.449866       -12.2415
  56   2.0000      -0.444625       -12.0989
  57   2.0000      -0.433947       -11.8083
  58   2.0000      -0.431671       -11.7464
  59   2.0000      -0.427510       -11.6331
  60   2.0000      -0.423870       -11.5341
  61   2.0000      -0.420582       -11.4446
  62   2.0000      -0.417423       -11.3587
  63   2.0000      -0.337566        -9.1856
  64   2.0000      -0.332983        -9.0609
  65   2.0000      -0.323643        -8.8068
  66   2.0000      -0.300651        -8.1811
  67   0.0000       0.044865         1.2209
  68   0.0000       0.054382         1.4798
  69   0.0000       0.109557         2.9812
  70   0.0000       0.119617         3.2550
  71   0.0000       0.127710         3.4752

MULLIKEN ATOMIC CHARGES
-----------------------
   0 S :    0.119269
   1 C :   -0.126305
   2 C :   -0.091158
   3 C :    0.037119
   4 C :   -0.160966
   5 H :    0.010290
   6 C :    0.093523
   7 H :    0.000087
   8 H :    0.026612
   9 C :   -0.075353
  10 H :    0.019964
  11 H :    0.029257
  12 C :   -0.055721
  13 H :    0.045803
  14 H :    0.035664
  15 H :    0.034557
  16 S :    0.120415
  17 C :   -0.107511
  18 C :   -0.037238
  19 C :   -0.003765
  20 C :   -0.207589
  21 H :    0.006746
  22 C :    0.092154
  23 H :    0.028716
  24 H :    0.010946
  25 C :   -0.075072
  26 H :    0.017834
  27 H :    0.013320
  28 C :   -0.020475
  29 H :    0.031339
  30 H :    0.038621
  31 H :    0.034034
  32 H :    0.037912
  33 H :    0.076972
Sum of atomic charges:    0.0000000

LOEWDIN ATOMIC CHARGES
----------------------
   0 S :    0.410452
   1 C :   -0.189090
   2 C :   -0.057268
   3 C :   -0.064343
   4 C :   -0.207928
   5 H :    0.031780
   6 C :   -0.030193
   7 H :    0.023605
   8 H :    0.028975
   9 C :   -0.033248
  10 H :    0.018677
  11 H :    0.021154
  12 C :   -0.063563
  13 H :    0.032990
  14 H :    0.022620
  15 H :    0.025940
  16 S :    0.383302
  17 C :   -0.202268
  18 C :   -0.070134
  19 C :   -0.050916
  20 C :   -0.174548
  21 H :    0.023963
  22 C :   -0.025534
  23 H :    0.031416
  24 H :    0.023698
  25 C :   -0.038098
  26 H :    0.019273
  27 H :    0.015473
  28 C :   -0.057565
  29 H :    0.030982
  30 H :    0.026613
  31 H :    0.028238
  32 H :    0.020783
  33 H :    0.044763

  Mayer bond orders larger than 0.100000
B(  0-S ,  1-C ) :   1.1325 B(  0-S ,  4-C ) :   1.1649 B(  1-C ,  2-C ) :   1.6034
B(  1-C , 32-H ) :   0.9740 B(  2-C ,  3-C ) :   1.2540 B(  2-C ,  6-C ) :   1.0208
B(  3-C ,  4-C ) :   1.5854 B(  3-C ,  5-H ) :   0.9937 B(  4-C , 20-C ) :   0.9849
B(  6-C ,  7-H ) :   0.9369 B(  6-C ,  8-H ) :   0.9378 B(  6-C ,  9-C ) :   1.0615
B(  9-C , 10-H ) :   0.9559 B(  9-C , 11-H ) :   0.9609 B(  9-C , 12-C ) :   1.0849
B( 12-C , 13-H ) :   0.9753 B( 12-C , 14-H ) :   0.9774 B( 12-C , 15-H ) :   0.9743
B( 16-S , 17-C ) :   1.1374 B( 16-S , 20-C ) :   1.1306 B( 17-C , 18-C ) :   1.6387
B( 17-C , 33-H ) :   0.9559 B( 18-C , 19-C ) :   1.2204 B( 18-C , 21-H ) :   0.9870
B( 19-C , 20-C ) :   1.6528 B( 19-C , 22-C ) :   1.0365 B( 22-C , 23-H ) :   0.9345
B( 22-C , 24-H ) :   0.9293 B( 22-C , 25-C ) :   1.0523 B( 25-C , 26-H ) :   0.9595
B( 25-C , 27-H ) :   0.9650 B( 25-C , 28-C ) :   1.0713 B( 28-C , 29-H ) :   0.9795
B( 28-C , 30-H ) :   0.9777 B( 28-C , 31-H ) :   0.9801

Dispersion correction           -0.013419716
FINAL SINGLE POINT ENERGY     -1339.870168065497

DIPOLE MOMENT
-------------
                                X             Y             Z
Electronic contribution:    -20.65047     -16.08645       4.14705
Nuclear contribution   :     21.12176      16.53783      -4.05277
                        -----------------------------------------
Total Dipole Moment    :      0.47128       0.45139       0.09427
                        -----------------------------------------
Magnitude (a.u.)       :      0.65935
Magnitude (Debye)      :      1.67594

Rotational constants in cm-1:     0.017677     0.007530     0.006119
Rotational constants in MHz :   529.957305   225.743123   183.431145

                             ****ORCA TERMINATED NORMALLY****
TOTAL RUN TIME: 0 days 0 hours 0 minutes 19 seconds 553 msec
