                         Program Version 4.2.1 -  RELEASE  -
|  1> ! wB97X-D3 SP def2-SVP
|  2> %pal
|  3> nprocs 24
|  4> end
|  5>
|  6> * xyz 0 1
|  7> S 	 -94.5698 	 50.7114 	 -100.124
|  8> C 	 -93.9806 	 50.9672 	 -98.4983
|  9> C 	 -94.3542 	 52.2456 	 -98.0501
| 10> C 	 -95.0736 	 52.97 	 -99.0358
| 11> C 	 -95.36 	 52.2701 	 -100.244
| 12> H 	 -95.6104 	 53.9052 	 -98.8869
| 13> C 	 -94.1713 	 52.7346 	 -96.6707
| 14> H 	 -93.5058 	 53.6069 	 -96.7522
| 15> H 	 -93.5878 	 52.0673 	 -96.075
| 16> C 	 -95.3721 	 53.1335 	 -95.8148
| 17> H 	 -95.9485 	 53.9525 	 -96.2706
| 18> H 	 -96.0636 	 52.2954 	 -95.6894
| 19> C 	 -95.1155 	 53.5583 	 -94.4407
| 20> H 	 -94.6803 	 52.7125 	 -93.8429
| 21> H 	 -94.3758 	 54.2995 	 -94.3227
| 22> H 	 -96.0046 	 53.8553 	 -93.8973
| 23> S 	 -97.5882 	 51.3275 	 -101.63
| 24> C 	 -98.6252 	 52.5165 	 -102.374
| 25> C 	 -97.9712 	 53.7556 	 -102.476
| 26> C 	 -96.7856 	 53.7972 	 -101.699
| 27> C 	 -96.3806 	 52.5637 	 -101.275
| 28> H 	 -98.4527 	 54.5784 	 -102.883
| 29> C 	 -96.0575 	 55.0781 	 -101.434
| 30> H 	 -95.0604 	 54.9784 	 -101.676
| 31> H 	 -96.0921 	 55.2976 	 -100.387
| 32> C 	 -96.5757 	 56.3211 	 -102.332
| 33> H 	 -97.5856 	 56.5344 	 -101.946
| 34> H 	 -96.6382 	 55.9184 	 -103.383
| 35> C 	 -95.698 	 57.5516 	 -102.279
| 36> H 	 -94.6748 	 57.3503 	 -102.754
| 37> H 	 -95.5808 	 58.0572 	 -101.296
| 38> H 	 -96.2173 	 58.2493 	 -102.973
| 39> H 	 -93.7789 	 50.1423 	 -97.8956
| 40> H 	 -99.5679 	 52.2992 	 -102.775
| 41> *
| 42>
| 43>                          ****END OF INPUT****

CARTESIAN COORDINATES (ANGSTROEM)
---------------------------------
  S    -94.569800   50.711400  -100.124000
  C    -93.980600   50.967200  -98.498300
  C    -94.354200   52.245600  -98.050100
  C    -95.073600   52.970000  -99.035800
  C    -95.360000   52.270100  -100.244000
  H    -95.610400   53.905200  -98.886900
  C    -94.171300   52.734600  -96.670700
  H    -93.505800   53.606900  -96.752200
  H    -93.587800   52.067300  -96.075000
  C    -95.372100   53.133500  -95.814800
  H    -95.948500   53.952500  -96.270600
  H    -96.063600   52.295400  -95.689400
  C    -95.115500   53.558300  -94.440700
  H    -94.680300   52.712500  -93.842900
  H    -94.375800   54.299500  -94.322700
  H    -96.004600   53.855300  -93.897300
  S    -97.588200   51.327500  -101.630000
  C    -98.625200   52.516500  -102.374000
  C    -97.971200   53.755600  -102.476000
  C    -96.785600   53.797200  -101.699000
  C    -96.380600   52.563700  -101.275000
  H    -98.452700   54.578400  -102.883000
  C    -96.057500   55.078100  -101.434000
  H    -95.060400   54.978400  -101.676000
  H    -96.092100   55.297600  -100.387000
  C    -96.575700   56.321100  -102.332000
  H    -97.585600   56.534400  -101.946000
  H    -96.638200   55.918400  -103.383000
  C    -95.698000   57.551600  -102.279000
  H    -94.674800   57.350300  -102.754000
  H    -95.580800   58.057200  -101.296000
  H    -96.217300   58.249300  -102.973000
  H    -93.778900   50.142300  -97.895600
  H    -99.567900   52.299200  -102.775000

 Total Charge           Charge          ....    0
 Multiplicity           Mult            ....    1
 Number of Electrons    NEL             ....  134
 Basis Dimension        Dim             ....  322

ORBITAL ENERGIES
----------------

  NO   OCC          E(Eh)            E(eV)
   0   2.0000     -88.968230     -2420.9486
   1   2.0000     -88.962168     -2420.7837
   2   2.0000     -10.335154      -281.2338
   3   2.0000     -10.325715      -280.9770
   4   2.0000     -10.319471      -280.8071
   5   2.0000     -10.308944      -280.5206
   6   2.0000     -10.304113      -280.3892
   7   2.0000     -10.300379      -280.2876
   8   2.0000     -10.299197      -280.2554
   9   2.0000     -10.295653      -280.1590
  10   2.0000     -10.291616      -280.0491
  11   2.0000     -10.291285      -280.0401
  12   2.0000     -10.288873      -279.9745
  13   2.0000     -10.285811      -279.8911
  14   2.0000     -10.283445      -279.8268
  15   2.0000     -10.273056      -279.5441
  16   2.0000      -8.082764      -219.9432
  17   2.0000      -8.076943      -219.7848
  18   2.0000      -6.041295      -164.3920
  19   2.0000      -6.037271      -164.2825
  20   2.0000      -6.035377      -164.2309
  21   2.0000      -6.033525      -164.1805
  22   2.0000      -6.031216      -164.1177
  23   2.0000      -6.028023      -164.0309
  24   2.0000      -1.005681       -27.3660
  25   2.0000      -0.983120       -26.7521
  26   2.0000      -0.919535       -25.0218
  27   2.0000      -0.907606       -24.6972
  28   2.0000      -0.872305       -23.7366
  29   2.0000      -0.857350       -23.3297
  30   2.0000      -0.847937       -23.0735
  31   2.0000      -0.814169       -22.1547
  32   2.0000      -0.785568       -21.3764
  33   2.0000      -0.773686       -21.0531
  34   2.0000      -0.706730       -19.2311
  35   2.0000      -0.705113       -19.1871
  36   2.0000      -0.693788       -18.8789
  37   2.0000      -0.655885       -17.8475
  38   2.0000      -0.645286       -17.5591
  39   2.0000      -0.621138       -16.9020
  40   2.0000      -0.602695       -16.4002
  41   2.0000      -0.574933       -15.6447
  42   2.0000      -0.571776       -15.5588
  43   2.0000      -0.565909       -15.3992
  44   2.0000      -0.537013       -14.6129
  45   2.0000      -0.524489       -14.2721
  46   2.0000      -0.517593       -14.0844
  47   2.0000      -0.511949       -13.9308
  48   2.0000      -0.507834       -13.8189
  49   2.0000      -0.503900       -13.7118
  50   2.0000      -0.493519       -13.4293
  51   2.0000      -0.480199       -13.0669
  52   2.0000      -0.477044       -12.9810
  53   2.0000      -0.467869       -12.7314
  54   2.0000      -0.460586       -12.5332
  55   2.0000      -0.455118       -12.3844
  56   2.0000      -0.451194       -12.2776
  57   2.0000      -0.434156       -11.8140
  58   2.0000      -0.432464       -11.7679
  59   2.0000      -0.428504       -11.6602
  60   2.0000      -0.419501       -11.4152
  61   2.0000      -0.409272       -11.1368
  62   2.0000      -0.404812       -11.0155
  63   2.0000      -0.348848        -9.4926
  64   2.0000      -0.334297        -9.0967
  65   2.0000      -0.327046        -8.8994
  66   2.0000      -0.284883        -7.7521
  67   0.0000       0.021630         0.5886
  68   0.0000       0.067202         1.8287
  69   0.0000       0.117336         3.1929
  70   0.0000       0.119547         3.2530
  71   0.0000       0.132132         3.5955

MULLIKEN ATOMIC CHARGES
-----------------------
   0 S :    0.084934
   1 C :   -0.097989
   2 C :   -0.079434
   3 C :    0.014364
   4 C :   -0.163416
   5 H :    0.011100
   6 C :    0.081383
   7 H :    0.029820
   8 H :   -0.002021
   9 C :   -0.061452
  10 H :    0.025458
  11 H :    0.028786
  12 C :   -0.042935
  13 H :    0.019270
  14 H :    0.011330
  15 H :    0.037289
  16 S :    0.110325
  17 C :   -0.074898
  18 C :   -0.001283
  19 C :   -0.097628
  20 C :   -0.092568
  21 H :   -0.002973
  22 C :    0.106109
  23 H :    0.015257
  24 H :    0.030280
  25 C :   -0.152299
  26 H :    0.040549
  27 H :    0.051961
  28 C :   -0.048730
  29 H :    0.047045
  30 H :    0.048398
  31 H :    0.039489
  32 H :    0.043850
  33 H :    0.040630
Sum of atomic charges:   -0.0000000

LOEWDIN ATOMIC CHARGES
----------------------
   0 S :    0.404323
   1 C :   -0.199175
   2 C :   -0.056347
   3 C :   -0.070128
   4 C :   -0.186920
   5 H :    0.027130
   6 C :   -0.034348
   7 H :    0.038332
   8 H :    0.025428
   9 C :   -0.044874
  10 H :    0.023598
  11 H :    0.028586
  12 C :   -0.064792
  13 H :    0.026795
  14 H :    0.014336
  15 H :    0.030354
  16 S :    0.410486
  17 C :   -0.167502
  18 C :   -0.063994
  19 C :   -0.050928
  20 C :   -0.203498
  21 H :    0.018815
  22 C :   -0.024979
  23 H :    0.023013
  24 H :    0.027329
  25 C :   -0.044468
  26 H :    0.022949
  27 H :    0.033110
  28 C :   -0.075735
  29 H :    0.034742
  30 H :    0.029829
  31 H :    0.033351
  32 H :    0.017240
  33 H :    0.017941

  Mayer bond orders larger than 0.100000
B(  0-S ,  1-C ) :   1.1473 B(  0-S ,  4-C ) :   1.1720 B(  1-C ,  2-C ) :   1.5655
B(  1-C ,  4-C ) :   0.1011 B(  1-C , 32-H ) :   0.9719 B(  2-C ,  3-C ) :   1.2818
B(  2-C ,  6-C ) :   1.0502 B(  3-C ,  4-C ) :   1.5286 B(  3-C ,  5-H ) :   0.9824
B(  4-C , 20-C ) :   1.0422 B(  6-C ,  7-H ) :   0.9227 B(  6-C ,  8-H ) :   0.9386
B(  6-C ,  9-C ) :   1.0645 B(  9-C , 10-H ) :   0.9471 B(  9-C , 11-H ) :   0.9518
B(  9-C , 12-C ) :   1.1044 B( 12-C , 13-H ) :   0.9677 B( 12-C , 14-H ) :   0.9710
B( 12-C , 15-H ) :   0.9703 B( 16-S , 17-C ) :   1.1811 B( 16-S , 20-C ) :   1.1253
B( 17-C , 18-C ) :   1.5657 B( 17-C , 33-H ) :   0.9704 B( 18-C , 19-C ) :   1.2708
B( 18-C , 21-H ) :   0.9909 B( 19-C , 20-C ) :   1.6052 B( 19-C , 22-C ) :   1.0312
B( 22-C , 23-H ) :   0.9299 B( 22-C , 24-H ) :   0.9180 B( 22-C , 25-C ) :   1.0728
B( 25-C , 26-H ) :   0.9494 B( 25-C , 27-H ) :   0.9523 B( 25-C , 28-C ) :   1.0873
B( 28-C , 29-H ) :   0.9701 B( 28-C , 30-H ) :   0.9722 B( 28-C , 31-H ) :   0.9698

Dispersion correction           -0.013290844
FINAL SINGLE POINT ENERGY     -1339.865498251545

DIPOLE MOMENT
-------------
                                X             Y             Z
Electronic contribution:     -2.68867     -24.64815     -14.91394
Nuclear contribution   :      2.32584      25.34342      15.28754
                        -----------------------------------------
Total Dipole Moment    :     -0.36283       0.69528       0.37360
                        -----------------------------------------
Magnitude (a.u.)       :      0.86870
Magnitude (Debye)      :      2.20805

Rotational constants in cm-1:     0.015984     0.008324     0.006480
Rotational constants in MHz :   479.200624   249.540918   194.274443

                             ****ORCA TERMINATED NORMALLY****
TOTAL RUN TIME: 0 days 0 hours 0 minutes 21 seconds 52 msec
