                         Program Version 4.2.1 -  RELEASE  -
|  1> ! wB97X-D3 SP def2-SVP
|  2> %pal
|  3> nprocs 24
|  4> end
|  5>
|  6> * xyz 0 1
|  7> S 	 -123.071 	 68.5337 	 -38.9074
|  8> C 	 -122.682 	 69.028 	 -37.3081
|  9> C 	 -123.356 	 68.2572 	 -36.3475
| 10> C 	 -124.37 	 67.462 	 -36.8848
| 11> C 	 -124.393 	 67.5696 	 -38.2726
| 12> H 	 -125.058 	 66.8955 	 -36.357
| 13> C 	 -123.282 	 68.5392 	 -34.8407
| 14> H 	 -124.267 	 68.8912 	 -34.401
| 15> H 	 -122.518 	 69.2306 	 -34.6
| 16> C 	 -122.963 	 67.3322 	 -34.0019
| 17> H 	 -122.482 	 67.6311 	 -33.1093
| 18> H 	 -123.852 	 66.9716 	 -33.6305
| 19> C 	 -121.948 	 66.2976 	 -34.6417
| 20> H 	 -120.958 	 66.7531 	 -34.9042
| 21> H 	 -121.729 	 65.4933 	 -33.9713
| 22> H 	 -122.4 	 65.8709 	 -35.498
| 23> S 	 -126.265 	 68.3259 	 -40.2328
| 24> C 	 -127.438 	 67.2144 	 -40.745
| 25> C 	 -127.391 	 66.0314 	 -40.0445
| 26> C 	 -126.251 	 65.9545 	 -39.1635
| 27> C 	 -125.497 	 67.168 	 -39.1311
| 28> H 	 -128.186 	 65.2666 	 -40.1034
| 29> C 	 -126.016 	 64.6951 	 -38.2331
| 30> H 	 -126.837 	 64.5217 	 -37.6087
| 31> H 	 -125.117 	 64.8899 	 -37.6249
| 32> C 	 -125.653 	 63.3234 	 -38.8176
| 33> H 	 -124.763 	 63.3733 	 -39.4048
| 34> H 	 -126.352 	 62.9741 	 -39.5973
| 35> C 	 -125.489 	 62.2484 	 -37.709
| 36> H 	 -125.004 	 61.3731 	 -38.0688
| 37> H 	 -126.463 	 61.8492 	 -37.2923
| 38> H 	 -124.9 	 62.6843 	 -36.885
| 39> H 	 -121.793 	 69.7217 	 -37.0555
| 40> H 	 -128.282 	 67.2997 	 -41.3983
| 41> *
| 42>
| 43>                          ****END OF INPUT****

CARTESIAN COORDINATES (ANGSTROEM)
---------------------------------
  S    -123.071000   68.533700  -38.907400
  C    -122.682000   69.028000  -37.308100
  C    -123.356000   68.257200  -36.347500
  C    -124.370000   67.462000  -36.884800
  C    -124.393000   67.569600  -38.272600
  H    -125.058000   66.895500  -36.357000
  C    -123.282000   68.539200  -34.840700
  H    -124.267000   68.891200  -34.401000
  H    -122.518000   69.230600  -34.600000
  C    -122.963000   67.332200  -34.001900
  H    -122.482000   67.631100  -33.109300
  H    -123.852000   66.971600  -33.630500
  C    -121.948000   66.297600  -34.641700
  H    -120.958000   66.753100  -34.904200
  H    -121.729000   65.493300  -33.971300
  H    -122.400000   65.870900  -35.498000
  S    -126.265000   68.325900  -40.232800
  C    -127.438000   67.214400  -40.745000
  C    -127.391000   66.031400  -40.044500
  C    -126.251000   65.954500  -39.163500
  C    -125.497000   67.168000  -39.131100
  H    -128.186000   65.266600  -40.103400
  C    -126.016000   64.695100  -38.233100
  H    -126.837000   64.521700  -37.608700
  H    -125.117000   64.889900  -37.624900
  C    -125.653000   63.323400  -38.817600
  H    -124.763000   63.373300  -39.404800
  H    -126.352000   62.974100  -39.597300
  C    -125.489000   62.248400  -37.709000
  H    -125.004000   61.373100  -38.068800
  H    -126.463000   61.849200  -37.292300
  H    -124.900000   62.684300  -36.885000
  H    -121.793000   69.721700  -37.055500
  H    -128.282000   67.299700  -41.398300

 Total Charge           Charge          ....    0
 Multiplicity           Mult            ....    1
 Number of Electrons    NEL             ....  134
 Basis Dimension        Dim             ....  322

ORBITAL ENERGIES
----------------

  NO   OCC          E(Eh)            E(eV)
   0   2.0000     -88.970507     -2421.0106
   1   2.0000     -88.969206     -2420.9752
   2   2.0000     -10.331437      -281.1327
   3   2.0000     -10.330935      -281.1190
   4   2.0000     -10.320026      -280.8222
   5   2.0000     -10.311322      -280.5853
   6   2.0000     -10.310832      -280.5720
   7   2.0000     -10.301102      -280.3072
   8   2.0000     -10.293577      -280.1025
   9   2.0000     -10.292149      -280.0636
  10   2.0000     -10.291222      -280.0384
  11   2.0000     -10.289260      -279.9850
  12   2.0000     -10.284158      -279.8462
  13   2.0000     -10.282623      -279.8044
  14   2.0000     -10.274873      -279.5935
  15   2.0000     -10.273351      -279.5521
  16   2.0000      -8.085604      -220.0205
  17   2.0000      -8.084043      -219.9780
  18   2.0000      -6.043883      -164.4624
  19   2.0000      -6.042546      -164.4260
  20   2.0000      -6.040105      -164.3596
  21   2.0000      -6.038440      -164.3143
  22   2.0000      -6.036544      -164.2627
  23   2.0000      -6.034872      -164.2172
  24   2.0000      -1.008230       -27.4353
  25   2.0000      -0.986165       -26.8349
  26   2.0000      -0.913117       -24.8472
  27   2.0000      -0.903821       -24.5942
  28   2.0000      -0.867568       -23.6077
  29   2.0000      -0.852902       -23.2086
  30   2.0000      -0.843678       -22.9577
  31   2.0000      -0.809908       -22.0387
  32   2.0000      -0.785126       -21.3644
  33   2.0000      -0.771828       -21.0025
  34   2.0000      -0.710303       -19.3283
  35   2.0000      -0.697347       -18.9758
  36   2.0000      -0.692775       -18.8514
  37   2.0000      -0.655428       -17.8351
  38   2.0000      -0.637608       -17.3502
  39   2.0000      -0.627164       -17.0660
  40   2.0000      -0.594879       -16.1875
  41   2.0000      -0.563767       -15.3409
  42   2.0000      -0.562924       -15.3179
  43   2.0000      -0.559932       -15.2365
  44   2.0000      -0.541910       -14.7461
  45   2.0000      -0.518877       -14.1194
  46   2.0000      -0.510299       -13.8859
  47   2.0000      -0.508277       -13.8309
  48   2.0000      -0.502597       -13.6764
  49   2.0000      -0.494599       -13.4587
  50   2.0000      -0.491853       -13.3840
  51   2.0000      -0.479630       -13.0514
  52   2.0000      -0.468816       -12.7571
  53   2.0000      -0.468052       -12.7363
  54   2.0000      -0.458299       -12.4710
  55   2.0000      -0.454953       -12.3799
  56   2.0000      -0.450357       -12.2548
  57   2.0000      -0.434416       -11.8211
  58   2.0000      -0.432612       -11.7720
  59   2.0000      -0.424568       -11.5531
  60   2.0000      -0.421074       -11.4580
  61   2.0000      -0.412801       -11.2329
  62   2.0000      -0.409105       -11.1323
  63   2.0000      -0.351223        -9.5573
  64   2.0000      -0.333278        -9.0690
  65   2.0000      -0.330007        -8.9799
  66   2.0000      -0.286212        -7.7882
  67   0.0000       0.023672         0.6442
  68   0.0000       0.073818         2.0087
  69   0.0000       0.110223         2.9993
  70   0.0000       0.115998         3.1565
  71   0.0000       0.126332         3.4377

MULLIKEN ATOMIC CHARGES
-----------------------
   0 S :    0.131478
   1 C :   -0.156659
   2 C :   -0.091764
   3 C :    0.070350
   4 C :   -0.177237
   5 H :   -0.007902
   6 C :    0.085160
   7 H :    0.046098
   8 H :    0.003875
   9 C :   -0.066990
  10 H :    0.009799
  11 H :    0.000965
  12 C :   -0.034677
  13 H :    0.036750
  14 H :    0.026795
  15 H :    0.028490
  16 S :    0.129633
  17 C :   -0.064937
  18 C :   -0.062781
  19 C :   -0.029562
  20 C :   -0.146969
  21 H :    0.030371
  22 C :    0.049309
  23 H :    0.023982
  24 H :    0.025656
  25 C :   -0.064815
  26 H :    0.021161
  27 H :    0.019923
  28 C :   -0.062478
  29 H :    0.030117
  30 H :    0.037663
  31 H :    0.031696
  32 H :    0.079578
  33 H :    0.047921
Sum of atomic charges:    0.0000000

LOEWDIN ATOMIC CHARGES
----------------------
   0 S :    0.422837
   1 C :   -0.221168
   2 C :   -0.065204
   3 C :   -0.042395
   4 C :   -0.189358
   5 H :    0.022462
   6 C :   -0.027415
   7 H :    0.041509
   8 H :    0.021452
   9 C :   -0.040913
  10 H :    0.021289
  11 H :    0.009327
  12 C :   -0.059833
  13 H :    0.032201
  14 H :    0.021855
  15 H :    0.017274
  16 S :    0.428919
  17 C :   -0.207478
  18 C :   -0.078460
  19 C :   -0.051533
  20 C :   -0.202824
  21 H :    0.034952
  22 C :   -0.030838
  23 H :    0.022152
  24 H :    0.031684
  25 C :   -0.042689
  26 H :    0.020770
  27 H :    0.020463
  28 C :   -0.066110
  29 H :    0.022763
  30 H :    0.030225
  31 H :    0.025988
  32 H :    0.045423
  33 H :    0.032672

  Mayer bond orders larger than 0.100000
B(  0-S ,  1-C ) :   1.1512 B(  0-S ,  4-C ) :   1.1706 B(  1-C ,  2-C ) :   1.5798
B(  1-C , 32-H ) :   0.9526 B(  2-C ,  3-C ) :   1.2557 B(  2-C ,  6-C ) :   1.0425
B(  3-C ,  4-C ) :   1.5280 B(  3-C ,  5-H ) :   1.0066 B(  4-C , 20-C ) :   1.0599
B(  6-C ,  7-H ) :   0.9530 B(  6-C ,  8-H ) :   0.9387 B(  6-C ,  9-C ) :   1.0602
B(  9-C , 10-H ) :   0.9549 B(  9-C , 11-H ) :   0.9565 B(  9-C , 12-C ) :   1.0779
B( 12-C , 13-H ) :   0.9756 B( 12-C , 14-H ) :   0.9753 B( 12-C , 15-H ) :   0.9702
B( 16-S , 17-C ) :   1.1647 B( 16-S , 20-C ) :   1.1412 B( 17-C , 18-C ) :   1.5994
B( 17-C , 33-H ) :   0.9639 B( 18-C , 19-C ) :   1.2696 B( 18-C , 21-H ) :   0.9834
B( 19-C , 20-C ) :   1.5630 B( 19-C , 22-C ) :   1.0295 B( 22-C , 23-H ) :   0.9475
B( 22-C , 24-H ) :   0.9345 B( 22-C , 25-C ) :   1.0613 B( 25-C , 26-H ) :   0.9550
B( 25-C , 27-H ) :   0.9531 B( 25-C , 28-C ) :   1.0770 B( 28-C , 29-H ) :   0.9743
B( 28-C , 30-H ) :   0.9747 B( 28-C , 31-H ) :   0.9755

Dispersion correction           -0.014135028
FINAL SINGLE POINT ENERGY     -1339.857191247569

DIPOLE MOMENT
-------------
                                X             Y             Z
Electronic contribution:     -3.93397      21.50814     -21.15978
Nuclear contribution   :      3.77765     -21.85080      21.70325
                        -----------------------------------------
Total Dipole Moment    :     -0.15632      -0.34266       0.54347
                        -----------------------------------------
Magnitude (a.u.)       :      0.66122
Magnitude (Debye)      :      1.68069

Rotational constants in cm-1:     0.016045     0.009795     0.006798
Rotational constants in MHz :   481.008987   293.658060   203.799576

                             ****ORCA TERMINATED NORMALLY****
TOTAL RUN TIME: 0 days 0 hours 0 minutes 21 seconds 527 msec
