                         Program Version 4.2.1 -  RELEASE  -
|  1> ! wB97X-D3 SP def2-SVP
|  2> %pal
|  3> nprocs 24
|  4> end
|  5>
|  6> * xyz 0 1
|  7> S 	 -132.431 	 26.0203 	 -12.7986
|  8> C 	 -131.368 	 24.5405 	 -12.71
|  9> C 	 -130.154 	 24.6505 	 -13.3919
| 10> C 	 -130.056 	 25.9408 	 -13.9159
| 11> C 	 -131.17 	 26.7702 	 -13.6979
| 12> H 	 -129.208 	 26.2289 	 -14.4345
| 13> C 	 -129.152 	 23.4987 	 -13.612
| 14> H 	 -129.075 	 23.4168 	 -14.6836
| 15> H 	 -129.614 	 22.6142 	 -13.27
| 16> C 	 -127.751 	 23.827 	 -13.0197
| 17> H 	 -127.279 	 22.8542 	 -13.2279
| 18> H 	 -127.33 	 24.6299 	 -13.6179
| 19> C 	 -127.81 	 24.0002 	 -11.5257
| 20> H 	 -128.24 	 23.1102 	 -11.0849
| 21> H 	 -126.773 	 24.0607 	 -11.1468
| 22> H 	 -128.38 	 24.8628 	 -11.2208
| 23> S 	 -131.091 	 29.4303 	 -12.7951
| 24> C 	 -131.365 	 30.7285 	 -13.8871
| 25> C 	 -131.474 	 30.2841 	 -15.133
| 26> C 	 -131.273 	 28.8136 	 -15.242
| 27> C 	 -131.248 	 28.1726 	 -14.0294
| 28> H 	 -131.789 	 31.0146 	 -15.8531
| 29> C 	 -131.313 	 28.1042 	 -16.6023
| 30> H 	 -132.29 	 28.3175 	 -17.0973
| 31> H 	 -131.261 	 27.0209 	 -16.4696
| 32> C 	 -130.266 	 28.5945 	 -17.6044
| 33> H 	 -129.346 	 28.4988 	 -17.0569
| 34> H 	 -130.405 	 29.6558 	 -17.8966
| 35> C 	 -130.126 	 27.6193 	 -18.8136
| 36> H 	 -131.061 	 27.5299 	 -19.3422
| 37> H 	 -129.842 	 26.645 	 -18.3887
| 38> H 	 -129.455 	 27.9436 	 -19.6107
| 39> H 	 -131.721 	 23.6139 	 -12.2688
| 40> H 	 -131.43 	 31.7261 	 -13.5409
| 41> *
| 42>
| 43>                          ****END OF INPUT****

CARTESIAN COORDINATES (ANGSTROEM)
---------------------------------
  S    -132.431000   26.020300  -12.798600
  C    -131.368000   24.540500  -12.710000
  C    -130.154000   24.650500  -13.391900
  C    -130.056000   25.940800  -13.915900
  C    -131.170000   26.770200  -13.697900
  H    -129.208000   26.228900  -14.434500
  C    -129.152000   23.498700  -13.612000
  H    -129.075000   23.416800  -14.683600
  H    -129.614000   22.614200  -13.270000
  C    -127.751000   23.827000  -13.019700
  H    -127.279000   22.854200  -13.227900
  H    -127.330000   24.629900  -13.617900
  C    -127.810000   24.000200  -11.525700
  H    -128.240000   23.110200  -11.084900
  H    -126.773000   24.060700  -11.146800
  H    -128.380000   24.862800  -11.220800
  S    -131.091000   29.430300  -12.795100
  C    -131.365000   30.728500  -13.887100
  C    -131.474000   30.284100  -15.133000
  C    -131.273000   28.813600  -15.242000
  C    -131.248000   28.172600  -14.029400
  H    -131.789000   31.014600  -15.853100
  C    -131.313000   28.104200  -16.602300
  H    -132.290000   28.317500  -17.097300
  H    -131.261000   27.020900  -16.469600
  C    -130.266000   28.594500  -17.604400
  H    -129.346000   28.498800  -17.056900
  H    -130.405000   29.655800  -17.896600
  C    -130.126000   27.619300  -18.813600
  H    -131.061000   27.529900  -19.342200
  H    -129.842000   26.645000  -18.388700
  H    -129.455000   27.943600  -19.610700
  H    -131.721000   23.613900  -12.268800
  H    -131.430000   31.726100  -13.540900

 Total Charge           Charge          ....    0
 Multiplicity           Mult            ....    1
 Number of Electrons    NEL             ....  134
 Basis Dimension        Dim             ....  322

ORBITAL ENERGIES
----------------

  NO   OCC          E(Eh)            E(eV)
   0   2.0000     -88.971928     -2421.0492
   1   2.0000     -88.952496     -2420.5205
   2   2.0000     -10.329013      -281.0667
   3   2.0000     -10.322443      -280.8880
   4   2.0000     -10.318247      -280.7738
   5   2.0000     -10.307241      -280.4743
   6   2.0000     -10.306505      -280.4543
   7   2.0000     -10.300674      -280.2956
   8   2.0000     -10.293775      -280.1078
   9   2.0000     -10.290948      -280.0309
  10   2.0000     -10.289865      -280.0015
  11   2.0000     -10.289617      -279.9947
  12   2.0000     -10.289584      -279.9938
  13   2.0000     -10.284617      -279.8587
  14   2.0000     -10.278451      -279.6909
  15   2.0000     -10.275310      -279.6054
  16   2.0000      -8.085838      -220.0268
  17   2.0000      -8.068457      -219.5539
  18   2.0000      -6.044164      -164.4701
  19   2.0000      -6.040611      -164.3734
  20   2.0000      -6.036689      -164.2667
  21   2.0000      -6.027153      -164.0072
  22   2.0000      -6.022741      -163.8871
  23   2.0000      -6.018976      -163.7847
  24   2.0000      -1.005624       -27.3644
  25   2.0000      -0.982794       -26.7432
  26   2.0000      -0.917878       -24.9767
  27   2.0000      -0.904680       -24.6176
  28   2.0000      -0.872611       -23.7450
  29   2.0000      -0.851210       -23.1626
  30   2.0000      -0.837587       -22.7919
  31   2.0000      -0.813339       -22.1321
  32   2.0000      -0.788066       -21.4444
  33   2.0000      -0.770462       -20.9653
  34   2.0000      -0.710666       -19.3382
  35   2.0000      -0.695225       -18.9180
  36   2.0000      -0.693516       -18.8715
  37   2.0000      -0.652741       -17.7620
  38   2.0000      -0.638778       -17.3820
  39   2.0000      -0.628783       -17.1101
  40   2.0000      -0.596103       -16.2208
  41   2.0000      -0.572716       -15.5844
  42   2.0000      -0.566663       -15.4197
  43   2.0000      -0.558163       -15.1884
  44   2.0000      -0.546264       -14.8646
  45   2.0000      -0.522496       -14.2178
  46   2.0000      -0.519428       -14.1344
  47   2.0000      -0.514649       -14.0043
  48   2.0000      -0.502221       -13.6661
  49   2.0000      -0.489659       -13.3243
  50   2.0000      -0.485114       -13.2006
  51   2.0000      -0.477474       -12.9927
  52   2.0000      -0.470080       -12.7915
  53   2.0000      -0.463680       -12.6174
  54   2.0000      -0.459798       -12.5117
  55   2.0000      -0.452548       -12.3144
  56   2.0000      -0.446401       -12.1472
  57   2.0000      -0.441953       -12.0262
  58   2.0000      -0.433468       -11.7953
  59   2.0000      -0.432511       -11.7692
  60   2.0000      -0.415491       -11.3061
  61   2.0000      -0.414273       -11.2730
  62   2.0000      -0.407675       -11.0934
  63   2.0000      -0.339561        -9.2399
  64   2.0000      -0.335356        -9.1255
  65   2.0000      -0.318518        -8.6673
  66   2.0000      -0.300847        -8.1865
  67   0.0000       0.036221         0.9856
  68   0.0000       0.068283         1.8581
  69   0.0000       0.104547         2.8449
  70   0.0000       0.117930         3.2090
  71   0.0000       0.132167         3.5964

MULLIKEN ATOMIC CHARGES
-----------------------
   0 S :    0.126878
   1 C :   -0.140735
   2 C :   -0.099897
   3 C :    0.066569
   4 C :   -0.188302
   5 H :   -0.025551
   6 C :    0.099586
   7 H :    0.031843
   8 H :    0.003762
   9 C :   -0.086498
  10 H :    0.034818
  11 H :    0.041754
  12 C :   -0.028964
  13 H :    0.022370
  14 H :    0.037509
  15 H :    0.050294
  16 S :    0.081838
  17 C :   -0.075031
  18 C :   -0.019229
  19 C :   -0.022524
  20 C :   -0.137631
  21 H :    0.018271
  22 C :    0.044133
  23 H :    0.032565
  24 H :    0.023943
  25 C :   -0.091328
  26 H :    0.022426
  27 H :    0.039379
  28 C :   -0.040370
  29 H :    0.020812
  30 H :    0.033054
  31 H :    0.036416
  32 H :    0.040716
  33 H :    0.047123
Sum of atomic charges:   -0.0000000

LOEWDIN ATOMIC CHARGES
----------------------
   0 S :    0.405517
   1 C :   -0.179461
   2 C :   -0.058622
   3 C :   -0.050756
   4 C :   -0.203467
   5 H :    0.016779
   6 C :   -0.018704
   7 H :    0.032380
   8 H :    0.021089
   9 C :   -0.038395
  10 H :    0.030835
  11 H :    0.023951
  12 C :   -0.061775
  13 H :    0.025923
  14 H :    0.030623
  15 H :    0.027114
  16 S :    0.387035
  17 C :   -0.176312
  18 C :   -0.077820
  19 C :   -0.047169
  20 C :   -0.202070
  21 H :    0.031694
  22 C :   -0.035317
  23 H :    0.032888
  24 H :    0.027234
  25 C :   -0.042174
  26 H :    0.019531
  27 H :    0.024760
  28 C :   -0.064695
  29 H :    0.020049
  30 H :    0.027490
  31 H :    0.026901
  32 H :    0.019947
  33 H :    0.024996

  Mayer bond orders larger than 0.100000
B(  0-S ,  1-C ) :   1.1367 B(  0-S ,  4-C ) :   1.1694 B(  1-C ,  2-C ) :   1.5983
B(  1-C ,  4-C ) :   0.1066 B(  1-C , 32-H ) :   0.9633 B(  2-C ,  3-C ) :   1.2661
B(  2-C ,  6-C ) :   1.0033 B(  3-C ,  4-C ) :   1.5486 B(  3-C ,  5-H ) :   1.0041
B(  4-C , 20-C ) :   1.0305 B(  6-C ,  7-H ) :   0.9392 B(  6-C ,  8-H ) :   0.9392
B(  6-C ,  9-C ) :   1.0667 B(  9-C , 10-H ) :   0.9555 B(  9-C , 11-H ) :   0.9573
B(  9-C , 12-C ) :   1.0778 B( 12-C , 13-H ) :   0.9717 B( 12-C , 14-H ) :   0.9727
B( 12-C , 15-H ) :   0.9733 B( 16-S , 17-C ) :   1.1447 B( 16-S , 20-C ) :   1.1129
B( 17-C , 18-C ) :   1.6615 B( 17-C , 33-H ) :   0.9713 B( 18-C , 19-C ) :   1.1617
B( 18-C , 21-H ) :   0.9954 B( 19-C , 20-C ) :   1.6506 B( 19-C , 22-C ) :   1.0573
B( 22-C , 23-H ) :   0.9360 B( 22-C , 24-H ) :   0.9393 B( 22-C , 25-C ) :   1.0484
B( 25-C , 26-H ) :   0.9603 B( 25-C , 27-H ) :   0.9561 B( 25-C , 28-C ) :   1.0795
B( 28-C , 29-H ) :   0.9752 B( 28-C , 30-H ) :   0.9754 B( 28-C , 31-H ) :   0.9757

Dispersion correction           -0.014240568
FINAL SINGLE POINT ENERGY     -1339.875568363869

DIPOLE MOMENT
-------------
                                X             Y             Z
Electronic contribution:    -15.80265      11.55319      14.85218
Nuclear contribution   :     16.13203     -11.85374     -15.30626
                        -----------------------------------------
Total Dipole Moment    :      0.32939      -0.30055      -0.45408
                        -----------------------------------------
Magnitude (a.u.)       :      0.63641
Magnitude (Debye)      :      1.61762

Rotational constants in cm-1:     0.017222     0.008699     0.007060
Rotational constants in MHz :   516.291055   260.781654   211.661447

                             ****ORCA TERMINATED NORMALLY****
TOTAL RUN TIME: 0 days 0 hours 0 minutes 21 seconds 494 msec
