                         Program Version 4.2.1 -  RELEASE  -
|  1> ! wB97X-D3 SP def2-SVP
|  2> %pal
|  3> nprocs 24
|  4> end
|  5>
|  6> * xyz 0 1
|  7> S 	 -37.627 	 4.3541 	 -2.41891
|  8> C 	 -39.3765 	 4.244 	 -2.66352
|  9> C 	 -40.0877 	 4.77024 	 -1.59577
| 10> C 	 -39.2344 	 5.36147 	 -0.629975
| 11> C 	 -37.8843 	 5.34559 	 -0.953896
| 12> H 	 -39.4685 	 5.93849 	 0.34577
| 13> C 	 -41.618 	 4.72928 	 -1.3797
| 14> H 	 -41.936 	 4.15703 	 -2.26964
| 15> H 	 -41.9684 	 5.74198 	 -1.47339
| 16> C 	 -42.1079 	 4.05716 	 -0.00994376
| 17> H 	 -41.7679 	 4.48004 	 1.02857
| 18> H 	 -43.1615 	 4.23524 	 -0.056568
| 19> C 	 -41.7944 	 2.55513 	 0.173934
| 20> H 	 -42.4013 	 2.24118 	 1.05524
| 21> H 	 -41.8867 	 1.90761 	 -0.72487
| 22> H 	 -40.6954 	 2.52119 	 0.527502
| 23> S 	 -35.3947 	 4.98692 	 0.333711
| 24> C 	 -34.6656 	 6.23786 	 1.23496
| 25> C 	 -35.4864 	 7.35507 	 1.1835
| 26> C 	 -36.6639 	 7.24089 	 0.324727
| 27> C 	 -36.7485 	 5.952 	 -0.146461
| 28> H 	 -35.2442 	 8.27795 	 1.65377
| 29> C 	 -37.6539 	 8.38462 	 0.0719457
| 30> H 	 -38.3982 	 8.03115 	 -0.559164
| 31> H 	 -37.0202 	 9.0677 	 -0.452267
| 32> C 	 -38.3202 	 9.05053 	 1.35563
| 33> H 	 -38.7939 	 9.966 	 0.988611
| 34> H 	 -37.5946 	 9.31872 	 2.08703
| 35> C 	 -39.3612 	 8.13367 	 2.09103
| 36> H 	 -39.0778 	 7.08807 	 2.33243
| 37> H 	 -40.2581 	 8.00011 	 1.49206
| 38> H 	 -39.5275 	 8.54569 	 3.06381
| 39> H 	 -39.9525 	 3.6629 	 -3.43709
| 40> H 	 -33.9731 	 5.9686 	 1.97318
| 41> *
| 42>
| 43>                          ****END OF INPUT****

CARTESIAN COORDINATES (ANGSTROEM)
---------------------------------
  S    -37.627000    4.354100   -2.418910
  C    -39.376500    4.244000   -2.663520
  C    -40.087700    4.770240   -1.595770
  C    -39.234400    5.361470   -0.629975
  C    -37.884300    5.345590   -0.953896
  H    -39.468500    5.938490    0.345770
  C    -41.618000    4.729280   -1.379700
  H    -41.936000    4.157030   -2.269640
  H    -41.968400    5.741980   -1.473390
  C    -42.107900    4.057160   -0.009944
  H    -41.767900    4.480040    1.028570
  H    -43.161500    4.235240   -0.056568
  C    -41.794400    2.555130    0.173934
  H    -42.401300    2.241180    1.055240
  H    -41.886700    1.907610   -0.724870
  H    -40.695400    2.521190    0.527502
  S    -35.394700    4.986920    0.333711
  C    -34.665600    6.237860    1.234960
  C    -35.486400    7.355070    1.183500
  C    -36.663900    7.240890    0.324727
  C    -36.748500    5.952000   -0.146461
  H    -35.244200    8.277950    1.653770
  C    -37.653900    8.384620    0.071946
  H    -38.398200    8.031150   -0.559164
  H    -37.020200    9.067700   -0.452267
  C    -38.320200    9.050530    1.355630
  H    -38.793900    9.966000    0.988611
  H    -37.594600    9.318720    2.087030
  C    -39.361200    8.133670    2.091030
  H    -39.077800    7.088070    2.332430
  H    -40.258100    8.000110    1.492060
  H    -39.527500    8.545690    3.063810
  H    -39.952500    3.662900   -3.437090
  H    -33.973100    5.968600    1.973180

 Total Charge           Charge          ....    0
 Multiplicity           Mult            ....    1
 Number of Electrons    NEL             ....  134
 Basis Dimension        Dim             ....  322

ORBITAL ENERGIES
----------------

  NO   OCC          E(Eh)            E(eV)
   0   2.0000     -88.967856     -2420.9384
   1   2.0000     -88.961938     -2420.7774
   2   2.0000     -10.335023      -281.2303
   3   2.0000     -10.327720      -281.0316
   4   2.0000     -10.319305      -280.8026
   5   2.0000     -10.312923      -280.6289
   6   2.0000     -10.304191      -280.3913
   7   2.0000     -10.302764      -280.3525
   8   2.0000     -10.301476      -280.3174
   9   2.0000     -10.301134      -280.3081
  10   2.0000     -10.298219      -280.2288
  11   2.0000     -10.296097      -280.1710
  12   2.0000     -10.295702      -280.1603
  13   2.0000     -10.290409      -280.0163
  14   2.0000     -10.288571      -279.9662
  15   2.0000     -10.282983      -279.8142
  16   2.0000      -8.081342      -219.9045
  17   2.0000      -8.078185      -219.8186
  18   2.0000      -6.039970      -164.3559
  19   2.0000      -6.036605      -164.2644
  20   2.0000      -6.036138      -164.2517
  21   2.0000      -6.032344      -164.1484
  22   2.0000      -6.031931      -164.1372
  23   2.0000      -6.029080      -164.0596
  24   2.0000      -1.004612       -27.3369
  25   2.0000      -0.981913       -26.7192
  26   2.0000      -0.904624       -24.6161
  27   2.0000      -0.898864       -24.4593
  28   2.0000      -0.862376       -23.4664
  29   2.0000      -0.848471       -23.0881
  30   2.0000      -0.840445       -22.8697
  31   2.0000      -0.812488       -22.1089
  32   2.0000      -0.786448       -21.4003
  33   2.0000      -0.772705       -21.0264
  34   2.0000      -0.711734       -19.3673
  35   2.0000      -0.696854       -18.9624
  36   2.0000      -0.687995       -18.7213
  37   2.0000      -0.659135       -17.9360
  38   2.0000      -0.630703       -17.1623
  39   2.0000      -0.612973       -16.6798
  40   2.0000      -0.599566       -16.3150
  41   2.0000      -0.560718       -15.2579
  42   2.0000      -0.552867       -15.0443
  43   2.0000      -0.548911       -14.9366
  44   2.0000      -0.538945       -14.6654
  45   2.0000      -0.528697       -14.3866
  46   2.0000      -0.527110       -14.3434
  47   2.0000      -0.516809       -14.0631
  48   2.0000      -0.499377       -13.5887
  49   2.0000      -0.489991       -13.3333
  50   2.0000      -0.484391       -13.1809
  51   2.0000      -0.477105       -12.9827
  52   2.0000      -0.470015       -12.7897
  53   2.0000      -0.464811       -12.6482
  54   2.0000      -0.452966       -12.3258
  55   2.0000      -0.445924       -12.1342
  56   2.0000      -0.442688       -12.0462
  57   2.0000      -0.436183       -11.8691
  58   2.0000      -0.432336       -11.7645
  59   2.0000      -0.430222       -11.7069
  60   2.0000      -0.428630       -11.6636
  61   2.0000      -0.415882       -11.3167
  62   2.0000      -0.406920       -11.0728
  63   2.0000      -0.346740        -9.4353
  64   2.0000      -0.330712        -8.9991
  65   2.0000      -0.327327        -8.9070
  66   2.0000      -0.295736        -8.0474
  67   0.0000       0.035125         0.9558
  68   0.0000       0.068080         1.8526
  69   0.0000       0.111856         3.0438
  70   0.0000       0.123950         3.3728
  71   0.0000       0.126010         3.4289

MULLIKEN ATOMIC CHARGES
-----------------------
   0 S :    0.107330
   1 C :   -0.131439
   2 C :   -0.116598
   3 C :    0.013491
   4 C :   -0.168568
   5 H :    0.020438
   6 C :    0.092002
   7 H :    0.017928
   8 H :    0.041612
   9 C :   -0.108448
  10 H :    0.048957
  11 H :    0.031999
  12 C :   -0.090011
  13 H :    0.045721
  14 H :    0.046635
  15 H :    0.053809
  16 S :    0.102367
  17 C :   -0.069503
  18 C :   -0.035457
  19 C :   -0.080804
  20 C :   -0.161286
  21 H :    0.008106
  22 C :    0.115863
  23 H :    0.011203
  24 H :    0.033322
  25 C :   -0.057794
  26 H :    0.039360
  27 H :    0.025305
  28 C :   -0.072751
  29 H :    0.046629
  30 H :    0.039093
  31 H :    0.031464
  32 H :    0.060891
  33 H :    0.059133
Sum of atomic charges:   -0.0000000

LOEWDIN ATOMIC CHARGES
----------------------
   0 S :    0.381264
   1 C :   -0.208470
   2 C :   -0.073600
   3 C :   -0.079001
   4 C :   -0.178121
   5 H :    0.045945
   6 C :   -0.024585
   7 H :    0.031959
   8 H :    0.031531
   9 C :   -0.049545
  10 H :    0.038717
  11 H :    0.017692
  12 C :   -0.078073
  13 H :    0.032589
  14 H :    0.025379
  15 H :    0.037818
  16 S :    0.427013
  17 C :   -0.195315
  18 C :   -0.064629
  19 C :   -0.056399
  20 C :   -0.208667
  21 H :    0.021222
  22 C :   -0.019313
  23 H :    0.020366
  24 H :    0.034266
  25 C :   -0.026797
  26 H :    0.029260
  27 H :    0.017733
  28 C :   -0.071294
  29 H :    0.028524
  30 H :    0.023078
  31 H :    0.026213
  32 H :    0.040328
  33 H :    0.022911

  Mayer bond orders larger than 0.100000
B(  0-S ,  1-C ) :   1.1259 B(  0-S ,  4-C ) :   1.1408 B(  1-C ,  2-C ) :   1.6395
B(  1-C , 32-H ) :   0.9513 B(  2-C ,  3-C ) :   1.2238 B(  2-C ,  6-C ) :   1.0094
B(  3-C ,  4-C ) :   1.6041 B(  3-C ,  5-H ) :   0.9701 B(  4-C , 20-C ) :   0.9995
B(  6-C ,  7-H ) :   0.9398 B(  6-C ,  8-H ) :   0.9422 B(  6-C ,  9-C ) :   1.0539
B(  9-C , 10-H ) :   0.9581 B(  9-C , 11-H ) :   0.9610 B(  9-C , 12-C ) :   1.0618
B( 12-C , 13-H ) :   0.9728 B( 12-C , 14-H ) :   0.9772 B( 12-C , 15-H ) :   0.9758
B( 16-S , 17-C ) :   1.1661 B( 16-S , 20-C ) :   1.1631 B( 17-C , 18-C ) :   1.5858
B( 17-C , 33-H ) :   0.9735 B( 18-C , 19-C ) :   1.2489 B( 18-C , 21-H ) :   0.9915
B( 19-C , 20-C ) :   1.5949 B( 19-C , 22-C ) :   1.0312 B( 22-C , 23-H ) :   0.9328
B( 22-C , 24-H ) :   0.9282 B( 22-C , 25-C ) :   1.0669 B( 25-C , 26-H ) :   0.9567
B( 25-C , 27-H ) :   0.9633 B( 25-C , 28-C ) :   1.0695 B( 28-C , 29-H ) :   0.9685
B( 28-C , 30-H ) :   0.9732 B( 28-C , 31-H ) :   0.9703

Dispersion correction           -0.015234829
FINAL SINGLE POINT ENERGY     -1339.863828015561

DIPOLE MOMENT
-------------
                                X             Y             Z
Electronic contribution:     23.99602      -6.87402     -11.43289
Nuclear contribution   :    -24.58820       7.27685      11.90825
                        -----------------------------------------
Total Dipole Moment    :     -0.59218       0.40283       0.47536
                        -----------------------------------------
Magnitude (a.u.)       :      0.85960
Magnitude (Debye)      :      2.18492

Rotational constants in cm-1:     0.017838     0.009381     0.007391
Rotational constants in MHz :   534.762560   281.226573   221.590386

                             ****ORCA TERMINATED NORMALLY****
TOTAL RUN TIME: 0 days 0 hours 0 minutes 22 seconds 134 msec
