                         Program Version 4.2.1 -  RELEASE  -
|  1> ! wB97X-D3 SP def2-SVP
|  2> %pal
|  3> nprocs 24
|  4> end
|  5>
|  6> * xyz 0 1
|  7> S 	 -123.277 	 35.977 	 -110.825
|  8> C 	 -124.162 	 34.9596 	 -111.84
|  9> C 	 -125.538 	 35.1899 	 -111.795
| 10> C 	 -125.837 	 36.1565 	 -110.813
| 11> C 	 -124.736 	 36.7538 	 -110.256
| 12> H 	 -126.8 	 36.5049 	 -110.578
| 13> C 	 -126.543 	 34.4444 	 -112.622
| 14> H 	 -127.501 	 34.244 	 -112.096
| 15> H 	 -126.224 	 33.4322 	 -112.693
| 16> C 	 -126.816 	 35.0485 	 -114.059
| 17> H 	 -126.969 	 36.1987 	 -114.092
| 18> H 	 -125.89 	 34.8888 	 -114.644
| 19> C 	 -127.871 	 34.3413 	 -114.975
| 20> H 	 -128.843 	 34.3946 	 -114.457
| 21> H 	 -127.907 	 34.8225 	 -115.931
| 22> H 	 -127.608 	 33.3349 	 -115.266
| 23> S 	 -123.697 	 37.9347 	 -108.025
| 24> C 	 -124.225 	 39.4849 	 -107.562
| 25> C 	 -125.049 	 40.1362 	 -108.526
| 26> C 	 -125.397 	 39.1873 	 -109.56
| 27> C 	 -124.784 	 37.9592 	 -109.43
| 28> H 	 -125.356 	 41.2306 	 -108.318
| 29> C 	 -126.224 	 39.6628 	 -110.689
| 30> H 	 -127.011 	 40.1949 	 -110.331
| 31> H 	 -126.595 	 38.6651 	 -110.945
| 32> C 	 -125.549 	 40.3752 	 -111.912
| 33> H 	 -124.648 	 39.8256 	 -112.109
| 34> H 	 -125.164 	 41.3146 	 -111.599
| 35> C 	 -126.435 	 40.4004 	 -113.18
| 36> H 	 -126.997 	 39.4435 	 -113.317
| 37> H 	 -125.935 	 40.605 	 -114.118
| 38> H 	 -127.197 	 41.1702 	 -113.044
| 39> H 	 -123.681 	 34.1482 	 -112.418
| 40> H 	 -123.833 	 40.145 	 -106.774
| 41> *
| 42>
| 43>                          ****END OF INPUT****

CARTESIAN COORDINATES (ANGSTROEM)
---------------------------------
  S    -123.277000   35.977000  -110.825000
  C    -124.162000   34.959600  -111.840000
  C    -125.538000   35.189900  -111.795000
  C    -125.837000   36.156500  -110.813000
  C    -124.736000   36.753800  -110.256000
  H    -126.800000   36.504900  -110.578000
  C    -126.543000   34.444400  -112.622000
  H    -127.501000   34.244000  -112.096000
  H    -126.224000   33.432200  -112.693000
  C    -126.816000   35.048500  -114.059000
  H    -126.969000   36.198700  -114.092000
  H    -125.890000   34.888800  -114.644000
  C    -127.871000   34.341300  -114.975000
  H    -128.843000   34.394600  -114.457000
  H    -127.907000   34.822500  -115.931000
  H    -127.608000   33.334900  -115.266000
  S    -123.697000   37.934700  -108.025000
  C    -124.225000   39.484900  -107.562000
  C    -125.049000   40.136200  -108.526000
  C    -125.397000   39.187300  -109.560000
  C    -124.784000   37.959200  -109.430000
  H    -125.356000   41.230600  -108.318000
  C    -126.224000   39.662800  -110.689000
  H    -127.011000   40.194900  -110.331000
  H    -126.595000   38.665100  -110.945000
  C    -125.549000   40.375200  -111.912000
  H    -124.648000   39.825600  -112.109000
  H    -125.164000   41.314600  -111.599000
  C    -126.435000   40.400400  -113.180000
  H    -126.997000   39.443500  -113.317000
  H    -125.935000   40.605000  -114.118000
  H    -127.197000   41.170200  -113.044000
  H    -123.681000   34.148200  -112.418000
  H    -123.833000   40.145000  -106.774000

 Total Charge           Charge          ....    0
 Multiplicity           Mult            ....    1
 Number of Electrons    NEL             ....  134
 Basis Dimension        Dim             ....  322

ORBITAL ENERGIES
----------------

  NO   OCC          E(Eh)            E(eV)
   0   2.0000     -88.968750     -2420.9628
   1   2.0000     -88.966968     -2420.9143
   2   2.0000     -10.326470      -280.9975
   3   2.0000     -10.326016      -280.9852
   4   2.0000     -10.317511      -280.7537
   5   2.0000     -10.313563      -280.6463
   6   2.0000     -10.303833      -280.3815
   7   2.0000     -10.301884      -280.3285
   8   2.0000     -10.300007      -280.2775
   9   2.0000     -10.299832      -280.2727
  10   2.0000     -10.295253      -280.1481
  11   2.0000     -10.286994      -279.9233
  12   2.0000     -10.283656      -279.8325
  13   2.0000     -10.280606      -279.7495
  14   2.0000     -10.280255      -279.7400
  15   2.0000     -10.277912      -279.6762
  16   2.0000      -8.084572      -219.9924
  17   2.0000      -8.082062      -219.9241
  18   2.0000      -6.042930      -164.4365
  19   2.0000      -6.040427      -164.3684
  20   2.0000      -6.038817      -164.3246
  21   2.0000      -6.036531      -164.2624
  22   2.0000      -6.035553      -164.2357
  23   2.0000      -6.032960      -164.1652
  24   2.0000      -1.011896       -27.5351
  25   2.0000      -0.987765       -26.8785
  26   2.0000      -0.908623       -24.7249
  27   2.0000      -0.903033       -24.5728
  28   2.0000      -0.867682       -23.6108
  29   2.0000      -0.855010       -23.2660
  30   2.0000      -0.849849       -23.1256
  31   2.0000      -0.813299       -22.1310
  32   2.0000      -0.783212       -21.3123
  33   2.0000      -0.769009       -20.9258
  34   2.0000      -0.711876       -19.3711
  35   2.0000      -0.697007       -18.9665
  36   2.0000      -0.692356       -18.8400
  37   2.0000      -0.663539       -18.0558
  38   2.0000      -0.644600       -17.5404
  39   2.0000      -0.623007       -16.9529
  40   2.0000      -0.587111       -15.9761
  41   2.0000      -0.568114       -15.4592
  42   2.0000      -0.559337       -15.2203
  43   2.0000      -0.549503       -14.9527
  44   2.0000      -0.523242       -14.2381
  45   2.0000      -0.520456       -14.1623
  46   2.0000      -0.519799       -14.1445
  47   2.0000      -0.510803       -13.8997
  48   2.0000      -0.502646       -13.6777
  49   2.0000      -0.499538       -13.5931
  50   2.0000      -0.491123       -13.3641
  51   2.0000      -0.487639       -13.2693
  52   2.0000      -0.476793       -12.9742
  53   2.0000      -0.465156       -12.6575
  54   2.0000      -0.461909       -12.5692
  55   2.0000      -0.448316       -12.1993
  56   2.0000      -0.440512       -11.9869
  57   2.0000      -0.435861       -11.8604
  58   2.0000      -0.432321       -11.7641
  59   2.0000      -0.430470       -11.7137
  60   2.0000      -0.420168       -11.4334
  61   2.0000      -0.412181       -11.2160
  62   2.0000      -0.408557       -11.1174
  63   2.0000      -0.348920        -9.4946
  64   2.0000      -0.333204        -9.0670
  65   2.0000      -0.329560        -8.9678
  66   2.0000      -0.287970        -7.8361
  67   0.0000       0.030265         0.8236
  68   0.0000       0.069152         1.8817
  69   0.0000       0.114393         3.1128
  70   0.0000       0.118577         3.2266
  71   0.0000       0.129112         3.5133

MULLIKEN ATOMIC CHARGES
-----------------------
   0 S :    0.132489
   1 C :   -0.132520
   2 C :   -0.077684
   3 C :    0.041645
   4 C :   -0.138744
   5 H :    0.000494
   6 C :    0.084722
   7 H :    0.021453
   8 H :    0.009543
   9 C :   -0.126217
  10 H :    0.052191
  11 H :    0.026458
  12 C :   -0.037061
  13 H :    0.039652
  14 H :    0.030420
  15 H :    0.027254
  16 S :    0.112128
  17 C :   -0.087320
  18 C :   -0.098903
  19 C :   -0.069129
  20 C :   -0.167939
  21 H :    0.058488
  22 C :    0.126007
  23 H :   -0.003990
  24 H :   -0.015972
  25 C :   -0.011323
  26 H :    0.021233
  27 H :    0.013482
  28 C :   -0.053437
  29 H :    0.036143
  30 H :    0.038393
  31 H :    0.026995
  32 H :    0.060091
  33 H :    0.060955
Sum of atomic charges:   -0.0000000

LOEWDIN ATOMIC CHARGES
----------------------
   0 S :    0.435329
   1 C :   -0.216189
   2 C :   -0.065498
   3 C :   -0.054271
   4 C :   -0.202810
   5 H :    0.023430
   6 C :   -0.037919
   7 H :    0.032016
   8 H :    0.027878
   9 C :   -0.048942
  10 H :    0.033921
  11 H :    0.023817
  12 C :   -0.067269
  13 H :    0.025686
  14 H :    0.026635
  15 H :    0.022810
  16 S :    0.416820
  17 C :   -0.206337
  18 C :   -0.086649
  19 C :   -0.051488
  20 C :   -0.194921
  21 H :    0.050027
  22 C :   -0.027878
  23 H :    0.013802
  24 H :    0.031221
  25 C :   -0.027976
  26 H :    0.024541
  27 H :    0.017973
  28 C :   -0.066046
  29 H :    0.030526
  30 H :    0.026235
  31 H :    0.024055
  32 H :    0.033933
  33 H :    0.033537

  Mayer bond orders larger than 0.100000
B(  0-S ,  1-C ) :   1.1685 B(  0-S ,  4-C ) :   1.1549 B(  1-C ,  2-C ) :   1.5700
B(  1-C , 32-H ) :   0.9630 B(  2-C ,  3-C ) :   1.2766 B(  2-C ,  6-C ) :   1.0314
B(  3-C ,  4-C ) :   1.5515 B(  3-C ,  5-H ) :   0.9987 B(  4-C , 20-C ) :   1.0376
B(  6-C ,  7-H ) :   0.9449 B(  6-C ,  8-H ) :   0.9336 B(  6-C ,  9-C ) :   1.0389
B(  9-C , 10-H ) :   0.9619 B(  9-C , 11-H ) :   0.9568 B(  9-C , 12-C ) :   1.0783
B( 12-C , 13-H ) :   0.9775 B( 12-C , 14-H ) :   0.9731 B( 12-C , 15-H ) :   0.9751
B( 16-S , 17-C ) :   1.1823 B( 16-S , 20-C ) :   1.1232 B( 17-C , 18-C ) :   1.6100
B( 17-C , 33-H ) :   0.9588 B( 18-C , 19-C ) :   1.2283 B( 18-C , 21-H ) :   0.9763
B( 19-C , 20-C ) :   1.6051 B( 19-C , 22-C ) :   1.0423 B( 22-C , 23-H ) :   0.9180
B( 22-C , 24-H ) :   0.9203 B( 22-C , 25-C ) :   1.0557 B( 25-C , 26-H ) :   0.9553
B( 25-C , 27-H ) :   0.9546 B( 25-C , 28-C ) :   1.0715 B( 28-C , 29-H ) :   0.9771
B( 28-C , 30-H ) :   0.9766 B( 28-C , 31-H ) :   0.9769

Dispersion correction           -0.014146491
FINAL SINGLE POINT ENERGY     -1339.862196435240

DIPOLE MOMENT
-------------
                                X             Y             Z
Electronic contribution:     19.89902      -2.57328      25.33730
Nuclear contribution   :    -20.23743       2.72270     -25.80560
                        -----------------------------------------
Total Dipole Moment    :     -0.33841       0.14942      -0.46830
                        -----------------------------------------
Magnitude (a.u.)       :      0.59679
Magnitude (Debye)      :      1.51691

Rotational constants in cm-1:     0.018838     0.008733     0.006602
Rotational constants in MHz :   564.738476   261.814684   197.917823

                             ****ORCA TERMINATED NORMALLY****
TOTAL RUN TIME: 0 days 0 hours 0 minutes 21 seconds 553 msec
