                         Program Version 4.2.1 -  RELEASE  -
|  1> ! wB97X-D3 SP def2-SVP
|  2> %pal
|  3> nprocs 24
|  4> end
|  5>
|  6> * xyz 0 1
|  7> S 	 -43.7351 	 -4.18136 	 18.1064
|  8> C 	 -44.5183 	 -3.71817 	 16.6303
|  9> C 	 -45.3681 	 -2.55754 	 16.748
| 10> C 	 -45.2914 	 -2.05239 	 18.1046
| 11> C 	 -44.4777 	 -2.78076 	 18.9926
| 12> H 	 -45.8146 	 -1.13104 	 18.4908
| 13> C 	 -46.2131 	 -1.96257 	 15.6415
| 14> H 	 -46.3354 	 -2.77133 	 14.8831
| 15> H 	 -45.571 	 -1.30804 	 15.0678
| 16> C 	 -47.4403 	 -1.21578 	 15.9574
| 17> H 	 -47.9316 	 -1.71194 	 16.8507
| 18> H 	 -47.184 	 -0.288001 	 16.4273
| 19> C 	 -48.3849 	 -0.893202 	 14.7866
| 20> H 	 -47.8581 	 -0.439528 	 13.945
| 21> H 	 -49.0312 	 -1.69883 	 14.4065
| 22> H 	 -49.0571 	 -0.112151 	 15.1398
| 23> S 	 -44.1898 	 -3.48882 	 21.7892
| 24> C 	 -43.0388 	 -2.53953 	 22.711
| 25> C 	 -42.3054 	 -1.68498 	 21.9119
| 26> C 	 -42.8581 	 -1.55228 	 20.5501
| 27> C 	 -43.9217 	 -2.42589 	 20.2849
| 28> H 	 -41.4918 	 -1.02433 	 22.3606
| 29> C 	 -42.1802 	 -0.613296 	 19.5004
| 30> H 	 -42.5128 	 0.469893 	 19.6112
| 31> H 	 -42.448 	 -1.02527 	 18.5447
| 32> C 	 -40.6307 	 -0.604543 	 19.4351
| 33> H 	 -40.2745 	 -1.63272 	 19.6409
| 34> H 	 -40.1554 	 -0.0290442 	 20.257
| 35> C 	 -40.2059 	 -0.0177925 	 18.1187
| 36> H 	 -40.7534 	 0.876914 	 17.8592
| 37> H 	 -40.2023 	 -0.647314 	 17.2579
| 38> H 	 -39.2013 	 0.317148 	 18.1881
| 39> H 	 -44.4584 	 -4.40111 	 15.7652
| 40> H 	 -42.6602 	 -2.72659 	 23.7196
| 41> *
| 42>
| 43>                          ****END OF INPUT****

CARTESIAN COORDINATES (ANGSTROEM)
---------------------------------
  S    -43.735100   -4.181360   18.106400
  C    -44.518300   -3.718170   16.630300
  C    -45.368100   -2.557540   16.748000
  C    -45.291400   -2.052390   18.104600
  C    -44.477700   -2.780760   18.992600
  H    -45.814600   -1.131040   18.490800
  C    -46.213100   -1.962570   15.641500
  H    -46.335400   -2.771330   14.883100
  H    -45.571000   -1.308040   15.067800
  C    -47.440300   -1.215780   15.957400
  H    -47.931600   -1.711940   16.850700
  H    -47.184000   -0.288001   16.427300
  C    -48.384900   -0.893202   14.786600
  H    -47.858100   -0.439528   13.945000
  H    -49.031200   -1.698830   14.406500
  H    -49.057100   -0.112151   15.139800
  S    -44.189800   -3.488820   21.789200
  C    -43.038800   -2.539530   22.711000
  C    -42.305400   -1.684980   21.911900
  C    -42.858100   -1.552280   20.550100
  C    -43.921700   -2.425890   20.284900
  H    -41.491800   -1.024330   22.360600
  C    -42.180200   -0.613296   19.500400
  H    -42.512800    0.469893   19.611200
  H    -42.448000   -1.025270   18.544700
  C    -40.630700   -0.604543   19.435100
  H    -40.274500   -1.632720   19.640900
  H    -40.155400   -0.029044   20.257000
  C    -40.205900   -0.017792   18.118700
  H    -40.753400    0.876914   17.859200
  H    -40.202300   -0.647314   17.257900
  H    -39.201300    0.317148   18.188100
  H    -44.458400   -4.401110   15.765200
  H    -42.660200   -2.726590   23.719600

 Total Charge           Charge          ....    0
 Multiplicity           Mult            ....    1
 Number of Electrons    NEL             ....  134
 Basis Dimension        Dim             ....  322

ORBITAL ENERGIES
----------------

  NO   OCC          E(Eh)            E(eV)
   0   2.0000     -88.967108     -2420.9181
   1   2.0000     -88.964083     -2420.8358
   2   2.0000     -10.334877      -281.2263
   3   2.0000     -10.334458      -281.2149
   4   2.0000     -10.323980      -280.9298
   5   2.0000     -10.321857      -280.8720
   6   2.0000     -10.314108      -280.6612
   7   2.0000     -10.313729      -280.6508
   8   2.0000     -10.308311      -280.5034
   9   2.0000     -10.301619      -280.3213
  10   2.0000     -10.295562      -280.1565
  11   2.0000     -10.292426      -280.0711
  12   2.0000     -10.289226      -279.9841
  13   2.0000     -10.288317      -279.9593
  14   2.0000     -10.284487      -279.8551
  15   2.0000     -10.268928      -279.4317
  16   2.0000      -8.081002      -219.8952
  17   2.0000      -8.077268      -219.7936
  18   2.0000      -6.039456      -164.3419
  19   2.0000      -6.036011      -164.2482
  20   2.0000      -6.035506      -164.2345
  21   2.0000      -6.032101      -164.1418
  22   2.0000      -6.031977      -164.1384
  23   2.0000      -6.027737      -164.0231
  24   2.0000      -0.990320       -26.9480
  25   2.0000      -0.968969       -26.3670
  26   2.0000      -0.916891       -24.9499
  27   2.0000      -0.905676       -24.6447
  28   2.0000      -0.866944       -23.5907
  29   2.0000      -0.847320       -23.0567
  30   2.0000      -0.840317       -22.8662
  31   2.0000      -0.810938       -22.0667
  32   2.0000      -0.782690       -21.2981
  33   2.0000      -0.767926       -20.8963
  34   2.0000      -0.713018       -19.4022
  35   2.0000      -0.697651       -18.9840
  36   2.0000      -0.687727       -18.7140
  37   2.0000      -0.645259       -17.5584
  38   2.0000      -0.640634       -17.4325
  39   2.0000      -0.613694       -16.6995
  40   2.0000      -0.590518       -16.0688
  41   2.0000      -0.567731       -15.4487
  42   2.0000      -0.565573       -15.3900
  43   2.0000      -0.558804       -15.2058
  44   2.0000      -0.527365       -14.3503
  45   2.0000      -0.516919       -14.0661
  46   2.0000      -0.512490       -13.9456
  47   2.0000      -0.509120       -13.8539
  48   2.0000      -0.501159       -13.6372
  49   2.0000      -0.495331       -13.4787
  50   2.0000      -0.486516       -13.2388
  51   2.0000      -0.478450       -13.0193
  52   2.0000      -0.476622       -12.9695
  53   2.0000      -0.464107       -12.6290
  54   2.0000      -0.454940       -12.3795
  55   2.0000      -0.446305       -12.1446
  56   2.0000      -0.445698       -12.1281
  57   2.0000      -0.438529       -11.9330
  58   2.0000      -0.428704       -11.6656
  59   2.0000      -0.423565       -11.5258
  60   2.0000      -0.418357       -11.3841
  61   2.0000      -0.414385       -11.2760
  62   2.0000      -0.409723       -11.1491
  63   2.0000      -0.336422        -9.1545
  64   2.0000      -0.328368        -8.9354
  65   2.0000      -0.323749        -8.8097
  66   2.0000      -0.298076        -8.1111
  67   0.0000       0.031187         0.8486
  68   0.0000       0.046444         1.2638
  69   0.0000       0.110061         2.9949
  70   0.0000       0.115961         3.1555
  71   0.0000       0.122351         3.3293

MULLIKEN ATOMIC CHARGES
-----------------------
   0 S :    0.113023
   1 C :   -0.138149
   2 C :   -0.103442
   3 C :    0.010034
   4 C :   -0.177973
   5 H :    0.041322
   6 C :    0.093453
   7 H :    0.018024
   8 H :    0.027329
   9 C :   -0.092421
  10 H :    0.036724
  11 H :    0.019998
  12 C :   -0.036750
  13 H :    0.029664
  14 H :    0.045734
  15 H :    0.029885
  16 S :    0.082658
  17 C :   -0.077885
  18 C :   -0.063774
  19 C :   -0.033033
  20 C :   -0.163288
  21 H :    0.049884
  22 C :    0.049940
  23 H :    0.054006
  24 H :    0.033843
  25 C :   -0.097393
  26 H :    0.035499
  27 H :    0.027505
  28 C :   -0.013121
  29 H :    0.021561
  30 H :    0.033538
  31 H :    0.012646
  32 H :    0.064684
  33 H :    0.066273
Sum of atomic charges:   -0.0000000

LOEWDIN ATOMIC CHARGES
----------------------
   0 S :    0.396152
   1 C :   -0.203637
   2 C :   -0.061605
   3 C :   -0.059301
   4 C :   -0.188776
   5 H :    0.043597
   6 C :   -0.043938
   7 H :    0.035115
   8 H :    0.033919
   9 C :   -0.052078
  10 H :    0.032090
  11 H :    0.022055
  12 C :   -0.062562
  13 H :    0.026783
  14 H :    0.029333
  15 H :    0.030590
  16 S :    0.353674
  17 C :   -0.181485
  18 C :   -0.086840
  19 C :   -0.038861
  20 C :   -0.188225
  21 H :    0.043231
  22 C :   -0.032363
  23 H :    0.040300
  24 H :    0.028902
  25 C :   -0.045582
  26 H :    0.027944
  27 H :    0.022197
  28 C :   -0.062494
  29 H :    0.026277
  30 H :    0.024792
  31 H :    0.023723
  32 H :    0.029829
  33 H :    0.037244

  Mayer bond orders larger than 0.100000
B(  0-S ,  1-C ) :   1.1752 B(  0-S ,  4-C ) :   1.1321 B(  1-C ,  2-C ) :   1.5685
B(  1-C ,  4-C ) :   0.1088 B(  1-C , 32-H ) :   0.9619 B(  2-C ,  3-C ) :   1.2529
B(  2-C ,  6-C ) :   1.0259 B(  3-C ,  4-C ) :   1.5776 B(  3-C ,  5-H ) :   0.9812
B(  4-C , 20-C ) :   1.0529 B(  6-C ,  7-H ) :   0.9384 B(  6-C ,  8-H ) :   0.9176
B(  6-C ,  9-C ) :   1.0751 B(  9-C , 10-H ) :   0.9583 B(  9-C , 11-H ) :   0.9381
B(  9-C , 12-C ) :   1.0842 B( 12-C , 13-H ) :   0.9727 B( 12-C , 14-H ) :   0.9760
B( 12-C , 15-H ) :   0.9728 B( 16-S , 17-C ) :   1.1474 B( 16-S , 20-C ) :   1.0849
B( 17-C , 18-C ) :   1.6561 B( 17-C , 33-H ) :   0.9569 B( 18-C , 19-C ) :   1.2116
B( 18-C , 21-H ) :   0.9726 B( 19-C , 20-C ) :   1.6247 B( 19-C , 22-C ) :   1.0282
B( 22-C , 23-H ) :   0.9342 B( 22-C , 24-H ) :   0.9425 B( 22-C , 25-C ) :   1.0652
B( 25-C , 26-H ) :   0.9565 B( 25-C , 27-H ) :   0.9499 B( 25-C , 28-C ) :   1.0904
B( 28-C , 29-H ) :   0.9697 B( 28-C , 30-H ) :   0.9730 B( 28-C , 31-H ) :   0.9684

Dispersion correction           -0.013773652
FINAL SINGLE POINT ENERGY     -1339.864430805049

DIPOLE MOMENT
-------------
                                X             Y             Z
Electronic contribution:      0.53313     -19.22442      18.84344
Nuclear contribution   :     -0.30946      19.83541     -19.31874
                        -----------------------------------------
Total Dipole Moment    :      0.22367       0.61098      -0.47529
                        -----------------------------------------
Magnitude (a.u.)       :      0.80575
Magnitude (Debye)      :      2.04805

Rotational constants in cm-1:     0.017965     0.007622     0.006519
Rotational constants in MHz :   538.572402   228.509932   195.440057

                             ****ORCA TERMINATED NORMALLY****
TOTAL RUN TIME: 0 days 0 hours 0 minutes 20 seconds 891 msec
