                         Program Version 4.2.1 -  RELEASE  -
|  1> ! wB97X-D3 SP def2-SVP
|  2> %pal
|  3> nprocs 24
|  4> end
|  5>
|  6> * xyz 0 1
|  7> S 	 -132.037 	 6.06949 	 -9.28768
|  8> C 	 -130.666 	 5.27455 	 -10.0623
|  9> C 	 -129.551 	 6.0968 	 -10.0932
| 10> C 	 -129.732 	 7.33177 	 -9.41298
| 11> C 	 -131.037 	 7.52408 	 -9.02928
| 12> H 	 -129.003 	 8.15304 	 -9.24227
| 13> C 	 -128.192 	 5.65676 	 -10.7245
| 14> H 	 -127.942 	 4.61527 	 -10.4767
| 15> H 	 -127.318 	 6.26887 	 -10.3436
| 16> C 	 -128.353 	 5.651 	 -12.1931
| 17> H 	 -127.73 	 4.87661 	 -12.6504
| 18> H 	 -129.304 	 5.32596 	 -12.5857
| 19> C 	 -127.992 	 6.95182 	 -12.9297
| 20> H 	 -128.351 	 6.87954 	 -13.9366
| 21> H 	 -128.492 	 7.88319 	 -12.458
| 22> H 	 -126.933 	 7.13218 	 -13.0459
| 23> S 	 -132.49 	 8.60504 	 -6.9392
| 24> C 	 -132.432 	 10.3274 	 -6.67077
| 25> C 	 -131.66 	 11.0452 	 -7.52705
| 26> C 	 -131.16 	 10.1617 	 -8.61467
| 27> C 	 -131.492 	 8.79433 	 -8.37832
| 28> H 	 -131.568 	 12.1012 	 -7.35895
| 29> C 	 -130.464 	 10.808 	 -9.74173
| 30> H 	 -129.432 	 10.6116 	 -9.58089
| 31> H 	 -130.472 	 11.903 	 -9.7872
| 32> C 	 -130.89 	 10.1923 	 -11.0669
| 33> H 	 -131.156 	 9.09949 	 -10.8636
| 34> H 	 -130.048 	 10.3304 	 -11.7269
| 35> C 	 -132.222 	 10.8615 	 -11.6361
| 36> H 	 -133.161 	 10.7505 	 -11.0874
| 37> H 	 -132.42 	 10.3097 	 -12.6037
| 38> H 	 -131.964 	 11.8775 	 -11.6567
| 39> H 	 -130.777 	 4.29844 	 -10.5778
| 40> H 	 -132.983 	 10.8371 	 -5.87455
| 41> *
| 42>
| 43>                          ****END OF INPUT****

CARTESIAN COORDINATES (ANGSTROEM)
---------------------------------
  S    -132.037000    6.069490   -9.287680
  C    -130.666000    5.274550  -10.062300
  C    -129.551000    6.096800  -10.093200
  C    -129.732000    7.331770   -9.412980
  C    -131.037000    7.524080   -9.029280
  H    -129.003000    8.153040   -9.242270
  C    -128.192000    5.656760  -10.724500
  H    -127.942000    4.615270  -10.476700
  H    -127.318000    6.268870  -10.343600
  C    -128.353000    5.651000  -12.193100
  H    -127.730000    4.876610  -12.650400
  H    -129.304000    5.325960  -12.585700
  C    -127.992000    6.951820  -12.929700
  H    -128.351000    6.879540  -13.936600
  H    -128.492000    7.883190  -12.458000
  H    -126.933000    7.132180  -13.045900
  S    -132.490000    8.605040   -6.939200
  C    -132.432000   10.327400   -6.670770
  C    -131.660000   11.045200   -7.527050
  C    -131.160000   10.161700   -8.614670
  C    -131.492000    8.794330   -8.378320
  H    -131.568000   12.101200   -7.358950
  C    -130.464000   10.808000   -9.741730
  H    -129.432000   10.611600   -9.580890
  H    -130.472000   11.903000   -9.787200
  C    -130.890000   10.192300  -11.066900
  H    -131.156000    9.099490  -10.863600
  H    -130.048000   10.330400  -11.726900
  C    -132.222000   10.861500  -11.636100
  H    -133.161000   10.750500  -11.087400
  H    -132.420000   10.309700  -12.603700
  H    -131.964000   11.877500  -11.656700
  H    -130.777000    4.298440  -10.577800
  H    -132.983000   10.837100   -5.874550

 Total Charge           Charge          ....    0
 Multiplicity           Mult            ....    1
 Number of Electrons    NEL             ....  134
 Basis Dimension        Dim             ....  322

ORBITAL ENERGIES
----------------

  NO   OCC          E(Eh)            E(eV)
   0   2.0000     -88.970538     -2421.0114
   1   2.0000     -88.964446     -2420.8457
   2   2.0000     -10.333956      -281.2012
   3   2.0000     -10.333071      -281.1771
   4   2.0000     -10.318952      -280.7930
   5   2.0000     -10.313678      -280.6494
   6   2.0000     -10.312539      -280.6184
   7   2.0000     -10.305759      -280.4340
   8   2.0000     -10.297643      -280.2131
   9   2.0000     -10.296528      -280.1828
  10   2.0000     -10.293395      -280.0975
  11   2.0000     -10.285028      -279.8698
  12   2.0000     -10.284914      -279.8667
  13   2.0000     -10.280584      -279.7489
  14   2.0000     -10.277662      -279.6694
  15   2.0000     -10.275260      -279.6040
  16   2.0000      -8.084282      -219.9845
  17   2.0000      -8.079229      -219.8470
  18   2.0000      -6.042898      -164.4356
  19   2.0000      -6.038970      -164.3287
  20   2.0000      -6.037779      -164.2963
  21   2.0000      -6.034959      -164.2196
  22   2.0000      -6.033855      -164.1895
  23   2.0000      -6.029837      -164.0802
  24   2.0000      -1.000551       -27.2264
  25   2.0000      -0.979688       -26.6587
  26   2.0000      -0.913457       -24.8564
  27   2.0000      -0.911050       -24.7909
  28   2.0000      -0.864882       -23.5346
  29   2.0000      -0.847135       -23.0517
  30   2.0000      -0.838027       -22.8039
  31   2.0000      -0.813656       -22.1407
  32   2.0000      -0.782902       -21.3038
  33   2.0000      -0.769303       -20.9338
  34   2.0000      -0.706607       -19.2278
  35   2.0000      -0.696657       -18.9570
  36   2.0000      -0.679309       -18.4849
  37   2.0000      -0.658901       -17.9296
  38   2.0000      -0.637557       -17.3488
  39   2.0000      -0.614064       -16.7095
  40   2.0000      -0.598608       -16.2889
  41   2.0000      -0.571916       -15.5626
  42   2.0000      -0.553024       -15.0485
  43   2.0000      -0.550840       -14.9891
  44   2.0000      -0.539331       -14.6759
  45   2.0000      -0.530282       -14.4297
  46   2.0000      -0.517251       -14.0751
  47   2.0000      -0.507854       -13.8194
  48   2.0000      -0.502567       -13.6755
  49   2.0000      -0.494829       -13.4650
  50   2.0000      -0.484658       -13.1882
  51   2.0000      -0.482061       -13.1175
  52   2.0000      -0.470175       -12.7941
  53   2.0000      -0.462868       -12.5953
  54   2.0000      -0.462033       -12.5725
  55   2.0000      -0.447590       -12.1795
  56   2.0000      -0.442454       -12.0398
  57   2.0000      -0.440621       -11.9899
  58   2.0000      -0.431834       -11.7508
  59   2.0000      -0.421266       -11.4632
  60   2.0000      -0.409976       -11.1560
  61   2.0000      -0.406499       -11.0614
  62   2.0000      -0.403617       -10.9830
  63   2.0000      -0.347895        -9.4667
  64   2.0000      -0.334936        -9.1141
  65   2.0000      -0.323904        -8.8139
  66   2.0000      -0.287476        -7.8226
  67   0.0000       0.025500         0.6939
  68   0.0000       0.075482         2.0540
  69   0.0000       0.101146         2.7523
  70   0.0000       0.121110         3.2956
  71   0.0000       0.128334         3.4921

MULLIKEN ATOMIC CHARGES
-----------------------
   0 S :    0.109955
   1 C :   -0.136935
   2 C :   -0.073615
   3 C :    0.011167
   4 C :   -0.159164
   5 H :    0.030791
   6 C :    0.081015
   7 H :    0.030034
   8 H :    0.040298
   9 C :   -0.074054
  10 H :    0.013030
  11 H :    0.022340
  12 C :   -0.064453
  13 H :    0.022786
  14 H :    0.040340
  15 H :    0.029814
  16 S :    0.102041
  17 C :   -0.088302
  18 C :   -0.033727
  19 C :   -0.058487
  20 C :   -0.153490
  21 H :    0.019299
  22 C :    0.082603
  23 H :    0.018669
  24 H :    0.018071
  25 C :   -0.123265
  26 H :    0.078291
  27 H :    0.031178
  28 C :   -0.044906
  29 H :    0.042633
  30 H :    0.046707
  31 H :    0.017922
  32 H :    0.066112
  33 H :    0.055303
Sum of atomic charges:   -0.0000000

LOEWDIN ATOMIC CHARGES
----------------------
   0 S :    0.385102
   1 C :   -0.197417
   2 C :   -0.057437
   3 C :   -0.067112
   4 C :   -0.189323
   5 H :    0.041572
   6 C :   -0.031330
   7 H :    0.034871
   8 H :    0.038221
   9 C :   -0.050960
  10 H :    0.022778
  11 H :    0.024086
  12 C :   -0.069376
  13 H :    0.022481
  14 H :    0.031921
  15 H :    0.019787
  16 S :    0.395997
  17 C :   -0.182671
  18 C :   -0.072071
  19 C :   -0.041581
  20 C :   -0.202715
  21 H :    0.033407
  22 C :   -0.043364
  23 H :    0.028187
  24 H :    0.030262
  25 C :   -0.039611
  26 H :    0.039946
  27 H :    0.019632
  28 C :   -0.064751
  29 H :    0.027994
  30 H :    0.035344
  31 H :    0.012579
  32 H :    0.035618
  33 H :    0.029935

  Mayer bond orders larger than 0.100000
B(  0-S ,  1-C ) :   1.1267 B(  0-S ,  4-C ) :   1.1442 B(  1-C ,  2-C ) :   1.6221
B(  1-C , 32-H ) :   0.9607 B(  2-C ,  3-C ) :   1.2356 B(  2-C ,  6-C ) :   1.0105
B(  3-C ,  4-C ) :   1.5785 B(  3-C ,  5-H ) :   0.9880 B(  4-C , 20-C ) :   1.0334
B(  6-C ,  7-H ) :   0.9431 B(  6-C ,  8-H ) :   0.9530 B(  6-C ,  9-C ) :   1.0564
B(  9-C , 10-H ) :   0.9489 B(  9-C , 11-H ) :   0.9593 B(  9-C , 12-C ) :   1.0854
B( 12-C , 13-H ) :   0.9726 B( 12-C , 14-H ) :   0.9734 B( 12-C , 15-H ) :   0.9771
B( 16-S , 17-C ) :   1.1460 B( 16-S , 20-C ) :   1.1244 B( 17-C , 18-C ) :   1.6660
B( 17-C , 33-H ) :   0.9595 B( 18-C , 19-C ) :   1.1917 B( 18-C , 21-H ) :   0.9925
B( 19-C , 20-C ) :   1.6017 B( 19-C , 22-C ) :   1.0493 B( 22-C , 23-H ) :   0.9126
B( 22-C , 24-H ) :   0.9377 B( 22-C , 25-C ) :   1.0709 B( 25-C , 26-H ) :   0.9550
B( 25-C , 27-H ) :   0.9520 B( 25-C , 28-C ) :   1.0554 B( 28-C , 29-H ) :   0.9802
B( 28-C , 30-H ) :   0.9760 B( 28-C , 31-H ) :   0.9780

Dispersion correction           -0.015482616
FINAL SINGLE POINT ENERGY     -1339.858143102546

DIPOLE MOMENT
-------------
                                X             Y             Z
Electronic contribution:    -14.91058      -6.92599      23.22751
Nuclear contribution   :     15.42473       7.17342     -23.59042
                        -----------------------------------------
Total Dipole Moment    :      0.51415       0.24744      -0.36290
                        -----------------------------------------
Magnitude (a.u.)       :      0.67622
Magnitude (Debye)      :      1.71882

Rotational constants in cm-1:     0.020045     0.009498     0.007460
Rotational constants in MHz :   600.922975   284.735326   223.639354

                             ****ORCA TERMINATED NORMALLY****
TOTAL RUN TIME: 0 days 0 hours 0 minutes 22 seconds 889 msec
