                         Program Version 4.2.1 -  RELEASE  -
|  1> ! wB97X-D3 SP def2-SVP
|  2> %pal
|  3> nprocs 24
|  4> end
|  5>
|  6> * xyz 0 1
|  7> S 	 -126.079 	 24.1044 	 -111.055
|  8> C 	 -124.461 	 23.6821 	 -111.098
|  9> C 	 -123.69 	 24.5844 	 -111.782
| 10> C 	 -124.402 	 25.7183 	 -112.237
| 11> C 	 -125.763 	 25.5852 	 -111.909
| 12> H 	 -124.118 	 26.3994 	 -113.026
| 13> C 	 -122.257 	 24.3786 	 -112.09
| 14> H 	 -122.165 	 24.5215 	 -113.133
| 15> H 	 -122.046 	 23.2936 	 -112.011
| 16> C 	 -121.256 	 25.1862 	 -111.215
| 17> H 	 -121.291 	 24.9738 	 -110.19
| 18> H 	 -120.288 	 24.9071 	 -111.58
| 19> C 	 -121.185 	 26.6696 	 -111.525
| 20> H 	 -120.303 	 27.1883 	 -111.068
| 21> H 	 -121.237 	 26.8033 	 -112.606
| 22> H 	 -122.036 	 27.1546 	 -111.059
| 23> S 	 -127.941 	 25.4118 	 -113.476
| 24> C 	 -128.821 	 26.8192 	 -113.869
| 25> C 	 -128.303 	 27.9099 	 -113.322
| 26> C 	 -127.177 	 27.6656 	 -112.493
| 27> C 	 -126.848 	 26.3194 	 -112.465
| 28> H 	 -128.769 	 28.8419 	 -113.537
| 29> C 	 -126.456 	 28.7523 	 -111.727
| 30> H 	 -125.895 	 28.2634 	 -110.904
| 31> H 	 -127.261 	 29.1614 	 -111.255
| 32> C 	 -125.487 	 29.6578 	 -112.517
| 33> H 	 -125.831 	 29.6442 	 -113.631
| 34> H 	 -124.46 	 29.2596 	 -112.512
| 35> C 	 -125.474 	 31.0539 	 -111.944
| 36> H 	 -124.59 	 31.5014 	 -112.343
| 37> H 	 -125.494 	 31.233 	 -110.9
| 38> H 	 -126.323 	 31.6694 	 -112.251
| 39> H 	 -124.08 	 22.7814 	 -110.636
| 40> H 	 -129.848 	 26.814 	 -114.378
| 41> *
| 42>
| 43>                          ****END OF INPUT****

CARTESIAN COORDINATES (ANGSTROEM)
---------------------------------
  S    -126.079000   24.104400  -111.055000
  C    -124.461000   23.682100  -111.098000
  C    -123.690000   24.584400  -111.782000
  C    -124.402000   25.718300  -112.237000
  C    -125.763000   25.585200  -111.909000
  H    -124.118000   26.399400  -113.026000
  C    -122.257000   24.378600  -112.090000
  H    -122.165000   24.521500  -113.133000
  H    -122.046000   23.293600  -112.011000
  C    -121.256000   25.186200  -111.215000
  H    -121.291000   24.973800  -110.190000
  H    -120.288000   24.907100  -111.580000
  C    -121.185000   26.669600  -111.525000
  H    -120.303000   27.188300  -111.068000
  H    -121.237000   26.803300  -112.606000
  H    -122.036000   27.154600  -111.059000
  S    -127.941000   25.411800  -113.476000
  C    -128.821000   26.819200  -113.869000
  C    -128.303000   27.909900  -113.322000
  C    -127.177000   27.665600  -112.493000
  C    -126.848000   26.319400  -112.465000
  H    -128.769000   28.841900  -113.537000
  C    -126.456000   28.752300  -111.727000
  H    -125.895000   28.263400  -110.904000
  H    -127.261000   29.161400  -111.255000
  C    -125.487000   29.657800  -112.517000
  H    -125.831000   29.644200  -113.631000
  H    -124.460000   29.259600  -112.512000
  C    -125.474000   31.053900  -111.944000
  H    -124.590000   31.501400  -112.343000
  H    -125.494000   31.233000  -110.900000
  H    -126.323000   31.669400  -112.251000
  H    -124.080000   22.781400  -110.636000
  H    -129.848000   26.814000  -114.378000

 Total Charge           Charge          ....    0
 Multiplicity           Mult            ....    1
 Number of Electrons    NEL             ....  134
 Basis Dimension        Dim             ....  322

ORBITAL ENERGIES
----------------

  NO   OCC          E(Eh)            E(eV)
   0   2.0000     -88.965832     -2420.8834
   1   2.0000     -88.957194     -2420.6483
   2   2.0000     -10.323676      -280.9215
   3   2.0000     -10.315865      -280.7090
   4   2.0000     -10.308785      -280.5163
   5   2.0000     -10.304350      -280.3956
   6   2.0000     -10.295735      -280.1612
   7   2.0000     -10.295133      -280.1448
   8   2.0000     -10.293168      -280.0913
   9   2.0000     -10.291934      -280.0577
  10   2.0000     -10.286587      -279.9123
  11   2.0000     -10.280734      -279.7530
  12   2.0000     -10.279873      -279.7296
  13   2.0000     -10.279262      -279.7129
  14   2.0000     -10.276989      -279.6511
  15   2.0000     -10.269883      -279.4577
  16   2.0000      -8.082282      -219.9301
  17   2.0000      -8.073351      -219.6870
  18   2.0000      -6.040462      -164.3693
  19   2.0000      -6.036470      -164.2607
  20   2.0000      -6.033365      -164.1762
  21   2.0000      -6.031799      -164.1336
  22   2.0000      -6.027608      -164.0195
  23   2.0000      -6.024130      -163.9249
  24   2.0000      -1.016495       -27.6602
  25   2.0000      -0.993915       -27.0458
  26   2.0000      -0.915368       -24.9084
  27   2.0000      -0.908421       -24.7194
  28   2.0000      -0.876193       -23.8424
  29   2.0000      -0.856469       -23.3057
  30   2.0000      -0.851286       -23.1647
  31   2.0000      -0.818302       -22.2671
  32   2.0000      -0.784637       -21.3511
  33   2.0000      -0.768692       -20.9172
  34   2.0000      -0.708305       -19.2740
  35   2.0000      -0.703153       -19.1338
  36   2.0000      -0.695108       -18.9148
  37   2.0000      -0.660005       -17.9596
  38   2.0000      -0.643326       -17.5058
  39   2.0000      -0.615965       -16.7612
  40   2.0000      -0.592557       -16.1243
  41   2.0000      -0.576273       -15.6812
  42   2.0000      -0.556571       -15.1451
  43   2.0000      -0.547209       -14.8903
  44   2.0000      -0.543698       -14.7948
  45   2.0000      -0.533284       -14.5114
  46   2.0000      -0.516384       -14.0515
  47   2.0000      -0.515417       -14.0252
  48   2.0000      -0.510352       -13.8874
  49   2.0000      -0.498950       -13.5771
  50   2.0000      -0.487961       -13.2781
  51   2.0000      -0.486514       -13.2387
  52   2.0000      -0.467559       -12.7229
  53   2.0000      -0.465548       -12.6682
  54   2.0000      -0.457660       -12.4536
  55   2.0000      -0.452492       -12.3129
  56   2.0000      -0.448092       -12.1932
  57   2.0000      -0.443353       -12.0642
  58   2.0000      -0.440810       -11.9950
  59   2.0000      -0.424827       -11.5601
  60   2.0000      -0.414154       -11.2697
  61   2.0000      -0.406121       -11.0511
  62   2.0000      -0.403445       -10.9783
  63   2.0000      -0.348488        -9.4828
  64   2.0000      -0.329064        -8.9543
  65   2.0000      -0.327270        -8.9055
  66   2.0000      -0.291631        -7.9357
  67   0.0000       0.034795         0.9468
  68   0.0000       0.076916         2.0930
  69   0.0000       0.118305         3.2193
  70   0.0000       0.130242         3.5441
  71   0.0000       0.131678         3.5831

MULLIKEN ATOMIC CHARGES
-----------------------
   0 S :    0.131524
   1 C :   -0.111719
   2 C :   -0.105305
   3 C :    0.048040
   4 C :   -0.188016
   5 H :    0.027851
   6 C :    0.062862
   7 H :    0.015897
   8 H :    0.014050
   9 C :   -0.014337
  10 H :    0.021034
  11 H :    0.014958
  12 C :   -0.070192
  13 H :    0.042230
  14 H :    0.027410
  15 H :    0.030790
  16 S :    0.104096
  17 C :   -0.111567
  18 C :   -0.031509
  19 C :   -0.061349
  20 C :   -0.162723
  21 H :    0.000111
  22 C :    0.120575
  23 H :    0.026410
  24 H :    0.003962
  25 C :   -0.089205
  26 H :    0.049173
  27 H :    0.039584
  28 C :   -0.030368
  29 H :    0.022567
  30 H :    0.025441
  31 H :    0.026337
  32 H :    0.042059
  33 H :    0.079329
Sum of atomic charges:   -0.0000000

LOEWDIN ATOMIC CHARGES
----------------------
   0 S :    0.450387
   1 C :   -0.221693
   2 C :   -0.070766
   3 C :   -0.056894
   4 C :   -0.201657
   5 H :    0.035505
   6 C :   -0.030400
   7 H :    0.026935
   8 H :    0.033016
   9 C :   -0.030333
  10 H :    0.018126
  11 H :    0.023216
  12 C :   -0.067488
  13 H :    0.031879
  14 H :    0.023184
  15 H :    0.019430
  16 S :    0.414085
  17 C :   -0.208222
  18 C :   -0.080240
  19 C :   -0.056190
  20 C :   -0.208143
  21 H :    0.027724
  22 C :   -0.030402
  23 H :    0.037323
  24 H :    0.019350
  25 C :   -0.040890
  26 H :    0.036190
  27 H :    0.026978
  28 C :   -0.067553
  29 H :    0.024150
  30 H :    0.021695
  31 H :    0.027270
  32 H :    0.027079
  33 H :    0.047348

  Mayer bond orders larger than 0.100000
B(  0-S ,  1-C ) :   1.1578 B(  0-S ,  4-C ) :   1.1839 B(  1-C ,  2-C ) :   1.5904
B(  1-C , 32-H ) :   0.9674 B(  2-C ,  3-C ) :   1.2744 B(  2-C ,  6-C ) :   1.0239
B(  3-C ,  4-C ) :   1.5316 B(  3-C ,  5-H ) :   0.9858 B(  4-C , 20-C ) :   1.0436
B(  6-C ,  7-H ) :   0.9362 B(  6-C ,  8-H ) :   0.9388 B(  6-C ,  9-C ) :   1.0744
B(  9-C , 10-H ) :   0.9582 B(  9-C , 11-H ) :   0.9524 B(  9-C , 12-C ) :   1.0787
B( 12-C , 13-H ) :   0.9727 B( 12-C , 14-H ) :   0.9729 B( 12-C , 15-H ) :   0.9725
B( 16-S , 17-C ) :   1.1533 B( 16-S , 20-C ) :   1.1420 B( 17-C , 18-C ) :   1.6317
B( 17-C , 33-H ) :   0.9511 B( 18-C , 19-C ) :   1.2252 B( 18-C , 21-H ) :   1.0003
B( 19-C , 20-C ) :   1.6017 B( 19-C , 22-C ) :   1.0329 B( 22-C , 23-H ) :   0.9222
B( 22-C , 24-H ) :   0.9414 B( 22-C , 25-C ) :   1.0367 B( 25-C , 26-H ) :   0.9641
B( 25-C , 27-H ) :   0.9568 B( 25-C , 28-C ) :   1.0694 B( 28-C , 29-H ) :   0.9740
B( 28-C , 30-H ) :   0.9761 B( 28-C , 31-H ) :   0.9748

Dispersion correction           -0.014529899
FINAL SINGLE POINT ENERGY     -1339.866699754826

DIPOLE MOMENT
-------------
                                X             Y             Z
Electronic contribution:    -21.82381     -20.03755      -2.09796
Nuclear contribution   :     22.20879      20.35492       2.04179
                        -----------------------------------------
Total Dipole Moment    :      0.38497       0.31737      -0.05617
                        -----------------------------------------
Magnitude (a.u.)       :      0.50208
Magnitude (Debye)      :      1.27618

Rotational constants in cm-1:     0.016551     0.010205     0.006895
Rotational constants in MHz :   496.181383   305.945476   206.699238

                             ****ORCA TERMINATED NORMALLY****
TOTAL RUN TIME: 0 days 0 hours 0 minutes 22 seconds 61 msec
