                         Program Version 4.2.1 -  RELEASE  -
|  1> ! wB97X-D3 SP def2-SVP
|  2> %pal
|  3> nprocs 24
|  4> end
|  5>
|  6> * xyz 0 1
|  7> S 	 -58.197 	 14.6345 	 -100.003
|  8> C 	 -56.6756 	 15.2285 	 -100.205
|  9> C 	 -56.3683 	 16.2516 	 -99.326
| 10> C 	 -57.4699 	 16.4643 	 -98.4582
| 11> C 	 -58.5326 	 15.5677 	 -98.6639
| 12> H 	 -57.4552 	 17.1774 	 -97.6538
| 13> C 	 -55.088 	 17.1247 	 -99.3153
| 14> H 	 -54.3837 	 16.5293 	 -99.9004
| 15> H 	 -54.7225 	 17.2897 	 -98.3643
| 16> C 	 -55.1708 	 18.5351 	 -100.047
| 17> H 	 -55.8315 	 18.5214 	 -100.894
| 18> H 	 -55.5808 	 19.3038 	 -99.3599
| 19> C 	 -53.7419 	 18.8398 	 -100.549
| 20> H 	 -53.2389 	 18.0212 	 -101.023
| 21> H 	 -53.7853 	 19.7368 	 -101.219
| 22> H 	 -53.1031 	 19.053 	 -99.6425
| 23> S 	 -61.3029 	 16.0128 	 -98.3665
| 24> C 	 -61.9543 	 15.8173 	 -96.7242
| 25> C 	 -61.1058 	 15.2172 	 -95.8987
| 26> C 	 -59.8319 	 14.9546 	 -96.5204
| 27> C 	 -59.71 	 15.4564 	 -97.7739
| 28> H 	 -61.373 	 15.0821 	 -94.9105
| 29> C 	 -58.6601 	 14.3952 	 -95.6915
| 30> H 	 -57.7789 	 15.0394 	 -95.9058
| 31> H 	 -58.3263 	 13.3455 	 -95.9333
| 32> C 	 -58.8145 	 14.5085 	 -94.2098
| 33> H 	 -59.7177 	 14.006 	 -93.8787
| 34> H 	 -59.062 	 15.478 	 -94.1915
| 35> C 	 -57.6305 	 13.9585 	 -93.3945
| 36> H 	 -57.6514 	 14.4332 	 -92.4079
| 37> H 	 -56.6953 	 14.0595 	 -93.9037
| 38> H 	 -57.86 	 12.8659 	 -93.2383
| 39> H 	 -55.9749 	 14.9694 	 -101.002
| 40> H 	 -63.0041 	 15.9773 	 -96.4481
| 41> *
| 42>
| 43>                          ****END OF INPUT****

CARTESIAN COORDINATES (ANGSTROEM)
---------------------------------
  S    -58.197000   14.634500  -100.003000
  C    -56.675600   15.228500  -100.205000
  C    -56.368300   16.251600  -99.326000
  C    -57.469900   16.464300  -98.458200
  C    -58.532600   15.567700  -98.663900
  H    -57.455200   17.177400  -97.653800
  C    -55.088000   17.124700  -99.315300
  H    -54.383700   16.529300  -99.900400
  H    -54.722500   17.289700  -98.364300
  C    -55.170800   18.535100  -100.047000
  H    -55.831500   18.521400  -100.894000
  H    -55.580800   19.303800  -99.359900
  C    -53.741900   18.839800  -100.549000
  H    -53.238900   18.021200  -101.023000
  H    -53.785300   19.736800  -101.219000
  H    -53.103100   19.053000  -99.642500
  S    -61.302900   16.012800  -98.366500
  C    -61.954300   15.817300  -96.724200
  C    -61.105800   15.217200  -95.898700
  C    -59.831900   14.954600  -96.520400
  C    -59.710000   15.456400  -97.773900
  H    -61.373000   15.082100  -94.910500
  C    -58.660100   14.395200  -95.691500
  H    -57.778900   15.039400  -95.905800
  H    -58.326300   13.345500  -95.933300
  C    -58.814500   14.508500  -94.209800
  H    -59.717700   14.006000  -93.878700
  H    -59.062000   15.478000  -94.191500
  C    -57.630500   13.958500  -93.394500
  H    -57.651400   14.433200  -92.407900
  H    -56.695300   14.059500  -93.903700
  H    -57.860000   12.865900  -93.238300
  H    -55.974900   14.969400  -101.002000
  H    -63.004100   15.977300  -96.448100

 Total Charge           Charge          ....    0
 Multiplicity           Mult            ....    1
 Number of Electrons    NEL             ....  134
 Basis Dimension        Dim             ....  322

ORBITAL ENERGIES
----------------

  NO   OCC          E(Eh)            E(eV)
   0   2.0000     -88.968441     -2420.9544
   1   2.0000     -88.959948     -2420.7233
   2   2.0000     -10.326878      -281.0086
   3   2.0000     -10.321970      -280.8751
   4   2.0000     -10.314534      -280.6727
   5   2.0000     -10.305768      -280.4342
   6   2.0000     -10.302811      -280.3537
   7   2.0000     -10.297205      -280.2012
   8   2.0000     -10.292541      -280.0743
   9   2.0000     -10.290744      -280.0254
  10   2.0000     -10.289699      -279.9969
  11   2.0000     -10.289008      -279.9781
  12   2.0000     -10.284834      -279.8646
  13   2.0000     -10.284499      -279.8554
  14   2.0000     -10.282624      -279.8044
  15   2.0000     -10.269777      -279.4548
  16   2.0000      -8.086265      -220.0385
  17   2.0000      -8.074242      -219.7113
  18   2.0000      -6.044313      -164.4741
  19   2.0000      -6.040142      -164.3606
  20   2.0000      -6.037507      -164.2889
  21   2.0000      -6.032916      -164.1640
  22   2.0000      -6.028992      -164.0572
  23   2.0000      -6.024676      -163.9398
  24   2.0000      -1.019573       -27.7440
  25   2.0000      -0.991044       -26.9677
  26   2.0000      -0.914425       -24.8828
  27   2.0000      -0.906743       -24.6737
  28   2.0000      -0.872580       -23.7441
  29   2.0000      -0.852975       -23.2106
  30   2.0000      -0.842865       -22.9355
  31   2.0000      -0.817091       -22.2342
  32   2.0000      -0.780011       -21.2252
  33   2.0000      -0.772083       -21.0094
  34   2.0000      -0.706326       -19.2201
  35   2.0000      -0.701302       -19.0834
  36   2.0000      -0.695247       -18.9186
  37   2.0000      -0.653522       -17.7832
  38   2.0000      -0.645801       -17.5731
  39   2.0000      -0.619075       -16.8459
  40   2.0000      -0.600384       -16.3373
  41   2.0000      -0.580933       -15.8080
  42   2.0000      -0.573930       -15.6174
  43   2.0000      -0.560031       -15.2392
  44   2.0000      -0.526953       -14.3391
  45   2.0000      -0.522905       -14.2290
  46   2.0000      -0.517847       -14.0913
  47   2.0000      -0.506306       -13.7773
  48   2.0000      -0.503629       -13.7044
  49   2.0000      -0.499952       -13.6044
  50   2.0000      -0.487530       -13.2664
  51   2.0000      -0.478777       -13.0282
  52   2.0000      -0.472113       -12.8469
  53   2.0000      -0.470829       -12.8119
  54   2.0000      -0.465618       -12.6701
  55   2.0000      -0.453643       -12.3443
  56   2.0000      -0.442775       -12.0485
  57   2.0000      -0.436381       -11.8745
  58   2.0000      -0.429685       -11.6923
  59   2.0000      -0.425698       -11.5838
  60   2.0000      -0.418438       -11.3863
  61   2.0000      -0.417775       -11.3682
  62   2.0000      -0.411018       -11.1844
  63   2.0000      -0.337513        -9.1842
  64   2.0000      -0.330868        -9.0034
  65   2.0000      -0.326785        -8.8923
  66   2.0000      -0.307153        -8.3580
  67   0.0000       0.047224         1.2850
  68   0.0000       0.063028         1.7151
  69   0.0000       0.117869         3.2074
  70   0.0000       0.124819         3.3965
  71   0.0000       0.140367         3.8196

MULLIKEN ATOMIC CHARGES
-----------------------
   0 S :    0.166376
   1 C :   -0.123635
   2 C :   -0.112993
   3 C :    0.046452
   4 C :   -0.183400
   5 H :    0.001306
   6 C :    0.088804
   7 H :    0.010118
   8 H :    0.016649
   9 C :   -0.060190
  10 H :    0.029241
  11 H :    0.040375
  12 C :   -0.085559
  13 H :    0.034035
  14 H :    0.047174
  15 H :    0.034701
  16 S :    0.084942
  17 C :   -0.073925
  18 C :   -0.019993
  19 C :   -0.005794
  20 C :   -0.170388
  21 H :   -0.007106
  22 C :    0.039948
  23 H :    0.026441
  24 H :    0.035615
  25 C :   -0.082147
  26 H :    0.025147
  27 H :   -0.005953
  28 C :   -0.015387
  29 H :    0.040822
  30 H :    0.034043
  31 H :    0.041283
  32 H :    0.046035
  33 H :    0.056964
Sum of atomic charges:   -0.0000000

LOEWDIN ATOMIC CHARGES
----------------------
   0 S :    0.500694
   1 C :   -0.238294
   2 C :   -0.069815
   3 C :   -0.056476
   4 C :   -0.238375
   5 H :    0.025107
   6 C :   -0.017681
   7 H :    0.027789
   8 H :    0.018902
   9 C :   -0.035450
  10 H :    0.019702
  11 H :    0.027793
  12 C :   -0.070500
  13 H :    0.019445
  14 H :    0.030871
  15 H :    0.030380
  16 S :    0.362925
  17 C :   -0.164164
  18 C :   -0.070332
  19 C :   -0.050080
  20 C :   -0.181649
  21 H :    0.022215
  22 C :   -0.032554
  23 H :    0.033422
  24 H :    0.030405
  25 C :   -0.047002
  26 H :    0.019286
  27 H :    0.004754
  28 C :   -0.056793
  29 H :    0.031584
  30 H :    0.021413
  31 H :    0.036543
  32 H :    0.031708
  33 H :    0.034226

  Mayer bond orders larger than 0.100000
B(  0-S ,  1-C ) :   1.1963 B(  0-S ,  4-C ) :   1.2116 B(  1-C ,  2-C ) :   1.5507
B(  1-C , 32-H ) :   0.9615 B(  2-C ,  3-C ) :   1.3179 B(  2-C ,  6-C ) :   1.0251
B(  3-C ,  4-C ) :   1.5058 B(  3-C ,  5-H ) :   0.9992 B(  4-C , 20-C ) :   1.0048
B(  6-C ,  7-H ) :   0.9470 B(  6-C ,  8-H ) :   0.9408 B(  6-C ,  9-C ) :   1.0473
B(  9-C , 10-H ) :   0.9634 B(  9-C , 11-H ) :   0.9564 B(  9-C , 12-C ) :   1.0728
B( 12-C , 13-H ) :   0.9785 B( 12-C , 14-H ) :   0.9750 B( 12-C , 15-H ) :   0.9755
B( 16-S , 17-C ) :   1.1296 B( 16-S , 20-C ) :   1.1144 B( 17-C , 18-C ) :   1.6731
B( 17-C , 33-H ) :   0.9540 B( 18-C , 19-C ) :   1.1881 B( 18-C , 21-H ) :   0.9995
B( 19-C , 20-C ) :   1.6780 B( 19-C , 22-C ) :   1.0206 B( 22-C , 23-H ) :   0.9370
B( 22-C , 24-H ) :   0.9308 B( 22-C , 25-C ) :   1.0827 B( 25-C , 26-H ) :   0.9431
B( 25-C , 27-H ) :   0.9558 B( 25-C , 28-C ) :   1.0631 B( 28-C , 29-H ) :   0.9723
B( 28-C , 30-H ) :   0.9780 B( 28-C , 31-H ) :   0.9744

Dispersion correction           -0.013422734
FINAL SINGLE POINT ENERGY     -1339.858246035534

DIPOLE MOMENT
-------------
                                X             Y             Z
Electronic contribution:    -22.26112      -6.68153     -12.83851
Nuclear contribution   :     22.70075       6.82484      13.25162
                        -----------------------------------------
Total Dipole Moment    :      0.43963       0.14331       0.41311
                        -----------------------------------------
Magnitude (a.u.)       :      0.62006
Magnitude (Debye)      :      1.57607

Rotational constants in cm-1:     0.018342     0.007510     0.006250
Rotational constants in MHz :   549.866920   225.156787   187.381969

                             ****ORCA TERMINATED NORMALLY****
TOTAL RUN TIME: 0 days 0 hours 0 minutes 20 seconds 984 msec
