                         Program Version 4.2.1 -  RELEASE  -
|  1> ! wB97X-D3 SP def2-SVP
|  2> %pal
|  3> nprocs 24
|  4> end
|  5>
|  6> * xyz 0 1
|  7> S 	 -77.2994 	 -3.97062 	 -66.8319
|  8> C 	 -75.7532 	 -3.35989 	 -66.2702
|  9> C 	 -74.7694 	 -3.41019 	 -67.2765
| 10> C 	 -75.3592 	 -3.77034 	 -68.5029
| 11> C 	 -76.6913 	 -4.17958 	 -68.4349
| 12> H 	 -74.9333 	 -3.80536 	 -69.4957
| 13> C 	 -73.3313 	 -2.97759 	 -67.1521
| 14> H 	 -73.401 	 -2.12062 	 -66.4809
| 15> H 	 -73.107 	 -2.59039 	 -68.1345
| 16> C 	 -72.4681 	 -4.13741 	 -66.6338
| 17> H 	 -72.8628 	 -4.40266 	 -65.6732
| 18> H 	 -72.4653 	 -5.02134 	 -67.326
| 19> C 	 -70.9596 	 -3.79413 	 -66.5613
| 20> H 	 -70.6415 	 -3.3181 	 -67.4566
| 21> H 	 -70.7726 	 -3.03467 	 -65.778
| 22> H 	 -70.3294 	 -4.69358 	 -66.3413
| 23> S 	 -78.0574 	 -6.23968 	 -69.7824
| 24> C 	 -78.8469 	 -5.85116 	 -71.2708
| 25> C 	 -78.6922 	 -4.53869 	 -71.6436
| 26> C 	 -77.9544 	 -3.80409 	 -70.6787
| 27> C 	 -77.5487 	 -4.58081 	 -69.5917
| 28> H 	 -79.2756 	 -4.25567 	 -72.4702
| 29> C 	 -77.7474 	 -2.32277 	 -70.8871
| 30> H 	 -77.5929 	 -2.20032 	 -71.9912
| 31> H 	 -76.8763 	 -1.98923 	 -70.3064
| 32> C 	 -78.9792 	 -1.37906 	 -70.5552
| 33> H 	 -79.4654 	 -1.65099 	 -69.602
| 34> H 	 -79.6482 	 -1.43708 	 -71.4664
| 35> C 	 -78.6356 	 0.118652 	 -70.6435
| 36> H 	 -77.9914 	 0.256966 	 -71.474
| 37> H 	 -78.1278 	 0.488975 	 -69.7621
| 38> H 	 -79.4665 	 0.802615 	 -70.8666
| 39> H 	 -75.5189 	 -3.05624 	 -65.2688
| 40> H 	 -79.4108 	 -6.56143 	 -71.8067
| 41> *
| 42>
| 43>                          ****END OF INPUT****

CARTESIAN COORDINATES (ANGSTROEM)
---------------------------------
  S    -77.299400   -3.970620  -66.831900
  C    -75.753200   -3.359890  -66.270200
  C    -74.769400   -3.410190  -67.276500
  C    -75.359200   -3.770340  -68.502900
  C    -76.691300   -4.179580  -68.434900
  H    -74.933300   -3.805360  -69.495700
  C    -73.331300   -2.977590  -67.152100
  H    -73.401000   -2.120620  -66.480900
  H    -73.107000   -2.590390  -68.134500
  C    -72.468100   -4.137410  -66.633800
  H    -72.862800   -4.402660  -65.673200
  H    -72.465300   -5.021340  -67.326000
  C    -70.959600   -3.794130  -66.561300
  H    -70.641500   -3.318100  -67.456600
  H    -70.772600   -3.034670  -65.778000
  H    -70.329400   -4.693580  -66.341300
  S    -78.057400   -6.239680  -69.782400
  C    -78.846900   -5.851160  -71.270800
  C    -78.692200   -4.538690  -71.643600
  C    -77.954400   -3.804090  -70.678700
  C    -77.548700   -4.580810  -69.591700
  H    -79.275600   -4.255670  -72.470200
  C    -77.747400   -2.322770  -70.887100
  H    -77.592900   -2.200320  -71.991200
  H    -76.876300   -1.989230  -70.306400
  C    -78.979200   -1.379060  -70.555200
  H    -79.465400   -1.650990  -69.602000
  H    -79.648200   -1.437080  -71.466400
  C    -78.635600    0.118652  -70.643500
  H    -77.991400    0.256966  -71.474000
  H    -78.127800    0.488975  -69.762100
  H    -79.466500    0.802615  -70.866600
  H    -75.518900   -3.056240  -65.268800
  H    -79.410800   -6.561430  -71.806700

 Total Charge           Charge          ....    0
 Multiplicity           Mult            ....    1
 Number of Electrons    NEL             ....  134
 Basis Dimension        Dim             ....  322

ORBITAL ENERGIES
----------------

  NO   OCC          E(Eh)            E(eV)
   0   2.0000     -88.968501     -2420.9560
   1   2.0000     -88.965105     -2420.8636
   2   2.0000     -10.326923      -281.0099
   3   2.0000     -10.326730      -281.0046
   4   2.0000     -10.314434      -280.6700
   5   2.0000     -10.310940      -280.5750
   6   2.0000     -10.303442      -280.3709
   7   2.0000     -10.300215      -280.2831
   8   2.0000     -10.295002      -280.1412
   9   2.0000     -10.293005      -280.0869
  10   2.0000     -10.292922      -280.0847
  11   2.0000     -10.291561      -280.0476
  12   2.0000     -10.290266      -280.0124
  13   2.0000     -10.287333      -279.9326
  14   2.0000     -10.279533      -279.7203
  15   2.0000     -10.272469      -279.5281
  16   2.0000      -8.083082      -219.9519
  17   2.0000      -8.080368      -219.8780
  18   2.0000      -6.041439      -164.3959
  19   2.0000      -6.038690      -164.3211
  20   2.0000      -6.037507      -164.2889
  21   2.0000      -6.034783      -164.2148
  22   2.0000      -6.034133      -164.1971
  23   2.0000      -6.031335      -164.1210
  24   2.0000      -1.005438       -27.3594
  25   2.0000      -0.986426       -26.8420
  26   2.0000      -0.913410       -24.8551
  27   2.0000      -0.901200       -24.5229
  28   2.0000      -0.864502       -23.5243
  29   2.0000      -0.852064       -23.1859
  30   2.0000      -0.849255       -23.1094
  31   2.0000      -0.814023       -22.1507
  32   2.0000      -0.781904       -21.2767
  33   2.0000      -0.768404       -20.9093
  34   2.0000      -0.702950       -19.1282
  35   2.0000      -0.700029       -19.0488
  36   2.0000      -0.689524       -18.7629
  37   2.0000      -0.660322       -17.9683
  38   2.0000      -0.643129       -17.5004
  39   2.0000      -0.616995       -16.7893
  40   2.0000      -0.591767       -16.1028
  41   2.0000      -0.571944       -15.5634
  42   2.0000      -0.568075       -15.4581
  43   2.0000      -0.559516       -15.2252
  44   2.0000      -0.530647       -14.4396
  45   2.0000      -0.518206       -14.1011
  46   2.0000      -0.516884       -14.0651
  47   2.0000      -0.510992       -13.9048
  48   2.0000      -0.503197       -13.6927
  49   2.0000      -0.497574       -13.5397
  50   2.0000      -0.491969       -13.3872
  51   2.0000      -0.477632       -12.9970
  52   2.0000      -0.467913       -12.7326
  53   2.0000      -0.463054       -12.6003
  54   2.0000      -0.458912       -12.4876
  55   2.0000      -0.448292       -12.1987
  56   2.0000      -0.444560       -12.0971
  57   2.0000      -0.442839       -12.0503
  58   2.0000      -0.430537       -11.7155
  59   2.0000      -0.426694       -11.6109
  60   2.0000      -0.423418       -11.5218
  61   2.0000      -0.416933       -11.3453
  62   2.0000      -0.408350       -11.1118
  63   2.0000      -0.337058        -9.1718
  64   2.0000      -0.332123        -9.0375
  65   2.0000      -0.326059        -8.8725
  66   2.0000      -0.300229        -8.1697
  67   0.0000       0.041263         1.1228
  68   0.0000       0.061160         1.6642
  69   0.0000       0.120198         3.2708
  70   0.0000       0.122668         3.3380
  71   0.0000       0.129320         3.5190

MULLIKEN ATOMIC CHARGES
-----------------------
   0 S :    0.127475
   1 C :   -0.119300
   2 C :   -0.110964
   3 C :    0.040759
   4 C :   -0.182946
   5 H :    0.009752
   6 C :    0.091151
   7 H :    0.027481
   8 H :    0.017002
   9 C :   -0.070022
  10 H :    0.026473
  11 H :    0.042698
  12 C :   -0.039931
  13 H :    0.020702
  14 H :    0.024263
  15 H :    0.047423
  16 S :    0.116647
  17 C :   -0.088767
  18 C :   -0.017478
  19 C :   -0.009212
  20 C :   -0.179062
  21 H :    0.006257
  22 C :    0.053657
  23 H :    0.030304
  24 H :    0.028916
  25 C :   -0.090271
  26 H :    0.049801
  27 H :    0.031600
  28 C :   -0.039573
  29 H :    0.010359
  30 H :    0.033100
  31 H :    0.035273
  32 H :    0.037021
  33 H :    0.039410
Sum of atomic charges:   -0.0000000

LOEWDIN ATOMIC CHARGES
----------------------
   0 S :    0.423788
   1 C :   -0.201304
   2 C :   -0.060110
   3 C :   -0.064668
   4 C :   -0.210322
   5 H :    0.031171
   6 C :   -0.028242
   7 H :    0.033186
   8 H :    0.028633
   9 C :   -0.034782
  10 H :    0.021746
  11 H :    0.033844
  12 C :   -0.069496
  13 H :    0.018281
  14 H :    0.023524
  15 H :    0.032107
  16 S :    0.417920
  17 C :   -0.176306
  18 C :   -0.068834
  19 C :   -0.053863
  20 C :   -0.212073
  21 H :    0.027964
  22 C :   -0.034821
  23 H :    0.036209
  24 H :    0.027978
  25 C :   -0.039711
  26 H :    0.026936
  27 H :    0.029900
  28 C :   -0.068496
  29 H :    0.018779
  30 H :    0.021717
  31 H :    0.028885
  32 H :    0.022093
  33 H :    0.018366

  Mayer bond orders larger than 0.100000
B(  0-S ,  1-C ) :   1.1586 B(  0-S ,  4-C ) :   1.1731 B(  1-C ,  2-C ) :   1.5728
B(  1-C ,  4-C ) :   0.1086 B(  1-C , 32-H ) :   0.9698 B(  2-C ,  3-C ) :   1.2689
B(  2-C ,  6-C ) :   1.0081 B(  3-C ,  4-C ) :   1.5681 B(  3-C ,  5-H ) :   0.9939
B(  4-C , 20-C ) :   0.9952 B(  6-C ,  7-H ) :   0.9404 B(  6-C ,  8-H ) :   0.9388
B(  6-C ,  9-C ) :   1.0566 B(  9-C , 10-H ) :   0.9574 B(  9-C , 11-H ) :   0.9594
B(  9-C , 12-C ) :   1.0793 B( 12-C , 13-H ) :   0.9734 B( 12-C , 14-H ) :   0.9742
B( 12-C , 15-H ) :   0.9768 B( 16-S , 17-C ) :   1.1708 B( 16-S , 20-C ) :   1.1514
B( 17-C , 18-C ) :   1.6129 B( 17-C , 33-H ) :   0.9699 B( 18-C , 19-C ) :   1.2280
B( 18-C , 21-H ) :   1.0005 B( 19-C , 20-C ) :   1.5945 B( 19-C , 22-C ) :   1.0558
B( 22-C , 23-H ) :   0.9299 B( 22-C , 24-H ) :   0.9352 B( 22-C , 25-C ) :   1.0593
B( 25-C , 26-H ) :   0.9620 B( 25-C , 27-H ) :   0.9576 B( 25-C , 28-C ) :   1.0735
B( 28-C , 29-H ) :   0.9693 B( 28-C , 30-H ) :   0.9762 B( 28-C , 31-H ) :   0.9768

Dispersion correction           -0.013767180
FINAL SINGLE POINT ENERGY     -1339.883324155381

DIPOLE MOMENT
-------------
                                X             Y             Z
Electronic contribution:    -15.40166     -18.34317       2.41072
Nuclear contribution   :     15.66700      18.73587      -2.68254
                        -----------------------------------------
Total Dipole Moment    :      0.26534       0.39270      -0.27182
                        -----------------------------------------
Magnitude (a.u.)       :      0.54635
Magnitude (Debye)      :      1.38872

Rotational constants in cm-1:     0.018502     0.007578     0.006486
Rotational constants in MHz :   554.661364   227.173109   194.436873

                             ****ORCA TERMINATED NORMALLY****
TOTAL RUN TIME: 0 days 0 hours 0 minutes 20 seconds 951 msec
