                         Program Version 4.2.1 -  RELEASE  -
|  1> ! wB97X-D3 SP def2-SVP
|  2> %pal
|  3> nprocs 24
|  4> end
|  5>
|  6> * xyz 0 1
|  7> S 	 -82.7864 	 -42.4219 	 -86.2269
|  8> C 	 -81.8232 	 -40.9274 	 -85.8791
|  9> C 	 -80.8265 	 -40.7967 	 -86.8065
| 10> C 	 -80.6515 	 -41.8824 	 -87.6591
| 11> C 	 -81.7118 	 -42.784 	 -87.5044
| 12> H 	 -79.8605 	 -41.9774 	 -88.4619
| 13> C 	 -79.8069 	 -39.6659 	 -86.7122
| 14> H 	 -79.053 	 -39.7754 	 -87.4658
| 15> H 	 -79.115 	 -39.847 	 -85.9068
| 16> C 	 -80.2186 	 -38.181 	 -86.6411
| 17> H 	 -80.6983 	 -37.9843 	 -87.5869
| 18> H 	 -80.9518 	 -38.0022 	 -85.878
| 19> C 	 -79.1486 	 -37.1647 	 -86.459
| 20> H 	 -79.5988 	 -36.1943 	 -86.76
| 21> H 	 -78.7844 	 -37.2239 	 -85.4718
| 22> H 	 -78.279 	 -37.2437 	 -86.9974
| 23> S 	 -81.7948 	 -45.4926 	 -87.5598
| 24> C 	 -82.2151 	 -46.3705 	 -88.9442
| 25> C 	 -82.644 	 -45.5369 	 -89.9164
| 26> C 	 -82.6114 	 -44.1369 	 -89.5766
| 27> C 	 -82.0314 	 -43.9453 	 -88.3357
| 28> H 	 -82.9051 	 -45.8991 	 -90.8864
| 29> C 	 -83.1192 	 -43.0346 	 -90.4863
| 30> H 	 -83.5041 	 -43.4894 	 -91.4332
| 31> H 	 -82.2016 	 -42.5514 	 -90.8788
| 32> C 	 -84.3657 	 -42.2427 	 -89.9976
| 33> H 	 -84.5293 	 -41.4546 	 -90.6981
| 34> H 	 -84.2035 	 -41.7912 	 -88.9707
| 35> C 	 -85.5222 	 -43.2667 	 -89.822
| 36> H 	 -86.4763 	 -42.7611 	 -89.5369
| 37> H 	 -85.2472 	 -43.9049 	 -88.9325
| 38> H 	 -85.6687 	 -43.8726 	 -90.6986
| 39> H 	 -82.028 	 -40.3012 	 -85.019
| 40> H 	 -82.0003 	 -47.3654 	 -89.0913
| 41> *
| 42>
| 43>                          ****END OF INPUT****

CARTESIAN COORDINATES (ANGSTROEM)
---------------------------------
  S    -82.786400  -42.421900  -86.226900
  C    -81.823200  -40.927400  -85.879100
  C    -80.826500  -40.796700  -86.806500
  C    -80.651500  -41.882400  -87.659100
  C    -81.711800  -42.784000  -87.504400
  H    -79.860500  -41.977400  -88.461900
  C    -79.806900  -39.665900  -86.712200
  H    -79.053000  -39.775400  -87.465800
  H    -79.115000  -39.847000  -85.906800
  C    -80.218600  -38.181000  -86.641100
  H    -80.698300  -37.984300  -87.586900
  H    -80.951800  -38.002200  -85.878000
  C    -79.148600  -37.164700  -86.459000
  H    -79.598800  -36.194300  -86.760000
  H    -78.784400  -37.223900  -85.471800
  H    -78.279000  -37.243700  -86.997400
  S    -81.794800  -45.492600  -87.559800
  C    -82.215100  -46.370500  -88.944200
  C    -82.644000  -45.536900  -89.916400
  C    -82.611400  -44.136900  -89.576600
  C    -82.031400  -43.945300  -88.335700
  H    -82.905100  -45.899100  -90.886400
  C    -83.119200  -43.034600  -90.486300
  H    -83.504100  -43.489400  -91.433200
  H    -82.201600  -42.551400  -90.878800
  C    -84.365700  -42.242700  -89.997600
  H    -84.529300  -41.454600  -90.698100
  H    -84.203500  -41.791200  -88.970700
  C    -85.522200  -43.266700  -89.822000
  H    -86.476300  -42.761100  -89.536900
  H    -85.247200  -43.904900  -88.932500
  H    -85.668700  -43.872600  -90.698600
  H    -82.028000  -40.301200  -85.019000
  H    -82.000300  -47.365400  -89.091300

 Total Charge           Charge          ....    0
 Multiplicity           Mult            ....    1
 Number of Electrons    NEL             ....  134
 Basis Dimension        Dim             ....  322

ORBITAL ENERGIES
----------------

  NO   OCC          E(Eh)            E(eV)
   0   2.0000     -88.968934     -2420.9678
   1   2.0000     -88.957948     -2420.6688
   2   2.0000     -10.329393      -281.0771
   3   2.0000     -10.320956      -280.8475
   4   2.0000     -10.314825      -280.6807
   5   2.0000     -10.302934      -280.3571
   6   2.0000     -10.302331      -280.3407
   7   2.0000     -10.300585      -280.2932
   8   2.0000     -10.299321      -280.2588
   9   2.0000     -10.293816      -280.1090
  10   2.0000     -10.288646      -279.9683
  11   2.0000     -10.286361      -279.9061
  12   2.0000     -10.286188      -279.9014
  13   2.0000     -10.280608      -279.7496
  14   2.0000     -10.278684      -279.6972
  15   2.0000     -10.268613      -279.4232
  16   2.0000      -8.083272      -219.9570
  17   2.0000      -8.074303      -219.7129
  18   2.0000      -6.041641      -164.4014
  19   2.0000      -6.037786      -164.2965
  20   2.0000      -6.034242      -164.2001
  21   2.0000      -6.032724      -164.1588
  22   2.0000      -6.028470      -164.0430
  23   2.0000      -6.025167      -163.9531
  24   2.0000      -1.011793       -27.5323
  25   2.0000      -0.988998       -26.9120
  26   2.0000      -0.915060       -24.9000
  27   2.0000      -0.904715       -24.6185
  28   2.0000      -0.875624       -23.8269
  29   2.0000      -0.850484       -23.1429
  30   2.0000      -0.842178       -22.9168
  31   2.0000      -0.814867       -22.1737
  32   2.0000      -0.785721       -21.3806
  33   2.0000      -0.770238       -20.9592
  34   2.0000      -0.710341       -19.3293
  35   2.0000      -0.705149       -19.1881
  36   2.0000      -0.688868       -18.7450
  37   2.0000      -0.663527       -18.0555
  38   2.0000      -0.642179       -17.4746
  39   2.0000      -0.616928       -16.7875
  40   2.0000      -0.592106       -16.1120
  41   2.0000      -0.571422       -15.5492
  42   2.0000      -0.565763       -15.3952
  43   2.0000      -0.550476       -14.9792
  44   2.0000      -0.548762       -14.9326
  45   2.0000      -0.533062       -14.5054
  46   2.0000      -0.515517       -14.0279
  47   2.0000      -0.513204       -13.9650
  48   2.0000      -0.504069       -13.7164
  49   2.0000      -0.496983       -13.5236
  50   2.0000      -0.483367       -13.1531
  51   2.0000      -0.474259       -12.9052
  52   2.0000      -0.471412       -12.8278
  53   2.0000      -0.464873       -12.6498
  54   2.0000      -0.460430       -12.5289
  55   2.0000      -0.457197       -12.4410
  56   2.0000      -0.438347       -11.9280
  57   2.0000      -0.432858       -11.7787
  58   2.0000      -0.429811       -11.6957
  59   2.0000      -0.426248       -11.5988
  60   2.0000      -0.416469       -11.3327
  61   2.0000      -0.414966       -11.2918
  62   2.0000      -0.407392       -11.0857
  63   2.0000      -0.338568        -9.2129
  64   2.0000      -0.329841        -8.9754
  65   2.0000      -0.323894        -8.8136
  66   2.0000      -0.304444        -8.2843
  67   0.0000       0.041367         1.1256
  68   0.0000       0.057883         1.5751
  69   0.0000       0.106740         2.9045
  70   0.0000       0.128242         3.4896
  71   0.0000       0.132706         3.6111

MULLIKEN ATOMIC CHARGES
-----------------------
   0 S :    0.117628
   1 C :   -0.142099
   2 C :   -0.034579
   3 C :    0.033262
   4 C :   -0.160090
   5 H :    0.040625
   6 C :    0.058201
   7 H :   -0.010745
   8 H :    0.018363
   9 C :   -0.055041
  10 H :    0.022521
  11 H :    0.021458
  12 C :   -0.009937
  13 H :    0.039779
  14 H :    0.017951
  15 H :    0.002465
  16 S :    0.103224
  17 C :   -0.041279
  18 C :   -0.032426
  19 C :   -0.042099
  20 C :   -0.206188
  21 H :    0.002460
  22 C :    0.053291
  23 H :    0.007002
  24 H :    0.042334
  25 C :   -0.052374
  26 H :    0.031482
  27 H :    0.047390
  28 C :   -0.080440
  29 H :    0.041055
  30 H :    0.055667
  31 H :    0.028644
  32 H :    0.053444
  33 H :    0.029051
Sum of atomic charges:   -0.0000000

LOEWDIN ATOMIC CHARGES
----------------------
   0 S :    0.410809
   1 C :   -0.180141
   2 C :   -0.061840
   3 C :   -0.066919
   4 C :   -0.203529
   5 H :    0.047072
   6 C :   -0.038430
   7 H :    0.023403
   8 H :    0.029812
   9 C :   -0.036931
  10 H :    0.022637
  11 H :    0.020807
  12 C :   -0.056439
  13 H :    0.038711
  14 H :    0.021345
  15 H :    0.012239
  16 S :    0.426586
  17 C :   -0.189446
  18 C :   -0.071514
  19 C :   -0.056271
  20 C :   -0.210036
  21 H :    0.024512
  22 C :   -0.042306
  23 H :    0.029559
  24 H :    0.036593
  25 C :   -0.036341
  26 H :    0.019179
  27 H :    0.027870
  28 C :   -0.067831
  29 H :    0.029243
  30 H :    0.036845
  31 H :    0.017145
  32 H :    0.027068
  33 H :    0.016538

  Mayer bond orders larger than 0.100000
B(  0-S ,  1-C ) :   1.1158 B(  0-S ,  4-C ) :   1.1945 B(  1-C ,  2-C ) :   1.5972
B(  1-C ,  4-C ) :   0.1062 B(  1-C , 32-H ) :   0.9767 B(  2-C ,  3-C ) :   1.2574
B(  2-C ,  6-C ) :   1.0137 B(  3-C ,  4-C ) :   1.5598 B(  3-C ,  5-H ) :   0.9850
B(  4-C , 20-C ) :   0.9888 B(  6-C ,  7-H ) :   0.9338 B(  6-C ,  8-H ) :   0.9353
B(  6-C ,  9-C ) :   1.0563 B(  9-C , 10-H ) :   0.9581 B(  9-C , 11-H ) :   0.9546
B(  9-C , 12-C ) :   1.0908 B( 12-C , 13-H ) :   0.9722 B( 12-C , 14-H ) :   0.9711
B( 12-C , 15-H ) :   0.9729 B( 16-S , 17-C ) :   1.1637 B( 16-S , 20-C ) :   1.1613
B( 17-C , 18-C ) :   1.6023 B( 17-C , 33-H ) :   0.9756 B( 18-C , 19-C ) :   1.2431
B( 18-C , 21-H ) :   0.9935 B( 19-C , 20-C ) :   1.5978 B( 19-C , 22-C ) :   1.0329
B( 22-C , 23-H ) :   0.9356 B( 22-C , 24-H ) :   0.9348 B( 22-C , 25-C ) :   1.0479
B( 25-C , 26-H ) :   0.9602 B( 25-C , 27-H ) :   0.9586 B( 25-C , 28-C ) :   1.0585
B( 28-C , 29-H ) :   0.9746 B( 28-C , 30-H ) :   0.9717 B( 28-C , 31-H ) :   0.9791

Dispersion correction           -0.014759164
FINAL SINGLE POINT ENERGY     -1339.865170329529

DIPOLE MOMENT
-------------
                                X             Y             Z
Electronic contribution:     -0.75655     -22.21271       8.06759
Nuclear contribution   :      0.99569      22.61015      -8.43030
                        -----------------------------------------
Total Dipole Moment    :      0.23914       0.39744      -0.36271
                        -----------------------------------------
Magnitude (a.u.)       :      0.58882
Magnitude (Debye)      :      1.49666

Rotational constants in cm-1:     0.023888     0.007378     0.006662
Rotational constants in MHz :   716.148765   221.186767   199.718495

                             ****ORCA TERMINATED NORMALLY****
TOTAL RUN TIME: 0 days 0 hours 0 minutes 21 seconds 566 msec
