                         Program Version 4.2.1 -  RELEASE  -
|  1> ! wB97X-D3 SP def2-SVP
|  2> %pal
|  3> nprocs 24
|  4> end
|  5>
|  6> * xyz 0 1
|  7> S 	 -138.684 	 9.82937 	 5.34932
|  8> C 	 -137.829 	 10.2905 	 3.90458
|  9> C 	 -138.459 	 9.81022 	 2.75062
| 10> C 	 -139.628 	 9.00669 	 3.1298
| 11> C 	 -139.866 	 8.87417 	 4.47266
| 12> H 	 -140.294 	 8.55585 	 2.48131
| 13> C 	 -137.948 	 10.0566 	 1.32902
| 14> H 	 -137.213 	 10.8716 	 1.35352
| 15> H 	 -138.846 	 10.5258 	 0.893501
| 16> C 	 -137.569 	 8.92472 	 0.491155
| 17> H 	 -136.588 	 8.47103 	 0.589996
| 18> H 	 -138.245 	 8.09072 	 0.653434
| 19> C 	 -137.786 	 9.23207 	 -0.977126
| 20> H 	 -138.851 	 9.14251 	 -1.29898
| 21> H 	 -137.412 	 10.2668 	 -1.15054
| 22> H 	 -137.061 	 8.67057 	 -1.60175
| 23> S 	 -140.585 	 6.57546 	 5.87427
| 24> C 	 -142.347 	 6.31531 	 6.1613
| 25> C 	 -143.095 	 7.1917 	 5.40464
| 26> C 	 -142.323 	 8.17433 	 4.77095
| 27> C 	 -140.971 	 8.08036 	 5.05629
| 28> H 	 -144.135 	 7.10684 	 5.42516
| 29> C 	 -142.998 	 9.41449 	 4.17785
| 30> H 	 -142.427 	 10.2885 	 4.43233
| 31> H 	 -143.917 	 9.68488 	 4.70537
| 32> C 	 -143.338 	 9.34063 	 2.6723
| 33> H 	 -143.981 	 8.49035 	 2.49095
| 34> H 	 -142.535 	 9.07191 	 2.03541
| 35> C 	 -144.12 	 10.5604 	 2.12953
| 36> H 	 -143.722 	 11.4066 	 2.64259
| 37> H 	 -145.18 	 10.5965 	 2.39714
| 38> H 	 -144.046 	 10.7078 	 1.07143
| 39> H 	 -136.816 	 10.7474 	 3.81391
| 40> H 	 -142.792 	 5.42163 	 6.61906
| 41> *
| 42>
| 43>                          ****END OF INPUT****

CARTESIAN COORDINATES (ANGSTROEM)
---------------------------------
  S    -138.684000    9.829370    5.349320
  C    -137.829000   10.290500    3.904580
  C    -138.459000    9.810220    2.750620
  C    -139.628000    9.006690    3.129800
  C    -139.866000    8.874170    4.472660
  H    -140.294000    8.555850    2.481310
  C    -137.948000   10.056600    1.329020
  H    -137.213000   10.871600    1.353520
  H    -138.846000   10.525800    0.893501
  C    -137.569000    8.924720    0.491155
  H    -136.588000    8.471030    0.589996
  H    -138.245000    8.090720    0.653434
  C    -137.786000    9.232070   -0.977126
  H    -138.851000    9.142510   -1.298980
  H    -137.412000   10.266800   -1.150540
  H    -137.061000    8.670570   -1.601750
  S    -140.585000    6.575460    5.874270
  C    -142.347000    6.315310    6.161300
  C    -143.095000    7.191700    5.404640
  C    -142.323000    8.174330    4.770950
  C    -140.971000    8.080360    5.056290
  H    -144.135000    7.106840    5.425160
  C    -142.998000    9.414490    4.177850
  H    -142.427000   10.288500    4.432330
  H    -143.917000    9.684880    4.705370
  C    -143.338000    9.340630    2.672300
  H    -143.981000    8.490350    2.490950
  H    -142.535000    9.071910    2.035410
  C    -144.120000   10.560400    2.129530
  H    -143.722000   11.406600    2.642590
  H    -145.180000   10.596500    2.397140
  H    -144.046000   10.707800    1.071430
  H    -136.816000   10.747400    3.813910
  H    -142.792000    5.421630    6.619060

 Total Charge           Charge          ....    0
 Multiplicity           Mult            ....    1
 Number of Electrons    NEL             ....  134
 Basis Dimension        Dim             ....  322

ORBITAL ENERGIES
----------------

  NO   OCC          E(Eh)            E(eV)
   0   2.0000     -88.967929     -2420.9404
   1   2.0000     -88.964981     -2420.8602
   2   2.0000     -10.330321      -281.1023
   3   2.0000     -10.328792      -281.0607
   4   2.0000     -10.322083      -280.8781
   5   2.0000     -10.316712      -280.7320
   6   2.0000     -10.305676      -280.4317
   7   2.0000     -10.302991      -280.3586
   8   2.0000     -10.294869      -280.1376
   9   2.0000     -10.291457      -280.0448
  10   2.0000     -10.290929      -280.0304
  11   2.0000     -10.290046      -280.0064
  12   2.0000     -10.283265      -279.8219
  13   2.0000     -10.282769      -279.8084
  14   2.0000     -10.280264      -279.7402
  15   2.0000     -10.273905      -279.5672
  16   2.0000      -8.081791      -219.9167
  17   2.0000      -8.079540      -219.8555
  18   2.0000      -6.040280      -164.3644
  19   2.0000      -6.038179      -164.3072
  20   2.0000      -6.036583      -164.2638
  21   2.0000      -6.033934      -164.1917
  22   2.0000      -6.032446      -164.1512
  23   2.0000      -6.030308      -164.0930
  24   2.0000      -1.003638       -27.3104
  25   2.0000      -0.981826       -26.7168
  26   2.0000      -0.922929       -25.1142
  27   2.0000      -0.904505       -24.6128
  28   2.0000      -0.870996       -23.7010
  29   2.0000      -0.850868       -23.1533
  30   2.0000      -0.846093       -23.0234
  31   2.0000      -0.817047       -22.2330
  32   2.0000      -0.780704       -21.2440
  33   2.0000      -0.769872       -20.9493
  34   2.0000      -0.709768       -19.3138
  35   2.0000      -0.703185       -19.1346
  36   2.0000      -0.693199       -18.8629
  37   2.0000      -0.664424       -18.0799
  38   2.0000      -0.643273       -17.5043
  39   2.0000      -0.620347       -16.8805
  40   2.0000      -0.598372       -16.2825
  41   2.0000      -0.575110       -15.6495
  42   2.0000      -0.569208       -15.4889
  43   2.0000      -0.553951       -15.0738
  44   2.0000      -0.531554       -14.4643
  45   2.0000      -0.525781       -14.3072
  46   2.0000      -0.514575       -14.0023
  47   2.0000      -0.510999       -13.9050
  48   2.0000      -0.507607       -13.8127
  49   2.0000      -0.502531       -13.6746
  50   2.0000      -0.494643       -13.4599
  51   2.0000      -0.478569       -13.0225
  52   2.0000      -0.466423       -12.6920
  53   2.0000      -0.463015       -12.5993
  54   2.0000      -0.458746       -12.4831
  55   2.0000      -0.450438       -12.2570
  56   2.0000      -0.445694       -12.1279
  57   2.0000      -0.440637       -11.9904
  58   2.0000      -0.436919       -11.8892
  59   2.0000      -0.424732       -11.5576
  60   2.0000      -0.417263       -11.3543
  61   2.0000      -0.411877       -11.2077
  62   2.0000      -0.408481       -11.1153
  63   2.0000      -0.342740        -9.3264
  64   2.0000      -0.330448        -8.9920
  65   2.0000      -0.325150        -8.8478
  66   2.0000      -0.304093        -8.2748
  67   0.0000       0.030932         0.8417
  68   0.0000       0.065859         1.7921
  69   0.0000       0.110359         3.0030
  70   0.0000       0.118519         3.2251
  71   0.0000       0.129249         3.5170

MULLIKEN ATOMIC CHARGES
-----------------------
   0 S :    0.113411
   1 C :   -0.134962
   2 C :   -0.110409
   3 C :    0.069766
   4 C :   -0.163439
   5 H :   -0.026764
   6 C :    0.075428
   7 H :    0.019765
   8 H :    0.033115
   9 C :   -0.028795
  10 H :    0.030212
  11 H :    0.022658
  12 C :   -0.094697
  13 H :    0.053065
  14 H :    0.024405
  15 H :    0.032012
  16 S :    0.104726
  17 C :   -0.097330
  18 C :   -0.014963
  19 C :    0.010258
  20 C :   -0.160558
  21 H :    0.001838
  22 C :    0.050179
  23 H :    0.026652
  24 H :    0.017691
  25 C :   -0.052308
  26 H :    0.013050
  27 H :    0.009309
  28 C :   -0.029751
  29 H :    0.015098
  30 H :    0.029718
  31 H :    0.032829
  32 H :    0.064624
  33 H :    0.064167
Sum of atomic charges:   -0.0000000

LOEWDIN ATOMIC CHARGES
----------------------
   0 S :    0.403772
   1 C :   -0.212697
   2 C :   -0.060249
   3 C :   -0.049797
   4 C :   -0.199927
   5 H :    0.013319
   6 C :   -0.035435
   7 H :    0.031265
   8 H :    0.041484
   9 C :   -0.051380
  10 H :    0.027063
  11 H :    0.027446
  12 C :   -0.069181
  13 H :    0.030039
  14 H :    0.023754
  15 H :    0.028686
  16 S :    0.388344
  17 C :   -0.169096
  18 C :   -0.059270
  19 C :   -0.055729
  20 C :   -0.191143
  21 H :    0.024930
  22 C :   -0.027820
  23 H :    0.029152
  24 H :    0.031819
  25 C :   -0.039750
  26 H :    0.021754
  27 H :    0.015205
  28 C :   -0.062767
  29 H :    0.020635
  30 H :    0.026295
  31 H :    0.025152
  32 H :    0.040545
  33 H :    0.033581

  Mayer bond orders larger than 0.100000
B(  0-S ,  1-C ) :   1.1422 B(  0-S ,  4-C ) :   1.1340 B(  1-C ,  2-C ) :   1.6250
B(  1-C , 32-H ) :   0.9575 B(  2-C ,  3-C ) :   1.2189 B(  2-C ,  6-C ) :   1.0171
B(  3-C ,  4-C ) :   1.6027 B(  3-C ,  5-H ) :   1.0036 B(  4-C , 20-C ) :   1.0125
B(  6-C ,  7-H ) :   0.9326 B(  6-C ,  8-H ) :   0.9375 B(  6-C ,  9-C ) :   1.0654
B(  9-C , 10-H ) :   0.9539 B(  9-C , 11-H ) :   0.9547 B(  9-C , 12-C ) :   1.0735
B( 12-C , 13-H ) :   0.9766 B( 12-C , 14-H ) :   0.9751 B( 12-C , 15-H ) :   0.9736
B( 16-S , 17-C ) :   1.1377 B( 16-S , 20-C ) :   1.1512 B( 17-C , 18-C ) :   1.6206
B( 17-C , 20-C ) :   0.1020 B( 17-C , 33-H ) :   0.9634 B( 18-C , 19-C ) :   1.2427
B( 18-C , 21-H ) :   0.9989 B( 19-C , 20-C ) :   1.5969 B( 19-C , 22-C ) :   1.0301
B( 22-C , 23-H ) :   0.9390 B( 22-C , 24-H ) :   0.9486 B( 22-C , 25-C ) :   1.0466
B( 25-C , 26-H ) :   0.9533 B( 25-C , 27-H ) :   0.9573 B( 25-C , 28-C ) :   1.0763
B( 28-C , 29-H ) :   0.9757 B( 28-C , 30-H ) :   0.9750 B( 28-C , 31-H ) :   0.9755

Dispersion correction           -0.014052499
FINAL SINGLE POINT ENERGY     -1339.865274449809

DIPOLE MOMENT
-------------
                                X             Y             Z
Electronic contribution:      6.84840      -9.35144      27.87610
Nuclear contribution   :     -7.15417       9.39529     -28.52503
                        -----------------------------------------
Total Dipole Moment    :     -0.30577       0.04385      -0.64893
                        -----------------------------------------
Magnitude (a.u.)       :      0.71870
Magnitude (Debye)      :      1.82680

Rotational constants in cm-1:     0.016137     0.008793     0.007009
Rotational constants in MHz :   483.779413   263.611462   210.114399

                             ****ORCA TERMINATED NORMALLY****
TOTAL RUN TIME: 0 days 0 hours 0 minutes 21 seconds 431 msec
