                         Program Version 4.2.1 -  RELEASE  -
|  1> ! wB97X-D3 SP def2-SVP
|  2> %pal
|  3> nprocs 24
|  4> end
|  5>
|  6> * xyz 0 1
|  7> S 	 -95.5768 	 49.9319 	 -103.33
|  8> C 	 -94.7785 	 49.2385 	 -101.954
|  9> C 	 -94.2298 	 50.2614 	 -101.128
| 10> C 	 -94.4861 	 51.5472 	 -101.639
| 11> C 	 -95.3628 	 51.5389 	 -102.66
| 12> H 	 -94.1015 	 52.5073 	 -101.216
| 13> C 	 -93.4871 	 50.0087 	 -99.899
| 14> H 	 -93.2879 	 51.0026 	 -99.4955
| 15> H 	 -92.5525 	 49.6683 	 -100.189
| 16> C 	 -94.1342 	 49.1819 	 -98.7018
| 17> H 	 -95.0302 	 49.6831 	 -98.3412
| 18> H 	 -94.4016 	 48.1316 	 -98.9368
| 19> C 	 -93.1362 	 49.0122 	 -97.5879
| 20> H 	 -93.5329 	 48.3216 	 -96.8312
| 21> H 	 -92.1864 	 48.562 	 -97.9392
| 22> H 	 -92.888 	 49.9851 	 -97.094
| 23> S 	 -95.5168 	 53.0382 	 -104.974
| 24> C 	 -95.8173 	 54.7636 	 -104.877
| 25> C 	 -96.2679 	 55.1055 	 -103.622
| 26> C 	 -96.3068 	 54.0212 	 -102.693
| 27> C 	 -95.8079 	 52.8174 	 -103.261
| 28> H 	 -96.5732 	 56.1113 	 -103.336
| 29> C 	 -96.7092 	 54.1715 	 -101.204
| 30> H 	 -96.8304 	 53.1826 	 -100.762
| 31> H 	 -97.7078 	 54.5134 	 -101.193
| 32> C 	 -95.8452 	 55.1958 	 -100.335
| 33> H 	 -95.8611 	 56.1919 	 -100.898
| 34> H 	 -94.7294 	 54.9886 	 -100.409
| 35> C 	 -96.2498 	 55.1554 	 -98.8544
| 36> H 	 -95.6412 	 55.9771 	 -98.4567
| 37> H 	 -96.0325 	 54.3494 	 -98.1743
| 38> H 	 -97.3181 	 55.465 	 -98.6793
| 39> H 	 -94.795 	 48.1721 	 -101.702
| 40> H 	 -95.7238 	 55.4538 	 -105.708
| 41> *
| 42>
| 43>                          ****END OF INPUT****

CARTESIAN COORDINATES (ANGSTROEM)
---------------------------------
  S    -95.576800   49.931900  -103.330000
  C    -94.778500   49.238500  -101.954000
  C    -94.229800   50.261400  -101.128000
  C    -94.486100   51.547200  -101.639000
  C    -95.362800   51.538900  -102.660000
  H    -94.101500   52.507300  -101.216000
  C    -93.487100   50.008700  -99.899000
  H    -93.287900   51.002600  -99.495500
  H    -92.552500   49.668300  -100.189000
  C    -94.134200   49.181900  -98.701800
  H    -95.030200   49.683100  -98.341200
  H    -94.401600   48.131600  -98.936800
  C    -93.136200   49.012200  -97.587900
  H    -93.532900   48.321600  -96.831200
  H    -92.186400   48.562000  -97.939200
  H    -92.888000   49.985100  -97.094000
  S    -95.516800   53.038200  -104.974000
  C    -95.817300   54.763600  -104.877000
  C    -96.267900   55.105500  -103.622000
  C    -96.306800   54.021200  -102.693000
  C    -95.807900   52.817400  -103.261000
  H    -96.573200   56.111300  -103.336000
  C    -96.709200   54.171500  -101.204000
  H    -96.830400   53.182600  -100.762000
  H    -97.707800   54.513400  -101.193000
  C    -95.845200   55.195800  -100.335000
  H    -95.861100   56.191900  -100.898000
  H    -94.729400   54.988600  -100.409000
  C    -96.249800   55.155400  -98.854400
  H    -95.641200   55.977100  -98.456700
  H    -96.032500   54.349400  -98.174300
  H    -97.318100   55.465000  -98.679300
  H    -94.795000   48.172100  -101.702000
  H    -95.723800   55.453800  -105.708000

 Total Charge           Charge          ....    0
 Multiplicity           Mult            ....    1
 Number of Electrons    NEL             ....  134
 Basis Dimension        Dim             ....  322

ORBITAL ENERGIES
----------------

  NO   OCC          E(Eh)            E(eV)
   0   2.0000     -88.968215     -2420.9482
   1   2.0000     -88.962687     -2420.7978
   2   2.0000     -10.328862      -281.0626
   3   2.0000     -10.325173      -280.9622
   4   2.0000     -10.317099      -280.7425
   5   2.0000     -10.313817      -280.6532
   6   2.0000     -10.306930      -280.4658
   7   2.0000     -10.306253      -280.4474
   8   2.0000     -10.297079      -280.1978
   9   2.0000     -10.294431      -280.1257
  10   2.0000     -10.293475      -280.0997
  11   2.0000     -10.290930      -280.0305
  12   2.0000     -10.289562      -279.9932
  13   2.0000     -10.286063      -279.8980
  14   2.0000     -10.284883      -279.8659
  15   2.0000     -10.282443      -279.7995
  16   2.0000      -8.082839      -219.9452
  17   2.0000      -8.077504      -219.8001
  18   2.0000      -6.041383      -164.3944
  19   2.0000      -6.037404      -164.2861
  20   2.0000      -6.035983      -164.2474
  21   2.0000      -6.033552      -164.1813
  22   2.0000      -6.031985      -164.1386
  23   2.0000      -6.028311      -164.0387
  24   2.0000      -1.005930       -27.3728
  25   2.0000      -0.982347       -26.7310
  26   2.0000      -0.912107       -24.8197
  27   2.0000      -0.897639       -24.4260
  28   2.0000      -0.866698       -23.5841
  29   2.0000      -0.858633       -23.3646
  30   2.0000      -0.846754       -23.0413
  31   2.0000      -0.815211       -22.1830
  32   2.0000      -0.779185       -21.2027
  33   2.0000      -0.764859       -20.8129
  34   2.0000      -0.704894       -19.1811
  35   2.0000      -0.702640       -19.1198
  36   2.0000      -0.692485       -18.8435
  37   2.0000      -0.657408       -17.8890
  38   2.0000      -0.637782       -17.3549
  39   2.0000      -0.616480       -16.7753
  40   2.0000      -0.594357       -16.1733
  41   2.0000      -0.570555       -15.5256
  42   2.0000      -0.561095       -15.2682
  43   2.0000      -0.549242       -14.9456
  44   2.0000      -0.525434       -14.2978
  45   2.0000      -0.521615       -14.1939
  46   2.0000      -0.517436       -14.0802
  47   2.0000      -0.513941       -13.9850
  48   2.0000      -0.505809       -13.7638
  49   2.0000      -0.496406       -13.5079
  50   2.0000      -0.491825       -13.3832
  51   2.0000      -0.486555       -13.2398
  52   2.0000      -0.470823       -12.8117
  53   2.0000      -0.462378       -12.5820
  54   2.0000      -0.459384       -12.5005
  55   2.0000      -0.452283       -12.3073
  56   2.0000      -0.446975       -12.1628
  57   2.0000      -0.434951       -11.8356
  58   2.0000      -0.430865       -11.7244
  59   2.0000      -0.429402       -11.6846
  60   2.0000      -0.422929       -11.5085
  61   2.0000      -0.416030       -11.3208
  62   2.0000      -0.404631       -11.0106
  63   2.0000      -0.348371        -9.4797
  64   2.0000      -0.331231        -9.0133
  65   2.0000      -0.323259        -8.7963
  66   2.0000      -0.285663        -7.7733
  67   0.0000       0.031186         0.8486
  68   0.0000       0.066894         1.8203
  69   0.0000       0.108388         2.9494
  70   0.0000       0.121872         3.3163
  71   0.0000       0.132088         3.5943

MULLIKEN ATOMIC CHARGES
-----------------------
   0 S :    0.117681
   1 C :   -0.128142
   2 C :   -0.096409
   3 C :    0.009154
   4 C :   -0.130468
   5 H :    0.033276
   6 C :    0.092202
   7 H :    0.003836
   8 H :    0.018589
   9 C :   -0.061242
  10 H :    0.035767
  11 H :    0.030581
  12 C :   -0.073223
  13 H :    0.037355
  14 H :    0.032060
  15 H :    0.033171
  16 S :    0.098388
  17 C :   -0.093562
  18 C :   -0.033441
  19 C :   -0.051167
  20 C :   -0.165808
  21 H :    0.019605
  22 C :    0.089586
  23 H :    0.026788
  24 H :    0.015086
  25 C :   -0.121687
  26 H :    0.042456
  27 H :    0.037684
  28 C :   -0.050644
  29 H :    0.029629
  30 H :    0.045424
  31 H :    0.039135
  32 H :    0.058404
  33 H :    0.059936
Sum of atomic charges:    0.0000000

LOEWDIN ATOMIC CHARGES
----------------------
   0 S :    0.409911
   1 C :   -0.209072
   2 C :   -0.063309
   3 C :   -0.063119
   4 C :   -0.196434
   5 H :    0.042413
   6 C :   -0.032179
   7 H :    0.031023
   8 H :    0.025657
   9 C :   -0.034735
  10 H :    0.026421
  11 H :    0.025139
  12 C :   -0.071232
  13 H :    0.027548
  14 H :    0.026255
  15 H :    0.024934
  16 S :    0.401088
  17 C :   -0.185596
  18 C :   -0.075327
  19 C :   -0.058654
  20 C :   -0.191786
  21 H :    0.031004
  22 C :   -0.035428
  23 H :    0.030695
  24 H :    0.025595
  25 C :   -0.047785
  26 H :    0.033258
  27 H :    0.027021
  28 C :   -0.076858
  29 H :    0.032409
  30 H :    0.027968
  31 H :    0.031137
  32 H :    0.031176
  33 H :    0.030858

  Mayer bond orders larger than 0.100000
B(  0-S ,  1-C ) :   1.1410 B(  0-S ,  4-C ) :   1.1551 B(  1-C ,  2-C ) :   1.5675
B(  1-C , 32-H ) :   0.9711 B(  2-C ,  3-C ) :   1.2664 B(  2-C ,  6-C ) :   1.0338
B(  3-C ,  4-C ) :   1.5620 B(  3-C ,  5-H ) :   0.9830 B(  4-C , 20-C ) :   1.0242
B(  6-C ,  7-H ) :   0.9375 B(  6-C ,  8-H ) :   0.9258 B(  6-C ,  9-C ) :   1.0536
B(  9-C , 10-H ) :   0.9567 B(  9-C , 11-H ) :   0.9570 B(  9-C , 12-C ) :   1.0867
B( 12-C , 13-H ) :   0.9736 B( 12-C , 14-H ) :   0.9737 B( 12-C , 15-H ) :   0.9740
B( 16-S , 17-C ) :   1.1560 B( 16-S , 20-C ) :   1.1524 B( 17-C , 18-C ) :   1.5897
B( 17-C , 20-C ) :   0.1006 B( 17-C , 33-H ) :   0.9706 B( 18-C , 19-C ) :   1.2608
B( 18-C , 21-H ) :   0.9884 B( 19-C , 20-C ) :   1.5780 B( 19-C , 22-C ) :   1.0425
B( 22-C , 23-H ) :   0.9413 B( 22-C , 24-H ) :   0.9280 B( 22-C , 25-C ) :   1.0396
B( 25-C , 26-H ) :   0.9544 B( 25-C , 27-H ) :   0.9576 B( 25-C , 28-C ) :   1.0669
B( 28-C , 29-H ) :   0.9711 B( 28-C , 30-H ) :   0.9776 B( 28-C , 31-H ) :   0.9740

Dispersion correction           -0.013899408
FINAL SINGLE POINT ENERGY     -1339.867389792013

DIPOLE MOMENT
-------------
                                X             Y             Z
Electronic contribution:     -5.03749      -4.17441     -32.77381
Nuclear contribution   :      5.20380       4.45937      33.55350
                        -----------------------------------------
Total Dipole Moment    :      0.16631       0.28497       0.77969
                        -----------------------------------------
Magnitude (a.u.)       :      0.84663
Magnitude (Debye)      :      2.15195

Rotational constants in cm-1:     0.017148     0.008919     0.006217
Rotational constants in MHz :   514.076503   267.390018   186.380311

                             ****ORCA TERMINATED NORMALLY****
TOTAL RUN TIME: 0 days 0 hours 0 minutes 20 seconds 327 msec
