                         Program Version 4.2.1 -  RELEASE  -
|  1> ! wB97X-D3 SP def2-SVP
|  2> %pal
|  3> nprocs 24
|  4> end
|  5>
|  6> * xyz 0 1
|  7> S 	 -63.0412 	 -0.34598 	 -21.5097
|  8> C 	 -64.2968 	 0.611391 	 -22.1857
|  9> C 	 -63.8586 	 1.85089 	 -22.6236
| 10> C 	 -62.7097 	 2.14112 	 -21.9946
| 11> C 	 -62.1194 	 1.08542 	 -21.3094
| 12> H 	 -62.193 	 3.16529 	 -22.066
| 13> C 	 -64.5694 	 2.77605 	 -23.5137
| 14> H 	 -65.3813 	 3.14894 	 -22.8356
| 15> H 	 -64.996 	 2.19889 	 -24.2714
| 16> C 	 -63.9295 	 4.06271 	 -24.0926
| 17> H 	 -63.4416 	 4.49721 	 -23.1968
| 18> H 	 -63.1829 	 3.89133 	 -24.8286
| 19> C 	 -64.9983 	 4.99797 	 -24.7529
| 20> H 	 -65.5427 	 4.38792 	 -25.4476
| 21> H 	 -65.6617 	 5.24471 	 -23.9326
| 22> H 	 -64.6298 	 5.91447 	 -25.177
| 23> S 	 -61.0051 	 0.897588 	 -18.7796
| 24> C 	 -59.2783 	 0.910585 	 -18.5658
| 25> C 	 -58.7507 	 1.39031 	 -19.7211
| 26> C 	 -59.6154 	 1.44909 	 -20.85
| 27> C 	 -60.8792 	 1.08906 	 -20.5322
| 28> H 	 -57.7677 	 1.72456 	 -19.724
| 29> C 	 -59.2001 	 1.8855 	 -22.207
| 30> H 	 -58.2543 	 2.40128 	 -22.0532
| 31> H 	 -59.896 	 2.66821 	 -22.5015
| 32> C 	 -58.9259 	 0.84504 	 -23.3024
| 33> H 	 -59.8183 	 0.190232 	 -23.5212
| 34> H 	 -58.1319 	 0.183877 	 -22.9921
| 35> C 	 -58.7019 	 1.49391 	 -24.6978
| 36> H 	 -59.568 	 1.72879 	 -25.3304
| 37> H 	 -58.1522 	 0.77105 	 -25.317
| 38> H 	 -58.1096 	 2.42529 	 -24.5152
| 39> H 	 -65.1487 	 0.178708 	 -22.6459
| 40> H 	 -58.7023 	 1.06449 	 -17.6114
| 41> *
| 42>
| 43>                          ****END OF INPUT****

CARTESIAN COORDINATES (ANGSTROEM)
---------------------------------
  S    -63.041200   -0.345980  -21.509700
  C    -64.296800    0.611391  -22.185700
  C    -63.858600    1.850890  -22.623600
  C    -62.709700    2.141120  -21.994600
  C    -62.119400    1.085420  -21.309400
  H    -62.193000    3.165290  -22.066000
  C    -64.569400    2.776050  -23.513700
  H    -65.381300    3.148940  -22.835600
  H    -64.996000    2.198890  -24.271400
  C    -63.929500    4.062710  -24.092600
  H    -63.441600    4.497210  -23.196800
  H    -63.182900    3.891330  -24.828600
  C    -64.998300    4.997970  -24.752900
  H    -65.542700    4.387920  -25.447600
  H    -65.661700    5.244710  -23.932600
  H    -64.629800    5.914470  -25.177000
  S    -61.005100    0.897588  -18.779600
  C    -59.278300    0.910585  -18.565800
  C    -58.750700    1.390310  -19.721100
  C    -59.615400    1.449090  -20.850000
  C    -60.879200    1.089060  -20.532200
  H    -57.767700    1.724560  -19.724000
  C    -59.200100    1.885500  -22.207000
  H    -58.254300    2.401280  -22.053200
  H    -59.896000    2.668210  -22.501500
  C    -58.925900    0.845040  -23.302400
  H    -59.818300    0.190232  -23.521200
  H    -58.131900    0.183877  -22.992100
  C    -58.701900    1.493910  -24.697800
  H    -59.568000    1.728790  -25.330400
  H    -58.152200    0.771050  -25.317000
  H    -58.109600    2.425290  -24.515200
  H    -65.148700    0.178708  -22.645900
  H    -58.702300    1.064490  -17.611400

 Total Charge           Charge          ....    0
 Multiplicity           Mult            ....    1
 Number of Electrons    NEL             ....  134
 Basis Dimension        Dim             ....  322

ORBITAL ENERGIES
----------------

  NO   OCC          E(Eh)            E(eV)
   0   2.0000     -88.970035     -2420.9977
   1   2.0000     -88.957477     -2420.6560
   2   2.0000     -10.323230      -280.9094
   3   2.0000     -10.319893      -280.8186
   4   2.0000     -10.313324      -280.6398
   5   2.0000     -10.302476      -280.3446
   6   2.0000     -10.293626      -280.1038
   7   2.0000     -10.292991      -280.0865
   8   2.0000     -10.291532      -280.0468
   9   2.0000     -10.290954      -280.0311
  10   2.0000     -10.290272      -280.0125
  11   2.0000     -10.288319      -279.9594
  12   2.0000     -10.286942      -279.9219
  13   2.0000     -10.282512      -279.8014
  14   2.0000     -10.282021      -279.7880
  15   2.0000     -10.281909      -279.7850
  16   2.0000      -8.085551      -220.0190
  17   2.0000      -8.072409      -219.6614
  18   2.0000      -6.043661      -164.4564
  19   2.0000      -6.040131      -164.3603
  20   2.0000      -6.036503      -164.2616
  21   2.0000      -6.031005      -164.1120
  22   2.0000      -6.026995      -164.0029
  23   2.0000      -6.022920      -163.8920
  24   2.0000      -1.017849       -27.6971
  25   2.0000      -0.994733       -27.0681
  26   2.0000      -0.920035       -25.0354
  27   2.0000      -0.906970       -24.6799
  28   2.0000      -0.872080       -23.7305
  29   2.0000      -0.857128       -23.3236
  30   2.0000      -0.846407       -23.0319
  31   2.0000      -0.816422       -22.2160
  32   2.0000      -0.785325       -21.3698
  33   2.0000      -0.771565       -20.9954
  34   2.0000      -0.717578       -19.5263
  35   2.0000      -0.698431       -19.0053
  36   2.0000      -0.690837       -18.7986
  37   2.0000      -0.660783       -17.9808
  38   2.0000      -0.637919       -17.3587
  39   2.0000      -0.626551       -17.0493
  40   2.0000      -0.592652       -16.1269
  41   2.0000      -0.580623       -15.7996
  42   2.0000      -0.571807       -15.5597
  43   2.0000      -0.557824       -15.1792
  44   2.0000      -0.533480       -14.5167
  45   2.0000      -0.524299       -14.2669
  46   2.0000      -0.515871       -14.0376
  47   2.0000      -0.510719       -13.8974
  48   2.0000      -0.504169       -13.7191
  49   2.0000      -0.496690       -13.5156
  50   2.0000      -0.488317       -13.2878
  51   2.0000      -0.480521       -13.0756
  52   2.0000      -0.476515       -12.9666
  53   2.0000      -0.470423       -12.8009
  54   2.0000      -0.458855       -12.4861
  55   2.0000      -0.456923       -12.4335
  56   2.0000      -0.441621       -12.0171
  57   2.0000      -0.438194       -11.9239
  58   2.0000      -0.434518       -11.8238
  59   2.0000      -0.429959       -11.6998
  60   2.0000      -0.423997       -11.5375
  61   2.0000      -0.419904       -11.4262
  62   2.0000      -0.401474       -10.9247
  63   2.0000      -0.341144        -9.2830
  64   2.0000      -0.329272        -8.9599
  65   2.0000      -0.322653        -8.7798
  66   2.0000      -0.297313        -8.0903
  67   0.0000       0.030438         0.8283
  68   0.0000       0.061366         1.6699
  69   0.0000       0.111887         3.0446
  70   0.0000       0.114758         3.1227
  71   0.0000       0.134292         3.6543

MULLIKEN ATOMIC CHARGES
-----------------------
   0 S :    0.151911
   1 C :   -0.107896
   2 C :   -0.080951
   3 C :   -0.006861
   4 C :   -0.186110
   5 H :    0.039683
   6 C :    0.044754
   7 H :    0.050297
   8 H :    0.013633
   9 C :   -0.086665
  10 H :    0.035440
  11 H :    0.030757
  12 C :   -0.020916
  13 H :    0.029665
  14 H :    0.023672
  15 H :    0.041845
  16 S :    0.094251
  17 C :   -0.085494
  18 C :   -0.042380
  19 C :   -0.026505
  20 C :   -0.167500
  21 H :   -0.012057
  22 C :    0.094881
  23 H :    0.005513
  24 H :    0.016183
  25 C :   -0.058756
  26 H :    0.037271
  27 H :    0.032112
  28 C :   -0.075966
  29 H :    0.044022
  30 H :    0.033887
  31 H :    0.032633
  32 H :    0.026299
  33 H :    0.079351
Sum of atomic charges:   -0.0000000

LOEWDIN ATOMIC CHARGES
----------------------
   0 S :    0.457120
   1 C :   -0.209589
   2 C :   -0.067923
   3 C :   -0.071573
   4 C :   -0.212487
   5 H :    0.041017
   6 C :   -0.033273
   7 H :    0.049704
   8 H :    0.021445
   9 C :   -0.035582
  10 H :    0.023977
  11 H :    0.016799
  12 C :   -0.053757
  13 H :    0.024205
  14 H :    0.024947
  15 H :    0.026379
  16 S :    0.397527
  17 C :   -0.202200
  18 C :   -0.068276
  19 C :   -0.063303
  20 C :   -0.190768
  21 H :    0.016822
  22 C :   -0.035498
  23 H :    0.029361
  24 H :    0.029983
  25 C :   -0.039240
  26 H :    0.030493
  27 H :    0.023979
  28 C :   -0.072437
  29 H :    0.027585
  30 H :    0.028542
  31 H :    0.024910
  32 H :    0.013436
  33 H :    0.047673

  Mayer bond orders larger than 0.100000
B(  0-S ,  1-C ) :   1.1745 B(  0-S ,  4-C ) :   1.1993 B(  1-C ,  2-C ) :   1.5445
B(  1-C ,  4-C ) :   0.1189 B(  1-C , 32-H ) :   0.9680 B(  2-C ,  3-C ) :   1.3322
B(  2-C ,  6-C ) :   1.0059 B(  3-C ,  4-C ) :   1.5212 B(  3-C ,  5-H ) :   0.9677
B(  4-C , 20-C ) :   1.0219 B(  6-C ,  7-H ) :   0.9344 B(  6-C ,  8-H ) :   0.9295
B(  6-C ,  9-C ) :   1.0704 B(  9-C , 10-H ) :   0.9471 B(  9-C , 11-H ) :   0.9593
B(  9-C , 12-C ) :   1.0750 B( 12-C , 13-H ) :   0.9765 B( 12-C , 14-H ) :   0.9772
B( 12-C , 15-H ) :   0.9750 B( 16-S , 17-C ) :   1.1438 B( 16-S , 20-C ) :   1.1496
B( 17-C , 18-C ) :   1.6154 B( 17-C , 33-H ) :   0.9544 B( 18-C , 19-C ) :   1.2485
B( 18-C , 21-H ) :   0.9917 B( 19-C , 20-C ) :   1.6026 B( 19-C , 22-C ) :   1.0501
B( 22-C , 23-H ) :   0.9146 B( 22-C , 24-H ) :   0.9252 B( 22-C , 25-C ) :   1.0717
B( 25-C , 26-H ) :   0.9580 B( 25-C , 27-H ) :   0.9556 B( 25-C , 28-C ) :   1.0663
B( 28-C , 29-H ) :   0.9781 B( 28-C , 30-H ) :   0.9741 B( 28-C , 31-H ) :   0.9756

Dispersion correction           -0.014009741
FINAL SINGLE POINT ENERGY     -1339.849161283721

DIPOLE MOMENT
-------------
                                X             Y             Z
Electronic contribution:     -1.49201     -16.61057      24.68886
Nuclear contribution   :      1.58364      17.18601     -25.32775
                        -----------------------------------------
Total Dipole Moment    :      0.09163       0.57544      -0.63889
                        -----------------------------------------
Magnitude (a.u.)       :      0.86470
Magnitude (Debye)      :      2.19789

Rotational constants in cm-1:     0.017427     0.008790     0.007172
Rotational constants in MHz :   522.434082   263.509831   215.003297

                             ****ORCA TERMINATED NORMALLY****
TOTAL RUN TIME: 0 days 0 hours 0 minutes 20 seconds 852 msec
