                         Program Version 4.2.1 -  RELEASE  -
|  1> ! wB97X-D3 SP def2-SVP
|  2> %pal
|  3> nprocs 24
|  4> end
|  5>
|  6> * xyz 0 1
|  7> S 	 -55.2711 	 16.7437 	 -86.5218
|  8> C 	 -54.4976 	 16.2708 	 -87.9797
|  9> C 	 -54.791 	 17.1415 	 -89.0723
| 10> C 	 -55.7897 	 18.0564 	 -88.6761
| 11> C 	 -56.1587 	 17.9834 	 -87.3281
| 12> H 	 -56.2258 	 18.7406 	 -89.4022
| 13> C 	 -54.2377 	 17.0745 	 -90.4962
| 14> H 	 -54.7084 	 17.882 	 -91.0515
| 15> H 	 -54.6926 	 16.2062 	 -90.9201
| 16> C 	 -52.7353 	 17.0958 	 -90.6436
| 17> H 	 -52.4921 	 17.9699 	 -90.0178
| 18> H 	 -52.4204 	 16.1052 	 -90.0804
| 19> C 	 -52.2438 	 17.14 	 -92.133
| 20> H 	 -52.4719 	 18.0578 	 -92.6193
| 21> H 	 -51.1485 	 17.1221 	 -92.1655
| 22> H 	 -52.5654 	 16.2712 	 -92.8203
| 23> S 	 -57.3521 	 18.389 	 -84.9932
| 24> C 	 -58.6523 	 19.5037 	 -84.8045
| 25> C 	 -58.7222 	 20.4009 	 -85.7993
| 26> C 	 -57.8314 	 20.044 	 -86.8809
| 27> C 	 -57.1361 	 18.8226 	 -86.6316
| 28> H 	 -59.4054 	 21.2316 	 -85.8776
| 29> C 	 -57.7559 	 20.947 	 -88.075
| 30> H 	 -58.7772 	 20.849 	 -88.5511
| 31> H 	 -56.9451 	 20.6522 	 -88.7375
| 32> C 	 -57.3532 	 22.4364 	 -87.9395
| 33> H 	 -56.3932 	 22.3794 	 -87.5412
| 34> H 	 -57.9549 	 22.9751 	 -87.2039
| 35> C 	 -57.4393 	 23.2395 	 -89.2278
| 36> H 	 -57.083 	 24.2587 	 -88.9673
| 37> H 	 -58.3304 	 23.2933 	 -89.8016
| 38> H 	 -56.6471 	 22.8147 	 -89.8616
| 39> H 	 -53.8288 	 15.4934 	 -88.0107
| 40> H 	 -59.3081 	 19.5598 	 -83.9898
| 41> *
| 42>
| 43>                          ****END OF INPUT****

CARTESIAN COORDINATES (ANGSTROEM)
---------------------------------
  S    -55.271100   16.743700  -86.521800
  C    -54.497600   16.270800  -87.979700
  C    -54.791000   17.141500  -89.072300
  C    -55.789700   18.056400  -88.676100
  C    -56.158700   17.983400  -87.328100
  H    -56.225800   18.740600  -89.402200
  C    -54.237700   17.074500  -90.496200
  H    -54.708400   17.882000  -91.051500
  H    -54.692600   16.206200  -90.920100
  C    -52.735300   17.095800  -90.643600
  H    -52.492100   17.969900  -90.017800
  H    -52.420400   16.105200  -90.080400
  C    -52.243800   17.140000  -92.133000
  H    -52.471900   18.057800  -92.619300
  H    -51.148500   17.122100  -92.165500
  H    -52.565400   16.271200  -92.820300
  S    -57.352100   18.389000  -84.993200
  C    -58.652300   19.503700  -84.804500
  C    -58.722200   20.400900  -85.799300
  C    -57.831400   20.044000  -86.880900
  C    -57.136100   18.822600  -86.631600
  H    -59.405400   21.231600  -85.877600
  C    -57.755900   20.947000  -88.075000
  H    -58.777200   20.849000  -88.551100
  H    -56.945100   20.652200  -88.737500
  C    -57.353200   22.436400  -87.939500
  H    -56.393200   22.379400  -87.541200
  H    -57.954900   22.975100  -87.203900
  C    -57.439300   23.239500  -89.227800
  H    -57.083000   24.258700  -88.967300
  H    -58.330400   23.293300  -89.801600
  H    -56.647100   22.814700  -89.861600
  H    -53.828800   15.493400  -88.010700
  H    -59.308100   19.559800  -83.989800

 Total Charge           Charge          ....    0
 Multiplicity           Mult            ....    1
 Number of Electrons    NEL             ....  134
 Basis Dimension        Dim             ....  322

ORBITAL ENERGIES
----------------

  NO   OCC          E(Eh)            E(eV)
   0   2.0000     -88.971040     -2421.0251
   1   2.0000     -88.961040     -2420.7530
   2   2.0000     -10.330023      -281.0942
   3   2.0000     -10.328461      -281.0517
   4   2.0000     -10.308675      -280.5133
   5   2.0000     -10.306948      -280.4663
   6   2.0000     -10.305539      -280.4280
   7   2.0000     -10.302597      -280.3479
   8   2.0000     -10.301986      -280.3313
   9   2.0000     -10.292626      -280.0766
  10   2.0000     -10.291506      -280.0461
  11   2.0000     -10.290447      -280.0173
  12   2.0000     -10.288886      -279.9748
  13   2.0000     -10.287649      -279.9412
  14   2.0000     -10.283292      -279.8226
  15   2.0000     -10.280841      -279.7559
  16   2.0000      -8.086308      -220.0396
  17   2.0000      -8.077612      -219.8030
  18   2.0000      -6.044734      -164.4856
  19   2.0000      -6.040647      -164.3744
  20   2.0000      -6.037258      -164.2821
  21   2.0000      -6.036093      -164.2504
  22   2.0000      -6.032091      -164.1416
  23   2.0000      -6.028095      -164.0328
  24   2.0000      -1.013426       -27.5767
  25   2.0000      -0.988848       -26.9079
  26   2.0000      -0.914377       -24.8815
  27   2.0000      -0.910870       -24.7860
  28   2.0000      -0.871353       -23.7107
  29   2.0000      -0.856030       -23.2938
  30   2.0000      -0.847599       -23.0644
  31   2.0000      -0.814698       -22.1690
  32   2.0000      -0.783899       -21.3310
  33   2.0000      -0.771574       -20.9956
  34   2.0000      -0.708566       -19.2811
  35   2.0000      -0.704477       -19.1698
  36   2.0000      -0.692105       -18.8331
  37   2.0000      -0.665126       -18.0990
  38   2.0000      -0.639487       -17.4013
  39   2.0000      -0.622284       -16.9332
  40   2.0000      -0.600436       -16.3387
  41   2.0000      -0.570593       -15.5266
  42   2.0000      -0.567165       -15.4333
  43   2.0000      -0.563299       -15.3282
  44   2.0000      -0.526161       -14.3176
  45   2.0000      -0.523011       -14.2318
  46   2.0000      -0.518156       -14.0997
  47   2.0000      -0.510812       -13.8999
  48   2.0000      -0.504428       -13.7262
  49   2.0000      -0.502547       -13.6750
  50   2.0000      -0.493004       -13.4153
  51   2.0000      -0.487222       -13.2580
  52   2.0000      -0.473464       -12.8836
  53   2.0000      -0.467545       -12.7225
  54   2.0000      -0.464418       -12.6375
  55   2.0000      -0.455228       -12.3874
  56   2.0000      -0.449460       -12.2304
  57   2.0000      -0.434709       -11.8290
  58   2.0000      -0.431198       -11.7335
  59   2.0000      -0.430004       -11.7010
  60   2.0000      -0.420445       -11.4409
  61   2.0000      -0.412036       -11.2121
  62   2.0000      -0.408436       -11.1141
  63   2.0000      -0.362998        -9.8777
  64   2.0000      -0.338194        -9.2027
  65   2.0000      -0.321260        -8.7419
  66   2.0000      -0.274148        -7.4599
  67   0.0000       0.018126         0.4932
  68   0.0000       0.088163         2.3990
  69   0.0000       0.093787         2.5521
  70   0.0000       0.119858         3.2615
  71   0.0000       0.137829         3.7505

MULLIKEN ATOMIC CHARGES
-----------------------
   0 S :    0.123160
   1 C :   -0.093718
   2 C :   -0.099032
   3 C :   -0.027022
   4 C :   -0.104749
   5 H :    0.014104
   6 C :    0.090554
   7 H :    0.004577
   8 H :    0.029352
   9 C :   -0.113018
  10 H :    0.046808
  11 H :    0.046437
  12 C :   -0.050913
  13 H :    0.029046
  14 H :    0.035929
  15 H :    0.050073
  16 S :    0.076820
  17 C :   -0.038632
  18 C :   -0.018030
  19 C :   -0.070960
  20 C :   -0.103116
  21 H :    0.015419
  22 C :    0.013283
  23 H :    0.045746
  24 H :    0.015369
  25 C :   -0.058110
  26 H :    0.021983
  27 H :    0.017523
  28 C :   -0.042049
  29 H :    0.038554
  30 H :    0.038221
  31 H :    0.022240
  32 H :    0.013213
  33 H :    0.030939
Sum of atomic charges:   -0.0000000

LOEWDIN ATOMIC CHARGES
----------------------
   0 S :    0.436737
   1 C :   -0.200398
   2 C :   -0.053940
   3 C :   -0.071784
   4 C :   -0.204709
   5 H :    0.028742
   6 C :   -0.037575
   7 H :    0.024096
   8 H :    0.028436
   9 C :   -0.046464
  10 H :    0.032159
  11 H :    0.035556
  12 C :   -0.073509
  13 H :    0.021210
  14 H :    0.029298
  15 H :    0.039041
  16 S :    0.418138
  17 C :   -0.179030
  18 C :   -0.065033
  19 C :   -0.060822
  20 C :   -0.200811
  21 H :    0.031997
  22 C :   -0.043402
  23 H :    0.038252
  24 H :    0.026883
  25 C :   -0.034354
  26 H :    0.020631
  27 H :    0.015663
  28 C :   -0.061568
  29 H :    0.034590
  30 H :    0.021916
  31 H :    0.025712
  32 H :    0.004776
  33 H :    0.019566

  Mayer bond orders larger than 0.100000
B(  0-S ,  1-C ) :   1.1651 B(  0-S ,  4-C ) :   1.1688 B(  1-C ,  2-C ) :   1.5390
B(  1-C ,  4-C ) :   0.1073 B(  1-C , 32-H ) :   0.9833 B(  2-C ,  3-C ) :   1.3160
B(  2-C ,  6-C ) :   1.0122 B(  3-C ,  4-C ) :   1.5175 B(  3-C ,  5-H ) :   0.9875
B(  4-C , 20-C ) :   1.0903 B(  6-C ,  7-H ) :   0.9402 B(  6-C ,  8-H ) :   0.9312
B(  6-C ,  9-C ) :   1.0473 B(  9-C , 10-H ) :   0.9612 B(  9-C , 11-H ) :   0.9555
B(  9-C , 12-C ) :   1.0704 B( 12-C , 13-H ) :   0.9737 B( 12-C , 14-H ) :   0.9753
B( 12-C , 15-H ) :   0.9742 B( 16-S , 17-C ) :   1.1525 B( 16-S , 20-C ) :   1.1414
B( 17-C , 18-C ) :   1.6116 B( 17-C , 33-H ) :   0.9731 B( 18-C , 19-C ) :   1.2414
B( 18-C , 21-H ) :   0.9937 B( 19-C , 20-C ) :   1.5502 B( 19-C , 22-C ) :   1.0535
B( 22-C , 23-H ) :   0.9344 B( 22-C , 24-H ) :   0.9399 B( 22-C , 25-C ) :   1.0523
B( 25-C , 26-H ) :   0.9553 B( 25-C , 27-H ) :   0.9543 B( 25-C , 28-C ) :   1.0858
B( 28-C , 29-H ) :   0.9712 B( 28-C , 30-H ) :   0.9776 B( 28-C , 31-H ) :   0.9733

Dispersion correction           -0.013086404
FINAL SINGLE POINT ENERGY     -1339.857497208317

DIPOLE MOMENT
-------------
                                X             Y             Z
Electronic contribution:     -8.15004     -14.28550      26.78978
Nuclear contribution   :      8.19216      14.71891     -27.37566
                        -----------------------------------------
Total Dipole Moment    :      0.04211       0.43341      -0.58588
                        -----------------------------------------
Magnitude (a.u.)       :      0.72998
Magnitude (Debye)      :      1.85546

Rotational constants in cm-1:     0.017572     0.008118     0.005715
Rotational constants in MHz :   526.799667   243.371444   171.326376

                             ****ORCA TERMINATED NORMALLY****
TOTAL RUN TIME: 0 days 0 hours 0 minutes 20 seconds 731 msec
