                         Program Version 4.2.1 -  RELEASE  -
|  1> ! wB97X-D3 SP def2-SVP
|  2> %pal
|  3> nprocs 24
|  4> end
|  5>
|  6> * xyz 0 1
|  7> S 	 -29.4899 	 17.4394 	 6.32687
|  8> C 	 -31.0886 	 16.8821 	 6.81827
|  9> C 	 -31.2705 	 17.0677 	 8.17373
| 10> C 	 -30.23 	 17.7547 	 8.77163
| 11> C 	 -29.1979 	 18.1193 	 7.9296
| 12> H 	 -30.22 	 18.0624 	 9.81638
| 13> C 	 -32.5188 	 16.7106 	 9.01295
| 14> H 	 -33.2955 	 16.3897 	 8.30501
| 15> H 	 -32.9255 	 17.595 	 9.3118
| 16> C 	 -32.2813 	 15.7425 	 10.2416
| 17> H 	 -31.9131 	 14.7814 	 9.89156
| 18> H 	 -31.6937 	 16.2004 	 11.0635
| 19> C 	 -33.5413 	 15.2401 	 10.9735
| 20> H 	 -34.1578 	 14.8447 	 10.1897
| 21> H 	 -33.2871 	 14.4873 	 11.692
| 22> H 	 -34.2008 	 16.0094 	 11.3848
| 23> S 	 -27.0953 	 18.4691 	 9.70515
| 24> C 	 -25.8726 	 19.6397 	 9.34173
| 25> C 	 -26.1053 	 20.2722 	 8.13681
| 26> C 	 -27.3614 	 19.9162 	 7.52919
| 27> C 	 -28.0293 	 18.8952 	 8.25468
| 28> H 	 -25.3614 	 20.8705 	 7.68037
| 29> C 	 -27.7466 	 20.5193 	 6.17606
| 30> H 	 -27.5817 	 21.5642 	 6.29339
| 31> H 	 -28.7961 	 20.4804 	 6.1177
| 32> C 	 -27.0091 	 19.8754 	 4.92245
| 33> H 	 -27.0043 	 18.7955 	 5.05804
| 34> H 	 -25.9308 	 20.1568 	 5.13544
| 35> C 	 -27.5199 	 20.5092 	 3.66582
| 36> H 	 -28.5337 	 20.2241 	 3.44937
| 37> H 	 -26.9087 	 20.2162 	 2.811
| 38> H 	 -27.5656 	 21.5995 	 3.71666
| 39> H 	 -31.8663 	 16.4326 	 6.12932
| 40> H 	 -25.0806 	 19.8744 	 10.0747
| 41> *
| 42>
| 43>                          ****END OF INPUT****

CARTESIAN COORDINATES (ANGSTROEM)
---------------------------------
  S    -29.489900   17.439400    6.326870
  C    -31.088600   16.882100    6.818270
  C    -31.270500   17.067700    8.173730
  C    -30.230000   17.754700    8.771630
  C    -29.197900   18.119300    7.929600
  H    -30.220000   18.062400    9.816380
  C    -32.518800   16.710600    9.012950
  H    -33.295500   16.389700    8.305010
  H    -32.925500   17.595000    9.311800
  C    -32.281300   15.742500   10.241600
  H    -31.913100   14.781400    9.891560
  H    -31.693700   16.200400   11.063500
  C    -33.541300   15.240100   10.973500
  H    -34.157800   14.844700   10.189700
  H    -33.287100   14.487300   11.692000
  H    -34.200800   16.009400   11.384800
  S    -27.095300   18.469100    9.705150
  C    -25.872600   19.639700    9.341730
  C    -26.105300   20.272200    8.136810
  C    -27.361400   19.916200    7.529190
  C    -28.029300   18.895200    8.254680
  H    -25.361400   20.870500    7.680370
  C    -27.746600   20.519300    6.176060
  H    -27.581700   21.564200    6.293390
  H    -28.796100   20.480400    6.117700
  C    -27.009100   19.875400    4.922450
  H    -27.004300   18.795500    5.058040
  H    -25.930800   20.156800    5.135440
  C    -27.519900   20.509200    3.665820
  H    -28.533700   20.224100    3.449370
  H    -26.908700   20.216200    2.811000
  H    -27.565600   21.599500    3.716660
  H    -31.866300   16.432600    6.129320
  H    -25.080600   19.874400   10.074700

 Total Charge           Charge          ....    0
 Multiplicity           Mult            ....    1
 Number of Electrons    NEL             ....  134
 Basis Dimension        Dim             ....  322

ORBITAL ENERGIES
----------------

  NO   OCC          E(Eh)            E(eV)
   0   2.0000     -88.968047     -2420.9436
   1   2.0000     -88.964535     -2420.8481
   2   2.0000     -10.328169      -281.0438
   3   2.0000     -10.327507      -281.0257
   4   2.0000     -10.318916      -280.7920
   5   2.0000     -10.318618      -280.7839
   6   2.0000     -10.306076      -280.4426
   7   2.0000     -10.297578      -280.2114
   8   2.0000     -10.293154      -280.0910
   9   2.0000     -10.292385      -280.0700
  10   2.0000     -10.292026      -280.0603
  11   2.0000     -10.291064      -280.0341
  12   2.0000     -10.287016      -279.9239
  13   2.0000     -10.284145      -279.8458
  14   2.0000     -10.275773      -279.6180
  15   2.0000     -10.273824      -279.5650
  16   2.0000      -8.081723      -219.9149
  17   2.0000      -8.079184      -219.8458
  18   2.0000      -6.040238      -164.3632
  19   2.0000      -6.037650      -164.2928
  20   2.0000      -6.036372      -164.2580
  21   2.0000      -6.033659      -164.1842
  22   2.0000      -6.032558      -164.1542
  23   2.0000      -6.030051      -164.0860
  24   2.0000      -1.003792       -27.3146
  25   2.0000      -0.981481       -26.7074
  26   2.0000      -0.905853       -24.6495
  27   2.0000      -0.904046       -24.6003
  28   2.0000      -0.869255       -23.6536
  29   2.0000      -0.852985       -23.2109
  30   2.0000      -0.848156       -23.0795
  31   2.0000      -0.810790       -22.0627
  32   2.0000      -0.784972       -21.3602
  33   2.0000      -0.768799       -20.9201
  34   2.0000      -0.707604       -19.2549
  35   2.0000      -0.700486       -19.0612
  36   2.0000      -0.692235       -18.8367
  37   2.0000      -0.664337       -18.0775
  38   2.0000      -0.632116       -17.2008
  39   2.0000      -0.619090       -16.8463
  40   2.0000      -0.595057       -16.1923
  41   2.0000      -0.568191       -15.4613
  42   2.0000      -0.559149       -15.2152
  43   2.0000      -0.556462       -15.1421
  44   2.0000      -0.534565       -14.5462
  45   2.0000      -0.526081       -14.3154
  46   2.0000      -0.516678       -14.0595
  47   2.0000      -0.509248       -13.8573
  48   2.0000      -0.504380       -13.7249
  49   2.0000      -0.500837       -13.6285
  50   2.0000      -0.489144       -13.3103
  51   2.0000      -0.482629       -13.1330
  52   2.0000      -0.467792       -12.7293
  53   2.0000      -0.460613       -12.5339
  54   2.0000      -0.459821       -12.5124
  55   2.0000      -0.452601       -12.3159
  56   2.0000      -0.445590       -12.1251
  57   2.0000      -0.434674       -11.8281
  58   2.0000      -0.430830       -11.7235
  59   2.0000      -0.424373       -11.5478
  60   2.0000      -0.420023       -11.4294
  61   2.0000      -0.415834       -11.3154
  62   2.0000      -0.411217       -11.1898
  63   2.0000      -0.344450        -9.3730
  64   2.0000      -0.334099        -9.0913
  65   2.0000      -0.328558        -8.9405
  66   2.0000      -0.287902        -7.8342
  67   0.0000       0.023582         0.6417
  68   0.0000       0.078013         2.1228
  69   0.0000       0.108097         2.9415
  70   0.0000       0.115689         3.1481
  71   0.0000       0.128975         3.5096

MULLIKEN ATOMIC CHARGES
-----------------------
   0 S :    0.108180
   1 C :   -0.160929
   2 C :   -0.064663
   3 C :    0.006618
   4 C :   -0.139880
   5 H :    0.013344
   6 C :    0.110901
   7 H :    0.003777
   8 H :    0.007327
   9 C :   -0.088144
  10 H :    0.038385
  11 H :    0.046360
  12 C :   -0.049697
  13 H :    0.013374
  14 H :    0.043360
  15 H :    0.025406
  16 S :    0.106160
  17 C :   -0.107454
  18 C :   -0.019751
  19 C :   -0.072569
  20 C :   -0.151122
  21 H :    0.011260
  22 C :    0.076250
  23 H :    0.014524
  24 H :    0.007707
  25 C :   -0.074038
  26 H :    0.037927
  27 H :    0.025406
  28 C :   -0.002016
  29 H :    0.026750
  30 H :    0.036823
  31 H :    0.027291
  32 H :    0.069073
  33 H :    0.074061
Sum of atomic charges:   -0.0000000

LOEWDIN ATOMIC CHARGES
----------------------
   0 S :    0.403990
   1 C :   -0.206599
   2 C :   -0.066370
   3 C :   -0.065227
   4 C :   -0.187891
   5 H :    0.032028
   6 C :   -0.023175
   7 H :    0.029916
   8 H :    0.018319
   9 C :   -0.036630
  10 H :    0.029504
  11 H :    0.028633
  12 C :   -0.065929
  13 H :    0.019879
  14 H :    0.026508
  15 H :    0.021286
  16 S :    0.405545
  17 C :   -0.191847
  18 C :   -0.071367
  19 C :   -0.048472
  20 C :   -0.198846
  21 H :    0.025476
  22 C :   -0.032449
  23 H :    0.026631
  24 H :    0.017591
  25 C :   -0.036933
  26 H :    0.021475
  27 H :    0.027944
  28 C :   -0.063995
  29 H :    0.025320
  30 H :    0.028688
  31 H :    0.029095
  32 H :    0.042112
  33 H :    0.035787

  Mayer bond orders larger than 0.100000
B(  0-S ,  1-C ) :   1.1380 B(  0-S ,  4-C ) :   1.1414 B(  1-C ,  2-C ) :   1.5984
B(  1-C ,  4-C ) :   0.1008 B(  1-C , 32-H ) :   0.9576 B(  2-C ,  3-C ) :   1.2703
B(  2-C ,  6-C ) :   1.0177 B(  3-C ,  4-C ) :   1.5457 B(  3-C ,  5-H ) :   0.9959
B(  4-C , 20-C ) :   1.0785 B(  6-C ,  7-H ) :   0.9375 B(  6-C ,  8-H ) :   0.9359
B(  6-C ,  9-C ) :   1.0538 B(  9-C , 10-H ) :   0.9615 B(  9-C , 11-H ) :   0.9572
B(  9-C , 12-C ) :   1.0801 B( 12-C , 13-H ) :   0.9746 B( 12-C , 14-H ) :   0.9768
B( 12-C , 15-H ) :   0.9744 B( 16-S , 17-C ) :   1.1660 B( 16-S , 20-C ) :   1.1384
B( 17-C , 18-C ) :   1.5857 B( 17-C , 33-H ) :   0.9634 B( 18-C , 19-C ) :   1.2541
B( 18-C , 21-H ) :   0.9952 B( 19-C , 20-C ) :   1.5496 B( 19-C , 22-C ) :   1.0490
B( 22-C , 23-H ) :   0.9290 B( 22-C , 24-H ) :   0.9303 B( 22-C , 25-C ) :   1.0396
B( 25-C , 26-H ) :   0.9583 B( 25-C , 27-H ) :   0.9539 B( 25-C , 28-C ) :   1.0786
B( 28-C , 29-H ) :   0.9725 B( 28-C , 30-H ) :   0.9717 B( 28-C , 31-H ) :   0.9694

Dispersion correction           -0.014055721
FINAL SINGLE POINT ENERGY     -1339.875284086115

DIPOLE MOMENT
-------------
                                X             Y             Z
Electronic contribution:     12.27469       0.14008       3.49821
Nuclear contribution   :    -12.51100       0.03792      -3.53107
                        -----------------------------------------
Total Dipole Moment    :     -0.23631       0.17800      -0.03286
                        -----------------------------------------
Magnitude (a.u.)       :      0.29767
Magnitude (Debye)      :      0.75662

Rotational constants in cm-1:     0.021663     0.007700     0.005950
Rotational constants in MHz :   649.435384   230.850555   178.375761

                             ****ORCA TERMINATED NORMALLY****
TOTAL RUN TIME: 0 days 0 hours 0 minutes 19 seconds 917 msec
