                         Program Version 4.2.1 -  RELEASE  -
|  1> ! wB97X-D3 SP def2-SVP
|  2> %pal
|  3> nprocs 24
|  4> end
|  5>
|  6> * xyz 0 1
|  7> S 	 27.8882 	 2.05486 	 -110.968
|  8> C 	 26.9483 	 3.31203 	 -111.766
|  9> C 	 25.7001 	 2.80437 	 -112.126
| 10> C 	 25.5628 	 1.43242 	 -111.755
| 11> C 	 26.5885 	 0.923934 	 -111.04
| 12> H 	 24.7872 	 0.71734 	 -111.918
| 13> C 	 24.5258 	 3.58496 	 -112.882
| 14> H 	 23.6913 	 3.64129 	 -112.154
| 15> H 	 24.2238 	 2.9964 	 -113.73
| 16> C 	 24.8386 	 5.0221 	 -113.3
| 17> H 	 25.2896 	 5.5363 	 -112.455
| 18> H 	 25.6907 	 4.95203 	 -114.065
| 19> C 	 23.711 	 5.96773 	 -113.764
| 20> H 	 23.3072 	 5.7854 	 -114.775
| 21> H 	 22.9891 	 5.82953 	 -113.077
| 22> H 	 24.2229 	 6.92844 	 -113.741
| 23> S 	 26.338 	 -1.72422 	 -111.54
| 24> C 	 27.0923 	 -2.86712 	 -110.425
| 25> C 	 27.3643 	 -2.28656 	 -109.213
| 26> C 	 27.0318 	 -0.92123 	 -109.184
| 27> C 	 26.6436 	 -0.441067 	 -110.422
| 28> H 	 27.9224 	 -2.84107 	 -108.402
| 29> C 	 27.4008 	 -0.0241751 	 -108.044
| 30> H 	 26.9138 	 0.940239 	 -108.258
| 31> H 	 28.4595 	 0.174231 	 -108.192
| 32> C 	 27.0367 	 -0.378615 	 -106.664
| 33> H 	 27.5647 	 -1.3141 	 -106.365
| 34> H 	 26.0187 	 -0.588586 	 -106.526
| 35> C 	 27.3655 	 0.71347 	 -105.606
| 36> H 	 27.4043 	 0.331401 	 -104.642
| 37> H 	 26.5629 	 1.46634 	 -105.534
| 38> H 	 28.3588 	 1.18218 	 -105.784
| 39> H 	 27.1981 	 4.38234 	 -111.81
| 40> H 	 27.188 	 -3.98534 	 -110.57
| 41> *
| 42>
| 43>                          ****END OF INPUT****

CARTESIAN COORDINATES (ANGSTROEM)
---------------------------------
  S     27.888200    2.054860  -110.968000
  C     26.948300    3.312030  -111.766000
  C     25.700100    2.804370  -112.126000
  C     25.562800    1.432420  -111.755000
  C     26.588500    0.923934  -111.040000
  H     24.787200    0.717340  -111.918000
  C     24.525800    3.584960  -112.882000
  H     23.691300    3.641290  -112.154000
  H     24.223800    2.996400  -113.730000
  C     24.838600    5.022100  -113.300000
  H     25.289600    5.536300  -112.455000
  H     25.690700    4.952030  -114.065000
  C     23.711000    5.967730  -113.764000
  H     23.307200    5.785400  -114.775000
  H     22.989100    5.829530  -113.077000
  H     24.222900    6.928440  -113.741000
  S     26.338000   -1.724220  -111.540000
  C     27.092300   -2.867120  -110.425000
  C     27.364300   -2.286560  -109.213000
  C     27.031800   -0.921230  -109.184000
  C     26.643600   -0.441067  -110.422000
  H     27.922400   -2.841070  -108.402000
  C     27.400800   -0.024175  -108.044000
  H     26.913800    0.940239  -108.258000
  H     28.459500    0.174231  -108.192000
  C     27.036700   -0.378615  -106.664000
  H     27.564700   -1.314100  -106.365000
  H     26.018700   -0.588586  -106.526000
  C     27.365500    0.713470  -105.606000
  H     27.404300    0.331401  -104.642000
  H     26.562900    1.466340  -105.534000
  H     28.358800    1.182180  -105.784000
  H     27.198100    4.382340  -111.810000
  H     27.188000   -3.985340  -110.570000

 Total Charge           Charge          ....    0
 Multiplicity           Mult            ....    1
 Number of Electrons    NEL             ....  134
 Basis Dimension        Dim             ....  322

ORBITAL ENERGIES
----------------

  NO   OCC          E(Eh)            E(eV)
   0   2.0000     -88.965940     -2420.8863
   1   2.0000     -88.965089     -2420.8632
   2   2.0000     -10.326596      -281.0010
   3   2.0000     -10.325952      -280.9834
   4   2.0000     -10.321499      -280.8623
   5   2.0000     -10.317179      -280.7447
   6   2.0000     -10.309500      -280.5358
   7   2.0000     -10.300074      -280.2793
   8   2.0000     -10.299237      -280.2565
   9   2.0000     -10.296011      -280.1687
  10   2.0000     -10.290925      -280.0303
  11   2.0000     -10.286784      -279.9176
  12   2.0000     -10.282846      -279.8105
  13   2.0000     -10.281565      -279.7756
  14   2.0000     -10.275896      -279.6213
  15   2.0000     -10.275813      -279.6191
  16   2.0000      -8.080863      -219.8915
  17   2.0000      -8.079760      -219.8614
  18   2.0000      -6.039404      -164.3405
  19   2.0000      -6.038326      -164.3112
  20   2.0000      -6.035359      -164.2305
  21   2.0000      -6.034202      -164.1990
  22   2.0000      -6.031563      -164.1272
  23   2.0000      -6.030540      -164.0993
  24   2.0000      -1.010925       -27.5087
  25   2.0000      -0.988052       -26.8863
  26   2.0000      -0.915078       -24.9005
  27   2.0000      -0.906561       -24.6688
  28   2.0000      -0.868424       -23.6310
  29   2.0000      -0.854281       -23.2462
  30   2.0000      -0.846237       -23.0273
  31   2.0000      -0.816594       -22.2207
  32   2.0000      -0.786140       -21.3920
  33   2.0000      -0.773341       -21.0437
  34   2.0000      -0.707075       -19.2405
  35   2.0000      -0.699542       -19.0355
  36   2.0000      -0.687037       -18.6952
  37   2.0000      -0.659470       -17.9451
  38   2.0000      -0.638789       -17.3823
  39   2.0000      -0.608524       -16.5588
  40   2.0000      -0.596076       -16.2201
  41   2.0000      -0.571263       -15.5448
  42   2.0000      -0.569868       -15.5069
  43   2.0000      -0.563932       -15.3454
  44   2.0000      -0.531695       -14.4681
  45   2.0000      -0.525745       -14.3063
  46   2.0000      -0.517491       -14.0817
  47   2.0000      -0.513037       -13.9604
  48   2.0000      -0.503672       -13.7056
  49   2.0000      -0.502080       -13.6623
  50   2.0000      -0.494303       -13.4507
  51   2.0000      -0.481132       -13.0923
  52   2.0000      -0.473248       -12.8777
  53   2.0000      -0.467510       -12.7216
  54   2.0000      -0.457089       -12.4380
  55   2.0000      -0.454574       -12.3696
  56   2.0000      -0.443562       -12.0699
  57   2.0000      -0.435345       -11.8463
  58   2.0000      -0.430371       -11.7110
  59   2.0000      -0.420918       -11.4538
  60   2.0000      -0.420557       -11.4439
  61   2.0000      -0.414174       -11.2703
  62   2.0000      -0.410471       -11.1695
  63   2.0000      -0.346499        -9.4287
  64   2.0000      -0.331913        -9.0318
  65   2.0000      -0.327537        -8.9127
  66   2.0000      -0.296239        -8.0611
  67   0.0000       0.032036         0.8717
  68   0.0000       0.072254         1.9661
  69   0.0000       0.108238         2.9453
  70   0.0000       0.123224         3.3531
  71   0.0000       0.130517         3.5515

MULLIKEN ATOMIC CHARGES
-----------------------
   0 S :    0.112999
   1 C :   -0.144805
   2 C :   -0.082572
   3 C :    0.018402
   4 C :   -0.130180
   5 H :   -0.001802
   6 C :    0.087489
   7 H :    0.034369
   8 H :    0.038984
   9 C :   -0.168032
  10 H :    0.025212
  11 H :    0.035761
  12 C :    0.022250
  13 H :    0.038716
  14 H :    0.008193
  15 H :    0.040342
  16 S :    0.106701
  17 C :   -0.110018
  18 C :   -0.064356
  19 C :   -0.025899
  20 C :   -0.165670
  21 H :    0.048603
  22 C :    0.053497
  23 H :    0.023984
  24 H :    0.039089
  25 C :   -0.061960
  26 H :    0.021596
  27 H :    0.017552
  28 C :   -0.036150
  29 H :    0.013079
  30 H :    0.035181
  31 H :    0.033231
  32 H :    0.061139
  33 H :    0.075072
Sum of atomic charges:   -0.0000000

LOEWDIN ATOMIC CHARGES
----------------------
   0 S :    0.411934
   1 C :   -0.207982
   2 C :   -0.055435
   3 C :   -0.074912
   4 C :   -0.197879
   5 H :    0.025179
   6 C :   -0.027855
   7 H :    0.032331
   8 H :    0.029688
   9 C :   -0.053099
  10 H :    0.019590
  11 H :    0.027054
  12 C :   -0.048311
  13 H :    0.028334
  14 H :    0.008457
  15 H :    0.035204
  16 S :    0.410690
  17 C :   -0.188507
  18 C :   -0.080163
  19 C :   -0.058968
  20 C :   -0.199934
  21 H :    0.044726
  22 C :   -0.042182
  23 H :    0.031621
  24 H :    0.035306
  25 C :   -0.039038
  26 H :    0.022601
  27 H :    0.020666
  28 C :   -0.059282
  29 H :    0.016448
  30 H :    0.028003
  31 H :    0.028874
  32 H :    0.034739
  33 H :    0.042099

  Mayer bond orders larger than 0.100000
B(  0-S ,  1-C ) :   1.1290 B(  0-S ,  4-C ) :   1.1474 B(  1-C ,  2-C ) :   1.6301
B(  1-C , 32-H ) :   0.9614 B(  2-C ,  3-C ) :   1.2249 B(  2-C ,  6-C ) :   0.9934
B(  3-C ,  4-C ) :   1.6072 B(  3-C ,  5-H ) :   1.0002 B(  4-C , 20-C ) :   0.9907
B(  6-C ,  7-H ) :   0.9388 B(  6-C ,  8-H ) :   0.9463 B(  6-C ,  9-C ) :   1.0832
B(  9-C , 10-H ) :   0.9534 B(  9-C , 11-H ) :   0.9533 B(  9-C , 12-C ) :   1.0681
B( 12-C , 13-H ) :   0.9764 B( 12-C , 14-H ) :   0.9741 B( 12-C , 15-H ) :   0.9749
B( 16-S , 17-C ) :   1.1523 B( 16-S , 20-C ) :   1.1455 B( 17-C , 18-C ) :   1.6206
B( 17-C , 33-H ) :   0.9574 B( 18-C , 19-C ) :   1.2375 B( 18-C , 21-H ) :   0.9796
B( 19-C , 20-C ) :   1.5975 B( 19-C , 22-C ) :   1.0462 B( 22-C , 23-H ) :   0.9295
B( 22-C , 24-H ) :   0.9267 B( 22-C , 25-C ) :   1.0769 B( 25-C , 26-H ) :   0.9505
B( 25-C , 27-H ) :   0.9547 B( 25-C , 28-C ) :   1.0887 B( 28-C , 29-H ) :   0.9729
B( 28-C , 30-H ) :   0.9754 B( 28-C , 31-H ) :   0.9751

Dispersion correction           -0.013308283
FINAL SINGLE POINT ENERGY     -1339.862278172682

DIPOLE MOMENT
-------------
                                X             Y             Z
Electronic contribution:      7.91198     -16.97628      -8.44347
Nuclear contribution   :     -8.11666      17.13562       8.73453
                        -----------------------------------------
Total Dipole Moment    :     -0.20468       0.15934       0.29106
                        -----------------------------------------
Magnitude (a.u.)       :      0.38987
Magnitude (Debye)      :      0.99098

Rotational constants in cm-1:     0.021332     0.006867     0.005750
Rotational constants in MHz :   639.509394   205.870306   172.366771

                             ****ORCA TERMINATED NORMALLY****
TOTAL RUN TIME: 0 days 0 hours 0 minutes 20 seconds 438 msec
