                         Program Version 4.2.1 -  RELEASE  -
|  1> ! wB97X-D3 SP def2-SVP
|  2> %pal
|  3> nprocs 24
|  4> end
|  5>
|  6> * xyz 0 1
|  7> S 	 -111.197 	 52.2691 	 -88.7367
|  8> C 	 -109.468 	 52.0278 	 -88.3709
|  9> C 	 -108.77 	 53.1944 	 -88.6032
| 10> C 	 -109.58 	 54.3185 	 -88.8333
| 11> C 	 -110.905 	 53.9943 	 -88.9732
| 12> H 	 -109.286 	 55.3392 	 -88.9516
| 13> C 	 -107.264 	 53.3215 	 -88.4433
| 14> H 	 -106.969 	 52.4275 	 -87.9093
| 15> H 	 -107.118 	 54.1752 	 -87.7827
| 16> C 	 -106.442 	 53.2891 	 -89.7849
| 17> H 	 -106.611 	 54.249 	 -90.2144
| 18> H 	 -105.383 	 53.4198 	 -89.7509
| 19> C 	 -106.802 	 52.0844 	 -90.7526
| 20> H 	 -106.497 	 51.0374 	 -90.5199
| 21> H 	 -107.874 	 51.9949 	 -90.7951
| 22> H 	 -106.417 	 52.3383 	 -91.7399
| 23> S 	 -112.658 	 54.8035 	 -90.9746
| 24> C 	 -113.282 	 56.3515 	 -90.9536
| 25> C 	 -113.217 	 56.882 	 -89.6978
| 26> C 	 -112.352 	 56.1144 	 -88.8462
| 27> C 	 -111.967 	 54.9223 	 -89.417
| 28> H 	 -113.718 	 57.8051 	 -89.5584
| 29> C 	 -112 	 56.7187 	 -87.44
| 30> H 	 -110.977 	 56.9579 	 -87.5015
| 31> H 	 -112.175 	 55.8295 	 -86.73
| 32> C 	 -112.896 	 57.8615 	 -86.8203
| 33> H 	 -113.993 	 57.6126 	 -86.9148
| 34> H 	 -112.804 	 58.726 	 -87.4608
| 35> C 	 -112.423 	 58.3782 	 -85.4087
| 36> H 	 -111.447 	 58.8691 	 -85.5603
| 37> H 	 -112.186 	 57.6206 	 -84.6399
| 38> H 	 -113.107 	 59.1681 	 -85.0851
| 39> H 	 -109.083 	 51.0154 	 -88.1984
| 40> H 	 -113.909 	 56.8702 	 -91.6961
| 41> *
| 42>
| 43>                          ****END OF INPUT****

CARTESIAN COORDINATES (ANGSTROEM)
---------------------------------
  S    -111.197000   52.269100  -88.736700
  C    -109.468000   52.027800  -88.370900
  C    -108.770000   53.194400  -88.603200
  C    -109.580000   54.318500  -88.833300
  C    -110.905000   53.994300  -88.973200
  H    -109.286000   55.339200  -88.951600
  C    -107.264000   53.321500  -88.443300
  H    -106.969000   52.427500  -87.909300
  H    -107.118000   54.175200  -87.782700
  C    -106.442000   53.289100  -89.784900
  H    -106.611000   54.249000  -90.214400
  H    -105.383000   53.419800  -89.750900
  C    -106.802000   52.084400  -90.752600
  H    -106.497000   51.037400  -90.519900
  H    -107.874000   51.994900  -90.795100
  H    -106.417000   52.338300  -91.739900
  S    -112.658000   54.803500  -90.974600
  C    -113.282000   56.351500  -90.953600
  C    -113.217000   56.882000  -89.697800
  C    -112.352000   56.114400  -88.846200
  C    -111.967000   54.922300  -89.417000
  H    -113.718000   57.805100  -89.558400
  C    -112.000000   56.718700  -87.440000
  H    -110.977000   56.957900  -87.501500
  H    -112.175000   55.829500  -86.730000
  C    -112.896000   57.861500  -86.820300
  H    -113.993000   57.612600  -86.914800
  H    -112.804000   58.726000  -87.460800
  C    -112.423000   58.378200  -85.408700
  H    -111.447000   58.869100  -85.560300
  H    -112.186000   57.620600  -84.639900
  H    -113.107000   59.168100  -85.085100
  H    -109.083000   51.015400  -88.198400
  H    -113.909000   56.870200  -91.696100

 Total Charge           Charge          ....    0
 Multiplicity           Mult            ....    1
 Number of Electrons    NEL             ....  134
 Basis Dimension        Dim             ....  322

ORBITAL ENERGIES
----------------

  NO   OCC          E(Eh)            E(eV)
   0   2.0000     -88.965190     -2420.8659
   1   2.0000     -88.963031     -2420.8071
   2   2.0000     -10.330890      -281.1178
   3   2.0000     -10.320583      -280.8373
   4   2.0000     -10.317797      -280.7615
   5   2.0000     -10.308580      -280.5107
   6   2.0000     -10.304729      -280.4059
   7   2.0000     -10.300569      -280.2927
   8   2.0000     -10.298609      -280.2394
   9   2.0000     -10.297961      -280.2218
  10   2.0000     -10.292797      -280.0812
  11   2.0000     -10.290277      -280.0127
  12   2.0000     -10.288357      -279.9604
  13   2.0000     -10.287872      -279.9472
  14   2.0000     -10.284315      -279.8504
  15   2.0000     -10.279823      -279.7282
  16   2.0000      -8.080083      -219.8702
  17   2.0000      -8.079367      -219.8507
  18   2.0000      -6.038429      -164.3140
  19   2.0000      -6.037810      -164.2972
  20   2.0000      -6.034238      -164.2000
  21   2.0000      -6.034040      -164.1946
  22   2.0000      -6.030873      -164.1084
  23   2.0000      -6.030146      -164.0886
  24   2.0000      -1.015207       -27.6252
  25   2.0000      -0.989433       -26.9238
  26   2.0000      -0.903855       -24.5951
  27   2.0000      -0.897221       -24.4146
  28   2.0000      -0.867187       -23.5974
  29   2.0000      -0.848300       -23.0834
  30   2.0000      -0.843776       -22.9603
  31   2.0000      -0.816210       -22.2102
  32   2.0000      -0.780954       -21.2508
  33   2.0000      -0.771936       -21.0054
  34   2.0000      -0.713248       -19.4085
  35   2.0000      -0.703002       -19.1296
  36   2.0000      -0.695915       -18.9368
  37   2.0000      -0.651808       -17.7366
  38   2.0000      -0.642237       -17.4762
  39   2.0000      -0.622167       -16.9300
  40   2.0000      -0.590558       -16.0699
  41   2.0000      -0.564261       -15.3543
  42   2.0000      -0.561371       -15.2757
  43   2.0000      -0.552316       -15.0293
  44   2.0000      -0.537883       -14.6365
  45   2.0000      -0.523053       -14.2330
  46   2.0000      -0.514696       -14.0056
  47   2.0000      -0.513554       -13.9745
  48   2.0000      -0.501723       -13.6526
  49   2.0000      -0.495423       -13.4811
  50   2.0000      -0.486244       -13.2314
  51   2.0000      -0.477416       -12.9911
  52   2.0000      -0.471073       -12.8185
  53   2.0000      -0.467486       -12.7209
  54   2.0000      -0.458929       -12.4881
  55   2.0000      -0.450571       -12.2606
  56   2.0000      -0.449674       -12.2363
  57   2.0000      -0.442507       -12.0412
  58   2.0000      -0.427347       -11.6287
  59   2.0000      -0.423354       -11.5201
  60   2.0000      -0.419527       -11.4159
  61   2.0000      -0.409805       -11.1514
  62   2.0000      -0.403253       -10.9731
  63   2.0000      -0.343411        -9.3447
  64   2.0000      -0.332613        -9.0509
  65   2.0000      -0.327030        -8.8989
  66   2.0000      -0.299686        -8.1549
  67   0.0000       0.040097         1.0911
  68   0.0000       0.064568         1.7570
  69   0.0000       0.117237         3.1902
  70   0.0000       0.125920         3.4265
  71   0.0000       0.133146         3.6231

MULLIKEN ATOMIC CHARGES
-----------------------
   0 S :    0.095014
   1 C :   -0.133787
   2 C :   -0.097835
   3 C :    0.052657
   4 C :   -0.165886
   5 H :    0.006628
   6 C :    0.076955
   7 H :    0.014581
   8 H :    0.036211
   9 C :   -0.039700
  10 H :    0.007990
  11 H :    0.020701
  12 C :   -0.069753
  13 H :    0.037304
  14 H :    0.040657
  15 H :    0.036392
  16 S :    0.131964
  17 C :   -0.091058
  18 C :   -0.055815
  19 C :   -0.057931
  20 C :   -0.146518
  21 H :    0.005056
  22 C :    0.062545
  23 H :    0.025895
  24 H :    0.052336
  25 C :   -0.106477
  26 H :    0.045206
  27 H :    0.025946
  28 C :   -0.046896
  29 H :    0.027638
  30 H :    0.044575
  31 H :    0.044852
  32 H :    0.060811
  33 H :    0.059744
Sum of atomic charges:    0.0000000

LOEWDIN ATOMIC CHARGES
----------------------
   0 S :    0.381656
   1 C :   -0.188124
   2 C :   -0.063707
   3 C :   -0.057535
   4 C :   -0.178326
   5 H :    0.031192
   6 C :   -0.027286
   7 H :    0.026210
   8 H :    0.032810
   9 C :   -0.040629
  10 H :    0.020134
  11 H :    0.022295
  12 C :   -0.068351
  13 H :    0.028628
  14 H :    0.024001
  15 H :    0.028550
  16 S :    0.458169
  17 C :   -0.214234
  18 C :   -0.081184
  19 C :   -0.052960
  20 C :   -0.230472
  21 H :    0.024724
  22 C :   -0.031932
  23 H :    0.021792
  24 H :    0.044132
  25 C :   -0.047393
  26 H :    0.030012
  27 H :    0.018375
  28 C :   -0.067583
  29 H :    0.028127
  30 H :    0.028078
  31 H :    0.031358
  32 H :    0.030945
  33 H :    0.038526

  Mayer bond orders larger than 0.100000
B(  0-S ,  1-C ) :   1.1258 B(  0-S ,  4-C ) :   1.1545 B(  1-C ,  2-C ) :   1.6110
B(  1-C , 32-H ) :   0.9677 B(  2-C ,  3-C ) :   1.2250 B(  2-C ,  6-C ) :   1.0157
B(  3-C ,  4-C ) :   1.5977 B(  3-C ,  5-H ) :   0.9988 B(  4-C , 20-C ) :   1.0023
B(  6-C ,  7-H ) :   0.9449 B(  6-C ,  8-H ) :   0.9503 B(  6-C ,  9-C ) :   1.0480
B(  9-C , 10-H ) :   0.9550 B(  9-C , 11-H ) :   0.9596 B(  9-C , 12-C ) :   1.0614
B( 12-C , 13-H ) :   0.9782 B( 12-C , 14-H ) :   0.9759 B( 12-C , 15-H ) :   0.9748
B( 16-S , 17-C ) :   1.1945 B( 16-S , 20-C ) :   1.1519 B( 17-C , 18-C ) :   1.5963
B( 17-C , 33-H ) :   0.9558 B( 18-C , 19-C ) :   1.2525 B( 18-C , 21-H ) :   0.9967
B( 19-C , 20-C ) :   1.6068 B( 19-C , 22-C ) :   1.0014 B( 22-C , 23-H ) :   0.9362
B( 22-C , 24-H ) :   0.9435 B( 22-C , 25-C ) :   1.0730 B( 25-C , 26-H ) :   0.9583
B( 25-C , 27-H ) :   0.9471 B( 25-C , 28-C ) :   1.0690 B( 28-C , 29-H ) :   0.9741
B( 28-C , 30-H ) :   0.9789 B( 28-C , 31-H ) :   0.9737

Dispersion correction           -0.014084703
FINAL SINGLE POINT ENERGY     -1339.858416864750

DIPOLE MOMENT
-------------
                                X             Y             Z
Electronic contribution:    -14.42726     -11.01357     -10.22650
Nuclear contribution   :     14.75316      11.57801      10.35323
                        -----------------------------------------
Total Dipole Moment    :      0.32589       0.56444       0.12673
                        -----------------------------------------
Magnitude (a.u.)       :      0.66397
Magnitude (Debye)      :      1.68768

Rotational constants in cm-1:     0.018989     0.007687     0.006568
Rotational constants in MHz :   569.269125   230.444059   196.894445

                             ****ORCA TERMINATED NORMALLY****
TOTAL RUN TIME: 0 days 0 hours 0 minutes 20 seconds 987 msec
