                         Program Version 4.2.1 -  RELEASE  -
|  1> ! wB97X-D3 SP def2-SVP
|  2> %pal
|  3> nprocs 24
|  4> end
|  5>
|  6> * xyz 0 1
|  7> S 	 -116.773 	 13.0312 	 -115.154
|  8> C 	 -115.412 	 13.1916 	 -116.34
|  9> C 	 -115.793 	 14.08 	 -117.365
| 10> C 	 -117.034 	 14.6927 	 -117.094
| 11> C 	 -117.613 	 14.3426 	 -115.862
| 12> H 	 -117.267 	 15.5892 	 -117.651
| 13> C 	 -114.941 	 14.6015 	 -118.531
| 14> H 	 -113.908 	 14.2916 	 -118.399
| 15> H 	 -114.909 	 15.6582 	 -118.453
| 16> C 	 -115.525 	 14.3634 	 -119.831
| 17> H 	 -115.438 	 13.3035 	 -120.091
| 18> H 	 -116.569 	 14.652 	 -119.904
| 19> C 	 -114.906 	 15.2506 	 -120.964
| 20> H 	 -114.051 	 15.8949 	 -120.624
| 21> H 	 -114.433 	 14.7412 	 -121.747
| 22> H 	 -115.562 	 15.9474 	 -121.34
| 23> S 	 -120.414 	 14.232 	 -115.635
| 24> C 	 -121.273 	 15.5248 	 -114.807
| 25> C 	 -120.385 	 16.5593 	 -114.464
| 26> C 	 -118.991 	 16.1912 	 -114.677
| 27> C 	 -118.839 	 14.9889 	 -115.312
| 28> H 	 -120.7 	 17.4002 	 -113.955
| 29> C 	 -117.865 	 17.1122 	 -114.404
| 30> H 	 -116.94 	 16.5983 	 -114.404
| 31> H 	 -117.864 	 17.3873 	 -113.338
| 32> C 	 -117.787 	 18.3718 	 -115.196
| 33> H 	 -116.961 	 18.9609 	 -114.768
| 34> H 	 -118.732 	 18.9641 	 -115.041
| 35> C 	 -117.5 	 18.1761 	 -116.75
| 36> H 	 -117.107 	 19.1146 	 -117.066
| 37> H 	 -118.489 	 17.9462 	 -117.176
| 38> H 	 -116.851 	 17.3505 	 -116.827
| 39> H 	 -114.473 	 12.6144 	 -116.295
| 40> H 	 -122.311 	 15.6286 	 -114.632
| 41> *
| 42>
| 43>                          ****END OF INPUT****

CARTESIAN COORDINATES (ANGSTROEM)
---------------------------------
  S    -116.773000   13.031200  -115.154000
  C    -115.412000   13.191600  -116.340000
  C    -115.793000   14.080000  -117.365000
  C    -117.034000   14.692700  -117.094000
  C    -117.613000   14.342600  -115.862000
  H    -117.267000   15.589200  -117.651000
  C    -114.941000   14.601500  -118.531000
  H    -113.908000   14.291600  -118.399000
  H    -114.909000   15.658200  -118.453000
  C    -115.525000   14.363400  -119.831000
  H    -115.438000   13.303500  -120.091000
  H    -116.569000   14.652000  -119.904000
  C    -114.906000   15.250600  -120.964000
  H    -114.051000   15.894900  -120.624000
  H    -114.433000   14.741200  -121.747000
  H    -115.562000   15.947400  -121.340000
  S    -120.414000   14.232000  -115.635000
  C    -121.273000   15.524800  -114.807000
  C    -120.385000   16.559300  -114.464000
  C    -118.991000   16.191200  -114.677000
  C    -118.839000   14.988900  -115.312000
  H    -120.700000   17.400200  -113.955000
  C    -117.865000   17.112200  -114.404000
  H    -116.940000   16.598300  -114.404000
  H    -117.864000   17.387300  -113.338000
  C    -117.787000   18.371800  -115.196000
  H    -116.961000   18.960900  -114.768000
  H    -118.732000   18.964100  -115.041000
  C    -117.500000   18.176100  -116.750000
  H    -117.107000   19.114600  -117.066000
  H    -118.489000   17.946200  -117.176000
  H    -116.851000   17.350500  -116.827000
  H    -114.473000   12.614400  -116.295000
  H    -122.311000   15.628600  -114.632000

 Total Charge           Charge          ....    0
 Multiplicity           Mult            ....    1
 Number of Electrons    NEL             ....  134
 Basis Dimension        Dim             ....  322

ORBITAL ENERGIES
----------------

  NO   OCC          E(Eh)            E(eV)
   0   2.0000     -88.970322     -2421.0055
   1   2.0000     -88.964544     -2420.8483
   2   2.0000     -10.332858      -281.1714
   3   2.0000     -10.327078      -281.0141
   4   2.0000     -10.324330      -280.9393
   5   2.0000     -10.320381      -280.8319
   6   2.0000     -10.303316      -280.3675
   7   2.0000     -10.301170      -280.3091
   8   2.0000     -10.292992      -280.0865
   9   2.0000     -10.291691      -280.0512
  10   2.0000     -10.288510      -279.9646
  11   2.0000     -10.287400      -279.9344
  12   2.0000     -10.283452      -279.8270
  13   2.0000     -10.279754      -279.7263
  14   2.0000     -10.274449      -279.5820
  15   2.0000     -10.270437      -279.4728
  16   2.0000      -8.084445      -219.9889
  17   2.0000      -8.078651      -219.8313
  18   2.0000      -6.042962      -164.4373
  19   2.0000      -6.038879      -164.3263
  20   2.0000      -6.037311      -164.2836
  21   2.0000      -6.035374      -164.2309
  22   2.0000      -6.033187      -164.1714
  23   2.0000      -6.029342      -164.0667
  24   2.0000      -1.001674       -27.2569
  25   2.0000      -0.979956       -26.6660
  26   2.0000      -0.923586       -25.1321
  27   2.0000      -0.911830       -24.8121
  28   2.0000      -0.864275       -23.5181
  29   2.0000      -0.846618       -23.0376
  30   2.0000      -0.843605       -22.9557
  31   2.0000      -0.810716       -22.0607
  32   2.0000      -0.789240       -21.4763
  33   2.0000      -0.779217       -21.2036
  34   2.0000      -0.707759       -19.2591
  35   2.0000      -0.700010       -19.0482
  36   2.0000      -0.694193       -18.8900
  37   2.0000      -0.660725       -17.9792
  38   2.0000      -0.638201       -17.3663
  39   2.0000      -0.625644       -17.0246
  40   2.0000      -0.600852       -16.3500
  41   2.0000      -0.576420       -15.6852
  42   2.0000      -0.567247       -15.4356
  43   2.0000      -0.554285       -15.0829
  44   2.0000      -0.542660       -14.7665
  45   2.0000      -0.523629       -14.2487
  46   2.0000      -0.520879       -14.1738
  47   2.0000      -0.520087       -14.1523
  48   2.0000      -0.502601       -13.6765
  49   2.0000      -0.499472       -13.5913
  50   2.0000      -0.492680       -13.4065
  51   2.0000      -0.475731       -12.9453
  52   2.0000      -0.469270       -12.7695
  53   2.0000      -0.466320       -12.6892
  54   2.0000      -0.462283       -12.5794
  55   2.0000      -0.448787       -12.2121
  56   2.0000      -0.447932       -12.1889
  57   2.0000      -0.435583       -11.8528
  58   2.0000      -0.433766       -11.8034
  59   2.0000      -0.423605       -11.5269
  60   2.0000      -0.418065       -11.3761
  61   2.0000      -0.414799       -11.2873
  62   2.0000      -0.405174       -11.0253
  63   2.0000      -0.334769        -9.1095
  64   2.0000      -0.327469        -8.9109
  65   2.0000      -0.320743        -8.7279
  66   2.0000      -0.311791        -8.4843
  67   0.0000       0.040085         1.0908
  68   0.0000       0.051982         1.4145
  69   0.0000       0.115149         3.1334
  70   0.0000       0.117385         3.1942
  71   0.0000       0.122675         3.3382

MULLIKEN ATOMIC CHARGES
-----------------------
   0 S :    0.124138
   1 C :   -0.158630
   2 C :   -0.082756
   3 C :    0.056285
   4 C :   -0.187301
   5 H :    0.013692
   6 C :    0.106991
   7 H :    0.018820
   8 H :    0.013460
   9 C :   -0.083400
  10 H :    0.034183
  11 H :    0.037059
  12 C :   -0.030230
  13 H :    0.016536
  14 H :    0.022697
  15 H :    0.018381
  16 S :    0.107946
  17 C :   -0.074471
  18 C :   -0.015511
  19 C :   -0.027756
  20 C :   -0.164576
  21 H :   -0.004536
  22 C :    0.087234
  23 H :    0.012142
  24 H :    0.019302
  25 C :   -0.116784
  26 H :    0.029674
  27 H :    0.032575
  28 C :   -0.021331
  29 H :    0.034386
  30 H :    0.049860
  31 H :    0.024444
  32 H :    0.059612
  33 H :    0.047869
Sum of atomic charges:   -0.0000000

LOEWDIN ATOMIC CHARGES
----------------------
   0 S :    0.410210
   1 C :   -0.190581
   2 C :   -0.056691
   3 C :   -0.062940
   4 C :   -0.210500
   5 H :    0.028371
   6 C :   -0.029271
   7 H :    0.030300
   8 H :    0.026745
   9 C :   -0.039495
  10 H :    0.027512
  11 H :    0.029157
  12 C :   -0.061626
  13 H :    0.029839
  14 H :    0.020349
  15 H :    0.015166
  16 S :    0.391325
  17 C :   -0.171207
  18 C :   -0.060765
  19 C :   -0.052040
  20 C :   -0.194058
  21 H :    0.016766
  22 C :   -0.043482
  23 H :    0.026618
  24 H :    0.037144
  25 C :   -0.037474
  26 H :    0.024186
  27 H :    0.023740
  28 C :   -0.055495
  29 H :    0.023959
  30 H :    0.032220
  31 H :    0.013966
  32 H :    0.033222
  33 H :    0.024830

  Mayer bond orders larger than 0.100000
B(  0-S ,  1-C ) :   1.1356 B(  0-S ,  4-C ) :   1.1759 B(  1-C ,  2-C ) :   1.5839
B(  1-C ,  4-C ) :   0.1069 B(  1-C , 32-H ) :   0.9691 B(  2-C ,  3-C ) :   1.2756
B(  2-C ,  6-C ) :   1.0212 B(  3-C ,  4-C ) :   1.5502 B(  3-C ,  5-H ) :   0.9754
B(  4-C , 20-C ) :   0.9990 B(  6-C ,  7-H ) :   0.9353 B(  6-C ,  8-H ) :   0.9382
B(  6-C ,  9-C ) :   1.0751 B(  9-C , 10-H ) :   0.9568 B(  9-C , 11-H ) :   0.9629
B(  9-C , 12-C ) :   1.0531 B( 12-C , 13-H ) :   0.9750 B( 12-C , 14-H ) :   0.9761
B( 12-C , 15-H ) :   0.9805 B( 16-S , 17-C ) :   1.1527 B( 16-S , 20-C ) :   1.1268
B( 17-C , 18-C ) :   1.6211 B( 17-C , 33-H ) :   0.9716 B( 18-C , 19-C ) :   1.2140
B( 18-C , 21-H ) :   0.9958 B( 19-C , 20-C ) :   1.6390 B( 19-C , 22-C ) :   1.0645
B( 22-C , 23-H ) :   0.9190 B( 22-C , 24-H ) :   0.9156 B( 22-C , 25-C ) :   1.0907
B( 25-C , 26-H ) :   0.9534 B( 25-C , 27-H ) :   0.9569 B( 25-C , 28-C ) :   1.0560
B( 28-C , 29-H ) :   0.9719 B( 28-C , 30-H ) :   0.9766 B( 28-C , 31-H ) :   0.9712

Dispersion correction           -0.015531390
FINAL SINGLE POINT ENERGY     -1339.856187551389

DIPOLE MOMENT
-------------
                                X             Y             Z
Electronic contribution:    -14.31324     -18.51890      16.94368
Nuclear contribution   :     14.68226      19.15201     -17.15085
                        -----------------------------------------
Total Dipole Moment    :      0.36902       0.63311      -0.20717
                        -----------------------------------------
Magnitude (a.u.)       :      0.76153
Magnitude (Debye)      :      1.93566

Rotational constants in cm-1:     0.018788     0.008870     0.007573
Rotational constants in MHz :   563.250147   265.921022   227.026638

                             ****ORCA TERMINATED NORMALLY****
TOTAL RUN TIME: 0 days 0 hours 0 minutes 22 seconds 513 msec
