                         Program Version 4.2.1 -  RELEASE  -
|  1> ! wB97X-D3 SP def2-SVP
|  2> %pal
|  3> nprocs 24
|  4> end
|  5>
|  6> * xyz 0 1
|  7> S 	 26.0433 	 -5.3148 	 -109.204
|  8> C 	 26.3731 	 -6.76029 	 -110.05
|  9> C 	 25.8419 	 -6.82763 	 -111.37
| 10> C 	 24.9424 	 -5.67894 	 -111.615
| 11> C 	 25.0107 	 -4.79147 	 -110.536
| 12> H 	 24.3086 	 -5.49262 	 -112.516
| 13> C 	 25.8539 	 -8.08969 	 -112.217
| 14> H 	 24.9706 	 -8.62709 	 -111.888
| 15> H 	 26.7869 	 -8.61572 	 -111.892
| 16> C 	 25.9092 	 -7.81996 	 -113.707
| 17> H 	 24.8869 	 -7.51698 	 -113.926
| 18> H 	 26.6594 	 -7.10612 	 -114.009
| 19> C 	 26.1139 	 -9.10232 	 -114.571
| 20> H 	 25.2887 	 -9.75541 	 -114.49
| 21> H 	 26.3105 	 -8.8799 	 -115.584
| 22> H 	 26.962 	 -9.71741 	 -114.371
| 23> S 	 24.9609 	 -2.10744 	 -110.135
| 24> C 	 23.4757 	 -1.27953 	 -110.037
| 25> C 	 22.447 	 -2.13889 	 -110.309
| 26> C 	 22.7632 	 -3.54424 	 -110.404
| 27> C 	 24.1547 	 -3.65606 	 -110.339
| 28> H 	 21.4093 	 -1.71534 	 -110.502
| 29> C 	 21.7311 	 -4.59373 	 -110.634
| 30> H 	 22.079 	 -5.43857 	 -111.203
| 31> H 	 20.8825 	 -4.2626 	 -111.162
| 32> C 	 20.974 	 -5.1232 	 -109.405
| 33> H 	 20.5018 	 -4.2296 	 -109.008
| 34> H 	 21.64 	 -5.5906 	 -108.669
| 35> C 	 19.8956 	 -6.14342 	 -109.789
| 36> H 	 19.3134 	 -5.74876 	 -110.654
| 37> H 	 19.2744 	 -6.34257 	 -108.958
| 38> H 	 20.3329 	 -7.05805 	 -110.043
| 39> H 	 26.9263 	 -7.56313 	 -109.577
| 40> H 	 23.3916 	 -0.214428 	 -109.789
| 41> *
| 42>
| 43>                          ****END OF INPUT****

CARTESIAN COORDINATES (ANGSTROEM)
---------------------------------
  S     26.043300   -5.314800  -109.204000
  C     26.373100   -6.760290  -110.050000
  C     25.841900   -6.827630  -111.370000
  C     24.942400   -5.678940  -111.615000
  C     25.010700   -4.791470  -110.536000
  H     24.308600   -5.492620  -112.516000
  C     25.853900   -8.089690  -112.217000
  H     24.970600   -8.627090  -111.888000
  H     26.786900   -8.615720  -111.892000
  C     25.909200   -7.819960  -113.707000
  H     24.886900   -7.516980  -113.926000
  H     26.659400   -7.106120  -114.009000
  C     26.113900   -9.102320  -114.571000
  H     25.288700   -9.755410  -114.490000
  H     26.310500   -8.879900  -115.584000
  H     26.962000   -9.717410  -114.371000
  S     24.960900   -2.107440  -110.135000
  C     23.475700   -1.279530  -110.037000
  C     22.447000   -2.138890  -110.309000
  C     22.763200   -3.544240  -110.404000
  C     24.154700   -3.656060  -110.339000
  H     21.409300   -1.715340  -110.502000
  C     21.731100   -4.593730  -110.634000
  H     22.079000   -5.438570  -111.203000
  H     20.882500   -4.262600  -111.162000
  C     20.974000   -5.123200  -109.405000
  H     20.501800   -4.229600  -109.008000
  H     21.640000   -5.590600  -108.669000
  C     19.895600   -6.143420  -109.789000
  H     19.313400   -5.748760  -110.654000
  H     19.274400   -6.342570  -108.958000
  H     20.332900   -7.058050  -110.043000
  H     26.926300   -7.563130  -109.577000
  H     23.391600   -0.214428  -109.789000

 Total Charge           Charge          ....    0
 Multiplicity           Mult            ....    1
 Number of Electrons    NEL             ....  134
 Basis Dimension        Dim             ....  322

ORBITAL ENERGIES
----------------

  NO   OCC          E(Eh)            E(eV)
   0   2.0000     -88.968380     -2420.9527
   1   2.0000     -88.960947     -2420.7504
   2   2.0000     -10.325559      -280.9728
   3   2.0000     -10.322338      -280.8851
   4   2.0000     -10.313007      -280.6312
   5   2.0000     -10.310891      -280.5736
   6   2.0000     -10.307607      -280.4842
   7   2.0000     -10.305090      -280.4158
   8   2.0000     -10.304246      -280.3928
   9   2.0000     -10.294453      -280.1263
  10   2.0000     -10.293967      -280.1131
  11   2.0000     -10.288665      -279.9688
  12   2.0000     -10.283732      -279.8346
  13   2.0000     -10.281864      -279.7838
  14   2.0000     -10.272360      -279.5251
  15   2.0000     -10.269072      -279.4356
  16   2.0000      -8.083540      -219.9643
  17   2.0000      -8.076744      -219.7794
  18   2.0000      -6.041835      -164.4067
  19   2.0000      -6.038069      -164.3042
  20   2.0000      -6.035161      -164.2251
  21   2.0000      -6.034427      -164.2051
  22   2.0000      -6.031111      -164.1149
  23   2.0000      -6.027534      -164.0175
  24   2.0000      -1.006094       -27.3772
  25   2.0000      -0.980954       -26.6931
  26   2.0000      -0.915148       -24.9024
  27   2.0000      -0.912752       -24.8372
  28   2.0000      -0.868569       -23.6350
  29   2.0000      -0.853373       -23.2215
  30   2.0000      -0.847278       -23.0556
  31   2.0000      -0.809779       -22.0352
  32   2.0000      -0.786265       -21.3954
  33   2.0000      -0.770779       -20.9740
  34   2.0000      -0.710959       -19.3462
  35   2.0000      -0.695399       -18.9228
  36   2.0000      -0.685785       -18.6612
  37   2.0000      -0.655486       -17.8367
  38   2.0000      -0.638481       -17.3740
  39   2.0000      -0.617183       -16.7944
  40   2.0000      -0.600655       -16.3446
  41   2.0000      -0.580856       -15.8059
  42   2.0000      -0.573785       -15.6135
  43   2.0000      -0.549420       -14.9505
  44   2.0000      -0.526434       -14.3250
  45   2.0000      -0.523921       -14.2566
  46   2.0000      -0.512969       -13.9586
  47   2.0000      -0.510860       -13.9012
  48   2.0000      -0.506938       -13.7945
  49   2.0000      -0.498567       -13.5667
  50   2.0000      -0.492537       -13.4026
  51   2.0000      -0.478026       -13.0078
  52   2.0000      -0.474166       -12.9027
  53   2.0000      -0.462772       -12.5927
  54   2.0000      -0.457869       -12.4592
  55   2.0000      -0.454172       -12.3587
  56   2.0000      -0.445212       -12.1148
  57   2.0000      -0.443072       -12.0566
  58   2.0000      -0.430202       -11.7064
  59   2.0000      -0.426068       -11.5939
  60   2.0000      -0.421753       -11.4765
  61   2.0000      -0.418949       -11.4002
  62   2.0000      -0.415227       -11.2989
  63   2.0000      -0.339832        -9.2473
  64   2.0000      -0.328620        -8.9422
  65   2.0000      -0.325208        -8.8494
  66   2.0000      -0.289999        -7.8913
  67   0.0000       0.036066         0.9814
  68   0.0000       0.065817         1.7910
  69   0.0000       0.108906         2.9635
  70   0.0000       0.116049         3.1578
  71   0.0000       0.129569         3.5258

MULLIKEN ATOMIC CHARGES
-----------------------
   0 S :    0.134663
   1 C :   -0.128799
   2 C :   -0.098971
   3 C :    0.008569
   4 C :   -0.158460
   5 H :    0.048696
   6 C :    0.041622
   7 H :    0.051145
   8 H :    0.027740
   9 C :   -0.082229
  10 H :    0.030474
  11 H :    0.042414
  12 C :   -0.007159
  13 H :    0.016685
  14 H :    0.018952
  15 H :    0.012543
  16 S :    0.110055
  17 C :   -0.097767
  18 C :   -0.070292
  19 C :    0.025690
  20 C :   -0.192772
  21 H :    0.035132
  22 C :    0.088900
  23 H :    0.006413
  24 H :   -0.005692
  25 C :   -0.096610
  26 H :    0.022894
  27 H :    0.036469
  28 C :   -0.012496
  29 H :    0.027604
  30 H :    0.029909
  31 H :    0.018778
  32 H :    0.048770
  33 H :    0.067131
Sum of atomic charges:   -0.0000000

LOEWDIN ATOMIC CHARGES
----------------------
   0 S :    0.424880
   1 C :   -0.215451
   2 C :   -0.061056
   3 C :   -0.058734
   4 C :   -0.199964
   5 H :    0.042927
   6 C :   -0.036300
   7 H :    0.036598
   8 H :    0.032564
   9 C :   -0.035729
  10 H :    0.026293
  11 H :    0.028378
  12 C :   -0.061329
  13 H :    0.019171
  14 H :    0.022557
  15 H :    0.020626
  16 S :    0.417832
  17 C :   -0.210259
  18 C :   -0.079558
  19 C :   -0.052717
  20 C :   -0.199217
  21 H :    0.036811
  22 C :   -0.033943
  23 H :    0.024365
  24 H :    0.025701
  25 C :   -0.030528
  26 H :    0.020503
  27 H :    0.023676
  28 C :   -0.056897
  29 H :    0.027485
  30 H :    0.023982
  31 H :    0.017490
  32 H :    0.023878
  33 H :    0.035967

  Mayer bond orders larger than 0.100000
B(  0-S ,  1-C ) :   1.1557 B(  0-S ,  4-C ) :   1.1553 B(  1-C ,  2-C ) :   1.6053
B(  1-C , 32-H ) :   0.9682 B(  2-C ,  3-C ) :   1.2080 B(  2-C ,  6-C ) :   1.0261
B(  3-C ,  4-C ) :   1.5945 B(  3-C ,  5-H ) :   0.9819 B(  4-C , 20-C ) :   1.0292
B(  6-C ,  7-H ) :   0.9410 B(  6-C ,  8-H ) :   0.9415 B(  6-C ,  9-C ) :   1.0659
B(  9-C , 10-H ) :   0.9489 B(  9-C , 11-H ) :   0.9650 B(  9-C , 12-C ) :   1.0883
B( 12-C , 13-H ) :   0.9742 B( 12-C , 14-H ) :   0.9736 B( 12-C , 15-H ) :   0.9728
B( 16-S , 17-C ) :   1.1499 B( 16-S , 20-C ) :   1.1634 B( 17-C , 18-C ) :   1.6120
B( 17-C , 33-H ) :   0.9673 B( 18-C , 19-C ) :   1.2356 B( 18-C , 21-H ) :   0.9746
B( 19-C , 20-C ) :   1.5755 B( 19-C , 22-C ) :   1.0605 B( 22-C , 23-H ) :   0.9308
B( 22-C , 24-H ) :   0.9249 B( 22-C , 25-C ) :   1.0567 B( 25-C , 26-H ) :   0.9580
B( 25-C , 27-H ) :   0.9548 B( 25-C , 28-C ) :   1.0901 B( 28-C , 29-H ) :   0.9703
B( 28-C , 30-H ) :   0.9722 B( 28-C , 31-H ) :   0.9735

Dispersion correction           -0.013558792
FINAL SINGLE POINT ENERGY     -1339.871218721672

DIPOLE MOMENT
-------------
                                X             Y             Z
Electronic contribution:     14.46919      21.44597      13.61696
Nuclear contribution   :    -14.91499     -21.93072     -13.93102
                        -----------------------------------------
Total Dipole Moment    :     -0.44581      -0.48475      -0.31406
                        -----------------------------------------
Magnitude (a.u.)       :      0.72963
Magnitude (Debye)      :      1.85457

Rotational constants in cm-1:     0.016806     0.008280     0.006763
Rotational constants in MHz :   503.837655   248.218880   202.749394

                             ****ORCA TERMINATED NORMALLY****
TOTAL RUN TIME: 0 days 0 hours 0 minutes 19 seconds 994 msec
