                         Program Version 4.2.1 -  RELEASE  -
|  1> ! wB97X-D3 SP def2-SVP
|  2> %pal
|  3> nprocs 24
|  4> end
|  5>
|  6> * xyz 0 1
|  7> S 	 -40.6471 	 -47.3208 	 -73.9175
|  8> C 	 -41.2263 	 -48.4385 	 -75.1248
|  9> C 	 -40.5519 	 -49.6222 	 -75.0475
| 10> C 	 -39.5021 	 -49.5837 	 -74.0467
| 11> C 	 -39.4525 	 -48.3757 	 -73.3616
| 12> H 	 -38.7115 	 -50.3616 	 -73.8929
| 13> C 	 -40.834 	 -50.7352 	 -76.0312
| 14> H 	 -40.192 	 -51.4889 	 -75.7486
| 15> H 	 -40.3562 	 -50.4878 	 -76.9872
| 16> C 	 -42.3157 	 -51.1145 	 -76.2133
| 17> H 	 -42.7032 	 -50.2413 	 -76.7743
| 18> H 	 -42.3539 	 -51.9413 	 -76.9633
| 19> C 	 -43.0178 	 -51.4838 	 -74.8029
| 20> H 	 -43.4604 	 -50.6037 	 -74.3234
| 21> H 	 -43.8141 	 -52.1901 	 -74.9764
| 22> H 	 -42.364 	 -51.9949 	 -74.0678
| 23> S 	 -39.2657 	 -48.4488 	 -70.6323
| 24> C 	 -37.7487 	 -48.2267 	 -69.8434
| 25> C 	 -36.7213 	 -47.9366 	 -70.6852
| 26> C 	 -37.2142 	 -47.893 	 -72.0876
| 27> C 	 -38.5841 	 -48.1884 	 -72.2202
| 28> H 	 -35.7364 	 -47.7308 	 -70.2785
| 29> C 	 -36.2291 	 -47.5587 	 -73.2454
| 30> H 	 -35.7135 	 -46.5959 	 -72.9604
| 31> H 	 -36.8061 	 -47.298 	 -74.128
| 32> C 	 -35.3267 	 -48.7653 	 -73.6515
| 33> H 	 -35.9994 	 -49.359 	 -74.2243
| 34> H 	 -35.1075 	 -49.2697 	 -72.7519
| 35> C 	 -34.133 	 -48.3605 	 -74.4747
| 36> H 	 -33.8993 	 -49.1295 	 -75.2381
| 37> H 	 -33.328 	 -48.0173 	 -73.9199
| 38> H 	 -34.2742 	 -47.4231 	 -75.0289
| 39> H 	 -41.9474 	 -48.1538 	 -75.8064
| 40> H 	 -37.6001 	 -48.056 	 -68.8065
| 41> *
| 42>
| 43>                          ****END OF INPUT****

CARTESIAN COORDINATES (ANGSTROEM)
---------------------------------
  S    -40.647100  -47.320800  -73.917500
  C    -41.226300  -48.438500  -75.124800
  C    -40.551900  -49.622200  -75.047500
  C    -39.502100  -49.583700  -74.046700
  C    -39.452500  -48.375700  -73.361600
  H    -38.711500  -50.361600  -73.892900
  C    -40.834000  -50.735200  -76.031200
  H    -40.192000  -51.488900  -75.748600
  H    -40.356200  -50.487800  -76.987200
  C    -42.315700  -51.114500  -76.213300
  H    -42.703200  -50.241300  -76.774300
  H    -42.353900  -51.941300  -76.963300
  C    -43.017800  -51.483800  -74.802900
  H    -43.460400  -50.603700  -74.323400
  H    -43.814100  -52.190100  -74.976400
  H    -42.364000  -51.994900  -74.067800
  S    -39.265700  -48.448800  -70.632300
  C    -37.748700  -48.226700  -69.843400
  C    -36.721300  -47.936600  -70.685200
  C    -37.214200  -47.893000  -72.087600
  C    -38.584100  -48.188400  -72.220200
  H    -35.736400  -47.730800  -70.278500
  C    -36.229100  -47.558700  -73.245400
  H    -35.713500  -46.595900  -72.960400
  H    -36.806100  -47.298000  -74.128000
  C    -35.326700  -48.765300  -73.651500
  H    -35.999400  -49.359000  -74.224300
  H    -35.107500  -49.269700  -72.751900
  C    -34.133000  -48.360500  -74.474700
  H    -33.899300  -49.129500  -75.238100
  H    -33.328000  -48.017300  -73.919900
  H    -34.274200  -47.423100  -75.028900
  H    -41.947400  -48.153800  -75.806400
  H    -37.600100  -48.056000  -68.806500

 Total Charge           Charge          ....    0
 Multiplicity           Mult            ....    1
 Number of Electrons    NEL             ....  134
 Basis Dimension        Dim             ....  322

ORBITAL ENERGIES
----------------

  NO   OCC          E(Eh)            E(eV)
   0   2.0000     -88.965119     -2420.8640
   1   2.0000     -88.960819     -2420.7470
   2   2.0000     -10.326204      -280.9903
   3   2.0000     -10.324011      -280.9306
   4   2.0000     -10.310832      -280.5720
   5   2.0000     -10.309080      -280.5243
   6   2.0000     -10.306052      -280.4419
   7   2.0000     -10.301227      -280.3106
   8   2.0000     -10.299733      -280.2700
   9   2.0000     -10.298883      -280.2468
  10   2.0000     -10.294821      -280.1363
  11   2.0000     -10.291925      -280.0575
  12   2.0000     -10.284563      -279.8572
  13   2.0000     -10.284036      -279.8429
  14   2.0000     -10.278195      -279.6839
  15   2.0000     -10.271995      -279.5152
  16   2.0000      -8.081105      -219.8980
  17   2.0000      -8.076273      -219.7666
  18   2.0000      -6.039452      -164.3418
  19   2.0000      -6.035276      -164.2282
  20   2.0000      -6.034866      -164.2171
  21   2.0000      -6.032112      -164.1421
  22   2.0000      -6.030626      -164.1017
  23   2.0000      -6.026955      -164.0018
  24   2.0000      -1.010044       -27.4847
  25   2.0000      -0.984562       -26.7913
  26   2.0000      -0.910556       -24.7775
  27   2.0000      -0.904616       -24.6158
  28   2.0000      -0.869211       -23.6524
  29   2.0000      -0.843929       -22.9645
  30   2.0000      -0.840544       -22.8724
  31   2.0000      -0.814663       -22.1681
  32   2.0000      -0.785129       -21.3644
  33   2.0000      -0.770802       -20.9746
  34   2.0000      -0.713511       -19.4156
  35   2.0000      -0.707238       -19.2449
  36   2.0000      -0.694921       -18.9097
  37   2.0000      -0.655082       -17.8257
  38   2.0000      -0.647507       -17.6196
  39   2.0000      -0.606938       -16.5156
  40   2.0000      -0.589319       -16.0362
  41   2.0000      -0.576260       -15.6808
  42   2.0000      -0.563279       -15.3276
  43   2.0000      -0.544590       -14.8190
  44   2.0000      -0.539355       -14.6766
  45   2.0000      -0.522654       -14.2221
  46   2.0000      -0.517681       -14.0868
  47   2.0000      -0.510925       -13.9030
  48   2.0000      -0.506051       -13.7704
  49   2.0000      -0.500150       -13.6098
  50   2.0000      -0.488467       -13.2919
  51   2.0000      -0.477300       -12.9880
  52   2.0000      -0.472844       -12.8667
  53   2.0000      -0.466332       -12.6895
  54   2.0000      -0.456936       -12.4339
  55   2.0000      -0.448120       -12.1940
  56   2.0000      -0.440467       -11.9857
  57   2.0000      -0.433433       -11.7943
  58   2.0000      -0.431580       -11.7439
  59   2.0000      -0.430017       -11.7014
  60   2.0000      -0.419055       -11.4031
  61   2.0000      -0.414605       -11.2820
  62   2.0000      -0.408191       -11.1074
  63   2.0000      -0.335292        -9.1238
  64   2.0000      -0.327312        -8.9066
  65   2.0000      -0.320665        -8.7257
  66   2.0000      -0.311571        -8.4783
  67   0.0000       0.047156         1.2832
  68   0.0000       0.061759         1.6806
  69   0.0000       0.118026         3.2117
  70   0.0000       0.124674         3.3925
  71   0.0000       0.132458         3.6044

MULLIKEN ATOMIC CHARGES
-----------------------
   0 S :    0.125811
   1 C :   -0.118993
   2 C :   -0.089738
   3 C :    0.018312
   4 C :   -0.173298
   5 H :    0.036635
   6 C :    0.102819
   7 H :   -0.017335
   8 H :    0.032506
   9 C :   -0.083784
  10 H :    0.034856
  11 H :    0.037845
  12 C :   -0.053268
  13 H :    0.048520
  14 H :    0.031359
  15 H :    0.044654
  16 S :    0.111625
  17 C :   -0.069091
  18 C :   -0.043413
  19 C :   -0.058171
  20 C :   -0.167081
  21 H :    0.024559
  22 C :    0.022387
  23 H :    0.038087
  24 H :    0.022714
  25 C :   -0.029358
  26 H :    0.019287
  27 H :    0.022471
  28 C :   -0.015933
  29 H :    0.043012
  30 H :    0.015553
  31 H :    0.015539
  32 H :    0.023917
  33 H :    0.046998
Sum of atomic charges:    0.0000000

LOEWDIN ATOMIC CHARGES
----------------------
   0 S :    0.439786
   1 C :   -0.184701
   2 C :   -0.060724
   3 C :   -0.064449
   4 C :   -0.230163
   5 H :    0.039281
   6 C :   -0.036637
   7 H :    0.013630
   8 H :    0.036456
   9 C :   -0.038294
  10 H :    0.025969
  11 H :    0.028757
  12 C :   -0.067195
  13 H :    0.031261
  14 H :    0.023848
  15 H :    0.032871
  16 S :    0.413580
  17 C :   -0.189302
  18 C :   -0.075127
  19 C :   -0.047745
  20 C :   -0.207383
  21 H :    0.034071
  22 C :   -0.035029
  23 H :    0.032133
  24 H :    0.025917
  25 C :   -0.032753
  26 H :    0.023091
  27 H :    0.017273
  28 C :   -0.067008
  29 H :    0.033501
  30 H :    0.018252
  31 H :    0.029298
  32 H :    0.011703
  33 H :    0.025835

  Mayer bond orders larger than 0.100000
B(  0-S ,  1-C ) :   1.1474 B(  0-S ,  4-C ) :   1.1796 B(  1-C ,  2-C ) :   1.5829
B(  1-C , 32-H ) :   0.9879 B(  2-C ,  3-C ) :   1.2560 B(  2-C ,  6-C ) :   1.0108
B(  3-C ,  4-C ) :   1.5572 B(  3-C ,  5-H ) :   0.9847 B(  4-C , 20-C ) :   1.0163
B(  6-C ,  7-H ) :   0.9291 B(  6-C ,  8-H ) :   0.9350 B(  6-C ,  9-C ) :   1.0682
B(  9-C , 10-H ) :   0.9585 B(  9-C , 11-H ) :   0.9609 B(  9-C , 12-C ) :   1.0444
B( 12-C , 13-H ) :   0.9761 B( 12-C , 14-H ) :   0.9795 B( 12-C , 15-H ) :   0.9814
B( 16-S , 17-C ) :   1.1565 B( 16-S , 20-C ) :   1.1352 B( 17-C , 18-C ) :   1.6493
B( 17-C , 33-H ) :   0.9620 B( 18-C , 19-C ) :   1.2037 B( 18-C , 21-H ) :   0.9896
B( 19-C , 20-C ) :   1.6331 B( 19-C , 22-C ) :   1.0411 B( 22-C , 23-H ) :   0.9489
B( 22-C , 24-H ) :   0.9336 B( 22-C , 25-C ) :   1.0477 B( 25-C , 26-H ) :   0.9537
B( 25-C , 27-H ) :   0.9670 B( 25-C , 28-C ) :   1.0761 B( 28-C , 29-H ) :   0.9749
B( 28-C , 30-H ) :   0.9722 B( 28-C , 31-H ) :   0.9679

Dispersion correction           -0.014399533
FINAL SINGLE POINT ENERGY     -1339.865160511090

DIPOLE MOMENT
-------------
                                X             Y             Z
Electronic contribution:     -7.99974      11.68000      15.55769
Nuclear contribution   :      8.28382     -11.90365     -15.94692
                        -----------------------------------------
Total Dipole Moment    :      0.28407      -0.22365      -0.38923
                        -----------------------------------------
Magnitude (a.u.)       :      0.53124
Magnitude (Debye)      :      1.35032

Rotational constants in cm-1:     0.019373     0.008047     0.006665
Rotational constants in MHz :   580.796181   241.257398   199.812820

                             ****ORCA TERMINATED NORMALLY****
TOTAL RUN TIME: 0 days 0 hours 0 minutes 21 seconds 236 msec
