                         Program Version 4.2.1 -  RELEASE  -
|  1> ! wB97X-D3 SP def2-SVP
|  2> %pal
|  3> nprocs 24
|  4> end
|  5>
|  6> * xyz 0 1
|  7> S 	 -143.042 	 4.58597 	 13.0522
|  8> C 	 -142.507 	 4.28442 	 11.4377
|  9> C 	 -141.355 	 5.0173 	 11.0917
| 10> C 	 -140.945 	 5.85206 	 12.182
| 11> C 	 -141.652 	 5.63336 	 13.3632
| 12> H 	 -140.271 	 6.64906 	 12.2923
| 13> C 	 -140.803 	 5.0684 	 9.665
| 14> H 	 -139.674 	 5.33819 	 9.69916
| 15> H 	 -141.197 	 5.9223 	 9.18885
| 16> C 	 -140.873 	 3.76848 	 8.79145
| 17> H 	 -140.372 	 2.95997 	 9.31508
| 18> H 	 -141.964 	 3.63467 	 8.75944
| 19> C 	 -140.18 	 3.99013 	 7.47308
| 20> H 	 -139.932 	 2.99342 	 7.11358
| 21> H 	 -140.789 	 4.52472 	 6.71323
| 22> H 	 -139.195 	 4.52341 	 7.49941
| 23> S 	 -139.833 	 7.00758 	 14.9814
| 24> C 	 -140.251 	 7.42653 	 16.6607
| 25> C 	 -141.54 	 7.10031 	 16.9826
| 26> C 	 -142.179 	 6.4157 	 15.8846
| 27> C 	 -141.432 	 6.29459 	 14.6986
| 28> H 	 -142.016 	 7.18807 	 17.9839
| 29> C 	 -143.657 	 5.96186 	 16.0242
| 30> H 	 -143.785 	 4.98893 	 15.6784
| 31> H 	 -144.371 	 6.56941 	 15.3655
| 32> C 	 -144.301 	 5.89931 	 17.4441
| 33> H 	 -144.398 	 6.91612 	 17.7407
| 34> H 	 -143.738 	 5.45585 	 18.2545
| 35> C 	 -145.628 	 5.26049 	 17.5078
| 36> H 	 -145.567 	 4.20531 	 17.3518
| 37> H 	 -146.32 	 5.69752 	 16.7612
| 38> H 	 -146.15 	 5.36748 	 18.5197
| 39> H 	 -143.1 	 3.65296 	 10.719
| 40> H 	 -139.673 	 8.05424 	 17.2682
| 41> *
| 42>
| 43>                          ****END OF INPUT****

CARTESIAN COORDINATES (ANGSTROEM)
---------------------------------
  S    -143.042000    4.585970   13.052200
  C    -142.507000    4.284420   11.437700
  C    -141.355000    5.017300   11.091700
  C    -140.945000    5.852060   12.182000
  C    -141.652000    5.633360   13.363200
  H    -140.271000    6.649060   12.292300
  C    -140.803000    5.068400    9.665000
  H    -139.674000    5.338190    9.699160
  H    -141.197000    5.922300    9.188850
  C    -140.873000    3.768480    8.791450
  H    -140.372000    2.959970    9.315080
  H    -141.964000    3.634670    8.759440
  C    -140.180000    3.990130    7.473080
  H    -139.932000    2.993420    7.113580
  H    -140.789000    4.524720    6.713230
  H    -139.195000    4.523410    7.499410
  S    -139.833000    7.007580   14.981400
  C    -140.251000    7.426530   16.660700
  C    -141.540000    7.100310   16.982600
  C    -142.179000    6.415700   15.884600
  C    -141.432000    6.294590   14.698600
  H    -142.016000    7.188070   17.983900
  C    -143.657000    5.961860   16.024200
  H    -143.785000    4.988930   15.678400
  H    -144.371000    6.569410   15.365500
  C    -144.301000    5.899310   17.444100
  H    -144.398000    6.916120   17.740700
  H    -143.738000    5.455850   18.254500
  C    -145.628000    5.260490   17.507800
  H    -145.567000    4.205310   17.351800
  H    -146.320000    5.697520   16.761200
  H    -146.150000    5.367480   18.519700
  H    -143.100000    3.652960   10.719000
  H    -139.673000    8.054240   17.268200

 Total Charge           Charge          ....    0
 Multiplicity           Mult            ....    1
 Number of Electrons    NEL             ....  134
 Basis Dimension        Dim             ....  322

ORBITAL ENERGIES
----------------

  NO   OCC          E(Eh)            E(eV)
   0   2.0000     -88.969132     -2420.9732
   1   2.0000     -88.967648     -2420.9328
   2   2.0000     -10.338132      -281.3149
   3   2.0000     -10.337491      -281.2974
   4   2.0000     -10.319321      -280.8030
   5   2.0000     -10.318412      -280.7783
   6   2.0000     -10.310966      -280.5757
   7   2.0000     -10.309715      -280.5416
   8   2.0000     -10.300223      -280.2833
   9   2.0000     -10.295461      -280.1537
  10   2.0000     -10.295090      -280.1436
  11   2.0000     -10.295016      -280.1416
  12   2.0000     -10.291940      -280.0579
  13   2.0000     -10.284036      -279.8429
  14   2.0000     -10.280396      -279.7438
  15   2.0000     -10.279454      -279.7182
  16   2.0000      -8.083186      -219.9547
  17   2.0000      -8.081391      -219.9058
  18   2.0000      -6.041651      -164.4017
  19   2.0000      -6.040088      -164.3592
  20   2.0000      -6.037776      -164.2962
  21   2.0000      -6.036066      -164.2497
  22   2.0000      -6.034063      -164.1952
  23   2.0000      -6.032004      -164.1392
  24   2.0000      -1.000882       -27.2354
  25   2.0000      -0.980693       -26.6860
  26   2.0000      -0.910402       -24.7733
  27   2.0000      -0.909207       -24.7408
  28   2.0000      -0.867945       -23.6180
  29   2.0000      -0.856073       -23.2949
  30   2.0000      -0.845678       -23.0121
  31   2.0000      -0.816603       -22.2209
  32   2.0000      -0.778710       -21.1898
  33   2.0000      -0.766855       -20.8672
  34   2.0000      -0.708049       -19.2670
  35   2.0000      -0.701240       -19.0817
  36   2.0000      -0.693180       -18.8624
  37   2.0000      -0.661077       -17.9888
  38   2.0000      -0.639178       -17.3929
  39   2.0000      -0.608889       -16.5687
  40   2.0000      -0.599965       -16.3259
  41   2.0000      -0.572682       -15.5835
  42   2.0000      -0.570765       -15.5313
  43   2.0000      -0.566940       -15.4272
  44   2.0000      -0.524317       -14.2674
  45   2.0000      -0.520837       -14.1727
  46   2.0000      -0.515785       -14.0352
  47   2.0000      -0.511020       -13.9056
  48   2.0000      -0.505693       -13.7606
  49   2.0000      -0.501373       -13.6431
  50   2.0000      -0.481952       -13.1146
  51   2.0000      -0.477157       -12.9841
  52   2.0000      -0.474732       -12.9181
  53   2.0000      -0.470243       -12.7959
  54   2.0000      -0.462668       -12.5898
  55   2.0000      -0.455492       -12.3946
  56   2.0000      -0.449582       -12.2337
  57   2.0000      -0.436596       -11.8804
  58   2.0000      -0.430517       -11.7150
  59   2.0000      -0.425210       -11.5706
  60   2.0000      -0.419573       -11.4172
  61   2.0000      -0.408246       -11.1089
  62   2.0000      -0.404344       -11.0028
  63   2.0000      -0.361246        -9.8300
  64   2.0000      -0.332712        -9.0536
  65   2.0000      -0.330182        -8.9847
  66   2.0000      -0.282746        -7.6939
  67   0.0000       0.018818         0.5121
  68   0.0000       0.081559         2.2193
  69   0.0000       0.107336         2.9208
  70   0.0000       0.117412         3.1949
  71   0.0000       0.128820         3.5054

MULLIKEN ATOMIC CHARGES
-----------------------
   0 S :    0.097266
   1 C :   -0.145374
   2 C :   -0.033318
   3 C :    0.011002
   4 C :   -0.125375
   5 H :   -0.003037
   6 C :    0.000145
   7 H :    0.026457
   8 H :    0.035544
   9 C :   -0.070123
  10 H :    0.041922
  11 H :    0.037024
  12 C :   -0.053278
  13 H :    0.031875
  14 H :    0.040837
  15 H :    0.037305
  16 S :    0.074186
  17 C :   -0.047379
  18 C :   -0.037874
  19 C :   -0.073427
  20 C :   -0.108150
  21 H :    0.045852
  22 C :    0.022533
  23 H :    0.017312
  24 H :    0.052297
  25 C :   -0.073043
  26 H :    0.018626
  27 H :    0.028684
  28 C :   -0.063313
  29 H :    0.030621
  30 H :    0.029844
  31 H :    0.041187
  32 H :    0.074058
  33 H :    0.039114
Sum of atomic charges:   -0.0000000

LOEWDIN ATOMIC CHARGES
----------------------
   0 S :    0.417823
   1 C :   -0.217386
   2 C :   -0.059733
   3 C :   -0.065170
   4 C :   -0.178782
   5 H :    0.018877
   6 C :   -0.037309
   7 H :    0.033278
   8 H :    0.025339
   9 C :   -0.039159
  10 H :    0.029243
  11 H :    0.026069
  12 C :   -0.071141
  13 H :    0.027902
  14 H :    0.029706
  15 H :    0.031512
  16 S :    0.385327
  17 C :   -0.163397
  18 C :   -0.071014
  19 C :   -0.059625
  20 C :   -0.184405
  21 H :    0.044497
  22 C :   -0.037854
  23 H :    0.009417
  24 H :    0.042641
  25 C :   -0.050512
  26 H :    0.017068
  27 H :    0.023878
  28 C :   -0.066319
  29 H :    0.020241
  30 H :    0.025685
  31 H :    0.037078
  32 H :    0.036968
  33 H :    0.019256

  Mayer bond orders larger than 0.100000
B(  0-S ,  1-C ) :   1.1497 B(  0-S ,  4-C ) :   1.1473 B(  1-C ,  2-C ) :   1.5868
B(  1-C , 32-H ) :   0.9599 B(  2-C ,  3-C ) :   1.2427 B(  2-C ,  6-C ) :   1.0103
B(  3-C ,  4-C ) :   1.5683 B(  3-C ,  5-H ) :   0.9962 B(  4-C , 20-C ) :   1.0586
B(  6-C ,  7-H ) :   0.9459 B(  6-C ,  8-H ) :   0.9436 B(  6-C ,  9-C ) :   1.0544
B(  9-C , 10-H ) :   0.9632 B(  9-C , 11-H ) :   0.9496 B(  9-C , 12-C ) :   1.0854
B( 12-C , 13-H ) :   0.9748 B( 12-C , 14-H ) :   0.9733 B( 12-C , 15-H ) :   0.9718
B( 16-S , 17-C ) :   1.1468 B( 16-S , 20-C ) :   1.1247 B( 17-C , 18-C ) :   1.6122
B( 17-C , 33-H ) :   0.9645 B( 18-C , 19-C ) :   1.2630 B( 18-C , 21-H ) :   0.9741
B( 19-C , 20-C ) :   1.5952 B( 19-C , 22-C ) :   1.0181 B( 22-C , 23-H ) :   0.9386
B( 22-C , 24-H ) :   0.9356 B( 22-C , 25-C ) :   1.0647 B( 25-C , 26-H ) :   0.9430
B( 25-C , 27-H ) :   0.9534 B( 25-C , 28-C ) :   1.1023 B( 28-C , 29-H ) :   0.9725
B( 28-C , 30-H ) :   0.9706 B( 28-C , 31-H ) :   0.9688

Dispersion correction           -0.012897954
FINAL SINGLE POINT ENERGY     -1339.864652005150

DIPOLE MOMENT
-------------
                                X             Y             Z
Electronic contribution:      8.46635       5.94650       8.21194
Nuclear contribution   :     -8.68736      -5.87506      -8.32188
                        -----------------------------------------
Total Dipole Moment    :     -0.22100       0.07144      -0.10994
                        -----------------------------------------
Magnitude (a.u.)       :      0.25697
Magnitude (Debye)      :      0.65316

Rotational constants in cm-1:     0.024447     0.006571     0.005239
Rotational constants in MHz :   732.887818   196.982089   157.074814

                             ****ORCA TERMINATED NORMALLY****
TOTAL RUN TIME: 0 days 0 hours 0 minutes 20 seconds 204 msec
