                         Program Version 4.2.1 -  RELEASE  -
|  1> ! wB97X-D3 SP def2-SVP
|  2> %pal
|  3> nprocs 24
|  4> end
|  5>
|  6> * xyz 0 1
|  7> S 	 -120.448 	 26.2823 	 -116.32
|  8> C 	 -119.846 	 25.8138 	 -117.966
|  9> C 	 -119.16 	 26.8035 	 -118.618
| 10> C 	 -119.044 	 27.9589 	 -117.764
| 11> C 	 -119.735 	 27.8654 	 -116.601
| 12> H 	 -118.493 	 28.7623 	 -117.983
| 13> C 	 -118.625 	 26.669 	 -120.021
| 14> H 	 -118.199 	 25.674 	 -120.184
| 15> H 	 -117.738 	 27.4021 	 -120.003
| 16> C 	 -119.553 	 26.9942 	 -121.26
| 17> H 	 -119.701 	 28.0356 	 -121.369
| 18> H 	 -118.958 	 26.8376 	 -122.108
| 19> C 	 -120.771 	 26.0065 	 -121.437
| 20> H 	 -121.493 	 26.3253 	 -122.203
| 21> H 	 -120.472 	 25.0044 	 -121.773
| 22> H 	 -121.279 	 26.0201 	 -120.466
| 23> S 	 -121.247 	 29.9343 	 -115.496
| 24> C 	 -120.844 	 30.5395 	 -113.935
| 25> C 	 -119.683 	 29.9594 	 -113.46
| 26> C 	 -119.129 	 28.9879 	 -114.369
| 27> C 	 -119.87 	 28.8604 	 -115.529
| 28> H 	 -119.305 	 30.3054 	 -112.532
| 29> C 	 -117.875 	 28.1852 	 -114.13
| 30> H 	 -117.44 	 28.1195 	 -115.101
| 31> H 	 -118.254 	 27.1448 	 -113.889
| 32> C 	 -116.901 	 28.6602 	 -113.037
| 33> H 	 -115.974 	 28.0619 	 -112.929
| 34> H 	 -117.457 	 28.6135 	 -112.061
| 35> C 	 -116.356 	 30.0735 	 -113.224
| 36> H 	 -115.339 	 30.0647 	 -113.501
| 37> H 	 -116.473 	 30.6607 	 -112.366
| 38> H 	 -116.887 	 30.5214 	 -114.058
| 39> H 	 -120.06 	 24.9165 	 -118.478
| 40> H 	 -121.108 	 31.5209 	 -113.578
| 41> *
| 42>
| 43>                          ****END OF INPUT****

CARTESIAN COORDINATES (ANGSTROEM)
---------------------------------
  S    -120.448000   26.282300  -116.320000
  C    -119.846000   25.813800  -117.966000
  C    -119.160000   26.803500  -118.618000
  C    -119.044000   27.958900  -117.764000
  C    -119.735000   27.865400  -116.601000
  H    -118.493000   28.762300  -117.983000
  C    -118.625000   26.669000  -120.021000
  H    -118.199000   25.674000  -120.184000
  H    -117.738000   27.402100  -120.003000
  C    -119.553000   26.994200  -121.260000
  H    -119.701000   28.035600  -121.369000
  H    -118.958000   26.837600  -122.108000
  C    -120.771000   26.006500  -121.437000
  H    -121.493000   26.325300  -122.203000
  H    -120.472000   25.004400  -121.773000
  H    -121.279000   26.020100  -120.466000
  S    -121.247000   29.934300  -115.496000
  C    -120.844000   30.539500  -113.935000
  C    -119.683000   29.959400  -113.460000
  C    -119.129000   28.987900  -114.369000
  C    -119.870000   28.860400  -115.529000
  H    -119.305000   30.305400  -112.532000
  C    -117.875000   28.185200  -114.130000
  H    -117.440000   28.119500  -115.101000
  H    -118.254000   27.144800  -113.889000
  C    -116.901000   28.660200  -113.037000
  H    -115.974000   28.061900  -112.929000
  H    -117.457000   28.613500  -112.061000
  C    -116.356000   30.073500  -113.224000
  H    -115.339000   30.064700  -113.501000
  H    -116.473000   30.660700  -112.366000
  H    -116.887000   30.521400  -114.058000
  H    -120.060000   24.916500  -118.478000
  H    -121.108000   31.520900  -113.578000

 Total Charge           Charge          ....    0
 Multiplicity           Mult            ....    1
 Number of Electrons    NEL             ....  134
 Basis Dimension        Dim             ....  322

ORBITAL ENERGIES
----------------

  NO   OCC          E(Eh)            E(eV)
   0   2.0000     -88.967483     -2420.9283
   1   2.0000     -88.962541     -2420.7938
   2   2.0000     -10.328158      -281.0435
   3   2.0000     -10.321036      -280.8497
   4   2.0000     -10.312294      -280.6118
   5   2.0000     -10.311370      -280.5866
   6   2.0000     -10.304647      -280.4037
   7   2.0000     -10.303027      -280.3596
   8   2.0000     -10.300703      -280.2964
   9   2.0000     -10.291515      -280.0464
  10   2.0000     -10.289903      -280.0025
  11   2.0000     -10.289419      -279.9893
  12   2.0000     -10.287793      -279.9451
  13   2.0000     -10.287306      -279.9318
  14   2.0000     -10.284973      -279.8683
  15   2.0000     -10.263954      -279.2964
  16   2.0000      -8.081070      -219.8971
  17   2.0000      -8.077803      -219.8082
  18   2.0000      -6.039683      -164.3481
  19   2.0000      -6.036251      -164.2548
  20   2.0000      -6.035926      -164.2459
  21   2.0000      -6.032050      -164.1404
  22   2.0000      -6.031601      -164.1282
  23   2.0000      -6.028787      -164.0516
  24   2.0000      -1.006151       -27.3788
  25   2.0000      -0.982446       -26.7337
  26   2.0000      -0.908729       -24.7278
  27   2.0000      -0.905613       -24.6430
  28   2.0000      -0.867307       -23.6006
  29   2.0000      -0.848202       -23.0807
  30   2.0000      -0.846375       -23.0310
  31   2.0000      -0.818775       -22.2800
  32   2.0000      -0.785194       -21.3662
  33   2.0000      -0.774177       -21.0664
  34   2.0000      -0.712784       -19.3958
  35   2.0000      -0.702318       -19.1111
  36   2.0000      -0.696148       -18.9432
  37   2.0000      -0.653618       -17.7858
  38   2.0000      -0.645779       -17.5725
  39   2.0000      -0.622049       -16.9268
  40   2.0000      -0.590907       -16.0794
  41   2.0000      -0.568123       -15.4594
  42   2.0000      -0.556180       -15.1344
  43   2.0000      -0.547041       -14.8857
  44   2.0000      -0.544653       -14.8208
  45   2.0000      -0.543719       -14.7954
  46   2.0000      -0.522652       -14.2221
  47   2.0000      -0.508639       -13.8408
  48   2.0000      -0.502073       -13.6621
  49   2.0000      -0.492827       -13.4105
  50   2.0000      -0.487212       -13.2577
  51   2.0000      -0.478198       -13.0124
  52   2.0000      -0.476818       -12.9749
  53   2.0000      -0.463208       -12.6045
  54   2.0000      -0.455564       -12.3965
  55   2.0000      -0.448299       -12.1988
  56   2.0000      -0.441384       -12.0107
  57   2.0000      -0.437815       -11.9136
  58   2.0000      -0.433364       -11.7924
  59   2.0000      -0.431892       -11.7524
  60   2.0000      -0.421174       -11.4607
  61   2.0000      -0.413594       -11.2545
  62   2.0000      -0.411065       -11.1857
  63   2.0000      -0.335164        -9.1203
  64   2.0000      -0.328845        -8.9483
  65   2.0000      -0.319310        -8.6889
  66   2.0000      -0.314426        -8.5560
  67   0.0000       0.044366         1.2072
  68   0.0000       0.052339         1.4242
  69   0.0000       0.103892         2.8271
  70   0.0000       0.122278         3.3274
  71   0.0000       0.128323         3.4918

MULLIKEN ATOMIC CHARGES
-----------------------
   0 S :    0.111948
   1 C :   -0.101062
   2 C :   -0.077397
   3 C :    0.104069
   4 C :   -0.171204
   5 H :   -0.046780
   6 C :    0.011920
   7 H :    0.033997
   8 H :    0.034626
   9 C :   -0.011596
  10 H :    0.019717
  11 H :    0.010842
  12 C :   -0.079789
  13 H :    0.040573
  14 H :    0.035652
  15 H :    0.049747
  16 S :    0.115257
  17 C :   -0.080437
  18 C :   -0.052734
  19 C :   -0.053095
  20 C :   -0.190392
  21 H :    0.004940
  22 C :    0.106180
  23 H :    0.023648
  24 H :    0.045442
  25 C :   -0.099264
  26 H :    0.040117
  27 H :    0.036060
  28 C :   -0.020803
  29 H :    0.019876
  30 H :    0.022427
  31 H :    0.030811
  32 H :    0.024647
  33 H :    0.062053
Sum of atomic charges:    0.0000000

LOEWDIN ATOMIC CHARGES
----------------------
   0 S :    0.377283
   1 C :   -0.166574
   2 C :   -0.064242
   3 C :   -0.040013
   4 C :   -0.182397
   5 H :    0.010298
   6 C :   -0.034229
   7 H :    0.032214
   8 H :    0.040477
   9 C :   -0.034326
  10 H :    0.020482
  11 H :    0.019452
  12 C :   -0.069534
  13 H :    0.030720
  14 H :    0.026424
  15 H :    0.028238
  16 S :    0.421450
  17 C :   -0.199405
  18 C :   -0.068884
  19 C :   -0.053245
  20 C :   -0.217552
  21 H :    0.024674
  22 C :   -0.037070
  23 H :    0.027307
  24 H :    0.044344
  25 C :   -0.048204
  26 H :    0.032471
  27 H :    0.027403
  28 C :   -0.061894
  29 H :    0.020392
  30 H :    0.019178
  31 H :    0.027357
  32 H :    0.015941
  33 H :    0.031464

  Mayer bond orders larger than 0.100000
B(  0-S ,  1-C ) :   1.1137 B(  0-S ,  4-C ) :   1.1282 B(  1-C ,  2-C ) :   1.6635
B(  1-C , 32-H ) :   0.9657 B(  2-C ,  3-C ) :   1.1933 B(  2-C ,  6-C ) :   1.0178
B(  3-C ,  4-C ) :   1.6354 B(  3-C ,  5-H ) :   1.0130 B(  4-C , 20-C ) :   0.9989
B(  6-C ,  7-H ) :   0.9447 B(  6-C ,  8-H ) :   0.9399 B(  6-C ,  9-C ) :   1.0689
B(  9-C , 10-H ) :   0.9596 B(  9-C , 11-H ) :   0.9500 B(  9-C , 12-C ) :   1.0597
B( 12-C , 13-H ) :   0.9748 B( 12-C , 14-H ) :   0.9768 B( 12-C , 15-H ) :   0.9785
B( 16-S , 17-C ) :   1.1743 B( 16-S , 20-C ) :   1.1569 B( 17-C , 18-C ) :   1.6033
B( 17-C , 33-H ) :   0.9553 B( 18-C , 19-C ) :   1.2424 B( 18-C , 21-H ) :   0.9950
B( 19-C , 20-C ) :   1.5917 B( 19-C , 22-C ) :   1.0235 B( 22-C , 23-H ) :   0.9318
B( 22-C , 24-H ) :   0.9187 B( 22-C , 25-C ) :   1.0820 B( 25-C , 26-H ) :   0.9618
B( 25-C , 27-H ) :   0.9572 B( 25-C , 28-C ) :   1.0603 B( 28-C , 29-H ) :   0.9776
B( 28-C , 30-H ) :   0.9752 B( 28-C , 31-H ) :   0.9806

Dispersion correction           -0.014672876
FINAL SINGLE POINT ENERGY     -1339.862005945112

DIPOLE MOMENT
-------------
                                X             Y             Z
Electronic contribution:    -15.02074       1.67594       8.58890
Nuclear contribution   :     15.60687      -1.59288      -8.90161
                        -----------------------------------------
Total Dipole Moment    :      0.58613       0.08306      -0.31271
                        -----------------------------------------
Magnitude (a.u.)       :      0.66950
Magnitude (Debye)      :      1.70174

Rotational constants in cm-1:     0.024065     0.007153     0.006457
Rotational constants in MHz :   721.438444   214.431506   193.575066

                             ****ORCA TERMINATED NORMALLY****
TOTAL RUN TIME: 0 days 0 hours 0 minutes 21 seconds 381 msec
