                         Program Version 4.2.1 -  RELEASE  -
|  1> ! wB97X-D3 SP def2-SVP
|  2> %pal
|  3> nprocs 24
|  4> end
|  5>
|  6> * xyz 0 1
|  7> S 	 -97.5705 	 1.44205 	 -118.572
|  8> C 	 -97.398 	 0.656402 	 -120.151
|  9> C 	 -98.5221 	 0.837181 	 -120.953
| 10> C 	 -99.4595 	 1.56702 	 -120.249
| 11> C 	 -99.2629 	 1.79993 	 -118.92
| 12> H 	 -100.384 	 2.03 	 -120.542
| 13> C 	 -98.554 	 0.615864 	 -122.4
| 14> H 	 -97.6944 	 0.136437 	 -122.847
| 15> H 	 -98.4268 	 1.60111 	 -122.713
| 16> C 	 -99.8098 	 -0.0483655 	 -123.054
| 17> H 	 -100.734 	 0.504858 	 -122.919
| 18> H 	 -99.6267 	 -0.130713 	 -124.183
| 19> C 	 -100.051 	 -1.41346 	 -122.503
| 20> H 	 -99.3801 	 -2.10337 	 -122.922
| 21> H 	 -100.018 	 -1.41728 	 -121.409
| 22> H 	 -101.135 	 -1.56971 	 -122.721
| 23> S 	 -99.236 	 3.38445 	 -116.542
| 24> C 	 -100.751 	 3.75042 	 -115.725
| 25> C 	 -101.827 	 3.19826 	 -116.372
| 26> C 	 -101.432 	 2.52747 	 -117.585
| 27> C 	 -100.045 	 2.45659 	 -117.832
| 28> H 	 -102.87 	 3.2838 	 -116.055
| 29> C 	 -102.369 	 1.74911 	 -118.484
| 30> H 	 -103.14 	 1.26467 	 -117.819
| 31> H 	 -101.884 	 0.899684 	 -119.034
| 32> C 	 -103.168 	 2.63847 	 -119.393
| 33> H 	 -102.491 	 3.21521 	 -120.056
| 34> H 	 -103.668 	 3.38586 	 -118.762
| 35> C 	 -104.2 	 1.95621 	 -120.21
| 36> H 	 -103.701 	 1.20625 	 -120.87
| 37> H 	 -104.932 	 2.59862 	 -120.722
| 38> H 	 -104.822 	 1.4826 	 -119.516
| 39> H 	 -96.4178 	 0.235572 	 -120.496
| 40> H 	 -100.919 	 4.24743 	 -114.76
| 41> *
| 42>
| 43>                          ****END OF INPUT****

CARTESIAN COORDINATES (ANGSTROEM)
---------------------------------
  S    -97.570500    1.442050  -118.572000
  C    -97.398000    0.656402  -120.151000
  C    -98.522100    0.837181  -120.953000
  C    -99.459500    1.567020  -120.249000
  C    -99.262900    1.799930  -118.920000
  H    -100.384000    2.030000  -120.542000
  C    -98.554000    0.615864  -122.400000
  H    -97.694400    0.136437  -122.847000
  H    -98.426800    1.601110  -122.713000
  C    -99.809800   -0.048365  -123.054000
  H    -100.734000    0.504858  -122.919000
  H    -99.626700   -0.130713  -124.183000
  C    -100.051000   -1.413460  -122.503000
  H    -99.380100   -2.103370  -122.922000
  H    -100.018000   -1.417280  -121.409000
  H    -101.135000   -1.569710  -122.721000
  S    -99.236000    3.384450  -116.542000
  C    -100.751000    3.750420  -115.725000
  C    -101.827000    3.198260  -116.372000
  C    -101.432000    2.527470  -117.585000
  C    -100.045000    2.456590  -117.832000
  H    -102.870000    3.283800  -116.055000
  C    -102.369000    1.749110  -118.484000
  H    -103.140000    1.264670  -117.819000
  H    -101.884000    0.899684  -119.034000
  C    -103.168000    2.638470  -119.393000
  H    -102.491000    3.215210  -120.056000
  H    -103.668000    3.385860  -118.762000
  C    -104.200000    1.956210  -120.210000
  H    -103.701000    1.206250  -120.870000
  H    -104.932000    2.598620  -120.722000
  H    -104.822000    1.482600  -119.516000
  H    -96.417800    0.235572  -120.496000
  H    -100.919000    4.247430  -114.760000

 Total Charge           Charge          ....    0
 Multiplicity           Mult            ....    1
 Number of Electrons    NEL             ....  134
 Basis Dimension        Dim             ....  322

ORBITAL ENERGIES
----------------

  NO   OCC          E(Eh)            E(eV)
   0   2.0000     -88.969793     -2420.9912
   1   2.0000     -88.962999     -2420.8063
   2   2.0000     -10.337387      -281.2946
   3   2.0000     -10.334704      -281.2216
   4   2.0000     -10.324367      -280.9403
   5   2.0000     -10.320212      -280.8273
   6   2.0000     -10.307827      -280.4902
   7   2.0000     -10.302607      -280.3482
   8   2.0000     -10.300556      -280.2924
   9   2.0000     -10.294520      -280.1281
  10   2.0000     -10.291011      -280.0326
  11   2.0000     -10.290922      -280.0302
  12   2.0000     -10.286752      -279.9167
  13   2.0000     -10.282834      -279.8101
  14   2.0000     -10.275133      -279.6006
  15   2.0000     -10.271557      -279.5033
  16   2.0000      -8.083504      -219.9633
  17   2.0000      -8.077578      -219.8021
  18   2.0000      -6.042268      -164.4185
  19   2.0000      -6.038094      -164.3049
  20   2.0000      -6.036022      -164.2485
  21   2.0000      -6.034111      -164.1965
  22   2.0000      -6.032263      -164.1462
  23   2.0000      -6.028252      -164.0371
  24   2.0000      -1.007759       -27.4225
  25   2.0000      -0.986143       -26.8343
  26   2.0000      -0.919626       -25.0243
  27   2.0000      -0.918406       -24.9911
  28   2.0000      -0.872503       -23.7420
  29   2.0000      -0.855707       -23.2850
  30   2.0000      -0.847131       -23.0516
  31   2.0000      -0.824031       -22.4230
  32   2.0000      -0.787121       -21.4186
  33   2.0000      -0.770964       -20.9790
  34   2.0000      -0.705460       -19.1965
  35   2.0000      -0.692190       -18.8354
  36   2.0000      -0.691148       -18.8071
  37   2.0000      -0.659155       -17.9365
  38   2.0000      -0.650367       -17.6974
  39   2.0000      -0.623861       -16.9761
  40   2.0000      -0.598457       -16.2848
  41   2.0000      -0.575974       -15.6730
  42   2.0000      -0.571058       -15.5393
  43   2.0000      -0.560710       -15.2577
  44   2.0000      -0.544779       -14.8242
  45   2.0000      -0.525102       -14.2887
  46   2.0000      -0.522575       -14.2200
  47   2.0000      -0.516337       -14.0502
  48   2.0000      -0.508120       -13.8266
  49   2.0000      -0.499888       -13.6026
  50   2.0000      -0.491254       -13.3677
  51   2.0000      -0.479170       -13.0389
  52   2.0000      -0.474862       -12.9216
  53   2.0000      -0.467641       -12.7252
  54   2.0000      -0.460048       -12.5185
  55   2.0000      -0.456762       -12.4291
  56   2.0000      -0.438074       -11.9206
  57   2.0000      -0.430948       -11.7267
  58   2.0000      -0.428606       -11.6630
  59   2.0000      -0.427173       -11.6240
  60   2.0000      -0.419757       -11.4222
  61   2.0000      -0.415378       -11.3030
  62   2.0000      -0.408788       -11.1237
  63   2.0000      -0.356686        -9.7059
  64   2.0000      -0.335127        -9.1193
  65   2.0000      -0.328618        -8.9421
  66   2.0000      -0.286002        -7.7825
  67   0.0000       0.018618         0.5066
  68   0.0000       0.075492         2.0542
  69   0.0000       0.100134         2.7248
  70   0.0000       0.114288         3.1099
  71   0.0000       0.127061         3.4575

MULLIKEN ATOMIC CHARGES
-----------------------
   0 S :    0.080722
   1 C :   -0.139799
   2 C :   -0.041261
   3 C :    0.010386
   4 C :   -0.142049
   5 H :   -0.010128
   6 C :    0.093720
   7 H :    0.012459
   8 H :    0.027239
   9 C :   -0.115065
  10 H :    0.028338
  11 H :    0.041560
  12 C :   -0.031830
  13 H :    0.028488
  14 H :    0.040221
  15 H :    0.031436
  16 S :    0.097394
  17 C :   -0.084158
  18 C :   -0.019343
  19 C :   -0.048915
  20 C :   -0.114294
  21 H :    0.027369
  22 C :   -0.002986
  23 H :    0.021364
  24 H :    0.044688
  25 C :   -0.092086
  26 H :    0.027748
  27 H :    0.017775
  28 C :    0.004873
  29 H :    0.033776
  30 H :    0.036954
  31 H :    0.001696
  32 H :    0.065502
  33 H :    0.068205
Sum of atomic charges:    0.0000000

LOEWDIN ATOMIC CHARGES
----------------------
   0 S :    0.382651
   1 C :   -0.189053
   2 C :   -0.066573
   3 C :   -0.069550
   4 C :   -0.173407
   5 H :    0.029185
   6 C :   -0.032741
   7 H :    0.031784
   8 H :    0.034406
   9 C :   -0.044649
  10 H :    0.018643
  11 H :    0.033843
  12 C :   -0.062943
  13 H :    0.017862
  14 H :    0.027520
  15 H :    0.033489
  16 S :    0.386925
  17 C :   -0.181877
  18 C :   -0.072731
  19 C :   -0.054583
  20 C :   -0.190762
  21 H :    0.036525
  22 C :   -0.040649
  23 H :    0.032210
  24 H :    0.033300
  25 C :   -0.050169
  26 H :    0.018499
  27 H :    0.023652
  28 C :   -0.064044
  29 H :    0.029234
  30 H :    0.031592
  31 H :    0.015986
  32 H :    0.035712
  33 H :    0.040712

  Mayer bond orders larger than 0.100000
B(  0-S ,  1-C ) :   1.1495 B(  0-S ,  4-C ) :   1.1384 B(  1-C ,  2-C ) :   1.5751
B(  1-C ,  4-C ) :   0.1084 B(  1-C , 32-H ) :   0.9633 B(  2-C ,  3-C ) :   1.2230
B(  2-C ,  6-C ) :   1.0235 B(  3-C ,  4-C ) :   1.5833 B(  3-C ,  5-H ) :   0.9952
B(  4-C , 20-C ) :   1.0508 B(  6-C ,  7-H ) :   0.9399 B(  6-C ,  8-H ) :   0.9288
B(  6-C ,  9-C ) :   1.0665 B(  9-C , 10-H ) :   0.9622 B(  9-C , 11-H ) :   0.9559
B(  9-C , 12-C ) :   1.0758 B( 12-C , 13-H ) :   0.9766 B( 12-C , 14-H ) :   0.9725
B( 12-C , 15-H ) :   0.9751 B( 16-S , 17-C ) :   1.1502 B( 16-S , 20-C ) :   1.1151
B( 17-C , 18-C ) :   1.6122 B( 17-C , 33-H ) :   0.9604 B( 18-C , 19-C ) :   1.2547
B( 18-C , 21-H ) :   0.9835 B( 19-C , 20-C ) :   1.5919 B( 19-C , 22-C ) :   1.0447
B( 22-C , 23-H ) :   0.9320 B( 22-C , 24-H ) :   0.9425 B( 22-C , 25-C ) :   1.0560
B( 25-C , 26-H ) :   0.9481 B( 25-C , 27-H ) :   0.9507 B( 25-C , 28-C ) :   1.0908
B( 28-C , 29-H ) :   0.9699 B( 28-C , 30-H ) :   0.9703 B( 28-C , 31-H ) :   0.9658

Dispersion correction           -0.014413974
FINAL SINGLE POINT ENERGY     -1339.862238730906

DIPOLE MOMENT
-------------
                                X             Y             Z
Electronic contribution:     20.25588      10.35498      22.48072
Nuclear contribution   :    -20.80615     -10.36526     -22.91298
                        -----------------------------------------
Total Dipole Moment    :     -0.55027      -0.01028      -0.43226
                        -----------------------------------------
Magnitude (a.u.)       :      0.69982
Magnitude (Debye)      :      1.77880

Rotational constants in cm-1:     0.017449     0.010072     0.006693
Rotational constants in MHz :   523.110397   301.957143   200.636901

                             ****ORCA TERMINATED NORMALLY****
TOTAL RUN TIME: 0 days 0 hours 0 minutes 22 seconds 503 msec
