                         Program Version 4.2.1 -  RELEASE  -
|  1> ! wB97X-D3 SP def2-SVP
|  2> %pal
|  3> nprocs 24
|  4> end
|  5>
|  6> * xyz 0 1
|  7> S 	 -75.8615 	 1.72096 	 -110.303
|  8> C 	 -77.1404 	 2.82967 	 -110.687
|  9> C 	 -76.8608 	 4.12747 	 -110.201
| 10> C 	 -75.6492 	 4.13974 	 -109.415
| 11> C 	 -75.0196 	 2.94388 	 -109.335
| 12> H 	 -75.2133 	 5.04771 	 -108.996
| 13> C 	 -77.5645 	 5.40569 	 -110.68
| 14> H 	 -77.6563 	 5.44818 	 -111.771
| 15> H 	 -76.9244 	 6.19776 	 -110.496
| 16> C 	 -78.8466 	 5.54008 	 -109.915
| 17> H 	 -79.5327 	 4.63542 	 -110.062
| 18> H 	 -78.6743 	 5.69896 	 -108.831
| 19> C 	 -79.7265 	 6.68802 	 -110.333
| 20> H 	 -80.2975 	 6.46516 	 -111.241
| 21> H 	 -80.4876 	 6.83583 	 -109.536
| 22> H 	 -79.1513 	 7.60408 	 -110.421
| 23> S 	 -72.5089 	 3.84153 	 -109.048
| 24> C 	 -71.3759 	 3.05078 	 -107.949
| 25> C 	 -71.9287 	 1.83135 	 -107.617
| 26> C 	 -73.3349 	 1.61424 	 -107.917
| 27> C 	 -73.7293 	 2.67272 	 -108.699
| 28> H 	 -71.2287 	 1.14621 	 -107.13
| 29> C 	 -74.0132 	 0.327339 	 -107.618
| 30> H 	 -75.0543 	 0.718034 	 -107.516
| 31> H 	 -73.788 	 -0.140499 	 -106.657
| 32> C 	 -73.835 	 -0.684831 	 -108.78
| 33> H 	 -72.7395 	 -0.802567 	 -108.927
| 34> H 	 -74.3864 	 -0.332018 	 -109.666
| 35> C 	 -74.4956 	 -2.03177 	 -108.509
| 36> H 	 -74.1038 	 -2.58497 	 -107.667
| 37> H 	 -74.3688 	 -2.64319 	 -109.412
| 38> H 	 -75.5797 	 -1.9105 	 -108.313
| 39> H 	 -78.0109 	 2.66546 	 -111.308
| 40> H 	 -70.313 	 3.22437 	 -107.843
| 41> *
| 42>
| 43>                          ****END OF INPUT****

CARTESIAN COORDINATES (ANGSTROEM)
---------------------------------
  S    -75.861500    1.720960  -110.303000
  C    -77.140400    2.829670  -110.687000
  C    -76.860800    4.127470  -110.201000
  C    -75.649200    4.139740  -109.415000
  C    -75.019600    2.943880  -109.335000
  H    -75.213300    5.047710  -108.996000
  C    -77.564500    5.405690  -110.680000
  H    -77.656300    5.448180  -111.771000
  H    -76.924400    6.197760  -110.496000
  C    -78.846600    5.540080  -109.915000
  H    -79.532700    4.635420  -110.062000
  H    -78.674300    5.698960  -108.831000
  C    -79.726500    6.688020  -110.333000
  H    -80.297500    6.465160  -111.241000
  H    -80.487600    6.835830  -109.536000
  H    -79.151300    7.604080  -110.421000
  S    -72.508900    3.841530  -109.048000
  C    -71.375900    3.050780  -107.949000
  C    -71.928700    1.831350  -107.617000
  C    -73.334900    1.614240  -107.917000
  C    -73.729300    2.672720  -108.699000
  H    -71.228700    1.146210  -107.130000
  C    -74.013200    0.327339  -107.618000
  H    -75.054300    0.718034  -107.516000
  H    -73.788000   -0.140499  -106.657000
  C    -73.835000   -0.684831  -108.780000
  H    -72.739500   -0.802567  -108.927000
  H    -74.386400   -0.332018  -109.666000
  C    -74.495600   -2.031770  -108.509000
  H    -74.103800   -2.584970  -107.667000
  H    -74.368800   -2.643190  -109.412000
  H    -75.579700   -1.910500  -108.313000
  H    -78.010900    2.665460  -111.308000
  H    -70.313000    3.224370  -107.843000

 Total Charge           Charge          ....    0
 Multiplicity           Mult            ....    1
 Number of Electrons    NEL             ....  134
 Basis Dimension        Dim             ....  322

ORBITAL ENERGIES
----------------

  NO   OCC          E(Eh)            E(eV)
   0   2.0000     -88.970331     -2421.0058
   1   2.0000     -88.964221     -2420.8395
   2   2.0000     -10.327415      -281.0232
   3   2.0000     -10.325197      -280.9629
   4   2.0000     -10.315997      -280.7126
   5   2.0000     -10.313398      -280.6418
   6   2.0000     -10.303392      -280.3696
   7   2.0000     -10.301665      -280.3226
   8   2.0000     -10.293134      -280.0904
   9   2.0000     -10.292828      -280.0821
  10   2.0000     -10.292542      -280.0743
  11   2.0000     -10.288897      -279.9751
  12   2.0000     -10.288015      -279.9511
  13   2.0000     -10.287903      -279.9481
  14   2.0000     -10.275606      -279.6134
  15   2.0000     -10.275409      -279.6081
  16   2.0000      -8.084064      -219.9786
  17   2.0000      -8.079063      -219.8425
  18   2.0000      -6.042667      -164.4293
  19   2.0000      -6.038704      -164.3215
  20   2.0000      -6.037719      -164.2947
  21   2.0000      -6.034810      -164.2155
  22   2.0000      -6.033611      -164.1829
  23   2.0000      -6.029592      -164.0735
  24   2.0000      -1.008618       -27.4459
  25   2.0000      -0.982911       -26.7464
  26   2.0000      -0.916471       -24.9384
  27   2.0000      -0.910095       -24.7650
  28   2.0000      -0.869528       -23.6610
  29   2.0000      -0.852773       -23.2051
  30   2.0000      -0.847620       -23.0649
  31   2.0000      -0.814420       -22.1615
  32   2.0000      -0.782875       -21.3031
  33   2.0000      -0.770406       -20.9638
  34   2.0000      -0.700484       -19.0611
  35   2.0000      -0.693615       -18.8742
  36   2.0000      -0.690044       -18.7770
  37   2.0000      -0.664905       -18.0930
  38   2.0000      -0.635846       -17.3023
  39   2.0000      -0.617484       -16.8026
  40   2.0000      -0.592445       -16.1212
  41   2.0000      -0.574405       -15.6303
  42   2.0000      -0.567613       -15.4455
  43   2.0000      -0.559360       -15.2210
  44   2.0000      -0.531156       -14.4535
  45   2.0000      -0.526704       -14.3323
  46   2.0000      -0.519705       -14.1419
  47   2.0000      -0.511243       -13.9116
  48   2.0000      -0.508097       -13.8260
  49   2.0000      -0.503738       -13.7074
  50   2.0000      -0.497376       -13.5343
  51   2.0000      -0.473227       -12.8772
  52   2.0000      -0.470017       -12.7898
  53   2.0000      -0.466027       -12.6812
  54   2.0000      -0.452927       -12.3248
  55   2.0000      -0.446842       -12.1592
  56   2.0000      -0.433732       -11.8025
  57   2.0000      -0.433096       -11.7851
  58   2.0000      -0.430832       -11.7235
  59   2.0000      -0.425792       -11.5864
  60   2.0000      -0.423351       -11.5200
  61   2.0000      -0.417077       -11.3492
  62   2.0000      -0.409139       -11.1332
  63   2.0000      -0.349039        -9.4978
  64   2.0000      -0.330670        -8.9980
  65   2.0000      -0.324367        -8.8265
  66   2.0000      -0.293428        -7.9846
  67   0.0000       0.030986         0.8432
  68   0.0000       0.071756         1.9526
  69   0.0000       0.106451         2.8967
  70   0.0000       0.117308         3.1921
  71   0.0000       0.121795         3.3142

MULLIKEN ATOMIC CHARGES
-----------------------
   0 S :    0.095994
   1 C :   -0.088107
   2 C :   -0.132331
   3 C :    0.014006
   4 C :   -0.129351
   5 H :    0.019515
   6 C :    0.125529
   7 H :    0.033726
   8 H :   -0.006778
   9 C :   -0.132519
  10 H :    0.038461
  11 H :    0.039287
  12 C :   -0.032974
  13 H :    0.033006
  14 H :    0.032353
  15 H :    0.024957
  16 S :    0.106668
  17 C :   -0.091973
  18 C :   -0.061227
  19 C :   -0.019758
  20 C :   -0.156914
  21 H :    0.020166
  22 C :    0.052902
  23 H :    0.031992
  24 H :    0.026987
  25 C :   -0.086226
  26 H :    0.038912
  27 H :    0.043218
  28 C :   -0.042270
  29 H :    0.025663
  30 H :    0.038764
  31 H :    0.032835
  32 H :    0.047025
  33 H :    0.058460
Sum of atomic charges:   -0.0000000

LOEWDIN ATOMIC CHARGES
----------------------
   0 S :    0.419733
   1 C :   -0.202637
   2 C :   -0.053747
   3 C :   -0.068432
   4 C :   -0.189208
   5 H :    0.031761
   6 C :   -0.027174
   7 H :    0.034438
   8 H :    0.020010
   9 C :   -0.049860
  10 H :    0.031060
  11 H :    0.030643
  12 C :   -0.070224
  13 H :    0.023398
  14 H :    0.029873
  15 H :    0.019798
  16 S :    0.411836
  17 C :   -0.196217
  18 C :   -0.065090
  19 C :   -0.061114
  20 C :   -0.196247
  21 H :    0.028409
  22 C :   -0.041055
  23 H :    0.035586
  24 H :    0.031172
  25 C :   -0.040628
  26 H :    0.028905
  27 H :    0.016328
  28 C :   -0.069116
  29 H :    0.018261
  30 H :    0.029482
  31 H :    0.028870
  32 H :    0.028748
  33 H :    0.032436

  Mayer bond orders larger than 0.100000
B(  0-S ,  1-C ) :   1.1411 B(  0-S ,  4-C ) :   1.1327 B(  1-C ,  2-C ) :   1.6134
B(  1-C , 32-H ) :   0.9648 B(  2-C ,  3-C ) :   1.2503 B(  2-C ,  6-C ) :   1.0131
B(  3-C ,  4-C ) :   1.5871 B(  3-C ,  5-H ) :   0.9897 B(  4-C , 20-C ) :   1.0277
B(  6-C ,  7-H ) :   0.9465 B(  6-C ,  8-H ) :   0.9301 B(  6-C ,  9-C ) :   1.0624
B(  9-C , 10-H ) :   0.9618 B(  9-C , 11-H ) :   0.9551 B(  9-C , 12-C ) :   1.0879
B( 12-C , 13-H ) :   0.9752 B( 12-C , 14-H ) :   0.9739 B( 12-C , 15-H ) :   0.9700
B( 16-S , 17-C ) :   1.1201 B( 16-S , 20-C ) :   1.1604 B( 17-C , 18-C ) :   1.6555
B( 17-C , 33-H ) :   0.9652 B( 18-C , 19-C ) :   1.2011 B( 18-C , 21-H ) :   0.9784
B( 19-C , 20-C ) :   1.5853 B( 19-C , 22-C ) :   1.0584 B( 22-C , 23-H ) :   0.9174
B( 22-C , 24-H ) :   0.9376 B( 22-C , 25-C ) :   1.0616 B( 25-C , 26-H ) :   0.9559
B( 25-C , 27-H ) :   0.9445 B( 25-C , 28-C ) :   1.0877 B( 28-C , 29-H ) :   0.9747
B( 28-C , 30-H ) :   0.9735 B( 28-C , 31-H ) :   0.9717

Dispersion correction           -0.014052191
FINAL SINGLE POINT ENERGY     -1339.877378840892

DIPOLE MOMENT
-------------
                                X             Y             Z
Electronic contribution:     15.84674       2.02618      -1.04984
Nuclear contribution   :    -15.95853      -2.03771       0.98431
                        -----------------------------------------
Total Dipole Moment    :     -0.11179      -0.01153      -0.06554
                        -----------------------------------------
Magnitude (a.u.)       :      0.13009
Magnitude (Debye)      :      0.33067

Rotational constants in cm-1:     0.022114     0.007696     0.006095
Rotational constants in MHz :   662.964049   230.716808   182.716503

                             ****ORCA TERMINATED NORMALLY****
TOTAL RUN TIME: 0 days 0 hours 0 minutes 21 seconds 178 msec
