                         Program Version 4.2.1 -  RELEASE  -
|  1> ! wB97X-D3 SP def2-SVP
|  2> %pal
|  3> nprocs 24
|  4> end
|  5>
|  6> * xyz 0 1
|  7> S 	 -47.9401 	 16.4111 	 -86.665
|  8> C 	 -48.6689 	 17.8938 	 -86.209
|  9> C 	 -49.4274 	 18.3951 	 -87.1968
| 10> C 	 -49.5441 	 17.4274 	 -88.2776
| 11> C 	 -48.8952 	 16.2493 	 -88.0891
| 12> H 	 -50.0662 	 17.5611 	 -89.2028
| 13> C 	 -50.1265 	 19.7175 	 -87.1181
| 14> H 	 -50.3041 	 20.0431 	 -86.0951
| 15> H 	 -51.1208 	 19.4481 	 -87.4529
| 16> C 	 -49.5614 	 20.8265 	 -87.9946
| 17> H 	 -49.359 	 20.3389 	 -88.9979
| 18> H 	 -50.4318 	 21.4933 	 -88.2029
| 19> C 	 -48.3263 	 21.5687 	 -87.4377
| 20> H 	 -48.6287 	 22.4083 	 -86.7885
| 21> H 	 -47.7398 	 20.9272 	 -86.7879
| 22> H 	 -47.6202 	 21.9885 	 -88.2324
| 23> S 	 -50.5284 	 14.3532 	 -89.2651
| 24> C 	 -50.0195 	 13.5357 	 -90.759
| 25> C 	 -48.6699 	 13.8315 	 -90.9688
| 26> C 	 -48.0735 	 14.7467 	 -90.0464
| 27> C 	 -49.0075 	 15.1331 	 -89.0787
| 28> H 	 -48.2565 	 13.5512 	 -91.912
| 29> C 	 -46.6673 	 15.2506 	 -90.1421
| 30> H 	 -45.9785 	 14.7769 	 -89.4669
| 31> H 	 -46.7762 	 16.2351 	 -89.7405
| 32> C 	 -45.9461 	 15.2087 	 -91.5185
| 33> H 	 -46.6515 	 15.7122 	 -92.219
| 34> H 	 -45.8367 	 14.2858 	 -91.9556
| 35> C 	 -44.6575 	 16.092 	 -91.6769
| 36> H 	 -44.7568 	 17.1074 	 -91.2422
| 37> H 	 -44.3561 	 16.206 	 -92.6576
| 38> H 	 -43.8458 	 15.5013 	 -91.145
| 39> H 	 -48.4886 	 18.3726 	 -85.2855
| 40> H 	 -50.6302 	 12.9589 	 -91.4556
| 41> *
| 42>
| 43>                          ****END OF INPUT****

CARTESIAN COORDINATES (ANGSTROEM)
---------------------------------
  S    -47.940100   16.411100  -86.665000
  C    -48.668900   17.893800  -86.209000
  C    -49.427400   18.395100  -87.196800
  C    -49.544100   17.427400  -88.277600
  C    -48.895200   16.249300  -88.089100
  H    -50.066200   17.561100  -89.202800
  C    -50.126500   19.717500  -87.118100
  H    -50.304100   20.043100  -86.095100
  H    -51.120800   19.448100  -87.452900
  C    -49.561400   20.826500  -87.994600
  H    -49.359000   20.338900  -88.997900
  H    -50.431800   21.493300  -88.202900
  C    -48.326300   21.568700  -87.437700
  H    -48.628700   22.408300  -86.788500
  H    -47.739800   20.927200  -86.787900
  H    -47.620200   21.988500  -88.232400
  S    -50.528400   14.353200  -89.265100
  C    -50.019500   13.535700  -90.759000
  C    -48.669900   13.831500  -90.968800
  C    -48.073500   14.746700  -90.046400
  C    -49.007500   15.133100  -89.078700
  H    -48.256500   13.551200  -91.912000
  C    -46.667300   15.250600  -90.142100
  H    -45.978500   14.776900  -89.466900
  H    -46.776200   16.235100  -89.740500
  C    -45.946100   15.208700  -91.518500
  H    -46.651500   15.712200  -92.219000
  H    -45.836700   14.285800  -91.955600
  C    -44.657500   16.092000  -91.676900
  H    -44.756800   17.107400  -91.242200
  H    -44.356100   16.206000  -92.657600
  H    -43.845800   15.501300  -91.145000
  H    -48.488600   18.372600  -85.285500
  H    -50.630200   12.958900  -91.455600

 Total Charge           Charge          ....    0
 Multiplicity           Mult            ....    1
 Number of Electrons    NEL             ....  134
 Basis Dimension        Dim             ....  322

ORBITAL ENERGIES
----------------

  NO   OCC          E(Eh)            E(eV)
   0   2.0000     -88.968510     -2420.9562
   1   2.0000     -88.961177     -2420.7567
   2   2.0000     -10.328346      -281.0486
   3   2.0000     -10.326331      -280.9938
   4   2.0000     -10.321168      -280.8533
   5   2.0000     -10.305296      -280.4214
   6   2.0000     -10.303877      -280.3827
   7   2.0000     -10.296367      -280.1784
   8   2.0000     -10.295177      -280.1460
   9   2.0000     -10.292569      -280.0750
  10   2.0000     -10.290654      -280.0229
  11   2.0000     -10.289288      -279.9858
  12   2.0000     -10.287875      -279.9473
  13   2.0000     -10.286163      -279.9007
  14   2.0000     -10.286040      -279.8974
  15   2.0000     -10.282067      -279.7893
  16   2.0000      -8.082884      -219.9465
  17   2.0000      -8.077214      -219.7922
  18   2.0000      -6.041412      -164.3952
  19   2.0000      -6.037266      -164.2824
  20   2.0000      -6.035695      -164.2396
  21   2.0000      -6.033801      -164.1881
  22   2.0000      -6.031550      -164.1268
  23   2.0000      -6.027901      -164.0275
  24   2.0000      -1.012365       -27.5478
  25   2.0000      -0.988724       -26.9045
  26   2.0000      -0.913120       -24.8473
  27   2.0000      -0.905764       -24.6471
  28   2.0000      -0.870565       -23.6893
  29   2.0000      -0.849360       -23.1123
  30   2.0000      -0.843673       -22.9575
  31   2.0000      -0.818078       -22.2610
  32   2.0000      -0.784257       -21.3407
  33   2.0000      -0.775111       -21.0918
  34   2.0000      -0.710352       -19.3296
  35   2.0000      -0.704074       -19.1588
  36   2.0000      -0.692792       -18.8518
  37   2.0000      -0.656387       -17.8612
  38   2.0000      -0.644099       -17.5268
  39   2.0000      -0.618468       -16.8294
  40   2.0000      -0.598048       -16.2737
  41   2.0000      -0.574802       -15.6411
  42   2.0000      -0.564293       -15.3552
  43   2.0000      -0.549831       -14.9617
  44   2.0000      -0.534677       -14.5493
  45   2.0000      -0.531130       -14.4528
  46   2.0000      -0.516317       -14.0497
  47   2.0000      -0.514247       -13.9934
  48   2.0000      -0.506371       -13.7791
  49   2.0000      -0.494672       -13.4607
  50   2.0000      -0.489011       -13.3067
  51   2.0000      -0.480733       -13.0814
  52   2.0000      -0.474357       -12.9079
  53   2.0000      -0.470248       -12.7961
  54   2.0000      -0.465917       -12.6783
  55   2.0000      -0.446140       -12.1401
  56   2.0000      -0.442830       -12.0500
  57   2.0000      -0.439164       -11.9503
  58   2.0000      -0.436668       -11.8823
  59   2.0000      -0.426651       -11.6098
  60   2.0000      -0.422646       -11.5008
  61   2.0000      -0.409034       -11.1304
  62   2.0000      -0.404238       -10.9999
  63   2.0000      -0.338123        -9.2008
  64   2.0000      -0.333996        -9.0885
  65   2.0000      -0.323408        -8.8004
  66   2.0000      -0.304558        -8.2875
  67   0.0000       0.040507         1.1023
  68   0.0000       0.065969         1.7951
  69   0.0000       0.116347         3.1660
  70   0.0000       0.126105         3.4315
  71   0.0000       0.136982         3.7275

MULLIKEN ATOMIC CHARGES
-----------------------
   0 S :    0.108206
   1 C :   -0.110855
   2 C :   -0.069070
   3 C :    0.025635
   4 C :   -0.172470
   5 H :    0.006536
   6 C :    0.070748
   7 H :    0.016840
   8 H :    0.020061
   9 C :   -0.080584
  10 H :    0.033577
  11 H :    0.037396
  12 C :   -0.056481
  13 H :    0.035486
  14 H :    0.027731
  15 H :    0.050764
  16 S :    0.122896
  17 C :   -0.114111
  18 C :   -0.027502
  19 C :   -0.027462
  20 C :   -0.176400
  21 H :    0.013030
  22 C :    0.127731
  23 H :    0.033362
  24 H :    0.018020
  25 C :   -0.115724
  26 H :    0.022841
  27 H :    0.022584
  28 C :   -0.037652
  29 H :    0.041979
  30 H :    0.022538
  31 H :    0.035840
  32 H :    0.030657
  33 H :    0.063852
Sum of atomic charges:   -0.0000000

LOEWDIN ATOMIC CHARGES
----------------------
   0 S :    0.417106
   1 C :   -0.191804
   2 C :   -0.068193
   3 C :   -0.058985
   4 C :   -0.211537
   5 H :    0.026080
   6 C :   -0.034483
   7 H :    0.028051
   8 H :    0.033908
   9 C :   -0.047600
  10 H :    0.030119
  11 H :    0.029082
  12 C :   -0.074411
  13 H :    0.028305
  14 H :    0.022605
  15 H :    0.037660
  16 S :    0.421826
  17 C :   -0.188161
  18 C :   -0.069481
  19 C :   -0.053672
  20 C :   -0.206110
  21 H :    0.025448
  22 C :   -0.031001
  23 H :    0.032114
  24 H :    0.031748
  25 C :   -0.039297
  26 H :    0.025274
  27 H :    0.010904
  28 C :   -0.058063
  29 H :    0.031101
  30 H :    0.014808
  31 H :    0.030109
  32 H :    0.021593
  33 H :    0.034959

  Mayer bond orders larger than 0.100000
B(  0-S ,  1-C ) :   1.1422 B(  0-S ,  4-C ) :   1.1372 B(  1-C ,  2-C ) :   1.6220
B(  1-C , 32-H ) :   0.9756 B(  2-C ,  3-C ) :   1.2142 B(  2-C ,  6-C ) :   1.0209
B(  3-C ,  4-C ) :   1.6012 B(  3-C ,  5-H ) :   0.9994 B(  4-C , 20-C ) :   0.9961
B(  6-C ,  7-H ) :   0.9458 B(  6-C ,  8-H ) :   0.9305 B(  6-C ,  9-C ) :   1.0722
B(  9-C , 10-H ) :   0.9589 B(  9-C , 11-H ) :   0.9576 B(  9-C , 12-C ) :   1.0555
B( 12-C , 13-H ) :   0.9751 B( 12-C , 14-H ) :   0.9790 B( 12-C , 15-H ) :   0.9762
B( 16-S , 17-C ) :   1.1515 B( 16-S , 20-C ) :   1.1700 B( 17-C , 18-C ) :   1.5967
B( 17-C , 20-C ) :   0.1009 B( 17-C , 33-H ) :   0.9665 B( 18-C , 19-C ) :   1.2641
B( 18-C , 21-H ) :   0.9833 B( 19-C , 20-C ) :   1.5729 B( 19-C , 22-C ) :   1.0402
B( 22-C , 23-H ) :   0.9269 B( 22-C , 24-H ) :   0.9189 B( 22-C , 25-C ) :   1.0574
B( 25-C , 26-H ) :   0.9604 B( 25-C , 27-H ) :   0.9548 B( 25-C , 28-C ) :   1.0832
B( 28-C , 29-H ) :   0.9758 B( 28-C , 30-H ) :   0.9758 B( 28-C , 31-H ) :   0.9764

Dispersion correction           -0.014014168
FINAL SINGLE POINT ENERGY     -1339.869153097518

DIPOLE MOMENT
-------------
                                X             Y             Z
Electronic contribution:    -12.58432     -19.52048       9.65456
Nuclear contribution   :     12.64721      20.02170     -10.05939
                        -----------------------------------------
Total Dipole Moment    :      0.06289       0.50122      -0.40483
                        -----------------------------------------
Magnitude (a.u.)       :      0.64735
Magnitude (Debye)      :      1.64544

Rotational constants in cm-1:     0.017279     0.008231     0.006742
Rotational constants in MHz :   518.002491   246.745981   202.113742

                             ****ORCA TERMINATED NORMALLY****
TOTAL RUN TIME: 0 days 0 hours 0 minutes 21 seconds 35 msec
