                         Program Version 4.2.1 -  RELEASE  -
|  1> ! wB97X-D3 SP def2-SVP
|  2> %pal
|  3> nprocs 24
|  4> end
|  5>
|  6> * xyz 0 1
|  7> S 	 -75.0086 	 9.61592 	 -109.703
|  8> C 	 -76.5076 	 10.3652 	 -109.151
|  9> C 	 -77.3468 	 9.40042 	 -108.606
| 10> C 	 -76.7179 	 8.09644 	 -108.491
| 11> C 	 -75.5407 	 8.03914 	 -109.144
| 12> H 	 -77.205 	 7.22008 	 -108.06
| 13> C 	 -78.7344 	 9.56188 	 -108.028
| 14> H 	 -78.8011 	 10.629 	 -107.983
| 15> H 	 -78.7245 	 9.2558 	 -106.978
| 16> C 	 -80.0156 	 9.05587 	 -108.683
| 17> H 	 -80.1912 	 9.34287 	 -109.784
| 18> H 	 -79.8351 	 7.94433 	 -108.682
| 19> C 	 -81.2088 	 9.39128 	 -107.822
| 20> H 	 -82.0761 	 8.87818 	 -108.222
| 21> H 	 -81.1471 	 9.02456 	 -106.766
| 22> H 	 -81.4764 	 10.4686 	 -107.709
| 23> S 	 -72.971 	 6.82943 	 -109.008
| 24> C 	 -72.7885 	 5.12778 	 -109.398
| 25> C 	 -74.0326 	 4.66467 	 -109.92
| 26> C 	 -75.1345 	 5.61751 	 -109.898
| 27> C 	 -74.714 	 6.82599 	 -109.362
| 28> H 	 -74.1328 	 3.67757 	 -110.373
| 29> C 	 -76.5483 	 5.36236 	 -110.453
| 30> H 	 -76.5007 	 4.84492 	 -111.345
| 31> H 	 -77.0251 	 6.27711 	 -110.646
| 32> C 	 -77.391 	 4.43204 	 -109.563
| 33> H 	 -77.0569 	 4.747 	 -108.519
| 34> H 	 -77.0436 	 3.42401 	 -109.764
| 35> C 	 -78.8781 	 4.50194 	 -109.734
| 36> H 	 -79.1807 	 4.67806 	 -110.772
| 37> H 	 -79.1305 	 5.41689 	 -109.167
| 38> H 	 -79.3738 	 3.66066 	 -109.224
| 39> H 	 -76.9168 	 11.3302 	 -109.418
| 40> H 	 -71.9738 	 4.5086 	 -109.3
| 41> *
| 42>
| 43>                          ****END OF INPUT****

CARTESIAN COORDINATES (ANGSTROEM)
---------------------------------
  S    -75.008600    9.615920  -109.703000
  C    -76.507600   10.365200  -109.151000
  C    -77.346800    9.400420  -108.606000
  C    -76.717900    8.096440  -108.491000
  C    -75.540700    8.039140  -109.144000
  H    -77.205000    7.220080  -108.060000
  C    -78.734400    9.561880  -108.028000
  H    -78.801100   10.629000  -107.983000
  H    -78.724500    9.255800  -106.978000
  C    -80.015600    9.055870  -108.683000
  H    -80.191200    9.342870  -109.784000
  H    -79.835100    7.944330  -108.682000
  C    -81.208800    9.391280  -107.822000
  H    -82.076100    8.878180  -108.222000
  H    -81.147100    9.024560  -106.766000
  H    -81.476400   10.468600  -107.709000
  S    -72.971000    6.829430  -109.008000
  C    -72.788500    5.127780  -109.398000
  C    -74.032600    4.664670  -109.920000
  C    -75.134500    5.617510  -109.898000
  C    -74.714000    6.825990  -109.362000
  H    -74.132800    3.677570  -110.373000
  C    -76.548300    5.362360  -110.453000
  H    -76.500700    4.844920  -111.345000
  H    -77.025100    6.277110  -110.646000
  C    -77.391000    4.432040  -109.563000
  H    -77.056900    4.747000  -108.519000
  H    -77.043600    3.424010  -109.764000
  C    -78.878100    4.501940  -109.734000
  H    -79.180700    4.678060  -110.772000
  H    -79.130500    5.416890  -109.167000
  H    -79.373800    3.660660  -109.224000
  H    -76.916800   11.330200  -109.418000
  H    -71.973800    4.508600  -109.300000

 Total Charge           Charge          ....    0
 Multiplicity           Mult            ....    1
 Number of Electrons    NEL             ....  134
 Basis Dimension        Dim             ....  322

ORBITAL ENERGIES
----------------

  NO   OCC          E(Eh)            E(eV)
   0   2.0000     -88.969123     -2420.9729
   1   2.0000     -88.967472     -2420.9280
   2   2.0000     -10.331432      -281.1326
   3   2.0000     -10.330885      -281.1177
   4   2.0000     -10.320951      -280.8473
   5   2.0000     -10.316961      -280.7388
   6   2.0000     -10.308483      -280.5081
   7   2.0000     -10.303518      -280.3730
   8   2.0000     -10.302214      -280.3375
   9   2.0000     -10.300533      -280.2918
  10   2.0000     -10.292053      -280.0610
  11   2.0000     -10.288415      -279.9620
  12   2.0000     -10.286932      -279.9216
  13   2.0000     -10.285302      -279.8773
  14   2.0000     -10.283175      -279.8194
  15   2.0000     -10.282913      -279.8123
  16   2.0000      -8.082935      -219.9478
  17   2.0000      -8.081878      -219.9191
  18   2.0000      -6.041570      -164.3995
  19   2.0000      -6.040645      -164.3743
  20   2.0000      -6.037545      -164.2899
  21   2.0000      -6.036428      -164.2596
  22   2.0000      -6.033637      -164.1836
  23   2.0000      -6.032384      -164.1495
  24   2.0000      -1.003388       -27.3036
  25   2.0000      -0.979056       -26.6415
  26   2.0000      -0.914426       -24.8828
  27   2.0000      -0.914003       -24.8713
  28   2.0000      -0.868584       -23.6354
  29   2.0000      -0.853538       -23.2260
  30   2.0000      -0.845369       -23.0037
  31   2.0000      -0.814917       -22.1750
  32   2.0000      -0.786094       -21.3907
  33   2.0000      -0.773897       -21.0588
  34   2.0000      -0.704557       -19.1720
  35   2.0000      -0.698882       -19.0175
  36   2.0000      -0.692943       -18.8559
  37   2.0000      -0.660699       -17.9785
  38   2.0000      -0.640199       -17.4207
  39   2.0000      -0.621022       -16.8989
  40   2.0000      -0.596750       -16.2384
  41   2.0000      -0.574986       -15.6462
  42   2.0000      -0.571878       -15.5616
  43   2.0000      -0.556056       -15.1311
  44   2.0000      -0.532765       -14.4973
  45   2.0000      -0.524630       -14.2759
  46   2.0000      -0.522993       -14.2314
  47   2.0000      -0.512605       -13.9487
  48   2.0000      -0.508951       -13.8492
  49   2.0000      -0.500602       -13.6221
  50   2.0000      -0.494808       -13.4644
  51   2.0000      -0.483350       -13.1526
  52   2.0000      -0.471268       -12.8239
  53   2.0000      -0.466927       -12.7057
  54   2.0000      -0.460341       -12.5265
  55   2.0000      -0.447376       -12.1737
  56   2.0000      -0.444061       -12.0835
  57   2.0000      -0.439874       -11.9696
  58   2.0000      -0.429536       -11.6883
  59   2.0000      -0.424263       -11.5448
  60   2.0000      -0.422354       -11.4928
  61   2.0000      -0.413640       -11.2557
  62   2.0000      -0.406772       -11.0688
  63   2.0000      -0.348624        -9.4865
  64   2.0000      -0.330912        -9.0046
  65   2.0000      -0.328974        -8.9518
  66   2.0000      -0.295440        -8.0393
  67   0.0000       0.030879         0.8403
  68   0.0000       0.066042         1.7971
  69   0.0000       0.107827         2.9341
  70   0.0000       0.113161         3.0793
  71   0.0000       0.123055         3.3485

MULLIKEN ATOMIC CHARGES
-----------------------
   0 S :    0.105605
   1 C :   -0.094522
   2 C :   -0.114977
   3 C :    0.021854
   4 C :   -0.128879
   5 H :    0.013303
   6 C :    0.044279
   7 H :   -0.002423
   8 H :    0.032519
   9 C :   -0.072330
  10 H :    0.050022
  11 H :    0.032285
  12 C :   -0.064564
  13 H :    0.032870
  14 H :    0.031163
  15 H :    0.042433
  16 S :    0.113317
  17 C :   -0.060905
  18 C :   -0.045003
  19 C :   -0.055947
  20 C :   -0.160908
  21 H :    0.022504
  22 C :    0.141271
  23 H :    0.002544
  24 H :    0.015984
  25 C :   -0.134356
  26 H :    0.040641
  27 H :    0.024693
  28 C :   -0.025961
  29 H :    0.039014
  30 H :    0.024686
  31 H :    0.047803
  32 H :    0.048432
  33 H :    0.033554
Sum of atomic charges:   -0.0000000

LOEWDIN ATOMIC CHARGES
----------------------
   0 S :    0.393934
   1 C :   -0.198886
   2 C :   -0.057328
   3 C :   -0.066080
   4 C :   -0.180613
   5 H :    0.033134
   6 C :   -0.043691
   7 H :    0.022646
   8 H :    0.036605
   9 C :   -0.048289
  10 H :    0.036499
  11 H :    0.026095
  12 C :   -0.073426
  13 H :    0.027142
  14 H :    0.029944
  15 H :    0.029936
  16 S :    0.396933
  17 C :   -0.176023
  18 C :   -0.066945
  19 C :   -0.049802
  20 C :   -0.191748
  21 H :    0.028747
  22 C :   -0.018965
  23 H :    0.021661
  24 H :    0.022351
  25 C :   -0.045522
  26 H :    0.025372
  27 H :    0.017525
  28 C :   -0.067887
  29 H :    0.027687
  30 H :    0.027296
  31 H :    0.033353
  32 H :    0.031419
  33 H :    0.016927

  Mayer bond orders larger than 0.100000
B(  0-S ,  1-C ) :   1.1119 B(  0-S ,  4-C ) :   1.1404 B(  1-C ,  2-C ) :   1.6595
B(  1-C , 32-H ) :   0.9589 B(  2-C ,  3-C ) :   1.1972 B(  2-C ,  6-C ) :   1.0227
B(  3-C ,  4-C ) :   1.6110 B(  3-C ,  5-H ) :   0.9923 B(  4-C , 20-C ) :   1.0149
B(  6-C ,  7-H ) :   0.9356 B(  6-C ,  8-H ) :   0.9392 B(  6-C ,  9-C ) :   1.0600
B(  9-C , 10-H ) :   0.9513 B(  9-C , 11-H ) :   0.9479 B(  9-C , 12-C ) :   1.0830
B( 12-C , 13-H ) :   0.9712 B( 12-C , 14-H ) :   0.9700 B( 12-C , 15-H ) :   0.9754
B( 16-S , 17-C ) :   1.1479 B( 16-S , 20-C ) :   1.1382 B( 17-C , 18-C ) :   1.5967
B( 17-C , 20-C ) :   0.1022 B( 17-C , 33-H ) :   0.9821 B( 18-C , 19-C ) :   1.2448
B( 18-C , 21-H ) :   0.9822 B( 19-C , 20-C ) :   1.5918 B( 19-C , 22-C ) :   1.0561
B( 22-C , 23-H ) :   0.9215 B( 22-C , 24-H ) :   0.9337 B( 22-C , 25-C ) :   1.0429
B( 25-C , 26-H ) :   0.9642 B( 25-C , 27-H ) :   0.9554 B( 25-C , 28-C ) :   1.0794
B( 28-C , 29-H ) :   0.9704 B( 28-C , 30-H ) :   0.9743 B( 28-C , 31-H ) :   0.9699

Dispersion correction           -0.014747950
FINAL SINGLE POINT ENERGY     -1339.869956563865

DIPOLE MOMENT
-------------
                                X             Y             Z
Electronic contribution:     33.31844       7.52265      -2.83001
Nuclear contribution   :    -34.08407      -7.89564       2.75136
                        -----------------------------------------
Total Dipole Moment    :     -0.76564      -0.37299      -0.07865
                        -----------------------------------------
Magnitude (a.u.)       :      0.85528
Magnitude (Debye)      :      2.17396

Rotational constants in cm-1:     0.018403     0.009273     0.006531
Rotational constants in MHz :   551.698874   278.005690   195.786010

                             ****ORCA TERMINATED NORMALLY****
TOTAL RUN TIME: 0 days 0 hours 0 minutes 20 seconds 965 msec
