                         Program Version 4.2.1 -  RELEASE  -
|  1> ! wB97X-D3 SP def2-SVP
|  2> %pal
|  3> nprocs 24
|  4> end
|  5>
|  6> * xyz 0 1
|  7> S 	 -102.101 	 48.0058 	 -102.585
|  8> C 	 -102.722 	 49.5598 	 -102.082
|  9> C 	 -102.173 	 49.93 	 -100.847
| 10> C 	 -101.287 	 48.9869 	 -100.348
| 11> C 	 -101.173 	 47.8402 	 -101.097
| 12> H 	 -100.667 	 49.294 	 -99.4976
| 13> C 	 -102.448 	 51.2025 	 -100.073
| 14> H 	 -101.659 	 51.9008 	 -100.314
| 15> H 	 -102.422 	 50.9969 	 -98.9135
| 16> C 	 -103.807 	 51.8887 	 -100.434
| 17> H 	 -104.642 	 51.2189 	 -100.582
| 18> H 	 -104.056 	 52.5071 	 -99.5788
| 19> C 	 -103.81 	 52.9126 	 -101.543
| 20> H 	 -103.201 	 52.5333 	 -102.326
| 21> H 	 -104.804 	 53.1641 	 -101.829
| 22> H 	 -103.378 	 53.7812 	 -101.198
| 23> S 	 -100.772 	 46.1717 	 -98.9871
| 24> C 	 -99.7565 	 44.7244 	 -99.2334
| 25> C 	 -99.6588 	 44.4271 	 -100.566
| 26> C 	 -100.204 	 45.45 	 -101.447
| 27> C 	 -100.663 	 46.5447 	 -100.701
| 28> H 	 -99.299 	 43.4914 	 -100.832
| 29> C 	 -100.154 	 45.2424 	 -102.966
| 30> H 	 -100.05 	 46.2097 	 -103.399
| 31> H 	 -101.145 	 44.857 	 -103.124
| 32> C 	 -98.9677 	 44.4148 	 -103.546
| 33> H 	 -99.0394 	 44.3639 	 -104.646
| 34> H 	 -99.0381 	 43.3751 	 -103.185
| 35> C 	 -97.5343 	 44.9035 	 -103.238
| 36> H 	 -96.7732 	 44.2091 	 -103.498
| 37> H 	 -97.3809 	 44.8536 	 -102.196
| 38> H 	 -97.3368 	 45.8542 	 -103.665
| 39> H 	 -103.579 	 50.064 	 -102.625
| 40> H 	 -99.5694 	 43.9413 	 -98.4858
| 41> *
| 42>
| 43>                          ****END OF INPUT****

CARTESIAN COORDINATES (ANGSTROEM)
---------------------------------
  S    -102.101000   48.005800  -102.585000
  C    -102.722000   49.559800  -102.082000
  C    -102.173000   49.930000  -100.847000
  C    -101.287000   48.986900  -100.348000
  C    -101.173000   47.840200  -101.097000
  H    -100.667000   49.294000  -99.497600
  C    -102.448000   51.202500  -100.073000
  H    -101.659000   51.900800  -100.314000
  H    -102.422000   50.996900  -98.913500
  C    -103.807000   51.888700  -100.434000
  H    -104.642000   51.218900  -100.582000
  H    -104.056000   52.507100  -99.578800
  C    -103.810000   52.912600  -101.543000
  H    -103.201000   52.533300  -102.326000
  H    -104.804000   53.164100  -101.829000
  H    -103.378000   53.781200  -101.198000
  S    -100.772000   46.171700  -98.987100
  C    -99.756500   44.724400  -99.233400
  C    -99.658800   44.427100  -100.566000
  C    -100.204000   45.450000  -101.447000
  C    -100.663000   46.544700  -100.701000
  H    -99.299000   43.491400  -100.832000
  C    -100.154000   45.242400  -102.966000
  H    -100.050000   46.209700  -103.399000
  H    -101.145000   44.857000  -103.124000
  C    -98.967700   44.414800  -103.546000
  H    -99.039400   44.363900  -104.646000
  H    -99.038100   43.375100  -103.185000
  C    -97.534300   44.903500  -103.238000
  H    -96.773200   44.209100  -103.498000
  H    -97.380900   44.853600  -102.196000
  H    -97.336800   45.854200  -103.665000
  H    -103.579000   50.064000  -102.625000
  H    -99.569400   43.941300  -98.485800

 Total Charge           Charge          ....    0
 Multiplicity           Mult            ....    1
 Number of Electrons    NEL             ....  134
 Basis Dimension        Dim             ....  322

ORBITAL ENERGIES
----------------

  NO   OCC          E(Eh)            E(eV)
   0   2.0000     -88.967099     -2420.9178
   1   2.0000     -88.964035     -2420.8345
   2   2.0000     -10.330273      -281.1010
   3   2.0000     -10.328550      -281.0541
   4   2.0000     -10.319241      -280.8008
   5   2.0000     -10.315697      -280.7044
   6   2.0000     -10.306021      -280.4411
   7   2.0000     -10.303088      -280.3613
   8   2.0000     -10.298206      -280.2284
   9   2.0000     -10.293149      -280.0908
  10   2.0000     -10.292727      -280.0794
  11   2.0000     -10.289227      -279.9841
  12   2.0000     -10.288877      -279.9746
  13   2.0000     -10.281459      -279.7727
  14   2.0000     -10.267135      -279.3829
  15   2.0000     -10.264053      -279.2991
  16   2.0000      -8.081427      -219.9068
  17   2.0000      -8.077965      -219.8126
  18   2.0000      -6.039919      -164.3546
  19   2.0000      -6.036664      -164.2660
  20   2.0000      -6.035900      -164.2452
  21   2.0000      -6.032777      -164.1602
  22   2.0000      -6.032324      -164.1479
  23   2.0000      -6.028366      -164.0402
  24   2.0000      -1.006225       -27.3808
  25   2.0000      -0.980476       -26.6801
  26   2.0000      -0.911630       -24.8067
  27   2.0000      -0.904657       -24.6170
  28   2.0000      -0.870023       -23.6745
  29   2.0000      -0.857906       -23.3448
  30   2.0000      -0.843675       -22.9576
  31   2.0000      -0.813463       -22.1354
  32   2.0000      -0.788162       -21.4470
  33   2.0000      -0.771714       -20.9994
  34   2.0000      -0.709412       -19.3041
  35   2.0000      -0.701484       -19.0883
  36   2.0000      -0.692143       -18.8342
  37   2.0000      -0.660432       -17.9713
  38   2.0000      -0.632170       -17.2022
  39   2.0000      -0.617175       -16.7942
  40   2.0000      -0.592354       -16.1188
  41   2.0000      -0.576466       -15.6864
  42   2.0000      -0.560485       -15.2516
  43   2.0000      -0.549047       -14.9403
  44   2.0000      -0.541001       -14.7214
  45   2.0000      -0.536048       -14.5866
  46   2.0000      -0.522128       -14.2078
  47   2.0000      -0.519918       -14.1477
  48   2.0000      -0.505114       -13.7448
  49   2.0000      -0.494458       -13.4549
  50   2.0000      -0.489800       -13.3281
  51   2.0000      -0.481270       -13.0960
  52   2.0000      -0.473818       -12.8932
  53   2.0000      -0.462259       -12.5787
  54   2.0000      -0.455828       -12.4037
  55   2.0000      -0.448181       -12.1956
  56   2.0000      -0.442672       -12.0457
  57   2.0000      -0.436706       -11.8834
  58   2.0000      -0.435169       -11.8415
  59   2.0000      -0.429155       -11.6779
  60   2.0000      -0.416336       -11.3291
  61   2.0000      -0.412133       -11.2147
  62   2.0000      -0.410598       -11.1729
  63   2.0000      -0.354677        -9.6512
  64   2.0000      -0.334167        -9.0931
  65   2.0000      -0.326056        -8.8724
  66   2.0000      -0.279479        -7.6050
  67   0.0000       0.019155         0.5212
  68   0.0000       0.076856         2.0914
  69   0.0000       0.106290         2.8923
  70   0.0000       0.110479         3.0063
  71   0.0000       0.129422         3.5218

MULLIKEN ATOMIC CHARGES
-----------------------
   0 S :    0.094839
   1 C :   -0.156814
   2 C :   -0.079104
   3 C :   -0.024943
   4 C :   -0.109108
   5 H :    0.028822
   6 C :    0.017697
   7 H :    0.042937
   8 H :    0.057468
   9 C :   -0.098445
  10 H :    0.029663
  11 H :    0.019458
  12 C :    0.010372
  13 H :    0.018856
  14 H :    0.026462
  15 H :    0.007157
  16 S :    0.100299
  17 C :   -0.090977
  18 C :   -0.018734
  19 C :   -0.085433
  20 C :   -0.127449
  21 H :   -0.008166
  22 C :    0.105874
  23 H :    0.021805
  24 H :    0.050641
  25 C :   -0.103750
  26 H :    0.038236
  27 H :    0.026482
  28 C :   -0.005338
  29 H :    0.018373
  30 H :    0.015040
  31 H :    0.035248
  32 H :    0.080704
  33 H :    0.061828
Sum of atomic charges:    0.0000000

LOEWDIN ATOMIC CHARGES
----------------------
   0 S :    0.412134
   1 C :   -0.216526
   2 C :   -0.067334
   3 C :   -0.078828
   4 C :   -0.183604
   5 H :    0.038244
   6 C :   -0.032888
   7 H :    0.034190
   8 H :    0.046177
   9 C :   -0.045806
  10 H :    0.020427
  11 H :    0.025752
  12 C :   -0.052371
  13 H :    0.017803
  14 H :    0.026132
  15 H :    0.014420
  16 S :    0.391198
  17 C :   -0.183103
  18 C :   -0.061334
  19 C :   -0.055911
  20 C :   -0.192094
  21 H :    0.018123
  22 C :   -0.032547
  23 H :    0.020778
  24 H :    0.038497
  25 C :   -0.039702
  26 H :    0.028908
  27 H :    0.021204
  28 C :   -0.059301
  29 H :    0.027125
  30 H :    0.022029
  31 H :    0.022456
  32 H :    0.041757
  33 H :    0.033997

  Mayer bond orders larger than 0.100000
B(  0-S ,  1-C ) :   1.1428 B(  0-S ,  4-C ) :   1.1505 B(  1-C ,  2-C ) :   1.5784
B(  1-C , 32-H ) :   0.9534 B(  2-C ,  3-C ) :   1.3024 B(  2-C ,  6-C ) :   1.0104
B(  3-C ,  4-C ) :   1.5124 B(  3-C ,  5-H ) :   0.9931 B(  4-C , 20-C ) :   1.0884
B(  6-C ,  7-H ) :   0.9347 B(  6-C ,  8-H ) :   0.9510 B(  6-C ,  9-C ) :   1.0639
B(  9-C , 10-H ) :   0.9650 B(  9-C , 11-H ) :   0.9571 B(  9-C , 12-C ) :   1.0783
B( 12-C , 13-H ) :   0.9773 B( 12-C , 14-H ) :   0.9713 B( 12-C , 15-H ) :   0.9722
B( 16-S , 17-C ) :   1.1239 B( 16-S , 20-C ) :   1.1363 B( 17-C , 18-C ) :   1.6435
B( 17-C , 33-H ) :   0.9592 B( 18-C , 19-C ) :   1.2269 B( 18-C , 21-H ) :   0.9924
B( 19-C , 20-C ) :   1.5733 B( 19-C , 22-C ) :   1.0123 B( 22-C , 23-H ) :   0.9308
B( 22-C , 24-H ) :   0.9329 B( 22-C , 25-C ) :   1.0715 B( 25-C , 26-H ) :   0.9576
B( 25-C , 27-H ) :   0.9502 B( 25-C , 28-C ) :   1.0867 B( 28-C , 29-H ) :   0.9671
B( 28-C , 30-H ) :   0.9673 B( 28-C , 31-H ) :   0.9766

Dispersion correction           -0.014087447
FINAL SINGLE POINT ENERGY     -1339.857820683459

DIPOLE MOMENT
-------------
                                X             Y             Z
Electronic contribution:     -2.17284      -9.39239       7.89443
Nuclear contribution   :      2.16080       9.46270      -7.96111
                        -----------------------------------------
Total Dipole Moment    :     -0.01204       0.07031      -0.06667
                        -----------------------------------------
Magnitude (a.u.)       :      0.09765
Magnitude (Debye)      :      0.24820

Rotational constants in cm-1:     0.027283     0.006941     0.005904
Rotational constants in MHz :   817.922210   208.084257   177.000096

                             ****ORCA TERMINATED NORMALLY****
TOTAL RUN TIME: 0 days 0 hours 0 minutes 23 seconds 131 msec
