                         Program Version 4.2.1 -  RELEASE  -
|  1> ! wB97X-D3 SP def2-SVP
|  2> %pal
|  3> nprocs 24
|  4> end
|  5>
|  6> * xyz 0 1
|  7> S 	 -143.755 	 1.40522 	 14.8956
|  8> C 	 -144.814 	 0.788031 	 13.6186
|  9> C 	 -145.261 	 1.80659 	 12.8198
| 10> C 	 -144.983 	 3.09708 	 13.4181
| 11> C 	 -144.13 	 3.08974 	 14.4995
| 12> H 	 -145.39 	 4.04011 	 12.9841
| 13> C 	 -146.352 	 1.65942 	 11.7281
| 14> H 	 -147.343 	 1.62464 	 12.2833
| 15> H 	 -146.198 	 0.718603 	 11.3107
| 16> C 	 -146.477 	 2.74847 	 10.6442
| 17> H 	 -146.772 	 3.67176 	 11.1451
| 18> H 	 -145.408 	 2.98656 	 10.2923
| 19> C 	 -147.469 	 2.42477 	 9.4853
| 20> H 	 -146.945 	 1.79455 	 8.74182
| 21> H 	 -148.415 	 1.929 	 9.89897
| 22> H 	 -147.657 	 3.21167 	 8.79631
| 23> S 	 -141.792 	 3.98982 	 15.5482
| 24> C 	 -141.614 	 5.65157 	 15.9867
| 25> C 	 -142.838 	 6.34449 	 15.8833
| 26> C 	 -143.891 	 5.50155 	 15.3302
| 27> C 	 -143.514 	 4.19409 	 15.1984
| 28> H 	 -142.995 	 7.39448 	 16.0894
| 29> C 	 -145.202 	 6.17934 	 14.8162
| 30> H 	 -146.069 	 5.55188 	 15.0994
| 31> H 	 -145.111 	 6.22417 	 13.7872
| 32> C 	 -145.539 	 7.6061 	 15.329
| 33> H 	 -144.754 	 8.32948 	 15.1045
| 34> H 	 -145.465 	 7.60321 	 16.4277
| 35> C 	 -146.88 	 8.22969 	 14.8603
| 36> H 	 -147.679 	 7.58409 	 15.2361
| 37> H 	 -146.831 	 8.36225 	 13.8222
| 38> H 	 -146.983 	 9.17814 	 15.368
| 39> H 	 -144.783 	 -0.308089 	 13.3272
| 40> H 	 -140.716 	 6.18359 	 16.4163
| 41> *
| 42>
| 43>                          ****END OF INPUT****

CARTESIAN COORDINATES (ANGSTROEM)
---------------------------------
  S    -143.755000    1.405220   14.895600
  C    -144.814000    0.788031   13.618600
  C    -145.261000    1.806590   12.819800
  C    -144.983000    3.097080   13.418100
  C    -144.130000    3.089740   14.499500
  H    -145.390000    4.040110   12.984100
  C    -146.352000    1.659420   11.728100
  H    -147.343000    1.624640   12.283300
  H    -146.198000    0.718603   11.310700
  C    -146.477000    2.748470   10.644200
  H    -146.772000    3.671760   11.145100
  H    -145.408000    2.986560   10.292300
  C    -147.469000    2.424770    9.485300
  H    -146.945000    1.794550    8.741820
  H    -148.415000    1.929000    9.898970
  H    -147.657000    3.211670    8.796310
  S    -141.792000    3.989820   15.548200
  C    -141.614000    5.651570   15.986700
  C    -142.838000    6.344490   15.883300
  C    -143.891000    5.501550   15.330200
  C    -143.514000    4.194090   15.198400
  H    -142.995000    7.394480   16.089400
  C    -145.202000    6.179340   14.816200
  H    -146.069000    5.551880   15.099400
  H    -145.111000    6.224170   13.787200
  C    -145.539000    7.606100   15.329000
  H    -144.754000    8.329480   15.104500
  H    -145.465000    7.603210   16.427700
  C    -146.880000    8.229690   14.860300
  H    -147.679000    7.584090   15.236100
  H    -146.831000    8.362250   13.822200
  H    -146.983000    9.178140   15.368000
  H    -144.783000   -0.308089   13.327200
  H    -140.716000    6.183590   16.416300

 Total Charge           Charge          ....    0
 Multiplicity           Mult            ....    1
 Number of Electrons    NEL             ....  134
 Basis Dimension        Dim             ....  322

ORBITAL ENERGIES
----------------

  NO   OCC          E(Eh)            E(eV)
   0   2.0000     -88.968654     -2420.9601
   1   2.0000     -88.963169     -2420.8109
   2   2.0000     -10.331875      -281.1446
   3   2.0000     -10.326794      -281.0064
   4   2.0000     -10.325153      -280.9617
   5   2.0000     -10.318883      -280.7911
   6   2.0000     -10.308536      -280.5095
   7   2.0000     -10.304382      -280.3965
   8   2.0000     -10.298039      -280.2239
   9   2.0000     -10.297534      -280.2101
  10   2.0000     -10.296269      -280.1757
  11   2.0000     -10.296187      -280.1735
  12   2.0000     -10.295656      -280.1591
  13   2.0000     -10.290794      -280.0267
  14   2.0000     -10.289275      -279.9854
  15   2.0000     -10.280306      -279.7414
  16   2.0000      -8.083307      -219.9580
  17   2.0000      -8.077510      -219.8002
  18   2.0000      -6.041978      -164.4106
  19   2.0000      -6.037806      -164.2971
  20   2.0000      -6.036227      -164.2541
  21   2.0000      -6.033895      -164.1906
  22   2.0000      -6.032075      -164.1411
  23   2.0000      -6.028079      -164.0324
  24   2.0000      -1.005578       -27.3632
  25   2.0000      -0.980423       -26.6787
  26   2.0000      -0.907544       -24.6955
  27   2.0000      -0.904995       -24.6262
  28   2.0000      -0.869947       -23.6725
  29   2.0000      -0.853135       -23.2150
  30   2.0000      -0.838449       -22.8153
  31   2.0000      -0.811239       -22.0749
  32   2.0000      -0.786415       -21.3994
  33   2.0000      -0.775511       -21.1027
  34   2.0000      -0.712013       -19.3749
  35   2.0000      -0.702007       -19.1026
  36   2.0000      -0.687562       -18.7095
  37   2.0000      -0.655796       -17.8451
  38   2.0000      -0.634678       -17.2705
  39   2.0000      -0.617976       -16.8160
  40   2.0000      -0.594522       -16.1778
  41   2.0000      -0.574506       -15.6331
  42   2.0000      -0.566764       -15.4224
  43   2.0000      -0.554991       -15.1021
  44   2.0000      -0.530026       -14.4227
  45   2.0000      -0.525592       -14.3021
  46   2.0000      -0.515355       -14.0235
  47   2.0000      -0.507126       -13.7996
  48   2.0000      -0.504371       -13.7246
  49   2.0000      -0.498787       -13.5727
  50   2.0000      -0.496433       -13.5086
  51   2.0000      -0.477197       -12.9852
  52   2.0000      -0.469316       -12.7707
  53   2.0000      -0.466042       -12.6816
  54   2.0000      -0.459215       -12.4959
  55   2.0000      -0.456510       -12.4223
  56   2.0000      -0.451567       -12.2878
  57   2.0000      -0.432015       -11.7557
  58   2.0000      -0.428332       -11.6555
  59   2.0000      -0.424843       -11.5606
  60   2.0000      -0.417328       -11.3561
  61   2.0000      -0.415961       -11.3189
  62   2.0000      -0.413065       -11.2401
  63   2.0000      -0.356274        -9.6947
  64   2.0000      -0.331820        -9.0293
  65   2.0000      -0.327851        -8.9213
  66   2.0000      -0.288840        -7.8597
  67   0.0000       0.025393         0.6910
  68   0.0000       0.071373         1.9422
  69   0.0000       0.106550         2.8994
  70   0.0000       0.114173         3.1068
  71   0.0000       0.131287         3.5725

MULLIKEN ATOMIC CHARGES
-----------------------
   0 S :    0.086667
   1 C :   -0.143918
   2 C :   -0.076732
   3 C :   -0.027663
   4 C :   -0.120716
   5 H :    0.017766
   6 C :    0.052891
   7 H :    0.054612
   8 H :    0.006910
   9 C :   -0.120248
  10 H :    0.033893
  11 H :    0.040951
  12 C :   -0.042721
  13 H :    0.029489
  14 H :    0.054807
  15 H :    0.027529
  16 S :    0.109125
  17 C :   -0.097285
  18 C :   -0.047105
  19 C :   -0.080588
  20 C :   -0.105602
  21 H :    0.020439
  22 C :    0.076482
  23 H :    0.041571
  24 H :    0.036916
  25 C :   -0.152117
  26 H :    0.026403
  27 H :    0.028935
  28 C :    0.007317
  29 H :    0.036603
  30 H :    0.032042
  31 H :    0.032504
  32 H :    0.080623
  33 H :    0.080219
Sum of atomic charges:   -0.0000000

LOEWDIN ATOMIC CHARGES
----------------------
   0 S :    0.379427
   1 C :   -0.199028
   2 C :   -0.066238
   3 C :   -0.072774
   4 C :   -0.182105
   5 H :    0.032428
   6 C :   -0.029104
   7 H :    0.043090
   8 H :    0.016922
   9 C :   -0.051944
  10 H :    0.018316
  11 H :    0.031833
  12 C :   -0.074414
  13 H :    0.031497
  14 H :    0.038192
  15 H :    0.024392
  16 S :    0.413797
  17 C :   -0.202750
  18 C :   -0.074229
  19 C :   -0.048158
  20 C :   -0.197220
  21 H :    0.028801
  22 C :   -0.026008
  23 H :    0.037205
  24 H :    0.020640
  25 C :   -0.050090
  26 H :    0.017851
  27 H :    0.022894
  28 C :   -0.050555
  29 H :    0.028539
  30 H :    0.019271
  31 H :    0.030428
  32 H :    0.043077
  33 H :    0.046019

  Mayer bond orders larger than 0.100000
B(  0-S ,  1-C ) :   1.1273 B(  0-S ,  4-C ) :   1.1290 B(  1-C ,  2-C ) :   1.6377
B(  1-C , 32-H ) :   0.9540 B(  2-C ,  3-C ) :   1.2209 B(  2-C ,  6-C ) :   1.0274
B(  3-C ,  4-C ) :   1.5991 B(  3-C ,  5-H ) :   0.9785 B(  4-C , 20-C ) :   1.0552
B(  6-C ,  7-H ) :   0.9399 B(  6-C ,  8-H ) :   0.9450 B(  6-C ,  9-C ) :   1.0542
B(  9-C , 10-H ) :   0.9500 B(  9-C , 11-H ) :   0.9621 B(  9-C , 12-C ) :   1.0737
B( 12-C , 13-H ) :   0.9716 B( 12-C , 14-H ) :   0.9732 B( 12-C , 15-H ) :   0.9723
B( 16-S , 17-C ) :   1.1651 B( 16-S , 20-C ) :   1.1209 B( 17-C , 18-C ) :   1.5918
B( 17-C , 33-H ) :   0.9554 B( 18-C , 19-C ) :   1.2526 B( 18-C , 21-H ) :   0.9825
B( 19-C , 20-C ) :   1.6388 B( 19-C , 22-C ) :   1.0198 B( 22-C , 23-H ) :   0.9390
B( 22-C , 24-H ) :   0.9261 B( 22-C , 25-C ) :   1.0736 B( 25-C , 26-H ) :   0.9445
B( 25-C , 27-H ) :   0.9571 B( 25-C , 28-C ) :   1.0830 B( 28-C , 29-H ) :   0.9753
B( 28-C , 30-H ) :   0.9766 B( 28-C , 31-H ) :   0.9702

Dispersion correction           -0.013217502
FINAL SINGLE POINT ENERGY     -1339.866959040519

DIPOLE MOMENT
-------------
                                X             Y             Z
Electronic contribution:     23.60949     -14.68336      16.73716
Nuclear contribution   :    -24.06344      15.26317     -17.22640
                        -----------------------------------------
Total Dipole Moment    :     -0.45396       0.57981      -0.48925
                        -----------------------------------------
Magnitude (a.u.)       :      0.88409
Magnitude (Debye)      :      2.24718

Rotational constants in cm-1:     0.015063     0.008935     0.006071
Rotational constants in MHz :   451.570181   267.872510   182.016936

                             ****ORCA TERMINATED NORMALLY****
TOTAL RUN TIME: 0 days 0 hours 0 minutes 19 seconds 631 msec
