                         Program Version 4.2.1 -  RELEASE  -
|  1> ! wB97X-D3 SP def2-SVP
|  2> %pal
|  3> nprocs 24
|  4> end
|  5>
|  6> * xyz 0 1
|  7> S 	 -48.6524 	 9.62136 	 -22.656
|  8> C 	 -48.0891 	 8.92091 	 -21.1694
|  9> C 	 -48.6115 	 9.64222 	 -20.0795
| 10> C 	 -49.7167 	 10.4659 	 -20.4465
| 11> C 	 -49.9258 	 10.4982 	 -21.8306
| 12> H 	 -50.4518 	 10.8915 	 -19.7933
| 13> C 	 -48.3604 	 9.22139 	 -18.6317
| 14> H 	 -48.2334 	 8.1142 	 -18.5577
| 15> H 	 -49.1616 	 9.41938 	 -17.8612
| 16> C 	 -47.2634 	 9.93832 	 -17.9021
| 17> H 	 -47.6611 	 10.9121 	 -17.6646
| 18> H 	 -46.9828 	 9.4995 	 -16.9346
| 19> C 	 -45.9399 	 10.0518 	 -18.7855
| 20> H 	 -45.4588 	 9.09363 	 -18.9634
| 21> H 	 -46.2473 	 10.5074 	 -19.7754
| 22> H 	 -45.2115 	 10.7171 	 -18.2264
| 23> S 	 -52.6275 	 10.2964 	 -22.1095
| 24> C 	 -53.4435 	 11.6093 	 -22.9828
| 25> C 	 -52.6488 	 12.3902 	 -23.777
| 26> C 	 -51.2736 	 11.9847 	 -23.5939
| 27> C 	 -51.0771 	 11.0129 	 -22.5778
| 28> H 	 -53.094 	 13.1764 	 -24.3432
| 29> C 	 -50.2178 	 12.9084 	 -24.2111
| 30> H 	 -49.2073 	 12.377 	 -24.077
| 31> H 	 -50.0854 	 13.8336 	 -23.7276
| 32> C 	 -50.3175 	 13.1386 	 -25.7393
| 33> H 	 -51.2412 	 13.4149 	 -26.1228
| 34> H 	 -50.3357 	 12.1666 	 -26.2113
| 35> C 	 -49.2573 	 14.1361 	 -26.1413
| 36> H 	 -49.4685 	 15.1272 	 -25.7533
| 37> H 	 -49.1933 	 14.1786 	 -27.2143
| 38> H 	 -48.2951 	 13.8636 	 -25.7303
| 39> H 	 -47.3836 	 8.13685 	 -21.0593
| 40> H 	 -54.4522 	 11.5634 	 -23.2531
| 41> *
| 42>
| 43>                          ****END OF INPUT****

CARTESIAN COORDINATES (ANGSTROEM)
---------------------------------
  S    -48.652400    9.621360  -22.656000
  C    -48.089100    8.920910  -21.169400
  C    -48.611500    9.642220  -20.079500
  C    -49.716700   10.465900  -20.446500
  C    -49.925800   10.498200  -21.830600
  H    -50.451800   10.891500  -19.793300
  C    -48.360400    9.221390  -18.631700
  H    -48.233400    8.114200  -18.557700
  H    -49.161600    9.419380  -17.861200
  C    -47.263400    9.938320  -17.902100
  H    -47.661100   10.912100  -17.664600
  H    -46.982800    9.499500  -16.934600
  C    -45.939900   10.051800  -18.785500
  H    -45.458800    9.093630  -18.963400
  H    -46.247300   10.507400  -19.775400
  H    -45.211500   10.717100  -18.226400
  S    -52.627500   10.296400  -22.109500
  C    -53.443500   11.609300  -22.982800
  C    -52.648800   12.390200  -23.777000
  C    -51.273600   11.984700  -23.593900
  C    -51.077100   11.012900  -22.577800
  H    -53.094000   13.176400  -24.343200
  C    -50.217800   12.908400  -24.211100
  H    -49.207300   12.377000  -24.077000
  H    -50.085400   13.833600  -23.727600
  C    -50.317500   13.138600  -25.739300
  H    -51.241200   13.414900  -26.122800
  H    -50.335700   12.166600  -26.211300
  C    -49.257300   14.136100  -26.141300
  H    -49.468500   15.127200  -25.753300
  H    -49.193300   14.178600  -27.214300
  H    -48.295100   13.863600  -25.730300
  H    -47.383600    8.136850  -21.059300
  H    -54.452200   11.563400  -23.253100

 Total Charge           Charge          ....    0
 Multiplicity           Mult            ....    1
 Number of Electrons    NEL             ....  134
 Basis Dimension        Dim             ....  322

ORBITAL ENERGIES
----------------

  NO   OCC          E(Eh)            E(eV)
   0   2.0000     -88.969591     -2420.9857
   1   2.0000     -88.968248     -2420.9491
   2   2.0000     -10.335755      -281.2502
   3   2.0000     -10.333613      -281.1919
   4   2.0000     -10.318511      -280.7810
   5   2.0000     -10.310594      -280.5655
   6   2.0000     -10.310558      -280.5645
   7   2.0000     -10.308267      -280.5022
   8   2.0000     -10.299555      -280.2651
   9   2.0000     -10.294941      -280.1396
  10   2.0000     -10.294294      -280.1220
  11   2.0000     -10.290719      -280.0247
  12   2.0000     -10.284411      -279.8531
  13   2.0000     -10.280969      -279.7594
  14   2.0000     -10.276689      -279.6429
  15   2.0000     -10.273837      -279.5653
  16   2.0000      -8.084212      -219.9826
  17   2.0000      -8.082197      -219.9278
  18   2.0000      -6.042644      -164.4287
  19   2.0000      -6.040704      -164.3759
  20   2.0000      -6.038654      -164.3201
  21   2.0000      -6.036953      -164.2738
  22   2.0000      -6.035135      -164.2244
  23   2.0000      -6.032855      -164.1623
  24   2.0000      -1.004634       -27.3375
  25   2.0000      -0.981873       -26.7181
  26   2.0000      -0.910292       -24.7703
  27   2.0000      -0.908546       -24.7228
  28   2.0000      -0.869478       -23.6597
  29   2.0000      -0.848824       -23.0977
  30   2.0000      -0.843473       -22.9521
  31   2.0000      -0.813010       -22.1231
  32   2.0000      -0.778480       -21.1835
  33   2.0000      -0.767666       -20.8893
  34   2.0000      -0.713096       -19.4043
  35   2.0000      -0.702731       -19.1223
  36   2.0000      -0.689094       -18.7512
  37   2.0000      -0.661424       -17.9983
  38   2.0000      -0.642275       -17.4772
  39   2.0000      -0.617575       -16.8051
  40   2.0000      -0.598212       -16.2782
  41   2.0000      -0.571984       -15.5645
  42   2.0000      -0.559379       -15.2215
  43   2.0000      -0.549955       -14.9650
  44   2.0000      -0.539208       -14.6726
  45   2.0000      -0.525227       -14.2922
  46   2.0000      -0.523426       -14.2432
  47   2.0000      -0.509102       -13.8534
  48   2.0000      -0.504782       -13.7358
  49   2.0000      -0.496726       -13.5166
  50   2.0000      -0.489037       -13.3074
  51   2.0000      -0.472950       -12.8696
  52   2.0000      -0.471903       -12.8411
  53   2.0000      -0.469069       -12.7640
  54   2.0000      -0.458217       -12.4687
  55   2.0000      -0.454305       -12.3623
  56   2.0000      -0.442738       -12.0475
  57   2.0000      -0.434793       -11.8313
  58   2.0000      -0.428059       -11.6481
  59   2.0000      -0.420452       -11.4411
  60   2.0000      -0.416965       -11.3462
  61   2.0000      -0.405949       -11.0464
  62   2.0000      -0.402276       -10.9465
  63   2.0000      -0.341235        -9.2855
  64   2.0000      -0.337214        -9.1761
  65   2.0000      -0.330605        -8.9962
  66   2.0000      -0.291310        -7.9270
  67   0.0000       0.027507         0.7485
  68   0.0000       0.051445         1.3999
  69   0.0000       0.100230         2.7274
  70   0.0000       0.104655         2.8478
  71   0.0000       0.124769         3.3951

MULLIKEN ATOMIC CHARGES
-----------------------
   0 S :    0.126722
   1 C :   -0.103809
   2 C :   -0.065206
   3 C :    0.050144
   4 C :   -0.171699
   5 H :    0.015528
   6 C :    0.006373
   7 H :    0.038046
   8 H :    0.034754
   9 C :   -0.074342
  10 H :    0.022190
  11 H :    0.031522
  12 C :   -0.102037
  13 H :    0.031521
  14 H :    0.061093
  15 H :    0.042325
  16 S :    0.107467
  17 C :   -0.065189
  18 C :   -0.042399
  19 C :    0.005016
  20 C :   -0.154843
  21 H :    0.025937
  22 C :    0.019334
  23 H :    0.022583
  24 H :    0.030662
  25 C :   -0.060855
  26 H :   -0.000580
  27 H :    0.015663
  28 C :   -0.009437
  29 H :    0.028685
  30 H :    0.030290
  31 H :    0.021953
  32 H :    0.043145
  33 H :    0.039442
Sum of atomic charges:   -0.0000000

LOEWDIN ATOMIC CHARGES
----------------------
   0 S :    0.418760
   1 C :   -0.183766
   2 C :   -0.063860
   3 C :   -0.053038
   4 C :   -0.199861
   5 H :    0.031769
   6 C :   -0.045962
   7 H :    0.032239
   8 H :    0.038864
   9 C :   -0.043255
  10 H :    0.019164
  11 H :    0.024952
  12 C :   -0.079254
  13 H :    0.018636
  14 H :    0.031615
  15 H :    0.029073
  16 S :    0.394323
  17 C :   -0.172683
  18 C :   -0.059384
  19 C :   -0.055323
  20 C :   -0.190307
  21 H :    0.033874
  22 C :   -0.031445
  23 H :    0.030856
  24 H :    0.022537
  25 C :   -0.043665
  26 H :    0.010117
  27 H :    0.026373
  28 C :   -0.054615
  29 H :    0.026190
  30 H :    0.025540
  31 H :    0.023371
  32 H :    0.022587
  33 H :    0.015581

  Mayer bond orders larger than 0.100000
B(  0-S ,  1-C ) :   1.1593 B(  0-S ,  4-C ) :   1.1523 B(  1-C ,  2-C ) :   1.5679
B(  1-C ,  4-C ) :   0.1020 B(  1-C , 32-H ) :   0.9771 B(  2-C ,  3-C ) :   1.2390
B(  2-C ,  6-C ) :   1.0119 B(  3-C ,  4-C ) :   1.5653 B(  3-C ,  5-H ) :   0.9995
B(  4-C , 20-C ) :   1.0380 B(  6-C ,  7-H ) :   0.9535 B(  6-C ,  8-H ) :   0.9568
B(  6-C ,  9-C ) :   1.0606 B(  9-C , 10-H ) :   0.9598 B(  9-C , 11-H ) :   0.9562
B(  9-C , 12-C ) :   1.0739 B( 12-C , 13-H ) :   0.9775 B( 12-C , 14-H ) :   0.9682
B( 12-C , 15-H ) :   0.9767 B( 16-S , 17-C ) :   1.1407 B( 16-S , 20-C ) :   1.1413
B( 17-C , 18-C ) :   1.6512 B( 17-C , 33-H ) :   0.9598 B( 18-C , 19-C ) :   1.2127
B( 18-C , 21-H ) :   0.9939 B( 19-C , 20-C ) :   1.5845 B( 19-C , 22-C ) :   1.0411
B( 22-C , 23-H ) :   0.9355 B( 22-C , 24-H ) :   0.9540 B( 22-C , 25-C ) :   1.0457
B( 25-C , 26-H ) :   0.9546 B( 25-C , 27-H ) :   0.9493 B( 25-C , 28-C ) :   1.0814
B( 28-C , 29-H ) :   0.9726 B( 28-C , 30-H ) :   0.9715 B( 28-C , 31-H ) :   0.9735

Dispersion correction           -0.013949635
FINAL SINGLE POINT ENERGY     -1339.844001975735

DIPOLE MOMENT
-------------
                                X             Y             Z
Electronic contribution:    -15.23469     -10.64889      -2.13923
Nuclear contribution   :     15.20540      10.82546       2.20181
                        -----------------------------------------
Total Dipole Moment    :     -0.02928       0.17657       0.06258
                        -----------------------------------------
Magnitude (a.u.)       :      0.18960
Magnitude (Debye)      :      0.48194

Rotational constants in cm-1:     0.021004     0.007485     0.006165
Rotational constants in MHz :   629.687012   224.399618   184.812137

                             ****ORCA TERMINATED NORMALLY****
TOTAL RUN TIME: 0 days 0 hours 0 minutes 20 seconds 781 msec
