                         Program Version 4.2.1 -  RELEASE  -
|  1> ! wB97X-D3 SP def2-SVP
|  2> %pal
|  3> nprocs 24
|  4> end
|  5>
|  6> * xyz 0 1
|  7> S 	 -53.8043 	 15.7129 	 -88.6206
|  8> C 	 -52.6737 	 17.0392 	 -88.5895
|  9> C 	 -51.3589 	 16.6155 	 -88.638
| 10> C 	 -51.1733 	 15.2336 	 -88.8076
| 11> C 	 -52.4156 	 14.5774 	 -88.8229
| 12> H 	 -50.3708 	 14.6058 	 -89.0228
| 13> C 	 -50.1782 	 17.5444 	 -88.6856
| 14> H 	 -49.2739 	 16.9375 	 -88.4342
| 15> H 	 -50.3377 	 18.2471 	 -87.896
| 16> C 	 -49.9653 	 18.3945 	 -89.9108
| 17> H 	 -50.8088 	 19.078 	 -90.0725
| 18> H 	 -49.1558 	 19.0674 	 -89.685
| 19> C 	 -49.7516 	 17.5815 	 -91.21
| 20> H 	 -49.2486 	 16.5884 	 -90.9212
| 21> H 	 -50.6553 	 17.3078 	 -91.6576
| 22> H 	 -49.0529 	 18.1968 	 -91.8112
| 23> S 	 -53.8077 	 12.5179 	 -87.739
| 24> C 	 -53.7215 	 10.9349 	 -88.3704
| 25> C 	 -52.7746 	 10.8395 	 -89.3787
| 26> C 	 -52.1203 	 12.0915 	 -89.6916
| 27> C 	 -52.6589 	 13.139 	 -88.9339
| 28> H 	 -52.5168 	 9.88293 	 -89.7918
| 29> C 	 -51.193 	 12.2109 	 -90.9391
| 30> H 	 -50.3609 	 11.459 	 -90.8547
| 31> H 	 -50.631 	 13.2365 	 -90.8493
| 32> C 	 -51.863 	 11.9842 	 -92.3319
| 33> H 	 -52.615 	 12.8102 	 -92.3815
| 34> H 	 -52.4751 	 11.0979 	 -92.3708
| 35> C 	 -50.8259 	 11.9143 	 -93.4795
| 36> H 	 -50.3103 	 12.8688 	 -93.3682
| 37> H 	 -51.2586 	 11.8109 	 -94.4928
| 38> H 	 -50.0735 	 11.1338 	 -93.3207
| 39> H 	 -52.9976 	 18.0486 	 -88.4443
| 40> H 	 -54.3038 	 10.0876 	 -88.0145
| 41> *
| 42>
| 43>                          ****END OF INPUT****

CARTESIAN COORDINATES (ANGSTROEM)
---------------------------------
  S    -53.804300   15.712900  -88.620600
  C    -52.673700   17.039200  -88.589500
  C    -51.358900   16.615500  -88.638000
  C    -51.173300   15.233600  -88.807600
  C    -52.415600   14.577400  -88.822900
  H    -50.370800   14.605800  -89.022800
  C    -50.178200   17.544400  -88.685600
  H    -49.273900   16.937500  -88.434200
  H    -50.337700   18.247100  -87.896000
  C    -49.965300   18.394500  -89.910800
  H    -50.808800   19.078000  -90.072500
  H    -49.155800   19.067400  -89.685000
  C    -49.751600   17.581500  -91.210000
  H    -49.248600   16.588400  -90.921200
  H    -50.655300   17.307800  -91.657600
  H    -49.052900   18.196800  -91.811200
  S    -53.807700   12.517900  -87.739000
  C    -53.721500   10.934900  -88.370400
  C    -52.774600   10.839500  -89.378700
  C    -52.120300   12.091500  -89.691600
  C    -52.658900   13.139000  -88.933900
  H    -52.516800    9.882930  -89.791800
  C    -51.193000   12.210900  -90.939100
  H    -50.360900   11.459000  -90.854700
  H    -50.631000   13.236500  -90.849300
  C    -51.863000   11.984200  -92.331900
  H    -52.615000   12.810200  -92.381500
  H    -52.475100   11.097900  -92.370800
  C    -50.825900   11.914300  -93.479500
  H    -50.310300   12.868800  -93.368200
  H    -51.258600   11.810900  -94.492800
  H    -50.073500   11.133800  -93.320700
  H    -52.997600   18.048600  -88.444300
  H    -54.303800   10.087600  -88.014500

 Total Charge           Charge          ....    0
 Multiplicity           Mult            ....    1
 Number of Electrons    NEL             ....  134
 Basis Dimension        Dim             ....  322

ORBITAL ENERGIES
----------------

  NO   OCC          E(Eh)            E(eV)
   0   2.0000     -88.969593     -2420.9857
   1   2.0000     -88.964484     -2420.8467
   2   2.0000     -10.334634      -281.2197
   3   2.0000     -10.330523      -281.1078
   4   2.0000     -10.315235      -280.6918
   5   2.0000     -10.312440      -280.6157
   6   2.0000     -10.311123      -280.5799
   7   2.0000     -10.310071      -280.5513
   8   2.0000     -10.299247      -280.2568
   9   2.0000     -10.293847      -280.1098
  10   2.0000     -10.292920      -280.0846
  11   2.0000     -10.291179      -280.0372
  12   2.0000     -10.285546      -279.8839
  13   2.0000     -10.283442      -279.8267
  14   2.0000     -10.283243      -279.8213
  15   2.0000     -10.279475      -279.7187
  16   2.0000      -8.083456      -219.9620
  17   2.0000      -8.079861      -219.8642
  18   2.0000      -6.041908      -164.4087
  19   2.0000      -6.038352      -164.3119
  20   2.0000      -6.038108      -164.3053
  21   2.0000      -6.034315      -164.2021
  22   2.0000      -6.034192      -164.1987
  23   2.0000      -6.030675      -164.1030
  24   2.0000      -1.004128       -27.3237
  25   2.0000      -0.982939       -26.7471
  26   2.0000      -0.912844       -24.8398
  27   2.0000      -0.901108       -24.5204
  28   2.0000      -0.867167       -23.5968
  29   2.0000      -0.853752       -23.2318
  30   2.0000      -0.845839       -23.0164
  31   2.0000      -0.812362       -22.1055
  32   2.0000      -0.779750       -21.2181
  33   2.0000      -0.768456       -20.9108
  34   2.0000      -0.704234       -19.1632
  35   2.0000      -0.703087       -19.1320
  36   2.0000      -0.692041       -18.8314
  37   2.0000      -0.663009       -18.0414
  38   2.0000      -0.646561       -17.5938
  39   2.0000      -0.609797       -16.5934
  40   2.0000      -0.591832       -16.1046
  41   2.0000      -0.572300       -15.5731
  42   2.0000      -0.556194       -15.1348
  43   2.0000      -0.550628       -14.9833
  44   2.0000      -0.543476       -14.7887
  45   2.0000      -0.526294       -14.3212
  46   2.0000      -0.520349       -14.1594
  47   2.0000      -0.508925       -13.8485
  48   2.0000      -0.506049       -13.7703
  49   2.0000      -0.495147       -13.4736
  50   2.0000      -0.489048       -13.3077
  51   2.0000      -0.477069       -12.9817
  52   2.0000      -0.475535       -12.9400
  53   2.0000      -0.463678       -12.6173
  54   2.0000      -0.454356       -12.3637
  55   2.0000      -0.451357       -12.2820
  56   2.0000      -0.444924       -12.1070
  57   2.0000      -0.435923       -11.8621
  58   2.0000      -0.432739       -11.7754
  59   2.0000      -0.422321       -11.4919
  60   2.0000      -0.421022       -11.4566
  61   2.0000      -0.413211       -11.2440
  62   2.0000      -0.410755       -11.1772
  63   2.0000      -0.350517        -9.5381
  64   2.0000      -0.334449        -9.1008
  65   2.0000      -0.329580        -8.9683
  66   2.0000      -0.286351        -7.7920
  67   0.0000       0.023778         0.6470
  68   0.0000       0.069238         1.8841
  69   0.0000       0.107615         2.9284
  70   0.0000       0.117238         3.1902
  71   0.0000       0.130547         3.5524

MULLIKEN ATOMIC CHARGES
-----------------------
   0 S :    0.112483
   1 C :   -0.117604
   2 C :   -0.061296
   3 C :    0.054603
   4 C :   -0.167639
   5 H :   -0.007984
   6 C :    0.059797
   7 H :    0.029574
   8 H :    0.015599
   9 C :   -0.059099
  10 H :    0.021206
  11 H :    0.024672
  12 C :   -0.053215
  13 H :    0.026391
  14 H :    0.040355
  15 H :    0.044919
  16 S :    0.104813
  17 C :   -0.086500
  18 C :   -0.040762
  19 C :   -0.018693
  20 C :   -0.161458
  21 H :    0.013195
  22 C :   -0.005737
  23 H :    0.029930
  24 H :    0.034077
  25 C :   -0.068626
  26 H :    0.042281
  27 H :    0.025859
  28 C :   -0.047947
  29 H :    0.030042
  30 H :    0.049753
  31 H :    0.034258
  32 H :    0.040690
  33 H :    0.062063
Sum of atomic charges:   -0.0000000

LOEWDIN ATOMIC CHARGES
----------------------
   0 S :    0.391936
   1 C :   -0.196233
   2 C :   -0.063703
   3 C :   -0.053640
   4 C :   -0.171569
   5 H :    0.024093
   6 C :   -0.036238
   7 H :    0.032863
   8 H :    0.028889
   9 C :   -0.041414
  10 H :    0.023319
  11 H :    0.022522
  12 C :   -0.063782
  13 H :    0.028615
  14 H :    0.019520
  15 H :    0.032448
  16 S :    0.415743
  17 C :   -0.200029
  18 C :   -0.070525
  19 C :   -0.062310
  20 C :   -0.193091
  21 H :    0.027343
  22 C :   -0.040649
  23 H :    0.029523
  24 H :    0.035344
  25 C :   -0.043841
  26 H :    0.031865
  27 H :    0.018879
  28 C :   -0.066998
  29 H :    0.026901
  30 H :    0.032031
  31 H :    0.025985
  32 H :    0.023302
  33 H :    0.032902

  Mayer bond orders larger than 0.100000
B(  0-S ,  1-C ) :   1.1345 B(  0-S ,  4-C ) :   1.1543 B(  1-C ,  2-C ) :   1.5979
B(  1-C ,  4-C ) :   0.1056 B(  1-C , 32-H ) :   0.9740 B(  2-C ,  3-C ) :   1.2217
B(  2-C ,  6-C ) :   1.0235 B(  3-C ,  4-C ) :   1.5641 B(  3-C ,  5-H ) :   1.0033
B(  4-C , 20-C ) :   1.0442 B(  6-C ,  7-H ) :   0.9421 B(  6-C ,  8-H ) :   0.9258
B(  6-C ,  9-C ) :   1.0984 B(  9-C , 10-H ) :   0.9499 B(  9-C , 11-H ) :   0.9565
B(  9-C , 12-C ) :   1.0577 B( 12-C , 13-H ) :   0.9796 B( 12-C , 14-H ) :   0.9760
B( 12-C , 15-H ) :   0.9763 B( 16-S , 17-C ) :   1.1584 B( 16-S , 20-C ) :   1.1490
B( 17-C , 18-C ) :   1.6050 B( 17-C , 33-H ) :   0.9673 B( 18-C , 19-C ) :   1.2332
B( 18-C , 21-H ) :   0.9921 B( 19-C , 20-C ) :   1.5854 B( 19-C , 22-C ) :   1.0451
B( 22-C , 23-H ) :   0.9365 B( 22-C , 24-H ) :   0.9380 B( 22-C , 25-C ) :   1.0463
B( 25-C , 26-H ) :   0.9568 B( 25-C , 27-H ) :   0.9583 B( 25-C , 28-C ) :   1.0648
B( 28-C , 29-H ) :   0.9774 B( 28-C , 30-H ) :   0.9749 B( 28-C , 31-H ) :   0.9751

Dispersion correction           -0.014212781
FINAL SINGLE POINT ENERGY     -1339.878061153217

DIPOLE MOMENT
-------------
                                X             Y             Z
Electronic contribution:    -20.19432      -5.28680      21.05615
Nuclear contribution   :     20.60775       5.29533     -21.38757
                        -----------------------------------------
Total Dipole Moment    :      0.41344       0.00853      -0.33142
                        -----------------------------------------
Magnitude (a.u.)       :      0.52995
Magnitude (Debye)      :      1.34702

Rotational constants in cm-1:     0.016875     0.009490     0.006661
Rotational constants in MHz :   505.889847   284.510507   199.677243

                             ****ORCA TERMINATED NORMALLY****
TOTAL RUN TIME: 0 days 0 hours 0 minutes 21 seconds 655 msec
