                         Program Version 4.2.1 -  RELEASE  -
|  1> ! wB97X-D3 SP def2-SVP
|  2> %pal
|  3> nprocs 24
|  4> end
|  5>
|  6> * xyz 0 1
|  7> S 	 -54.481 	 14.1562 	 20.1398
|  8> C 	 -54.2672 	 12.6848 	 19.2958
|  9> C 	 -53.8279 	 11.6538 	 20.1182
| 10> C 	 -53.7547 	 12.0508 	 21.477
| 11> C 	 -54.1645 	 13.3888 	 21.6533
| 12> H 	 -53.4611 	 11.4253 	 22.2994
| 13> C 	 -53.4682 	 10.2091 	 19.6499
| 14> H 	 -52.5203 	 9.83679 	 19.9719
| 15> H 	 -53.4691 	 10.1743 	 18.5524
| 16> C 	 -54.4862 	 9.18976 	 20.1565
| 17> H 	 -54.3545 	 9.03374 	 21.2455
| 18> H 	 -55.4799 	 9.56513 	 20.0555
| 19> C 	 -54.2715 	 7.74007 	 19.6375
| 20> H 	 -55.0904 	 7.15237 	 20.0888
| 21> H 	 -54.257 	 7.67387 	 18.6005
| 22> H 	 -53.318 	 7.34787 	 19.9825
| 23> S 	 -55.8152 	 14.563 	 23.4372
| 24> C 	 -55.142 	 15.1472 	 24.9814
| 25> C 	 -53.8051 	 14.7393 	 25.1549
| 26> C 	 -53.2665 	 14.0942 	 24.0169
| 27> C 	 -54.2167 	 13.9953 	 22.98
| 28> H 	 -53.2679 	 15.1513 	 26.0173
| 29> C 	 -51.7607 	 13.6231 	 24.0619
| 30> H 	 -51.6307 	 12.556 	 23.7497
| 31> H 	 -51.442 	 13.7389 	 25.1292
| 32> C 	 -50.8085 	 14.4561 	 23.0504
| 33> H 	 -51.0977 	 15.5152 	 23.1532
| 34> H 	 -51.116 	 14.1339 	 22.0264
| 35> C 	 -49.3206 	 14.4085 	 23.3085
| 36> H 	 -48.8194 	 13.4499 	 23.281
| 37> H 	 -49.102 	 14.8842 	 24.2396
| 38> H 	 -48.8391 	 15.0507 	 22.5788
| 39> H 	 -54.5546 	 12.5323 	 18.2228
| 40> H 	 -55.6617 	 15.7145 	 25.7939
| 41> *
| 42>
| 43>                          ****END OF INPUT****

CARTESIAN COORDINATES (ANGSTROEM)
---------------------------------
  S    -54.481000   14.156200   20.139800
  C    -54.267200   12.684800   19.295800
  C    -53.827900   11.653800   20.118200
  C    -53.754700   12.050800   21.477000
  C    -54.164500   13.388800   21.653300
  H    -53.461100   11.425300   22.299400
  C    -53.468200   10.209100   19.649900
  H    -52.520300    9.836790   19.971900
  H    -53.469100   10.174300   18.552400
  C    -54.486200    9.189760   20.156500
  H    -54.354500    9.033740   21.245500
  H    -55.479900    9.565130   20.055500
  C    -54.271500    7.740070   19.637500
  H    -55.090400    7.152370   20.088800
  H    -54.257000    7.673870   18.600500
  H    -53.318000    7.347870   19.982500
  S    -55.815200   14.563000   23.437200
  C    -55.142000   15.147200   24.981400
  C    -53.805100   14.739300   25.154900
  C    -53.266500   14.094200   24.016900
  C    -54.216700   13.995300   22.980000
  H    -53.267900   15.151300   26.017300
  C    -51.760700   13.623100   24.061900
  H    -51.630700   12.556000   23.749700
  H    -51.442000   13.738900   25.129200
  C    -50.808500   14.456100   23.050400
  H    -51.097700   15.515200   23.153200
  H    -51.116000   14.133900   22.026400
  C    -49.320600   14.408500   23.308500
  H    -48.819400   13.449900   23.281000
  H    -49.102000   14.884200   24.239600
  H    -48.839100   15.050700   22.578800
  H    -54.554600   12.532300   18.222800
  H    -55.661700   15.714500   25.793900

 Total Charge           Charge          ....    0
 Multiplicity           Mult            ....    1
 Number of Electrons    NEL             ....  134
 Basis Dimension        Dim             ....  322

ORBITAL ENERGIES
----------------

  NO   OCC          E(Eh)            E(eV)
   0   2.0000     -88.971953     -2421.0499
   1   2.0000     -88.968944     -2420.9680
   2   2.0000     -10.328541      -281.0539
   3   2.0000     -10.327071      -281.0139
   4   2.0000     -10.322554      -280.8910
   5   2.0000     -10.314991      -280.6852
   6   2.0000     -10.309475      -280.5351
   7   2.0000     -10.305772      -280.4343
   8   2.0000     -10.302696      -280.3506
   9   2.0000     -10.295601      -280.1576
  10   2.0000     -10.293014      -280.0871
  11   2.0000     -10.292829      -280.0821
  12   2.0000     -10.290281      -280.0128
  13   2.0000     -10.282494      -279.8009
  14   2.0000     -10.275827      -279.6195
  15   2.0000     -10.272876      -279.5392
  16   2.0000      -8.087276      -220.0660
  17   2.0000      -8.082781      -219.9437
  18   2.0000      -6.045636      -164.5101
  19   2.0000      -6.041647      -164.4016
  20   2.0000      -6.041220      -164.3900
  21   2.0000      -6.038225      -164.3085
  22   2.0000      -6.037419      -164.2865
  23   2.0000      -6.033660      -164.1842
  24   2.0000      -1.006491       -27.3880
  25   2.0000      -0.980146       -26.6711
  26   2.0000      -0.908903       -24.7325
  27   2.0000      -0.893153       -24.3039
  28   2.0000      -0.865973       -23.5643
  29   2.0000      -0.851978       -23.1835
  30   2.0000      -0.847899       -23.0725
  31   2.0000      -0.806618       -21.9492
  32   2.0000      -0.781850       -21.2752
  33   2.0000      -0.768126       -20.9018
  34   2.0000      -0.703594       -19.1458
  35   2.0000      -0.694729       -18.9045
  36   2.0000      -0.683706       -18.6046
  37   2.0000      -0.659095       -17.9349
  38   2.0000      -0.639992       -17.4151
  39   2.0000      -0.618294       -16.8246
  40   2.0000      -0.585586       -15.9346
  41   2.0000      -0.572833       -15.5876
  42   2.0000      -0.557084       -15.1590
  43   2.0000      -0.554258       -15.0821
  44   2.0000      -0.525229       -14.2922
  45   2.0000      -0.516119       -14.0443
  46   2.0000      -0.510763       -13.8986
  47   2.0000      -0.505090       -13.7442
  48   2.0000      -0.503212       -13.6931
  49   2.0000      -0.498082       -13.5535
  50   2.0000      -0.492380       -13.3983
  51   2.0000      -0.483197       -13.1485
  52   2.0000      -0.469413       -12.7734
  53   2.0000      -0.465670       -12.6715
  54   2.0000      -0.463601       -12.6152
  55   2.0000      -0.447576       -12.1792
  56   2.0000      -0.445896       -12.1334
  57   2.0000      -0.438796       -11.9402
  58   2.0000      -0.428804       -11.6683
  59   2.0000      -0.425942       -11.5905
  60   2.0000      -0.418981       -11.4010
  61   2.0000      -0.416301       -11.3281
  62   2.0000      -0.412723       -11.2308
  63   2.0000      -0.341322        -9.2879
  64   2.0000      -0.331944        -9.0327
  65   2.0000      -0.329097        -8.9552
  66   2.0000      -0.291636        -7.9358
  67   0.0000       0.027860         0.7581
  68   0.0000       0.068778         1.8716
  69   0.0000       0.107773         2.9327
  70   0.0000       0.118020         3.2115
  71   0.0000       0.132549         3.6068

MULLIKEN ATOMIC CHARGES
-----------------------
   0 S :    0.145465
   1 C :   -0.153282
   2 C :   -0.074232
   3 C :    0.029918
   4 C :   -0.165609
   5 H :    0.013375
   6 C :    0.104387
   7 H :    0.016500
   8 H :    0.014456
   9 C :   -0.120440
  10 H :    0.028206
  11 H :    0.029142
  12 C :   -0.020935
  13 H :    0.043176
  14 H :    0.018294
  15 H :    0.023538
  16 S :    0.116825
  17 C :   -0.117359
  18 C :   -0.063228
  19 C :    0.000587
  20 C :   -0.188905
  21 H :    0.034048
  22 C :    0.042526
  23 H :    0.040196
  24 H :    0.026696
  25 C :   -0.105961
  26 H :    0.032853
  27 H :    0.047410
  28 C :   -0.016534
  29 H :    0.031641
  30 H :    0.018995
  31 H :    0.030102
  32 H :    0.067700
  33 H :    0.070449
Sum of atomic charges:    0.0000000

LOEWDIN ATOMIC CHARGES
----------------------
   0 S :    0.443200
   1 C :   -0.225042
   2 C :   -0.061676
   3 C :   -0.054914
   4 C :   -0.217701
   5 H :    0.029965
   6 C :   -0.025420
   7 H :    0.025342
   8 H :    0.026728
   9 C :   -0.042698
  10 H :    0.025358
  11 H :    0.018350
  12 C :   -0.057203
  13 H :    0.034309
  14 H :    0.010885
  15 H :    0.023770
  16 S :    0.401875
  17 C :   -0.190775
  18 C :   -0.077346
  19 C :   -0.056068
  20 C :   -0.197623
  21 H :    0.036537
  22 C :   -0.030928
  23 H :    0.031349
  24 H :    0.029682
  25 C :   -0.041872
  26 H :    0.026406
  27 H :    0.028355
  28 C :   -0.066678
  29 H :    0.022707
  30 H :    0.022347
  31 H :    0.031022
  32 H :    0.039328
  33 H :    0.038432

  Mayer bond orders larger than 0.100000
B(  0-S ,  1-C ) :   1.1569 B(  0-S ,  4-C ) :   1.1765 B(  1-C ,  2-C ) :   1.5865
B(  1-C , 32-H ) :   0.9575 B(  2-C ,  3-C ) :   1.2752 B(  2-C ,  6-C ) :   1.0240
B(  3-C ,  4-C ) :   1.5235 B(  3-C ,  5-H ) :   0.9995 B(  4-C , 20-C ) :   1.0399
B(  6-C ,  7-H ) :   0.9410 B(  6-C ,  8-H ) :   0.9451 B(  6-C ,  9-C ) :   1.0579
B(  9-C , 10-H ) :   0.9561 B(  9-C , 11-H ) :   0.9617 B(  9-C , 12-C ) :   1.0760
B( 12-C , 13-H ) :   0.9752 B( 12-C , 14-H ) :   0.9785 B( 12-C , 15-H ) :   0.9738
B( 16-S , 17-C ) :   1.1491 B( 16-S , 20-C ) :   1.1576 B( 17-C , 18-C ) :   1.6180
B( 17-C , 20-C ) :   0.1113 B( 17-C , 33-H ) :   0.9599 B( 18-C , 19-C ) :   1.2567
B( 18-C , 21-H ) :   0.9772 B( 19-C , 20-C ) :   1.5778 B( 19-C , 22-C ) :   1.0300
B( 22-C , 23-H ) :   0.9400 B( 22-C , 24-H ) :   0.9450 B( 22-C , 25-C ) :   1.0420
B( 25-C , 26-H ) :   0.9594 B( 25-C , 27-H ) :   0.9579 B( 25-C , 28-C ) :   1.0893
B( 28-C , 29-H ) :   0.9749 B( 28-C , 30-H ) :   0.9715 B( 28-C , 31-H ) :   0.9700

Dispersion correction           -0.013966196
FINAL SINGLE POINT ENERGY     -1339.878440864572

DIPOLE MOMENT
-------------
                                X             Y             Z
Electronic contribution:    -18.32383      18.47074       1.30660
Nuclear contribution   :     18.73596     -18.80261      -1.20175
                        -----------------------------------------
Total Dipole Moment    :      0.41213      -0.33187       0.10485
                        -----------------------------------------
Magnitude (a.u.)       :      0.53943
Magnitude (Debye)      :      1.37112

Rotational constants in cm-1:     0.016754     0.008115     0.006933
Rotational constants in MHz :   502.266062   243.292613   207.840643

                             ****ORCA TERMINATED NORMALLY****
TOTAL RUN TIME: 0 days 0 hours 0 minutes 21 seconds 209 msec
