                         Program Version 4.2.1 -  RELEASE  -
|  1> ! wB97X-D3 SP def2-SVP
|  2> %pal
|  3> nprocs 24
|  4> end
|  5>
|  6> * xyz 0 1
|  7> S 	 -97.2542 	 -27.9802 	 -59.4855
|  8> C 	 -98.6638 	 -27.0519 	 -59.9629
|  9> C 	 -98.3636 	 -25.8894 	 -60.6151
| 10> C 	 -96.8936 	 -25.7124 	 -60.6332
| 11> C 	 -96.171 	 -26.8231 	 -60.1551
| 12> H 	 -96.3287 	 -24.9382 	 -61.15
| 13> C 	 -99.3577 	 -24.9095 	 -61.2164
| 14> H 	 -99.1957 	 -23.928 	 -60.7423
| 15> H 	 -100.426 	 -25.1277 	 -60.9914
| 16> C 	 -99.2536 	 -24.6057 	 -62.7491
| 17> H 	 -99.8972 	 -23.7623 	 -62.885
| 18> H 	 -98.3538 	 -24.2029 	 -63.0465
| 19> C 	 -99.5113 	 -25.798 	 -63.7704
| 20> H 	 -100.547 	 -26.1889 	 -63.8881
| 21> H 	 -99.1111 	 -25.3559 	 -64.7202
| 22> H 	 -98.8338 	 -26.6041 	 -63.4632
| 23> S 	 -93.7891 	 -27.2795 	 -61.5123
| 24> C 	 -92.2615 	 -27.4327 	 -60.5894
| 25> C 	 -92.4596 	 -27.1858 	 -59.2622
| 26> C 	 -93.856 	 -26.8387 	 -58.9352
| 27> C 	 -94.7026 	 -26.9932 	 -60.0311
| 28> H 	 -91.5853 	 -27.2415 	 -58.6591
| 29> C 	 -94.4115 	 -26.6774 	 -57.5349
| 30> H 	 -94.7293 	 -27.6273 	 -57.1955
| 31> H 	 -95.3659 	 -26.0884 	 -57.5513
| 32> C 	 -93.3555 	 -26.1339 	 -56.5715
| 33> H 	 -93.1948 	 -25.0808 	 -56.7861
| 34> H 	 -92.3927 	 -26.6001 	 -56.6086
| 35> C 	 -93.8124 	 -26.2921 	 -55.1061
| 36> H 	 -93.0011 	 -26.0138 	 -54.4172
| 37> H 	 -94.0395 	 -27.2862 	 -54.8223
| 38> H 	 -94.6097 	 -25.5923 	 -54.8194
| 39> H 	 -99.6525 	 -27.3054 	 -59.82
| 40> H 	 -91.2853 	 -27.7089 	 -61.035
| 41> *
| 42>
| 43>                          ****END OF INPUT****

CARTESIAN COORDINATES (ANGSTROEM)
---------------------------------
  S    -97.254200  -27.980200  -59.485500
  C    -98.663800  -27.051900  -59.962900
  C    -98.363600  -25.889400  -60.615100
  C    -96.893600  -25.712400  -60.633200
  C    -96.171000  -26.823100  -60.155100
  H    -96.328700  -24.938200  -61.150000
  C    -99.357700  -24.909500  -61.216400
  H    -99.195700  -23.928000  -60.742300
  H    -100.426000  -25.127700  -60.991400
  C    -99.253600  -24.605700  -62.749100
  H    -99.897200  -23.762300  -62.885000
  H    -98.353800  -24.202900  -63.046500
  C    -99.511300  -25.798000  -63.770400
  H    -100.547000  -26.188900  -63.888100
  H    -99.111100  -25.355900  -64.720200
  H    -98.833800  -26.604100  -63.463200
  S    -93.789100  -27.279500  -61.512300
  C    -92.261500  -27.432700  -60.589400
  C    -92.459600  -27.185800  -59.262200
  C    -93.856000  -26.838700  -58.935200
  C    -94.702600  -26.993200  -60.031100
  H    -91.585300  -27.241500  -58.659100
  C    -94.411500  -26.677400  -57.534900
  H    -94.729300  -27.627300  -57.195500
  H    -95.365900  -26.088400  -57.551300
  C    -93.355500  -26.133900  -56.571500
  H    -93.194800  -25.080800  -56.786100
  H    -92.392700  -26.600100  -56.608600
  C    -93.812400  -26.292100  -55.106100
  H    -93.001100  -26.013800  -54.417200
  H    -94.039500  -27.286200  -54.822300
  H    -94.609700  -25.592300  -54.819400
  H    -99.652500  -27.305400  -59.820000
  H    -91.285300  -27.708900  -61.035000

 Total Charge           Charge          ....    0
 Multiplicity           Mult            ....    1
 Number of Electrons    NEL             ....  134
 Basis Dimension        Dim             ....  322

ORBITAL ENERGIES
----------------

  NO   OCC          E(Eh)            E(eV)
   0   2.0000     -88.967082     -2420.9174
   1   2.0000     -88.962176     -2420.7839
   2   2.0000     -10.332178      -281.1529
   3   2.0000     -10.328038      -281.0402
   4   2.0000     -10.321869      -280.8723
   5   2.0000     -10.309150      -280.5262
   6   2.0000     -10.308226      -280.5011
   7   2.0000     -10.306815      -280.4627
   8   2.0000     -10.301553      -280.3195
   9   2.0000     -10.300802      -280.2991
  10   2.0000     -10.297217      -280.2015
  11   2.0000     -10.288341      -279.9600
  12   2.0000     -10.284653      -279.8596
  13   2.0000     -10.284119      -279.8451
  14   2.0000     -10.282889      -279.8116
  15   2.0000     -10.273387      -279.5531
  16   2.0000      -8.081938      -219.9207
  17   2.0000      -8.076216      -219.7650
  18   2.0000      -6.040523      -164.3710
  19   2.0000      -6.036316      -164.2565
  20   2.0000      -6.034889      -164.2177
  21   2.0000      -6.032728      -164.1589
  22   2.0000      -6.030841      -164.1075
  23   2.0000      -6.026830      -163.9984
  24   2.0000      -1.001089       -27.2410
  25   2.0000      -0.978349       -26.6222
  26   2.0000      -0.907281       -24.6884
  27   2.0000      -0.904573       -24.6147
  28   2.0000      -0.867797       -23.6139
  29   2.0000      -0.843439       -22.9512
  30   2.0000      -0.840283       -22.8652
  31   2.0000      -0.815734       -22.1972
  32   2.0000      -0.783192       -21.3117
  33   2.0000      -0.769878       -20.9494
  34   2.0000      -0.707901       -19.2630
  35   2.0000      -0.704539       -19.1715
  36   2.0000      -0.694088       -18.8871
  37   2.0000      -0.651313       -17.7231
  38   2.0000      -0.640711       -17.4346
  39   2.0000      -0.615177       -16.7398
  40   2.0000      -0.594819       -16.1858
  41   2.0000      -0.573159       -15.5964
  42   2.0000      -0.566517       -15.4157
  43   2.0000      -0.541542       -14.7361
  44   2.0000      -0.534515       -14.5449
  45   2.0000      -0.528010       -14.3679
  46   2.0000      -0.514663       -14.0047
  47   2.0000      -0.509827       -13.8731
  48   2.0000      -0.506536       -13.7835
  49   2.0000      -0.491926       -13.3860
  50   2.0000      -0.485248       -13.2043
  51   2.0000      -0.476575       -12.9683
  52   2.0000      -0.468327       -12.7438
  53   2.0000      -0.465827       -12.6758
  54   2.0000      -0.458362       -12.4727
  55   2.0000      -0.448576       -12.2064
  56   2.0000      -0.441213       -12.0060
  57   2.0000      -0.435002       -11.8370
  58   2.0000      -0.430641       -11.7183
  59   2.0000      -0.426316       -11.6007
  60   2.0000      -0.424375       -11.5478
  61   2.0000      -0.419559       -11.4168
  62   2.0000      -0.409775       -11.1506
  63   2.0000      -0.335618        -9.1326
  64   2.0000      -0.328776        -8.9464
  65   2.0000      -0.323739        -8.8094
  66   2.0000      -0.308226        -8.3873
  67   0.0000       0.043030         1.1709
  68   0.0000       0.059999         1.6327
  69   0.0000       0.111453         3.0328
  70   0.0000       0.123539         3.3617
  71   0.0000       0.127849         3.4789

MULLIKEN ATOMIC CHARGES
-----------------------
   0 S :    0.118677
   1 C :   -0.082624
   2 C :   -0.077695
   3 C :    0.042100
   4 C :   -0.194485
   5 H :    0.018616
   6 C :    0.047530
   7 H :    0.036524
   8 H :    0.028108
   9 C :   -0.051702
  10 H :    0.016268
  11 H :    0.005570
  12 C :   -0.079656
  13 H :    0.048469
  14 H :    0.039790
  15 H :    0.049006
  16 S :    0.094531
  17 C :   -0.110071
  18 C :   -0.024501
  19 C :   -0.006359
  20 C :   -0.162816
  21 H :    0.016248
  22 C :    0.073317
  23 H :    0.022647
  24 H :    0.046099
  25 C :   -0.084937
  26 H :    0.032546
  27 H :    0.027532
  28 C :   -0.045565
  29 H :    0.021430
  30 H :    0.024569
  31 H :    0.032875
  32 H :    0.008797
  33 H :    0.069160
Sum of atomic charges:   -0.0000000

LOEWDIN ATOMIC CHARGES
----------------------
   0 S :    0.418703
   1 C :   -0.184300
   2 C :   -0.061452
   3 C :   -0.060339
   4 C :   -0.209520
   5 H :    0.030027
   6 C :   -0.035603
   7 H :    0.038136
   8 H :    0.033522
   9 C :   -0.035690
  10 H :    0.021957
  11 H :    0.012215
  12 C :   -0.070283
  13 H :    0.027034
  14 H :    0.032992
  15 H :    0.029857
  16 S :    0.377180
  17 C :   -0.172394
  18 C :   -0.071825
  19 C :   -0.047052
  20 C :   -0.201904
  21 H :    0.028704
  22 C :   -0.032761
  23 H :    0.025924
  24 H :    0.041375
  25 C :   -0.037799
  26 H :    0.026969
  27 H :    0.020986
  28 C :   -0.065625
  29 H :    0.026469
  30 H :    0.017492
  31 H :    0.026436
  32 H :    0.012701
  33 H :    0.037871

  Mayer bond orders larger than 0.100000
B(  0-S ,  1-C ) :   1.1337 B(  0-S ,  4-C ) :   1.1563 B(  1-C ,  2-C ) :   1.6384
B(  1-C , 32-H ) :   0.9732 B(  2-C ,  3-C ) :   1.2005 B(  2-C ,  6-C ) :   1.0278
B(  3-C ,  4-C ) :   1.6113 B(  3-C ,  5-H ) :   0.9879 B(  4-C , 20-C ) :   0.9922
B(  6-C ,  7-H ) :   0.9349 B(  6-C ,  8-H ) :   0.9482 B(  6-C ,  9-C ) :   1.0727
B(  9-C , 10-H ) :   0.9539 B(  9-C , 11-H ) :   0.9585 B(  9-C , 12-C ) :   1.0566
B( 12-C , 13-H ) :   0.9791 B( 12-C , 14-H ) :   0.9777 B( 12-C , 15-H ) :   0.9768
B( 16-S , 17-C ) :   1.1350 B( 16-S , 20-C ) :   1.1312 B( 17-C , 18-C ) :   1.6671
B( 17-C , 33-H ) :   0.9602 B( 18-C , 19-C ) :   1.1759 B( 18-C , 21-H ) :   0.9904
B( 19-C , 20-C ) :   1.6289 B( 19-C , 22-C ) :   1.0488 B( 22-C , 23-H ) :   0.9382
B( 22-C , 24-H ) :   0.9272 B( 22-C , 25-C ) :   1.0616 B( 25-C , 26-H ) :   0.9571
B( 25-C , 27-H ) :   0.9537 B( 25-C , 28-C ) :   1.0930 B( 28-C , 29-H ) :   0.9726
B( 28-C , 30-H ) :   0.9757 B( 28-C , 31-H ) :   0.9744

Dispersion correction           -0.013978465
FINAL SINGLE POINT ENERGY     -1339.875096641926

DIPOLE MOMENT
-------------
                                X             Y             Z
Electronic contribution:      6.79248     -11.43115      -6.09084
Nuclear contribution   :     -6.79664      11.79670       6.30434
                        -----------------------------------------
Total Dipole Moment    :     -0.00416       0.36555       0.21350
                        -----------------------------------------
Magnitude (a.u.)       :      0.42335
Magnitude (Debye)      :      1.07608

Rotational constants in cm-1:     0.020866     0.007576     0.006306
Rotational constants in MHz :   625.550524   227.108189   189.055862

                             ****ORCA TERMINATED NORMALLY****
TOTAL RUN TIME: 0 days 0 hours 0 minutes 20 seconds 779 msec
