                         Program Version 4.2.1 -  RELEASE  -
|  1> ! wB97X-D3 SP def2-SVP
|  2> %pal
|  3> nprocs 24
|  4> end
|  5>
|  6> * xyz 0 1
|  7> S 	 -118.362 	 60.6019 	 -36.068
|  8> C 	 -119.659 	 61.658 	 -36.3635
|  9> C 	 -120.751 	 61.2626 	 -35.6682
| 10> C 	 -120.641 	 59.9622 	 -35.0357
| 11> C 	 -119.321 	 59.4705 	 -35.1418
| 12> H 	 -121.329 	 59.4541 	 -34.3659
| 13> C 	 -122.014 	 62.0815 	 -35.6507
| 14> H 	 -121.584 	 63.126 	 -35.7707
| 15> H 	 -122.42 	 61.9657 	 -34.6614
| 16> C 	 -122.983 	 61.7603 	 -36.7468
| 17> H 	 -123.746 	 62.5072 	 -36.7042
| 18> H 	 -122.613 	 61.8244 	 -37.7901
| 19> C 	 -123.641 	 60.3719 	 -36.6586
| 20> H 	 -124.034 	 60.0853 	 -35.7181
| 21> H 	 -124.428 	 60.421 	 -37.4041
| 22> H 	 -122.917 	 59.5553 	 -36.8867
| 23> S 	 -117.633 	 58.6551 	 -33.1428
| 24> C 	 -117.497 	 56.9273 	 -32.725
| 25> C 	 -118.424 	 56.1839 	 -33.3997
| 26> C 	 -119.149 	 57.0062 	 -34.4046
| 27> C 	 -118.778 	 58.3675 	 -34.3932
| 28> H 	 -118.475 	 55.092 	 -33.2548
| 29> C 	 -120.191 	 56.4953 	 -35.3994
| 30> H 	 -120.603 	 57.2826 	 -36.0685
| 31> H 	 -121.1 	 56.4141 	 -34.8256
| 32> C 	 -119.905 	 55.1802 	 -36.207
| 33> H 	 -120.66 	 54.8982 	 -36.9276
| 34> H 	 -119.948 	 54.3222 	 -35.6082
| 35> C 	 -118.535 	 55.142 	 -36.9205
| 36> H 	 -118.363 	 55.9835 	 -37.641
| 37> H 	 -118.393 	 54.1056 	 -37.4068
| 38> H 	 -117.731 	 55.0529 	 -36.2077
| 39> H 	 -119.63 	 62.6092 	 -36.9599
| 40> H 	 -116.747 	 56.5237 	 -32.0857
| 41> *
| 42>
| 43>                          ****END OF INPUT****

CARTESIAN COORDINATES (ANGSTROEM)
---------------------------------
  S    -118.362000   60.601900  -36.068000
  C    -119.659000   61.658000  -36.363500
  C    -120.751000   61.262600  -35.668200
  C    -120.641000   59.962200  -35.035700
  C    -119.321000   59.470500  -35.141800
  H    -121.329000   59.454100  -34.365900
  C    -122.014000   62.081500  -35.650700
  H    -121.584000   63.126000  -35.770700
  H    -122.420000   61.965700  -34.661400
  C    -122.983000   61.760300  -36.746800
  H    -123.746000   62.507200  -36.704200
  H    -122.613000   61.824400  -37.790100
  C    -123.641000   60.371900  -36.658600
  H    -124.034000   60.085300  -35.718100
  H    -124.428000   60.421000  -37.404100
  H    -122.917000   59.555300  -36.886700
  S    -117.633000   58.655100  -33.142800
  C    -117.497000   56.927300  -32.725000
  C    -118.424000   56.183900  -33.399700
  C    -119.149000   57.006200  -34.404600
  C    -118.778000   58.367500  -34.393200
  H    -118.475000   55.092000  -33.254800
  C    -120.191000   56.495300  -35.399400
  H    -120.603000   57.282600  -36.068500
  H    -121.100000   56.414100  -34.825600
  C    -119.905000   55.180200  -36.207000
  H    -120.660000   54.898200  -36.927600
  H    -119.948000   54.322200  -35.608200
  C    -118.535000   55.142000  -36.920500
  H    -118.363000   55.983500  -37.641000
  H    -118.393000   54.105600  -37.406800
  H    -117.731000   55.052900  -36.207700
  H    -119.630000   62.609200  -36.959900
  H    -116.747000   56.523700  -32.085700

 Total Charge           Charge          ....    0
 Multiplicity           Mult            ....    1
 Number of Electrons    NEL             ....  134
 Basis Dimension        Dim             ....  322

ORBITAL ENERGIES
----------------

  NO   OCC          E(Eh)            E(eV)
   0   2.0000     -88.965671     -2420.8790
   1   2.0000     -88.961908     -2420.7766
   2   2.0000     -10.330882      -281.1176
   3   2.0000     -10.324848      -280.9534
   4   2.0000     -10.318445      -280.7792
   5   2.0000     -10.312158      -280.6081
   6   2.0000     -10.312071      -280.6057
   7   2.0000     -10.303433      -280.3707
   8   2.0000     -10.300514      -280.2912
   9   2.0000     -10.296310      -280.1768
  10   2.0000     -10.292203      -280.0651
  11   2.0000     -10.290339      -280.0144
  12   2.0000     -10.284942      -279.8675
  13   2.0000     -10.282796      -279.8091
  14   2.0000     -10.279737      -279.7259
  15   2.0000     -10.275524      -279.6112
  16   2.0000      -8.081274      -219.9026
  17   2.0000      -8.076895      -219.7835
  18   2.0000      -6.039707      -164.3488
  19   2.0000      -6.035479      -164.2337
  20   2.0000      -6.035473      -164.2336
  21   2.0000      -6.032226      -164.1452
  22   2.0000      -6.031351      -164.1214
  23   2.0000      -6.027548      -164.0179
  24   2.0000      -1.008834       -27.4518
  25   2.0000      -0.983861       -26.7722
  26   2.0000      -0.916296       -24.9337
  27   2.0000      -0.897230       -24.4149
  28   2.0000      -0.875595       -23.8262
  29   2.0000      -0.847263       -23.0552
  30   2.0000      -0.839080       -22.8325
  31   2.0000      -0.819734       -22.3061
  32   2.0000      -0.782318       -21.2879
  33   2.0000      -0.767954       -20.8971
  34   2.0000      -0.707729       -19.2583
  35   2.0000      -0.701699       -19.0942
  36   2.0000      -0.696785       -18.9605
  37   2.0000      -0.655308       -17.8318
  38   2.0000      -0.641907       -17.4672
  39   2.0000      -0.609112       -16.5748
  40   2.0000      -0.591886       -16.1060
  41   2.0000      -0.577191       -15.7062
  42   2.0000      -0.552744       -15.0409
  43   2.0000      -0.547240       -14.8912
  44   2.0000      -0.542391       -14.7592
  45   2.0000      -0.530199       -14.4275
  46   2.0000      -0.523122       -14.2349
  47   2.0000      -0.515516       -14.0279
  48   2.0000      -0.510634       -13.8951
  49   2.0000      -0.485956       -13.2235
  50   2.0000      -0.485002       -13.1976
  51   2.0000      -0.484292       -13.1783
  52   2.0000      -0.471474       -12.8295
  53   2.0000      -0.467647       -12.7253
  54   2.0000      -0.459580       -12.5058
  55   2.0000      -0.445049       -12.1104
  56   2.0000      -0.440598       -11.9893
  57   2.0000      -0.434209       -11.8154
  58   2.0000      -0.429861       -11.6971
  59   2.0000      -0.421231       -11.4623
  60   2.0000      -0.413285       -11.2461
  61   2.0000      -0.412705       -11.2303
  62   2.0000      -0.408551       -11.1172
  63   2.0000      -0.347641        -9.4598
  64   2.0000      -0.327466        -8.9108
  65   2.0000      -0.324078        -8.8186
  66   2.0000      -0.297407        -8.0928
  67   0.0000       0.032888         0.8949
  68   0.0000       0.070825         1.9272
  69   0.0000       0.116360         3.1663
  70   0.0000       0.119142         3.2420
  71   0.0000       0.134074         3.6483

MULLIKEN ATOMIC CHARGES
-----------------------
   0 S :    0.126288
   1 C :   -0.128317
   2 C :   -0.124308
   3 C :    0.043754
   4 C :   -0.181046
   5 H :    0.023012
   6 C :    0.068211
   7 H :    0.027071
   8 H :    0.024774
   9 C :   -0.040663
  10 H :    0.020594
  11 H :    0.027805
  12 C :   -0.055833
  13 H :    0.015425
  14 H :    0.033973
  15 H :    0.043417
  16 S :    0.103011
  17 C :   -0.094409
  18 C :   -0.022219
  19 C :   -0.055259
  20 C :   -0.149206
  21 H :    0.037123
  22 C :    0.057301
  23 H :    0.031762
  24 H :    0.023187
  25 C :   -0.032076
  26 H :    0.021479
  27 H :    0.003095
  28 C :   -0.081807
  29 H :    0.055347
  30 H :    0.030057
  31 H :    0.025932
  32 H :    0.069232
  33 H :    0.053295
Sum of atomic charges:   -0.0000000

LOEWDIN ATOMIC CHARGES
----------------------
   0 S :    0.433116
   1 C :   -0.222583
   2 C :   -0.071304
   3 C :   -0.058182
   4 C :   -0.200695
   5 H :    0.033438
   6 C :   -0.034614
   7 H :    0.037296
   8 H :    0.029261
   9 C :   -0.039995
  10 H :    0.019620
  11 H :    0.030523
  12 C :   -0.063235
  13 H :    0.013869
  14 H :    0.028162
  15 H :    0.029455
  16 S :    0.400005
  17 C :   -0.169849
  18 C :   -0.071519
  19 C :   -0.050007
  20 C :   -0.216634
  21 H :    0.038819
  22 C :   -0.044570
  23 H :    0.037189
  24 H :    0.032359
  25 C :   -0.043070
  26 H :    0.026646
  27 H :    0.014346
  28 C :   -0.074210
  29 H :    0.031630
  30 H :    0.033853
  31 H :    0.019728
  32 H :    0.044893
  33 H :    0.026258

  Mayer bond orders larger than 0.100000
B(  0-S ,  1-C ) :   1.1443 B(  0-S ,  4-C ) :   1.1704 B(  1-C ,  2-C ) :   1.6170
B(  1-C , 32-H ) :   0.9586 B(  2-C ,  3-C ) :   1.2436 B(  2-C ,  6-C ) :   1.0171
B(  3-C ,  4-C ) :   1.5350 B(  3-C ,  5-H ) :   0.9915 B(  4-C , 20-C ) :   1.0537
B(  6-C ,  7-H ) :   0.9385 B(  6-C ,  8-H ) :   0.9385 B(  6-C ,  9-C ) :   1.0813
B(  9-C , 10-H ) :   0.9540 B(  9-C , 11-H ) :   0.9525 B(  9-C , 12-C ) :   1.0781
B( 12-C , 13-H ) :   0.9763 B( 12-C , 14-H ) :   0.9737 B( 12-C , 15-H ) :   0.9719
B( 16-S , 17-C ) :   1.1414 B( 16-S , 20-C ) :   1.1384 B( 17-C , 18-C ) :   1.6336
B( 17-C , 33-H ) :   0.9717 B( 18-C , 19-C ) :   1.2067 B( 18-C , 21-H ) :   0.9859
B( 19-C , 20-C ) :   1.5994 B( 19-C , 22-C ) :   1.0439 B( 22-C , 23-H ) :   0.9327
B( 22-C , 24-H ) :   0.9289 B( 22-C , 25-C ) :   1.0578 B( 25-C , 26-H ) :   0.9555
B( 25-C , 27-H ) :   0.9504 B( 25-C , 28-C ) :   1.0842 B( 28-C , 29-H ) :   0.9775
B( 28-C , 30-H ) :   0.9708 B( 28-C , 31-H ) :   0.9713

Dispersion correction           -0.014952717
FINAL SINGLE POINT ENERGY     -1339.871512236158

DIPOLE MOMENT
-------------
                                X             Y             Z
Electronic contribution:     19.79384       8.64275      12.05292
Nuclear contribution   :    -20.35680      -8.79116     -12.09432
                        -----------------------------------------
Total Dipole Moment    :     -0.56296      -0.14841      -0.04139
                        -----------------------------------------
Magnitude (a.u.)       :      0.58366
Magnitude (Debye)      :      1.48355

Rotational constants in cm-1:     0.019417     0.008730     0.007204
Rotational constants in MHz :   582.101079   261.728026   215.983944

                             ****ORCA TERMINATED NORMALLY****
TOTAL RUN TIME: 0 days 0 hours 0 minutes 21 seconds 905 msec
