                         Program Version 4.2.1 -  RELEASE  -
|  1> ! wB97X-D3 SP def2-SVP
|  2> %pal
|  3> nprocs 24
|  4> end
|  5>
|  6> * xyz 0 1
|  7> S 	 -109.532 	 63.8697 	 -15.2706
|  8> C 	 -110.469 	 64.7971 	 -14.1219
|  9> C 	 -109.849 	 64.988 	 -12.8843
| 10> C 	 -108.584 	 64.4266 	 -12.8975
| 11> C 	 -108.292 	 63.6686 	 -14.0639
| 12> H 	 -107.941 	 64.3427 	 -12.0897
| 13> C 	 -110.359 	 65.786 	 -11.6435
| 14> H 	 -110.686 	 65.0724 	 -10.8222
| 15> H 	 -111.293 	 66.3145 	 -11.9771
| 16> C 	 -109.358 	 66.7867 	 -11.044
| 17> H 	 -108.339 	 66.3757 	 -10.6965
| 18> H 	 -109.154 	 67.3803 	 -11.9251
| 19> C 	 -110.113 	 67.5475 	 -9.8914
| 20> H 	 -111.029 	 68.0591 	 -10.2361
| 21> H 	 -110.196 	 67.0076 	 -8.95562
| 22> H 	 -109.438 	 68.3703 	 -9.6982
| 23> S 	 -105.613 	 62.8419 	 -14.8917
| 24> C 	 -105.231 	 61.1724 	 -14.8743
| 25> C 	 -106.214 	 60.4276 	 -14.261
| 26> C 	 -107.374 	 61.1695 	 -13.8394
| 27> C 	 -107.237 	 62.5725 	 -14.1224
| 28> H 	 -106.111 	 59.3845 	 -14.2254
| 29> C 	 -108.602 	 60.4704 	 -13.1597
| 30> H 	 -108.59 	 59.4204 	 -13.2911
| 31> H 	 -109.505 	 60.9083 	 -13.6961
| 32> C 	 -108.861 	 60.833 	 -11.6694
| 33> H 	 -109.545 	 60.1163 	 -11.3438
| 34> H 	 -109.317 	 61.8422 	 -11.6026
| 35> C 	 -107.593 	 60.695 	 -10.7198
| 36> H 	 -107.868 	 60.7025 	 -9.65983
| 37> H 	 -106.938 	 61.5227 	 -10.9207
| 38> H 	 -107.072 	 59.8137 	 -10.8278
| 39> H 	 -111.477 	 65.1283 	 -14.3368
| 40> H 	 -104.289 	 60.6756 	 -15.1988
| 41> *
| 42>
| 43>                          ****END OF INPUT****

CARTESIAN COORDINATES (ANGSTROEM)
---------------------------------
  S    -109.532000   63.869700  -15.270600
  C    -110.469000   64.797100  -14.121900
  C    -109.849000   64.988000  -12.884300
  C    -108.584000   64.426600  -12.897500
  C    -108.292000   63.668600  -14.063900
  H    -107.941000   64.342700  -12.089700
  C    -110.359000   65.786000  -11.643500
  H    -110.686000   65.072400  -10.822200
  H    -111.293000   66.314500  -11.977100
  C    -109.358000   66.786700  -11.044000
  H    -108.339000   66.375700  -10.696500
  H    -109.154000   67.380300  -11.925100
  C    -110.113000   67.547500   -9.891400
  H    -111.029000   68.059100  -10.236100
  H    -110.196000   67.007600   -8.955620
  H    -109.438000   68.370300   -9.698200
  S    -105.613000   62.841900  -14.891700
  C    -105.231000   61.172400  -14.874300
  C    -106.214000   60.427600  -14.261000
  C    -107.374000   61.169500  -13.839400
  C    -107.237000   62.572500  -14.122400
  H    -106.111000   59.384500  -14.225400
  C    -108.602000   60.470400  -13.159700
  H    -108.590000   59.420400  -13.291100
  H    -109.505000   60.908300  -13.696100
  C    -108.861000   60.833000  -11.669400
  H    -109.545000   60.116300  -11.343800
  H    -109.317000   61.842200  -11.602600
  C    -107.593000   60.695000  -10.719800
  H    -107.868000   60.702500   -9.659830
  H    -106.938000   61.522700  -10.920700
  H    -107.072000   59.813700  -10.827800
  H    -111.477000   65.128300  -14.336800
  H    -104.289000   60.675600  -15.198800

 Total Charge           Charge          ....    0
 Multiplicity           Mult            ....    1
 Number of Electrons    NEL             ....  134
 Basis Dimension        Dim             ....  322

ORBITAL ENERGIES
----------------

  NO   OCC          E(Eh)            E(eV)
   0   2.0000     -88.973619     -2421.0953
   1   2.0000     -88.964619     -2420.8504
   2   2.0000     -10.335835      -281.2524
   3   2.0000     -10.333368      -281.1852
   4   2.0000     -10.317088      -280.7422
   5   2.0000     -10.316677      -280.7311
   6   2.0000     -10.312662      -280.6218
   7   2.0000     -10.304256      -280.3931
   8   2.0000     -10.301519      -280.3186
   9   2.0000     -10.298722      -280.2425
  10   2.0000     -10.295519      -280.1553
  11   2.0000     -10.288770      -279.9717
  12   2.0000     -10.287081      -279.9257
  13   2.0000     -10.284301      -279.8501
  14   2.0000     -10.283756      -279.8352
  15   2.0000     -10.267035      -279.3802
  16   2.0000      -8.087865      -220.0820
  17   2.0000      -8.078715      -219.8330
  18   2.0000      -6.046100      -164.5228
  19   2.0000      -6.042383      -164.4216
  20   2.0000      -6.039003      -164.3296
  21   2.0000      -6.037206      -164.2807
  22   2.0000      -6.033167      -164.1708
  23   2.0000      -6.029680      -164.0759
  24   2.0000      -0.998474       -27.1698
  25   2.0000      -0.978283       -26.6204
  26   2.0000      -0.907370       -24.6908
  27   2.0000      -0.896199       -24.3868
  28   2.0000      -0.857927       -23.3454
  29   2.0000      -0.850181       -23.1346
  30   2.0000      -0.838853       -22.8264
  31   2.0000      -0.806414       -21.9436
  32   2.0000      -0.782647       -21.2969
  33   2.0000      -0.772007       -21.0074
  34   2.0000      -0.707027       -19.2392
  35   2.0000      -0.695556       -18.9270
  36   2.0000      -0.682160       -18.5625
  37   2.0000      -0.650885       -17.7115
  38   2.0000      -0.644730       -17.5440
  39   2.0000      -0.618335       -16.8258
  40   2.0000      -0.584395       -15.9022
  41   2.0000      -0.570241       -15.5170
  42   2.0000      -0.563340       -15.3293
  43   2.0000      -0.552461       -15.0332
  44   2.0000      -0.531718       -14.4688
  45   2.0000      -0.516020       -14.0416
  46   2.0000      -0.509931       -13.8759
  47   2.0000      -0.506390       -13.7796
  48   2.0000      -0.500964       -13.6319
  49   2.0000      -0.491694       -13.3797
  50   2.0000      -0.481817       -13.1109
  51   2.0000      -0.476270       -12.9600
  52   2.0000      -0.470999       -12.8165
  53   2.0000      -0.469905       -12.7868
  54   2.0000      -0.463920       -12.6239
  55   2.0000      -0.448911       -12.2155
  56   2.0000      -0.440794       -11.9946
  57   2.0000      -0.438113       -11.9217
  58   2.0000      -0.429884       -11.6977
  59   2.0000      -0.428408       -11.6576
  60   2.0000      -0.422313       -11.4917
  61   2.0000      -0.413828       -11.2608
  62   2.0000      -0.409439       -11.1414
  63   2.0000      -0.339092        -9.2272
  64   2.0000      -0.328174        -8.9301
  65   2.0000      -0.311707        -8.4820
  66   2.0000      -0.308941        -8.4067
  67   0.0000       0.039721         1.0809
  68   0.0000       0.045973         1.2510
  69   0.0000       0.119678         3.2566
  70   0.0000       0.124360         3.3840
  71   0.0000       0.127537         3.4705

MULLIKEN ATOMIC CHARGES
-----------------------
   0 S :    0.140832
   1 C :   -0.140571
   2 C :   -0.059285
   3 C :    0.063021
   4 C :   -0.172213
   5 H :   -0.013584
   6 C :    0.036311
   7 H :    0.045655
   8 H :    0.027634
   9 C :   -0.129029
  10 H :    0.056545
  11 H :    0.039316
  12 C :   -0.037250
  13 H :    0.039067
  14 H :    0.048116
  15 H :    0.025982
  16 S :    0.105277
  17 C :   -0.101070
  18 C :   -0.031795
  19 C :   -0.028926
  20 C :   -0.195790
  21 H :   -0.000726
  22 C :    0.074554
  23 H :    0.014597
  24 H :    0.043891
  25 C :   -0.069018
  26 H :    0.017964
  27 H :    0.045778
  28 C :   -0.034012
  29 H :    0.027945
  30 H :    0.037815
  31 H :    0.009006
  32 H :    0.042926
  33 H :    0.071037
Sum of atomic charges:   -0.0000000

LOEWDIN ATOMIC CHARGES
----------------------
   0 S :    0.429439
   1 C :   -0.198310
   2 C :   -0.070828
   3 C :   -0.047097
   4 C :   -0.206429
   5 H :    0.018447
   6 C :   -0.036797
   7 H :    0.034115
   8 H :    0.032233
   9 C :   -0.046719
  10 H :    0.034618
  11 H :    0.026385
  12 C :   -0.065875
  13 H :    0.030703
  14 H :    0.028399
  15 H :    0.027302
  16 S :    0.397809
  17 C :   -0.201930
  18 C :   -0.081232
  19 C :   -0.040244
  20 C :   -0.202323
  21 H :    0.021280
  22 C :   -0.027953
  23 H :    0.021102
  24 H :    0.043270
  25 C :   -0.030910
  26 H :    0.015435
  27 H :    0.028873
  28 C :   -0.061580
  29 H :    0.026955
  30 H :    0.024212
  31 H :    0.011984
  32 H :    0.023280
  33 H :    0.042385

  Mayer bond orders larger than 0.100000
B(  0-S ,  1-C ) :   1.1660 B(  0-S ,  4-C ) :   1.1720 B(  1-C ,  2-C ) :   1.5764
B(  1-C ,  4-C ) :   0.1017 B(  1-C , 32-H ) :   0.9640 B(  2-C ,  3-C ) :   1.2868
B(  2-C ,  6-C ) :   1.0055 B(  3-C ,  4-C ) :   1.5419 B(  3-C ,  5-H ) :   0.9978
B(  4-C , 20-C ) :   1.0127 B(  6-C ,  7-H ) :   0.9385 B(  6-C ,  8-H ) :   0.9477
B(  6-C ,  9-C ) :   1.0533 B(  9-C , 10-H ) :   0.9506 B(  9-C , 11-H ) :   0.9598
B(  9-C , 12-C ) :   1.0758 B( 12-C , 13-H ) :   0.9732 B( 12-C , 14-H ) :   0.9759
B( 12-C , 15-H ) :   0.9732 B( 16-S , 17-C ) :   1.1752 B( 16-S , 20-C ) :   1.1334
B( 17-C , 18-C ) :   1.5992 B( 17-C , 33-H ) :   0.9577 B( 18-C , 19-C ) :   1.2611
B( 18-C , 21-H ) :   0.9948 B( 19-C , 20-C ) :   1.5649 B( 19-C , 22-C ) :   1.0304
B( 22-C , 23-H ) :   0.9433 B( 22-C , 24-H ) :   0.9314 B( 22-C , 25-C ) :   1.0753
B( 25-C , 26-H ) :   0.9572 B( 25-C , 27-H ) :   0.9571 B( 25-C , 28-C ) :   1.0719
B( 28-C , 29-H ) :   0.9766 B( 28-C , 30-H ) :   0.9746 B( 28-C , 31-H ) :   0.9772

Dispersion correction           -0.015325500
FINAL SINGLE POINT ENERGY     -1339.859553901607

DIPOLE MOMENT
-------------
                                X             Y             Z
Electronic contribution:      9.45321      -3.22106     -25.85444
Nuclear contribution   :     -9.78594       3.09338      26.40408
                        -----------------------------------------
Total Dipole Moment    :     -0.33274      -0.12768       0.54964
                        -----------------------------------------
Magnitude (a.u.)       :      0.65508
Magnitude (Debye)      :      1.66507

Rotational constants in cm-1:     0.019204     0.008132     0.007250
Rotational constants in MHz :   575.706983   243.785812   217.352398

                             ****ORCA TERMINATED NORMALLY****
TOTAL RUN TIME: 0 days 0 hours 0 minutes 22 seconds 65 msec
