                         Program Version 4.2.1 -  RELEASE  -
|  1> ! wB97X-D3 SP def2-SVP
|  2> %pal
|  3> nprocs 24
|  4> end
|  5>
|  6> * xyz 0 1
|  7> S 	 43.3952 	 -18.6047 	 -110.679
|  8> C 	 43.4635 	 -17.7311 	 -109.179
|  9> C 	 43.4151 	 -18.6198 	 -108.063
| 10> C 	 43.625 	 -19.9772 	 -108.559
| 11> C 	 43.5025 	 -20.1491 	 -109.9
| 12> H 	 43.7118 	 -20.7958 	 -107.922
| 13> C 	 43.4063 	 -18.2054 	 -106.607
| 14> H 	 42.3869 	 -18.1499 	 -106.332
| 15> H 	 43.6409 	 -17.1608 	 -106.472
| 16> C 	 44.1319 	 -19.0839 	 -105.634
| 17> H 	 43.9051 	 -20.1208 	 -105.776
| 18> H 	 45.1399 	 -19.0072 	 -105.857
| 19> C 	 43.888 	 -18.7895 	 -104.125
| 20> H 	 42.8694 	 -18.5952 	 -103.796
| 21> H 	 44.3665 	 -19.5377 	 -103.371
| 22> H 	 44.2946 	 -17.8127 	 -103.956
| 23> S 	 44.7553 	 -21.5332 	 -111.918
| 24> C 	 44.2303 	 -23.1804 	 -112.262
| 25> C 	 43.2938 	 -23.6409 	 -111.355
| 26> C 	 42.979 	 -22.6514 	 -110.35
| 27> C 	 43.6248 	 -21.444 	 -110.575
| 28> H 	 42.8116 	 -24.5689 	 -111.526
| 29> C 	 41.7994 	 -22.9286 	 -109.425
| 30> H 	 41.1385 	 -23.7138 	 -109.954
| 31> H 	 41.0189 	 -22.232 	 -109.5
| 32> C 	 42.2044 	 -23.4001 	 -108.086
| 33> H 	 42.8603 	 -22.6385 	 -107.73
| 34> H 	 42.8411 	 -24.3345 	 -108.146
| 35> C 	 40.9933 	 -23.4647 	 -107.194
| 36> H 	 40.2602 	 -24.195 	 -107.581
| 37> H 	 40.4462 	 -22.5649 	 -107.063
| 38> H 	 41.2416 	 -23.6547 	 -106.168
| 39> H 	 43.3893 	 -16.6511 	 -109.133
| 40> H 	 44.6039 	 -23.7487 	 -113.123
| 41> *
| 42>
| 43>                          ****END OF INPUT****

CARTESIAN COORDINATES (ANGSTROEM)
---------------------------------
  S     43.395200  -18.604700  -110.679000
  C     43.463500  -17.731100  -109.179000
  C     43.415100  -18.619800  -108.063000
  C     43.625000  -19.977200  -108.559000
  C     43.502500  -20.149100  -109.900000
  H     43.711800  -20.795800  -107.922000
  C     43.406300  -18.205400  -106.607000
  H     42.386900  -18.149900  -106.332000
  H     43.640900  -17.160800  -106.472000
  C     44.131900  -19.083900  -105.634000
  H     43.905100  -20.120800  -105.776000
  H     45.139900  -19.007200  -105.857000
  C     43.888000  -18.789500  -104.125000
  H     42.869400  -18.595200  -103.796000
  H     44.366500  -19.537700  -103.371000
  H     44.294600  -17.812700  -103.956000
  S     44.755300  -21.533200  -111.918000
  C     44.230300  -23.180400  -112.262000
  C     43.293800  -23.640900  -111.355000
  C     42.979000  -22.651400  -110.350000
  C     43.624800  -21.444000  -110.575000
  H     42.811600  -24.568900  -111.526000
  C     41.799400  -22.928600  -109.425000
  H     41.138500  -23.713800  -109.954000
  H     41.018900  -22.232000  -109.500000
  C     42.204400  -23.400100  -108.086000
  H     42.860300  -22.638500  -107.730000
  H     42.841100  -24.334500  -108.146000
  C     40.993300  -23.464700  -107.194000
  H     40.260200  -24.195000  -107.581000
  H     40.446200  -22.564900  -107.063000
  H     41.241600  -23.654700  -106.168000
  H     43.389300  -16.651100  -109.133000
  H     44.603900  -23.748700  -113.123000

 Total Charge           Charge          ....    0
 Multiplicity           Mult            ....    1
 Number of Electrons    NEL             ....  134
 Basis Dimension        Dim             ....  322

ORBITAL ENERGIES
----------------

  NO   OCC          E(Eh)            E(eV)
   0   2.0000     -88.966606     -2420.9044
   1   2.0000     -88.965088     -2420.8631
   2   2.0000     -10.328983      -281.0659
   3   2.0000     -10.325231      -280.9638
   4   2.0000     -10.318122      -280.7704
   5   2.0000     -10.317848      -280.7629
   6   2.0000     -10.310295      -280.5574
   7   2.0000     -10.304307      -280.3944
   8   2.0000     -10.292903      -280.0841
   9   2.0000     -10.289258      -279.9849
  10   2.0000     -10.288361      -279.9605
  11   2.0000     -10.287531      -279.9379
  12   2.0000     -10.286861      -279.9197
  13   2.0000     -10.283837      -279.8374
  14   2.0000     -10.282148      -279.7915
  15   2.0000     -10.272675      -279.5337
  16   2.0000      -8.081684      -219.9138
  17   2.0000      -8.079626      -219.8578
  18   2.0000      -6.040241      -164.3633
  19   2.0000      -6.038097      -164.3050
  20   2.0000      -6.036058      -164.2495
  21   2.0000      -6.034174      -164.1982
  22   2.0000      -6.032453      -164.1514
  23   2.0000      -6.030442      -164.0967
  24   2.0000      -1.005735       -27.3674
  25   2.0000      -0.981576       -26.7101
  26   2.0000      -0.919698       -25.0263
  27   2.0000      -0.917407       -24.9639
  28   2.0000      -0.868608       -23.6360
  29   2.0000      -0.852232       -23.1904
  30   2.0000      -0.845416       -23.0049
  31   2.0000      -0.815862       -22.2007
  32   2.0000      -0.784067       -21.3355
  33   2.0000      -0.773074       -21.0364
  34   2.0000      -0.717745       -19.5308
  35   2.0000      -0.707487       -19.2517
  36   2.0000      -0.689500       -18.7622
  37   2.0000      -0.664398       -18.0792
  38   2.0000      -0.646219       -17.5845
  39   2.0000      -0.625428       -17.0188
  40   2.0000      -0.601891       -16.3783
  41   2.0000      -0.568111       -15.4591
  42   2.0000      -0.567008       -15.4291
  43   2.0000      -0.561421       -15.2770
  44   2.0000      -0.531350       -14.4588
  45   2.0000      -0.528252       -14.3745
  46   2.0000      -0.519419       -14.1341
  47   2.0000      -0.511728       -13.9248
  48   2.0000      -0.505425       -13.7533
  49   2.0000      -0.497977       -13.5506
  50   2.0000      -0.493682       -13.4338
  51   2.0000      -0.480656       -13.0793
  52   2.0000      -0.472800       -12.8655
  53   2.0000      -0.464316       -12.6347
  54   2.0000      -0.460093       -12.5198
  55   2.0000      -0.452742       -12.3197
  56   2.0000      -0.448730       -12.2106
  57   2.0000      -0.440289       -11.9809
  58   2.0000      -0.438944       -11.9443
  59   2.0000      -0.425000       -11.5648
  60   2.0000      -0.418262       -11.3815
  61   2.0000      -0.417438       -11.3591
  62   2.0000      -0.401032       -10.9126
  63   2.0000      -0.347682        -9.4609
  64   2.0000      -0.332538        -9.0488
  65   2.0000      -0.326121        -8.8742
  66   2.0000      -0.292700        -7.9648
  67   0.0000       0.030410         0.8275
  68   0.0000       0.074148         2.0177
  69   0.0000       0.113485         3.0881
  70   0.0000       0.122396         3.3306
  71   0.0000       0.127411         3.4670

MULLIKEN ATOMIC CHARGES
-----------------------
   0 S :    0.117488
   1 C :   -0.132544
   2 C :   -0.092940
   3 C :    0.036074
   4 C :   -0.112945
   5 H :   -0.027797
   6 C :    0.109247
   7 H :    0.015682
   8 H :    0.007063
   9 C :   -0.049981
  10 H :    0.028488
  11 H :    0.022380
  12 C :   -0.073619
  13 H :    0.025790
  14 H :    0.057733
  15 H :    0.016244
  16 S :    0.103491
  17 C :   -0.106664
  18 C :   -0.013692
  19 C :   -0.014373
  20 C :   -0.162231
  21 H :    0.013345
  22 C :    0.014195
  23 H :    0.010233
  24 H :    0.015457
  25 C :   -0.025348
  26 H :    0.002551
  27 H :    0.041565
  28 C :   -0.010644
  29 H :    0.028661
  30 H :    0.017502
  31 H :    0.021247
  32 H :    0.054142
  33 H :    0.064201
Sum of atomic charges:   -0.0000000

LOEWDIN ATOMIC CHARGES
----------------------
   0 S :    0.418173
   1 C :   -0.203460
   2 C :   -0.049017
   3 C :   -0.057819
   4 C :   -0.203873
   5 H :    0.013148
   6 C :   -0.033955
   7 H :    0.030751
   8 H :    0.030504
   9 C :   -0.034376
  10 H :    0.020876
  11 H :    0.019977
  12 C :   -0.073142
  13 H :    0.023149
  14 H :    0.041497
  15 H :    0.020447
  16 S :    0.394782
  17 C :   -0.182046
  18 C :   -0.064210
  19 C :   -0.053248
  20 C :   -0.188670
  21 H :    0.028224
  22 C :   -0.038536
  23 H :    0.035458
  24 H :    0.025103
  25 C :   -0.042083
  26 H :    0.016665
  27 H :    0.035747
  28 C :   -0.063294
  29 H :    0.028148
  30 H :    0.023505
  31 H :    0.023377
  32 H :    0.026533
  33 H :    0.031665

  Mayer bond orders larger than 0.100000
B(  0-S ,  1-C ) :   1.1541 B(  0-S ,  4-C ) :   1.1473 B(  1-C ,  2-C ) :   1.5787
B(  1-C , 32-H ) :   0.9697 B(  2-C ,  3-C ) :   1.2501 B(  2-C ,  6-C ) :   1.0278
B(  3-C ,  4-C ) :   1.5797 B(  3-C ,  5-H ) :   0.9972 B(  4-C , 20-C ) :   1.0363
B(  6-C ,  7-H ) :   0.9156 B(  6-C ,  8-H ) :   0.9367 B(  6-C ,  9-C ) :   1.0695
B(  9-C , 10-H ) :   0.9484 B(  9-C , 11-H ) :   0.9584 B(  9-C , 12-C ) :   1.0726
B( 12-C , 13-H ) :   0.9766 B( 12-C , 14-H ) :   0.9757 B( 12-C , 15-H ) :   0.9732
B( 16-S , 17-C ) :   1.1454 B( 16-S , 20-C ) :   1.1383 B( 17-C , 18-C ) :   1.6263
B( 17-C , 33-H ) :   0.9646 B( 18-C , 19-C ) :   1.2301 B( 18-C , 21-H ) :   0.9923
B( 19-C , 20-C ) :   1.6147 B( 19-C , 22-C ) :   1.0232 B( 22-C , 23-H ) :   0.9357
B( 22-C , 24-H ) :   0.9460 B( 22-C , 25-C ) :   1.0476 B( 25-C , 26-H ) :   0.9534
B( 25-C , 27-H ) :   0.9454 B( 25-C , 28-C ) :   1.0879 B( 28-C , 29-H ) :   0.9713
B( 28-C , 30-H ) :   0.9692 B( 28-C , 31-H ) :   0.9694

Dispersion correction           -0.014122974
FINAL SINGLE POINT ENERGY     -1339.861028653399

DIPOLE MOMENT
-------------
                                X             Y             Z
Electronic contribution:      9.08825       5.83554     -30.58337
Nuclear contribution   :     -9.43504      -5.94852      31.14437
                        -----------------------------------------
Total Dipole Moment    :     -0.34678      -0.11297       0.56100
                        -----------------------------------------
Magnitude (a.u.)       :      0.66914
Magnitude (Debye)      :      1.70081

Rotational constants in cm-1:     0.017002     0.009393     0.006754
Rotational constants in MHz :   509.716215   281.587793   202.472352

                             ****ORCA TERMINATED NORMALLY****
TOTAL RUN TIME: 0 days 0 hours 0 minutes 20 seconds 853 msec
