                         Program Version 4.2.1 -  RELEASE  -
|  1> ! wB97X-D3 SP def2-SVP
|  2> %pal
|  3> nprocs 24
|  4> end
|  5>
|  6> * xyz 0 1
|  7> S 	 -105.7 	 57.3946 	 -99.9302
|  8> C 	 -106.224 	 56.3996 	 -98.615
|  9> C 	 -107.015 	 57.0962 	 -97.7549
| 10> C 	 -107.391 	 58.3526 	 -98.2858
| 11> C 	 -106.872 	 58.6234 	 -99.4938
| 12> H 	 -107.946 	 59.0393 	 -97.7554
| 13> C 	 -107.448 	 56.565 	 -96.439
| 14> H 	 -107.503 	 57.4926 	 -95.7916
| 15> H 	 -106.66 	 55.8987 	 -96.1437
| 16> C 	 -108.782 	 55.8083 	 -96.5444
| 17> H 	 -109.486 	 56.581 	 -96.9056
| 18> H 	 -108.672 	 55.0368 	 -97.2611
| 19> C 	 -109.182 	 55.0319 	 -95.2955
| 20> H 	 -108.362 	 54.4774 	 -94.7471
| 21> H 	 -109.51 	 55.7633 	 -94.6106
| 22> H 	 -110.04 	 54.4856 	 -95.4506
| 23> S 	 -106.057 	 59.8939 	 -101.751
| 24> C 	 -106.356 	 61.61 	 -102.103
| 25> C 	 -107.17 	 62.0509 	 -101.139
| 26> C 	 -107.516 	 61.0831 	 -100.123
| 27> C 	 -106.919 	 59.8349 	 -100.289
| 28> H 	 -107.371 	 63.0793 	 -101.139
| 29> C 	 -108.447 	 61.417 	 -98.9119
| 30> H 	 -109.031 	 60.5507 	 -98.7819
| 31> H 	 -109.116 	 62.206 	 -99.1986
| 32> C 	 -107.718 	 61.6739 	 -97.5259
| 33> H 	 -107.202 	 62.6017 	 -97.5048
| 34> H 	 -106.905 	 60.9554 	 -97.4961
| 35> C 	 -108.572 	 61.6049 	 -96.2561
| 36> H 	 -109.408 	 62.2428 	 -96.3679
| 37> H 	 -107.962 	 62.0433 	 -95.4668
| 38> H 	 -108.861 	 60.5889 	 -95.9089
| 39> H 	 -105.917 	 55.3995 	 -98.3846
| 40> H 	 -105.982 	 62.193 	 -102.939
| 41> *
| 42>
| 43>                          ****END OF INPUT****

CARTESIAN COORDINATES (ANGSTROEM)
---------------------------------
  S    -105.700000   57.394600  -99.930200
  C    -106.224000   56.399600  -98.615000
  C    -107.015000   57.096200  -97.754900
  C    -107.391000   58.352600  -98.285800
  C    -106.872000   58.623400  -99.493800
  H    -107.946000   59.039300  -97.755400
  C    -107.448000   56.565000  -96.439000
  H    -107.503000   57.492600  -95.791600
  H    -106.660000   55.898700  -96.143700
  C    -108.782000   55.808300  -96.544400
  H    -109.486000   56.581000  -96.905600
  H    -108.672000   55.036800  -97.261100
  C    -109.182000   55.031900  -95.295500
  H    -108.362000   54.477400  -94.747100
  H    -109.510000   55.763300  -94.610600
  H    -110.040000   54.485600  -95.450600
  S    -106.057000   59.893900  -101.751000
  C    -106.356000   61.610000  -102.103000
  C    -107.170000   62.050900  -101.139000
  C    -107.516000   61.083100  -100.123000
  C    -106.919000   59.834900  -100.289000
  H    -107.371000   63.079300  -101.139000
  C    -108.447000   61.417000  -98.911900
  H    -109.031000   60.550700  -98.781900
  H    -109.116000   62.206000  -99.198600
  C    -107.718000   61.673900  -97.525900
  H    -107.202000   62.601700  -97.504800
  H    -106.905000   60.955400  -97.496100
  C    -108.572000   61.604900  -96.256100
  H    -109.408000   62.242800  -96.367900
  H    -107.962000   62.043300  -95.466800
  H    -108.861000   60.588900  -95.908900
  H    -105.917000   55.399500  -98.384600
  H    -105.982000   62.193000  -102.939000

 Total Charge           Charge          ....    0
 Multiplicity           Mult            ....    1
 Number of Electrons    NEL             ....  134
 Basis Dimension        Dim             ....  322

ORBITAL ENERGIES
----------------

  NO   OCC          E(Eh)            E(eV)
   0   2.0000     -88.964520     -2420.8477
   1   2.0000     -88.958607     -2420.6868
   2   2.0000     -10.329487      -281.0796
   3   2.0000     -10.326716      -281.0042
   4   2.0000     -10.315949      -280.7112
   5   2.0000     -10.306725      -280.4603
   6   2.0000     -10.305347      -280.4228
   7   2.0000     -10.292076      -280.0616
   8   2.0000     -10.291435      -280.0442
   9   2.0000     -10.290687      -280.0238
  10   2.0000     -10.288320      -279.9594
  11   2.0000     -10.285373      -279.8792
  12   2.0000     -10.285286      -279.8769
  13   2.0000     -10.284702      -279.8610
  14   2.0000     -10.280805      -279.7549
  15   2.0000     -10.272065      -279.5171
  16   2.0000      -8.079739      -219.8609
  17   2.0000      -8.074356      -219.7144
  18   2.0000      -6.038366      -164.3123
  19   2.0000      -6.034345      -164.2029
  20   2.0000      -6.033005      -164.1664
  21   2.0000      -6.030161      -164.0890
  22   2.0000      -6.028582      -164.0461
  23   2.0000      -6.025004      -163.9487
  24   2.0000      -1.017808       -27.6960
  25   2.0000      -0.992840       -27.0166
  26   2.0000      -0.919469       -25.0200
  27   2.0000      -0.902123       -24.5480
  28   2.0000      -0.879390       -23.9294
  29   2.0000      -0.856250       -23.2998
  30   2.0000      -0.845055       -22.9951
  31   2.0000      -0.830654       -22.6033
  32   2.0000      -0.783447       -21.3187
  33   2.0000      -0.772646       -21.0248
  34   2.0000      -0.713482       -19.4148
  35   2.0000      -0.703155       -19.1338
  36   2.0000      -0.699702       -19.0399
  37   2.0000      -0.667960       -18.1761
  38   2.0000      -0.641507       -17.4563
  39   2.0000      -0.633946       -17.2506
  40   2.0000      -0.591080       -16.0841
  41   2.0000      -0.575880       -15.6705
  42   2.0000      -0.570412       -15.5217
  43   2.0000      -0.561019       -15.2661
  44   2.0000      -0.533215       -14.5095
  45   2.0000      -0.526564       -14.3285
  46   2.0000      -0.523448       -14.2437
  47   2.0000      -0.517628       -14.0854
  48   2.0000      -0.510221       -13.8838
  49   2.0000      -0.506050       -13.7703
  50   2.0000      -0.498602       -13.5677
  51   2.0000      -0.491039       -13.3618
  52   2.0000      -0.475900       -12.9499
  53   2.0000      -0.470472       -12.8022
  54   2.0000      -0.459030       -12.4908
  55   2.0000      -0.448441       -12.2027
  56   2.0000      -0.444992       -12.1088
  57   2.0000      -0.438672       -11.9369
  58   2.0000      -0.431583       -11.7440
  59   2.0000      -0.430372       -11.7110
  60   2.0000      -0.426886       -11.6162
  61   2.0000      -0.414530       -11.2799
  62   2.0000      -0.401949       -10.9376
  63   2.0000      -0.368575       -10.0294
  64   2.0000      -0.335533        -9.1303
  65   2.0000      -0.321916        -8.7598
  66   2.0000      -0.285872        -7.7790
  67   0.0000       0.020303         0.5525
  68   0.0000       0.093429         2.5423
  69   0.0000       0.097952         2.6654
  70   0.0000       0.120694         3.2842
  71   0.0000       0.135006         3.6737

MULLIKEN ATOMIC CHARGES
-----------------------
   0 S :    0.100590
   1 C :   -0.096564
   2 C :   -0.107946
   3 C :    0.007920
   4 C :   -0.037839
   5 H :   -0.060866
   6 C :    0.066986
   7 H :    0.036628
   8 H :    0.012635
   9 C :   -0.072000
  10 H :    0.033331
  11 H :    0.017010
  12 C :    0.009251
  13 H :    0.043470
  14 H :    0.004488
  15 H :    0.019558
  16 S :    0.066098
  17 C :   -0.085934
  18 C :   -0.005223
  19 C :   -0.096774
  20 C :   -0.096400
  21 H :   -0.000319
  22 C :    0.085576
  23 H :    0.013197
  24 H :    0.016450
  25 C :   -0.073039
  26 H :    0.015163
  27 H :    0.025720
  28 C :   -0.031429
  29 H :    0.026530
  30 H :    0.032558
  31 H :    0.038392
  32 H :    0.030354
  33 H :    0.062428
Sum of atomic charges:   -0.0000000

LOEWDIN ATOMIC CHARGES
----------------------
   0 S :    0.406272
   1 C :   -0.194463
   2 C :   -0.063328
   3 C :   -0.060117
   4 C :   -0.172855
   5 H :    0.015406
   6 C :   -0.030343
   7 H :    0.037123
   8 H :    0.025679
   9 C :   -0.035136
  10 H :    0.030101
  11 H :    0.018273
  12 C :   -0.064024
  13 H :    0.036562
  14 H :    0.019748
  15 H :    0.017476
  16 S :    0.403420
  17 C :   -0.174745
  18 C :   -0.070633
  19 C :   -0.062745
  20 C :   -0.204972
  21 H :    0.025126
  22 C :   -0.026594
  23 H :    0.020711
  24 H :    0.025108
  25 C :   -0.041295
  26 H :    0.020706
  27 H :    0.022616
  28 C :   -0.062593
  29 H :    0.020559
  30 H :    0.031901
  31 H :    0.024150
  32 H :    0.024885
  33 H :    0.038020

  Mayer bond orders larger than 0.100000
B(  0-S ,  1-C ) :   1.1295 B(  0-S ,  4-C ) :   1.1378 B(  1-C ,  2-C ) :   1.6252
B(  1-C , 32-H ) :   0.9659 B(  2-C ,  3-C ) :   1.2414 B(  2-C ,  6-C ) :   1.0246
B(  3-C ,  4-C ) :   1.5621 B(  3-C ,  5-H ) :   1.0109 B(  4-C , 20-C ) :   1.0813
B(  6-C ,  7-H ) :   0.9366 B(  6-C ,  8-H ) :   0.9302 B(  6-C ,  9-C ) :   1.0704
B(  9-C , 10-H ) :   0.9552 B(  9-C , 11-H ) :   0.9580 B(  9-C , 12-C ) :   1.0794
B( 12-C , 13-H ) :   0.9718 B( 12-C , 14-H ) :   0.9673 B( 12-C , 15-H ) :   0.9710
B( 16-S , 17-C ) :   1.1337 B( 16-S , 20-C ) :   1.1447 B( 17-C , 18-C ) :   1.6197
B( 17-C , 33-H ) :   0.9704 B( 18-C , 19-C ) :   1.2456 B( 18-C , 21-H ) :   1.0000
B( 19-C , 20-C ) :   1.5695 B( 19-C , 22-C ) :   1.0401 B( 22-C , 23-H ) :   0.9385
B( 22-C , 24-H ) :   0.9349 B( 22-C , 25-C ) :   1.0468 B( 25-C , 26-H ) :   0.9532
B( 25-C , 27-H ) :   0.9572 B( 25-C , 28-C ) :   1.0809 B( 28-C , 29-H ) :   0.9728
B( 28-C , 30-H ) :   0.9712 B( 28-C , 31-H ) :   0.9733

Dispersion correction           -0.014350101
FINAL SINGLE POINT ENERGY     -1339.862596099296

DIPOLE MOMENT
-------------
                                X             Y             Z
Electronic contribution:     15.80435       0.84298     -27.79490
Nuclear contribution   :    -16.10452      -0.56395      28.44779
                        -----------------------------------------
Total Dipole Moment    :     -0.30017       0.27904       0.65289
                        -----------------------------------------
Magnitude (a.u.)       :      0.77087
Magnitude (Debye)      :      1.95939

Rotational constants in cm-1:     0.019905     0.008924     0.006502
Rotational constants in MHz :   596.730237   267.544273   194.921364

                             ****ORCA TERMINATED NORMALLY****
TOTAL RUN TIME: 0 days 0 hours 0 minutes 21 seconds 24 msec
