                         Program Version 4.2.1 -  RELEASE  -
|  1> ! wB97X-D3 SP def2-SVP
|  2> %pal
|  3> nprocs 24
|  4> end
|  5>
|  6> * xyz 0 1
|  7> S 	 -97.9995 	 47.3208 	 -98.1183
|  8> C 	 -98.398 	 48.2861 	 -96.6836
|  9> C 	 -99.1165 	 49.38 	 -97.1234
| 10> C 	 -98.9956 	 49.5746 	 -98.5431
| 11> C 	 -98.4256 	 48.6099 	 -99.2008
| 12> H 	 -99.3536 	 50.5294 	 -98.8769
| 13> C 	 -99.8116 	 50.3787 	 -96.2032
| 14> H 	 -100.548 	 49.7915 	 -95.6352
| 15> H 	 -100.278 	 51.0969 	 -96.9833
| 16> C 	 -98.946 	 51.1985 	 -95.2019
| 17> H 	 -98.3504 	 50.5446 	 -94.5432
| 18> H 	 -98.3135 	 51.72 	 -95.8921
| 19> C 	 -99.7752 	 52.0673 	 -94.3046
| 20> H 	 -100.656 	 51.495 	 -93.9559
| 21> H 	 -99.0906 	 52.3858 	 -93.4299
| 22> H 	 -100.065 	 53.0062 	 -94.8224
| 23> S 	 -96.6868 	 48.237 	 -101.239
| 24> C 	 -97.2946 	 48.2217 	 -102.86
| 25> C 	 -98.6814 	 48.1265 	 -102.856
| 26> C 	 -99.279 	 48.0902 	 -101.55
| 27> C 	 -98.3022 	 48.3884 	 -100.622
| 28> H 	 -99.2507 	 48.0382 	 -103.693
| 29> C 	 -100.801 	 47.9925 	 -101.352
| 30> H 	 -101.335 	 48.7709 	 -101.89
| 31> H 	 -100.881 	 48.1855 	 -100.333
| 32> C 	 -101.346 	 46.6744 	 -101.753
| 33> H 	 -100.705 	 45.9581 	 -101.262
| 34> H 	 -101.091 	 46.5219 	 -102.807
| 35> C 	 -102.801 	 46.6096 	 -101.296
| 36> H 	 -103.299 	 45.6975 	 -101.494
| 37> H 	 -103.507 	 47.4594 	 -101.647
| 38> H 	 -102.845 	 46.6886 	 -100.176
| 39> H 	 -98.3097 	 47.9244 	 -95.6982
| 40> H 	 -96.6956 	 48.2693 	 -103.7
| 41> *
| 42>
| 43>                          ****END OF INPUT****

CARTESIAN COORDINATES (ANGSTROEM)
---------------------------------
  S    -97.999500   47.320800  -98.118300
  C    -98.398000   48.286100  -96.683600
  C    -99.116500   49.380000  -97.123400
  C    -98.995600   49.574600  -98.543100
  C    -98.425600   48.609900  -99.200800
  H    -99.353600   50.529400  -98.876900
  C    -99.811600   50.378700  -96.203200
  H    -100.548000   49.791500  -95.635200
  H    -100.278000   51.096900  -96.983300
  C    -98.946000   51.198500  -95.201900
  H    -98.350400   50.544600  -94.543200
  H    -98.313500   51.720000  -95.892100
  C    -99.775200   52.067300  -94.304600
  H    -100.656000   51.495000  -93.955900
  H    -99.090600   52.385800  -93.429900
  H    -100.065000   53.006200  -94.822400
  S    -96.686800   48.237000  -101.239000
  C    -97.294600   48.221700  -102.860000
  C    -98.681400   48.126500  -102.856000
  C    -99.279000   48.090200  -101.550000
  C    -98.302200   48.388400  -100.622000
  H    -99.250700   48.038200  -103.693000
  C    -100.801000   47.992500  -101.352000
  H    -101.335000   48.770900  -101.890000
  H    -100.881000   48.185500  -100.333000
  C    -101.346000   46.674400  -101.753000
  H    -100.705000   45.958100  -101.262000
  H    -101.091000   46.521900  -102.807000
  C    -102.801000   46.609600  -101.296000
  H    -103.299000   45.697500  -101.494000
  H    -103.507000   47.459400  -101.647000
  H    -102.845000   46.688600  -100.176000
  H    -98.309700   47.924400  -95.698200
  H    -96.695600   48.269300  -103.700000

 Total Charge           Charge          ....    0
 Multiplicity           Mult            ....    1
 Number of Electrons    NEL             ....  134
 Basis Dimension        Dim             ....  322

ORBITAL ENERGIES
----------------

  NO   OCC          E(Eh)            E(eV)
   0   2.0000     -88.964219     -2420.8395
   1   2.0000     -88.957227     -2420.6492
   2   2.0000     -10.321174      -280.8534
   3   2.0000     -10.317873      -280.7636
   4   2.0000     -10.311528      -280.5909
   5   2.0000     -10.310326      -280.5582
   6   2.0000     -10.301037      -280.3055
   7   2.0000     -10.299882      -280.2740
   8   2.0000     -10.297415      -280.2069
   9   2.0000     -10.287895      -279.9479
  10   2.0000     -10.286084      -279.8986
  11   2.0000     -10.286047      -279.8976
  12   2.0000     -10.286016      -279.8967
  13   2.0000     -10.284622      -279.8588
  14   2.0000     -10.283202      -279.8201
  15   2.0000     -10.281690      -279.7790
  16   2.0000      -8.079711      -219.8601
  17   2.0000      -8.072480      -219.6633
  18   2.0000      -6.038152      -164.3065
  19   2.0000      -6.034184      -164.1985
  20   2.0000      -6.031134      -164.1155
  21   2.0000      -6.030431      -164.0964
  22   2.0000      -6.026987      -164.0027
  23   2.0000      -6.022961      -163.8931
  24   2.0000      -1.013681       -27.5837
  25   2.0000      -0.987796       -26.8793
  26   2.0000      -0.920283       -25.0422
  27   2.0000      -0.911811       -24.8117
  28   2.0000      -0.872372       -23.7385
  29   2.0000      -0.851416       -23.1682
  30   2.0000      -0.845747       -23.0139
  31   2.0000      -0.818374       -22.2691
  32   2.0000      -0.781890       -21.2763
  33   2.0000      -0.767423       -20.8826
  34   2.0000      -0.707029       -19.2392
  35   2.0000      -0.702480       -19.1154
  36   2.0000      -0.695252       -18.9188
  37   2.0000      -0.667334       -18.1591
  38   2.0000      -0.642801       -17.4915
  39   2.0000      -0.629007       -17.1161
  40   2.0000      -0.603907       -16.4332
  41   2.0000      -0.573344       -15.6015
  42   2.0000      -0.572231       -15.5712
  43   2.0000      -0.559880       -15.2351
  44   2.0000      -0.529652       -14.4126
  45   2.0000      -0.526544       -14.3280
  46   2.0000      -0.518208       -14.1012
  47   2.0000      -0.514164       -13.9911
  48   2.0000      -0.507479       -13.8092
  49   2.0000      -0.499006       -13.5787
  50   2.0000      -0.495812       -13.4917
  51   2.0000      -0.476052       -12.9540
  52   2.0000      -0.469050       -12.7635
  53   2.0000      -0.461146       -12.5484
  54   2.0000      -0.456661       -12.4264
  55   2.0000      -0.450740       -12.2652
  56   2.0000      -0.447733       -12.1834
  57   2.0000      -0.440684       -11.9916
  58   2.0000      -0.427628       -11.6363
  59   2.0000      -0.424618       -11.5544
  60   2.0000      -0.422495       -11.4967
  61   2.0000      -0.416726       -11.3397
  62   2.0000      -0.407277       -11.0826
  63   2.0000      -0.338844        -9.2204
  64   2.0000      -0.330326        -8.9886
  65   2.0000      -0.323388        -8.7998
  66   2.0000      -0.304845        -8.2953
  67   0.0000       0.041230         1.1219
  68   0.0000       0.061018         1.6604
  69   0.0000       0.109973         2.9925
  70   0.0000       0.123095         3.3496
  71   0.0000       0.129776         3.5314

MULLIKEN ATOMIC CHARGES
-----------------------
   0 S :    0.088198
   1 C :   -0.105519
   2 C :   -0.117212
   3 C :    0.036267
   4 C :   -0.104630
   5 H :   -0.005318
   6 C :    0.013991
   7 H :    0.034941
   8 H :    0.031617
   9 C :   -0.058013
  10 H :    0.030193
  11 H :    0.027045
  12 C :   -0.065182
  13 H :    0.039899
  14 H :    0.048113
  15 H :    0.040011
  16 S :    0.117627
  17 C :   -0.048815
  18 C :    0.005067
  19 C :   -0.027879
  20 C :   -0.208001
  21 H :   -0.025109
  22 C :    0.116068
  23 H :    0.027118
  24 H :   -0.000141
  25 C :   -0.063541
  26 H :    0.025809
  27 H :    0.026903
  28 C :   -0.047441
  29 H :    0.028084
  30 H :    0.040858
  31 H :    0.034557
  32 H :    0.035377
  33 H :    0.029059
Sum of atomic charges:   -0.0000000

LOEWDIN ATOMIC CHARGES
----------------------
   0 S :    0.387742
   1 C :   -0.177416
   2 C :   -0.065845
   3 C :   -0.067161
   4 C :   -0.198053
   5 H :    0.028540
   6 C :   -0.038461
   7 H :    0.029261
   8 H :    0.036270
   9 C :   -0.044570
  10 H :    0.024225
  11 H :    0.023205
  12 C :   -0.072227
  13 H :    0.028314
  14 H :    0.038017
  15 H :    0.028069
  16 S :    0.422530
  17 C :   -0.174888
  18 C :   -0.055806
  19 C :   -0.043441
  20 C :   -0.206446
  21 H :    0.010036
  22 C :   -0.020990
  23 H :    0.029924
  24 H :    0.020079
  25 C :   -0.042319
  26 H :    0.028265
  27 H :    0.024154
  28 C :   -0.070347
  29 H :    0.017907
  30 H :    0.035652
  31 H :    0.034211
  32 H :    0.018278
  33 H :    0.013291

  Mayer bond orders larger than 0.100000
B(  0-S ,  1-C ) :   1.1216 B(  0-S ,  4-C ) :   1.1436 B(  1-C ,  2-C ) :   1.6190
B(  1-C , 32-H ) :   0.9820 B(  2-C ,  3-C ) :   1.2270 B(  2-C ,  6-C ) :   1.0158
B(  3-C ,  4-C ) :   1.6206 B(  3-C ,  5-H ) :   1.0063 B(  4-C , 20-C ) :   0.9929
B(  6-C ,  7-H ) :   0.9316 B(  6-C ,  8-H ) :   0.9476 B(  6-C ,  9-C ) :   1.0645
B(  9-C , 10-H ) :   0.9565 B(  9-C , 11-H ) :   0.9560 B(  9-C , 12-C ) :   1.0802
B( 12-C , 13-H ) :   0.9716 B( 12-C , 14-H ) :   0.9740 B( 12-C , 15-H ) :   0.9748
B( 16-S , 17-C ) :   1.1522 B( 16-S , 20-C ) :   1.1593 B( 17-C , 18-C ) :   1.5940
B( 17-C , 20-C ) :   0.1026 B( 17-C , 33-H ) :   0.9821 B( 18-C , 19-C ) :   1.2264
B( 18-C , 21-H ) :   1.0014 B( 19-C , 20-C ) :   1.5979 B( 19-C , 22-C ) :   1.0318
B( 22-C , 23-H ) :   0.9375 B( 22-C , 24-H ) :   0.9272 B( 22-C , 25-C ) :   1.0566
B( 25-C , 26-H ) :   0.9496 B( 25-C , 27-H ) :   0.9587 B( 25-C , 28-C ) :   1.0749
B( 28-C , 29-H ) :   0.9747 B( 28-C , 30-H ) :   0.9719 B( 28-C , 31-H ) :   0.9711

Dispersion correction           -0.013599826
FINAL SINGLE POINT ENERGY     -1339.855919152915

DIPOLE MOMENT
-------------
                                X             Y             Z
Electronic contribution:     21.51350      -8.82113     -10.24572
Nuclear contribution   :    -22.06289       9.08448      10.32116
                        -----------------------------------------
Total Dipole Moment    :     -0.54939       0.26334       0.07544
                        -----------------------------------------
Magnitude (a.u.)       :      0.61390
Magnitude (Debye)      :      1.56040

Rotational constants in cm-1:     0.019645     0.007529     0.006326
Rotational constants in MHz :   588.936211   225.708103   189.658504

                             ****ORCA TERMINATED NORMALLY****
TOTAL RUN TIME: 0 days 0 hours 0 minutes 20 seconds 112 msec
