                         Program Version 4.2.1 -  RELEASE  -
|  1> ! wB97X-D3 SP def2-SVP
|  2> %pal
|  3> nprocs 24
|  4> end
|  5>
|  6> * xyz 0 1
|  7> S 	 18.7446 	 -9.3595 	 -116.624
|  8> C 	 19.1594 	 -9.25233 	 -114.93
|  9> C 	 18.9663 	 -7.95636 	 -114.486
| 10> C 	 18.189 	 -7.21767 	 -115.415
| 11> C 	 17.869 	 -7.82317 	 -116.596
| 12> H 	 17.6951 	 -6.2702 	 -115.315
| 13> C 	 19.2671 	 -7.45282 	 -113.063
| 14> H 	 19.7149 	 -8.30308 	 -112.506
| 15> H 	 18.2712 	 -7.22599 	 -112.702
| 16> C 	 20.1908 	 -6.17462 	 -112.913
| 17> H 	 19.8822 	 -5.36171 	 -113.622
| 18> H 	 20.0902 	 -5.79283 	 -111.837
| 19> C 	 21.5912 	 -6.46942 	 -113.298
| 20> H 	 22.2605 	 -7.05496 	 -112.657
| 21> H 	 21.6899 	 -6.94653 	 -114.305
| 22> H 	 22.1668 	 -5.61194 	 -113.35
| 23> S 	 17.3021 	 -6.6865 	 -119.053
| 24> C 	 15.7259 	 -6.92498 	 -119.696
| 25> C 	 14.8651 	 -7.62911 	 -118.803
| 26> C 	 15.5259 	 -8.06581 	 -117.637
| 27> C 	 16.8089 	 -7.5517 	 -117.557
| 28> H 	 13.8052 	 -7.73437 	 -119.171
| 29> C 	 14.7574 	 -8.93601 	 -116.628
| 30> H 	 14.9618 	 -8.44584 	 -115.671
| 31> H 	 15.2729 	 -9.89754 	 -116.603
| 32> C 	 13.2412 	 -9.04811 	 -116.964
| 33> H 	 13.2345 	 -9.38436 	 -118.024
| 34> H 	 12.6606 	 -8.09458 	 -116.933
| 35> C 	 12.4329 	 -10.0819 	 -116.121
| 36> H 	 11.5924 	 -10.5055 	 -116.627
| 37> H 	 12.0112 	 -9.6764 	 -115.178
| 38> H 	 13.041 	 -10.9239 	 -115.974
| 39> H 	 19.3763 	 -10.0883 	 -114.262
| 40> H 	 15.2537 	 -6.44502 	 -120.599
| 41> *
| 42>
| 43>                          ****END OF INPUT****

CARTESIAN COORDINATES (ANGSTROEM)
---------------------------------
  S     18.744600   -9.359500  -116.624000
  C     19.159400   -9.252330  -114.930000
  C     18.966300   -7.956360  -114.486000
  C     18.189000   -7.217670  -115.415000
  C     17.869000   -7.823170  -116.596000
  H     17.695100   -6.270200  -115.315000
  C     19.267100   -7.452820  -113.063000
  H     19.714900   -8.303080  -112.506000
  H     18.271200   -7.225990  -112.702000
  C     20.190800   -6.174620  -112.913000
  H     19.882200   -5.361710  -113.622000
  H     20.090200   -5.792830  -111.837000
  C     21.591200   -6.469420  -113.298000
  H     22.260500   -7.054960  -112.657000
  H     21.689900   -6.946530  -114.305000
  H     22.166800   -5.611940  -113.350000
  S     17.302100   -6.686500  -119.053000
  C     15.725900   -6.924980  -119.696000
  C     14.865100   -7.629110  -118.803000
  C     15.525900   -8.065810  -117.637000
  C     16.808900   -7.551700  -117.557000
  H     13.805200   -7.734370  -119.171000
  C     14.757400   -8.936010  -116.628000
  H     14.961800   -8.445840  -115.671000
  H     15.272900   -9.897540  -116.603000
  C     13.241200   -9.048110  -116.964000
  H     13.234500   -9.384360  -118.024000
  H     12.660600   -8.094580  -116.933000
  C     12.432900  -10.081900  -116.121000
  H     11.592400  -10.505500  -116.627000
  H     12.011200   -9.676400  -115.178000
  H     13.041000  -10.923900  -115.974000
  H     19.376300  -10.088300  -114.262000
  H     15.253700   -6.445020  -120.599000

 Total Charge           Charge          ....    0
 Multiplicity           Mult            ....    1
 Number of Electrons    NEL             ....  134
 Basis Dimension        Dim             ....  322

ORBITAL ENERGIES
----------------

  NO   OCC          E(Eh)            E(eV)
   0   2.0000     -88.969168     -2420.9741
   1   2.0000     -88.957069     -2420.6449
   2   2.0000     -10.326744      -281.0050
   3   2.0000     -10.322962      -280.9021
   4   2.0000     -10.321193      -280.8539
   5   2.0000     -10.315371      -280.6955
   6   2.0000     -10.307771      -280.4887
   7   2.0000     -10.302563      -280.3470
   8   2.0000     -10.299012      -280.2504
   9   2.0000     -10.297947      -280.2214
  10   2.0000     -10.297299      -280.2038
  11   2.0000     -10.296807      -280.1904
  12   2.0000     -10.296036      -280.1694
  13   2.0000     -10.290824      -280.0276
  14   2.0000     -10.275306      -279.6053
  15   2.0000     -10.267797      -279.4010
  16   2.0000      -8.083400      -219.9605
  17   2.0000      -8.072081      -219.6525
  18   2.0000      -6.041790      -164.4055
  19   2.0000      -6.037919      -164.3001
  20   2.0000      -6.034386      -164.2040
  21   2.0000      -6.030588      -164.1007
  22   2.0000      -6.026564      -163.9911
  23   2.0000      -6.022775      -163.8880
  24   2.0000      -1.004192       -27.3254
  25   2.0000      -0.982755       -26.7421
  26   2.0000      -0.906165       -24.6580
  27   2.0000      -0.905031       -24.6271
  28   2.0000      -0.867328       -23.6012
  29   2.0000      -0.850338       -23.1389
  30   2.0000      -0.844277       -22.9740
  31   2.0000      -0.811212       -22.0742
  32   2.0000      -0.785560       -21.3762
  33   2.0000      -0.771129       -20.9835
  34   2.0000      -0.708622       -19.2826
  35   2.0000      -0.700007       -19.0482
  36   2.0000      -0.689600       -18.7650
  37   2.0000      -0.649211       -17.6659
  38   2.0000      -0.639966       -17.4144
  39   2.0000      -0.614426       -16.7194
  40   2.0000      -0.589487       -16.0408
  41   2.0000      -0.568407       -15.4671
  42   2.0000      -0.562662       -15.3108
  43   2.0000      -0.554396       -15.0859
  44   2.0000      -0.533976       -14.5302
  45   2.0000      -0.525051       -14.2874
  46   2.0000      -0.517420       -14.0797
  47   2.0000      -0.509845       -13.8736
  48   2.0000      -0.503691       -13.7061
  49   2.0000      -0.499229       -13.5847
  50   2.0000      -0.485770       -13.2185
  51   2.0000      -0.474062       -12.8999
  52   2.0000      -0.469921       -12.7872
  53   2.0000      -0.466401       -12.6914
  54   2.0000      -0.453599       -12.3430
  55   2.0000      -0.445527       -12.1234
  56   2.0000      -0.442579       -12.0432
  57   2.0000      -0.437321       -11.9001
  58   2.0000      -0.432507       -11.7691
  59   2.0000      -0.425402       -11.5758
  60   2.0000      -0.416744       -11.3402
  61   2.0000      -0.414564       -11.2809
  62   2.0000      -0.410877       -11.1805
  63   2.0000      -0.336325        -9.1519
  64   2.0000      -0.328757        -8.9459
  65   2.0000      -0.314033        -8.5453
  66   2.0000      -0.306406        -8.3377
  67   0.0000       0.033276         0.9055
  68   0.0000       0.051286         1.3956
  69   0.0000       0.112406         3.0587
  70   0.0000       0.120797         3.2871
  71   0.0000       0.132572         3.6075

MULLIKEN ATOMIC CHARGES
-----------------------
   0 S :    0.096021
   1 C :   -0.138897
   2 C :   -0.079460
   3 C :    0.048316
   4 C :   -0.177300
   5 H :    0.003073
   6 C :    0.064139
   7 H :    0.026289
   8 H :    0.035508
   9 C :   -0.083247
  10 H :    0.042627
  11 H :    0.048426
  12 C :   -0.043853
  13 H :    0.018993
  14 H :    0.043197
  15 H :    0.008380
  16 S :    0.124705
  17 C :   -0.097379
  18 C :   -0.112518
  19 C :   -0.023191
  20 C :   -0.209244
  21 H :    0.046566
  22 C :    0.136995
  23 H :    0.034624
  24 H :    0.039364
  25 C :   -0.151545
  26 H :    0.043769
  27 H :    0.047455
  28 C :    0.005126
  29 H :    0.019094
  30 H :    0.039764
  31 H :    0.012384
  32 H :    0.061293
  33 H :    0.070526
Sum of atomic charges:    0.0000000

LOEWDIN ATOMIC CHARGES
----------------------
   0 S :    0.383428
   1 C :   -0.193212
   2 C :   -0.071508
   3 C :   -0.058611
   4 C :   -0.198767
   5 H :    0.030538
   6 C :   -0.029258
   7 H :    0.031715
   8 H :    0.030266
   9 C :   -0.044277
  10 H :    0.033029
  11 H :    0.035419
  12 C :   -0.077611
  13 H :    0.023910
  14 H :    0.035475
  15 H :    0.016596
  16 S :    0.412664
  17 C :   -0.206313
  18 C :   -0.091721
  19 C :   -0.043102
  20 C :   -0.205191
  21 H :    0.043126
  22 C :   -0.025585
  23 H :    0.035842
  24 H :    0.037656
  25 C :   -0.047389
  26 H :    0.028085
  27 H :    0.030489
  28 C :   -0.063267
  29 H :    0.024471
  30 H :    0.029711
  31 H :    0.018120
  32 H :    0.034624
  33 H :    0.040647

  Mayer bond orders larger than 0.100000
B(  0-S ,  1-C ) :   1.1522 B(  0-S ,  4-C ) :   1.1179 B(  1-C ,  2-C ) :   1.6045
B(  1-C , 32-H ) :   0.9662 B(  2-C ,  3-C ) :   1.1995 B(  2-C ,  6-C ) :   1.0164
B(  3-C ,  4-C ) :   1.6370 B(  3-C ,  5-H ) :   0.9952 B(  4-C , 20-C ) :   1.0163
B(  6-C ,  7-H ) :   0.9461 B(  6-C ,  8-H ) :   0.9436 B(  6-C ,  9-C ) :   1.0611
B(  9-C , 10-H ) :   0.9571 B(  9-C , 11-H ) :   0.9546 B(  9-C , 12-C ) :   1.0781
B( 12-C , 13-H ) :   0.9709 B( 12-C , 14-H ) :   0.9712 B( 12-C , 15-H ) :   0.9683
B( 16-S , 17-C ) :   1.1838 B( 16-S , 20-C ) :   1.1384 B( 17-C , 18-C ) :   1.5912
B( 17-C , 20-C ) :   0.1102 B( 17-C , 33-H ) :   0.9508 B( 18-C , 19-C ) :   1.2589
B( 18-C , 21-H ) :   0.9732 B( 19-C , 20-C ) :   1.6014 B( 19-C , 22-C ) :   1.0063
B( 22-C , 23-H ) :   0.9303 B( 22-C , 24-H ) :   0.9186 B( 22-C , 25-C ) :   1.0853
B( 25-C , 26-H ) :   0.9428 B( 25-C , 27-H ) :   0.9567 B( 25-C , 28-C ) :   1.0770
B( 28-C , 29-H ) :   0.9729 B( 28-C , 30-H ) :   0.9758 B( 28-C , 31-H ) :   0.9725

Dispersion correction           -0.013892217
FINAL SINGLE POINT ENERGY     -1339.853118772510

DIPOLE MOMENT
-------------
                                X             Y             Z
Electronic contribution:      7.07052       0.87584     -18.65890
Nuclear contribution   :     -7.57373      -0.83629      19.13840
                        -----------------------------------------
Total Dipole Moment    :     -0.50320       0.03955       0.47950
                        -----------------------------------------
Magnitude (a.u.)       :      0.69620
Magnitude (Debye)      :      1.76960

Rotational constants in cm-1:     0.019980     0.007469     0.006298
Rotational constants in MHz :   598.986449   223.925421   188.796463

                             ****ORCA TERMINATED NORMALLY****
TOTAL RUN TIME: 0 days 0 hours 0 minutes 20 seconds 762 msec
