                         Program Version 4.2.1 -  RELEASE  -
|  1> ! wB97X-D3 SP def2-SVP
|  2> %pal
|  3> nprocs 24
|  4> end
|  5>
|  6> * xyz 0 1
|  7> S 	 -54.0446 	 -52.397 	 -73.362
|  8> C 	 -52.3594 	 -52.6534 	 -72.9334
|  9> C 	 -51.7709 	 -53.7339 	 -73.5248
| 10> C 	 -52.7438 	 -54.446 	 -74.3214
| 11> C 	 -53.9897 	 -53.8211 	 -74.4242
| 12> H 	 -52.5282 	 -55.3747 	 -74.8898
| 13> C 	 -50.4134 	 -54.3518 	 -73.296
| 14> H 	 -49.8241 	 -53.5125 	 -72.8338
| 15> H 	 -49.8978 	 -54.8106 	 -74.2636
| 16> C 	 -50.2085 	 -55.3052 	 -72.1289
| 17> H 	 -49.179 	 -55.6005 	 -72.1286
| 18> H 	 -50.4834 	 -54.7771 	 -71.2556
| 19> C 	 -50.9642 	 -56.6173 	 -72.1484
| 20> H 	 -50.7137 	 -57.267 	 -71.3673
| 21> H 	 -51.9605 	 -56.2828 	 -71.873
| 22> H 	 -50.9335 	 -57.137 	 -73.1046
| 23> S 	 -56.6102 	 -54.6103 	 -74.3021
| 24> C 	 -57.5711 	 -54.539 	 -75.7492
| 25> C 	 -56.7757 	 -54.4533 	 -76.9104
| 26> C 	 -55.388 	 -54.2528 	 -76.6615
| 27> C 	 -55.1316 	 -54.1971 	 -75.2736
| 28> H 	 -57.3082 	 -54.3662 	 -77.8877
| 29> C 	 -54.3327 	 -53.7962 	 -77.711
| 30> H 	 -53.3579 	 -53.861 	 -77.1964
| 31> H 	 -54.296 	 -52.6808 	 -77.9053
| 32> C 	 -54.3979 	 -54.4282 	 -79.0934
| 33> H 	 -55.2821 	 -54.1925 	 -79.6658
| 34> H 	 -54.3386 	 -55.5368 	 -79.0482
| 35> C 	 -53.2624 	 -54.0196 	 -80.0281
| 36> H 	 -52.2706 	 -54.2122 	 -79.5527
| 37> H 	 -53.3885 	 -52.9819 	 -80.2839
| 38> H 	 -53.4023 	 -54.6189 	 -80.9206
| 39> H 	 -51.8043 	 -52.1392 	 -72.143
| 40> H 	 -58.605 	 -54.9052 	 -75.7448
| 41> *
| 42>
| 43>                          ****END OF INPUT****

CARTESIAN COORDINATES (ANGSTROEM)
---------------------------------
  S    -54.044600  -52.397000  -73.362000
  C    -52.359400  -52.653400  -72.933400
  C    -51.770900  -53.733900  -73.524800
  C    -52.743800  -54.446000  -74.321400
  C    -53.989700  -53.821100  -74.424200
  H    -52.528200  -55.374700  -74.889800
  C    -50.413400  -54.351800  -73.296000
  H    -49.824100  -53.512500  -72.833800
  H    -49.897800  -54.810600  -74.263600
  C    -50.208500  -55.305200  -72.128900
  H    -49.179000  -55.600500  -72.128600
  H    -50.483400  -54.777100  -71.255600
  C    -50.964200  -56.617300  -72.148400
  H    -50.713700  -57.267000  -71.367300
  H    -51.960500  -56.282800  -71.873000
  H    -50.933500  -57.137000  -73.104600
  S    -56.610200  -54.610300  -74.302100
  C    -57.571100  -54.539000  -75.749200
  C    -56.775700  -54.453300  -76.910400
  C    -55.388000  -54.252800  -76.661500
  C    -55.131600  -54.197100  -75.273600
  H    -57.308200  -54.366200  -77.887700
  C    -54.332700  -53.796200  -77.711000
  H    -53.357900  -53.861000  -77.196400
  H    -54.296000  -52.680800  -77.905300
  C    -54.397900  -54.428200  -79.093400
  H    -55.282100  -54.192500  -79.665800
  H    -54.338600  -55.536800  -79.048200
  C    -53.262400  -54.019600  -80.028100
  H    -52.270600  -54.212200  -79.552700
  H    -53.388500  -52.981900  -80.283900
  H    -53.402300  -54.618900  -80.920600
  H    -51.804300  -52.139200  -72.143000
  H    -58.605000  -54.905200  -75.744800

 Total Charge           Charge          ....    0
 Multiplicity           Mult            ....    1
 Number of Electrons    NEL             ....  134
 Basis Dimension        Dim             ....  322

ORBITAL ENERGIES
----------------

  NO   OCC          E(Eh)            E(eV)
   0   2.0000     -88.970042     -2420.9979
   1   2.0000     -88.965172     -2420.8654
   2   2.0000     -10.334843      -281.2254
   3   2.0000     -10.333629      -281.1923
   4   2.0000     -10.320613      -280.8381
   5   2.0000     -10.317169      -280.7445
   6   2.0000     -10.315411      -280.6966
   7   2.0000     -10.305562      -280.4286
   8   2.0000     -10.302044      -280.3329
   9   2.0000     -10.301408      -280.3156
  10   2.0000     -10.299742      -280.2702
  11   2.0000     -10.298445      -280.2349
  12   2.0000     -10.286005      -279.8964
  13   2.0000     -10.279526      -279.7201
  14   2.0000     -10.278039      -279.6796
  15   2.0000     -10.265739      -279.3450
  16   2.0000      -8.084011      -219.9771
  17   2.0000      -8.079358      -219.8505
  18   2.0000      -6.042653      -164.4289
  19   2.0000      -6.038664      -164.3204
  20   2.0000      -6.037704      -164.2943
  21   2.0000      -6.034613      -164.2102
  22   2.0000      -6.033956      -164.1923
  23   2.0000      -6.030302      -164.0929
  24   2.0000      -0.998913       -27.1818
  25   2.0000      -0.977925       -26.6107
  26   2.0000      -0.916167       -24.9302
  27   2.0000      -0.907375       -24.6909
  28   2.0000      -0.866666       -23.5832
  29   2.0000      -0.853249       -23.2181
  30   2.0000      -0.844609       -22.9830
  31   2.0000      -0.808929       -22.0121
  32   2.0000      -0.785529       -21.3753
  33   2.0000      -0.772733       -21.0271
  34   2.0000      -0.699857       -19.0441
  35   2.0000      -0.697392       -18.9770
  36   2.0000      -0.693004       -18.8576
  37   2.0000      -0.650366       -17.6974
  38   2.0000      -0.633313       -17.2333
  39   2.0000      -0.612207       -16.6590
  40   2.0000      -0.594517       -16.1776
  41   2.0000      -0.582171       -15.8417
  42   2.0000      -0.566253       -15.4085
  43   2.0000      -0.546842       -14.8803
  44   2.0000      -0.543455       -14.7882
  45   2.0000      -0.531938       -14.4748
  46   2.0000      -0.513932       -13.9848
  47   2.0000      -0.504768       -13.7354
  48   2.0000      -0.498847       -13.5743
  49   2.0000      -0.497444       -13.5361
  50   2.0000      -0.485926       -13.2227
  51   2.0000      -0.480389       -13.0720
  52   2.0000      -0.470827       -12.8119
  53   2.0000      -0.467415       -12.7190
  54   2.0000      -0.451795       -12.2940
  55   2.0000      -0.446968       -12.1626
  56   2.0000      -0.441706       -12.0194
  57   2.0000      -0.435883       -11.8610
  58   2.0000      -0.433292       -11.7905
  59   2.0000      -0.428562       -11.6618
  60   2.0000      -0.420477       -11.4418
  61   2.0000      -0.414067       -11.2673
  62   2.0000      -0.402304       -10.9472
  63   2.0000      -0.336730        -9.1629
  64   2.0000      -0.334770        -9.1096
  65   2.0000      -0.327696        -8.9171
  66   2.0000      -0.297271        -8.0891
  67   0.0000       0.026413         0.7187
  68   0.0000       0.058304         1.5865
  69   0.0000       0.107866         2.9352
  70   0.0000       0.113184         3.0799
  71   0.0000       0.122094         3.3224

MULLIKEN ATOMIC CHARGES
-----------------------
   0 S :    0.126657
   1 C :   -0.114479
   2 C :   -0.082444
   3 C :    0.039581
   4 C :   -0.169690
   5 H :    0.026506
   6 C :   -0.000023
   7 H :    0.030052
   8 H :    0.057854
   9 C :   -0.046825
  10 H :    0.025940
  11 H :    0.012045
  12 C :   -0.030903
  13 H :    0.020313
  14 H :    0.026498
  15 H :    0.030690
  16 S :    0.095545
  17 C :   -0.103038
  18 C :   -0.076050
  19 C :    0.043942
  20 C :   -0.194481
  21 H :    0.043731
  22 C :    0.043887
  23 H :    0.019013
  24 H :    0.042020
  25 C :   -0.101510
  26 H :    0.027924
  27 H :    0.031941
  28 C :   -0.045892
  29 H :    0.038878
  30 H :    0.029350
  31 H :    0.034694
  32 H :    0.045159
  33 H :    0.073114
Sum of atomic charges:   -0.0000000

LOEWDIN ATOMIC CHARGES
----------------------
   0 S :    0.398077
   1 C :   -0.194342
   2 C :   -0.074136
   3 C :   -0.058427
   4 C :   -0.200249
   5 H :    0.036140
   6 C :   -0.043752
   7 H :    0.041342
   8 H :    0.045203
   9 C :   -0.035933
  10 H :    0.021762
  11 H :    0.018352
  12 C :   -0.065855
  13 H :    0.018861
  14 H :    0.027860
  15 H :    0.023310
  16 S :    0.388274
  17 C :   -0.193257
  18 C :   -0.079321
  19 C :   -0.048017
  20 C :   -0.178146
  21 H :    0.039921
  22 C :   -0.040477
  23 H :    0.032780
  24 H :    0.041732
  25 C :   -0.048587
  26 H :    0.022292
  27 H :    0.025251
  28 C :   -0.059362
  29 H :    0.027833
  30 H :    0.020194
  31 H :    0.027832
  32 H :    0.030803
  33 H :    0.032042

  Mayer bond orders larger than 0.100000
B(  0-S ,  1-C ) :   1.1311 B(  0-S ,  4-C ) :   1.1332 B(  1-C ,  2-C ) :   1.6441
B(  1-C , 32-H ) :   0.9552 B(  2-C ,  3-C ) :   1.2180 B(  2-C ,  6-C ) :   1.0267
B(  3-C ,  4-C ) :   1.5942 B(  3-C ,  5-H ) :   0.9861 B(  4-C , 20-C ) :   1.0278
B(  6-C ,  7-H ) :   0.9331 B(  6-C ,  8-H ) :   0.9410 B(  6-C ,  9-C ) :   1.0773
B(  9-C , 10-H ) :   0.9534 B(  9-C , 11-H ) :   0.9556 B(  9-C , 12-C ) :   1.0878
B( 12-C , 13-H ) :   0.9711 B( 12-C , 14-H ) :   0.9726 B( 12-C , 15-H ) :   0.9741
B( 16-S , 17-C ) :   1.1622 B( 16-S , 20-C ) :   1.1529 B( 17-C , 18-C ) :   1.6064
B( 17-C , 20-C ) :   0.1104 B( 17-C , 33-H ) :   0.9597 B( 18-C , 19-C ) :   1.2410
B( 18-C , 21-H ) :   0.9799 B( 19-C , 20-C ) :   1.5755 B( 19-C , 22-C ) :   1.0346
B( 22-C , 23-H ) :   0.9339 B( 22-C , 24-H ) :   0.9348 B( 22-C , 25-C ) :   1.0598
B( 25-C , 26-H ) :   0.9502 B( 25-C , 27-H ) :   0.9598 B( 25-C , 28-C ) :   1.0918
B( 28-C , 29-H ) :   0.9758 B( 28-C , 30-H ) :   0.9746 B( 28-C , 31-H ) :   0.9740

Dispersion correction           -0.013774929
FINAL SINGLE POINT ENERGY     -1339.859375580568

DIPOLE MOMENT
-------------
                                X             Y             Z
Electronic contribution:    -19.53842       8.90207      11.92900
Nuclear contribution   :     19.91675      -9.11129     -12.20835
                        -----------------------------------------
Total Dipole Moment    :      0.37833      -0.20921      -0.27934
                        -----------------------------------------
Magnitude (a.u.)       :      0.51472
Magnitude (Debye)      :      1.30831

Rotational constants in cm-1:     0.016982     0.008231     0.006710
Rotational constants in MHz :   509.101685   246.769823   201.155768

                             ****ORCA TERMINATED NORMALLY****
TOTAL RUN TIME: 0 days 0 hours 0 minutes 21 seconds 267 msec
