                         Program Version 4.2.1 -  RELEASE  -
|  1> ! wB97X-D3 SP def2-SVP
|  2> %pal
|  3> nprocs 24
|  4> end
|  5>
|  6> * xyz 0 1
|  7> S 	 -89.542 	 -30.6471 	 -57.7005
|  8> C 	 -88.0381 	 -31.4528 	 -58.1086
|  9> C 	 -86.9637 	 -30.831 	 -57.3718
| 10> C 	 -87.4831 	 -30.0112 	 -56.3165
| 11> C 	 -88.8356 	 -29.6993 	 -56.4312
| 12> H 	 -86.9876 	 -29.5451 	 -55.5633
| 13> C 	 -85.5305 	 -31.2711 	 -57.3929
| 14> H 	 -84.9537 	 -30.6679 	 -56.6643
| 15> H 	 -85.0865 	 -31.1033 	 -58.4008
| 16> C 	 -85.3485 	 -32.6989 	 -57.0425
| 17> H 	 -85.9042 	 -33.3546 	 -57.7684
| 18> H 	 -84.3946 	 -33.0412 	 -57.1564
| 19> C 	 -85.8838 	 -33.015 	 -55.589
| 20> H 	 -85.6138 	 -32.3234 	 -54.8042
| 21> H 	 -86.9433 	 -32.979 	 -55.592
| 22> H 	 -85.5689 	 -33.9859 	 -55.2152
| 23> S 	 -90.3154 	 -27.3203 	 -56.4945
| 24> C 	 -90.7898 	 -26.5597 	 -54.978
| 25> C 	 -90.3021 	 -27.2848 	 -53.9163
| 26> C 	 -89.5509 	 -28.4251 	 -54.3018
| 27> C 	 -89.4903 	 -28.6247 	 -55.6399
| 28> H 	 -90.5333 	 -27.014 	 -52.954
| 29> C 	 -88.8603 	 -29.2275 	 -53.2034
| 30> H 	 -88.9988 	 -28.7355 	 -52.2306
| 31> H 	 -87.8046 	 -29.1646 	 -53.3474
| 32> C 	 -89.4582 	 -30.6575 	 -53.1404
| 33> H 	 -89.2656 	 -31.1379 	 -54.0871
| 34> H 	 -90.5667 	 -30.5871 	 -53.0726
| 35> C 	 -88.9217 	 -31.5105 	 -51.9889
| 36> H 	 -89.4191 	 -31.289 	 -50.967
| 37> H 	 -87.8789 	 -31.6956 	 -51.889
| 38> H 	 -89.2513 	 -32.5131 	 -52.1767
| 39> H 	 -88.0148 	 -32.1454 	 -58.9571
| 40> H 	 -91.546 	 -25.8301 	 -54.8169
| 41> *
| 42>
| 43>                          ****END OF INPUT****

CARTESIAN COORDINATES (ANGSTROEM)
---------------------------------
  S    -89.542000  -30.647100  -57.700500
  C    -88.038100  -31.452800  -58.108600
  C    -86.963700  -30.831000  -57.371800
  C    -87.483100  -30.011200  -56.316500
  C    -88.835600  -29.699300  -56.431200
  H    -86.987600  -29.545100  -55.563300
  C    -85.530500  -31.271100  -57.392900
  H    -84.953700  -30.667900  -56.664300
  H    -85.086500  -31.103300  -58.400800
  C    -85.348500  -32.698900  -57.042500
  H    -85.904200  -33.354600  -57.768400
  H    -84.394600  -33.041200  -57.156400
  C    -85.883800  -33.015000  -55.589000
  H    -85.613800  -32.323400  -54.804200
  H    -86.943300  -32.979000  -55.592000
  H    -85.568900  -33.985900  -55.215200
  S    -90.315400  -27.320300  -56.494500
  C    -90.789800  -26.559700  -54.978000
  C    -90.302100  -27.284800  -53.916300
  C    -89.550900  -28.425100  -54.301800
  C    -89.490300  -28.624700  -55.639900
  H    -90.533300  -27.014000  -52.954000
  C    -88.860300  -29.227500  -53.203400
  H    -88.998800  -28.735500  -52.230600
  H    -87.804600  -29.164600  -53.347400
  C    -89.458200  -30.657500  -53.140400
  H    -89.265600  -31.137900  -54.087100
  H    -90.566700  -30.587100  -53.072600
  C    -88.921700  -31.510500  -51.988900
  H    -89.419100  -31.289000  -50.967000
  H    -87.878900  -31.695600  -51.889000
  H    -89.251300  -32.513100  -52.176700
  H    -88.014800  -32.145400  -58.957100
  H    -91.546000  -25.830100  -54.816900

 Total Charge           Charge          ....    0
 Multiplicity           Mult            ....    1
 Number of Electrons    NEL             ....  134
 Basis Dimension        Dim             ....  322

ORBITAL ENERGIES
----------------

  NO   OCC          E(Eh)            E(eV)
   0   2.0000     -88.971227     -2421.0302
   1   2.0000     -88.964513     -2420.8475
   2   2.0000     -10.331400      -281.1317
   3   2.0000     -10.327334      -281.0211
   4   2.0000     -10.325502      -280.9712
   5   2.0000     -10.313371      -280.6411
   6   2.0000     -10.311363      -280.5865
   7   2.0000     -10.296281      -280.1760
   8   2.0000     -10.293398      -280.0976
   9   2.0000     -10.289995      -280.0050
  10   2.0000     -10.289265      -279.9851
  11   2.0000     -10.286325      -279.9051
  12   2.0000     -10.284301      -279.8501
  13   2.0000     -10.283564      -279.8300
  14   2.0000     -10.276937      -279.6497
  15   2.0000     -10.271909      -279.5129
  16   2.0000      -8.085602      -220.0204
  17   2.0000      -8.078835      -219.8363
  18   2.0000      -6.044024      -164.4662
  19   2.0000      -6.039847      -164.3526
  20   2.0000      -6.037491      -164.2885
  21   2.0000      -6.036797      -164.2696
  22   2.0000      -6.033355      -164.1759
  23   2.0000      -6.029509      -164.0713
  24   2.0000      -1.005979       -27.3741
  25   2.0000      -0.984663       -26.7940
  26   2.0000      -0.918368       -24.9901
  27   2.0000      -0.904433       -24.6109
  28   2.0000      -0.866226       -23.5712
  29   2.0000      -0.849812       -23.1246
  30   2.0000      -0.844134       -22.9701
  31   2.0000      -0.814380       -22.1604
  32   2.0000      -0.783929       -21.3318
  33   2.0000      -0.774224       -21.0677
  34   2.0000      -0.711437       -19.3592
  35   2.0000      -0.706133       -19.2149
  36   2.0000      -0.689781       -18.7699
  37   2.0000      -0.668755       -18.1978
  38   2.0000      -0.650969       -17.7138
  39   2.0000      -0.612564       -16.6687
  40   2.0000      -0.593282       -16.1440
  41   2.0000      -0.578093       -15.7307
  42   2.0000      -0.561973       -15.2921
  43   2.0000      -0.555391       -15.1129
  44   2.0000      -0.543012       -14.7761
  45   2.0000      -0.522378       -14.2146
  46   2.0000      -0.513697       -13.9784
  47   2.0000      -0.509454       -13.8630
  48   2.0000      -0.505221       -13.7478
  49   2.0000      -0.501422       -13.6444
  50   2.0000      -0.490267       -13.3408
  51   2.0000      -0.479583       -13.0501
  52   2.0000      -0.477126       -12.9832
  53   2.0000      -0.464706       -12.6453
  54   2.0000      -0.462881       -12.5956
  55   2.0000      -0.448045       -12.1919
  56   2.0000      -0.444582       -12.0977
  57   2.0000      -0.436233       -11.8705
  58   2.0000      -0.432369       -11.7654
  59   2.0000      -0.424845       -11.5606
  60   2.0000      -0.419765       -11.4224
  61   2.0000      -0.414675       -11.2839
  62   2.0000      -0.408040       -11.1033
  63   2.0000      -0.344925        -9.3859
  64   2.0000      -0.331001        -9.0070
  65   2.0000      -0.330442        -8.9918
  66   2.0000      -0.294668        -8.0183
  67   0.0000       0.027160         0.7391
  68   0.0000       0.065276         1.7763
  69   0.0000       0.113902         3.0994
  70   0.0000       0.119585         3.2541
  71   0.0000       0.126342         3.4380

MULLIKEN ATOMIC CHARGES
-----------------------
   0 S :    0.124004
   1 C :   -0.144731
   2 C :   -0.068615
   3 C :    0.059456
   4 C :   -0.160274
   5 H :   -0.034210
   6 C :    0.050996
   7 H :    0.028541
   8 H :    0.040000
   9 C :   -0.032747
  10 H :    0.023636
  11 H :    0.005823
  12 C :   -0.054394
  13 H :    0.017949
  14 H :    0.035724
  15 H :    0.027503
  16 S :    0.101917
  17 C :   -0.072286
  18 C :   -0.012327
  19 C :   -0.043035
  20 C :   -0.159120
  21 H :   -0.017016
  22 C :    0.093697
  23 H :    0.010151
  24 H :    0.024709
  25 C :   -0.091000
  26 H :    0.042051
  27 H :    0.037413
  28 C :   -0.035305
  29 H :    0.040642
  30 H :    0.025514
  31 H :    0.015133
  32 H :    0.071716
  33 H :    0.048484
Sum of atomic charges:   -0.0000000

LOEWDIN ATOMIC CHARGES
----------------------
   0 S :    0.425598
   1 C :   -0.203581
   2 C :   -0.051302
   3 C :   -0.050795
   4 C :   -0.203213
   5 H :    0.011886
   6 C :   -0.038140
   7 H :    0.032424
   8 H :    0.037950
   9 C :   -0.030906
  10 H :    0.027791
  11 H :    0.009059
  12 C :   -0.063562
  13 H :    0.020440
  14 H :    0.021995
  15 H :    0.024343
  16 S :    0.394261
  17 C :   -0.177407
  18 C :   -0.058509
  19 C :   -0.060103
  20 C :   -0.191212
  21 H :    0.016589
  22 C :   -0.026442
  23 H :    0.028558
  24 H :    0.023638
  25 C :   -0.037579
  26 H :    0.023373
  27 H :    0.033086
  28 C :   -0.077263
  29 H :    0.034785
  30 H :    0.020414
  31 H :    0.025676
  32 H :    0.031190
  33 H :    0.026959

  Mayer bond orders larger than 0.100000
B(  0-S ,  1-C ) :   1.1681 B(  0-S ,  4-C ) :   1.1667 B(  1-C ,  2-C ) :   1.5226
B(  1-C ,  4-C ) :   0.1115 B(  1-C , 32-H ) :   0.9711 B(  2-C ,  3-C ) :   1.2702
B(  2-C ,  6-C ) :   1.0392 B(  3-C ,  4-C ) :   1.5357 B(  3-C ,  5-H ) :   1.0047
B(  4-C , 20-C ) :   1.0298 B(  6-C ,  7-H ) :   0.9461 B(  6-C ,  8-H ) :   0.9295
B(  6-C ,  9-C ) :   1.0914 B(  9-C , 10-H ) :   0.9495 B(  9-C , 11-H ) :   0.9569
B(  9-C , 12-C ) :   1.0588 B( 12-C , 13-H ) :   0.9776 B( 12-C , 14-H ) :   0.9754
B( 12-C , 15-H ) :   0.9761 B( 16-S , 17-C ) :   1.1459 B( 16-S , 20-C ) :   1.1286
B( 17-C , 18-C ) :   1.6200 B( 17-C , 33-H ) :   0.9656 B( 18-C , 19-C ) :   1.2474
B( 18-C , 21-H ) :   1.0008 B( 19-C , 20-C ) :   1.6249 B( 19-C , 22-C ) :   1.0326
B( 22-C , 23-H ) :   0.9357 B( 22-C , 24-H ) :   0.9334 B( 22-C , 25-C ) :   1.0529
B( 25-C , 26-H ) :   0.9570 B( 25-C , 27-H ) :   0.9534 B( 25-C , 28-C ) :   1.0908
B( 28-C , 29-H ) :   0.9731 B( 28-C , 30-H ) :   0.9723 B( 28-C , 31-H ) :   0.9672

Dispersion correction           -0.015629687
FINAL SINGLE POINT ENERGY     -1339.866091679025

DIPOLE MOMENT
-------------
                                X             Y             Z
Electronic contribution:    -15.42803      17.99607     -16.93613
Nuclear contribution   :     15.79862     -18.30931      17.31097
                        -----------------------------------------
Total Dipole Moment    :      0.37059      -0.31324       0.37484
                        -----------------------------------------
Magnitude (a.u.)       :      0.61316
Magnitude (Debye)      :      1.55852

Rotational constants in cm-1:     0.018960     0.009790     0.007370
Rotational constants in MHz :   568.395276   293.502021   220.940314

                             ****ORCA TERMINATED NORMALLY****
TOTAL RUN TIME: 0 days 0 hours 0 minutes 22 seconds 753 msec
