                         Program Version 4.2.1 -  RELEASE  -
|  1> ! wB97X-D3 SP def2-SVP
|  2> %pal
|  3> nprocs 24
|  4> end
|  5>
|  6> * xyz 0 1
|  7> S 	 -40.5821 	 -0.840202 	 15.2652
|  8> C 	 -40.2518 	 -1.15991 	 16.9434
|  9> C 	 -39.6946 	 -2.41509 	 17.1806
| 10> C 	 -39.9944 	 -3.18121 	 16.019
| 11> C 	 -40.6248 	 -2.55273 	 14.9771
| 12> H 	 -39.9174 	 -4.27236 	 15.8909
| 13> C 	 -39.2161 	 -3.02518 	 18.4692
| 14> H 	 -38.4006 	 -3.75764 	 18.2893
| 15> H 	 -40.136 	 -3.53652 	 18.8603
| 16> C 	 -38.7599 	 -2.1234 	 19.6429
| 17> H 	 -38.1742 	 -2.70463 	 20.3749
| 18> H 	 -38.0623 	 -1.42313 	 19.1805
| 19> C 	 -39.9639 	 -1.468 	 20.4971
| 20> H 	 -40.441 	 -0.691938 	 19.9379
| 21> H 	 -40.7088 	 -2.22827 	 20.5192
| 22> H 	 -39.7071 	 -1.24388 	 21.5239
| 23> S 	 -40.2455 	 -4.34936 	 12.869
| 24> C 	 -41.5359 	 -4.52343 	 11.6794
| 25> C 	 -42.6426 	 -3.77825 	 12.002
| 26> C 	 -42.4277 	 -2.92119 	 13.1134
| 27> C 	 -41.2123 	 -3.18291 	 13.7779
| 28> H 	 -43.5427 	 -3.89944 	 11.3509
| 29> C 	 -43.3861 	 -1.82685 	 13.5321
| 30> H 	 -43.2769 	 -1.01703 	 12.8269
| 31> H 	 -43.0196 	 -1.40404 	 14.4443
| 32> C 	 -44.8532 	 -2.20939 	 13.6851
| 33> H 	 -45.0297 	 -3.13857 	 14.2653
| 34> H 	 -45.1894 	 -2.4451 	 12.7123
| 35> C 	 -45.6597 	 -1.08434 	 14.1437
| 36> H 	 -46.7522 	 -1.36245 	 14.1917
| 37> H 	 -45.5995 	 -0.282012 	 13.4461
| 38> H 	 -45.3408 	 -0.600434 	 15.038
| 39> H 	 -40.0788 	 -0.360171 	 17.6989
| 40> H 	 -41.5176 	 -5.03417 	 10.702
| 41> *
| 42>
| 43>                          ****END OF INPUT****

CARTESIAN COORDINATES (ANGSTROEM)
---------------------------------
  S    -40.582100   -0.840202   15.265200
  C    -40.251800   -1.159910   16.943400
  C    -39.694600   -2.415090   17.180600
  C    -39.994400   -3.181210   16.019000
  C    -40.624800   -2.552730   14.977100
  H    -39.917400   -4.272360   15.890900
  C    -39.216100   -3.025180   18.469200
  H    -38.400600   -3.757640   18.289300
  H    -40.136000   -3.536520   18.860300
  C    -38.759900   -2.123400   19.642900
  H    -38.174200   -2.704630   20.374900
  H    -38.062300   -1.423130   19.180500
  C    -39.963900   -1.468000   20.497100
  H    -40.441000   -0.691938   19.937900
  H    -40.708800   -2.228270   20.519200
  H    -39.707100   -1.243880   21.523900
  S    -40.245500   -4.349360   12.869000
  C    -41.535900   -4.523430   11.679400
  C    -42.642600   -3.778250   12.002000
  C    -42.427700   -2.921190   13.113400
  C    -41.212300   -3.182910   13.777900
  H    -43.542700   -3.899440   11.350900
  C    -43.386100   -1.826850   13.532100
  H    -43.276900   -1.017030   12.826900
  H    -43.019600   -1.404040   14.444300
  C    -44.853200   -2.209390   13.685100
  H    -45.029700   -3.138570   14.265300
  H    -45.189400   -2.445100   12.712300
  C    -45.659700   -1.084340   14.143700
  H    -46.752200   -1.362450   14.191700
  H    -45.599500   -0.282012   13.446100
  H    -45.340800   -0.600434   15.038000
  H    -40.078800   -0.360171   17.698900
  H    -41.517600   -5.034170   10.702000

 Total Charge           Charge          ....    0
 Multiplicity           Mult            ....    1
 Number of Electrons    NEL             ....  134
 Basis Dimension        Dim             ....  322

ORBITAL ENERGIES
----------------

  NO   OCC          E(Eh)            E(eV)
   0   2.0000     -88.968166     -2420.9469
   1   2.0000     -88.966597     -2420.9042
   2   2.0000     -10.330156      -281.0978
   3   2.0000     -10.326731      -281.0046
   4   2.0000     -10.319408      -280.8054
   5   2.0000     -10.314149      -280.6623
   6   2.0000     -10.305560      -280.4285
   7   2.0000     -10.305546      -280.4282
   8   2.0000     -10.302418      -280.3431
   9   2.0000     -10.296124      -280.1718
  10   2.0000     -10.296078      -280.1705
  11   2.0000     -10.290717      -280.0246
  12   2.0000     -10.281479      -279.7733
  13   2.0000     -10.281128      -279.7637
  14   2.0000     -10.276189      -279.6293
  15   2.0000     -10.268916      -279.4314
  16   2.0000      -8.082065      -219.9242
  17   2.0000      -8.081327      -219.9041
  18   2.0000      -6.040613      -164.3734
  19   2.0000      -6.039806      -164.3515
  20   2.0000      -6.036689      -164.2667
  21   2.0000      -6.036143      -164.2518
  22   2.0000      -6.032837      -164.1618
  23   2.0000      -6.031793      -164.1334
  24   2.0000      -1.007730       -27.4217
  25   2.0000      -0.985276       -26.8107
  26   2.0000      -0.916663       -24.9437
  27   2.0000      -0.909076       -24.7372
  28   2.0000      -0.865049       -23.5392
  29   2.0000      -0.855814       -23.2879
  30   2.0000      -0.846900       -23.0453
  31   2.0000      -0.811813       -22.0905
  32   2.0000      -0.786723       -21.4078
  33   2.0000      -0.771044       -20.9812
  34   2.0000      -0.709936       -19.3183
  35   2.0000      -0.703104       -19.1324
  36   2.0000      -0.695920       -18.9369
  37   2.0000      -0.654058       -17.7978
  38   2.0000      -0.630338       -17.1524
  39   2.0000      -0.610350       -16.6085
  40   2.0000      -0.593633       -16.1536
  41   2.0000      -0.575772       -15.6675
  42   2.0000      -0.568880       -15.4800
  43   2.0000      -0.552538       -15.0353
  44   2.0000      -0.540066       -14.6960
  45   2.0000      -0.529606       -14.4113
  46   2.0000      -0.518150       -14.0996
  47   2.0000      -0.507434       -13.8080
  48   2.0000      -0.503328       -13.6962
  49   2.0000      -0.499347       -13.5879
  50   2.0000      -0.489907       -13.3311
  51   2.0000      -0.473315       -12.8796
  52   2.0000      -0.471294       -12.8246
  53   2.0000      -0.465633       -12.6705
  54   2.0000      -0.462685       -12.5903
  55   2.0000      -0.448441       -12.2027
  56   2.0000      -0.443858       -12.0780
  57   2.0000      -0.438651       -11.9363
  58   2.0000      -0.435514       -11.8509
  59   2.0000      -0.428235       -11.6529
  60   2.0000      -0.421759       -11.4766
  61   2.0000      -0.415749       -11.3131
  62   2.0000      -0.410834       -11.1794
  63   2.0000      -0.348487        -9.4828
  64   2.0000      -0.332306        -9.0425
  65   2.0000      -0.324018        -8.8170
  66   2.0000      -0.288259        -7.8439
  67   0.0000       0.026248         0.7142
  68   0.0000       0.071470         1.9448
  69   0.0000       0.100768         2.7420
  70   0.0000       0.121254         3.2995
  71   0.0000       0.126228         3.4348

MULLIKEN ATOMIC CHARGES
-----------------------
   0 S :    0.119326
   1 C :   -0.145363
   2 C :   -0.054065
   3 C :   -0.008404
   4 C :   -0.147858
   5 H :    0.012994
   6 C :    0.006313
   7 H :    0.051225
   8 H :    0.054198
   9 C :   -0.098208
  10 H :    0.034648
  11 H :    0.035876
  12 C :   -0.027835
  13 H :    0.027705
  14 H :    0.011794
  15 H :    0.045706
  16 S :    0.111253
  17 C :   -0.099904
  18 C :   -0.064335
  19 C :   -0.029582
  20 C :   -0.148882
  21 H :    0.040025
  22 C :    0.072757
  23 H :    0.027657
  24 H :    0.007150
  25 C :   -0.048730
  26 H :    0.036147
  27 H :    0.006586
  28 C :   -0.016715
  29 H :    0.039081
  30 H :    0.004959
  31 H :    0.019394
  32 H :    0.060129
  33 H :    0.064958
Sum of atomic charges:    0.0000000

LOEWDIN ATOMIC CHARGES
----------------------
   0 S :    0.420018
   1 C :   -0.210003
   2 C :   -0.062116
   3 C :   -0.068420
   4 C :   -0.195330
   5 H :    0.029197
   6 C :   -0.039511
   7 H :    0.041349
   8 H :    0.043385
   9 C :   -0.042938
  10 H :    0.028973
  11 H :    0.021729
  12 C :   -0.059762
  13 H :    0.020319
  14 H :    0.021158
  15 H :    0.028462
  16 S :    0.397447
  17 C :   -0.186784
  18 C :   -0.079782
  19 C :   -0.048048
  20 C :   -0.197351
  21 H :    0.041735
  22 C :   -0.032279
  23 H :    0.032825
  24 H :    0.011871
  25 C :   -0.041547
  26 H :    0.029331
  27 H :    0.016714
  28 C :   -0.062620
  29 H :    0.034794
  30 H :    0.020463
  31 H :    0.020171
  32 H :    0.027675
  33 H :    0.038878

  Mayer bond orders larger than 0.100000
B(  0-S ,  1-C ) :   1.1426 B(  0-S ,  4-C ) :   1.1295 B(  1-C ,  2-C ) :   1.6079
B(  1-C , 32-H ) :   0.9492 B(  2-C ,  3-C ) :   1.2225 B(  2-C ,  6-C ) :   1.0241
B(  3-C ,  4-C ) :   1.6109 B(  3-C ,  5-H ) :   0.9904 B(  4-C , 20-C ) :   1.0438
B(  6-C ,  7-H ) :   0.9414 B(  6-C ,  8-H ) :   0.9404 B(  6-C ,  9-C ) :   1.0679
B(  9-C , 10-H ) :   0.9580 B(  9-C , 11-H ) :   0.9616 B(  9-C , 12-C ) :   1.0566
B( 12-C , 13-H ) :   0.9784 B( 12-C , 14-H ) :   0.9726 B( 12-C , 15-H ) :   0.9783
B( 16-S , 17-C ) :   1.1489 B( 16-S , 20-C ) :   1.1304 B( 17-C , 18-C ) :   1.6328
B( 17-C , 33-H ) :   0.9587 B( 18-C , 19-C ) :   1.2331 B( 18-C , 21-H ) :   0.9822
B( 19-C , 20-C ) :   1.5767 B( 19-C , 22-C ) :   1.0422 B( 22-C , 23-H ) :   0.9255
B( 22-C , 24-H ) :   0.9240 B( 22-C , 25-C ) :   1.0672 B( 25-C , 26-H ) :   0.9574
B( 25-C , 27-H ) :   0.9405 B( 25-C , 28-C ) :   1.1050 B( 28-C , 29-H ) :   0.9692
B( 28-C , 30-H ) :   0.9635 B( 28-C , 31-H ) :   0.9718

Dispersion correction           -0.013761844
FINAL SINGLE POINT ENERGY     -1339.861820941220

DIPOLE MOMENT
-------------
                                X             Y             Z
Electronic contribution:     12.00416      -5.71855     -17.80733
Nuclear contribution   :    -12.24243       5.65155      18.00256
                        -----------------------------------------
Total Dipole Moment    :     -0.23826      -0.06700       0.19523
                        -----------------------------------------
Magnitude (a.u.)       :      0.31523
Magnitude (Debye)      :      0.80126

Rotational constants in cm-1:     0.020069     0.007725     0.006152
Rotational constants in MHz :   601.662862   231.593462   184.418441

                             ****ORCA TERMINATED NORMALLY****
TOTAL RUN TIME: 0 days 0 hours 0 minutes 20 seconds 963 msec
