                         Program Version 4.2.1 -  RELEASE  -
|  1> ! wB97X-D3 SP def2-SVP
|  2> %pal
|  3> nprocs 24
|  4> end
|  5>
|  6> * xyz 0 1
|  7> S 	 39.7794 	 -18.5588 	 -110.929
|  8> C 	 38.5905 	 -17.6633 	 -111.815
|  9> C 	 37.8218 	 -16.8339 	 -110.983
| 10> C 	 38.429 	 -16.7625 	 -109.664
| 11> C 	 39.4968 	 -17.6212 	 -109.463
| 12> H 	 37.963 	 -16.2626 	 -108.778
| 13> C 	 36.6067 	 -16.116 	 -111.5
| 14> H 	 36.7346 	 -15.602 	 -112.473
| 15> H 	 36.4823 	 -15.4169 	 -110.677
| 16> C 	 35.3495 	 -16.9303 	 -111.542
| 17> H 	 35.4546 	 -17.7997 	 -112.231
| 18> H 	 35.1813 	 -17.3697 	 -110.544
| 19> C 	 34.1998 	 -16.0031 	 -111.955
| 20> H 	 33.3157 	 -16.5212 	 -111.792
| 21> H 	 34.1386 	 -15.1248 	 -111.328
| 22> H 	 34.3341 	 -15.6497 	 -112.961
| 23> S 	 41.9097 	 -17.8389 	 -108.243
| 24> C 	 41.9809 	 -18.4887 	 -106.673
| 25> C 	 40.7455 	 -18.5941 	 -106.065
| 26> C 	 39.6917 	 -18.3023 	 -106.969
| 27> C 	 40.1231 	 -17.9431 	 -108.226
| 28> H 	 40.6483 	 -18.9456 	 -105.061
| 29> C 	 38.2671 	 -18.0774 	 -106.491
| 30> H 	 37.6366 	 -18.148 	 -107.371
| 31> H 	 38.3238 	 -17.0602 	 -106.255
| 32> C 	 37.8344 	 -18.9549 	 -105.363
| 33> H 	 38.5919 	 -19.2856 	 -104.581
| 34> H 	 37.5849 	 -19.9218 	 -105.869
| 35> C 	 36.5675 	 -18.2936 	 -104.761
| 36> H 	 36.8352 	 -17.4287 	 -104.132
| 37> H 	 36.0237 	 -19.0627 	 -104.186
| 38> H 	 35.9253 	 -18.0355 	 -105.575
| 39> H 	 38.3575 	 -17.8506 	 -112.808
| 40> H 	 42.8669 	 -18.6105 	 -106.061
| 41> *
| 42>
| 43>                          ****END OF INPUT****

CARTESIAN COORDINATES (ANGSTROEM)
---------------------------------
  S     39.779400  -18.558800  -110.929000
  C     38.590500  -17.663300  -111.815000
  C     37.821800  -16.833900  -110.983000
  C     38.429000  -16.762500  -109.664000
  C     39.496800  -17.621200  -109.463000
  H     37.963000  -16.262600  -108.778000
  C     36.606700  -16.116000  -111.500000
  H     36.734600  -15.602000  -112.473000
  H     36.482300  -15.416900  -110.677000
  C     35.349500  -16.930300  -111.542000
  H     35.454600  -17.799700  -112.231000
  H     35.181300  -17.369700  -110.544000
  C     34.199800  -16.003100  -111.955000
  H     33.315700  -16.521200  -111.792000
  H     34.138600  -15.124800  -111.328000
  H     34.334100  -15.649700  -112.961000
  S     41.909700  -17.838900  -108.243000
  C     41.980900  -18.488700  -106.673000
  C     40.745500  -18.594100  -106.065000
  C     39.691700  -18.302300  -106.969000
  C     40.123100  -17.943100  -108.226000
  H     40.648300  -18.945600  -105.061000
  C     38.267100  -18.077400  -106.491000
  H     37.636600  -18.148000  -107.371000
  H     38.323800  -17.060200  -106.255000
  C     37.834400  -18.954900  -105.363000
  H     38.591900  -19.285600  -104.581000
  H     37.584900  -19.921800  -105.869000
  C     36.567500  -18.293600  -104.761000
  H     36.835200  -17.428700  -104.132000
  H     36.023700  -19.062700  -104.186000
  H     35.925300  -18.035500  -105.575000
  H     38.357500  -17.850600  -112.808000
  H     42.866900  -18.610500  -106.061000

 Total Charge           Charge          ....    0
 Multiplicity           Mult            ....    1
 Number of Electrons    NEL             ....  134
 Basis Dimension        Dim             ....  322

ORBITAL ENERGIES
----------------

  NO   OCC          E(Eh)            E(eV)
   0   2.0000     -88.964332     -2420.8425
   1   2.0000     -88.961434     -2420.7637
   2   2.0000     -10.326318      -280.9934
   3   2.0000     -10.319346      -280.8037
   4   2.0000     -10.312412      -280.6150
   5   2.0000     -10.308180      -280.4998
   6   2.0000     -10.302689      -280.3504
   7   2.0000     -10.300594      -280.2934
   8   2.0000     -10.299914      -280.2749
   9   2.0000     -10.293038      -280.0878
  10   2.0000     -10.289665      -279.9960
  11   2.0000     -10.287492      -279.9369
  12   2.0000     -10.287249      -279.9303
  13   2.0000     -10.285214      -279.8749
  14   2.0000     -10.281775      -279.7813
  15   2.0000     -10.271594      -279.5043
  16   2.0000      -8.079116      -219.8439
  17   2.0000      -8.076771      -219.7801
  18   2.0000      -6.037553      -164.2902
  19   2.0000      -6.035130      -164.2242
  20   2.0000      -6.033579      -164.1820
  21   2.0000      -6.031252      -164.1187
  22   2.0000      -6.029969      -164.0838
  23   2.0000      -6.027584      -164.0189
  24   2.0000      -1.006991       -27.4016
  25   2.0000      -0.983432       -26.7606
  26   2.0000      -0.920026       -25.0352
  27   2.0000      -0.918058       -24.9816
  28   2.0000      -0.873066       -23.7573
  29   2.0000      -0.853150       -23.2154
  30   2.0000      -0.845732       -23.0135
  31   2.0000      -0.813725       -22.1426
  32   2.0000      -0.783944       -21.3322
  33   2.0000      -0.770070       -20.9547
  34   2.0000      -0.709289       -19.3007
  35   2.0000      -0.701825       -19.0976
  36   2.0000      -0.699432       -19.0325
  37   2.0000      -0.655695       -17.8424
  38   2.0000      -0.643527       -17.5113
  39   2.0000      -0.618671       -16.8349
  40   2.0000      -0.598041       -16.2735
  41   2.0000      -0.570811       -15.5326
  42   2.0000      -0.569855       -15.5066
  43   2.0000      -0.568128       -15.4596
  44   2.0000      -0.533380       -14.5140
  45   2.0000      -0.527109       -14.3434
  46   2.0000      -0.520051       -14.1513
  47   2.0000      -0.514713       -14.0060
  48   2.0000      -0.504806       -13.7365
  49   2.0000      -0.501765       -13.6537
  50   2.0000      -0.495879       -13.4935
  51   2.0000      -0.474827       -12.9207
  52   2.0000      -0.470409       -12.8005
  53   2.0000      -0.465185       -12.6583
  54   2.0000      -0.461089       -12.5469
  55   2.0000      -0.451109       -12.2753
  56   2.0000      -0.446873       -12.1600
  57   2.0000      -0.444014       -12.0822
  58   2.0000      -0.438237       -11.9250
  59   2.0000      -0.426524       -11.6063
  60   2.0000      -0.422887       -11.5073
  61   2.0000      -0.410729       -11.1765
  62   2.0000      -0.408886       -11.1264
  63   2.0000      -0.340878        -9.2758
  64   2.0000      -0.331402        -9.0179
  65   2.0000      -0.325057        -8.8452
  66   2.0000      -0.291587        -7.9345
  67   0.0000       0.030725         0.8361
  68   0.0000       0.067508         1.8370
  69   0.0000       0.112381         3.0580
  70   0.0000       0.115307         3.1377
  71   0.0000       0.128922         3.5081

MULLIKEN ATOMIC CHARGES
-----------------------
   0 S :    0.121989
   1 C :   -0.083491
   2 C :   -0.111822
   3 C :    0.014039
   4 C :   -0.141062
   5 H :    0.029138
   6 C :    0.051045
   7 H :    0.040702
   8 H :    0.013378
   9 C :   -0.094730
  10 H :    0.031598
  11 H :    0.023624
  12 C :    0.013033
  13 H :    0.020906
  14 H :    0.017386
  15 H :    0.027399
  16 S :    0.110185
  17 C :   -0.065985
  18 C :   -0.061969
  19 C :   -0.008461
  20 C :   -0.202520
  21 H :    0.011284
  22 C :    0.062893
  23 H :    0.035548
  24 H :    0.034291
  25 C :   -0.120029
  26 H :    0.046938
  27 H :    0.035781
  28 C :   -0.034070
  29 H :    0.049845
  30 H :    0.032445
  31 H :    0.025913
  32 H :    0.022417
  33 H :    0.052363
Sum of atomic charges:   -0.0000000

LOEWDIN ATOMIC CHARGES
----------------------
   0 S :    0.414199
   1 C :   -0.188563
   2 C :   -0.061795
   3 C :   -0.071102
   4 C :   -0.203210
   5 H :    0.036259
   6 C :   -0.039029
   7 H :    0.035521
   8 H :    0.030524
   9 C :   -0.039362
  10 H :    0.023617
  11 H :    0.024307
  12 C :   -0.053831
  13 H :    0.018476
  14 H :    0.024478
  15 H :    0.024485
  16 S :    0.411484
  17 C :   -0.191380
  18 C :   -0.080348
  19 C :   -0.043502
  20 C :   -0.200168
  21 H :    0.026198
  22 C :   -0.030281
  23 H :    0.033192
  24 H :    0.027229
  25 C :   -0.049753
  26 H :    0.029529
  27 H :    0.031840
  28 C :   -0.060721
  29 H :    0.030000
  30 H :    0.027237
  31 H :    0.022263
  32 H :    0.012078
  33 H :    0.030131

  Mayer bond orders larger than 0.100000
B(  0-S ,  1-C ) :   1.1546 B(  0-S ,  4-C ) :   1.1509 B(  1-C ,  2-C ) :   1.5820
B(  1-C , 32-H ) :   0.9775 B(  2-C ,  3-C ) :   1.2558 B(  2-C ,  6-C ) :   1.0152
B(  3-C ,  4-C ) :   1.5576 B(  3-C ,  5-H ) :   0.9824 B(  4-C , 20-C ) :   1.0617
B(  6-C ,  7-H ) :   0.9461 B(  6-C ,  8-H ) :   0.9363 B(  6-C ,  9-C ) :   1.0711
B(  9-C , 10-H ) :   0.9547 B(  9-C , 11-H ) :   0.9510 B(  9-C , 12-C ) :   1.0820
B( 12-C , 13-H ) :   0.9723 B( 12-C , 14-H ) :   0.9719 B( 12-C , 15-H ) :   0.9722
B( 16-S , 17-C ) :   1.1785 B( 16-S , 20-C ) :   1.1264 B( 17-C , 18-C ) :   1.6026
B( 17-C , 33-H ) :   0.9609 B( 18-C , 19-C ) :   1.2426 B( 18-C , 21-H ) :   0.9902
B( 19-C , 20-C ) :   1.5954 B( 19-C , 22-C ) :   1.0241 B( 22-C , 23-H ) :   0.9222
B( 22-C , 24-H ) :   0.9436 B( 22-C , 25-C ) :   1.0467 B( 25-C , 26-H ) :   0.9597
B( 25-C , 27-H ) :   0.9533 B( 25-C , 28-C ) :   1.0752 B( 28-C , 29-H ) :   0.9783
B( 28-C , 30-H ) :   0.9732 B( 28-C , 31-H ) :   0.9704

Dispersion correction           -0.013528416
FINAL SINGLE POINT ENERGY     -1339.870535224674

DIPOLE MOMENT
-------------
                                X             Y             Z
Electronic contribution:     30.00681      -5.01100      -6.66325
Nuclear contribution   :    -30.73355       5.11789       7.01234
                        -----------------------------------------
Total Dipole Moment    :     -0.72674       0.10690       0.34909
                        -----------------------------------------
Magnitude (a.u.)       :      0.81329
Magnitude (Debye)      :      2.06722

Rotational constants in cm-1:     0.017692     0.008505     0.006097
Rotational constants in MHz :   530.404720   254.977702   182.789344

                             ****ORCA TERMINATED NORMALLY****
TOTAL RUN TIME: 0 days 0 hours 0 minutes 21 seconds 333 msec
