                         Program Version 4.2.1 -  RELEASE  -
|  1> ! wB97X-D3 SP def2-SVP
|  2> %pal
|  3> nprocs 24
|  4> end
|  5>
|  6> * xyz 0 1
|  7> S 	 -107.095 	 53.5061 	 -111.013
|  8> C 	 -106.681 	 55.1379 	 -111.366
|  9> C 	 -107.695 	 55.9801 	 -110.992
| 10> C 	 -108.888 	 55.3661 	 -110.458
| 11> C 	 -108.655 	 53.9865 	 -110.438
| 12> H 	 -109.753 	 55.7747 	 -110.083
| 13> C 	 -107.604 	 57.4597 	 -111.016
| 14> H 	 -108.646 	 57.7846 	 -110.817
| 15> H 	 -107.27 	 57.7809 	 -111.988
| 16> C 	 -106.578 	 58.0738 	 -110.032
| 17> H 	 -105.71 	 57.3834 	 -109.98
| 18> H 	 -106.281 	 59.063 	 -110.473
| 19> C 	 -107.062 	 58.2204 	 -108.571
| 20> H 	 -106.431 	 58.9285 	 -108.043
| 21> H 	 -107.993 	 58.7512 	 -108.554
| 22> H 	 -107.028 	 57.3253 	 -108.002
| 23> S 	 -108.8 	 51.8021 	 -108.796
| 24> C 	 -110.291 	 51.0196 	 -108.478
| 25> C 	 -111.361 	 51.6308 	 -109.149
| 26> C 	 -110.918 	 52.7174 	 -109.962
| 27> C 	 -109.532 	 52.9259 	 -109.943
| 28> H 	 -112.41 	 51.2529 	 -109.122
| 29> C 	 -111.844 	 53.46 	 -110.866
| 30> H 	 -112.708 	 52.7834 	 -111.034
| 31> H 	 -111.333 	 53.6357 	 -111.846
| 32> C 	 -112.439 	 54.6729 	 -110.148
| 33> H 	 -111.735 	 55.4148 	 -109.714
| 34> H 	 -113.005 	 54.3112 	 -109.243
| 35> C 	 -113.331 	 55.5214 	 -110.977
| 36> H 	 -114.012 	 54.8995 	 -111.616
| 37> H 	 -112.607 	 56.0119 	 -111.718
| 38> H 	 -113.953 	 56.2498 	 -110.392
| 39> H 	 -105.631 	 55.458 	 -111.596
| 40> H 	 -110.371 	 50.2423 	 -107.672
| 41> *
| 42>
| 43>                          ****END OF INPUT****

CARTESIAN COORDINATES (ANGSTROEM)
---------------------------------
  S    -107.095000   53.506100  -111.013000
  C    -106.681000   55.137900  -111.366000
  C    -107.695000   55.980100  -110.992000
  C    -108.888000   55.366100  -110.458000
  C    -108.655000   53.986500  -110.438000
  H    -109.753000   55.774700  -110.083000
  C    -107.604000   57.459700  -111.016000
  H    -108.646000   57.784600  -110.817000
  H    -107.270000   57.780900  -111.988000
  C    -106.578000   58.073800  -110.032000
  H    -105.710000   57.383400  -109.980000
  H    -106.281000   59.063000  -110.473000
  C    -107.062000   58.220400  -108.571000
  H    -106.431000   58.928500  -108.043000
  H    -107.993000   58.751200  -108.554000
  H    -107.028000   57.325300  -108.002000
  S    -108.800000   51.802100  -108.796000
  C    -110.291000   51.019600  -108.478000
  C    -111.361000   51.630800  -109.149000
  C    -110.918000   52.717400  -109.962000
  C    -109.532000   52.925900  -109.943000
  H    -112.410000   51.252900  -109.122000
  C    -111.844000   53.460000  -110.866000
  H    -112.708000   52.783400  -111.034000
  H    -111.333000   53.635700  -111.846000
  C    -112.439000   54.672900  -110.148000
  H    -111.735000   55.414800  -109.714000
  H    -113.005000   54.311200  -109.243000
  C    -113.331000   55.521400  -110.977000
  H    -114.012000   54.899500  -111.616000
  H    -112.607000   56.011900  -111.718000
  H    -113.953000   56.249800  -110.392000
  H    -105.631000   55.458000  -111.596000
  H    -110.371000   50.242300  -107.672000

 Total Charge           Charge          ....    0
 Multiplicity           Mult            ....    1
 Number of Electrons    NEL             ....  134
 Basis Dimension        Dim             ....  322

ORBITAL ENERGIES
----------------

  NO   OCC          E(Eh)            E(eV)
   0   2.0000     -88.965900     -2420.8852
   1   2.0000     -88.965081     -2420.8629
   2   2.0000     -10.331009      -281.1210
   3   2.0000     -10.325070      -280.9594
   4   2.0000     -10.322257      -280.8829
   5   2.0000     -10.310311      -280.5578
   6   2.0000     -10.302852      -280.3549
   7   2.0000     -10.300287      -280.2851
   8   2.0000     -10.297109      -280.1986
   9   2.0000     -10.296437      -280.1803
  10   2.0000     -10.292711      -280.0789
  11   2.0000     -10.291958      -280.0584
  12   2.0000     -10.289934      -280.0033
  13   2.0000     -10.286819      -279.9186
  14   2.0000     -10.285396      -279.8799
  15   2.0000     -10.270721      -279.4805
  16   2.0000      -8.081540      -219.9099
  17   2.0000      -8.080282      -219.8757
  18   2.0000      -6.039934      -164.3550
  19   2.0000      -6.038653      -164.3201
  20   2.0000      -6.035861      -164.2441
  21   2.0000      -6.034542      -164.2082
  22   2.0000      -6.032438      -164.1510
  23   2.0000      -6.031350      -164.1214
  24   2.0000      -1.010181       -27.4884
  25   2.0000      -0.986831       -26.8530
  26   2.0000      -0.916876       -24.9495
  27   2.0000      -0.910995       -24.7894
  28   2.0000      -0.865622       -23.5548
  29   2.0000      -0.857277       -23.3277
  30   2.0000      -0.850294       -23.1377
  31   2.0000      -0.813519       -22.1370
  32   2.0000      -0.781669       -21.2703
  33   2.0000      -0.767230       -20.8774
  34   2.0000      -0.702406       -19.1134
  35   2.0000      -0.694933       -18.9101
  36   2.0000      -0.687197       -18.6996
  37   2.0000      -0.666869       -18.1464
  38   2.0000      -0.642816       -17.4919
  39   2.0000      -0.611764       -16.6469
  40   2.0000      -0.594959       -16.1897
  41   2.0000      -0.570297       -15.5186
  42   2.0000      -0.566709       -15.4209
  43   2.0000      -0.547784       -14.9060
  44   2.0000      -0.539605       -14.6834
  45   2.0000      -0.531270       -14.4566
  46   2.0000      -0.519606       -14.1392
  47   2.0000      -0.511659       -13.9230
  48   2.0000      -0.507964       -13.8224
  49   2.0000      -0.502249       -13.6669
  50   2.0000      -0.491156       -13.3650
  51   2.0000      -0.476436       -12.9645
  52   2.0000      -0.471767       -12.8374
  53   2.0000      -0.466268       -12.6878
  54   2.0000      -0.457511       -12.4495
  55   2.0000      -0.450211       -12.2509
  56   2.0000      -0.441240       -12.0068
  57   2.0000      -0.436977       -11.8907
  58   2.0000      -0.433934       -11.8079
  59   2.0000      -0.422042       -11.4844
  60   2.0000      -0.417461       -11.3597
  61   2.0000      -0.415842       -11.3156
  62   2.0000      -0.407877       -11.0989
  63   2.0000      -0.349111        -9.4998
  64   2.0000      -0.331133        -9.0106
  65   2.0000      -0.329996        -8.9796
  66   2.0000      -0.287326        -7.8185
  67   0.0000       0.026947         0.7333
  68   0.0000       0.071070         1.9339
  69   0.0000       0.112633         3.0649
  70   0.0000       0.119787         3.2596
  71   0.0000       0.130274         3.5449

MULLIKEN ATOMIC CHARGES
-----------------------
   0 S :    0.113329
   1 C :   -0.136114
   2 C :   -0.098568
   3 C :    0.079213
   4 C :   -0.143110
   5 H :   -0.044581
   6 C :    0.083269
   7 H :    0.019180
   8 H :    0.024431
   9 C :   -0.100915
  10 H :    0.030111
  11 H :    0.036067
  12 C :   -0.024392
  13 H :    0.021031
  14 H :    0.017210
  15 H :    0.042920
  16 S :    0.103339
  17 C :   -0.109171
  18 C :   -0.042979
  19 C :   -0.055429
  20 C :   -0.139888
  21 H :    0.036264
  22 C :    0.057740
  23 H :    0.022220
  24 H :    0.052670
  25 C :   -0.115495
  26 H :    0.033783
  27 H :    0.027336
  28 C :   -0.049339
  29 H :    0.025525
  30 H :    0.035275
  31 H :    0.050848
  32 H :    0.068982
  33 H :    0.079237
Sum of atomic charges:   -0.0000000

LOEWDIN ATOMIC CHARGES
----------------------
   0 S :    0.427082
   1 C :   -0.225530
   2 C :   -0.060998
   3 C :   -0.054194
   4 C :   -0.187203
   5 H :    0.015225
   6 C :   -0.035750
   7 H :    0.029501
   8 H :    0.030430
   9 C :   -0.038533
  10 H :    0.025368
  11 H :    0.027417
  12 C :   -0.065169
  13 H :    0.027645
  14 H :    0.020785
  15 H :    0.024826
  16 S :    0.419124
  17 C :   -0.203039
  18 C :   -0.081177
  19 C :   -0.057659
  20 C :   -0.204699
  21 H :    0.039687
  22 C :   -0.033581
  23 H :    0.035861
  24 H :    0.039687
  25 C :   -0.054741
  26 H :    0.022449
  27 H :    0.027273
  28 C :   -0.074553
  29 H :    0.022304
  30 H :    0.032265
  31 H :    0.032107
  32 H :    0.038583
  33 H :    0.039208

  Mayer bond orders larger than 0.100000
B(  0-S ,  1-C ) :   1.1237 B(  0-S ,  4-C ) :   1.1890 B(  1-C ,  2-C ) :   1.6120
B(  1-C , 32-H ) :   0.9611 B(  2-C ,  3-C ) :   1.2276 B(  2-C ,  6-C ) :   1.0317
B(  3-C ,  4-C ) :   1.5422 B(  3-C ,  5-H ) :   1.0099 B(  4-C , 20-C ) :   1.0186
B(  6-C ,  7-H ) :   0.9449 B(  6-C ,  8-H ) :   0.9320 B(  6-C ,  9-C ) :   1.0634
B(  9-C , 10-H ) :   0.9580 B(  9-C , 11-H ) :   0.9586 B(  9-C , 12-C ) :   1.0795
B( 12-C , 13-H ) :   0.9711 B( 12-C , 14-H ) :   0.9740 B( 12-C , 15-H ) :   0.9773
B( 16-S , 17-C ) :   1.1900 B( 16-S , 20-C ) :   1.1415 B( 17-C , 18-C ) :   1.5566
B( 17-C , 20-C ) :   0.1054 B( 17-C , 33-H ) :   0.9607 B( 18-C , 19-C ) :   1.2824
B( 18-C , 21-H ) :   0.9825 B( 19-C , 20-C ) :   1.5777 B( 19-C , 22-C ) :   1.0462
B( 22-C , 23-H ) :   0.9262 B( 22-C , 24-H ) :   0.9443 B( 22-C , 25-C ) :   1.0502
B( 25-C , 26-H ) :   0.9550 B( 25-C , 27-H ) :   0.9469 B( 25-C , 28-C ) :   1.0834
B( 28-C , 29-H ) :   0.9696 B( 28-C , 30-H ) :   0.9725 B( 28-C , 31-H ) :   0.9722

Dispersion correction           -0.014520073
FINAL SINGLE POINT ENERGY     -1339.880557306538

DIPOLE MOMENT
-------------
                                X             Y             Z
Electronic contribution:     11.65636     -24.27915       0.28879
Nuclear contribution   :    -11.99308      24.69437      -0.13074
                        -----------------------------------------
Total Dipole Moment    :     -0.33672       0.41521       0.15804
                        -----------------------------------------
Magnitude (a.u.)       :      0.55746
Magnitude (Debye)      :      1.41694

Rotational constants in cm-1:     0.017661     0.009365     0.007217
Rotational constants in MHz :   529.449776   280.746811   216.359639

                             ****ORCA TERMINATED NORMALLY****
TOTAL RUN TIME: 0 days 0 hours 0 minutes 21 seconds 998 msec
