                         Program Version 4.2.1 -  RELEASE  -
|  1> ! wB97X-D3 SP def2-SVP
|  2> %pal
|  3> nprocs 24
|  4> end
|  5>
|  6> * xyz 0 1
|  7> S 	 -43.7105 	 15.7216 	 28.089
|  8> C 	 -43.8882 	 17.4409 	 27.6175
|  9> C 	 -44.6178 	 18.111 	 28.6218
| 10> C 	 -44.8222 	 17.3309 	 29.7607
| 11> C 	 -44.3885 	 16.015 	 29.6614
| 12> H 	 -45.3823 	 17.6112 	 30.6712
| 13> C 	 -45.0558 	 19.5812 	 28.6066
| 14> H 	 -45.9065 	 19.6804 	 29.204
| 15> H 	 -45.2665 	 19.8005 	 27.567
| 16> C 	 -44.0182 	 20.5777 	 28.9578
| 17> H 	 -43.0362 	 20.2882 	 28.6113
| 18> H 	 -44.0778 	 21.5061 	 28.4696
| 19> C 	 -43.7442 	 20.7014 	 30.4885
| 20> H 	 -43.7975 	 19.744 	 30.9455
| 21> H 	 -42.7764 	 21.2226 	 30.691
| 22> H 	 -44.5632 	 21.1837 	 31.0511
| 23> S 	 -46.2759 	 14.3774 	 30.7988
| 24> C 	 -45.8989 	 13.5972 	 32.3233
| 25> C 	 -44.5202 	 13.765 	 32.609
| 26> C 	 -43.83 	 14.5215 	 31.6401
| 27> C 	 -44.6739 	 15.0108 	 30.6411
| 28> H 	 -44.058 	 13.4559 	 33.5808
| 29> C 	 -42.4271 	 15.0054 	 31.8587
| 30> H 	 -42.0068 	 15.2847 	 30.9126
| 31> H 	 -41.728 	 14.1537 	 32.181
| 32> C 	 -42.3203 	 16.185 	 32.826
| 33> H 	 -42.7857 	 15.9931 	 33.823
| 34> H 	 -42.9527 	 16.9992 	 32.4584
| 35> C 	 -40.8843 	 16.7552 	 32.9046
| 36> H 	 -40.2374 	 15.9111 	 33.1724
| 37> H 	 -40.7461 	 17.4559 	 33.7359
| 38> H 	 -40.4808 	 17.1763 	 31.9956
| 39> H 	 -43.6444 	 17.9615 	 26.6734
| 40> H 	 -46.6924 	 13.071 	 32.8324
| 41> *
| 42>
| 43>                          ****END OF INPUT****

CARTESIAN COORDINATES (ANGSTROEM)
---------------------------------
  S    -43.710500   15.721600   28.089000
  C    -43.888200   17.440900   27.617500
  C    -44.617800   18.111000   28.621800
  C    -44.822200   17.330900   29.760700
  C    -44.388500   16.015000   29.661400
  H    -45.382300   17.611200   30.671200
  C    -45.055800   19.581200   28.606600
  H    -45.906500   19.680400   29.204000
  H    -45.266500   19.800500   27.567000
  C    -44.018200   20.577700   28.957800
  H    -43.036200   20.288200   28.611300
  H    -44.077800   21.506100   28.469600
  C    -43.744200   20.701400   30.488500
  H    -43.797500   19.744000   30.945500
  H    -42.776400   21.222600   30.691000
  H    -44.563200   21.183700   31.051100
  S    -46.275900   14.377400   30.798800
  C    -45.898900   13.597200   32.323300
  C    -44.520200   13.765000   32.609000
  C    -43.830000   14.521500   31.640100
  C    -44.673900   15.010800   30.641100
  H    -44.058000   13.455900   33.580800
  C    -42.427100   15.005400   31.858700
  H    -42.006800   15.284700   30.912600
  H    -41.728000   14.153700   32.181000
  C    -42.320300   16.185000   32.826000
  H    -42.785700   15.993100   33.823000
  H    -42.952700   16.999200   32.458400
  C    -40.884300   16.755200   32.904600
  H    -40.237400   15.911100   33.172400
  H    -40.746100   17.455900   33.735900
  H    -40.480800   17.176300   31.995600
  H    -43.644400   17.961500   26.673400
  H    -46.692400   13.071000   32.832400

 Total Charge           Charge          ....    0
 Multiplicity           Mult            ....    1
 Number of Electrons    NEL             ....  134
 Basis Dimension        Dim             ....  322

ORBITAL ENERGIES
----------------

  NO   OCC          E(Eh)            E(eV)
   0   2.0000     -88.972508     -2421.0650
   1   2.0000     -88.967157     -2420.9194
   2   2.0000     -10.325535      -280.9721
   3   2.0000     -10.323866      -280.9267
   4   2.0000     -10.323052      -280.9045
   5   2.0000     -10.321568      -280.8641
   6   2.0000     -10.302085      -280.3340
   7   2.0000     -10.301625      -280.3215
   8   2.0000     -10.300530      -280.2917
   9   2.0000     -10.292461      -280.0721
  10   2.0000     -10.291763      -280.0531
  11   2.0000     -10.287981      -279.9502
  12   2.0000     -10.286441      -279.9083
  13   2.0000     -10.278252      -279.6854
  14   2.0000     -10.276877      -279.6480
  15   2.0000     -10.276557      -279.6393
  16   2.0000      -8.086013      -220.0316
  17   2.0000      -8.082146      -219.9264
  18   2.0000      -6.044575      -164.4812
  19   2.0000      -6.040540      -164.3714
  20   2.0000      -6.040431      -164.3685
  21   2.0000      -6.036927      -164.2731
  22   2.0000      -6.036460      -164.2604
  23   2.0000      -6.033291      -164.1742
  24   2.0000      -1.008457       -27.4415
  25   2.0000      -0.983359       -26.7586
  26   2.0000      -0.918049       -24.9814
  27   2.0000      -0.907675       -24.6991
  28   2.0000      -0.867654       -23.6101
  29   2.0000      -0.850158       -23.1340
  30   2.0000      -0.845721       -23.0132
  31   2.0000      -0.808663       -22.0048
  32   2.0000      -0.784352       -21.3433
  33   2.0000      -0.770461       -20.9653
  34   2.0000      -0.710381       -19.3305
  35   2.0000      -0.703116       -19.1328
  36   2.0000      -0.697205       -18.9719
  37   2.0000      -0.662754       -18.0345
  38   2.0000      -0.638256       -17.3678
  39   2.0000      -0.614075       -16.7098
  40   2.0000      -0.600099       -16.3295
  41   2.0000      -0.570564       -15.5258
  42   2.0000      -0.556342       -15.1388
  43   2.0000      -0.554802       -15.0969
  44   2.0000      -0.538778       -14.6609
  45   2.0000      -0.524079       -14.2609
  46   2.0000      -0.518368       -14.1055
  47   2.0000      -0.513517       -13.9735
  48   2.0000      -0.511605       -13.9215
  49   2.0000      -0.495077       -13.4717
  50   2.0000      -0.481975       -13.1152
  51   2.0000      -0.477995       -13.0069
  52   2.0000      -0.471584       -12.8324
  53   2.0000      -0.464303       -12.6343
  54   2.0000      -0.461180       -12.5494
  55   2.0000      -0.451803       -12.2942
  56   2.0000      -0.442437       -12.0393
  57   2.0000      -0.437495       -11.9048
  58   2.0000      -0.434262       -11.8169
  59   2.0000      -0.428300       -11.6546
  60   2.0000      -0.422596       -11.4994
  61   2.0000      -0.408952       -11.1281
  62   2.0000      -0.406678       -11.0663
  63   2.0000      -0.339597        -9.2409
  64   2.0000      -0.331461        -9.0195
  65   2.0000      -0.320542        -8.7224
  66   2.0000      -0.306211        -8.3324
  67   0.0000       0.035022         0.9530
  68   0.0000       0.050508         1.3744
  69   0.0000       0.111589         3.0365
  70   0.0000       0.121119         3.2958
  71   0.0000       0.126731         3.4485

MULLIKEN ATOMIC CHARGES
-----------------------
   0 S :    0.129579
   1 C :   -0.129410
   2 C :   -0.109014
   3 C :    0.021729
   4 C :   -0.175085
   5 H :    0.026613
   6 C :    0.122984
   7 H :    0.013020
   8 H :    0.015174
   9 C :   -0.024011
  10 H :    0.008233
  11 H :    0.014688
  12 C :   -0.072205
  13 H :    0.017778
  14 H :    0.046489
  15 H :    0.021266
  16 S :    0.125165
  17 C :   -0.118403
  18 C :   -0.038599
  19 C :   -0.005385
  20 C :   -0.194609
  21 H :    0.038767
  22 C :    0.064899
  23 H :    0.011341
  24 H :    0.034294
  25 C :   -0.077297
  26 H :    0.029287
  27 H :    0.024222
  28 C :   -0.036812
  29 H :    0.018683
  30 H :    0.034025
  31 H :    0.039250
  32 H :    0.056813
  33 H :    0.066533
Sum of atomic charges:   -0.0000000

LOEWDIN ATOMIC CHARGES
----------------------
   0 S :    0.412829
   1 C :   -0.199091
   2 C :   -0.058756
   3 C :   -0.068722
   4 C :   -0.207825
   5 H :    0.035985
   6 C :   -0.021116
   7 H :    0.023355
   8 H :    0.034462
   9 C :   -0.040361
  10 H :    0.025915
  11 H :    0.017556
  12 C :   -0.069142
  13 H :    0.018812
  14 H :    0.031958
  15 H :    0.021657
  16 S :    0.425425
  17 C :   -0.185442
  18 C :   -0.072808
  19 C :   -0.055545
  20 C :   -0.216695
  21 H :    0.039530
  22 C :   -0.035913
  23 H :    0.024680
  24 H :    0.037094
  25 C :   -0.043031
  26 H :    0.026461
  27 H :    0.023987
  28 C :   -0.066409
  29 H :    0.023419
  30 H :    0.027972
  31 H :    0.025550
  32 H :    0.037141
  33 H :    0.027068

  Mayer bond orders larger than 0.100000
B(  0-S ,  1-C ) :   1.1434 B(  0-S ,  4-C ) :   1.1574 B(  1-C ,  2-C ) :   1.5797
B(  1-C ,  4-C ) :   0.1141 B(  1-C , 32-H ) :   0.9635 B(  2-C ,  3-C ) :   1.2714
B(  2-C ,  6-C ) :   1.0318 B(  3-C ,  4-C ) :   1.5532 B(  3-C ,  5-H ) :   0.9845
B(  4-C , 20-C ) :   1.0374 B(  6-C ,  7-H ) :   0.9448 B(  6-C ,  8-H ) :   0.9244
B(  6-C ,  9-C ) :   1.0780 B(  9-C , 10-H ) :   0.9485 B(  9-C , 11-H ) :   0.9563
B(  9-C , 12-C ) :   1.0658 B( 12-C , 13-H ) :   0.9744 B( 12-C , 14-H ) :   0.9768
B( 12-C , 15-H ) :   0.9744 B( 16-S , 17-C ) :   1.1791 B( 16-S , 20-C ) :   1.1667
B( 17-C , 18-C ) :   1.5412 B( 17-C , 20-C ) :   0.1109 B( 17-C , 33-H ) :   0.9753
B( 18-C , 19-C ) :   1.2861 B( 18-C , 21-H ) :   0.9841 B( 19-C , 20-C ) :   1.5477
B( 19-C , 22-C ) :   1.0683 B( 22-C , 23-H ) :   0.9186 B( 22-C , 24-H ) :   0.9298
B( 22-C , 25-C ) :   1.0615 B( 25-C , 26-H ) :   0.9557 B( 25-C , 27-H ) :   0.9503
B( 25-C , 28-C ) :   1.0774 B( 28-C , 29-H ) :   0.9734 B( 28-C , 30-H ) :   0.9739
B( 28-C , 31-H ) :   0.9760

Dispersion correction           -0.015226646
FINAL SINGLE POINT ENERGY     -1339.877470529186

DIPOLE MOMENT
-------------
                                X             Y             Z
Electronic contribution:    -13.86424     -21.69027     -11.44977
Nuclear contribution   :     13.92698      22.14353      11.72291
                        -----------------------------------------
Total Dipole Moment    :      0.06273       0.45325       0.27314
                        -----------------------------------------
Magnitude (a.u.)       :      0.53290
Magnitude (Debye)      :      1.35452

Rotational constants in cm-1:     0.017082     0.009690     0.007850
Rotational constants in MHz :   512.100170   290.489181   235.325627

                             ****ORCA TERMINATED NORMALLY****
TOTAL RUN TIME: 0 days 0 hours 0 minutes 23 seconds 434 msec
