                         Program Version 4.2.1 -  RELEASE  -
|  1> ! wB97X-D3 SP def2-SVP
|  2> %pal
|  3> nprocs 24
|  4> end
|  5>
|  6> * xyz 0 1
|  7> S 	 -32.4502 	 -35.0882 	 -85.6578
|  8> C 	 -31.395 	 -33.7128 	 -85.7582
|  9> C 	 -30.1127 	 -34.0881 	 -85.9975
| 10> C 	 -30.0025 	 -35.5336 	 -85.9852
| 11> C 	 -31.1851 	 -36.2386 	 -85.9235
| 12> H 	 -29.088 	 -36.1156 	 -86.0156
| 13> C 	 -28.8796 	 -33.2335 	 -86.0075
| 14> H 	 -28.9739 	 -32.5862 	 -85.1359
| 15> H 	 -29.0779 	 -32.7202 	 -86.9762
| 16> C 	 -27.4417 	 -33.8595 	 -86.0512
| 17> H 	 -27.1582 	 -34.1907 	 -85.0674
| 18> H 	 -27.5009 	 -34.7693 	 -86.6223
| 19> C 	 -26.4429 	 -32.9 	 -86.5519
| 20> H 	 -25.4346 	 -33.352 	 -86.3083
| 21> H 	 -26.6101 	 -32.759 	 -87.6752
| 22> H 	 -26.6001 	 -31.9467 	 -86.0869
| 23> S 	 -32.8627 	 -38.2562 	 -85.0716
| 24> C 	 -32.5245 	 -39.9121 	 -85.7156
| 25> C 	 -31.2448 	 -39.9867 	 -86.2466
| 26> C 	 -30.7034 	 -38.7419 	 -86.5456
| 27> C 	 -31.373 	 -37.7138 	 -85.8578
| 28> H 	 -30.8218 	 -40.8924 	 -86.6249
| 29> C 	 -29.4656 	 -38.5391 	 -87.3268
| 30> H 	 -28.5983 	 -38.7283 	 -86.6645
| 31> H 	 -29.4804 	 -37.5214 	 -87.7244
| 32> C 	 -29.3276 	 -39.5136 	 -88.4712
| 33> H 	 -30.3062 	 -39.8666 	 -88.9258
| 34> H 	 -28.7572 	 -40.3832 	 -88.1644
| 35> C 	 -28.4832 	 -38.9317 	 -89.64
| 36> H 	 -27.7569 	 -38.2082 	 -89.38
| 37> H 	 -29.2056 	 -38.4144 	 -90.2641
| 38> H 	 -28.032 	 -39.8176 	 -90.1468
| 39> H 	 -31.6118 	 -32.6643 	 -85.713
| 40> H 	 -33.0512 	 -40.7974 	 -85.3467
| 41> *
| 42>
| 43>                          ****END OF INPUT****

CARTESIAN COORDINATES (ANGSTROEM)
---------------------------------
  S    -32.450200  -35.088200  -85.657800
  C    -31.395000  -33.712800  -85.758200
  C    -30.112700  -34.088100  -85.997500
  C    -30.002500  -35.533600  -85.985200
  C    -31.185100  -36.238600  -85.923500
  H    -29.088000  -36.115600  -86.015600
  C    -28.879600  -33.233500  -86.007500
  H    -28.973900  -32.586200  -85.135900
  H    -29.077900  -32.720200  -86.976200
  C    -27.441700  -33.859500  -86.051200
  H    -27.158200  -34.190700  -85.067400
  H    -27.500900  -34.769300  -86.622300
  C    -26.442900  -32.900000  -86.551900
  H    -25.434600  -33.352000  -86.308300
  H    -26.610100  -32.759000  -87.675200
  H    -26.600100  -31.946700  -86.086900
  S    -32.862700  -38.256200  -85.071600
  C    -32.524500  -39.912100  -85.715600
  C    -31.244800  -39.986700  -86.246600
  C    -30.703400  -38.741900  -86.545600
  C    -31.373000  -37.713800  -85.857800
  H    -30.821800  -40.892400  -86.624900
  C    -29.465600  -38.539100  -87.326800
  H    -28.598300  -38.728300  -86.664500
  H    -29.480400  -37.521400  -87.724400
  C    -29.327600  -39.513600  -88.471200
  H    -30.306200  -39.866600  -88.925800
  H    -28.757200  -40.383200  -88.164400
  C    -28.483200  -38.931700  -89.640000
  H    -27.756900  -38.208200  -89.380000
  H    -29.205600  -38.414400  -90.264100
  H    -28.032000  -39.817600  -90.146800
  H    -31.611800  -32.664300  -85.713000
  H    -33.051200  -40.797400  -85.346700

 Total Charge           Charge          ....    0
 Multiplicity           Mult            ....    1
 Number of Electrons    NEL             ....  134
 Basis Dimension        Dim             ....  322

ORBITAL ENERGIES
----------------

  NO   OCC          E(Eh)            E(eV)
   0   2.0000     -88.968032     -2420.9432
   1   2.0000     -88.963174     -2420.8110
   2   2.0000     -10.331795      -281.1424
   3   2.0000     -10.327234      -281.0183
   4   2.0000     -10.322295      -280.8839
   5   2.0000     -10.306864      -280.4640
   6   2.0000     -10.299511      -280.2640
   7   2.0000     -10.297155      -280.1998
   8   2.0000     -10.295158      -280.1455
   9   2.0000     -10.292930      -280.0849
  10   2.0000     -10.291432      -280.0441
  11   2.0000     -10.288309      -279.9591
  12   2.0000     -10.288070      -279.9526
  13   2.0000     -10.285963      -279.8953
  14   2.0000     -10.284870      -279.8655
  15   2.0000     -10.277397      -279.6622
  16   2.0000      -8.081564      -219.9105
  17   2.0000      -8.078261      -219.8207
  18   2.0000      -6.040081      -164.3590
  19   2.0000      -6.036979      -164.2745
  20   2.0000      -6.036424      -164.2595
  21   2.0000      -6.032639      -164.1565
  22   2.0000      -6.032207      -164.1447
  23   2.0000      -6.028852      -164.0534
  24   2.0000      -1.006703       -27.3938
  25   2.0000      -0.985172       -26.8079
  26   2.0000      -0.918389       -24.9906
  27   2.0000      -0.914501       -24.8848
  28   2.0000      -0.874261       -23.7899
  29   2.0000      -0.853714       -23.2308
  30   2.0000      -0.846825       -23.0433
  31   2.0000      -0.815662       -22.1953
  32   2.0000      -0.779995       -21.2248
  33   2.0000      -0.770744       -20.9730
  34   2.0000      -0.709900       -19.3173
  35   2.0000      -0.700579       -19.0637
  36   2.0000      -0.691621       -18.8200
  37   2.0000      -0.655383       -17.8339
  38   2.0000      -0.636545       -17.3213
  39   2.0000      -0.617007       -16.7896
  40   2.0000      -0.598190       -16.2776
  41   2.0000      -0.578638       -15.7455
  42   2.0000      -0.577269       -15.7083
  43   2.0000      -0.568310       -15.4645
  44   2.0000      -0.534246       -14.5376
  45   2.0000      -0.524340       -14.2680
  46   2.0000      -0.519808       -14.1447
  47   2.0000      -0.511162       -13.9094
  48   2.0000      -0.501473       -13.6458
  49   2.0000      -0.496888       -13.5210
  50   2.0000      -0.491476       -13.3737
  51   2.0000      -0.482815       -13.1381
  52   2.0000      -0.476830       -12.9752
  53   2.0000      -0.473336       -12.8801
  54   2.0000      -0.456610       -12.4250
  55   2.0000      -0.450525       -12.2594
  56   2.0000      -0.446899       -12.1607
  57   2.0000      -0.433687       -11.8012
  58   2.0000      -0.426334       -11.6011
  59   2.0000      -0.423240       -11.5169
  60   2.0000      -0.419252       -11.4084
  61   2.0000      -0.415279       -11.3003
  62   2.0000      -0.412507       -11.2249
  63   2.0000      -0.355570        -9.6756
  64   2.0000      -0.334470        -9.1014
  65   2.0000      -0.324338        -8.8257
  66   2.0000      -0.283270        -7.7082
  67   0.0000       0.020782         0.5655
  68   0.0000       0.083162         2.2629
  69   0.0000       0.093827         2.5532
  70   0.0000       0.121236         3.2990
  71   0.0000       0.137945         3.7537

MULLIKEN ATOMIC CHARGES
-----------------------
   0 S :    0.102994
   1 C :   -0.114990
   2 C :   -0.078862
   3 C :   -0.041481
   4 C :   -0.109514
   5 H :    0.014257
   6 C :    0.013066
   7 H :    0.045807
   8 H :    0.044664
   9 C :   -0.051184
  10 H :    0.022582
  11 H :    0.024720
  12 C :   -0.051908
  13 H :    0.047825
  14 H :    0.043506
  15 H :    0.033452
  16 S :    0.087053
  17 C :   -0.097184
  18 C :   -0.001432
  19 C :   -0.101644
  20 C :   -0.119479
  21 H :    0.018172
  22 C :    0.081753
  23 H :    0.054418
  24 H :    0.034579
  25 C :   -0.134877
  26 H :    0.050623
  27 H :    0.026570
  28 C :   -0.046908
  29 H :    0.027547
  30 H :    0.036663
  31 H :    0.040681
  32 H :    0.031530
  33 H :    0.067003
Sum of atomic charges:    0.0000000

LOEWDIN ATOMIC CHARGES
----------------------
   0 S :    0.411846
   1 C :   -0.206131
   2 C :   -0.066753
   3 C :   -0.080067
   4 C :   -0.199428
   5 H :    0.025197
   6 C :   -0.038028
   7 H :    0.034937
   8 H :    0.042352
   9 C :   -0.043650
  10 H :    0.021982
  11 H :    0.019298
  12 C :   -0.064127
  13 H :    0.036536
  14 H :    0.033842
  15 H :    0.022742
  16 S :    0.374195
  17 C :   -0.169754
  18 C :   -0.059133
  19 C :   -0.059693
  20 C :   -0.180795
  21 H :    0.030099
  22 C :   -0.038665
  23 H :    0.044168
  24 H :    0.033874
  25 C :   -0.048337
  26 H :    0.032129
  27 H :    0.018690
  28 C :   -0.062051
  29 H :    0.016578
  30 H :    0.026638
  31 H :    0.032410
  32 H :    0.029036
  33 H :    0.030065

  Mayer bond orders larger than 0.100000
B(  0-S ,  1-C ) :   1.1279 B(  0-S ,  4-C ) :   1.1454 B(  1-C ,  2-C ) :   1.6355
B(  1-C , 32-H ) :   0.9716 B(  2-C ,  3-C ) :   1.2387 B(  2-C ,  6-C ) :   0.9846
B(  3-C ,  4-C ) :   1.5662 B(  3-C ,  5-H ) :   0.9846 B(  4-C , 20-C ) :   1.0524
B(  6-C ,  7-H ) :   0.9442 B(  6-C ,  8-H ) :   0.9377 B(  6-C ,  9-C ) :   1.0800
B(  9-C , 10-H ) :   0.9483 B(  9-C , 11-H ) :   0.9471 B(  9-C , 12-C ) :   1.0893
B( 12-C , 13-H ) :   0.9696 B( 12-C , 14-H ) :   0.9734 B( 12-C , 15-H ) :   0.9730
B( 16-S , 17-C ) :   1.1396 B( 16-S , 20-C ) :   1.1355 B( 17-C , 18-C ) :   1.6089
B( 17-C , 20-C ) :   0.1065 B( 17-C , 33-H ) :   0.9589 B( 18-C , 19-C ) :   1.2641
B( 18-C , 21-H ) :   0.9762 B( 19-C , 20-C ) :   1.5742 B( 19-C , 22-C ) :   1.0598
B( 22-C , 23-H ) :   0.9172 B( 22-C , 24-H ) :   0.9282 B( 22-C , 25-C ) :   1.0563
B( 25-C , 26-H ) :   0.9656 B( 25-C , 27-H ) :   0.9522 B( 25-C , 28-C ) :   1.0765
B( 28-C , 29-H ) :   0.9760 B( 28-C , 30-H ) :   0.9791 B( 28-C , 31-H ) :   0.9774

Dispersion correction           -0.013410790
FINAL SINGLE POINT ENERGY     -1339.860694644296

DIPOLE MOMENT
-------------
                                X             Y             Z
Electronic contribution:    -28.71978      -3.48039      14.19491
Nuclear contribution   :     29.54885       3.39212     -14.39532
                        -----------------------------------------
Total Dipole Moment    :      0.82907      -0.08827      -0.20041
                        -----------------------------------------
Magnitude (a.u.)       :      0.85751
Magnitude (Debye)      :      2.17961

Rotational constants in cm-1:     0.016322     0.009309     0.006374
Rotational constants in MHz :   489.319433   279.083396   191.074530

                             ****ORCA TERMINATED NORMALLY****
TOTAL RUN TIME: 0 days 0 hours 0 minutes 21 seconds 691 msec
