                         Program Version 4.2.1 -  RELEASE  -
|  1> ! wB97X-D3 SP def2-SVP
|  2> %pal
|  3> nprocs 24
|  4> end
|  5>
|  6> * xyz 0 1
|  7> S 	 -105.203 	 56.6056 	 -98.5428
|  8> C 	 -105.85 	 55.7078 	 -97.1323
|  9> C 	 -106.848 	 56.3686 	 -96.5037
| 10> C 	 -107.196 	 57.5318 	 -97.247
| 11> C 	 -106.54 	 57.742 	 -98.4213
| 12> H 	 -108.015 	 58.2302 	 -97.0079
| 13> C 	 -107.569 	 55.8844 	 -95.3002
| 14> H 	 -107.347 	 56.531 	 -94.4397
| 15> H 	 -107.104 	 54.9752 	 -95.0559
| 16> C 	 -109.065 	 55.6354 	 -95.6055
| 17> H 	 -109.489 	 56.5906 	 -95.849
| 18> H 	 -109.257 	 54.9228 	 -96.5357
| 19> C 	 -109.878 	 55.1005 	 -94.4084
| 20> H 	 -109.522 	 54.1714 	 -94.0285
| 21> H 	 -109.674 	 55.8604 	 -93.6267
| 22> H 	 -110.906 	 55.0665 	 -94.626
| 23> S 	 -106.501 	 58.1739 	 -101.088
| 24> C 	 -106.974 	 59.6924 	 -101.794
| 25> C 	 -107.402 	 60.5592 	 -100.833
| 26> C 	 -107.471 	 59.9742 	 -99.5114
| 27> C 	 -106.84 	 58.7148 	 -99.4429
| 28> H 	 -107.719 	 61.5956 	 -101.065
| 29> C 	 -108.074 	 60.8191 	 -98.4159
| 30> H 	 -108.88 	 60.1859 	 -97.97
| 31> H 	 -108.638 	 61.6201 	 -98.8348
| 32> C 	 -107.193 	 61.3199 	 -97.279
| 33> H 	 -106.393 	 61.9906 	 -97.7471
| 34> H 	 -106.735 	 60.464 	 -96.8284
| 35> C 	 -108.075 	 62.0236 	 -96.1874
| 36> H 	 -108.582 	 62.8192 	 -96.6652
| 37> H 	 -107.492 	 62.4495 	 -95.3767
| 38> H 	 -108.787 	 61.3804 	 -95.6788
| 39> H 	 -105.356 	 54.7694 	 -96.8684
| 40> H 	 -106.826 	 59.9269 	 -102.82
| 41> *
| 42>
| 43>                          ****END OF INPUT****

CARTESIAN COORDINATES (ANGSTROEM)
---------------------------------
  S    -105.203000   56.605600  -98.542800
  C    -105.850000   55.707800  -97.132300
  C    -106.848000   56.368600  -96.503700
  C    -107.196000   57.531800  -97.247000
  C    -106.540000   57.742000  -98.421300
  H    -108.015000   58.230200  -97.007900
  C    -107.569000   55.884400  -95.300200
  H    -107.347000   56.531000  -94.439700
  H    -107.104000   54.975200  -95.055900
  C    -109.065000   55.635400  -95.605500
  H    -109.489000   56.590600  -95.849000
  H    -109.257000   54.922800  -96.535700
  C    -109.878000   55.100500  -94.408400
  H    -109.522000   54.171400  -94.028500
  H    -109.674000   55.860400  -93.626700
  H    -110.906000   55.066500  -94.626000
  S    -106.501000   58.173900  -101.088000
  C    -106.974000   59.692400  -101.794000
  C    -107.402000   60.559200  -100.833000
  C    -107.471000   59.974200  -99.511400
  C    -106.840000   58.714800  -99.442900
  H    -107.719000   61.595600  -101.065000
  C    -108.074000   60.819100  -98.415900
  H    -108.880000   60.185900  -97.970000
  H    -108.638000   61.620100  -98.834800
  C    -107.193000   61.319900  -97.279000
  H    -106.393000   61.990600  -97.747100
  H    -106.735000   60.464000  -96.828400
  C    -108.075000   62.023600  -96.187400
  H    -108.582000   62.819200  -96.665200
  H    -107.492000   62.449500  -95.376700
  H    -108.787000   61.380400  -95.678800
  H    -105.356000   54.769400  -96.868400
  H    -106.826000   59.926900  -102.820000

 Total Charge           Charge          ....    0
 Multiplicity           Mult            ....    1
 Number of Electrons    NEL             ....  134
 Basis Dimension        Dim             ....  322

ORBITAL ENERGIES
----------------

  NO   OCC          E(Eh)            E(eV)
   0   2.0000     -88.962180     -2420.7840
   1   2.0000     -88.962127     -2420.7826
   2   2.0000     -10.331171      -281.1255
   3   2.0000     -10.328778      -281.0603
   4   2.0000     -10.315029      -280.6862
   5   2.0000     -10.312955      -280.6298
   6   2.0000     -10.307714      -280.4872
   7   2.0000     -10.299102      -280.2528
   8   2.0000     -10.296656      -280.1863
   9   2.0000     -10.295664      -280.1592
  10   2.0000     -10.291631      -280.0495
  11   2.0000     -10.291439      -280.0443
  12   2.0000     -10.290958      -280.0312
  13   2.0000     -10.290354      -280.0148
  14   2.0000     -10.277670      -279.6696
  15   2.0000     -10.275567      -279.6124
  16   2.0000      -8.077075      -219.7884
  17   2.0000      -8.076582      -219.7750
  18   2.0000      -6.035697      -164.2397
  19   2.0000      -6.035193      -164.2260
  20   2.0000      -6.031417      -164.1232
  21   2.0000      -6.031293      -164.1198
  22   2.0000      -6.027833      -164.0257
  23   2.0000      -6.027075      -164.0051
  24   2.0000      -1.007595       -27.4181
  25   2.0000      -0.984646       -26.7936
  26   2.0000      -0.916186       -24.9307
  27   2.0000      -0.909110       -24.7381
  28   2.0000      -0.873113       -23.7586
  29   2.0000      -0.849403       -23.1134
  30   2.0000      -0.843844       -22.9622
  31   2.0000      -0.817897       -22.2561
  32   2.0000      -0.783993       -21.3335
  33   2.0000      -0.773905       -21.0590
  34   2.0000      -0.713654       -19.4195
  35   2.0000      -0.700234       -19.0543
  36   2.0000      -0.689802       -18.7705
  37   2.0000      -0.665293       -18.1036
  38   2.0000      -0.642119       -17.4730
  39   2.0000      -0.621962       -16.9245
  40   2.0000      -0.596802       -16.2398
  41   2.0000      -0.570484       -15.5237
  42   2.0000      -0.568050       -15.4574
  43   2.0000      -0.558695       -15.2029
  44   2.0000      -0.533596       -14.5199
  45   2.0000      -0.518384       -14.1060
  46   2.0000      -0.515670       -14.0321
  47   2.0000      -0.512591       -13.9483
  48   2.0000      -0.508412       -13.8346
  49   2.0000      -0.500480       -13.6188
  50   2.0000      -0.494709       -13.4617
  51   2.0000      -0.490767       -13.3545
  52   2.0000      -0.473758       -12.8916
  53   2.0000      -0.468173       -12.7396
  54   2.0000      -0.455188       -12.3863
  55   2.0000      -0.448475       -12.2036
  56   2.0000      -0.441703       -12.0194
  57   2.0000      -0.434827       -11.8322
  58   2.0000      -0.434452       -11.8220
  59   2.0000      -0.426577       -11.6078
  60   2.0000      -0.420507       -11.4426
  61   2.0000      -0.418699       -11.3934
  62   2.0000      -0.413411       -11.2495
  63   2.0000      -0.357918        -9.7395
  64   2.0000      -0.330847        -9.0028
  65   2.0000      -0.327800        -8.9199
  66   2.0000      -0.285861        -7.7787
  67   0.0000       0.021098         0.5741
  68   0.0000       0.081473         2.2170
  69   0.0000       0.106417         2.8958
  70   0.0000       0.116617         3.1733
  71   0.0000       0.135265         3.6807

MULLIKEN ATOMIC CHARGES
-----------------------
   0 S :    0.093565
   1 C :   -0.150385
   2 C :   -0.060623
   3 C :   -0.012415
   4 C :   -0.116940
   5 H :    0.005773
   6 C :    0.135226
   7 H :    0.038399
   8 H :   -0.008137
   9 C :   -0.140106
  10 H :    0.026162
  11 H :    0.054962
  12 C :   -0.004769
  13 H :    0.025377
  14 H :    0.020900
  15 H :    0.034056
  16 S :    0.088124
  17 C :   -0.069753
  18 C :   -0.043843
  19 C :   -0.042524
  20 C :   -0.128140
  21 H :    0.030573
  22 C :    0.031791
  23 H :    0.027322
  24 H :    0.000246
  25 C :   -0.060081
  26 H :    0.045996
  27 H :    0.027790
  28 C :   -0.032203
  29 H :    0.020565
  30 H :    0.032534
  31 H :    0.027577
  32 H :    0.052992
  33 H :    0.049992
Sum of atomic charges:    0.0000000

LOEWDIN ATOMIC CHARGES
----------------------
   0 S :    0.370307
   1 C :   -0.173943
   2 C :   -0.063166
   3 C :   -0.069019
   4 C :   -0.186791
   5 H :    0.029987
   6 C :   -0.027531
   7 H :    0.037811
   8 H :    0.022651
   9 C :   -0.040732
  10 H :    0.017091
  11 H :    0.038752
  12 C :   -0.059108
  13 H :    0.018661
  14 H :    0.028152
  15 H :    0.021487
  16 S :    0.404372
  17 C :   -0.183835
  18 C :   -0.073980
  19 C :   -0.054943
  20 C :   -0.187614
  21 H :    0.037002
  22 C :   -0.040198
  23 H :    0.032458
  24 H :    0.022498
  25 C :   -0.036124
  26 H :    0.034469
  27 H :    0.019179
  28 C :   -0.061072
  29 H :    0.018336
  30 H :    0.027206
  31 H :    0.024848
  32 H :    0.027715
  33 H :    0.025075

  Mayer bond orders larger than 0.100000
B(  0-S ,  1-C ) :   1.1131 B(  0-S ,  4-C ) :   1.1273 B(  1-C ,  2-C ) :   1.6374
B(  1-C , 32-H ) :   0.9667 B(  2-C ,  3-C ) :   1.2034 B(  2-C ,  6-C ) :   1.0356
B(  3-C ,  4-C ) :   1.6107 B(  3-C ,  5-H ) :   0.9864 B(  4-C , 20-C ) :   1.0809
B(  6-C ,  7-H ) :   0.9257 B(  6-C ,  8-H ) :   0.9275 B(  6-C ,  9-C ) :   1.0517
B(  9-C , 10-H ) :   0.9570 B(  9-C , 11-H ) :   0.9561 B(  9-C , 12-C ) :   1.0832
B( 12-C , 13-H ) :   0.9770 B( 12-C , 14-H ) :   0.9721 B( 12-C , 15-H ) :   0.9747
B( 16-S , 17-C ) :   1.1512 B( 16-S , 20-C ) :   1.1370 B( 17-C , 18-C ) :   1.6043
B( 17-C , 33-H ) :   0.9715 B( 18-C , 19-C ) :   1.2493 B( 18-C , 21-H ) :   0.9831
B( 19-C , 20-C ) :   1.5615 B( 19-C , 22-C ) :   1.0478 B( 22-C , 23-H ) :   0.9266
B( 22-C , 24-H ) :   0.9292 B( 22-C , 25-C ) :   1.0643 B( 25-C , 26-H ) :   0.9544
B( 25-C , 27-H ) :   0.9527 B( 25-C , 28-C ) :   1.0722 B( 28-C , 29-H ) :   0.9776
B( 28-C , 30-H ) :   0.9747 B( 28-C , 31-H ) :   0.9753

Dispersion correction           -0.013901447
FINAL SINGLE POINT ENERGY     -1339.880993810399

DIPOLE MOMENT
-------------
                                X             Y             Z
Electronic contribution:     16.95641      -6.62841     -24.26003
Nuclear contribution   :    -17.42033       6.88192      24.76464
                        -----------------------------------------
Total Dipole Moment    :     -0.46392       0.25350       0.50462
                        -----------------------------------------
Magnitude (a.u.)       :      0.73084
Magnitude (Debye)      :      1.85764

Rotational constants in cm-1:     0.016532     0.009098     0.006819
Rotational constants in MHz :   495.610127   272.751501   204.423234

                             ****ORCA TERMINATED NORMALLY****
TOTAL RUN TIME: 0 days 0 hours 0 minutes 21 seconds 573 msec
