                         Program Version 4.2.1 -  RELEASE  -
|  1> ! wB97X-D3 SP def2-SVP
|  2> %pal
|  3> nprocs 24
|  4> end
|  5>
|  6> * xyz 0 1
|  7> S 	 -101.666 	 -0.67824 	 -100.935
|  8> C 	 -101.41 	 -1.41198 	 -102.446
|  9> C 	 -102.512 	 -2.18846 	 -102.775
| 10> C 	 -103.607 	 -2.00459 	 -101.881
| 11> C 	 -103.394 	 -1.02959 	 -100.925
| 12> H 	 -104.611 	 -2.45331 	 -101.94
| 13> C 	 -102.572 	 -3.07902 	 -103.976
| 14> H 	 -103.421 	 -3.81061 	 -103.833
| 15> H 	 -101.687 	 -3.72216 	 -103.897
| 16> C 	 -102.703 	 -2.45294 	 -105.351
| 17> H 	 -103.51 	 -1.75705 	 -105.17
| 18> H 	 -101.864 	 -1.93104 	 -105.792
| 19> C 	 -103.191 	 -3.45047 	 -106.345
| 20> H 	 -103.788 	 -4.1953 	 -105.879
| 21> H 	 -103.866 	 -2.97946 	 -107.048
| 22> H 	 -102.279 	 -3.80368 	 -106.891
| 23> S 	 -103.719 	 -0.416755 	 -98.2149
| 24> C 	 -105.282 	 0.131167 	 -97.6266
| 25> C 	 -106.125 	 0.275261 	 -98.6575
| 26> C 	 -105.631 	 -0.178482 	 -99.9047
| 27> C 	 -104.308 	 -0.635785 	 -99.7969
| 28> H 	 -107.115 	 0.589126 	 -98.3378
| 29> C 	 -106.452 	 -0.107001 	 -101.183
| 30> H 	 -106.936 	 -1.07058 	 -101.296
| 31> H 	 -105.821 	 -0.0180429 	 -101.99
| 32> C 	 -107.512 	 1.05515 	 -101.284
| 33> H 	 -106.92 	 1.96 	 -101.162
| 34> H 	 -108.172 	 1.02252 	 -100.446
| 35> C 	 -108.201 	 1.0751 	 -102.737
| 36> H 	 -108.791 	 1.94982 	 -102.857
| 37> H 	 -108.802 	 0.149014 	 -102.797
| 38> H 	 -107.474 	 1.05614 	 -103.484
| 39> H 	 -100.412 	 -1.39357 	 -103.033
| 40> H 	 -105.51 	 0.504439 	 -96.5808
| 41> *
| 42>
| 43>                          ****END OF INPUT****

CARTESIAN COORDINATES (ANGSTROEM)
---------------------------------
  S    -101.666000   -0.678240  -100.935000
  C    -101.410000   -1.411980  -102.446000
  C    -102.512000   -2.188460  -102.775000
  C    -103.607000   -2.004590  -101.881000
  C    -103.394000   -1.029590  -100.925000
  H    -104.611000   -2.453310  -101.940000
  C    -102.572000   -3.079020  -103.976000
  H    -103.421000   -3.810610  -103.833000
  H    -101.687000   -3.722160  -103.897000
  C    -102.703000   -2.452940  -105.351000
  H    -103.510000   -1.757050  -105.170000
  H    -101.864000   -1.931040  -105.792000
  C    -103.191000   -3.450470  -106.345000
  H    -103.788000   -4.195300  -105.879000
  H    -103.866000   -2.979460  -107.048000
  H    -102.279000   -3.803680  -106.891000
  S    -103.719000   -0.416755  -98.214900
  C    -105.282000    0.131167  -97.626600
  C    -106.125000    0.275261  -98.657500
  C    -105.631000   -0.178482  -99.904700
  C    -104.308000   -0.635785  -99.796900
  H    -107.115000    0.589126  -98.337800
  C    -106.452000   -0.107001  -101.183000
  H    -106.936000   -1.070580  -101.296000
  H    -105.821000   -0.018043  -101.990000
  C    -107.512000    1.055150  -101.284000
  H    -106.920000    1.960000  -101.162000
  H    -108.172000    1.022520  -100.446000
  C    -108.201000    1.075100  -102.737000
  H    -108.791000    1.949820  -102.857000
  H    -108.802000    0.149014  -102.797000
  H    -107.474000    1.056140  -103.484000
  H    -100.412000   -1.393570  -103.033000
  H    -105.510000    0.504439  -96.580800

 Total Charge           Charge          ....    0
 Multiplicity           Mult            ....    1
 Number of Electrons    NEL             ....  134
 Basis Dimension        Dim             ....  322

ORBITAL ENERGIES
----------------

  NO   OCC          E(Eh)            E(eV)
   0   2.0000     -88.964504     -2420.8472
   1   2.0000     -88.964458     -2420.8460
   2   2.0000     -10.332846      -281.1710
   3   2.0000     -10.328710      -281.0585
   4   2.0000     -10.317963      -280.7660
   5   2.0000     -10.316357      -280.7224
   6   2.0000     -10.302974      -280.3582
   7   2.0000     -10.298654      -280.2406
   8   2.0000     -10.296201      -280.1739
   9   2.0000     -10.291393      -280.0430
  10   2.0000     -10.290019      -280.0056
  11   2.0000     -10.288406      -279.9618
  12   2.0000     -10.284597      -279.8581
  13   2.0000     -10.279672      -279.7241
  14   2.0000     -10.279285      -279.7136
  15   2.0000     -10.273495      -279.5560
  16   2.0000      -8.079970      -219.8672
  17   2.0000      -8.079908      -219.8655
  18   2.0000      -6.038436      -164.3142
  19   2.0000      -6.038364      -164.3122
  20   2.0000      -6.034371      -164.2036
  21   2.0000      -6.034354      -164.2031
  22   2.0000      -6.030730      -164.1045
  23   2.0000      -6.030635      -164.1019
  24   2.0000      -1.011354       -27.5203
  25   2.0000      -0.992671       -27.0119
  26   2.0000      -0.919050       -25.0086
  27   2.0000      -0.902139       -24.5485
  28   2.0000      -0.872504       -23.7420
  29   2.0000      -0.853300       -23.2195
  30   2.0000      -0.845225       -22.9997
  31   2.0000      -0.821125       -22.3440
  32   2.0000      -0.779693       -21.2165
  33   2.0000      -0.767751       -20.8916
  34   2.0000      -0.710131       -19.3236
  35   2.0000      -0.699038       -19.0218
  36   2.0000      -0.695258       -18.9189
  37   2.0000      -0.651809       -17.7366
  38   2.0000      -0.635044       -17.2804
  39   2.0000      -0.620524       -16.8853
  40   2.0000      -0.595674       -16.2091
  41   2.0000      -0.581615       -15.8265
  42   2.0000      -0.569181       -15.4882
  43   2.0000      -0.565365       -15.3844
  44   2.0000      -0.526287       -14.3210
  45   2.0000      -0.521584       -14.1930
  46   2.0000      -0.516306       -14.0494
  47   2.0000      -0.512119       -13.9355
  48   2.0000      -0.502221       -13.6661
  49   2.0000      -0.499800       -13.6003
  50   2.0000      -0.486778       -13.2459
  51   2.0000      -0.481081       -13.0909
  52   2.0000      -0.477657       -12.9977
  53   2.0000      -0.467897       -12.7321
  54   2.0000      -0.462452       -12.5839
  55   2.0000      -0.450638       -12.2625
  56   2.0000      -0.445598       -12.1253
  57   2.0000      -0.438648       -11.9362
  58   2.0000      -0.434715       -11.8292
  59   2.0000      -0.426890       -11.6163
  60   2.0000      -0.420134       -11.4324
  61   2.0000      -0.412531       -11.2255
  62   2.0000      -0.409484       -11.1426
  63   2.0000      -0.357023        -9.7151
  64   2.0000      -0.333290        -9.0693
  65   2.0000      -0.324324        -8.8253
  66   2.0000      -0.289325        -7.8729
  67   0.0000       0.028825         0.7844
  68   0.0000       0.074015         2.0141
  69   0.0000       0.110747         3.0136
  70   0.0000       0.130652         3.5552
  71   0.0000       0.136253         3.7076

MULLIKEN ATOMIC CHARGES
-----------------------
   0 S :    0.107210
   1 C :   -0.138616
   2 C :   -0.094344
   3 C :    0.011152
   4 C :   -0.146273
   5 H :    0.024009
   6 C :    0.030651
   7 H :    0.023117
   8 H :    0.026675
   9 C :   -0.042421
  10 H :    0.017420
  11 H :    0.031215
  12 C :   -0.032918
  13 H :    0.015640
  14 H :    0.026767
  15 H :    0.042582
  16 S :    0.099623
  17 C :   -0.124456
  18 C :   -0.039833
  19 C :   -0.050708
  20 C :   -0.136290
  21 H :    0.019459
  22 C :    0.094546
  23 H :    0.031295
  24 H :    0.004736
  25 C :   -0.102945
  26 H :    0.031731
  27 H :    0.030179
  28 C :   -0.011869
  29 H :    0.035305
  30 H :    0.035632
  31 H :    0.020114
  32 H :    0.084180
  33 H :    0.077436
Sum of atomic charges:    0.0000000

LOEWDIN ATOMIC CHARGES
----------------------
   0 S :    0.419404
   1 C :   -0.222754
   2 C :   -0.075900
   3 C :   -0.067977
   4 C :   -0.186655
   5 H :    0.035761
   6 C :   -0.039106
   7 H :    0.034537
   8 H :    0.028845
   9 C :   -0.043613
  10 H :    0.023553
  11 H :    0.024734
  12 C :   -0.061048
  13 H :    0.017685
  14 H :    0.026087
  15 H :    0.033343
  16 S :    0.416602
  17 C :   -0.193729
  18 C :   -0.080061
  19 C :   -0.058044
  20 C :   -0.212427
  21 H :    0.034928
  22 C :   -0.026871
  23 H :    0.029189
  24 H :    0.016777
  25 C :   -0.029609
  26 H :    0.023922
  27 H :    0.014333
  28 C :   -0.050421
  29 H :    0.023401
  30 H :    0.029622
  31 H :    0.016890
  32 H :    0.052198
  33 H :    0.046404

  Mayer bond orders larger than 0.100000
B(  0-S ,  1-C ) :   1.1598 B(  0-S ,  4-C ) :   1.1610 B(  1-C ,  2-C ) :   1.5700
B(  1-C , 32-H ) :   0.9613 B(  2-C ,  3-C ) :   1.2672 B(  2-C ,  6-C ) :   1.0309
B(  3-C ,  4-C ) :   1.5433 B(  3-C ,  5-H ) :   0.9919 B(  4-C , 20-C ) :   1.0361
B(  6-C ,  7-H ) :   0.9448 B(  6-C ,  8-H ) :   0.9297 B(  6-C ,  9-C ) :   1.0618
B(  9-C , 10-H ) :   0.9540 B(  9-C , 11-H ) :   0.9558 B(  9-C , 12-C ) :   1.0927
B( 12-C , 13-H ) :   0.9724 B( 12-C , 14-H ) :   0.9741 B( 12-C , 15-H ) :   0.9777
B( 16-S , 17-C ) :   1.1479 B( 16-S , 20-C ) :   1.1551 B( 17-C , 18-C ) :   1.6340
B( 17-C , 33-H ) :   0.9551 B( 18-C , 19-C ) :   1.2461 B( 18-C , 21-H ) :   0.9887
B( 19-C , 20-C ) :   1.5759 B( 19-C , 22-C ) :   1.0333 B( 22-C , 23-H ) :   0.9283
B( 22-C , 24-H ) :   0.9276 B( 22-C , 25-C ) :   1.0646 B( 25-C , 26-H ) :   0.9621
B( 25-C , 27-H ) :   0.9557 B( 25-C , 28-C ) :   1.0707 B( 28-C , 29-H ) :   0.9772
B( 28-C , 30-H ) :   0.9788 B( 28-C , 31-H ) :   0.9774

Dispersion correction           -0.013310046
FINAL SINGLE POINT ENERGY     -1339.863571698741

DIPOLE MOMENT
-------------
                                X             Y             Z
Electronic contribution:     16.20402       3.58363      26.91437
Nuclear contribution   :    -16.66025      -3.63187     -27.40615
                        -----------------------------------------
Total Dipole Moment    :     -0.45623      -0.04824      -0.49178
                        -----------------------------------------
Magnitude (a.u.)       :      0.67255
Magnitude (Debye)      :      1.70948

Rotational constants in cm-1:     0.017054     0.008472     0.006028
Rotational constants in MHz :   511.265265   253.981945   180.721641

                             ****ORCA TERMINATED NORMALLY****
TOTAL RUN TIME: 0 days 0 hours 0 minutes 20 seconds 925 msec
