                         Program Version 4.2.1 -  RELEASE  -
|  1> ! wB97X-D3 SP def2-SVP
|  2> %pal
|  3> nprocs 24
|  4> end
|  5>
|  6> * xyz 0 1
|  7> S 	 -138.403 	 24.314 	 -20.6588
|  8> C 	 -140.009 	 23.5815 	 -20.6598
|  9> C 	 -139.997 	 22.5763 	 -19.6817
| 10> C 	 -138.735 	 22.4078 	 -19.0393
| 11> C 	 -137.797 	 23.2357 	 -19.425
| 12> H 	 -138.541 	 21.6282 	 -18.3265
| 13> C 	 -141.193 	 21.7803 	 -19.2926
| 14> H 	 -141.226 	 20.9138 	 -19.9773
| 15> H 	 -142.09 	 22.356 	 -19.6581
| 16> C 	 -141.287 	 21.4167 	 -17.8544
| 17> H 	 -142.088 	 20.7043 	 -17.656
| 18> H 	 -140.311 	 20.925 	 -17.5488
| 19> C 	 -141.488 	 22.5811 	 -16.8806
| 20> H 	 -142.292 	 23.2612 	 -17.1916
| 21> H 	 -141.612 	 22.4193 	 -15.7612
| 22> H 	 -140.543 	 23.0782 	 -16.9645
| 23> S 	 -136.3 	 22.9435 	 -17.1881
| 24> C 	 -134.707 	 23.6334 	 -17.1601
| 25> C 	 -134.24 	 23.9283 	 -18.4448
| 26> C 	 -135.27 	 23.8838 	 -19.4576
| 27> C 	 -136.465 	 23.3538 	 -18.91
| 28> H 	 -133.244 	 24.4069 	 -18.6026
| 29> C 	 -135.015 	 24.3336 	 -20.9061
| 30> H 	 -134.971 	 25.4338 	 -20.9738
| 31> H 	 -135.867 	 24.2432 	 -21.5055
| 32> C 	 -133.784 	 23.6716 	 -21.6213
| 33> H 	 -134.117 	 22.6642 	 -21.8933
| 34> H 	 -132.984 	 23.5253 	 -20.8727
| 35> C 	 -133.244 	 24.5049 	 -22.8685
| 36> H 	 -132.365 	 23.9142 	 -23.3765
| 37> H 	 -132.856 	 25.4269 	 -22.3956
| 38> H 	 -134.039 	 24.7406 	 -23.6062
| 39> H 	 -140.842 	 23.8668 	 -21.2826
| 40> H 	 -134.175 	 23.827 	 -16.2437
| 41> *
| 42>
| 43>                          ****END OF INPUT****

CARTESIAN COORDINATES (ANGSTROEM)
---------------------------------
  S    -138.403000   24.314000  -20.658800
  C    -140.009000   23.581500  -20.659800
  C    -139.997000   22.576300  -19.681700
  C    -138.735000   22.407800  -19.039300
  C    -137.797000   23.235700  -19.425000
  H    -138.541000   21.628200  -18.326500
  C    -141.193000   21.780300  -19.292600
  H    -141.226000   20.913800  -19.977300
  H    -142.090000   22.356000  -19.658100
  C    -141.287000   21.416700  -17.854400
  H    -142.088000   20.704300  -17.656000
  H    -140.311000   20.925000  -17.548800
  C    -141.488000   22.581100  -16.880600
  H    -142.292000   23.261200  -17.191600
  H    -141.612000   22.419300  -15.761200
  H    -140.543000   23.078200  -16.964500
  S    -136.300000   22.943500  -17.188100
  C    -134.707000   23.633400  -17.160100
  C    -134.240000   23.928300  -18.444800
  C    -135.270000   23.883800  -19.457600
  C    -136.465000   23.353800  -18.910000
  H    -133.244000   24.406900  -18.602600
  C    -135.015000   24.333600  -20.906100
  H    -134.971000   25.433800  -20.973800
  H    -135.867000   24.243200  -21.505500
  C    -133.784000   23.671600  -21.621300
  H    -134.117000   22.664200  -21.893300
  H    -132.984000   23.525300  -20.872700
  C    -133.244000   24.504900  -22.868500
  H    -132.365000   23.914200  -23.376500
  H    -132.856000   25.426900  -22.395600
  H    -134.039000   24.740600  -23.606200
  H    -140.842000   23.866800  -21.282600
  H    -134.175000   23.827000  -16.243700

 Total Charge           Charge          ....    0
 Multiplicity           Mult            ....    1
 Number of Electrons    NEL             ....  134
 Basis Dimension        Dim             ....  322

ORBITAL ENERGIES
----------------

  NO   OCC          E(Eh)            E(eV)
   0   2.0000     -88.969670     -2420.9878
   1   2.0000     -88.962546     -2420.7940
   2   2.0000     -10.331251      -281.1276
   3   2.0000     -10.322509      -280.8897
   4   2.0000     -10.322294      -280.8839
   5   2.0000     -10.315127      -280.6889
   6   2.0000     -10.314737      -280.6783
   7   2.0000     -10.303084      -280.3612
   8   2.0000     -10.300124      -280.2806
   9   2.0000     -10.296849      -280.1915
  10   2.0000     -10.295073      -280.1432
  11   2.0000     -10.292488      -280.0728
  12   2.0000     -10.292181      -280.0645
  13   2.0000     -10.288973      -279.9772
  14   2.0000     -10.281852      -279.7834
  15   2.0000     -10.275351      -279.6065
  16   2.0000      -8.084192      -219.9820
  17   2.0000      -8.076972      -219.7856
  18   2.0000      -6.042683      -164.4298
  19   2.0000      -6.038852      -164.3255
  20   2.0000      -6.035690      -164.2395
  21   2.0000      -6.034870      -164.2172
  22   2.0000      -6.031488      -164.1251
  23   2.0000      -6.027555      -164.0181
  24   2.0000      -1.011235       -27.5171
  25   2.0000      -0.983262       -26.7559
  26   2.0000      -0.918577       -24.9958
  27   2.0000      -0.900883       -24.5143
  28   2.0000      -0.873577       -23.7712
  29   2.0000      -0.848580       -23.0910
  30   2.0000      -0.839174       -22.8351
  31   2.0000      -0.815873       -22.2010
  32   2.0000      -0.782449       -21.2915
  33   2.0000      -0.769792       -20.9471
  34   2.0000      -0.708832       -19.2883
  35   2.0000      -0.701839       -19.0980
  36   2.0000      -0.688362       -18.7313
  37   2.0000      -0.665536       -18.1102
  38   2.0000      -0.633942       -17.2504
  39   2.0000      -0.626905       -17.0589
  40   2.0000      -0.604269       -16.4430
  41   2.0000      -0.563632       -15.3372
  42   2.0000      -0.555146       -15.1063
  43   2.0000      -0.552672       -15.0390
  44   2.0000      -0.537472       -14.6254
  45   2.0000      -0.522140       -14.2081
  46   2.0000      -0.517681       -14.0868
  47   2.0000      -0.514507       -14.0004
  48   2.0000      -0.508914       -13.8483
  49   2.0000      -0.494397       -13.4532
  50   2.0000      -0.489861       -13.3298
  51   2.0000      -0.473995       -12.8981
  52   2.0000      -0.469313       -12.7707
  53   2.0000      -0.465071       -12.6552
  54   2.0000      -0.462154       -12.5759
  55   2.0000      -0.452799       -12.3213
  56   2.0000      -0.447905       -12.1881
  57   2.0000      -0.439407       -11.9569
  58   2.0000      -0.431044       -11.7293
  59   2.0000      -0.424175       -11.5424
  60   2.0000      -0.417170       -11.3518
  61   2.0000      -0.413636       -11.2556
  62   2.0000      -0.402901       -10.9635
  63   2.0000      -0.360142        -9.8000
  64   2.0000      -0.333390        -9.0720
  65   2.0000      -0.326058        -8.8725
  66   2.0000      -0.282551        -7.6886
  67   0.0000       0.021772         0.5924
  68   0.0000       0.074277         2.0212
  69   0.0000       0.104088         2.8324
  70   0.0000       0.118845         3.2339
  71   0.0000       0.130146         3.5415

MULLIKEN ATOMIC CHARGES
-----------------------
   0 S :    0.087705
   1 C :   -0.123539
   2 C :   -0.104414
   3 C :   -0.037667
   4 C :   -0.059715
   5 H :    0.008434
   6 C :    0.080990
   7 H :    0.046424
   8 H :    0.018724
   9 C :   -0.088153
  10 H :    0.031119
  11 H :    0.036023
  12 C :   -0.067509
  13 H :    0.032675
  14 H :    0.047647
  15 H :    0.028407
  16 S :    0.099262
  17 C :   -0.093594
  18 C :   -0.041905
  19 C :   -0.061762
  20 C :   -0.140327
  21 H :    0.041926
  22 C :    0.086611
  23 H :    0.027497
  24 H :   -0.004152
  25 C :   -0.092754
  26 H :    0.039073
  27 H :    0.034916
  28 C :   -0.099737
  29 H :    0.059998
  30 H :    0.043699
  31 H :    0.053873
  32 H :    0.048212
  33 H :    0.062017
Sum of atomic charges:   -0.0000000

LOEWDIN ATOMIC CHARGES
----------------------
   0 S :    0.403167
   1 C :   -0.199321
   2 C :   -0.056342
   3 C :   -0.088346
   4 C :   -0.180696
   5 H :    0.025387
   6 C :   -0.040973
   7 H :    0.041215
   8 H :    0.034476
   9 C :   -0.047525
  10 H :    0.023836
  11 H :    0.029373
  12 C :   -0.074453
  13 H :    0.024335
  14 H :    0.035330
  15 H :    0.022709
  16 S :    0.405993
  17 C :   -0.182769
  18 C :   -0.075064
  19 C :   -0.047514
  20 C :   -0.184080
  21 H :    0.038347
  22 C :   -0.040963
  23 H :    0.034871
  24 H :    0.009336
  25 C :   -0.038405
  26 H :    0.024801
  27 H :    0.022638
  28 C :   -0.075380
  29 H :    0.041012
  30 H :    0.027637
  31 H :    0.028769
  32 H :    0.029838
  33 H :    0.028761

  Mayer bond orders larger than 0.100000
B(  0-S ,  1-C ) :   1.1185 B(  0-S ,  4-C ) :   1.1304 B(  1-C ,  2-C ) :   1.6076
B(  1-C , 32-H ) :   0.9752 B(  2-C ,  3-C ) :   1.2276 B(  2-C ,  6-C ) :   1.0179
B(  3-C ,  4-C ) :   1.5894 B(  3-C ,  5-H ) :   0.9922 B(  4-C , 20-C ) :   1.0849
B(  6-C ,  7-H ) :   0.9264 B(  6-C ,  8-H ) :   0.9381 B(  6-C ,  9-C ) :   1.0795
B(  9-C , 10-H ) :   0.9528 B(  9-C , 11-H ) :   0.9505 B(  9-C , 12-C ) :   1.0623
B( 12-C , 13-H ) :   0.9745 B( 12-C , 14-H ) :   0.9760 B( 12-C , 15-H ) :   0.9744
B( 16-S , 17-C ) :   1.1602 B( 16-S , 20-C ) :   1.1314 B( 17-C , 18-C ) :   1.6069
B( 17-C , 33-H ) :   0.9701 B( 18-C , 19-C ) :   1.2379 B( 18-C , 21-H ) :   0.9752
B( 19-C , 20-C ) :   1.5667 B( 19-C , 22-C ) :   1.0420 B( 22-C , 23-H ) :   0.9338
B( 22-C , 24-H ) :   0.9221 B( 22-C , 25-C ) :   1.0355 B( 25-C , 26-H ) :   0.9588
B( 25-C , 27-H ) :   0.9666 B( 25-C , 28-C ) :   1.0581 B( 28-C , 29-H ) :   0.9746
B( 28-C , 30-H ) :   0.9769 B( 28-C , 31-H ) :   0.9775

Dispersion correction           -0.014097051
FINAL SINGLE POINT ENERGY     -1339.873076048032

DIPOLE MOMENT
-------------
                                X             Y             Z
Electronic contribution:      1.39392       2.15478       5.57968
Nuclear contribution   :     -1.34789      -2.17481      -5.63112
                        -----------------------------------------
Total Dipole Moment    :      0.04603      -0.02003      -0.05145
                        -----------------------------------------
Magnitude (a.u.)       :      0.07188
Magnitude (Debye)      :      0.18271

Rotational constants in cm-1:     0.022754     0.008155     0.006370
Rotational constants in MHz :   682.147029   244.487573   190.976661

                             ****ORCA TERMINATED NORMALLY****
TOTAL RUN TIME: 0 days 0 hours 0 minutes 21 seconds 331 msec
