                         Program Version 4.2.1 -  RELEASE  -
|  1> ! wB97X-D3 SP def2-SVP
|  2> %pal
|  3> nprocs 24
|  4> end
|  5>
|  6> * xyz 0 1
|  7> S 	 -105.523 	 2.77729 	 -106.481
|  8> C 	 -105.006 	 4.07299 	 -105.477
|  9> C 	 -103.821 	 3.79161 	 -104.853
| 10> C 	 -103.39 	 2.5099 	 -105.198
| 11> C 	 -104.035 	 1.88194 	 -106.221
| 12> H 	 -102.401 	 2.16052 	 -104.854
| 13> C 	 -103.136 	 4.64947 	 -103.771
| 14> H 	 -103.923 	 5.17221 	 -103.252
| 15> H 	 -102.549 	 5.40978 	 -104.319
| 16> C 	 -102.301 	 3.94352 	 -102.807
| 17> H 	 -102.785 	 3.04601 	 -102.356
| 18> H 	 -101.413 	 3.59001 	 -103.333
| 19> C 	 -101.982 	 4.84765 	 -101.597
| 20> H 	 -101.518 	 4.19079 	 -100.867
| 21> H 	 -101.346 	 5.69499 	 -101.944
| 22> H 	 -102.843 	 5.40456 	 -101.187
| 23> S 	 -104.925 	 -0.355934 	 -107.673
| 24> C 	 -103.843 	 -1.54168 	 -108.169
| 25> C 	 -102.533 	 -1.19498 	 -107.833
| 26> C 	 -102.406 	 0.0284236 	 -107.129
| 27> C 	 -103.66 	 0.616022 	 -106.871
| 28> H 	 -101.677 	 -1.93588 	 -108.018
| 29> C 	 -101.015 	 0.556026 	 -106.716
| 30> H 	 -101.139 	 1.63835 	 -106.683
| 31> H 	 -100.401 	 0.269197 	 -107.499
| 32> C 	 -100.53 	 0.00156598 	 -105.448
| 33> H 	 -100.333 	 -1.10774 	 -105.553
| 34> H 	 -101.271 	 0.0956488 	 -104.638
| 35> C 	 -99.3207 	 0.700423 	 -104.795
| 36> H 	 -99.5643 	 1.72058 	 -104.664
| 37> H 	 -98.3513 	 0.807442 	 -105.373
| 38> H 	 -99.0226 	 0.19342 	 -103.916
| 39> H 	 -105.582 	 5.02173 	 -105.356
| 40> H 	 -104.044 	 -2.48383 	 -108.695
| 41> *
| 42>
| 43>                          ****END OF INPUT****

CARTESIAN COORDINATES (ANGSTROEM)
---------------------------------
  S    -105.523000    2.777290  -106.481000
  C    -105.006000    4.072990  -105.477000
  C    -103.821000    3.791610  -104.853000
  C    -103.390000    2.509900  -105.198000
  C    -104.035000    1.881940  -106.221000
  H    -102.401000    2.160520  -104.854000
  C    -103.136000    4.649470  -103.771000
  H    -103.923000    5.172210  -103.252000
  H    -102.549000    5.409780  -104.319000
  C    -102.301000    3.943520  -102.807000
  H    -102.785000    3.046010  -102.356000
  H    -101.413000    3.590010  -103.333000
  C    -101.982000    4.847650  -101.597000
  H    -101.518000    4.190790  -100.867000
  H    -101.346000    5.694990  -101.944000
  H    -102.843000    5.404560  -101.187000
  S    -104.925000   -0.355934  -107.673000
  C    -103.843000   -1.541680  -108.169000
  C    -102.533000   -1.194980  -107.833000
  C    -102.406000    0.028424  -107.129000
  C    -103.660000    0.616022  -106.871000
  H    -101.677000   -1.935880  -108.018000
  C    -101.015000    0.556026  -106.716000
  H    -101.139000    1.638350  -106.683000
  H    -100.401000    0.269197  -107.499000
  C    -100.530000    0.001566  -105.448000
  H    -100.333000   -1.107740  -105.553000
  H    -101.271000    0.095649  -104.638000
  C    -99.320700    0.700423  -104.795000
  H    -99.564300    1.720580  -104.664000
  H    -98.351300    0.807442  -105.373000
  H    -99.022600    0.193420  -103.916000
  H    -105.582000    5.021730  -105.356000
  H    -104.044000   -2.483830  -108.695000

 Total Charge           Charge          ....    0
 Multiplicity           Mult            ....    1
 Number of Electrons    NEL             ....  134
 Basis Dimension        Dim             ....  322

ORBITAL ENERGIES
----------------

  NO   OCC          E(Eh)            E(eV)
   0   2.0000     -88.968471     -2420.9552
   1   2.0000     -88.965270     -2420.8681
   2   2.0000     -10.334287      -281.2102
   3   2.0000     -10.330271      -281.1010
   4   2.0000     -10.317044      -280.7410
   5   2.0000     -10.312086      -280.6061
   6   2.0000     -10.306395      -280.4513
   7   2.0000     -10.297509      -280.2095
   8   2.0000     -10.294650      -280.1317
   9   2.0000     -10.290447      -280.0173
  10   2.0000     -10.290241      -280.0117
  11   2.0000     -10.287318      -279.9322
  12   2.0000     -10.287144      -279.9274
  13   2.0000     -10.286897      -279.9207
  14   2.0000     -10.284666      -279.8600
  15   2.0000     -10.277998      -279.6785
  16   2.0000      -8.083709      -219.9689
  17   2.0000      -8.080451      -219.8802
  18   2.0000      -6.042154      -164.4154
  19   2.0000      -6.038974      -164.3288
  20   2.0000      -6.038038      -164.3034
  21   2.0000      -6.034945      -164.2192
  22   2.0000      -6.034625      -164.2105
  23   2.0000      -6.031120      -164.1151
  24   2.0000      -1.011328       -27.5196
  25   2.0000      -0.991788       -26.9879
  26   2.0000      -0.922331       -25.0979
  27   2.0000      -0.919995       -25.0343
  28   2.0000      -0.870283       -23.6816
  29   2.0000      -0.855227       -23.2719
  30   2.0000      -0.846200       -23.0263
  31   2.0000      -0.812196       -22.1010
  32   2.0000      -0.789872       -21.4935
  33   2.0000      -0.775426       -21.1004
  34   2.0000      -0.711499       -19.3609
  35   2.0000      -0.698558       -19.0087
  36   2.0000      -0.688575       -18.7371
  37   2.0000      -0.658038       -17.9061
  38   2.0000      -0.637353       -17.3433
  39   2.0000      -0.624152       -16.9840
  40   2.0000      -0.596115       -16.2211
  41   2.0000      -0.577778       -15.7221
  42   2.0000      -0.572276       -15.5724
  43   2.0000      -0.567057       -15.4304
  44   2.0000      -0.536668       -14.6035
  45   2.0000      -0.531788       -14.4707
  46   2.0000      -0.515018       -14.0144
  47   2.0000      -0.508659       -13.8413
  48   2.0000      -0.501982       -13.6596
  49   2.0000      -0.500519       -13.6198
  50   2.0000      -0.497635       -13.5413
  51   2.0000      -0.481318       -13.0973
  52   2.0000      -0.477192       -12.9850
  53   2.0000      -0.468905       -12.7596
  54   2.0000      -0.461609       -12.5610
  55   2.0000      -0.450488       -12.2584
  56   2.0000      -0.448708       -12.2100
  57   2.0000      -0.445011       -12.1094
  58   2.0000      -0.434465       -11.8224
  59   2.0000      -0.423061       -11.5121
  60   2.0000      -0.417159       -11.3515
  61   2.0000      -0.412043       -11.2123
  62   2.0000      -0.407226       -11.0812
  63   2.0000      -0.360797        -9.8178
  64   2.0000      -0.335050        -9.1172
  65   2.0000      -0.331519        -9.0211
  66   2.0000      -0.281877        -7.6703
  67   0.0000       0.023237         0.6323
  68   0.0000       0.083505         2.2723
  69   0.0000       0.107277         2.9192
  70   0.0000       0.121267         3.2999
  71   0.0000       0.129582         3.5261

MULLIKEN ATOMIC CHARGES
-----------------------
   0 S :    0.109068
   1 C :   -0.151595
   2 C :   -0.089448
   3 C :   -0.013486
   4 C :   -0.100460
   5 H :   -0.009315
   6 C :    0.097869
   7 H :    0.013021
   8 H :    0.038837
   9 C :   -0.121493
  10 H :    0.040203
  11 H :    0.038416
  12 C :   -0.036324
  13 H :    0.043015
  14 H :    0.028141
  15 H :    0.034134
  16 S :    0.115114
  17 C :   -0.088499
  18 C :   -0.079759
  19 C :   -0.080033
  20 C :   -0.146523
  21 H :    0.043147
  22 C :    0.139288
  23 H :    0.024944
  24 H :    0.007804
  25 C :   -0.097301
  26 H :    0.032120
  27 H :    0.037821
  28 C :   -0.026629
  29 H :    0.014165
  30 H :    0.023742
  31 H :    0.032761
  32 H :    0.060881
  33 H :    0.066375
Sum of atomic charges:   -0.0000000

LOEWDIN ATOMIC CHARGES
----------------------
   0 S :    0.411735
   1 C :   -0.210390
   2 C :   -0.070127
   3 C :   -0.077214
   4 C :   -0.188092
   5 H :    0.027174
   6 C :   -0.030819
   7 H :    0.026839
   8 H :    0.037665
   9 C :   -0.051007
  10 H :    0.030257
  11 H :    0.024068
  12 C :   -0.062530
  13 H :    0.028083
  14 H :    0.027495
  15 H :    0.027604
  16 S :    0.425363
  17 C :   -0.213239
  18 C :   -0.090180
  19 C :   -0.049855
  20 C :   -0.187357
  21 H :    0.041934
  22 C :   -0.023635
  23 H :    0.030785
  24 H :    0.024611
  25 C :   -0.045932
  26 H :    0.029888
  27 H :    0.027712
  28 C :   -0.064802
  29 H :    0.015698
  30 H :    0.027827
  31 H :    0.023256
  32 H :    0.037670
  33 H :    0.039516

  Mayer bond orders larger than 0.100000
B(  0-S ,  1-C ) :   1.1523 B(  0-S ,  4-C ) :   1.1428 B(  1-C ,  2-C ) :   1.6035
B(  1-C , 32-H ) :   0.9624 B(  2-C ,  3-C ) :   1.2988 B(  2-C ,  6-C ) :   0.9895
B(  3-C ,  4-C ) :   1.5426 B(  3-C ,  5-H ) :   0.9775 B(  4-C , 20-C ) :   1.0787
B(  6-C ,  7-H ) :   0.9454 B(  6-C ,  8-H ) :   0.9211 B(  6-C ,  9-C ) :   1.1027
B(  9-C , 10-H ) :   0.9565 B(  9-C , 11-H ) :   0.9347 B(  9-C , 12-C ) :   1.0804
B( 12-C , 13-H ) :   0.9747 B( 12-C , 14-H ) :   0.9717 B( 12-C , 15-H ) :   0.9746
B( 16-S , 17-C ) :   1.1839 B( 16-S , 20-C ) :   1.1391 B( 17-C , 18-C ) :   1.5785
B( 17-C , 20-C ) :   0.1036 B( 17-C , 33-H ) :   0.9635 B( 18-C , 19-C ) :   1.2888
B( 18-C , 21-H ) :   0.9736 B( 19-C , 20-C ) :   1.5575 B( 19-C , 22-C ) :   1.0311
B( 22-C , 23-H ) :   0.9273 B( 22-C , 24-H ) :   0.9198 B( 22-C , 25-C ) :   1.0844
B( 25-C , 26-H ) :   0.9475 B( 25-C , 27-H ) :   0.9506 B( 25-C , 28-C ) :   1.0783
B( 28-C , 29-H ) :   0.9728 B( 28-C , 30-H ) :   0.9713 B( 28-C , 31-H ) :   0.9744

Dispersion correction           -0.014331906
FINAL SINGLE POINT ENERGY     -1339.876177824671

DIPOLE MOMENT
-------------
                                X             Y             Z
Electronic contribution:    -25.77371      -8.39200     -20.80051
Nuclear contribution   :     26.40754       8.49292      21.15010
                        -----------------------------------------
Total Dipole Moment    :      0.63384       0.10092       0.34959
                        -----------------------------------------
Magnitude (a.u.)       :      0.73085
Magnitude (Debye)      :      1.85768

Rotational constants in cm-1:     0.017545     0.009726     0.006510
Rotational constants in MHz :   525.999586   291.589917   195.153360

                             ****ORCA TERMINATED NORMALLY****
TOTAL RUN TIME: 0 days 0 hours 0 minutes 22 seconds 105 msec
