                         Program Version 4.2.1 -  RELEASE  -
|  1> ! wB97X-D3 SP def2-SVP
|  2> %pal
|  3> nprocs 24
|  4> end
|  5>
|  6> * xyz 0 1
|  7> S 	 -58.5084 	 16.5171 	 -86.6792
|  8> C 	 -59.5118 	 16.8456 	 -88.1015
|  9> C 	 -59.4206 	 18.1671 	 -88.4273
| 10> C 	 -58.4184 	 18.8341 	 -87.6401
| 11> C 	 -57.8481 	 18.1345 	 -86.5886
| 12> H 	 -58.0397 	 19.8614 	 -87.8067
| 13> C 	 -60.1171 	 18.7998 	 -89.6138
| 14> H 	 -60.4695 	 19.7934 	 -89.2788
| 15> H 	 -61.0845 	 18.3754 	 -89.7816
| 16> C 	 -59.2453 	 18.8645 	 -90.9094
| 17> H 	 -58.2574 	 18.4681 	 -90.8126
| 18> H 	 -59.737 	 18.1699 	 -91.5683
| 19> C 	 -59.0508 	 20.2729 	 -91.4751
| 20> H 	 -58.8011 	 20.8979 	 -90.6846
| 21> H 	 -58.2556 	 20.4541 	 -92.1417
| 22> H 	 -59.9796 	 20.7292 	 -91.9168
| 23> S 	 -57.0991 	 18.5726 	 -84.0392
| 24> C 	 -55.4684 	 18.9439 	 -83.5801
| 25> C 	 -54.6274 	 18.9404 	 -84.706
| 26> C 	 -55.3313 	 18.6974 	 -85.9313
| 27> C 	 -56.701 	 18.5234 	 -85.7414
| 28> H 	 -53.5349 	 19.0356 	 -84.5531
| 29> C 	 -54.6923 	 18.736 	 -87.2491
| 30> H 	 -53.6124 	 18.8827 	 -87.1992
| 31> H 	 -55.103 	 19.7237 	 -87.675
| 32> C 	 -55.0289 	 17.5574 	 -88.2666
| 33> H 	 -56.0618 	 17.423 	 -88.6019
| 34> H 	 -54.8873 	 16.6209 	 -87.6233
| 35> C 	 -54.0186 	 17.502 	 -89.4342
| 36> H 	 -54.3961 	 16.8035 	 -90.1609
| 37> H 	 -53.0413 	 17.1964 	 -89.0764
| 38> H 	 -53.959 	 18.4795 	 -89.9587
| 39> H 	 -60.1006 	 16.0513 	 -88.5862
| 40> H 	 -55.226 	 19.027 	 -82.5459
| 41> *
| 42>
| 43>                          ****END OF INPUT****

CARTESIAN COORDINATES (ANGSTROEM)
---------------------------------
  S    -58.508400   16.517100  -86.679200
  C    -59.511800   16.845600  -88.101500
  C    -59.420600   18.167100  -88.427300
  C    -58.418400   18.834100  -87.640100
  C    -57.848100   18.134500  -86.588600
  H    -58.039700   19.861400  -87.806700
  C    -60.117100   18.799800  -89.613800
  H    -60.469500   19.793400  -89.278800
  H    -61.084500   18.375400  -89.781600
  C    -59.245300   18.864500  -90.909400
  H    -58.257400   18.468100  -90.812600
  H    -59.737000   18.169900  -91.568300
  C    -59.050800   20.272900  -91.475100
  H    -58.801100   20.897900  -90.684600
  H    -58.255600   20.454100  -92.141700
  H    -59.979600   20.729200  -91.916800
  S    -57.099100   18.572600  -84.039200
  C    -55.468400   18.943900  -83.580100
  C    -54.627400   18.940400  -84.706000
  C    -55.331300   18.697400  -85.931300
  C    -56.701000   18.523400  -85.741400
  H    -53.534900   19.035600  -84.553100
  C    -54.692300   18.736000  -87.249100
  H    -53.612400   18.882700  -87.199200
  H    -55.103000   19.723700  -87.675000
  C    -55.028900   17.557400  -88.266600
  H    -56.061800   17.423000  -88.601900
  H    -54.887300   16.620900  -87.623300
  C    -54.018600   17.502000  -89.434200
  H    -54.396100   16.803500  -90.160900
  H    -53.041300   17.196400  -89.076400
  H    -53.959000   18.479500  -89.958700
  H    -60.100600   16.051300  -88.586200
  H    -55.226000   19.027000  -82.545900

 Total Charge           Charge          ....    0
 Multiplicity           Mult            ....    1
 Number of Electrons    NEL             ....  134
 Basis Dimension        Dim             ....  322

ORBITAL ENERGIES
----------------

  NO   OCC          E(Eh)            E(eV)
   0   2.0000     -88.962351     -2420.7886
   1   2.0000     -88.961314     -2420.7604
   2   2.0000     -10.330734      -281.1136
   3   2.0000     -10.326119      -280.9880
   4   2.0000     -10.318514      -280.7810
   5   2.0000     -10.318512      -280.7810
   6   2.0000     -10.306600      -280.4568
   7   2.0000     -10.303337      -280.3681
   8   2.0000     -10.300865      -280.3008
   9   2.0000     -10.297399      -280.2065
  10   2.0000     -10.296553      -280.1834
  11   2.0000     -10.294118      -280.1172
  12   2.0000     -10.291142      -280.0362
  13   2.0000     -10.287233      -279.9298
  14   2.0000     -10.277909      -279.6761
  15   2.0000     -10.273588      -279.5585
  16   2.0000      -8.077607      -219.8029
  17   2.0000      -8.075769      -219.7528
  18   2.0000      -6.035945      -164.2464
  19   2.0000      -6.034307      -164.2018
  20   2.0000      -6.031860      -164.1353
  21   2.0000      -6.030206      -164.0902
  22   2.0000      -6.028702      -164.0493
  23   2.0000      -6.026577      -163.9915
  24   2.0000      -1.005000       -27.3474
  25   2.0000      -0.984270       -26.7834
  26   2.0000      -0.909973       -24.7616
  27   2.0000      -0.903001       -24.5719
  28   2.0000      -0.868701       -23.6385
  29   2.0000      -0.850902       -23.1542
  30   2.0000      -0.842173       -22.9167
  31   2.0000      -0.814040       -22.1512
  32   2.0000      -0.782971       -21.3057
  33   2.0000      -0.769993       -20.9526
  34   2.0000      -0.712564       -19.3899
  35   2.0000      -0.703918       -19.1546
  36   2.0000      -0.687489       -18.7075
  37   2.0000      -0.665209       -18.1013
  38   2.0000      -0.644185       -17.5292
  39   2.0000      -0.616063       -16.7639
  40   2.0000      -0.593451       -16.1486
  41   2.0000      -0.569810       -15.5053
  42   2.0000      -0.558719       -15.2035
  43   2.0000      -0.549466       -14.9517
  44   2.0000      -0.530988       -14.4489
  45   2.0000      -0.524958       -14.2848
  46   2.0000      -0.517192       -14.0735
  47   2.0000      -0.515617       -14.0307
  48   2.0000      -0.502794       -13.6817
  49   2.0000      -0.498996       -13.5784
  50   2.0000      -0.492961       -13.4142
  51   2.0000      -0.485638       -13.2149
  52   2.0000      -0.476884       -12.9767
  53   2.0000      -0.464575       -12.6417
  54   2.0000      -0.456898       -12.4328
  55   2.0000      -0.448116       -12.1939
  56   2.0000      -0.439770       -11.9668
  57   2.0000      -0.436628       -11.8813
  58   2.0000      -0.429023       -11.6743
  59   2.0000      -0.426811       -11.6141
  60   2.0000      -0.417711       -11.3665
  61   2.0000      -0.410746       -11.1770
  62   2.0000      -0.408073       -11.1042
  63   2.0000      -0.335472        -9.1287
  64   2.0000      -0.329531        -8.9670
  65   2.0000      -0.324322        -8.8253
  66   2.0000      -0.302797        -8.2395
  67   0.0000       0.038333         1.0431
  68   0.0000       0.056983         1.5506
  69   0.0000       0.118800         3.2327
  70   0.0000       0.119670         3.2564
  71   0.0000       0.130677         3.5559

MULLIKEN ATOMIC CHARGES
-----------------------
   0 S :    0.098016
   1 C :   -0.149196
   2 C :   -0.066264
   3 C :    0.003099
   4 C :   -0.131621
   5 H :    0.019335
   6 C :    0.063343
   7 H :    0.025421
   8 H :    0.014749
   9 C :   -0.029018
  10 H :    0.032706
  11 H :    0.025963
  12 C :   -0.041045
  13 H :    0.009430
  14 H :    0.022244
  15 H :    0.035986
  16 S :    0.103648
  17 C :   -0.089805
  18 C :   -0.051856
  19 C :    0.002751
  20 C :   -0.193729
  21 H :    0.034904
  22 C :    0.041962
  23 H :    0.014823
  24 H :    0.048373
  25 C :   -0.120789
  26 H :    0.053737
  27 H :    0.035043
  28 C :   -0.029974
  29 H :    0.030432
  30 H :    0.035143
  31 H :    0.032561
  32 H :    0.064255
  33 H :    0.055373
Sum of atomic charges:   -0.0000000

LOEWDIN ATOMIC CHARGES
----------------------
   0 S :    0.392550
   1 C :   -0.186690
   2 C :   -0.070193
   3 C :   -0.066118
   4 C :   -0.207333
   5 H :    0.033196
   6 C :   -0.029931
   7 H :    0.034119
   8 H :    0.027819
   9 C :   -0.034185
  10 H :    0.025348
  11 H :    0.024110
  12 C :   -0.064060
  13 H :    0.016544
  14 H :    0.020979
  15 H :    0.030483
  16 S :    0.422979
  17 C :   -0.182590
  18 C :   -0.077661
  19 C :   -0.055588
  20 C :   -0.207464
  21 H :    0.038602
  22 C :   -0.039894
  23 H :    0.029292
  24 H :    0.045037
  25 C :   -0.045952
  26 H :    0.026022
  27 H :    0.030689
  28 C :   -0.065372
  29 H :    0.025757
  30 H :    0.023789
  31 H :    0.026642
  32 H :    0.036022
  33 H :    0.023052

  Mayer bond orders larger than 0.100000
B(  0-S ,  1-C ) :   1.1453 B(  0-S ,  4-C ) :   1.1384 B(  1-C ,  2-C ) :   1.5947
B(  1-C , 32-H ) :   0.9710 B(  2-C ,  3-C ) :   1.2234 B(  2-C ,  6-C ) :   1.0409
B(  3-C ,  4-C ) :   1.6028 B(  3-C ,  5-H ) :   0.9936 B(  4-C , 20-C ) :   1.0101
B(  6-C ,  7-H ) :   0.9470 B(  6-C ,  8-H ) :   0.9424 B(  6-C ,  9-C ) :   1.0196
B(  9-C , 10-H ) :   0.9670 B(  9-C , 11-H ) :   0.9590 B(  9-C , 12-C ) :   1.0732
B( 12-C , 13-H ) :   0.9735 B( 12-C , 14-H ) :   0.9748 B( 12-C , 15-H ) :   0.9763
B( 16-S , 17-C ) :   1.1877 B( 16-S , 20-C ) :   1.1581 B( 17-C , 18-C ) :   1.5610
B( 17-C , 20-C ) :   0.1079 B( 17-C , 33-H ) :   0.9746 B( 18-C , 19-C ) :   1.2539
B( 18-C , 21-H ) :   0.9892 B( 19-C , 20-C ) :   1.5648 B( 19-C , 22-C ) :   1.0542
B( 22-C , 23-H ) :   0.9377 B( 22-C , 24-H ) :   0.9259 B( 22-C , 25-C ) :   1.0338
B( 25-C , 26-H ) :   0.9567 B( 25-C , 27-H ) :   0.9602 B( 25-C , 28-C ) :   1.0833
B( 28-C , 29-H ) :   0.9739 B( 28-C , 30-H ) :   0.9758 B( 28-C , 31-H ) :   0.9741

Dispersion correction           -0.015177913
FINAL SINGLE POINT ENERGY     -1339.873476858598

DIPOLE MOMENT
-------------
                                X             Y             Z
Electronic contribution:     -5.72976      -6.73365      28.35340
Nuclear contribution   :      5.96959       6.92252     -28.93446
                        -----------------------------------------
Total Dipole Moment    :      0.23983       0.18887      -0.58106
                        -----------------------------------------
Magnitude (a.u.)       :      0.65637
Magnitude (Debye)      :      1.66836

Rotational constants in cm-1:     0.018718     0.009048     0.007413
Rotational constants in MHz :   561.152167   271.256571   222.250031

                             ****ORCA TERMINATED NORMALLY****
TOTAL RUN TIME: 0 days 0 hours 0 minutes 22 seconds 239 msec
