                         Program Version 4.2.1 -  RELEASE  -
|  1> ! wB97X-D3 SP def2-SVP
|  2> %pal
|  3> nprocs 24
|  4> end
|  5>
|  6> * xyz 0 1
|  7> S 	 -57.2371 	 5.66176 	 -33.1211
|  8> C 	 -57.4461 	 3.91899 	 -32.9799
|  9> C 	 -56.2509 	 3.25081 	 -33.0395
| 10> C 	 -55.1618 	 4.15097 	 -33.1589
| 11> C 	 -55.4869 	 5.48217 	 -33.1613
| 12> H 	 -54.1208 	 3.84311 	 -33.2498
| 13> C 	 -55.9732 	 1.71034 	 -32.947
| 14> H 	 -55.3594 	 1.46032 	 -33.7722
| 15> H 	 -56.8774 	 1.06618 	 -32.9407
| 16> C 	 -55.2173 	 1.14583 	 -31.7092
| 17> H 	 -54.3251 	 1.68513 	 -31.4107
| 18> H 	 -55.7827 	 1.13305 	 -30.8352
| 19> C 	 -54.7197 	 -0.319364 	 -31.9296
| 20> H 	 -54.2515 	 -0.696455 	 -31.0426
| 21> H 	 -55.6054 	 -0.915577 	 -32.2288
| 22> H 	 -53.9098 	 -0.310892 	 -32.635
| 23> S 	 -54.946 	 7.79848 	 -34.5356
| 24> C 	 -53.3611 	 8.52194 	 -34.5271
| 25> C 	 -52.5714 	 7.97833 	 -33.5551
| 26> C 	 -53.2149 	 6.8592 	 -32.9484
| 27> C 	 -54.5015 	 6.56865 	 -33.4034
| 28> H 	 -51.5599 	 8.31081 	 -33.3495
| 29> C 	 -52.5887 	 6.00456 	 -31.8421
| 30> H 	 -52.1375 	 5.14825 	 -32.2453
| 31> H 	 -53.2945 	 5.65561 	 -31.0573
| 32> C 	 -51.4874 	 6.67953 	 -31.042
| 33> H 	 -51.6872 	 7.60225 	 -30.6293
| 34> H 	 -50.6676 	 6.75328 	 -31.7979
| 35> C 	 -50.8591 	 5.73471 	 -29.9237
| 36> H 	 -50.063 	 6.2794 	 -29.4727
| 37> H 	 -50.5372 	 4.74998 	 -30.2653
| 38> H 	 -51.571 	 5.47498 	 -29.1642
| 39> H 	 -58.3765 	 3.46275 	 -32.8414
| 40> H 	 -53.1584 	 9.4829 	 -34.9328
| 41> *
| 42>
| 43>                          ****END OF INPUT****

CARTESIAN COORDINATES (ANGSTROEM)
---------------------------------
  S    -57.237100    5.661760  -33.121100
  C    -57.446100    3.918990  -32.979900
  C    -56.250900    3.250810  -33.039500
  C    -55.161800    4.150970  -33.158900
  C    -55.486900    5.482170  -33.161300
  H    -54.120800    3.843110  -33.249800
  C    -55.973200    1.710340  -32.947000
  H    -55.359400    1.460320  -33.772200
  H    -56.877400    1.066180  -32.940700
  C    -55.217300    1.145830  -31.709200
  H    -54.325100    1.685130  -31.410700
  H    -55.782700    1.133050  -30.835200
  C    -54.719700   -0.319364  -31.929600
  H    -54.251500   -0.696455  -31.042600
  H    -55.605400   -0.915577  -32.228800
  H    -53.909800   -0.310892  -32.635000
  S    -54.946000    7.798480  -34.535600
  C    -53.361100    8.521940  -34.527100
  C    -52.571400    7.978330  -33.555100
  C    -53.214900    6.859200  -32.948400
  C    -54.501500    6.568650  -33.403400
  H    -51.559900    8.310810  -33.349500
  C    -52.588700    6.004560  -31.842100
  H    -52.137500    5.148250  -32.245300
  H    -53.294500    5.655610  -31.057300
  C    -51.487400    6.679530  -31.042000
  H    -51.687200    7.602250  -30.629300
  H    -50.667600    6.753280  -31.797900
  C    -50.859100    5.734710  -29.923700
  H    -50.063000    6.279400  -29.472700
  H    -50.537200    4.749980  -30.265300
  H    -51.571000    5.474980  -29.164200
  H    -58.376500    3.462750  -32.841400
  H    -53.158400    9.482900  -34.932800

 Total Charge           Charge          ....    0
 Multiplicity           Mult            ....    1
 Number of Electrons    NEL             ....  134
 Basis Dimension        Dim             ....  322

ORBITAL ENERGIES
----------------

  NO   OCC          E(Eh)            E(eV)
   0   2.0000     -88.969930     -2420.9949
   1   2.0000     -88.962146     -2420.7831
   2   2.0000     -10.333772      -281.1962
   3   2.0000     -10.328660      -281.0571
   4   2.0000     -10.314586      -280.6741
   5   2.0000     -10.312731      -280.6237
   6   2.0000     -10.305507      -280.4271
   7   2.0000     -10.304088      -280.3885
   8   2.0000     -10.300467      -280.2899
   9   2.0000     -10.295216      -280.1471
  10   2.0000     -10.292578      -280.0753
  11   2.0000     -10.285541      -279.8838
  12   2.0000     -10.284352      -279.8514
  13   2.0000     -10.283001      -279.8147
  14   2.0000     -10.280257      -279.7400
  15   2.0000     -10.276986      -279.6510
  16   2.0000      -8.084215      -219.9827
  17   2.0000      -8.077699      -219.8054
  18   2.0000      -6.042852      -164.4344
  19   2.0000      -6.038860      -164.3257
  20   2.0000      -6.036088      -164.2503
  21   2.0000      -6.034791      -164.2150
  22   2.0000      -6.032076      -164.1411
  23   2.0000      -6.028534      -164.0448
  24   2.0000      -1.008964       -27.4553
  25   2.0000      -0.988337       -26.8940
  26   2.0000      -0.908436       -24.7198
  27   2.0000      -0.906815       -24.6757
  28   2.0000      -0.872833       -23.7510
  29   2.0000      -0.851239       -23.1634
  30   2.0000      -0.843301       -22.9474
  31   2.0000      -0.818222       -22.2649
  32   2.0000      -0.782565       -21.2947
  33   2.0000      -0.774956       -21.0876
  34   2.0000      -0.706986       -19.2381
  35   2.0000      -0.701916       -19.1001
  36   2.0000      -0.701608       -19.0917
  37   2.0000      -0.656769       -17.8716
  38   2.0000      -0.644925       -17.5493
  39   2.0000      -0.625265       -17.0143
  40   2.0000      -0.601733       -16.3740
  41   2.0000      -0.572129       -15.5684
  42   2.0000      -0.570661       -15.5285
  43   2.0000      -0.567809       -15.4509
  44   2.0000      -0.528945       -14.3933
  45   2.0000      -0.522878       -14.2282
  46   2.0000      -0.517775       -14.0894
  47   2.0000      -0.510377       -13.8881
  48   2.0000      -0.502007       -13.6603
  49   2.0000      -0.497250       -13.5309
  50   2.0000      -0.494113       -13.4455
  51   2.0000      -0.481314       -13.0972
  52   2.0000      -0.476510       -12.9665
  53   2.0000      -0.466690       -12.6993
  54   2.0000      -0.460173       -12.5219
  55   2.0000      -0.452219       -12.3055
  56   2.0000      -0.450289       -12.2530
  57   2.0000      -0.444450       -12.0941
  58   2.0000      -0.436490       -11.8775
  59   2.0000      -0.427989       -11.6462
  60   2.0000      -0.419626       -11.4186
  61   2.0000      -0.410025       -11.1573
  62   2.0000      -0.408058       -11.1038
  63   2.0000      -0.355450        -9.6723
  64   2.0000      -0.334782        -9.1099
  65   2.0000      -0.329371        -8.9626
  66   2.0000      -0.293192        -7.9782
  67   0.0000       0.028262         0.7691
  68   0.0000       0.074717         2.0332
  69   0.0000       0.110329         3.0022
  70   0.0000       0.127546         3.4707
  71   0.0000       0.133989         3.6460

MULLIKEN ATOMIC CHARGES
-----------------------
   0 S :    0.108288
   1 C :   -0.114628
   2 C :   -0.030841
   3 C :   -0.001554
   4 C :   -0.114537
   5 H :    0.014556
   6 C :    0.080671
   7 H :    0.022881
   8 H :    0.026770
   9 C :   -0.073719
  10 H :    0.016882
  11 H :    0.016512
  12 C :   -0.061577
  13 H :    0.029719
  14 H :    0.040916
  15 H :    0.027919
  16 S :    0.091585
  17 C :   -0.064128
  18 C :   -0.044360
  19 C :   -0.044984
  20 C :   -0.140556
  21 H :    0.025155
  22 C :    0.062864
  23 H :    0.017882
  24 H :    0.039245
  25 C :   -0.110302
  26 H :    0.025386
  27 H :    0.028975
  28 C :   -0.029111
  29 H :    0.031846
  30 H :    0.022520
  31 H :    0.022495
  32 H :    0.026022
  33 H :    0.051206
Sum of atomic charges:    0.0000000

LOEWDIN ATOMIC CHARGES
----------------------
   0 S :    0.395499
   1 C :   -0.177228
   2 C :   -0.060894
   3 C :   -0.058310
   4 C :   -0.190147
   5 H :    0.032381
   6 C :   -0.023830
   7 H :    0.027184
   8 H :    0.033888
   9 C :   -0.037709
  10 H :    0.018683
  11 H :    0.013032
  12 C :   -0.059837
  13 H :    0.024811
  14 H :    0.027643
  15 H :    0.020527
  16 S :    0.416069
  17 C :   -0.183640
  18 C :   -0.070980
  19 C :   -0.061203
  20 C :   -0.196831
  21 H :    0.035219
  22 C :   -0.034835
  23 H :    0.021779
  24 H :    0.033826
  25 C :   -0.031726
  26 H :    0.011239
  27 H :    0.024777
  28 C :   -0.059295
  29 H :    0.023795
  30 H :    0.023408
  31 H :    0.019773
  32 H :    0.018162
  33 H :    0.024768

  Mayer bond orders larger than 0.100000
B(  0-S ,  1-C ) :   1.1327 B(  0-S ,  4-C ) :   1.1372 B(  1-C ,  2-C ) :   1.6216
B(  1-C , 32-H ) :   0.9764 B(  2-C ,  3-C ) :   1.2353 B(  2-C ,  6-C ) :   1.0159
B(  3-C ,  4-C ) :   1.5818 B(  3-C ,  5-H ) :   0.9935 B(  4-C , 20-C ) :   1.0373
B(  6-C ,  7-H ) :   0.9428 B(  6-C ,  8-H ) :   0.9472 B(  6-C ,  9-C ) :   1.0540
B(  9-C , 10-H ) :   0.9557 B(  9-C , 11-H ) :   0.9603 B(  9-C , 12-C ) :   1.0810
B( 12-C , 13-H ) :   0.9733 B( 12-C , 14-H ) :   0.9771 B( 12-C , 15-H ) :   0.9778
B( 16-S , 17-C ) :   1.1728 B( 16-S , 20-C ) :   1.1454 B( 17-C , 18-C ) :   1.5828
B( 17-C , 33-H ) :   0.9622 B( 18-C , 19-C ) :   1.2723 B( 18-C , 21-H ) :   0.9904
B( 19-C , 20-C ) :   1.5905 B( 19-C , 22-C ) :   1.0212 B( 22-C , 23-H ) :   0.9270
B( 22-C , 24-H ) :   0.9477 B( 22-C , 25-C ) :   1.0720 B( 25-C , 26-H ) :   0.9657
B( 25-C , 27-H ) :   0.9471 B( 25-C , 28-C ) :   1.0814 B( 28-C , 29-H ) :   0.9757
B( 28-C , 30-H ) :   0.9745 B( 28-C , 31-H ) :   0.9756

Dispersion correction           -0.013229523
FINAL SINGLE POINT ENERGY     -1339.871265212856

DIPOLE MOMENT
-------------
                                X             Y             Z
Electronic contribution:    -18.52721      22.46407     -16.07140
Nuclear contribution   :     19.01229     -22.93582      16.43047
                        -----------------------------------------
Total Dipole Moment    :      0.48509      -0.47175       0.35907
                        -----------------------------------------
Magnitude (a.u.)       :      0.76602
Magnitude (Debye)      :      1.94707

Rotational constants in cm-1:     0.015597     0.008937     0.006173
Rotational constants in MHz :   467.596737   267.911625   185.065661

                             ****ORCA TERMINATED NORMALLY****
TOTAL RUN TIME: 0 days 0 hours 0 minutes 20 seconds 955 msec
