                         Program Version 4.2.1 -  RELEASE  -
|  1> ! wB97X-D3 SP def2-SVP
|  2> %pal
|  3> nprocs 24
|  4> end
|  5>
|  6> * xyz 0 1
|  7> S 	 -69.6827 	 9.4358 	 -80.079
|  8> C 	 -69.5375 	 8.2969 	 -81.3863
|  9> C 	 -69.8213 	 6.99751 	 -80.9853
| 10> C 	 -70.2738 	 6.96324 	 -79.6291
| 11> C 	 -70.2223 	 8.16143 	 -78.9685
| 12> H 	 -70.5881 	 6.10431 	 -79.1169
| 13> C 	 -69.9532 	 5.8014 	 -81.9104
| 14> H 	 -70.6215 	 5.98782 	 -82.7644
| 15> H 	 -70.3924 	 4.9638 	 -81.3198
| 16> C 	 -68.6276 	 5.24294 	 -82.3989
| 17> H 	 -68.6976 	 4.62889 	 -83.3228
| 18> H 	 -68.0412 	 5.99915 	 -82.8877
| 19> C 	 -67.7904 	 4.62343 	 -81.2938
| 20> H 	 -67.4745 	 5.2796 	 -80.5376
| 21> H 	 -68.3672 	 3.90127 	 -80.7368
| 22> H 	 -66.9521 	 3.94005 	 -81.6267
| 23> S 	 -72.0763 	 9.59717 	 -77.5237
| 24> C 	 -72.2314 	 9.25005 	 -75.8186
| 25> C 	 -71.3929 	 8.17071 	 -75.4302
| 26> C 	 -70.3939 	 7.90017 	 -76.396
| 27> C 	 -70.6574 	 8.52505 	 -77.6118
| 28> H 	 -71.3921 	 7.78358 	 -74.4562
| 29> C 	 -69.3509 	 6.81998 	 -76.1738
| 30> H 	 -69.1062 	 6.92211 	 -75.1156
| 31> H 	 -68.4687 	 6.93946 	 -76.756
| 32> C 	 -69.8723 	 5.44469 	 -76.2374
| 33> H 	 -70.6208 	 5.19699 	 -76.9773
| 34> H 	 -70.414 	 5.12183 	 -75.2789
| 35> C 	 -68.7586 	 4.40662 	 -76.4596
| 36> H 	 -67.9349 	 4.40552 	 -75.6856
| 37> H 	 -68.2884 	 4.46478 	 -77.4052
| 38> H 	 -69.1686 	 3.381 	 -76.4668
| 39> H 	 -69.3744 	 8.62784 	 -82.3911
| 40> H 	 -72.9157 	 9.73645 	 -75.15
| 41> *
| 42>
| 43>                          ****END OF INPUT****

CARTESIAN COORDINATES (ANGSTROEM)
---------------------------------
  S    -69.682700    9.435800  -80.079000
  C    -69.537500    8.296900  -81.386300
  C    -69.821300    6.997510  -80.985300
  C    -70.273800    6.963240  -79.629100
  C    -70.222300    8.161430  -78.968500
  H    -70.588100    6.104310  -79.116900
  C    -69.953200    5.801400  -81.910400
  H    -70.621500    5.987820  -82.764400
  H    -70.392400    4.963800  -81.319800
  C    -68.627600    5.242940  -82.398900
  H    -68.697600    4.628890  -83.322800
  H    -68.041200    5.999150  -82.887700
  C    -67.790400    4.623430  -81.293800
  H    -67.474500    5.279600  -80.537600
  H    -68.367200    3.901270  -80.736800
  H    -66.952100    3.940050  -81.626700
  S    -72.076300    9.597170  -77.523700
  C    -72.231400    9.250050  -75.818600
  C    -71.392900    8.170710  -75.430200
  C    -70.393900    7.900170  -76.396000
  C    -70.657400    8.525050  -77.611800
  H    -71.392100    7.783580  -74.456200
  C    -69.350900    6.819980  -76.173800
  H    -69.106200    6.922110  -75.115600
  H    -68.468700    6.939460  -76.756000
  C    -69.872300    5.444690  -76.237400
  H    -70.620800    5.196990  -76.977300
  H    -70.414000    5.121830  -75.278900
  C    -68.758600    4.406620  -76.459600
  H    -67.934900    4.405520  -75.685600
  H    -68.288400    4.464780  -77.405200
  H    -69.168600    3.381000  -76.466800
  H    -69.374400    8.627840  -82.391100
  H    -72.915700    9.736450  -75.150000

 Total Charge           Charge          ....    0
 Multiplicity           Mult            ....    1
 Number of Electrons    NEL             ....  134
 Basis Dimension        Dim             ....  322

ORBITAL ENERGIES
----------------

  NO   OCC          E(Eh)            E(eV)
   0   2.0000     -88.968191     -2420.9476
   1   2.0000     -88.963226     -2420.8124
   2   2.0000     -10.328379      -281.0495
   3   2.0000     -10.326293      -280.9927
   4   2.0000     -10.322983      -280.9027
   5   2.0000     -10.314118      -280.6614
   6   2.0000     -10.304448      -280.3983
   7   2.0000     -10.302046      -280.3329
   8   2.0000     -10.296075      -280.1704
   9   2.0000     -10.294637      -280.1313
  10   2.0000     -10.291121      -280.0356
  11   2.0000     -10.290075      -280.0072
  12   2.0000     -10.288012      -279.9510
  13   2.0000     -10.284319      -279.8505
  14   2.0000     -10.280260      -279.7401
  15   2.0000     -10.274214      -279.5756
  16   2.0000      -8.082360      -219.9322
  17   2.0000      -8.078011      -219.8138
  18   2.0000      -6.040752      -164.3772
  19   2.0000      -6.036988      -164.2748
  20   2.0000      -6.036447      -164.2601
  21   2.0000      -6.033222      -164.1723
  22   2.0000      -6.032423      -164.1506
  23   2.0000      -6.028947      -164.0560
  24   2.0000      -1.003582       -27.3088
  25   2.0000      -0.982088       -26.7240
  26   2.0000      -0.919380       -25.0176
  27   2.0000      -0.912753       -24.8373
  28   2.0000      -0.864756       -23.5312
  29   2.0000      -0.853729       -23.2311
  30   2.0000      -0.846569       -23.0363
  31   2.0000      -0.812002       -22.0957
  32   2.0000      -0.785802       -21.3827
  33   2.0000      -0.772937       -21.0327
  34   2.0000      -0.709007       -19.2931
  35   2.0000      -0.702143       -19.1063
  36   2.0000      -0.694018       -18.8852
  37   2.0000      -0.668295       -18.1852
  38   2.0000      -0.647810       -17.6278
  39   2.0000      -0.616767       -16.7831
  40   2.0000      -0.602047       -16.3825
  41   2.0000      -0.570471       -15.5233
  42   2.0000      -0.567038       -15.4299
  43   2.0000      -0.556962       -15.1557
  44   2.0000      -0.536845       -14.6083
  45   2.0000      -0.527995       -14.3675
  46   2.0000      -0.517666       -14.0864
  47   2.0000      -0.510944       -13.9035
  48   2.0000      -0.506540       -13.7836
  49   2.0000      -0.493996       -13.4423
  50   2.0000      -0.487507       -13.2657
  51   2.0000      -0.483009       -13.1434
  52   2.0000      -0.473207       -12.8766
  53   2.0000      -0.466226       -12.6867
  54   2.0000      -0.456739       -12.4285
  55   2.0000      -0.447560       -12.1787
  56   2.0000      -0.444166       -12.0864
  57   2.0000      -0.439595       -11.9620
  58   2.0000      -0.437174       -11.8961
  59   2.0000      -0.429618       -11.6905
  60   2.0000      -0.426895       -11.6164
  61   2.0000      -0.408388       -11.1128
  62   2.0000      -0.405289       -11.0285
  63   2.0000      -0.341354        -9.2887
  64   2.0000      -0.331835        -9.0297
  65   2.0000      -0.328185        -8.9304
  66   2.0000      -0.295800        -8.0491
  67   0.0000       0.027465         0.7474
  68   0.0000       0.063001         1.7143
  69   0.0000       0.111002         3.0205
  70   0.0000       0.121491         3.3059
  71   0.0000       0.122311         3.3282

MULLIKEN ATOMIC CHARGES
-----------------------
   0 S :    0.102491
   1 C :   -0.115559
   2 C :   -0.071170
   3 C :    0.068736
   4 C :   -0.170864
   5 H :   -0.026899
   6 C :    0.046327
   7 H :    0.044626
   8 H :    0.024583
   9 C :   -0.052381
  10 H :    0.021447
  11 H :    0.011025
  12 C :   -0.046669
  13 H :    0.036526
  14 H :    0.003422
  15 H :    0.039475
  16 S :    0.116787
  17 C :   -0.090651
  18 C :   -0.026641
  19 C :   -0.049149
  20 C :   -0.135346
  21 H :    0.004315
  22 C :    0.132752
  23 H :    0.020210
  24 H :    0.028970
  25 C :   -0.104319
  26 H :    0.031197
  27 H :    0.032366
  28 C :   -0.066660
  29 H :    0.034269
  30 H :    0.025460
  31 H :    0.028145
  32 H :    0.045438
  33 H :    0.057742
Sum of atomic charges:    0.0000000

LOEWDIN ATOMIC CHARGES
----------------------
   0 S :    0.398091
   1 C :   -0.186733
   2 C :   -0.066770
   3 C :   -0.052845
   4 C :   -0.189462
   5 H :    0.020817
   6 C :   -0.030530
   7 H :    0.036470
   8 H :    0.032016
   9 C :   -0.051998
  10 H :    0.028923
  11 H :    0.019394
  12 C :   -0.069208
  13 H :    0.020771
  14 H :    0.018468
  15 H :    0.036629
  16 S :    0.405722
  17 C :   -0.176855
  18 C :   -0.063013
  19 C :   -0.046781
  20 C :   -0.201247
  21 H :    0.021315
  22 C :   -0.029454
  23 H :    0.039638
  24 H :    0.030155
  25 C :   -0.046323
  26 H :    0.018919
  27 H :    0.031164
  28 C :   -0.068518
  29 H :    0.027658
  30 H :    0.016552
  31 H :    0.028329
  32 H :    0.023144
  33 H :    0.025564

  Mayer bond orders larger than 0.100000
B(  0-S ,  1-C ) :   1.1571 B(  0-S ,  4-C ) :   1.1456 B(  1-C ,  2-C ) :   1.5923
B(  1-C , 32-H ) :   0.9722 B(  2-C ,  3-C ) :   1.2409 B(  2-C ,  6-C ) :   1.0137
B(  3-C ,  4-C ) :   1.5874 B(  3-C ,  5-H ) :   1.0026 B(  4-C , 20-C ) :   1.0109
B(  6-C ,  7-H ) :   0.9438 B(  6-C ,  8-H ) :   0.9505 B(  6-C ,  9-C ) :   1.0713
B(  9-C , 10-H ) :   0.9530 B(  9-C , 11-H ) :   0.9511 B(  9-C , 12-C ) :   1.0669
B( 12-C , 13-H ) :   0.9764 B( 12-C , 14-H ) :   0.9724 B( 12-C , 15-H ) :   0.9717
B( 16-S , 17-C ) :   1.1741 B( 16-S , 20-C ) :   1.1400 B( 17-C , 18-C ) :   1.5729
B( 17-C , 20-C ) :   0.1065 B( 17-C , 33-H ) :   0.9723 B( 18-C , 19-C ) :   1.2635
B( 18-C , 21-H ) :   0.9919 B( 19-C , 20-C ) :   1.5824 B( 19-C , 22-C ) :   1.0591
B( 22-C , 23-H ) :   0.9131 B( 22-C , 24-H ) :   0.9458 B( 22-C , 25-C ) :   1.0507
B( 25-C , 26-H ) :   0.9578 B( 25-C , 27-H ) :   0.9478 B( 25-C , 28-C ) :   1.0868
B( 28-C , 29-H ) :   0.9735 B( 28-C , 30-H ) :   0.9754 B( 28-C , 31-H ) :   0.9724

Dispersion correction           -0.015104752
FINAL SINGLE POINT ENERGY     -1339.872690677879

DIPOLE MOMENT
-------------
                                X             Y             Z
Electronic contribution:    -12.69052      28.89239       1.74063
Nuclear contribution   :     12.67245     -29.54825      -1.66016
                        -----------------------------------------
Total Dipole Moment    :     -0.01808      -0.65586       0.08047
                        -----------------------------------------
Magnitude (a.u.)       :      0.66103
Magnitude (Debye)      :      1.68020

Rotational constants in cm-1:     0.018371     0.009899     0.006988
Rotational constants in MHz :   550.735522   296.773884   209.496428

                             ****ORCA TERMINATED NORMALLY****
TOTAL RUN TIME: 0 days 0 hours 0 minutes 22 seconds 563 msec
