                         Program Version 4.2.1 -  RELEASE  -
|  1> ! wB97X-D3 SP def2-SVP
|  2> %pal
|  3> nprocs 24
|  4> end
|  5>
|  6> * xyz 0 1
|  7> S 	 -130.366 	 2.56961 	 5.36515
|  8> C 	 -129.787 	 3.48545 	 3.93714
|  9> C 	 -128.416 	 3.69898 	 4.00439
| 10> C 	 -127.877 	 3.10598 	 5.23944
| 11> C 	 -128.79 	 2.66316 	 6.07904
| 12> H 	 -126.849 	 2.99531 	 5.58092
| 13> C 	 -127.48 	 4.16943 	 2.88843
| 14> H 	 -128.109 	 4.63918 	 2.15232
| 15> H 	 -126.988 	 3.30962 	 2.40866
| 16> C 	 -126.517 	 5.16248 	 3.44488
| 17> H 	 -126.616 	 5.37754 	 4.48053
| 18> H 	 -125.534 	 4.65673 	 3.32795
| 19> C 	 -126.429 	 6.48674 	 2.63587
| 20> H 	 -125.575 	 7.16849 	 3.02135
| 21> H 	 -126.001 	 6.32923 	 1.65844
| 22> H 	 -127.413 	 6.954 	 2.47719
| 23> S 	 -127.98 	 3.22958 	 8.5593
| 24> C 	 -128.374 	 2.13065 	 9.93123
| 25> C 	 -128.471 	 0.787263 	 9.42727
| 26> C 	 -128.722 	 0.801691 	 7.97022
| 27> C 	 -128.529 	 2.10234 	 7.39026
| 28> H 	 -128.449 	 -0.0623677 	 10.0979
| 29> C 	 -129.206 	 -0.453655 	 7.23831
| 30> H 	 -129.941 	 -0.186288 	 6.50806
| 31> H 	 -129.763 	 -1.07632 	 8.00465
| 32> C 	 -128.088 	 -1.25549 	 6.64256
| 33> H 	 -128.409 	 -2.30252 	 6.42939
| 34> H 	 -127.303 	 -1.29323 	 7.39095
| 35> C 	 -127.474 	 -0.704585 	 5.34928
| 36> H 	 -126.727 	 -1.39593 	 4.95016
| 37> H 	 -127.229 	 0.369791 	 5.46916
| 38> H 	 -128.338 	 -0.77705 	 4.66764
| 39> H 	 -130.259 	 3.63665 	 2.97742
| 40> H 	 -128.031 	 2.35499 	 10.9363
| 41> *
| 42>
| 43>                          ****END OF INPUT****

CARTESIAN COORDINATES (ANGSTROEM)
---------------------------------
  S    -130.366000    2.569610    5.365150
  C    -129.787000    3.485450    3.937140
  C    -128.416000    3.698980    4.004390
  C    -127.877000    3.105980    5.239440
  C    -128.790000    2.663160    6.079040
  H    -126.849000    2.995310    5.580920
  C    -127.480000    4.169430    2.888430
  H    -128.109000    4.639180    2.152320
  H    -126.988000    3.309620    2.408660
  C    -126.517000    5.162480    3.444880
  H    -126.616000    5.377540    4.480530
  H    -125.534000    4.656730    3.327950
  C    -126.429000    6.486740    2.635870
  H    -125.575000    7.168490    3.021350
  H    -126.001000    6.329230    1.658440
  H    -127.413000    6.954000    2.477190
  S    -127.980000    3.229580    8.559300
  C    -128.374000    2.130650    9.931230
  C    -128.471000    0.787263    9.427270
  C    -128.722000    0.801691    7.970220
  C    -128.529000    2.102340    7.390260
  H    -128.449000   -0.062368   10.097900
  C    -129.206000   -0.453655    7.238310
  H    -129.941000   -0.186288    6.508060
  H    -129.763000   -1.076320    8.004650
  C    -128.088000   -1.255490    6.642560
  H    -128.409000   -2.302520    6.429390
  H    -127.303000   -1.293230    7.390950
  C    -127.474000   -0.704585    5.349280
  H    -126.727000   -1.395930    4.950160
  H    -127.229000    0.369791    5.469160
  H    -128.338000   -0.777050    4.667640
  H    -130.259000    3.636650    2.977420
  H    -128.031000    2.354990   10.936300

 Total Charge           Charge          ....    0
 Multiplicity           Mult            ....    1
 Number of Electrons    NEL             ....  134
 Basis Dimension        Dim             ....  322

ORBITAL ENERGIES
----------------

  NO   OCC          E(Eh)            E(eV)
   0   2.0000     -88.967064     -2420.9169
   1   2.0000     -88.966063     -2420.8897
   2   2.0000     -10.330280      -281.1012
   3   2.0000     -10.326735      -281.0047
   4   2.0000     -10.322538      -280.8905
   5   2.0000     -10.317333      -280.7489
   6   2.0000     -10.316738      -280.7327
   7   2.0000     -10.311445      -280.5887
   8   2.0000     -10.307303      -280.4760
   9   2.0000     -10.292789      -280.0810
  10   2.0000     -10.291847      -280.0554
  11   2.0000     -10.290274      -280.0126
  12   2.0000     -10.285673      -279.8874
  13   2.0000     -10.283072      -279.8166
  14   2.0000     -10.281429      -279.7719
  15   2.0000     -10.274508      -279.5836
  16   2.0000      -8.081538      -219.9098
  17   2.0000      -8.080309      -219.8764
  18   2.0000      -6.040156      -164.3610
  19   2.0000      -6.039072      -164.3315
  20   2.0000      -6.036048      -164.2492
  21   2.0000      -6.035101      -164.2234
  22   2.0000      -6.032208      -164.1447
  23   2.0000      -6.030589      -164.1007
  24   2.0000      -1.007902       -27.4264
  25   2.0000      -0.976845       -26.5813
  26   2.0000      -0.917511       -24.9667
  27   2.0000      -0.910324       -24.7712
  28   2.0000      -0.870779       -23.6951
  29   2.0000      -0.845203       -22.9992
  30   2.0000      -0.837928       -22.8012
  31   2.0000      -0.815443       -22.1893
  32   2.0000      -0.782457       -21.2917
  33   2.0000      -0.769884       -20.9496
  34   2.0000      -0.708281       -19.2733
  35   2.0000      -0.693178       -18.8623
  36   2.0000      -0.684300       -18.6208
  37   2.0000      -0.664006       -18.0685
  38   2.0000      -0.642077       -17.4718
  39   2.0000      -0.617393       -16.8001
  40   2.0000      -0.594888       -16.1877
  41   2.0000      -0.576688       -15.6925
  42   2.0000      -0.562894       -15.3171
  43   2.0000      -0.552450       -15.0329
  44   2.0000      -0.539188       -14.6720
  45   2.0000      -0.520689       -14.1687
  46   2.0000      -0.515163       -14.0183
  47   2.0000      -0.512241       -13.9388
  48   2.0000      -0.504039       -13.7156
  49   2.0000      -0.498150       -13.5554
  50   2.0000      -0.490772       -13.3546
  51   2.0000      -0.475923       -12.9505
  52   2.0000      -0.472237       -12.8502
  53   2.0000      -0.469442       -12.7742
  54   2.0000      -0.453595       -12.3429
  55   2.0000      -0.446944       -12.1620
  56   2.0000      -0.442365       -12.0374
  57   2.0000      -0.433534       -11.7971
  58   2.0000      -0.432697       -11.7743
  59   2.0000      -0.423153       -11.5146
  60   2.0000      -0.413129       -11.2418
  61   2.0000      -0.410455       -11.1690
  62   2.0000      -0.409519       -11.1436
  63   2.0000      -0.342538        -9.3209
  64   2.0000      -0.329347        -8.9620
  65   2.0000      -0.322867        -8.7857
  66   2.0000      -0.302137        -8.2216
  67   0.0000       0.029339         0.7984
  68   0.0000       0.059834         1.6282
  69   0.0000       0.089739         2.4419
  70   0.0000       0.109268         2.9733
  71   0.0000       0.124104         3.3770

MULLIKEN ATOMIC CHARGES
-----------------------
   0 S :    0.107338
   1 C :   -0.104381
   2 C :   -0.131274
   3 C :    0.017640
   4 C :   -0.123416
   5 H :    0.023342
   6 C :    0.104917
   7 H :    0.008347
   8 H :    0.055461
   9 C :   -0.079313
  10 H :    0.044447
  11 H :    0.026403
  12 C :   -0.084019
  13 H :    0.042804
  14 H :    0.019176
  15 H :    0.050091
  16 S :    0.109265
  17 C :   -0.104546
  18 C :   -0.039183
  19 C :   -0.070029
  20 C :   -0.179209
  21 H :    0.035905
  22 C :    0.078760
  23 H :    0.013911
  24 H :    0.031548
  25 C :   -0.071238
  26 H :    0.030318
  27 H :    0.015565
  28 C :   -0.042438
  29 H :    0.041556
  30 H :    0.040592
  31 H :    0.019832
  32 H :    0.044022
  33 H :    0.067806
Sum of atomic charges:    0.0000000

LOEWDIN ATOMIC CHARGES
----------------------
   0 S :    0.392248
   1 C :   -0.190373
   2 C :   -0.050977
   3 C :   -0.071239
   4 C :   -0.200145
   5 H :    0.032950
   6 C :   -0.027560
   7 H :    0.024906
   8 H :    0.040495
   9 C :   -0.046650
  10 H :    0.021766
  11 H :    0.031491
  12 C :   -0.075046
  13 H :    0.038556
  14 H :    0.019664
  15 H :    0.026561
  16 S :    0.414368
  17 C :   -0.183180
  18 C :   -0.055032
  19 C :   -0.051111
  20 C :   -0.214492
  21 H :    0.032560
  22 C :   -0.036440
  23 H :    0.019290
  24 H :    0.039257
  25 C :   -0.045159
  26 H :    0.025715
  27 H :    0.017240
  28 C :   -0.067524
  29 H :    0.028287
  30 H :    0.028889
  31 H :    0.025370
  32 H :    0.029808
  33 H :    0.025507

  Mayer bond orders larger than 0.100000
B(  0-S ,  1-C ) :   1.1064 B(  0-S ,  4-C ) :   1.1115 B(  1-C ,  2-C ) :   1.6859
B(  1-C , 32-H ) :   0.9622 B(  2-C ,  3-C ) :   1.1611 B(  2-C ,  6-C ) :   1.0294
B(  3-C ,  4-C ) :   1.6649 B(  3-C ,  5-H ) :   0.9823 B(  4-C , 20-C ) :   1.0162
B(  6-C ,  7-H ) :   0.9425 B(  6-C ,  8-H ) :   0.9428 B(  6-C ,  9-C ) :   1.0288
B(  9-C , 10-H ) :   0.9708 B(  9-C , 11-H ) :   0.9508 B(  9-C , 12-C ) :   1.0898
B( 12-C , 13-H ) :   0.9726 B( 12-C , 14-H ) :   0.9729 B( 12-C , 15-H ) :   0.9750
B( 16-S , 17-C ) :   1.1488 B( 16-S , 20-C ) :   1.1674 B( 17-C , 18-C ) :   1.5946
B( 17-C , 20-C ) :   0.1076 B( 17-C , 33-H ) :   0.9627 B( 18-C , 19-C ) :   1.2482
B( 18-C , 21-H ) :   0.9829 B( 19-C , 20-C ) :   1.5468 B( 19-C , 22-C ) :   1.0402
B( 22-C , 23-H ) :   0.9362 B( 22-C , 24-H ) :   0.9319 B( 22-C , 25-C ) :   1.0718
B( 25-C , 26-H ) :   0.9539 B( 25-C , 27-H ) :   0.9506 B( 25-C , 28-C ) :   1.0792
B( 28-C , 29-H ) :   0.9715 B( 28-C , 30-H ) :   0.9700 B( 28-C , 31-H ) :   0.9748

Dispersion correction           -0.015275071
FINAL SINGLE POINT ENERGY     -1339.848003848620

DIPOLE MOMENT
-------------
                                X             Y             Z
Electronic contribution:    -12.05333       2.84967      15.87798
Nuclear contribution   :     12.49434      -3.21387     -16.18944
                        -----------------------------------------
Total Dipole Moment    :      0.44101      -0.36420      -0.31146
                        -----------------------------------------
Magnitude (a.u.)       :      0.65126
Magnitude (Debye)      :      1.65536

Rotational constants in cm-1:     0.020754     0.008401     0.007421
Rotational constants in MHz :   622.198361   251.868270   222.477203

                             ****ORCA TERMINATED NORMALLY****
TOTAL RUN TIME: 0 days 0 hours 0 minutes 22 seconds 51 msec
