                         Program Version 4.2.1 -  RELEASE  -
|  1> ! wB97X-D3 SP def2-SVP
|  2> %pal
|  3> nprocs 24
|  4> end
|  5>
|  6> * xyz 0 1
|  7> S 	 -92.5327 	 -26.8378 	 -68.6097
|  8> C 	 -94.296 	 -26.6543 	 -68.5097
|  9> C 	 -94.6888 	 -26.5087 	 -67.1887
| 10> C 	 -93.5754 	 -26.6451 	 -66.2578
| 11> C 	 -92.3351 	 -26.7723 	 -66.8548
| 12> H 	 -93.5982 	 -26.7761 	 -65.2111
| 13> C 	 -96.123 	 -26.2473 	 -66.6749
| 14> H 	 -96.3268 	 -26.9944 	 -65.9757
| 15> H 	 -96.6904 	 -26.454 	 -67.5923
| 16> C 	 -96.4748 	 -24.8701 	 -66.1411
| 17> H 	 -96.2032 	 -24.1887 	 -66.8796
| 18> H 	 -97.584 	 -24.7347 	 -66.1234
| 19> C 	 -95.8505 	 -24.5173 	 -64.7758
| 20> H 	 -96.2434 	 -23.5427 	 -64.3774
| 21> H 	 -96.166 	 -25.3189 	 -64.0982
| 22> H 	 -94.787 	 -24.3673 	 -64.8827
| 23> S 	 -90.548 	 -28.7695 	 -66.8079
| 24> C 	 -89.3766 	 -28.8343 	 -65.464
| 25> C 	 -89.4141 	 -27.695 	 -64.7074
| 26> C 	 -90.306 	 -26.6851 	 -65.2007
| 27> C 	 -91.096 	 -27.202 	 -66.28
| 28> H 	 -88.857 	 -27.5564 	 -63.8612
| 29> C 	 -90.4828 	 -25.3288 	 -64.5425
| 30> H 	 -91.0286 	 -24.6899 	 -65.2219
| 31> H 	 -89.5054 	 -24.8403 	 -64.3928
| 32> C 	 -91.2872 	 -25.3415 	 -63.1717
| 33> H 	 -90.743 	 -26.0672 	 -62.6484
| 34> H 	 -92.3307 	 -25.7923 	 -63.3437
| 35> C 	 -91.4274 	 -23.9627 	 -62.4881
| 36> H 	 -92.0225 	 -24.0511 	 -61.6285
| 37> H 	 -92.0937 	 -23.2718 	 -63.1009
| 38> H 	 -90.6248 	 -23.3598 	 -62.3889
| 39> H 	 -95.0186 	 -26.651 	 -69.3554
| 40> H 	 -88.8306 	 -29.7914 	 -65.3375
| 41> *
| 42>
| 43>                          ****END OF INPUT****

CARTESIAN COORDINATES (ANGSTROEM)
---------------------------------
  S    -92.532700  -26.837800  -68.609700
  C    -94.296000  -26.654300  -68.509700
  C    -94.688800  -26.508700  -67.188700
  C    -93.575400  -26.645100  -66.257800
  C    -92.335100  -26.772300  -66.854800
  H    -93.598200  -26.776100  -65.211100
  C    -96.123000  -26.247300  -66.674900
  H    -96.326800  -26.994400  -65.975700
  H    -96.690400  -26.454000  -67.592300
  C    -96.474800  -24.870100  -66.141100
  H    -96.203200  -24.188700  -66.879600
  H    -97.584000  -24.734700  -66.123400
  C    -95.850500  -24.517300  -64.775800
  H    -96.243400  -23.542700  -64.377400
  H    -96.166000  -25.318900  -64.098200
  H    -94.787000  -24.367300  -64.882700
  S    -90.548000  -28.769500  -66.807900
  C    -89.376600  -28.834300  -65.464000
  C    -89.414100  -27.695000  -64.707400
  C    -90.306000  -26.685100  -65.200700
  C    -91.096000  -27.202000  -66.280000
  H    -88.857000  -27.556400  -63.861200
  C    -90.482800  -25.328800  -64.542500
  H    -91.028600  -24.689900  -65.221900
  H    -89.505400  -24.840300  -64.392800
  C    -91.287200  -25.341500  -63.171700
  H    -90.743000  -26.067200  -62.648400
  H    -92.330700  -25.792300  -63.343700
  C    -91.427400  -23.962700  -62.488100
  H    -92.022500  -24.051100  -61.628500
  H    -92.093700  -23.271800  -63.100900
  H    -90.624800  -23.359800  -62.388900
  H    -95.018600  -26.651000  -69.355400
  H    -88.830600  -29.791400  -65.337500

 Total Charge           Charge          ....    0
 Multiplicity           Mult            ....    1
 Number of Electrons    NEL             ....  134
 Basis Dimension        Dim             ....  322

ORBITAL ENERGIES
----------------

  NO   OCC          E(Eh)            E(eV)
   0   2.0000     -88.964397     -2420.8443
   1   2.0000     -88.963492     -2420.8197
   2   2.0000     -10.328567      -281.0546
   3   2.0000     -10.328266      -281.0464
   4   2.0000     -10.322848      -280.8990
   5   2.0000     -10.321760      -280.8694
   6   2.0000     -10.309568      -280.5376
   7   2.0000     -10.306255      -280.4475
   8   2.0000     -10.295187      -280.1463
   9   2.0000     -10.294409      -280.1251
  10   2.0000     -10.293534      -280.1013
  11   2.0000     -10.292035      -280.0605
  12   2.0000     -10.289512      -279.9919
  13   2.0000     -10.283880      -279.8386
  14   2.0000     -10.282796      -279.8091
  15   2.0000     -10.275482      -279.6101
  16   2.0000      -8.079018      -219.8413
  17   2.0000      -8.077685      -219.8050
  18   2.0000      -6.037429      -164.2868
  19   2.0000      -6.036367      -164.2579
  20   2.0000      -6.033484      -164.1795
  21   2.0000      -6.032246      -164.1457
  22   2.0000      -6.029917      -164.0824
  23   2.0000      -6.028299      -164.0384
  24   2.0000      -1.003374       -27.3032
  25   2.0000      -0.976633       -26.5755
  26   2.0000      -0.912013       -24.8171
  27   2.0000      -0.902125       -24.5481
  28   2.0000      -0.872387       -23.7389
  29   2.0000      -0.850351       -23.1392
  30   2.0000      -0.839898       -22.8548
  31   2.0000      -0.817086       -22.2341
  32   2.0000      -0.785769       -21.3819
  33   2.0000      -0.771529       -20.9944
  34   2.0000      -0.710832       -19.3427
  35   2.0000      -0.703223       -19.1357
  36   2.0000      -0.695810       -18.9339
  37   2.0000      -0.666171       -18.1274
  38   2.0000      -0.641934       -17.4679
  39   2.0000      -0.612324       -16.6622
  40   2.0000      -0.598301       -16.2806
  41   2.0000      -0.575814       -15.6687
  42   2.0000      -0.563117       -15.3232
  43   2.0000      -0.543869       -14.7994
  44   2.0000      -0.542007       -14.7488
  45   2.0000      -0.527223       -14.3465
  46   2.0000      -0.516770       -14.0620
  47   2.0000      -0.514437       -13.9985
  48   2.0000      -0.510255       -13.8847
  49   2.0000      -0.498388       -13.5618
  50   2.0000      -0.490946       -13.3593
  51   2.0000      -0.483465       -13.1557
  52   2.0000      -0.469349       -12.7716
  53   2.0000      -0.465644       -12.6708
  54   2.0000      -0.453574       -12.3424
  55   2.0000      -0.452465       -12.3122
  56   2.0000      -0.437912       -11.9162
  57   2.0000      -0.437151       -11.8955
  58   2.0000      -0.435132       -11.8406
  59   2.0000      -0.432458       -11.7678
  60   2.0000      -0.424172       -11.5423
  61   2.0000      -0.412813       -11.2332
  62   2.0000      -0.410108       -11.1596
  63   2.0000      -0.348480        -9.4826
  64   2.0000      -0.327784        -8.9195
  65   2.0000      -0.326361        -8.8807
  66   2.0000      -0.292496        -7.9592
  67   0.0000       0.027352         0.7443
  68   0.0000       0.065109         1.7717
  69   0.0000       0.109880         2.9900
  70   0.0000       0.120305         3.2737
  71   0.0000       0.122786         3.3412

MULLIKEN ATOMIC CHARGES
-----------------------
   0 S :    0.087214
   1 C :   -0.127450
   2 C :   -0.124630
   3 C :    0.060467
   4 C :   -0.157351
   5 H :   -0.002164
   6 C :    0.092825
   7 H :    0.017439
   8 H :    0.013029
   9 C :   -0.043494
  10 H :    0.007921
  11 H :    0.032845
  12 C :   -0.066896
  13 H :    0.038257
  14 H :    0.036229
  15 H :    0.047215
  16 S :    0.104885
  17 C :   -0.107800
  18 C :    0.016990
  19 C :   -0.037059
  20 C :   -0.160117
  21 H :   -0.012143
  22 C :    0.050443
  23 H :    0.021797
  24 H :    0.033985
  25 C :   -0.081763
  26 H :    0.013283
  27 H :    0.037896
  28 C :    0.011479
  29 H :    0.027219
  30 H :    0.018508
  31 H :    0.011321
  32 H :    0.062946
  33 H :    0.076672
Sum of atomic charges:   -0.0000000

LOEWDIN ATOMIC CHARGES
----------------------
   0 S :    0.380283
   1 C :   -0.196039
   2 C :   -0.061050
   3 C :   -0.056359
   4 C :   -0.190768
   5 H :    0.022580
   6 C :   -0.025482
   7 H :    0.020772
   8 H :    0.033045
   9 C :   -0.040395
  10 H :    0.015572
  11 H :    0.030483
  12 C :   -0.067305
  13 H :    0.032333
  14 H :    0.026479
  15 H :    0.024959
  16 S :    0.400742
  17 C :   -0.174490
  18 C :   -0.059707
  19 C :   -0.049997
  20 C :   -0.203841
  21 H :    0.017350
  22 C :   -0.033901
  23 H :    0.026490
  24 H :    0.033703
  25 C :   -0.033106
  26 H :    0.010906
  27 H :    0.032165
  28 C :   -0.059230
  29 H :    0.024661
  30 H :    0.035847
  31 H :    0.009634
  32 H :    0.038605
  33 H :    0.035063

  Mayer bond orders larger than 0.100000
B(  0-S ,  1-C ) :   1.1216 B(  0-S ,  4-C ) :   1.1302 B(  1-C ,  2-C ) :   1.6476
B(  1-C , 32-H ) :   0.9596 B(  2-C ,  3-C ) :   1.2050 B(  2-C ,  6-C ) :   1.0150
B(  3-C ,  4-C ) :   1.6027 B(  3-C ,  5-H ) :   0.9920 B(  4-C , 20-C ) :   1.0417
B(  6-C ,  7-H ) :   0.9411 B(  6-C ,  8-H ) :   0.9334 B(  6-C ,  9-C ) :   1.0746
B(  9-C , 10-H ) :   0.9486 B(  9-C , 11-H ) :   0.9539 B(  9-C , 12-C ) :   1.0785
B( 12-C , 13-H ) :   0.9714 B( 12-C , 14-H ) :   0.9767 B( 12-C , 15-H ) :   0.9719
B( 16-S , 17-C ) :   1.1443 B( 16-S , 20-C ) :   1.1599 B( 17-C , 18-C ) :   1.5890
B( 17-C , 33-H ) :   0.9680 B( 18-C , 19-C ) :   1.2427 B( 18-C , 21-H ) :   1.0046
B( 19-C , 20-C ) :   1.5567 B( 19-C , 22-C ) :   1.0640 B( 22-C , 23-H ) :   0.9329
B( 22-C , 24-H ) :   0.9360 B( 22-C , 25-C ) :   1.0453 B( 25-C , 26-H ) :   0.9625
B( 25-C , 27-H ) :   0.9519 B( 25-C , 28-C ) :   1.0757 B( 28-C , 29-H ) :   0.9720
B( 28-C , 30-H ) :   0.9682 B( 28-C , 31-H ) :   0.9769

Dispersion correction           -0.014843029
FINAL SINGLE POINT ENERGY     -1339.863143152560

DIPOLE MOMENT
-------------
                                X             Y             Z
Electronic contribution:     14.33718     -18.60305     -20.99426
Nuclear contribution   :    -14.67624      18.82614      21.61119
                        -----------------------------------------
Total Dipole Moment    :     -0.33906       0.22309       0.61693
                        -----------------------------------------
Magnitude (a.u.)       :      0.73847
Magnitude (Debye)      :      1.87704

Rotational constants in cm-1:     0.015835     0.010653     0.006951
Rotational constants in MHz :   474.725413   319.362025   208.399405

                             ****ORCA TERMINATED NORMALLY****
TOTAL RUN TIME: 0 days 0 hours 0 minutes 22 seconds 54 msec
