                         Program Version 4.2.1 -  RELEASE  -
|  1> ! wB97X-D3 SP def2-SVP
|  2> %pal
|  3> nprocs 24
|  4> end
|  5>
|  6> * xyz 0 1
|  7> S 	 -50.7512 	 15.688 	 28.2124
|  8> C 	 -51.3857 	 15.924 	 26.5673
|  9> C 	 -50.49 	 15.5088 	 25.6388
| 10> C 	 -49.3413 	 14.8596 	 26.1761
| 11> C 	 -49.2971 	 14.9348 	 27.5497
| 12> H 	 -48.5332 	 14.4773 	 25.6577
| 13> C 	 -50.7504 	 15.4739 	 24.1271
| 14> H 	 -51.8121 	 15.3293 	 23.8827
| 15> H 	 -50.2853 	 14.5896 	 23.6867
| 16> C 	 -50.4372 	 16.8494 	 23.4146
| 17> H 	 -50.8295 	 17.7333 	 24.04
| 18> H 	 -49.3706 	 16.8615 	 23.2566
| 19> C 	 -51.0779 	 16.9112 	 22.0226
| 20> H 	 -52.1755 	 16.668 	 22.0558
| 21> H 	 -51.1501 	 17.9247 	 21.719
| 22> H 	 -50.616 	 16.3121 	 21.2655
| 23> S 	 -48.1858 	 13.2022 	 29.2008
| 24> C 	 -46.718 	 13.573 	 29.9537
| 25> C 	 -46.1615 	 14.8174 	 29.6732
| 26> C 	 -47.0359 	 15.4925 	 28.7886
| 27> C 	 -48.0869 	 14.6678 	 28.3303
| 28> H 	 -45.241 	 15.2171 	 30.121
| 29> C 	 -46.7622 	 16.8909 	 28.3173
| 30> H 	 -47.0018 	 17.0251 	 27.2643
| 31> H 	 -45.6917 	 16.9469 	 28.3298
| 32> C 	 -47.458 	 18.0457 	 29.0107
| 33> H 	 -48.5052 	 17.8456 	 28.983
| 34> H 	 -47.3953 	 19.0366 	 28.5189
| 35> C 	 -47.1413 	 18.3066 	 30.5004
| 36> H 	 -47.6243 	 19.2523 	 30.7443
| 37> H 	 -46.028 	 18.3027 	 30.593
| 38> H 	 -47.4919 	 17.5574 	 31.2049
| 39> H 	 -52.4318 	 16.1895 	 26.4413
| 40> H 	 -46.1483 	 13.0222 	 30.7015
| 41> *
| 42>
| 43>                          ****END OF INPUT****

CARTESIAN COORDINATES (ANGSTROEM)
---------------------------------
  S    -50.751200   15.688000   28.212400
  C    -51.385700   15.924000   26.567300
  C    -50.490000   15.508800   25.638800
  C    -49.341300   14.859600   26.176100
  C    -49.297100   14.934800   27.549700
  H    -48.533200   14.477300   25.657700
  C    -50.750400   15.473900   24.127100
  H    -51.812100   15.329300   23.882700
  H    -50.285300   14.589600   23.686700
  C    -50.437200   16.849400   23.414600
  H    -50.829500   17.733300   24.040000
  H    -49.370600   16.861500   23.256600
  C    -51.077900   16.911200   22.022600
  H    -52.175500   16.668000   22.055800
  H    -51.150100   17.924700   21.719000
  H    -50.616000   16.312100   21.265500
  S    -48.185800   13.202200   29.200800
  C    -46.718000   13.573000   29.953700
  C    -46.161500   14.817400   29.673200
  C    -47.035900   15.492500   28.788600
  C    -48.086900   14.667800   28.330300
  H    -45.241000   15.217100   30.121000
  C    -46.762200   16.890900   28.317300
  H    -47.001800   17.025100   27.264300
  H    -45.691700   16.946900   28.329800
  C    -47.458000   18.045700   29.010700
  H    -48.505200   17.845600   28.983000
  H    -47.395300   19.036600   28.518900
  C    -47.141300   18.306600   30.500400
  H    -47.624300   19.252300   30.744300
  H    -46.028000   18.302700   30.593000
  H    -47.491900   17.557400   31.204900
  H    -52.431800   16.189500   26.441300
  H    -46.148300   13.022200   30.701500

 Total Charge           Charge          ....    0
 Multiplicity           Mult            ....    1
 Number of Electrons    NEL             ....  134
 Basis Dimension        Dim             ....  322

ORBITAL ENERGIES
----------------

  NO   OCC          E(Eh)            E(eV)
   0   2.0000     -88.969870     -2420.9932
   1   2.0000     -88.964184     -2420.8385
   2   2.0000     -10.326252      -280.9916
   3   2.0000     -10.317864      -280.7633
   4   2.0000     -10.314739      -280.6783
   5   2.0000     -10.311334      -280.5857
   6   2.0000     -10.302560      -280.3469
   7   2.0000     -10.299803      -280.2719
   8   2.0000     -10.294410      -280.1251
   9   2.0000     -10.293171      -280.0914
  10   2.0000     -10.292874      -280.0833
  11   2.0000     -10.287608      -279.9400
  12   2.0000     -10.282853      -279.8106
  13   2.0000     -10.278029      -279.6794
  14   2.0000     -10.275896      -279.6213
  15   2.0000     -10.273281      -279.5502
  16   2.0000      -8.086083      -220.0335
  17   2.0000      -8.078178      -219.8184
  18   2.0000      -6.044240      -164.4721
  19   2.0000      -6.040377      -164.3670
  20   2.0000      -6.037134      -164.2788
  21   2.0000      -6.036689      -164.2667
  22   2.0000      -6.032797      -164.1608
  23   2.0000      -6.028958      -164.0563
  24   2.0000      -1.011836       -27.5335
  25   2.0000      -0.986351       -26.8400
  26   2.0000      -0.908706       -24.7271
  27   2.0000      -0.903916       -24.5968
  28   2.0000      -0.869591       -23.6628
  29   2.0000      -0.850798       -23.1514
  30   2.0000      -0.848033       -23.0761
  31   2.0000      -0.813891       -22.1471
  32   2.0000      -0.782404       -21.2903
  33   2.0000      -0.768440       -20.9103
  34   2.0000      -0.704717       -19.1763
  35   2.0000      -0.695944       -18.9376
  36   2.0000      -0.685487       -18.6531
  37   2.0000      -0.661060       -17.9884
  38   2.0000      -0.649829       -17.6827
  39   2.0000      -0.618243       -16.8232
  40   2.0000      -0.591600       -16.0983
  41   2.0000      -0.571433       -15.5495
  42   2.0000      -0.558118       -15.1872
  43   2.0000      -0.548973       -14.9383
  44   2.0000      -0.539502       -14.6806
  45   2.0000      -0.526819       -14.3355
  46   2.0000      -0.518274       -14.1029
  47   2.0000      -0.509381       -13.8610
  48   2.0000      -0.505598       -13.7580
  49   2.0000      -0.497020       -13.5246
  50   2.0000      -0.481602       -13.1050
  51   2.0000      -0.474576       -12.9139
  52   2.0000      -0.470953       -12.8153
  53   2.0000      -0.465927       -12.6785
  54   2.0000      -0.459808       -12.5120
  55   2.0000      -0.446866       -12.1598
  56   2.0000      -0.445543       -12.1238
  57   2.0000      -0.438720       -11.9382
  58   2.0000      -0.430767       -11.7218
  59   2.0000      -0.425915       -11.5897
  60   2.0000      -0.418024       -11.3750
  61   2.0000      -0.411863       -11.2074
  62   2.0000      -0.403645       -10.9837
  63   2.0000      -0.338566        -9.2128
  64   2.0000      -0.332197        -9.0395
  65   2.0000      -0.317420        -8.6374
  66   2.0000      -0.309185        -8.4134
  67   0.0000       0.044769         1.2182
  68   0.0000       0.051460         1.4003
  69   0.0000       0.116462         3.1691
  70   0.0000       0.120315         3.2739
  71   0.0000       0.126766         3.4495

MULLIKEN ATOMIC CHARGES
-----------------------
   0 S :    0.103482
   1 C :   -0.139215
   2 C :   -0.036043
   3 C :    0.069773
   4 C :   -0.139313
   5 H :   -0.012941
   6 C :    0.035522
   7 H :    0.013866
   8 H :    0.028841
   9 C :   -0.090625
  10 H :    0.053283
  11 H :    0.033222
  12 C :   -0.042293
  13 H :    0.022856
  14 H :    0.022643
  15 H :    0.036922
  16 S :    0.147590
  17 C :   -0.070416
  18 C :   -0.064645
  19 C :   -0.031662
  20 C :   -0.214895
  21 H :    0.029247
  22 C :    0.098243
  23 H :    0.023718
  24 H :    0.007698
  25 C :   -0.064151
  26 H :    0.012777
  27 H :    0.031434
  28 C :   -0.064177
  29 H :    0.035611
  30 H :    0.023642
  31 H :    0.037050
  32 H :    0.057503
  33 H :    0.045454
Sum of atomic charges:   -0.0000000

LOEWDIN ATOMIC CHARGES
----------------------
   0 S :    0.382839
   1 C :   -0.182263
   2 C :   -0.063819
   3 C :   -0.047106
   4 C :   -0.196189
   5 H :    0.022021
   6 C :   -0.034294
   7 H :    0.026115
   8 H :    0.029511
   9 C :   -0.038813
  10 H :    0.037571
  11 H :    0.022185
  12 C :   -0.070283
  13 H :    0.027065
  14 H :    0.022564
  15 H :    0.022329
  16 S :    0.468371
  17 C :   -0.207404
  18 C :   -0.075765
  19 C :   -0.045694
  20 C :   -0.227900
  21 H :    0.038102
  22 C :   -0.034975
  23 H :    0.036749
  24 H :    0.024187
  25 C :   -0.043856
  26 H :    0.016645
  27 H :    0.029450
  28 C :   -0.068653
  29 H :    0.027784
  30 H :    0.022535
  31 H :    0.022457
  32 H :    0.029593
  33 H :    0.028943

  Mayer bond orders larger than 0.100000
B(  0-S ,  1-C ) :   1.1255 B(  0-S ,  4-C ) :   1.1413 B(  1-C ,  2-C ) :   1.6263
B(  1-C , 32-H ) :   0.9706 B(  2-C ,  3-C ) :   1.2245 B(  2-C ,  6-C ) :   1.0152
B(  3-C ,  4-C ) :   1.5946 B(  3-C ,  5-H ) :   1.0053 B(  4-C , 20-C ) :   0.9976
B(  6-C ,  7-H ) :   0.9522 B(  6-C ,  8-H ) :   0.9494 B(  6-C ,  9-C ) :   1.0418
B(  9-C , 10-H ) :   0.9610 B(  9-C , 11-H ) :   0.9560 B(  9-C , 12-C ) :   1.0851
B( 12-C , 13-H ) :   0.9709 B( 12-C , 14-H ) :   0.9730 B( 12-C , 15-H ) :   0.9760
B( 16-S , 17-C ) :   1.1940 B( 16-S , 20-C ) :   1.1696 B( 17-C , 18-C ) :   1.5789
B( 17-C , 33-H ) :   0.9596 B( 18-C , 19-C ) :   1.2798 B( 18-C , 21-H ) :   0.9870
B( 19-C , 20-C ) :   1.5671 B( 19-C , 22-C ) :   1.0324 B( 22-C , 23-H ) :   0.9310
B( 22-C , 24-H ) :   0.9367 B( 22-C , 25-C ) :   1.0718 B( 25-C , 26-H ) :   0.9465
B( 25-C , 27-H ) :   0.9578 B( 25-C , 28-C ) :   1.0772 B( 28-C , 29-H ) :   0.9746
B( 28-C , 30-H ) :   0.9777 B( 28-C , 31-H ) :   0.9758

Dispersion correction           -0.014604665
FINAL SINGLE POINT ENERGY     -1339.868775389481

DIPOLE MOMENT
-------------
                                X             Y             Z
Electronic contribution:     -2.02108     -18.64821      15.28608
Nuclear contribution   :      2.12604      18.89710     -15.68190
                        -----------------------------------------
Total Dipole Moment    :      0.10496       0.24890      -0.39582
                        -----------------------------------------
Magnitude (a.u.)       :      0.47921
Magnitude (Debye)      :      1.21806

Rotational constants in cm-1:     0.021339     0.007692     0.006831
Rotational constants in MHz :   639.718645   230.588102   204.782292

                             ****ORCA TERMINATED NORMALLY****
TOTAL RUN TIME: 0 days 0 hours 0 minutes 21 seconds 682 msec
