                         Program Version 4.2.1 -  RELEASE  -
|  1> ! wB97X-D3 SP def2-SVP
|  2> %pal
|  3> nprocs 24
|  4> end
|  5>
|  6> * xyz 0 1
|  7> S 	 -77.0353 	 -0.558248 	 -61.201
|  8> C 	 -76.2019 	 0.852545 	 -61.8493
|  9> C 	 -76.7499 	 1.36778 	 -62.9987
| 10> C 	 -77.8269 	 0.517146 	 -63.4065
| 11> C 	 -78.2417 	 -0.446975 	 -62.5032
| 12> H 	 -78.4377 	 0.622157 	 -64.233
| 13> C 	 -76.4349 	 2.58815 	 -63.7194
| 14> H 	 -76.3187 	 2.3621 	 -64.8324
| 15> H 	 -75.5152 	 3.09993 	 -63.4222
| 16> C 	 -77.5387 	 3.65848 	 -63.608
| 17> H 	 -78.4907 	 3.12578 	 -63.42
| 18> H 	 -77.3801 	 4.32072 	 -62.7205
| 19> C 	 -77.6348 	 4.7437 	 -64.7011
| 20> H 	 -77.687 	 4.32396 	 -65.7098
| 21> H 	 -78.4627 	 5.36897 	 -64.5898
| 22> H 	 -76.7911 	 5.43802 	 -64.6191
| 23> S 	 -79.5417 	 -2.8451 	 -62.1827
| 24> C 	 -81.2037 	 -2.96183 	 -62.3348
| 25> C 	 -81.7714 	 -1.67698 	 -62.4567
| 26> C 	 -80.8084 	 -0.609347 	 -62.5873
| 27> C 	 -79.5371 	 -1.14692 	 -62.4209
| 28> H 	 -82.8203 	 -1.58986 	 -62.6152
| 29> C 	 -81.1942 	 0.790958 	 -62.9775
| 30> H 	 -80.2498 	 1.29594 	 -63.2125
| 31> H 	 -81.6244 	 1.3896 	 -62.1132
| 32> C 	 -82.1854 	 0.87606 	 -64.1824
| 33> H 	 -82.1964 	 1.9259 	 -64.4714
| 34> H 	 -83.1279 	 0.455642 	 -63.8983
| 35> C 	 -81.8213 	 0.103217 	 -65.5155
| 36> H 	 -81.8332 	 -0.944973 	 -65.4055
| 37> H 	 -80.7911 	 0.297066 	 -65.9306
| 38> H 	 -82.5431 	 0.356567 	 -66.2795
| 39> H 	 -75.3768 	 1.19911 	 -61.2986
| 40> H 	 -81.7211 	 -3.94355 	 -62.3949
| 41> *
| 42>
| 43>                          ****END OF INPUT****

CARTESIAN COORDINATES (ANGSTROEM)
---------------------------------
  S    -77.035300   -0.558248  -61.201000
  C    -76.201900    0.852545  -61.849300
  C    -76.749900    1.367780  -62.998700
  C    -77.826900    0.517146  -63.406500
  C    -78.241700   -0.446975  -62.503200
  H    -78.437700    0.622157  -64.233000
  C    -76.434900    2.588150  -63.719400
  H    -76.318700    2.362100  -64.832400
  H    -75.515200    3.099930  -63.422200
  C    -77.538700    3.658480  -63.608000
  H    -78.490700    3.125780  -63.420000
  H    -77.380100    4.320720  -62.720500
  C    -77.634800    4.743700  -64.701100
  H    -77.687000    4.323960  -65.709800
  H    -78.462700    5.368970  -64.589800
  H    -76.791100    5.438020  -64.619100
  S    -79.541700   -2.845100  -62.182700
  C    -81.203700   -2.961830  -62.334800
  C    -81.771400   -1.676980  -62.456700
  C    -80.808400   -0.609347  -62.587300
  C    -79.537100   -1.146920  -62.420900
  H    -82.820300   -1.589860  -62.615200
  C    -81.194200    0.790958  -62.977500
  H    -80.249800    1.295940  -63.212500
  H    -81.624400    1.389600  -62.113200
  C    -82.185400    0.876060  -64.182400
  H    -82.196400    1.925900  -64.471400
  H    -83.127900    0.455642  -63.898300
  C    -81.821300    0.103217  -65.515500
  H    -81.833200   -0.944973  -65.405500
  H    -80.791100    0.297066  -65.930600
  H    -82.543100    0.356567  -66.279500
  H    -75.376800    1.199110  -61.298600
  H    -81.721100   -3.943550  -62.394900

 Total Charge           Charge          ....    0
 Multiplicity           Mult            ....    1
 Number of Electrons    NEL             ....  134
 Basis Dimension        Dim             ....  322

ORBITAL ENERGIES
----------------

  NO   OCC          E(Eh)            E(eV)
   0   2.0000     -88.966439     -2420.8999
   1   2.0000     -88.960427     -2420.7363
   2   2.0000     -10.329495      -281.0799
   3   2.0000     -10.324888      -280.9545
   4   2.0000     -10.319176      -280.7991
   5   2.0000     -10.311273      -280.5840
   6   2.0000     -10.306364      -280.4504
   7   2.0000     -10.301135      -280.3081
   8   2.0000     -10.299206      -280.2556
   9   2.0000     -10.296896      -280.1928
  10   2.0000     -10.294861      -280.1374
  11   2.0000     -10.293955      -280.1128
  12   2.0000     -10.291589      -280.0484
  13   2.0000     -10.287694      -279.9424
  14   2.0000     -10.278362      -279.6884
  15   2.0000     -10.277607      -279.6679
  16   2.0000      -8.083342      -219.9589
  17   2.0000      -8.075123      -219.7353
  18   2.0000      -6.041547      -164.3989
  19   2.0000      -6.037428      -164.2868
  20   2.0000      -6.034414      -164.2048
  21   2.0000      -6.033633      -164.1835
  22   2.0000      -6.029684      -164.0760
  23   2.0000      -6.025848      -163.9717
  24   2.0000      -1.011729       -27.5305
  25   2.0000      -0.987105       -26.8605
  26   2.0000      -0.913932       -24.8694
  27   2.0000      -0.907941       -24.7063
  28   2.0000      -0.868042       -23.6206
  29   2.0000      -0.851661       -23.1749
  30   2.0000      -0.844941       -22.9920
  31   2.0000      -0.814045       -22.1513
  32   2.0000      -0.788441       -21.4546
  33   2.0000      -0.776398       -21.1269
  34   2.0000      -0.708537       -19.2803
  35   2.0000      -0.697108       -18.9693
  36   2.0000      -0.692805       -18.8522
  37   2.0000      -0.659846       -17.9553
  38   2.0000      -0.649128       -17.6637
  39   2.0000      -0.627064       -17.0633
  40   2.0000      -0.601676       -16.3724
  41   2.0000      -0.568161       -15.4604
  42   2.0000      -0.559962       -15.2373
  43   2.0000      -0.548880       -14.9358
  44   2.0000      -0.541477       -14.7343
  45   2.0000      -0.527049       -14.3417
  46   2.0000      -0.517412       -14.0795
  47   2.0000      -0.512849       -13.9553
  48   2.0000      -0.511600       -13.9214
  49   2.0000      -0.498506       -13.5650
  50   2.0000      -0.493081       -13.4174
  51   2.0000      -0.487748       -13.2723
  52   2.0000      -0.469031       -12.7630
  53   2.0000      -0.464957       -12.6521
  54   2.0000      -0.454579       -12.3697
  55   2.0000      -0.451744       -12.2926
  56   2.0000      -0.445061       -12.1107
  57   2.0000      -0.440772       -11.9940
  58   2.0000      -0.432137       -11.7590
  59   2.0000      -0.428220       -11.6524
  60   2.0000      -0.424497       -11.5512
  61   2.0000      -0.417634       -11.3644
  62   2.0000      -0.410361       -11.1665
  63   2.0000      -0.344857        -9.3840
  64   2.0000      -0.331278        -9.0145
  65   2.0000      -0.327960        -8.9242
  66   2.0000      -0.290677        -7.9097
  67   0.0000       0.034313         0.9337
  68   0.0000       0.070109         1.9078
  69   0.0000       0.112988         3.0746
  70   0.0000       0.116484         3.1697
  71   0.0000       0.128613         3.4998

MULLIKEN ATOMIC CHARGES
-----------------------
   0 S :    0.088037
   1 C :   -0.112655
   2 C :   -0.037701
   3 C :    0.033724
   4 C :   -0.142493
   5 H :   -0.022528
   6 C :    0.072363
   7 H :    0.040746
   8 H :    0.021658
   9 C :   -0.126547
  10 H :    0.041908
  11 H :    0.032262
  12 C :   -0.022177
  13 H :    0.028508
  14 H :    0.020336
  15 H :    0.028413
  16 S :    0.135334
  17 C :   -0.115058
  18 C :   -0.040518
  19 C :   -0.037085
  20 C :   -0.172943
  21 H :    0.007374
  22 C :    0.085862
  23 H :    0.006480
  24 H :    0.054033
  25 C :   -0.078906
  26 H :    0.040270
  27 H :    0.034292
  28 C :   -0.068070
  29 H :    0.027742
  30 H :    0.032717
  31 H :    0.036254
  32 H :    0.029846
  33 H :    0.078523
Sum of atomic charges:   -0.0000000

LOEWDIN ATOMIC CHARGES
----------------------
   0 S :    0.376055
   1 C :   -0.172891
   2 C :   -0.065164
   3 C :   -0.055109
   4 C :   -0.177580
   5 H :    0.014445
   6 C :   -0.038100
   7 H :    0.041474
   8 H :    0.031626
   9 C :   -0.045868
  10 H :    0.022255
  11 H :    0.030294
  12 C :   -0.062274
  13 H :    0.021689
  14 H :    0.020741
  15 H :    0.027075
  16 S :    0.458645
  17 C :   -0.215921
  18 C :   -0.071741
  19 C :   -0.051512
  20 C :   -0.219817
  21 H :    0.022138
  22 C :   -0.037621
  23 H :    0.027568
  24 H :    0.045090
  25 C :   -0.031180
  26 H :    0.029276
  27 H :    0.019971
  28 C :   -0.069071
  29 H :    0.017299
  30 H :    0.027346
  31 H :    0.026737
  32 H :    0.014536
  33 H :    0.039589

  Mayer bond orders larger than 0.100000
B(  0-S ,  1-C ) :   1.1366 B(  0-S ,  4-C ) :   1.1376 B(  1-C ,  2-C ) :   1.6163
B(  1-C , 32-H ) :   0.9778 B(  2-C ,  3-C ) :   1.1969 B(  2-C ,  6-C ) :   1.0564
B(  3-C ,  4-C ) :   1.6091 B(  3-C ,  5-H ) :   1.0025 B(  4-C , 20-C ) :   1.0085
B(  6-C ,  7-H ) :   0.9379 B(  6-C ,  8-H ) :   0.9360 B(  6-C ,  9-C ) :   1.0397
B(  9-C , 10-H ) :   0.9659 B(  9-C , 11-H ) :   0.9527 B(  9-C , 12-C ) :   1.0793
B( 12-C , 13-H ) :   0.9750 B( 12-C , 14-H ) :   0.9716 B( 12-C , 15-H ) :   0.9755
B( 16-S , 17-C ) :   1.1937 B( 16-S , 20-C ) :   1.1758 B( 17-C , 18-C ) :   1.5587
B( 17-C , 33-H ) :   0.9663 B( 18-C , 19-C ) :   1.2570 B( 18-C , 21-H ) :   0.9948
B( 19-C , 20-C ) :   1.5624 B( 19-C , 22-C ) :   1.0432 B( 22-C , 23-H ) :   0.9286
B( 22-C , 24-H ) :   0.9274 B( 22-C , 25-C ) :   1.0680 B( 25-C , 26-H ) :   0.9589
B( 25-C , 27-H ) :   0.9550 B( 25-C , 28-C ) :   1.0715 B( 28-C , 29-H ) :   0.9739
B( 28-C , 30-H ) :   0.9755 B( 28-C , 31-H ) :   0.9752

Dispersion correction           -0.015152771
FINAL SINGLE POINT ENERGY     -1339.877018335851

DIPOLE MOMENT
-------------
                                X             Y             Z
Electronic contribution:      8.33287     -25.22787      17.62247
Nuclear contribution   :     -8.71787      25.77656     -18.02258
                        -----------------------------------------
Total Dipole Moment    :     -0.38500       0.54869      -0.40010
                        -----------------------------------------
Magnitude (a.u.)       :      0.78062
Magnitude (Debye)      :      1.98418

Rotational constants in cm-1:     0.017677     0.010185     0.006928
Rotational constants in MHz :   529.956331   305.323834   207.691197

                             ****ORCA TERMINATED NORMALLY****
TOTAL RUN TIME: 0 days 0 hours 0 minutes 22 seconds 381 msec
