                         Program Version 4.2.1 -  RELEASE  -
|  1> ! wB97X-D3 SP def2-SVP
|  2> %pal
|  3> nprocs 24
|  4> end
|  5>
|  6> * xyz 0 1
|  7> S 	 -2.50126 	 -15.8668 	 -102.425
|  8> C 	 -1.52464 	 -16.7345 	 -101.234
|  9> C 	 -0.239301 	 -16.9326 	 -101.7
| 10> C 	 -0.110345 	 -16.5126 	 -103.022
| 11> C 	 -1.25913 	 -15.954 	 -103.619
| 12> H 	 0.770596 	 -16.6412 	 -103.723
| 13> C 	 0.950641 	 -17.4288 	 -100.845
| 14> H 	 0.478381 	 -17.4498 	 -99.8595
| 15> H 	 1.67064 	 -16.5531 	 -100.84
| 16> C 	 1.57641 	 -18.7281 	 -101.291
| 17> H 	 0.845571 	 -19.5221 	 -101.615
| 18> H 	 2.09209 	 -18.5677 	 -102.191
| 19> C 	 2.4907 	 -19.365 	 -100.234
| 20> H 	 1.95568 	 -19.7146 	 -99.3322
| 21> H 	 3.15632 	 -20.2155 	 -100.615
| 22> H 	 3.20323 	 -18.5766 	 -99.9493
| 23> S 	 -0.78502 	 -16.2721 	 -106.249
| 24> C 	 -1.55071 	 -15.1711 	 -107.411
| 25> C 	 -2.16284 	 -14.1207 	 -106.757
| 26> C 	 -2.01883 	 -14.2132 	 -105.315
| 27> C 	 -1.38373 	 -15.3437 	 -104.895
| 28> H 	 -2.53347 	 -13.3585 	 -107.331
| 29> C 	 -2.52419 	 -13.1141 	 -104.431
| 30> H 	 -1.7584 	 -12.3953 	 -104.487
| 31> H 	 -2.54239 	 -13.4188 	 -103.383
| 32> C 	 -3.86841 	 -12.5282 	 -104.882
| 33> H 	 -4.70646 	 -13.2236 	 -105.075
| 34> H 	 -3.73028 	 -11.9421 	 -105.826
| 35> C 	 -4.45314 	 -11.5003 	 -103.902
| 36> H 	 -3.63184 	 -10.9342 	 -103.52
| 37> H 	 -5.11583 	 -11.982 	 -103.135
| 38> H 	 -5.24462 	 -10.8136 	 -104.242
| 39> H 	 -1.77858 	 -17.0041 	 -100.221
| 40> H 	 -1.69097 	 -15.3218 	 -108.476
| 41> *
| 42>
| 43>                          ****END OF INPUT****

CARTESIAN COORDINATES (ANGSTROEM)
---------------------------------
  S     -2.501260  -15.866800  -102.425000
  C     -1.524640  -16.734500  -101.234000
  C     -0.239301  -16.932600  -101.700000
  C     -0.110345  -16.512600  -103.022000
  C     -1.259130  -15.954000  -103.619000
  H      0.770596  -16.641200  -103.723000
  C      0.950641  -17.428800  -100.845000
  H      0.478381  -17.449800  -99.859500
  H      1.670640  -16.553100  -100.840000
  C      1.576410  -18.728100  -101.291000
  H      0.845571  -19.522100  -101.615000
  H      2.092090  -18.567700  -102.191000
  C      2.490700  -19.365000  -100.234000
  H      1.955680  -19.714600  -99.332200
  H      3.156320  -20.215500  -100.615000
  H      3.203230  -18.576600  -99.949300
  S     -0.785020  -16.272100  -106.249000
  C     -1.550710  -15.171100  -107.411000
  C     -2.162840  -14.120700  -106.757000
  C     -2.018830  -14.213200  -105.315000
  C     -1.383730  -15.343700  -104.895000
  H     -2.533470  -13.358500  -107.331000
  C     -2.524190  -13.114100  -104.431000
  H     -1.758400  -12.395300  -104.487000
  H     -2.542390  -13.418800  -103.383000
  C     -3.868410  -12.528200  -104.882000
  H     -4.706460  -13.223600  -105.075000
  H     -3.730280  -11.942100  -105.826000
  C     -4.453140  -11.500300  -103.902000
  H     -3.631840  -10.934200  -103.520000
  H     -5.115830  -11.982000  -103.135000
  H     -5.244620  -10.813600  -104.242000
  H     -1.778580  -17.004100  -100.221000
  H     -1.690970  -15.321800  -108.476000

 Total Charge           Charge          ....    0
 Multiplicity           Mult            ....    1
 Number of Electrons    NEL             ....  134
 Basis Dimension        Dim             ....  322

ORBITAL ENERGIES
----------------

  NO   OCC          E(Eh)            E(eV)
   0   2.0000     -88.969479     -2420.9826
   1   2.0000     -88.963610     -2420.8229
   2   2.0000     -10.327471      -281.0248
   3   2.0000     -10.321618      -280.8655
   4   2.0000     -10.319233      -280.8006
   5   2.0000     -10.313332      -280.6400
   6   2.0000     -10.302121      -280.3350
   7   2.0000     -10.300554      -280.2923
   8   2.0000     -10.299347      -280.2595
   9   2.0000     -10.294542      -280.1287
  10   2.0000     -10.290440      -280.0171
  11   2.0000     -10.290130      -280.0087
  12   2.0000     -10.287376      -279.9337
  13   2.0000     -10.286418      -279.9077
  14   2.0000     -10.286160      -279.9006
  15   2.0000     -10.276746      -279.6445
  16   2.0000      -8.083579      -219.9654
  17   2.0000      -8.078148      -219.8176
  18   2.0000      -6.042109      -164.4141
  19   2.0000      -6.038021      -164.3029
  20   2.0000      -6.036887      -164.2720
  21   2.0000      -6.034512      -164.2074
  22   2.0000      -6.032671      -164.1573
  23   2.0000      -6.028696      -164.0492
  24   2.0000      -1.010518       -27.4976
  25   2.0000      -0.984438       -26.7879
  26   2.0000      -0.912903       -24.8414
  27   2.0000      -0.910121       -24.7657
  28   2.0000      -0.875395       -23.8207
  29   2.0000      -0.851691       -23.1757
  30   2.0000      -0.844282       -22.9741
  31   2.0000      -0.813731       -22.1427
  32   2.0000      -0.783313       -21.3150
  33   2.0000      -0.770575       -20.9684
  34   2.0000      -0.712660       -19.3925
  35   2.0000      -0.702260       -19.1095
  36   2.0000      -0.694420       -18.8961
  37   2.0000      -0.666806       -18.1447
  38   2.0000      -0.631473       -17.1833
  39   2.0000      -0.616439       -16.7742
  40   2.0000      -0.596828       -16.2405
  41   2.0000      -0.572314       -15.5735
  42   2.0000      -0.565945       -15.4001
  43   2.0000      -0.560536       -15.2530
  44   2.0000      -0.536125       -14.5887
  45   2.0000      -0.532012       -14.4768
  46   2.0000      -0.525402       -14.2969
  47   2.0000      -0.507874       -13.8200
  48   2.0000      -0.502921       -13.6852
  49   2.0000      -0.497605       -13.5405
  50   2.0000      -0.489004       -13.3065
  51   2.0000      -0.475654       -12.9432
  52   2.0000      -0.472377       -12.8540
  53   2.0000      -0.466407       -12.6916
  54   2.0000      -0.464342       -12.6354
  55   2.0000      -0.448898       -12.2151
  56   2.0000      -0.441156       -12.0045
  57   2.0000      -0.435246       -11.8437
  58   2.0000      -0.431617       -11.7449
  59   2.0000      -0.427667       -11.6374
  60   2.0000      -0.416326       -11.3288
  61   2.0000      -0.411926       -11.2091
  62   2.0000      -0.403522       -10.9804
  63   2.0000      -0.354925        -9.6580
  64   2.0000      -0.334262        -9.0957
  65   2.0000      -0.327513        -8.9121
  66   2.0000      -0.285249        -7.7620
  67   0.0000       0.025866         0.7039
  68   0.0000       0.073371         1.9965
  69   0.0000       0.104543         2.8448
  70   0.0000       0.122363         3.3297
  71   0.0000       0.132104         3.5947

MULLIKEN ATOMIC CHARGES
-----------------------
   0 S :    0.117909
   1 C :   -0.124076
   2 C :   -0.090248
   3 C :   -0.011914
   4 C :   -0.149686
   5 H :    0.031517
   6 C :    0.070780
   7 H :    0.009636
   8 H :    0.053450
   9 C :   -0.055601
  10 H :    0.039844
  11 H :    0.018695
  12 C :   -0.079485
  13 H :    0.044876
  14 H :    0.046287
  15 H :    0.027822
  16 S :    0.093290
  17 C :   -0.085771
  18 C :   -0.009355
  19 C :   -0.064200
  20 C :   -0.131486
  21 H :   -0.010270
  22 C :    0.116302
  23 H :    0.025530
  24 H :    0.022977
  25 C :   -0.119059
  26 H :    0.041711
  27 H :    0.037469
  28 C :   -0.058004
  29 H :    0.030025
  30 H :    0.032500
  31 H :    0.027984
  32 H :    0.039354
  33 H :    0.061196
Sum of atomic charges:   -0.0000000

LOEWDIN ATOMIC CHARGES
----------------------
   0 S :    0.430498
   1 C :   -0.200245
   2 C :   -0.065712
   3 C :   -0.078228
   4 C :   -0.201312
   5 H :    0.035148
   6 C :   -0.027142
   7 H :    0.027384
   8 H :    0.043335
   9 C :   -0.048757
  10 H :    0.033505
  11 H :    0.018915
  12 C :   -0.073345
  13 H :    0.027038
  14 H :    0.034900
  15 H :    0.024160
  16 S :    0.394357
  17 C :   -0.172085
  18 C :   -0.057169
  19 C :   -0.053819
  20 C :   -0.201406
  21 H :    0.017341
  22 C :   -0.031856
  23 H :    0.033398
  24 H :    0.019522
  25 C :   -0.046534
  26 H :    0.029298
  27 H :    0.026866
  28 C :   -0.076467
  29 H :    0.020137
  30 H :    0.030171
  31 H :    0.027883
  32 H :    0.026841
  33 H :    0.033380

  Mayer bond orders larger than 0.100000
B(  0-S ,  1-C ) :   1.1421 B(  0-S ,  4-C ) :   1.1609 B(  1-C ,  2-C ) :   1.5954
B(  1-C ,  4-C ) :   0.1038 B(  1-C , 32-H ) :   0.9639 B(  2-C ,  3-C ) :   1.2796
B(  2-C ,  6-C ) :   1.0075 B(  3-C ,  4-C ) :   1.5291 B(  3-C ,  5-H ) :   0.9798
B(  4-C , 20-C ) :   1.0686 B(  6-C ,  7-H ) :   0.9418 B(  6-C ,  8-H ) :   0.9376
B(  6-C ,  9-C ) :   1.0516 B(  9-C , 10-H ) :   0.9583 B(  9-C , 11-H ) :   0.9498
B(  9-C , 12-C ) :   1.0834 B( 12-C , 13-H ) :   0.9775 B( 12-C , 14-H ) :   0.9747
B( 12-C , 15-H ) :   0.9723 B( 16-S , 17-C ) :   1.1396 B( 16-S , 20-C ) :   1.1121
B( 17-C , 18-C ) :   1.6425 B( 17-C , 33-H ) :   0.9634 B( 18-C , 19-C ) :   1.1950
B( 18-C , 21-H ) :   1.0039 B( 19-C , 20-C ) :   1.6223 B( 19-C , 22-C ) :   1.0434
B( 22-C , 23-H ) :   0.9098 B( 22-C , 24-H ) :   0.9346 B( 22-C , 25-C ) :   1.0578
B( 25-C , 26-H ) :   0.9667 B( 25-C , 27-H ) :   0.9465 B( 25-C , 28-C ) :   1.0838
B( 28-C , 29-H ) :   0.9726 B( 28-C , 30-H ) :   0.9736 B( 28-C , 31-H ) :   0.9739

Dispersion correction           -0.013480806
FINAL SINGLE POINT ENERGY     -1339.868588472639

DIPOLE MOMENT
-------------
                                X             Y             Z
Electronic contribution:     -3.88762      -3.91989     -11.99372
Nuclear contribution   :      3.99787       4.19749      12.07922
                        -----------------------------------------
Total Dipole Moment    :      0.11024       0.27760       0.08550
                        -----------------------------------------
Magnitude (a.u.)       :      0.31069
Magnitude (Debye)      :      0.78970

Rotational constants in cm-1:     0.023307     0.007228     0.005802
Rotational constants in MHz :   698.714265   216.697285   173.933889

                             ****ORCA TERMINATED NORMALLY****
TOTAL RUN TIME: 0 days 0 hours 0 minutes 19 seconds 645 msec
