                         Program Version 4.2.1 -  RELEASE  -
|  1> ! wB97X-D3 SP def2-SVP
|  2> %pal
|  3> nprocs 24
|  4> end
|  5>
|  6> * xyz 0 1
|  7> S 	 -44.6019 	 10.5822 	 30.464
|  8> C 	 -45.0913 	 11.9876 	 29.5355
|  9> C 	 -46.471 	 11.9278 	 29.2788
| 10> C 	 -46.9197 	 10.5772 	 29.4733
| 11> C 	 -46.0731 	 9.73425 	 30.0972
| 12> H 	 -47.8595 	 10.0774 	 29.153
| 13> C 	 -47.3582 	 13.054 	 28.8294
| 14> H 	 -46.8744 	 14.0157 	 29.096
| 15> H 	 -48.3286 	 12.9779 	 29.3673
| 16> C 	 -47.6482 	 13.0086 	 27.3825
| 17> H 	 -47.958 	 12.0166 	 27.149
| 18> H 	 -48.5166 	 13.5378 	 27.0589
| 19> C 	 -46.4982 	 13.3838 	 26.4962
| 20> H 	 -45.7675 	 12.6197 	 26.5663
| 21> H 	 -46.8448 	 13.175 	 25.4766
| 22> H 	 -46.1224 	 14.4019 	 26.7002
| 23> S 	 -45.1485 	 7.1101 	 29.7358
| 24> C 	 -46.0413 	 5.7738 	 30.4554
| 25> C 	 -47.2661 	 6.23098 	 30.9419
| 26> C 	 -47.3936 	 7.63355 	 30.9163
| 27> C 	 -46.2673 	 8.36477 	 30.4385
| 28> H 	 -48.0056 	 5.52504 	 31.1773
| 29> C 	 -48.6063 	 8.33621 	 31.5414
| 30> H 	 -49.5596 	 7.73805 	 31.4389
| 31> H 	 -48.8213 	 9.30536 	 31.0128
| 32> C 	 -48.5466 	 8.62518 	 33.0535
| 33> H 	 -49.2533 	 9.41803 	 33.2584
| 34> H 	 -47.5689 	 9.01424 	 33.1276
| 35> C 	 -48.813 	 7.39399 	 33.9578
| 36> H 	 -48.4837 	 7.54401 	 34.9874
| 37> H 	 -48.3133 	 6.53045 	 33.6889
| 38> H 	 -49.8975 	 7.12548 	 33.9095
| 39> H 	 -44.4474 	 12.9167 	 29.4998
| 40> H 	 -45.7286 	 4.72101 	 30.5131
| 41> *
| 42>
| 43>                          ****END OF INPUT****

CARTESIAN COORDINATES (ANGSTROEM)
---------------------------------
  S    -44.601900   10.582200   30.464000
  C    -45.091300   11.987600   29.535500
  C    -46.471000   11.927800   29.278800
  C    -46.919700   10.577200   29.473300
  C    -46.073100    9.734250   30.097200
  H    -47.859500   10.077400   29.153000
  C    -47.358200   13.054000   28.829400
  H    -46.874400   14.015700   29.096000
  H    -48.328600   12.977900   29.367300
  C    -47.648200   13.008600   27.382500
  H    -47.958000   12.016600   27.149000
  H    -48.516600   13.537800   27.058900
  C    -46.498200   13.383800   26.496200
  H    -45.767500   12.619700   26.566300
  H    -46.844800   13.175000   25.476600
  H    -46.122400   14.401900   26.700200
  S    -45.148500    7.110100   29.735800
  C    -46.041300    5.773800   30.455400
  C    -47.266100    6.230980   30.941900
  C    -47.393600    7.633550   30.916300
  C    -46.267300    8.364770   30.438500
  H    -48.005600    5.525040   31.177300
  C    -48.606300    8.336210   31.541400
  H    -49.559600    7.738050   31.438900
  H    -48.821300    9.305360   31.012800
  C    -48.546600    8.625180   33.053500
  H    -49.253300    9.418030   33.258400
  H    -47.568900    9.014240   33.127600
  C    -48.813000    7.393990   33.957800
  H    -48.483700    7.544010   34.987400
  H    -48.313300    6.530450   33.688900
  H    -49.897500    7.125480   33.909500
  H    -44.447400   12.916700   29.499800
  H    -45.728600    4.721010   30.513100

 Total Charge           Charge          ....    0
 Multiplicity           Mult            ....    1
 Number of Electrons    NEL             ....  134
 Basis Dimension        Dim             ....  322

ORBITAL ENERGIES
----------------

  NO   OCC          E(Eh)            E(eV)
   0   2.0000     -88.966011     -2420.8882
   1   2.0000     -88.963056     -2420.8078
   2   2.0000     -10.333766      -281.1961
   3   2.0000     -10.325629      -280.9746
   4   2.0000     -10.323951      -280.9290
   5   2.0000     -10.323613      -280.9198
   6   2.0000     -10.311391      -280.5872
   7   2.0000     -10.308643      -280.5124
   8   2.0000     -10.295648      -280.1588
   9   2.0000     -10.295368      -280.1512
  10   2.0000     -10.294035      -280.1149
  11   2.0000     -10.293313      -280.0953
  12   2.0000     -10.280244      -279.7397
  13   2.0000     -10.274315      -279.5783
  14   2.0000     -10.272989      -279.5422
  15   2.0000     -10.271418      -279.4995
  16   2.0000      -8.079442      -219.8528
  17   2.0000      -8.078269      -219.8209
  18   2.0000      -6.038039      -164.3034
  19   2.0000      -6.036757      -164.2685
  20   2.0000      -6.034065      -164.1952
  21   2.0000      -6.032769      -164.1600
  22   2.0000      -6.030231      -164.0909
  23   2.0000      -6.028933      -164.0556
  24   2.0000      -1.008162       -27.4335
  25   2.0000      -0.981165       -26.6989
  26   2.0000      -0.925831       -25.1932
  27   2.0000      -0.903749       -24.5923
  28   2.0000      -0.874521       -23.7969
  29   2.0000      -0.849125       -23.1059
  30   2.0000      -0.841536       -22.8994
  31   2.0000      -0.814796       -22.1717
  32   2.0000      -0.786996       -21.4152
  33   2.0000      -0.774083       -21.0639
  34   2.0000      -0.713914       -19.4266
  35   2.0000      -0.696705       -18.9583
  36   2.0000      -0.688718       -18.7410
  37   2.0000      -0.660310       -17.9680
  38   2.0000      -0.646236       -17.5850
  39   2.0000      -0.620066       -16.8728
  40   2.0000      -0.593146       -16.1403
  41   2.0000      -0.574916       -15.6443
  42   2.0000      -0.559016       -15.2116
  43   2.0000      -0.550073       -14.9683
  44   2.0000      -0.547105       -14.8875
  45   2.0000      -0.541663       -14.7394
  46   2.0000      -0.522819       -14.2266
  47   2.0000      -0.512475       -13.9452
  48   2.0000      -0.505498       -13.7553
  49   2.0000      -0.491537       -13.3754
  50   2.0000      -0.485740       -13.2177
  51   2.0000      -0.483052       -13.1445
  52   2.0000      -0.477432       -12.9916
  53   2.0000      -0.468177       -12.7397
  54   2.0000      -0.458763       -12.4836
  55   2.0000      -0.439751       -11.9662
  56   2.0000      -0.438880       -11.9425
  57   2.0000      -0.436931       -11.8895
  58   2.0000      -0.427358       -11.6290
  59   2.0000      -0.425300       -11.5730
  60   2.0000      -0.421913       -11.4808
  61   2.0000      -0.411946       -11.2096
  62   2.0000      -0.410282       -11.1643
  63   2.0000      -0.345478        -9.4009
  64   2.0000      -0.331282        -9.0146
  65   2.0000      -0.325190        -8.8489
  66   2.0000      -0.294874        -8.0239
  67   0.0000       0.017855         0.4859
  68   0.0000       0.064428         1.7532
  69   0.0000       0.102599         2.7918
  70   0.0000       0.104536         2.8446
  71   0.0000       0.142660         3.8820

MULLIKEN ATOMIC CHARGES
-----------------------
   0 S :    0.108936
   1 C :   -0.136638
   2 C :   -0.110474
   3 C :    0.005952
   4 C :   -0.164056
   5 H :    0.032926
   6 C :    0.089617
   7 H :    0.022038
   8 H :    0.036483
   9 C :   -0.053112
  10 H :    0.002086
  11 H :    0.013503
  12 C :   -0.025904
  13 H :    0.021271
  14 H :    0.024287
  15 H :    0.041074
  16 S :    0.095250
  17 C :   -0.097479
  18 C :   -0.022105
  19 C :   -0.017224
  20 C :   -0.129841
  21 H :    0.009650
  22 C :   -0.005772
  23 H :    0.019978
  24 H :    0.023736
  25 C :   -0.018249
  26 H :    0.029658
  27 H :    0.018588
  28 C :   -0.038880
  29 H :    0.035821
  30 H :    0.009635
  31 H :    0.031162
  32 H :    0.075932
  33 H :    0.072150
Sum of atomic charges:    0.0000000

LOEWDIN ATOMIC CHARGES
----------------------
   0 S :    0.406116
   1 C :   -0.200438
   2 C :   -0.059044
   3 C :   -0.064825
   4 C :   -0.209681
   5 H :    0.037790
   6 C :   -0.032030
   7 H :    0.030761
   8 H :    0.040527
   9 C :   -0.047094
  10 H :    0.021093
  11 H :    0.018783
  12 C :   -0.061615
  13 H :    0.020944
  14 H :    0.031909
  15 H :    0.027226
  16 S :    0.382292
  17 C :   -0.176168
  18 C :   -0.073399
  19 C :   -0.048656
  20 C :   -0.186947
  21 H :    0.025913
  22 C :   -0.041027
  23 H :    0.028899
  24 H :    0.030411
  25 C :   -0.031915
  26 H :    0.025437
  27 H :    0.018820
  28 C :   -0.064670
  29 H :    0.030185
  30 H :    0.012341
  31 H :    0.029911
  32 H :    0.039799
  33 H :    0.038353

  Mayer bond orders larger than 0.100000
B(  0-S ,  1-C ) :   1.1476 B(  0-S ,  4-C ) :   1.1346 B(  1-C ,  2-C ) :   1.5940
B(  1-C , 32-H ) :   0.9614 B(  2-C ,  3-C ) :   1.2100 B(  2-C ,  6-C ) :   1.0331
B(  3-C ,  4-C ) :   1.6275 B(  3-C ,  5-H ) :   0.9737 B(  4-C , 20-C ) :   1.0602
B(  6-C ,  7-H ) :   0.9411 B(  6-C ,  8-H ) :   0.9319 B(  6-C ,  9-C ) :   1.0799
B(  9-C , 10-H ) :   0.9458 B(  9-C , 11-H ) :   0.9509 B(  9-C , 12-C ) :   1.0884
B( 12-C , 13-H ) :   0.9703 B( 12-C , 14-H ) :   0.9658 B( 12-C , 15-H ) :   0.9751
B( 16-S , 17-C ) :   1.1739 B( 16-S , 20-C ) :   1.1222 B( 17-C , 18-C ) :   1.5672
B( 17-C , 20-C ) :   0.1173 B( 17-C , 33-H ) :   0.9637 B( 18-C , 19-C ) :   1.2753
B( 18-C , 21-H ) :   0.9967 B( 19-C , 20-C ) :   1.5383 B( 19-C , 22-C ) :   1.0532
B( 22-C , 23-H ) :   0.9399 B( 22-C , 24-H ) :   0.9348 B( 22-C , 25-C ) :   1.0629
B( 25-C , 26-H ) :   0.9564 B( 25-C , 27-H ) :   0.9544 B( 25-C , 28-C ) :   1.0767
B( 28-C , 29-H ) :   0.9732 B( 28-C , 30-H ) :   0.9745 B( 28-C , 31-H ) :   0.9737

Dispersion correction           -0.014508187
FINAL SINGLE POINT ENERGY     -1339.860212187534

DIPOLE MOMENT
-------------
                                X             Y             Z
Electronic contribution:     18.55061     -10.44950      -0.42248
Nuclear contribution   :    -19.22760      10.55779       0.39717
                        -----------------------------------------
Total Dipole Moment    :     -0.67700       0.10828      -0.02531
                        -----------------------------------------
Magnitude (a.u.)       :      0.68607
Magnitude (Debye)      :      1.74384

Rotational constants in cm-1:     0.021061     0.007869     0.006847
Rotational constants in MHz :   631.398523   235.919359   205.267562

                             ****ORCA TERMINATED NORMALLY****
TOTAL RUN TIME: 0 days 0 hours 0 minutes 22 seconds 791 msec
