                         Program Version 4.2.1 -  RELEASE  -
|  1> ! wB97X-D3 SP def2-SVP
|  2> %pal
|  3> nprocs 24
|  4> end
|  5>
|  6> * xyz 0 1
|  7> S 	 -107.348 	 51.4384 	 -69.3602
|  8> C 	 -108.382 	 51.0122 	 -70.6751
|  9> C 	 -107.804 	 51.438 	 -71.8974
| 10> C 	 -106.567 	 52.0824 	 -71.6811
| 11> C 	 -106.307 	 52.3795 	 -70.302
| 12> H 	 -105.816 	 52.4353 	 -72.3667
| 13> C 	 -108.32 	 51.1043 	 -73.3154
| 14> H 	 -108.25 	 52.0197 	 -73.861
| 15> H 	 -109.34 	 50.8238 	 -73.1284
| 16> C 	 -107.729 	 49.8285 	 -73.899
| 17> H 	 -106.659 	 49.9969 	 -74.0094
| 18> H 	 -107.889 	 49.0656 	 -73.1041
| 19> C 	 -108.374 	 49.3029 	 -75.2473
| 20> H 	 -108.43 	 49.9607 	 -76.0705
| 21> H 	 -107.894 	 48.392 	 -75.6271
| 22> H 	 -109.377 	 49.0355 	 -74.9818
| 23> S 	 -103.986 	 52.0717 	 -68.8009
| 24> C 	 -102.915 	 53.4391 	 -68.7675
| 25> C 	 -103.333 	 54.5146 	 -69.4503
| 26> C 	 -104.682 	 54.2964 	 -69.9673
| 27> C 	 -105.108 	 52.9965 	 -69.7993
| 28> H 	 -102.843 	 55.5209 	 -69.446
| 29> C 	 -105.508 	 55.3484 	 -70.6609
| 30> H 	 -105.659 	 56.2114 	 -69.9756
| 31> H 	 -106.545 	 54.9678 	 -70.6452
| 32> C 	 -105.128 	 55.8492 	 -72.0489
| 33> H 	 -105.095 	 55.0714 	 -72.7461
| 34> H 	 -104.12 	 56.3633 	 -72.2135
| 35> C 	 -106.18 	 56.889 	 -72.5655
| 36> H 	 -107.184 	 56.4486 	 -72.5937
| 37> H 	 -106.098 	 57.2509 	 -73.5666
| 38> H 	 -106.36 	 57.7573 	 -71.933
| 39> H 	 -109.381 	 50.6395 	 -70.6826
| 40> H 	 -101.868 	 53.5187 	 -68.3869
| 41> *
| 42>
| 43>                          ****END OF INPUT****

CARTESIAN COORDINATES (ANGSTROEM)
---------------------------------
  S    -107.348000   51.438400  -69.360200
  C    -108.382000   51.012200  -70.675100
  C    -107.804000   51.438000  -71.897400
  C    -106.567000   52.082400  -71.681100
  C    -106.307000   52.379500  -70.302000
  H    -105.816000   52.435300  -72.366700
  C    -108.320000   51.104300  -73.315400
  H    -108.250000   52.019700  -73.861000
  H    -109.340000   50.823800  -73.128400
  C    -107.729000   49.828500  -73.899000
  H    -106.659000   49.996900  -74.009400
  H    -107.889000   49.065600  -73.104100
  C    -108.374000   49.302900  -75.247300
  H    -108.430000   49.960700  -76.070500
  H    -107.894000   48.392000  -75.627100
  H    -109.377000   49.035500  -74.981800
  S    -103.986000   52.071700  -68.800900
  C    -102.915000   53.439100  -68.767500
  C    -103.333000   54.514600  -69.450300
  C    -104.682000   54.296400  -69.967300
  C    -105.108000   52.996500  -69.799300
  H    -102.843000   55.520900  -69.446000
  C    -105.508000   55.348400  -70.660900
  H    -105.659000   56.211400  -69.975600
  H    -106.545000   54.967800  -70.645200
  C    -105.128000   55.849200  -72.048900
  H    -105.095000   55.071400  -72.746100
  H    -104.120000   56.363300  -72.213500
  C    -106.180000   56.889000  -72.565500
  H    -107.184000   56.448600  -72.593700
  H    -106.098000   57.250900  -73.566600
  H    -106.360000   57.757300  -71.933000
  H    -109.381000   50.639500  -70.682600
  H    -101.868000   53.518700  -68.386900

 Total Charge           Charge          ....    0
 Multiplicity           Mult            ....    1
 Number of Electrons    NEL             ....  134
 Basis Dimension        Dim             ....  322

ORBITAL ENERGIES
----------------

  NO   OCC          E(Eh)            E(eV)
   0   2.0000     -88.970802     -2421.0186
   1   2.0000     -88.967038     -2420.9162
   2   2.0000     -10.326497      -280.9983
   3   2.0000     -10.324392      -280.9410
   4   2.0000     -10.315724      -280.7051
   5   2.0000     -10.314560      -280.6734
   6   2.0000     -10.304224      -280.3922
   7   2.0000     -10.302339      -280.3409
   8   2.0000     -10.294817      -280.1362
   9   2.0000     -10.294056      -280.1155
  10   2.0000     -10.292710      -280.0789
  11   2.0000     -10.292605      -280.0760
  12   2.0000     -10.292014      -280.0599
  13   2.0000     -10.290172      -280.0098
  14   2.0000     -10.278442      -279.6906
  15   2.0000     -10.275267      -279.6042
  16   2.0000      -8.086390      -220.0419
  17   2.0000      -8.081891      -219.9194
  18   2.0000      -6.044695      -164.4845
  19   2.0000      -6.040567      -164.3722
  20   2.0000      -6.040528      -164.3711
  21   2.0000      -6.037569      -164.2906
  22   2.0000      -6.036499      -164.2615
  23   2.0000      -6.032344      -164.1484
  24   2.0000      -1.012297       -27.5460
  25   2.0000      -0.987876       -26.8815
  26   2.0000      -0.911995       -24.8167
  27   2.0000      -0.905808       -24.6483
  28   2.0000      -0.871104       -23.7040
  29   2.0000      -0.850471       -23.1425
  30   2.0000      -0.845282       -23.0013
  31   2.0000      -0.814038       -22.1511
  32   2.0000      -0.786732       -21.4081
  33   2.0000      -0.771350       -20.9895
  34   2.0000      -0.711625       -19.3643
  35   2.0000      -0.702946       -19.1281
  36   2.0000      -0.698091       -18.9960
  37   2.0000      -0.655834       -17.8461
  38   2.0000      -0.642231       -17.4760
  39   2.0000      -0.615966       -16.7613
  40   2.0000      -0.594797       -16.1852
  41   2.0000      -0.570682       -15.5290
  42   2.0000      -0.565244       -15.3811
  43   2.0000      -0.551572       -15.0090
  44   2.0000      -0.529132       -14.3984
  45   2.0000      -0.522662       -14.2224
  46   2.0000      -0.514769       -14.0076
  47   2.0000      -0.514558       -14.0018
  48   2.0000      -0.505205       -13.7473
  49   2.0000      -0.494230       -13.4487
  50   2.0000      -0.492543       -13.4028
  51   2.0000      -0.476447       -12.9648
  52   2.0000      -0.473753       -12.8915
  53   2.0000      -0.464603       -12.6425
  54   2.0000      -0.458867       -12.4864
  55   2.0000      -0.449254       -12.2248
  56   2.0000      -0.447079       -12.1656
  57   2.0000      -0.440810       -11.9950
  58   2.0000      -0.436523       -11.8784
  59   2.0000      -0.427125       -11.6227
  60   2.0000      -0.420184       -11.4338
  61   2.0000      -0.416400       -11.3308
  62   2.0000      -0.409292       -11.1374
  63   2.0000      -0.345642        -9.4054
  64   2.0000      -0.332507        -9.0480
  65   2.0000      -0.329939        -8.9781
  66   2.0000      -0.293655        -7.9907
  67   0.0000       0.030385         0.8268
  68   0.0000       0.065641         1.7862
  69   0.0000       0.111606         3.0369
  70   0.0000       0.122193         3.3250
  71   0.0000       0.132048         3.5932

MULLIKEN ATOMIC CHARGES
-----------------------
   0 S :    0.134373
   1 C :   -0.104716
   2 C :   -0.127720
   3 C :    0.025594
   4 C :   -0.190850
   5 H :    0.014450
   6 C :    0.109764
   7 H :    0.032209
   8 H :   -0.001021
   9 C :   -0.086214
  10 H :    0.029210
  11 H :    0.035649
  12 C :   -0.020075
  13 H :    0.025964
  14 H :    0.037378
  15 H :    0.018821
  16 S :    0.118293
  17 C :   -0.082966
  18 C :   -0.041026
  19 C :   -0.045401
  20 C :   -0.153237
  21 H :    0.040069
  22 C :    0.033303
  23 H :    0.028729
  24 H :    0.031715
  25 C :   -0.023705
  26 H :    0.009269
  27 H :    0.038550
  28 C :   -0.062675
  29 H :    0.015614
  30 H :    0.025699
  31 H :    0.025891
  32 H :    0.042399
  33 H :    0.066664
Sum of atomic charges:    0.0000000

LOEWDIN ATOMIC CHARGES
----------------------
   0 S :    0.456963
   1 C :   -0.215968
   2 C :   -0.059667
   3 C :   -0.058699
   4 C :   -0.222632
   5 H :    0.027798
   6 C :   -0.026747
   7 H :    0.026584
   8 H :    0.024633
   9 C :   -0.035828
  10 H :    0.019128
  11 H :    0.032177
  12 C :   -0.061849
  13 H :    0.018366
  14 H :    0.031235
  15 H :    0.021635
  16 S :    0.396112
  17 C :   -0.194066
  18 C :   -0.077947
  19 C :   -0.053100
  20 C :   -0.200544
  21 H :    0.042852
  22 C :   -0.042532
  23 H :    0.036215
  24 H :    0.037989
  25 C :   -0.035538
  26 H :    0.013730
  27 H :    0.032455
  28 C :   -0.072308
  29 H :    0.024579
  30 H :    0.021719
  31 H :    0.023464
  32 H :    0.026689
  33 H :    0.043100

  Mayer bond orders larger than 0.100000
B(  0-S ,  1-C ) :   1.1723 B(  0-S ,  4-C ) :   1.1891 B(  1-C ,  2-C ) :   1.5386
B(  1-C ,  4-C ) :   0.1167 B(  1-C , 32-H ) :   0.9686 B(  2-C ,  3-C ) :   1.2987
B(  2-C ,  6-C ) :   1.0266 B(  3-C ,  4-C ) :   1.4902 B(  3-C ,  5-H ) :   0.9945
B(  4-C , 20-C ) :   1.0560 B(  6-C ,  7-H ) :   0.9415 B(  6-C ,  8-H ) :   0.9319
B(  6-C ,  9-C ) :   1.0579 B(  9-C , 10-H ) :   0.9618 B(  9-C , 11-H ) :   0.9551
B(  9-C , 12-C ) :   1.0694 B( 12-C , 13-H ) :   0.9792 B( 12-C , 14-H ) :   0.9758
B( 12-C , 15-H ) :   0.9752 B( 16-S , 17-C ) :   1.1317 B( 16-S , 20-C ) :   1.1093
B( 17-C , 18-C ) :   1.6770 B( 17-C , 33-H ) :   0.9507 B( 18-C , 19-C ) :   1.2048
B( 18-C , 21-H ) :   0.9787 B( 19-C , 20-C ) :   1.6443 B( 19-C , 22-C ) :   1.0561
B( 22-C , 23-H ) :   0.9318 B( 22-C , 24-H ) :   0.9258 B( 22-C , 25-C ) :   1.0549
B( 25-C , 26-H ) :   0.9522 B( 25-C , 27-H ) :   0.9566 B( 25-C , 28-C ) :   1.0723
B( 28-C , 29-H ) :   0.9730 B( 28-C , 30-H ) :   0.9757 B( 28-C , 31-H ) :   0.9774

Dispersion correction           -0.013958467
FINAL SINGLE POINT ENERGY     -1339.864190455546

DIPOLE MOMENT
-------------
                                X             Y             Z
Electronic contribution:      8.87173      -7.69432      26.55318
Nuclear contribution   :     -8.97547       7.95054     -27.11170
                        -----------------------------------------
Total Dipole Moment    :     -0.10373       0.25622      -0.55852
                        -----------------------------------------
Magnitude (a.u.)       :      0.62318
Magnitude (Debye)      :      1.58399

Rotational constants in cm-1:     0.017241     0.008350     0.006592
Rotational constants in MHz :   516.875694   250.311817   197.634213

                             ****ORCA TERMINATED NORMALLY****
TOTAL RUN TIME: 0 days 0 hours 0 minutes 21 seconds 226 msec
