                         Program Version 4.2.1 -  RELEASE  -
|  1> ! wB97X-D3 SP def2-SVP
|  2> %pal
|  3> nprocs 24
|  4> end
|  5>
|  6> * xyz 0 1
|  7> S 	 -92.4525 	 -41.8836 	 -60.8551
|  8> C 	 -91.7837 	 -43.2279 	 -59.9471
|  9> C 	 -92.5906 	 -43.5464 	 -58.8797
| 10> C 	 -93.5726 	 -42.531 	 -58.6095
| 11> C 	 -93.5 	 -41.493 	 -59.481
| 12> H 	 -94.2797 	 -42.3781 	 -57.7844
| 13> C 	 -92.3594 	 -44.7024 	 -57.8862
| 14> H 	 -91.7191 	 -44.4201 	 -57.0543
| 15> H 	 -91.6796 	 -45.3635 	 -58.4367
| 16> C 	 -93.465 	 -45.5176 	 -57.3493
| 17> H 	 -94.2228 	 -44.8753 	 -56.9315
| 18> H 	 -94.0177 	 -46.077 	 -58.155
| 19> C 	 -93.0357 	 -46.5474 	 -56.2596
| 20> H 	 -93.9731 	 -47.098 	 -56.1941
| 21> H 	 -92.2682 	 -47.2262 	 -56.6126
| 22> H 	 -92.6585 	 -46.1494 	 -55.4018
| 23> S 	 -93.8124 	 -39.1116 	 -58.3977
| 24> C 	 -95.2615 	 -38.2539 	 -58.7017
| 25> C 	 -96.1171 	 -38.8115 	 -59.5618
| 26> C 	 -95.5904 	 -40.055 	 -59.969
| 27> C 	 -94.3567 	 -40.3617 	 -59.4002
| 28> H 	 -97.0542 	 -38.3979 	 -59.8773
| 29> C 	 -96.2762 	 -40.8376 	 -61.0368
| 30> H 	 -95.5507 	 -41.4148 	 -61.412
| 31> H 	 -96.4631 	 -40.0772 	 -61.7951
| 32> C 	 -97.6333 	 -41.5541 	 -60.6905
| 33> H 	 -98.0632 	 -42.2313 	 -61.4665
| 34> H 	 -98.4119 	 -40.7945 	 -60.4174
| 35> C 	 -97.4286 	 -42.4631 	 -59.4515
| 36> H 	 -96.6379 	 -43.2229 	 -59.5361
| 37> H 	 -98.3656 	 -43.0002 	 -59.1935
| 38> H 	 -97.1544 	 -41.7842 	 -58.6696
| 39> H 	 -90.9322 	 -43.8808 	 -60.2347
| 40> H 	 -95.3888 	 -37.2658 	 -58.2213
| 41> *
| 42>
| 43>                          ****END OF INPUT****

CARTESIAN COORDINATES (ANGSTROEM)
---------------------------------
  S    -92.452500  -41.883600  -60.855100
  C    -91.783700  -43.227900  -59.947100
  C    -92.590600  -43.546400  -58.879700
  C    -93.572600  -42.531000  -58.609500
  C    -93.500000  -41.493000  -59.481000
  H    -94.279700  -42.378100  -57.784400
  C    -92.359400  -44.702400  -57.886200
  H    -91.719100  -44.420100  -57.054300
  H    -91.679600  -45.363500  -58.436700
  C    -93.465000  -45.517600  -57.349300
  H    -94.222800  -44.875300  -56.931500
  H    -94.017700  -46.077000  -58.155000
  C    -93.035700  -46.547400  -56.259600
  H    -93.973100  -47.098000  -56.194100
  H    -92.268200  -47.226200  -56.612600
  H    -92.658500  -46.149400  -55.401800
  S    -93.812400  -39.111600  -58.397700
  C    -95.261500  -38.253900  -58.701700
  C    -96.117100  -38.811500  -59.561800
  C    -95.590400  -40.055000  -59.969000
  C    -94.356700  -40.361700  -59.400200
  H    -97.054200  -38.397900  -59.877300
  C    -96.276200  -40.837600  -61.036800
  H    -95.550700  -41.414800  -61.412000
  H    -96.463100  -40.077200  -61.795100
  C    -97.633300  -41.554100  -60.690500
  H    -98.063200  -42.231300  -61.466500
  H    -98.411900  -40.794500  -60.417400
  C    -97.428600  -42.463100  -59.451500
  H    -96.637900  -43.222900  -59.536100
  H    -98.365600  -43.000200  -59.193500
  H    -97.154400  -41.784200  -58.669600
  H    -90.932200  -43.880800  -60.234700
  H    -95.388800  -37.265800  -58.221300

 Total Charge           Charge          ....    0
 Multiplicity           Mult            ....    1
 Number of Electrons    NEL             ....  134
 Basis Dimension        Dim             ....  322

ORBITAL ENERGIES
----------------

  NO   OCC          E(Eh)            E(eV)
   0   2.0000     -88.965621     -2420.8776
   1   2.0000     -88.963401     -2420.8172
   2   2.0000     -10.320645      -280.8390
   3   2.0000     -10.317040      -280.7409
   4   2.0000     -10.312852      -280.6270
   5   2.0000     -10.310027      -280.5501
   6   2.0000     -10.303165      -280.3634
   7   2.0000     -10.296306      -280.1767
   8   2.0000     -10.294397      -280.1248
   9   2.0000     -10.291974      -280.0589
  10   2.0000     -10.287243      -279.9301
  11   2.0000     -10.286819      -279.9186
  12   2.0000     -10.285805      -279.8910
  13   2.0000     -10.278046      -279.6799
  14   2.0000     -10.273679      -279.5610
  15   2.0000     -10.271476      -279.5011
  16   2.0000      -8.080328      -219.8769
  17   2.0000      -8.079817      -219.8630
  18   2.0000      -6.038509      -164.3162
  19   2.0000      -6.038360      -164.3121
  20   2.0000      -6.034658      -164.2114
  21   2.0000      -6.034617      -164.2103
  22   2.0000      -6.031212      -164.1176
  23   2.0000      -6.030305      -164.0929
  24   2.0000      -1.018705       -27.7204
  25   2.0000      -0.989489       -26.9254
  26   2.0000      -0.913989       -24.8709
  27   2.0000      -0.908050       -24.7093
  28   2.0000      -0.880138       -23.9498
  29   2.0000      -0.849892       -23.1267
  30   2.0000      -0.846045       -23.0221
  31   2.0000      -0.818771       -22.2799
  32   2.0000      -0.785211       -21.3667
  33   2.0000      -0.770413       -20.9640
  34   2.0000      -0.709763       -19.3136
  35   2.0000      -0.697274       -18.9738
  36   2.0000      -0.688970       -18.7478
  37   2.0000      -0.665049       -18.0969
  38   2.0000      -0.643396       -17.5077
  39   2.0000      -0.616364       -16.7721
  40   2.0000      -0.597536       -16.2598
  41   2.0000      -0.573563       -15.6075
  42   2.0000      -0.561407       -15.2767
  43   2.0000      -0.551836       -15.0162
  44   2.0000      -0.542816       -14.7708
  45   2.0000      -0.532469       -14.4892
  46   2.0000      -0.516239       -14.0476
  47   2.0000      -0.512193       -13.9375
  48   2.0000      -0.500412       -13.6169
  49   2.0000      -0.497643       -13.5416
  50   2.0000      -0.491445       -13.3729
  51   2.0000      -0.481243       -13.0953
  52   2.0000      -0.471118       -12.8198
  53   2.0000      -0.462203       -12.5772
  54   2.0000      -0.458838       -12.4856
  55   2.0000      -0.449264       -12.2251
  56   2.0000      -0.447987       -12.1904
  57   2.0000      -0.438584       -11.9345
  58   2.0000      -0.432281       -11.7630
  59   2.0000      -0.427290       -11.6271
  60   2.0000      -0.418035       -11.3753
  61   2.0000      -0.413245       -11.2450
  62   2.0000      -0.409873       -11.1532
  63   2.0000      -0.339725        -9.2444
  64   2.0000      -0.333606        -9.0779
  65   2.0000      -0.319873        -8.7042
  66   2.0000      -0.306050        -8.3281
  67   0.0000       0.047188         1.2841
  68   0.0000       0.057929         1.5763
  69   0.0000       0.104422         2.8415
  70   0.0000       0.120605         3.2818
  71   0.0000       0.132967         3.6182

MULLIKEN ATOMIC CHARGES
-----------------------
   0 S :    0.114881
   1 C :   -0.129285
   2 C :   -0.049411
   3 C :    0.040738
   4 C :   -0.171127
   5 H :    0.028008
   6 C :    0.071167
   7 H :    0.032748
   8 H :   -0.000851
   9 C :   -0.106328
  10 H :    0.025019
  11 H :    0.031865
  12 C :   -0.012889
  13 H :    0.038694
  14 H :    0.023690
  15 H :    0.019370
  16 S :    0.133783
  17 C :   -0.094674
  18 C :   -0.009924
  19 C :   -0.071791
  20 C :   -0.223613
  21 H :    0.011240
  22 C :    0.157431
  23 H :   -0.025543
  24 H :    0.025201
  25 C :   -0.082902
  26 H :    0.043646
  27 H :    0.034005
  28 C :   -0.077459
  29 H :    0.038650
  30 H :    0.034256
  31 H :    0.035642
  32 H :    0.057581
  33 H :    0.058182
Sum of atomic charges:    0.0000000

LOEWDIN ATOMIC CHARGES
----------------------
   0 S :    0.386568
   1 C :   -0.196477
   2 C :   -0.062065
   3 C :   -0.055867
   4 C :   -0.196296
   5 H :    0.038200
   6 C :   -0.043152
   7 H :    0.032619
   8 H :    0.026290
   9 C :   -0.042912
  10 H :    0.019071
  11 H :    0.028921
  12 C :   -0.049615
  13 H :    0.035065
  14 H :    0.024552
  15 H :    0.010275
  16 S :    0.452900
  17 C :   -0.189787
  18 C :   -0.071357
  19 C :   -0.051134
  20 C :   -0.231556
  21 H :    0.033533
  22 C :   -0.023133
  23 H :    0.007422
  24 H :    0.036237
  25 C :   -0.038307
  26 H :    0.028891
  27 H :    0.026291
  28 C :   -0.070957
  29 H :    0.024458
  30 H :    0.025749
  31 H :    0.019638
  32 H :    0.037688
  33 H :    0.028250

  Mayer bond orders larger than 0.100000
B(  0-S ,  1-C ) :   1.1256 B(  0-S ,  4-C ) :   1.1161 B(  1-C ,  2-C ) :   1.6484
B(  1-C , 32-H ) :   0.9613 B(  2-C ,  3-C ) :   1.1799 B(  2-C ,  6-C ) :   1.0164
B(  3-C ,  4-C ) :   1.6409 B(  3-C ,  5-H ) :   0.9878 B(  4-C , 20-C ) :   1.0238
B(  6-C ,  7-H ) :   0.9423 B(  6-C ,  8-H ) :   0.9302 B(  6-C ,  9-C ) :   1.0730
B(  9-C , 10-H ) :   0.9519 B(  9-C , 11-H ) :   0.9555 B(  9-C , 12-C ) :   1.0753
B( 12-C , 13-H ) :   0.9758 B( 12-C , 14-H ) :   0.9762 B( 12-C , 15-H ) :   0.9769
B( 16-S , 17-C ) :   1.1771 B( 16-S , 20-C ) :   1.1703 B( 17-C , 18-C ) :   1.5937
B( 17-C , 33-H ) :   0.9600 B( 18-C , 19-C ) :   1.2422 B( 18-C , 21-H ) :   1.0031
B( 19-C , 20-C ) :   1.5824 B( 19-C , 22-C ) :   1.0354 B( 22-C , 23-H ) :   0.9231
B( 22-C , 24-H ) :   0.9354 B( 22-C , 25-C ) :   1.0512 B( 25-C , 26-H ) :   0.9621
B( 25-C , 27-H ) :   0.9577 B( 25-C , 28-C ) :   1.0692 B( 28-C , 29-H ) :   0.9765
B( 28-C , 30-H ) :   0.9742 B( 28-C , 31-H ) :   0.9736

Dispersion correction           -0.015120052
FINAL SINGLE POINT ENERGY     -1339.859063273800

DIPOLE MOMENT
-------------
                                X             Y             Z
Electronic contribution:     12.52984      21.86320      -7.52006
Nuclear contribution   :    -12.82056     -22.13561       7.73276
                        -----------------------------------------
Total Dipole Moment    :     -0.29072      -0.27241       0.21271
                        -----------------------------------------
Magnitude (a.u.)       :      0.45163
Magnitude (Debye)      :      1.14796

Rotational constants in cm-1:     0.018987     0.008409     0.007523
Rotational constants in MHz :   569.204656   252.088161   225.540426

                             ****ORCA TERMINATED NORMALLY****
TOTAL RUN TIME: 0 days 0 hours 0 minutes 23 seconds 242 msec
