                         Program Version 4.2.1 -  RELEASE  -
|  1> ! wB97X-D3 SP def2-SVP
|  2> %pal
|  3> nprocs 24
|  4> end
|  5>
|  6> * xyz 0 1
|  7> S 	 -96.7521 	 -4.6458 	 -120.329
|  8> C 	 -98.3025 	 -5.5139 	 -120.354
|  9> C 	 -99.378 	 -4.68747 	 -120.567
| 10> C 	 -98.9644 	 -3.33646 	 -120.679
| 11> C 	 -97.6178 	 -3.17053 	 -120.535
| 12> H 	 -99.6729 	 -2.49218 	 -120.654
| 13> C 	 -100.874 	 -5.19554 	 -120.553
| 14> H 	 -100.708 	 -6.23563 	 -120.525
| 15> H 	 -101.33 	 -4.95909 	 -121.483
| 16> C 	 -101.827 	 -4.78026 	 -119.348
| 17> H 	 -102.359 	 -3.82316 	 -119.579
| 18> H 	 -102.646 	 -5.46313 	 -119.166
| 19> C 	 -101.016 	 -4.60821 	 -118.095
| 20> H 	 -99.9838 	 -4.10813 	 -118.104
| 21> H 	 -101.556 	 -4.13303 	 -117.218
| 22> H 	 -100.653 	 -5.61386 	 -117.857
| 23> S 	 -96.8674 	 -1.10583 	 -118.899
| 24> C 	 -95.8386 	 0.0885915 	 -119.503
| 25> C 	 -95.5964 	 -0.0654389 	 -120.869
| 26> C 	 -96.222 	 -1.21181 	 -121.372
| 27> C 	 -96.9419 	 -1.93448 	 -120.441
| 28> H 	 -95.0957 	 0.705285 	 -121.409
| 29> C 	 -96.1083 	 -1.53235 	 -122.817
| 30> H 	 -96.7456 	 -0.82498 	 -123.405
| 31> H 	 -96.3979 	 -2.58865 	 -122.927
| 32> C 	 -94.691 	 -1.58153 	 -123.33
| 33> H 	 -93.9641 	 -2.00899 	 -122.608
| 34> H 	 -94.4333 	 -0.582801 	 -123.588
| 35> C 	 -94.5847 	 -2.37154 	 -124.614
| 36> H 	 -93.6657 	 -2.20604 	 -125.116
| 37> H 	 -95.4268 	 -2.08813 	 -125.233
| 38> H 	 -94.4893 	 -3.42755 	 -124.496
| 39> H 	 -98.3957 	 -6.61696 	 -120.279
| 40> H 	 -95.6666 	 0.951045 	 -118.894
| 41> *
| 42>
| 43>                          ****END OF INPUT****

CARTESIAN COORDINATES (ANGSTROEM)
---------------------------------
  S    -96.752100   -4.645800  -120.329000
  C    -98.302500   -5.513900  -120.354000
  C    -99.378000   -4.687470  -120.567000
  C    -98.964400   -3.336460  -120.679000
  C    -97.617800   -3.170530  -120.535000
  H    -99.672900   -2.492180  -120.654000
  C    -100.874000   -5.195540  -120.553000
  H    -100.708000   -6.235630  -120.525000
  H    -101.330000   -4.959090  -121.483000
  C    -101.827000   -4.780260  -119.348000
  H    -102.359000   -3.823160  -119.579000
  H    -102.646000   -5.463130  -119.166000
  C    -101.016000   -4.608210  -118.095000
  H    -99.983800   -4.108130  -118.104000
  H    -101.556000   -4.133030  -117.218000
  H    -100.653000   -5.613860  -117.857000
  S    -96.867400   -1.105830  -118.899000
  C    -95.838600    0.088591  -119.503000
  C    -95.596400   -0.065439  -120.869000
  C    -96.222000   -1.211810  -121.372000
  C    -96.941900   -1.934480  -120.441000
  H    -95.095700    0.705285  -121.409000
  C    -96.108300   -1.532350  -122.817000
  H    -96.745600   -0.824980  -123.405000
  H    -96.397900   -2.588650  -122.927000
  C    -94.691000   -1.581530  -123.330000
  H    -93.964100   -2.008990  -122.608000
  H    -94.433300   -0.582801  -123.588000
  C    -94.584700   -2.371540  -124.614000
  H    -93.665700   -2.206040  -125.116000
  H    -95.426800   -2.088130  -125.233000
  H    -94.489300   -3.427550  -124.496000
  H    -98.395700   -6.616960  -120.279000
  H    -95.666600    0.951045  -118.894000

 Total Charge           Charge          ....    0
 Multiplicity           Mult            ....    1
 Number of Electrons    NEL             ....  134
 Basis Dimension        Dim             ....  322

ORBITAL ENERGIES
----------------

  NO   OCC          E(Eh)            E(eV)
   0   2.0000     -88.968213     -2420.9482
   1   2.0000     -88.961400     -2420.7628
   2   2.0000     -10.320048      -280.8228
   3   2.0000     -10.317004      -280.7399
   4   2.0000     -10.314342      -280.6675
   5   2.0000     -10.310926      -280.5746
   6   2.0000     -10.302346      -280.3411
   7   2.0000     -10.294895      -280.1383
   8   2.0000     -10.293706      -280.1060
   9   2.0000     -10.293454      -280.0991
  10   2.0000     -10.291541      -280.0471
  11   2.0000     -10.286567      -279.9117
  12   2.0000     -10.284490      -279.8552
  13   2.0000     -10.278956      -279.7046
  14   2.0000     -10.276713      -279.6436
  15   2.0000     -10.265264      -279.3320
  16   2.0000      -8.083002      -219.9497
  17   2.0000      -8.077538      -219.8010
  18   2.0000      -6.041435      -164.3958
  19   2.0000      -6.037630      -164.2923
  20   2.0000      -6.035735      -164.2407
  21   2.0000      -6.033697      -164.1852
  22   2.0000      -6.031747      -164.1322
  23   2.0000      -6.028651      -164.0479
  24   2.0000      -1.013602       -27.5815
  25   2.0000      -0.988595       -26.9011
  26   2.0000      -0.917602       -24.9692
  27   2.0000      -0.906467       -24.6662
  28   2.0000      -0.870971       -23.7003
  29   2.0000      -0.855746       -23.2860
  30   2.0000      -0.846142       -23.0247
  31   2.0000      -0.810751       -22.0617
  32   2.0000      -0.783987       -21.3334
  33   2.0000      -0.770579       -20.9685
  34   2.0000      -0.706373       -19.2214
  35   2.0000      -0.697414       -18.9776
  36   2.0000      -0.692651       -18.8480
  37   2.0000      -0.658524       -17.9194
  38   2.0000      -0.636727       -17.3262
  39   2.0000      -0.618468       -16.8294
  40   2.0000      -0.601906       -16.3787
  41   2.0000      -0.577078       -15.7031
  42   2.0000      -0.561884       -15.2896
  43   2.0000      -0.554401       -15.0860
  44   2.0000      -0.540375       -14.7044
  45   2.0000      -0.529129       -14.3983
  46   2.0000      -0.522060       -14.2060
  47   2.0000      -0.512569       -13.9477
  48   2.0000      -0.497553       -13.5391
  49   2.0000      -0.493548       -13.4301
  50   2.0000      -0.487453       -13.2643
  51   2.0000      -0.475946       -12.9512
  52   2.0000      -0.467766       -12.7285
  53   2.0000      -0.464822       -12.6485
  54   2.0000      -0.456048       -12.4097
  55   2.0000      -0.454379       -12.3643
  56   2.0000      -0.448364       -12.2006
  57   2.0000      -0.436193       -11.8694
  58   2.0000      -0.430063       -11.7026
  59   2.0000      -0.423931       -11.5357
  60   2.0000      -0.416672       -11.3382
  61   2.0000      -0.407223       -11.0811
  62   2.0000      -0.404148       -10.9974
  63   2.0000      -0.338502        -9.2111
  64   2.0000      -0.328936        -8.9508
  65   2.0000      -0.319816        -8.7026
  66   2.0000      -0.311371        -8.4728
  67   0.0000       0.048042         1.3073
  68   0.0000       0.055328         1.5056
  69   0.0000       0.112980         3.0743
  70   0.0000       0.118746         3.2312
  71   0.0000       0.131699         3.5837

MULLIKEN ATOMIC CHARGES
-----------------------
   0 S :    0.129467
   1 C :   -0.142627
   2 C :   -0.130548
   3 C :    0.045240
   4 C :   -0.191333
   5 H :    0.023867
   6 C :    0.125268
   7 H :    0.003134
   8 H :    0.030076
   9 C :   -0.057112
  10 H :    0.029423
  11 H :    0.038750
  12 C :   -0.103073
  13 H :    0.057179
  14 H :    0.047981
  15 H :    0.016028
  16 S :    0.121376
  17 C :   -0.093635
  18 C :   -0.026597
  19 C :   -0.023970
  20 C :   -0.181465
  21 H :    0.010880
  22 C :    0.074602
  23 H :    0.049759
  24 H :    0.021393
  25 C :   -0.085250
  26 H :    0.039752
  27 H :    0.014402
  28 C :   -0.023124
  29 H :    0.013533
  30 H :    0.029469
  31 H :    0.025657
  32 H :    0.056023
  33 H :    0.055477
Sum of atomic charges:   -0.0000000

LOEWDIN ATOMIC CHARGES
----------------------
   0 S :    0.410641
   1 C :   -0.194510
   2 C :   -0.063329
   3 C :   -0.058312
   4 C :   -0.207838
   5 H :    0.037988
   6 C :   -0.015567
   7 H :    0.022402
   8 H :    0.027320
   9 C :   -0.042808
  10 H :    0.023552
  11 H :    0.028508
  12 C :   -0.088347
  13 H :    0.038627
  14 H :    0.030851
  15 H :    0.023093
  16 S :    0.436353
  17 C :   -0.195071
  18 C :   -0.072687
  19 C :   -0.055187
  20 C :   -0.217363
  21 H :    0.028359
  22 C :   -0.035553
  23 H :    0.040660
  24 H :    0.031052
  25 C :   -0.040612
  26 H :    0.030787
  27 H :    0.015342
  28 C :   -0.063085
  29 H :    0.022030
  30 H :    0.025672
  31 H :    0.022840
  32 H :    0.031382
  33 H :    0.022810

  Mayer bond orders larger than 0.100000
B(  0-S ,  1-C ) :   1.1319 B(  0-S ,  4-C ) :   1.1488 B(  1-C ,  2-C ) :   1.6435
B(  1-C , 32-H ) :   0.9551 B(  2-C ,  3-C ) :   1.2301 B(  2-C ,  6-C ) :   1.0140
B(  3-C ,  4-C ) :   1.6003 B(  3-C ,  5-H ) :   0.9934 B(  4-C , 20-C ) :   1.0319
B(  6-C ,  7-H ) :   0.9362 B(  6-C ,  8-H ) :   0.9424 B(  6-C ,  9-C ) :   1.0484
B(  9-C , 10-H ) :   0.9574 B(  9-C , 11-H ) :   0.9593 B(  9-C , 12-C ) :   1.0782
B( 12-C , 13-H ) :   0.9650 B( 12-C , 14-H ) :   0.9735 B( 12-C , 15-H ) :   0.9737
B( 16-S , 17-C ) :   1.2067 B( 16-S , 20-C ) :   1.1488 B( 17-C , 18-C ) :   1.5457
B( 17-C , 20-C ) :   0.1058 B( 17-C , 33-H ) :   0.9680 B( 18-C , 19-C ) :   1.2651
B( 18-C , 21-H ) :   1.0028 B( 19-C , 20-C ) :   1.5752 B( 19-C , 22-C ) :   1.0631
B( 22-C , 23-H ) :   0.9215 B( 22-C , 24-H ) :   0.9318 B( 22-C , 25-C ) :   1.0650
B( 25-C , 26-H ) :   0.9589 B( 25-C , 27-H ) :   0.9443 B( 25-C , 28-C ) :   1.1051
B( 28-C , 29-H ) :   0.9680 B( 28-C , 30-H ) :   0.9697 B( 28-C , 31-H ) :   0.9706

Dispersion correction           -0.014708371
FINAL SINGLE POINT ENERGY     -1339.869733211259

DIPOLE MOMENT
-------------
                                X             Y             Z
Electronic contribution:      7.49275       3.64423      10.49068
Nuclear contribution   :     -7.75130      -3.55625     -10.75044
                        -----------------------------------------
Total Dipole Moment    :     -0.25855       0.08798      -0.25975
                        -----------------------------------------
Magnitude (a.u.)       :      0.37691
Magnitude (Debye)      :      0.95803

Rotational constants in cm-1:     0.021363     0.008342     0.006863
Rotational constants in MHz :   640.437876   250.088562   205.753510

                             ****ORCA TERMINATED NORMALLY****
TOTAL RUN TIME: 0 days 0 hours 0 minutes 20 seconds 542 msec
