                         Program Version 4.2.1 -  RELEASE  -
|  1> ! wB97X-D3 SP def2-SVP
|  2> %pal
|  3> nprocs 24
|  4> end
|  5>
|  6> * xyz 0 1
|  7> S 	 -102.731 	 1.00975 	 -103.48
|  8> C 	 -103.222 	 0.105198 	 -104.937
|  9> C 	 -104.168 	 -0.888654 	 -104.607
| 10> C 	 -104.229 	 -1.02254 	 -103.183
| 11> C 	 -103.515 	 -0.143412 	 -102.43
| 12> H 	 -104.798 	 -1.69767 	 -102.599
| 13> C 	 -104.995 	 -1.81683 	 -105.495
| 14> H 	 -105.284 	 -2.64268 	 -104.856
| 15> H 	 -104.355 	 -2.28044 	 -106.258
| 16> C 	 -106.265 	 -1.10955 	 -106.144
| 17> H 	 -106.698 	 -0.40768 	 -105.412
| 18> H 	 -105.976 	 -0.653088 	 -107.029
| 19> C 	 -107.478 	 -2.08422 	 -106.366
| 20> H 	 -108.291 	 -1.57682 	 -106.937
| 21> H 	 -107.076 	 -2.96676 	 -106.825
| 22> H 	 -107.942 	 -2.55858 	 -105.485
| 23> S 	 -102.274 	 -1.1428 	 -100.19
| 24> C 	 -102.488 	 -0.345298 	 -98.6917
| 25> C 	 -103.551 	 0.53366 	 -98.7537
| 26> C 	 -104.057 	 0.669882 	 -100.062
| 27> C 	 -103.459 	 -0.165188 	 -100.967
| 28> H 	 -104.035 	 0.913707 	 -97.8443
| 29> C 	 -105.103 	 1.68895 	 -100.542
| 30> H 	 -105.006 	 1.81905 	 -101.597
| 31> H 	 -104.919 	 2.59132 	 -99.9463
| 32> C 	 -106.551 	 1.25071 	 -100.384
| 33> H 	 -107.145 	 2.0705 	 -100.784
| 34> H 	 -106.785 	 1.13532 	 -99.3168
| 35> C 	 -106.969 	 -0.0146146 	 -101.101
| 36> H 	 -107.983 	 -0.35155 	 -100.866
| 37> H 	 -106.305 	 -0.838114 	 -100.928
| 38> H 	 -106.941 	 0.134248 	 -102.173
| 39> H 	 -102.979 	 0.512995 	 -105.871
| 40> H 	 -101.986 	 -0.596769 	 -97.7676
| 41> *
| 42>
| 43>                          ****END OF INPUT****

CARTESIAN COORDINATES (ANGSTROEM)
---------------------------------
  S    -102.731000    1.009750  -103.480000
  C    -103.222000    0.105198  -104.937000
  C    -104.168000   -0.888654  -104.607000
  C    -104.229000   -1.022540  -103.183000
  C    -103.515000   -0.143412  -102.430000
  H    -104.798000   -1.697670  -102.599000
  C    -104.995000   -1.816830  -105.495000
  H    -105.284000   -2.642680  -104.856000
  H    -104.355000   -2.280440  -106.258000
  C    -106.265000   -1.109550  -106.144000
  H    -106.698000   -0.407680  -105.412000
  H    -105.976000   -0.653088  -107.029000
  C    -107.478000   -2.084220  -106.366000
  H    -108.291000   -1.576820  -106.937000
  H    -107.076000   -2.966760  -106.825000
  H    -107.942000   -2.558580  -105.485000
  S    -102.274000   -1.142800  -100.190000
  C    -102.488000   -0.345298  -98.691700
  C    -103.551000    0.533660  -98.753700
  C    -104.057000    0.669882  -100.062000
  C    -103.459000   -0.165188  -100.967000
  H    -104.035000    0.913707  -97.844300
  C    -105.103000    1.688950  -100.542000
  H    -105.006000    1.819050  -101.597000
  H    -104.919000    2.591320  -99.946300
  C    -106.551000    1.250710  -100.384000
  H    -107.145000    2.070500  -100.784000
  H    -106.785000    1.135320  -99.316800
  C    -106.969000   -0.014615  -101.101000
  H    -107.983000   -0.351550  -100.866000
  H    -106.305000   -0.838114  -100.928000
  H    -106.941000    0.134248  -102.173000
  H    -102.979000    0.512995  -105.871000
  H    -101.986000   -0.596769  -97.767600

 Total Charge           Charge          ....    0
 Multiplicity           Mult            ....    1
 Number of Electrons    NEL             ....  134
 Basis Dimension        Dim             ....  322

ORBITAL ENERGIES
----------------

  NO   OCC          E(Eh)            E(eV)
   0   2.0000     -88.964578     -2420.8492
   1   2.0000     -88.964232     -2420.8398
   2   2.0000     -10.323175      -280.9079
   3   2.0000     -10.318366      -280.7770
   4   2.0000     -10.317282      -280.7475
   5   2.0000     -10.315851      -280.7086
   6   2.0000     -10.309087      -280.5245
   7   2.0000     -10.299071      -280.2520
   8   2.0000     -10.297037      -280.1966
   9   2.0000     -10.292860      -280.0830
  10   2.0000     -10.291513      -280.0463
  11   2.0000     -10.286244      -279.9029
  12   2.0000     -10.286057      -279.8978
  13   2.0000     -10.282843      -279.8104
  14   2.0000     -10.281004      -279.7603
  15   2.0000     -10.268967      -279.4328
  16   2.0000      -8.080215      -219.8738
  17   2.0000      -8.078688      -219.8323
  18   2.0000      -6.038532      -164.3168
  19   2.0000      -6.037240      -164.2817
  20   2.0000      -6.034439      -164.2054
  21   2.0000      -6.033240      -164.1728
  22   2.0000      -6.031197      -164.1172
  23   2.0000      -6.029482      -164.0706
  24   2.0000      -1.012234       -27.5443
  25   2.0000      -0.985550       -26.8182
  26   2.0000      -0.911249       -24.7964
  27   2.0000      -0.903276       -24.5794
  28   2.0000      -0.868214       -23.6253
  29   2.0000      -0.850013       -23.1300
  30   2.0000      -0.845880       -23.0176
  31   2.0000      -0.814961       -22.1762
  32   2.0000      -0.783389       -21.3171
  33   2.0000      -0.773561       -21.0497
  34   2.0000      -0.708577       -19.2814
  35   2.0000      -0.699550       -19.0357
  36   2.0000      -0.692648       -18.8479
  37   2.0000      -0.661279       -17.9943
  38   2.0000      -0.648398       -17.6438
  39   2.0000      -0.614402       -16.7187
  40   2.0000      -0.596474       -16.2309
  41   2.0000      -0.568109       -15.4590
  42   2.0000      -0.559831       -15.2338
  43   2.0000      -0.555665       -15.1204
  44   2.0000      -0.545264       -14.8374
  45   2.0000      -0.526997       -14.3403
  46   2.0000      -0.522314       -14.2129
  47   2.0000      -0.513194       -13.9647
  48   2.0000      -0.503719       -13.7069
  49   2.0000      -0.495705       -13.4888
  50   2.0000      -0.487188       -13.2571
  51   2.0000      -0.479976       -13.0608
  52   2.0000      -0.471433       -12.8284
  53   2.0000      -0.465967       -12.6796
  54   2.0000      -0.455868       -12.4048
  55   2.0000      -0.448797       -12.2124
  56   2.0000      -0.445823       -12.1314
  57   2.0000      -0.442149       -12.0315
  58   2.0000      -0.436066       -11.8660
  59   2.0000      -0.424979       -11.5643
  60   2.0000      -0.416594       -11.3361
  61   2.0000      -0.411232       -11.1902
  62   2.0000      -0.409752       -11.1499
  63   2.0000      -0.333816        -9.0836
  64   2.0000      -0.331534        -9.0215
  65   2.0000      -0.323666        -8.8074
  66   2.0000      -0.309369        -8.4184
  67   0.0000       0.045173         1.2292
  68   0.0000       0.051790         1.4093
  69   0.0000       0.111353         3.0301
  70   0.0000       0.125739         3.4215
  71   0.0000       0.128550         3.4980

MULLIKEN ATOMIC CHARGES
-----------------------
   0 S :    0.108073
   1 C :   -0.120225
   2 C :   -0.058602
   3 C :    0.037066
   4 C :   -0.164619
   5 H :   -0.010285
   6 C :    0.062224
   7 H :    0.018828
   8 H :    0.040033
   9 C :   -0.046450
  10 H :    0.046093
  11 H :    0.027691
  12 C :   -0.085596
  13 H :    0.050973
  14 H :    0.022093
  15 H :    0.033092
  16 S :    0.130899
  17 C :   -0.095103
  18 C :   -0.046766
  19 C :   -0.047912
  20 C :   -0.197674
  21 H :    0.028525
  22 C :    0.106239
  23 H :    0.016600
  24 H :    0.029946
  25 C :   -0.064676
  26 H :    0.030314
  27 H :    0.021020
  28 C :   -0.047176
  29 H :    0.031568
  30 H :    0.026833
  31 H :    0.023816
  32 H :    0.035228
  33 H :    0.057930
Sum of atomic charges:    0.0000000

LOEWDIN ATOMIC CHARGES
----------------------
   0 S :    0.395317
   1 C :   -0.173887
   2 C :   -0.056304
   3 C :   -0.060387
   4 C :   -0.200482
   5 H :    0.022192
   6 C :   -0.030160
   7 H :    0.028830
   8 H :    0.034672
   9 C :   -0.026966
  10 H :    0.029926
  11 H :    0.015268
  12 C :   -0.074221
  13 H :    0.032735
  14 H :    0.018570
  15 H :    0.026979
  16 S :    0.441086
  17 C :   -0.191548
  18 C :   -0.079977
  19 C :   -0.055420
  20 C :   -0.220261
  21 H :    0.035786
  22 C :   -0.023123
  23 H :    0.023479
  24 H :    0.034299
  25 C :   -0.038799
  26 H :    0.025844
  27 H :    0.019652
  28 C :   -0.065720
  29 H :    0.028091
  30 H :    0.018511
  31 H :    0.022107
  32 H :    0.013569
  33 H :    0.030342

  Mayer bond orders larger than 0.100000
B(  0-S ,  1-C ) :   1.1505 B(  0-S ,  4-C ) :   1.1310 B(  1-C ,  2-C ) :   1.5783
B(  1-C , 32-H ) :   0.9819 B(  2-C ,  3-C ) :   1.2291 B(  2-C ,  6-C ) :   1.0248
B(  3-C ,  4-C ) :   1.6119 B(  3-C ,  5-H ) :   0.9901 B(  4-C , 20-C ) :   1.0045
B(  6-C ,  7-H ) :   0.9482 B(  6-C ,  8-H ) :   0.9402 B(  6-C ,  9-C ) :   1.0398
B(  9-C , 10-H ) :   0.9654 B(  9-C , 11-H ) :   0.9601 B(  9-C , 12-C ) :   1.0726
B( 12-C , 13-H ) :   0.9757 B( 12-C , 14-H ) :   0.9759 B( 12-C , 15-H ) :   0.9768
B( 16-S , 17-C ) :   1.1875 B( 16-S , 20-C ) :   1.1551 B( 17-C , 18-C ) :   1.5768
B( 17-C , 33-H ) :   0.9671 B( 18-C , 19-C ) :   1.2729 B( 18-C , 21-H ) :   0.9858
B( 19-C , 20-C ) :   1.5910 B( 19-C , 22-C ) :   1.0382 B( 22-C , 23-H ) :   0.9232
B( 22-C , 24-H ) :   0.9325 B( 22-C , 25-C ) :   1.0841 B( 25-C , 26-H ) :   0.9544
B( 25-C , 27-H ) :   0.9557 B( 25-C , 28-C ) :   1.0832 B( 28-C , 29-H ) :   0.9687
B( 28-C , 30-H ) :   0.9714 B( 28-C , 31-H ) :   0.9711

Dispersion correction           -0.015676874
FINAL SINGLE POINT ENERGY     -1339.878588458920

DIPOLE MOMENT
-------------
                                X             Y             Z
Electronic contribution:     26.15980       3.37612      10.43884
Nuclear contribution   :    -26.71995      -3.44704     -10.50690
                        -----------------------------------------
Total Dipole Moment    :     -0.56015      -0.07092      -0.06806
                        -----------------------------------------
Magnitude (a.u.)       :      0.56871
Magnitude (Debye)      :      1.44554

Rotational constants in cm-1:     0.020950     0.008574     0.007369
Rotational constants in MHz :   628.060481   257.051446   220.911801

                             ****ORCA TERMINATED NORMALLY****
TOTAL RUN TIME: 0 days 0 hours 0 minutes 22 seconds 478 msec
