                         Program Version 4.2.1 -  RELEASE  -
|  1> ! wB97X-D3 SP def2-SVP
|  2> %pal
|  3> nprocs 24
|  4> end
|  5>
|  6> * xyz 0 1
|  7> S 	 -73.9825 	 10.6289 	 -109.389
|  8> C 	 -75.3749 	 11.6309 	 -108.832
|  9> C 	 -76.3901 	 10.7141 	 -108.559
| 10> C 	 -75.993 	 9.35936 	 -108.688
| 11> C 	 -74.764 	 9.0893 	 -109.211
| 12> H 	 -76.6643 	 8.59387 	 -108.444
| 13> C 	 -77.823 	 11.1311 	 -108.241
| 14> H 	 -78.1024 	 11.9681 	 -108.85
| 15> H 	 -77.7867 	 11.5217 	 -107.155
| 16> C 	 -78.9556 	 10.1695 	 -108.562
| 17> H 	 -78.9041 	 9.96592 	 -109.609
| 18> H 	 -78.904 	 9.294 	 -107.91
| 19> C 	 -80.3622 	 10.6962 	 -108.197
| 20> H 	 -81.1354 	 10.0051 	 -108.448
| 21> H 	 -80.402 	 10.9153 	 -107.104
| 22> H 	 -80.5724 	 11.5892 	 -108.722
| 23> S 	 -72.5196 	 7.52122 	 -109.197
| 24> C 	 -72.6375 	 5.84188 	 -109.757
| 25> C 	 -73.8919 	 5.52223 	 -110.171
| 26> C 	 -74.7744 	 6.65666 	 -110.125
| 27> C 	 -74.1449 	 7.79653 	 -109.573
| 28> H 	 -74.1284 	 4.57275 	 -110.575
| 29> C 	 -76.1278 	 6.59379 	 -110.676
| 30> H 	 -76.0178 	 6.35944 	 -111.793
| 31> H 	 -76.6868 	 7.55462 	 -110.713
| 32> C 	 -77.0611 	 5.51225 	 -110.005
| 33> H 	 -77.3852 	 5.82043 	 -109.072
| 34> H 	 -76.4336 	 4.61832 	 -109.813
| 35> C 	 -78.2076 	 5.02254 	 -110.88
| 36> H 	 -78.0175 	 4.36118 	 -111.642
| 37> H 	 -78.9566 	 5.74052 	 -111.272
| 38> H 	 -78.8541 	 4.34806 	 -110.352
| 39> H 	 -75.5838 	 12.6966 	 -109.037
| 40> H 	 -71.9316 	 5.08096 	 -109.544
| 41> *
| 42>
| 43>                          ****END OF INPUT****

CARTESIAN COORDINATES (ANGSTROEM)
---------------------------------
  S    -73.982500   10.628900  -109.389000
  C    -75.374900   11.630900  -108.832000
  C    -76.390100   10.714100  -108.559000
  C    -75.993000    9.359360  -108.688000
  C    -74.764000    9.089300  -109.211000
  H    -76.664300    8.593870  -108.444000
  C    -77.823000   11.131100  -108.241000
  H    -78.102400   11.968100  -108.850000
  H    -77.786700   11.521700  -107.155000
  C    -78.955600   10.169500  -108.562000
  H    -78.904100    9.965920  -109.609000
  H    -78.904000    9.294000  -107.910000
  C    -80.362200   10.696200  -108.197000
  H    -81.135400   10.005100  -108.448000
  H    -80.402000   10.915300  -107.104000
  H    -80.572400   11.589200  -108.722000
  S    -72.519600    7.521220  -109.197000
  C    -72.637500    5.841880  -109.757000
  C    -73.891900    5.522230  -110.171000
  C    -74.774400    6.656660  -110.125000
  C    -74.144900    7.796530  -109.573000
  H    -74.128400    4.572750  -110.575000
  C    -76.127800    6.593790  -110.676000
  H    -76.017800    6.359440  -111.793000
  H    -76.686800    7.554620  -110.713000
  C    -77.061100    5.512250  -110.005000
  H    -77.385200    5.820430  -109.072000
  H    -76.433600    4.618320  -109.813000
  C    -78.207600    5.022540  -110.880000
  H    -78.017500    4.361180  -111.642000
  H    -78.956600    5.740520  -111.272000
  H    -78.854100    4.348060  -110.352000
  H    -75.583800   12.696600  -109.037000
  H    -71.931600    5.080960  -109.544000

 Total Charge           Charge          ....    0
 Multiplicity           Mult            ....    1
 Number of Electrons    NEL             ....  134
 Basis Dimension        Dim             ....  322

ORBITAL ENERGIES
----------------

  NO   OCC          E(Eh)            E(eV)
   0   2.0000     -88.969106     -2420.9724
   1   2.0000     -88.961858     -2420.7752
   2   2.0000     -10.332106      -281.1509
   3   2.0000     -10.330752      -281.1141
   4   2.0000     -10.318467      -280.7798
   5   2.0000     -10.316060      -280.7143
   6   2.0000     -10.304879      -280.4100
   7   2.0000     -10.301930      -280.3298
   8   2.0000     -10.296137      -280.1721
   9   2.0000     -10.296036      -280.1694
  10   2.0000     -10.294205      -280.1196
  11   2.0000     -10.289693      -279.9968
  12   2.0000     -10.287656      -279.9413
  13   2.0000     -10.284126      -279.8453
  14   2.0000     -10.278080      -279.6808
  15   2.0000     -10.272092      -279.5178
  16   2.0000      -8.084541      -219.9915
  17   2.0000      -8.076035      -219.7601
  18   2.0000      -6.042986      -164.4380
  19   2.0000      -6.038958      -164.3284
  20   2.0000      -6.035306      -164.2290
  21   2.0000      -6.034747      -164.2138
  22   2.0000      -6.030458      -164.0971
  23   2.0000      -6.026727      -163.9956
  24   2.0000      -1.010585       -27.4994
  25   2.0000      -0.986370       -26.8405
  26   2.0000      -0.914577       -24.8869
  27   2.0000      -0.909152       -24.7393
  28   2.0000      -0.874574       -23.7984
  29   2.0000      -0.856529       -23.3073
  30   2.0000      -0.842704       -22.9311
  31   2.0000      -0.822375       -22.3780
  32   2.0000      -0.783303       -21.3147
  33   2.0000      -0.773020       -21.0349
  34   2.0000      -0.716757       -19.5040
  35   2.0000      -0.705553       -19.1991
  36   2.0000      -0.691816       -18.8253
  37   2.0000      -0.663646       -18.0587
  38   2.0000      -0.639638       -17.4054
  39   2.0000      -0.623834       -16.9754
  40   2.0000      -0.602411       -16.3924
  41   2.0000      -0.581333       -15.8189
  42   2.0000      -0.569745       -15.5036
  43   2.0000      -0.557866       -15.1803
  44   2.0000      -0.527757       -14.3610
  45   2.0000      -0.527267       -14.3477
  46   2.0000      -0.518690       -14.1143
  47   2.0000      -0.509902       -13.8752
  48   2.0000      -0.509114       -13.8537
  49   2.0000      -0.497963       -13.5503
  50   2.0000      -0.494090       -13.4449
  51   2.0000      -0.486032       -13.2256
  52   2.0000      -0.470985       -12.8162
  53   2.0000      -0.468739       -12.7550
  54   2.0000      -0.460197       -12.5226
  55   2.0000      -0.458667       -12.4810
  56   2.0000      -0.448721       -12.2103
  57   2.0000      -0.439310       -11.9542
  58   2.0000      -0.435331       -11.8459
  59   2.0000      -0.427859       -11.6426
  60   2.0000      -0.415793       -11.3143
  61   2.0000      -0.415491       -11.3061
  62   2.0000      -0.404545       -11.0082
  63   2.0000      -0.356447        -9.6994
  64   2.0000      -0.330716        -8.9993
  65   2.0000      -0.325652        -8.8614
  66   2.0000      -0.289311        -7.8725
  67   0.0000       0.025478         0.6933
  68   0.0000       0.071309         1.9404
  69   0.0000       0.107511         2.9255
  70   0.0000       0.117546         3.1986
  71   0.0000       0.130553         3.5525

MULLIKEN ATOMIC CHARGES
-----------------------
   0 S :    0.080731
   1 C :   -0.123630
   2 C :   -0.110026
   3 C :    0.034663
   4 C :   -0.106318
   5 H :   -0.023485
   6 C :    0.030568
   7 H :    0.016648
   8 H :    0.055676
   9 C :   -0.089893
  10 H :    0.035884
  11 H :    0.036850
  12 C :   -0.032814
  13 H :    0.033387
  14 H :    0.034700
  15 H :    0.015437
  16 S :    0.117119
  17 C :   -0.073234
  18 C :   -0.019624
  19 C :   -0.027459
  20 C :   -0.127250
  21 H :    0.013750
  22 C :    0.003366
  23 H :    0.045907
  24 H :    0.036575
  25 C :   -0.035597
  26 H :    0.015720
  27 H :    0.024437
  28 C :   -0.024639
  29 H :    0.007265
  30 H :    0.030429
  31 H :    0.005687
  32 H :    0.069578
  33 H :    0.049592
Sum of atomic charges:    0.0000000

LOEWDIN ATOMIC CHARGES
----------------------
   0 S :    0.387899
   1 C :   -0.199231
   2 C :   -0.062247
   3 C :   -0.074674
   4 C :   -0.185740
   5 H :    0.018167
   6 C :   -0.040414
   7 H :    0.026735
   8 H :    0.044166
   9 C :   -0.041034
  10 H :    0.024054
  11 H :    0.023625
  12 C :   -0.057056
  13 H :    0.024483
  14 H :    0.030842
  15 H :    0.014876
  16 S :    0.426942
  17 C :   -0.172762
  18 C :   -0.057082
  19 C :   -0.058246
  20 C :   -0.214187
  21 H :    0.028658
  22 C :   -0.043986
  23 H :    0.042928
  24 H :    0.032745
  25 C :   -0.026986
  26 H :    0.014159
  27 H :    0.028547
  28 C :   -0.073811
  29 H :    0.015597
  30 H :    0.028871
  31 H :    0.027965
  32 H :    0.041420
  33 H :    0.024778

  Mayer bond orders larger than 0.100000
B(  0-S ,  1-C ) :   1.1220 B(  0-S ,  4-C ) :   1.1612 B(  1-C ,  2-C ) :   1.5977
B(  1-C ,  4-C ) :   0.1070 B(  1-C , 32-H ) :   0.9650 B(  2-C ,  3-C ) :   1.2768
B(  2-C ,  6-C ) :   1.0061 B(  3-C ,  4-C ) :   1.5491 B(  3-C ,  5-H ) :   1.0012
B(  4-C , 20-C ) :   1.0201 B(  6-C ,  7-H ) :   0.9474 B(  6-C ,  8-H ) :   0.9353
B(  6-C ,  9-C ) :   1.0772 B(  9-C , 10-H ) :   0.9563 B(  9-C , 11-H ) :   0.9464
B(  9-C , 12-C ) :   1.0902 B( 12-C , 13-H ) :   0.9740 B( 12-C , 14-H ) :   0.9752
B( 12-C , 15-H ) :   0.9739 B( 16-S , 17-C ) :   1.1461 B( 16-S , 20-C ) :   1.1591
B( 17-C , 18-C ) :   1.6242 B( 17-C , 33-H ) :   0.9668 B( 18-C , 19-C ) :   1.2404
B( 18-C , 21-H ) :   0.9908 B( 19-C , 20-C ) :   1.5625 B( 19-C , 22-C ) :   1.0635
B( 22-C , 23-H ) :   0.9377 B( 22-C , 24-H ) :   0.9339 B( 22-C , 25-C ) :   1.0374
B( 25-C , 26-H ) :   0.9581 B( 25-C , 27-H ) :   0.9588 B( 25-C , 28-C ) :   1.0821
B( 28-C , 29-H ) :   0.9712 B( 28-C , 30-H ) :   0.9737 B( 28-C , 31-H ) :   0.9631

Dispersion correction           -0.013864432
FINAL SINGLE POINT ENERGY     -1339.859485549585

DIPOLE MOMENT
-------------
                                X             Y             Z
Electronic contribution:     33.88792       6.39540       1.19548
Nuclear contribution   :    -34.75878      -6.83510      -1.31078
                        -----------------------------------------
Total Dipole Moment    :     -0.87086      -0.43970      -0.11530
                        -----------------------------------------
Magnitude (a.u.)       :      0.98236
Magnitude (Debye)      :      2.49695

Rotational constants in cm-1:     0.015926     0.009862     0.006345
Rotational constants in MHz :   477.457511   295.668961   190.226561

                             ****ORCA TERMINATED NORMALLY****
TOTAL RUN TIME: 0 days 0 hours 0 minutes 21 seconds 708 msec
