                         Program Version 4.2.1 -  RELEASE  -
|  1> ! wB97X-D3 SP def2-SVP
|  2> %pal
|  3> nprocs 24
|  4> end
|  5>
|  6> * xyz 0 1
|  7> S 	 -63.0119 	 -56.3261 	 -76.6084
|  8> C 	 -64.668 	 -56.1441 	 -77.151
|  9> C 	 -65.1021 	 -57.1857 	 -77.9331
| 10> C 	 -64.0326 	 -58.0978 	 -78.2131
| 11> C 	 -62.8275 	 -57.7138 	 -77.6521
| 12> H 	 -64.1267 	 -59.05 	 -78.7205
| 13> C 	 -66.4667 	 -57.1806 	 -78.4979
| 14> H 	 -66.8066 	 -56.2076 	 -78.4184
| 15> H 	 -67.2063 	 -57.7437 	 -77.8542
| 16> C 	 -66.5638 	 -57.6469 	 -79.9714
| 17> H 	 -66.1786 	 -58.6202 	 -80.0423
| 18> H 	 -67.5337 	 -57.7554 	 -80.3756
| 19> C 	 -65.8348 	 -56.8365 	 -81.1058
| 20> H 	 -66.4166 	 -55.9513 	 -81.0908
| 21> H 	 -64.7545 	 -56.5936 	 -80.9207
| 22> H 	 -65.8027 	 -57.3293 	 -82.0447
| 23> S 	 -60.6042 	 -58.4503 	 -76.1753
| 24> C 	 -59.322 	 -59.3536 	 -76.9724
| 25> C 	 -59.6788 	 -59.6286 	 -78.2708
| 26> C 	 -60.9033 	 -59.0963 	 -78.7459
| 27> C 	 -61.6178 	 -58.4864 	 -77.659
| 28> H 	 -59.0209 	 -60.1707 	 -78.8234
| 29> C 	 -61.3853 	 -59.2027 	 -80.18
| 30> H 	 -62.5121 	 -59.3069 	 -80.2433
| 31> H 	 -61.0922 	 -60.1569 	 -80.5998
| 32> C 	 -60.9043 	 -58.0596 	 -81.1306
| 33> H 	 -60.963 	 -58.565 	 -82.1104
| 34> H 	 -59.8712 	 -57.8499 	 -80.8927
| 35> C 	 -61.7642 	 -56.818 	 -81.0846
| 36> H 	 -62.7928 	 -56.9483 	 -81.2896
| 37> H 	 -61.4992 	 -56.1277 	 -81.9132
| 38> H 	 -61.6431 	 -56.1334 	 -80.2094
| 39> H 	 -65.2899 	 -55.2736 	 -76.8657
| 40> H 	 -58.4959 	 -59.7557 	 -76.521
| 41> *
| 42>
| 43>                          ****END OF INPUT****

CARTESIAN COORDINATES (ANGSTROEM)
---------------------------------
  S    -63.011900  -56.326100  -76.608400
  C    -64.668000  -56.144100  -77.151000
  C    -65.102100  -57.185700  -77.933100
  C    -64.032600  -58.097800  -78.213100
  C    -62.827500  -57.713800  -77.652100
  H    -64.126700  -59.050000  -78.720500
  C    -66.466700  -57.180600  -78.497900
  H    -66.806600  -56.207600  -78.418400
  H    -67.206300  -57.743700  -77.854200
  C    -66.563800  -57.646900  -79.971400
  H    -66.178600  -58.620200  -80.042300
  H    -67.533700  -57.755400  -80.375600
  C    -65.834800  -56.836500  -81.105800
  H    -66.416600  -55.951300  -81.090800
  H    -64.754500  -56.593600  -80.920700
  H    -65.802700  -57.329300  -82.044700
  S    -60.604200  -58.450300  -76.175300
  C    -59.322000  -59.353600  -76.972400
  C    -59.678800  -59.628600  -78.270800
  C    -60.903300  -59.096300  -78.745900
  C    -61.617800  -58.486400  -77.659000
  H    -59.020900  -60.170700  -78.823400
  C    -61.385300  -59.202700  -80.180000
  H    -62.512100  -59.306900  -80.243300
  H    -61.092200  -60.156900  -80.599800
  C    -60.904300  -58.059600  -81.130600
  H    -60.963000  -58.565000  -82.110400
  H    -59.871200  -57.849900  -80.892700
  C    -61.764200  -56.818000  -81.084600
  H    -62.792800  -56.948300  -81.289600
  H    -61.499200  -56.127700  -81.913200
  H    -61.643100  -56.133400  -80.209400
  H    -65.289900  -55.273600  -76.865700
  H    -58.495900  -59.755700  -76.521000

 Total Charge           Charge          ....    0
 Multiplicity           Mult            ....    1
 Number of Electrons    NEL             ....  134
 Basis Dimension        Dim             ....  322

ORBITAL ENERGIES
----------------

  NO   OCC          E(Eh)            E(eV)
   0   2.0000     -88.966456     -2420.9004
   1   2.0000     -88.966238     -2420.8944
   2   2.0000     -10.331911      -281.1456
   3   2.0000     -10.327153      -281.0161
   4   2.0000     -10.312315      -280.6124
   5   2.0000     -10.310610      -280.5660
   6   2.0000     -10.307639      -280.4851
   7   2.0000     -10.298700      -280.2419
   8   2.0000     -10.296187      -280.1735
   9   2.0000     -10.293394      -280.0975
  10   2.0000     -10.292064      -280.0613
  11   2.0000     -10.288765      -279.9715
  12   2.0000     -10.285150      -279.8732
  13   2.0000     -10.281663      -279.7783
  14   2.0000     -10.274702      -279.5888
  15   2.0000     -10.272619      -279.5322
  16   2.0000      -8.081248      -219.9019
  17   2.0000      -8.079947      -219.8665
  18   2.0000      -6.039710      -164.3489
  19   2.0000      -6.038530      -164.3168
  20   2.0000      -6.035884      -164.2448
  21   2.0000      -6.034559      -164.2087
  22   2.0000      -6.031916      -164.1368
  23   2.0000      -6.030748      -164.1050
  24   2.0000      -1.005109       -27.3504
  25   2.0000      -0.979645       -26.6575
  26   2.0000      -0.913930       -24.8693
  27   2.0000      -0.904995       -24.6262
  28   2.0000      -0.870309       -23.6823
  29   2.0000      -0.850536       -23.1443
  30   2.0000      -0.843339       -22.9484
  31   2.0000      -0.818259       -22.2660
  32   2.0000      -0.785597       -21.3772
  33   2.0000      -0.773518       -21.0485
  34   2.0000      -0.716605       -19.4998
  35   2.0000      -0.699368       -19.0308
  36   2.0000      -0.693914       -18.8824
  37   2.0000      -0.659720       -17.9519
  38   2.0000      -0.640528       -17.4296
  39   2.0000      -0.625900       -17.0316
  40   2.0000      -0.601307       -16.3624
  41   2.0000      -0.565282       -15.3821
  42   2.0000      -0.554546       -15.0900
  43   2.0000      -0.548711       -14.9312
  44   2.0000      -0.545867       -14.8538
  45   2.0000      -0.536973       -14.6118
  46   2.0000      -0.517909       -14.0930
  47   2.0000      -0.510160       -13.8822
  48   2.0000      -0.502323       -13.6689
  49   2.0000      -0.497528       -13.5384
  50   2.0000      -0.488618       -13.2960
  51   2.0000      -0.481876       -13.1125
  52   2.0000      -0.478725       -13.0268
  53   2.0000      -0.463015       -12.5993
  54   2.0000      -0.454337       -12.3631
  55   2.0000      -0.448812       -12.2128
  56   2.0000      -0.445569       -12.1246
  57   2.0000      -0.438983       -11.9453
  58   2.0000      -0.431225       -11.7342
  59   2.0000      -0.423188       -11.5155
  60   2.0000      -0.420560       -11.4440
  61   2.0000      -0.412843       -11.2340
  62   2.0000      -0.408964       -11.1285
  63   2.0000      -0.354401        -9.6437
  64   2.0000      -0.332911        -9.0590
  65   2.0000      -0.329627        -8.9696
  66   2.0000      -0.279722        -7.6116
  67   0.0000       0.020690         0.5630
  68   0.0000       0.073103         1.9892
  69   0.0000       0.103551         2.8178
  70   0.0000       0.118754         3.2315
  71   0.0000       0.133381         3.6295

MULLIKEN ATOMIC CHARGES
-----------------------
   0 S :    0.107986
   1 C :   -0.147555
   2 C :   -0.072300
   3 C :   -0.002352
   4 C :   -0.119695
   5 H :    0.023522
   6 C :    0.125972
   7 H :   -0.009423
   8 H :    0.048982
   9 C :   -0.073003
  10 H :    0.008048
  11 H :    0.017029
  12 C :   -0.060244
  13 H :    0.024772
  14 H :    0.046126
  15 H :    0.031173
  16 S :    0.087592
  17 C :   -0.052518
  18 C :    0.005254
  19 C :   -0.023084
  20 C :   -0.157198
  21 H :   -0.026489
  22 C :    0.034419
  23 H :    0.019347
  24 H :    0.016451
  25 C :   -0.037363
  26 H :    0.029665
  27 H :    0.030784
  28 C :   -0.031886
  29 H :    0.001375
  30 H :    0.019843
  31 H :    0.051120
  32 H :    0.058471
  33 H :    0.025177
Sum of atomic charges:    0.0000000

LOEWDIN ATOMIC CHARGES
----------------------
   0 S :    0.401608
   1 C :   -0.198604
   2 C :   -0.062252
   3 C :   -0.061022
   4 C :   -0.190120
   5 H :    0.030519
   6 C :   -0.026305
   7 H :    0.019269
   8 H :    0.045287
   9 C :   -0.036039
  10 H :    0.011884
  11 H :    0.021400
  12 C :   -0.062667
  13 H :    0.020486
  14 H :    0.027822
  15 H :    0.022612
  16 S :    0.380678
  17 C :   -0.168955
  18 C :   -0.057479
  19 C :   -0.053211
  20 C :   -0.178107
  21 H :    0.013161
  22 C :   -0.037268
  23 H :    0.033235
  24 H :    0.027667
  25 C :   -0.032433
  26 H :    0.029141
  27 H :    0.025444
  28 C :   -0.073244
  29 H :    0.014426
  30 H :    0.030599
  31 H :    0.036322
  32 H :    0.032600
  33 H :    0.013545

  Mayer bond orders larger than 0.100000
B(  0-S ,  1-C ) :   1.1271 B(  0-S ,  4-C ) :   1.1430 B(  1-C ,  2-C ) :   1.6155
B(  1-C , 32-H ) :   0.9623 B(  2-C ,  3-C ) :   1.2309 B(  2-C ,  6-C ) :   1.0311
B(  3-C ,  4-C ) :   1.5605 B(  3-C ,  5-H ) :   0.9919 B(  4-C , 20-C ) :   1.0934
B(  6-C ,  7-H ) :   0.9369 B(  6-C ,  8-H ) :   0.9233 B(  6-C ,  9-C ) :   1.0659
B(  9-C , 10-H ) :   0.9553 B(  9-C , 11-H ) :   0.9575 B(  9-C , 12-C ) :   1.0658
B( 12-C , 13-H ) :   0.9744 B( 12-C , 14-H ) :   0.9702 B( 12-C , 15-H ) :   0.9768
B( 16-S , 17-C ) :   1.1392 B( 16-S , 20-C ) :   1.1391 B( 17-C , 18-C ) :   1.6050
B( 17-C , 20-C ) :   0.1049 B( 17-C , 33-H ) :   0.9768 B( 18-C , 19-C ) :   1.2571
B( 18-C , 21-H ) :   1.0011 B( 19-C , 20-C ) :   1.5410 B( 19-C , 22-C ) :   1.0400
B( 22-C , 23-H ) :   0.9378 B( 22-C , 24-H ) :   0.9356 B( 22-C , 25-C ) :   1.0609
B( 25-C , 26-H ) :   0.9525 B( 25-C , 27-H ) :   0.9562 B( 25-C , 28-C ) :   1.0944
B( 28-C , 29-H ) :   0.9659 B( 28-C , 30-H ) :   0.9610 B( 28-C , 31-H ) :   0.9730

Dispersion correction           -0.016241059
FINAL SINGLE POINT ENERGY     -1339.867350545428

DIPOLE MOMENT
-------------
                                X             Y             Z
Electronic contribution:     12.65103      -0.97783      26.66998
Nuclear contribution   :    -12.92374       0.76759     -27.28752
                        -----------------------------------------
Total Dipole Moment    :     -0.27271      -0.21025      -0.61754
                        -----------------------------------------
Magnitude (a.u.)       :      0.70706
Magnitude (Debye)      :      1.79720

Rotational constants in cm-1:     0.019926     0.010292     0.007731
Rotational constants in MHz :   597.373730   308.543044   231.778829

                             ****ORCA TERMINATED NORMALLY****
TOTAL RUN TIME: 0 days 0 hours 0 minutes 22 seconds 371 msec
