                         Program Version 4.2.1 -  RELEASE  -
|  1> ! wB97X-D3 SP def2-SVP
|  2> %pal
|  3> nprocs 24
|  4> end
|  5>
|  6> * xyz 0 1
|  7> S 	 -122.654 	 23.643 	 -17.3799
|  8> C 	 -121.061 	 23.9903 	 -18.0842
|  9> C 	 -120.075 	 23.4564 	 -17.2503
| 10> C 	 -120.586 	 22.7572 	 -16.1368
| 11> C 	 -121.968 	 22.8378 	 -16.034
| 12> H 	 -119.956 	 22.296 	 -15.3579
| 13> C 	 -118.55 	 23.7903 	 -17.447
| 14> H 	 -118.039 	 23.9051 	 -16.5119
| 15> H 	 -118.564 	 24.8016 	 -17.7099
| 16> C 	 -117.697 	 22.9149 	 -18.3649
| 17> H 	 -116.669 	 23.2699 	 -18.3046
| 18> H 	 -117.85 	 21.942 	 -18.0186
| 19> C 	 -118.071 	 23.0507 	 -19.8497
| 20> H 	 -119.148 	 23.1464 	 -19.9215
| 21> H 	 -117.731 	 24.0237 	 -20.2514
| 22> H 	 -117.758 	 22.2797 	 -20.5017
| 23> S 	 -124.288 	 21.8553 	 -15.1604
| 24> C 	 -124.561 	 21.608 	 -13.4484
| 25> C 	 -123.604 	 22.2382 	 -12.7091
| 26> C 	 -122.537 	 22.7607 	 -13.4932
| 27> C 	 -122.733 	 22.5234 	 -14.865
| 28> H 	 -123.686 	 22.1554 	 -11.6353
| 29> C 	 -121.326 	 23.512 	 -12.9648
| 30> H 	 -120.746 	 23.9104 	 -13.797
| 31> H 	 -120.746 	 22.7562 	 -12.3927
| 32> C 	 -121.574 	 24.7519 	 -12.1149
| 33> H 	 -120.697 	 24.9178 	 -11.5019
| 34> H 	 -122.433 	 24.5892 	 -11.4806
| 35> C 	 -121.775 	 25.9675 	 -13.055
| 36> H 	 -122.681 	 25.9632 	 -13.6549
| 37> H 	 -120.973 	 26.125 	 -13.685
| 38> H 	 -121.972 	 26.8107 	 -12.3503
| 39> H 	 -120.918 	 24.6022 	 -18.9421
| 40> H 	 -125.305 	 20.9099 	 -12.9867
| 41> *
| 42>
| 43>                          ****END OF INPUT****

CARTESIAN COORDINATES (ANGSTROEM)
---------------------------------
  S    -122.654000   23.643000  -17.379900
  C    -121.061000   23.990300  -18.084200
  C    -120.075000   23.456400  -17.250300
  C    -120.586000   22.757200  -16.136800
  C    -121.968000   22.837800  -16.034000
  H    -119.956000   22.296000  -15.357900
  C    -118.550000   23.790300  -17.447000
  H    -118.039000   23.905100  -16.511900
  H    -118.564000   24.801600  -17.709900
  C    -117.697000   22.914900  -18.364900
  H    -116.669000   23.269900  -18.304600
  H    -117.850000   21.942000  -18.018600
  C    -118.071000   23.050700  -19.849700
  H    -119.148000   23.146400  -19.921500
  H    -117.731000   24.023700  -20.251400
  H    -117.758000   22.279700  -20.501700
  S    -124.288000   21.855300  -15.160400
  C    -124.561000   21.608000  -13.448400
  C    -123.604000   22.238200  -12.709100
  C    -122.537000   22.760700  -13.493200
  C    -122.733000   22.523400  -14.865000
  H    -123.686000   22.155400  -11.635300
  C    -121.326000   23.512000  -12.964800
  H    -120.746000   23.910400  -13.797000
  H    -120.746000   22.756200  -12.392700
  C    -121.574000   24.751900  -12.114900
  H    -120.697000   24.917800  -11.501900
  H    -122.433000   24.589200  -11.480600
  C    -121.775000   25.967500  -13.055000
  H    -122.681000   25.963200  -13.654900
  H    -120.973000   26.125000  -13.685000
  H    -121.972000   26.810700  -12.350300
  H    -120.918000   24.602200  -18.942100
  H    -125.305000   20.909900  -12.986700

 Total Charge           Charge          ....    0
 Multiplicity           Mult            ....    1
 Number of Electrons    NEL             ....  134
 Basis Dimension        Dim             ....  322

ORBITAL ENERGIES
----------------

  NO   OCC          E(Eh)            E(eV)
   0   2.0000     -88.968450     -2420.9546
   1   2.0000     -88.962941     -2420.8047
   2   2.0000     -10.326895      -281.0091
   3   2.0000     -10.323501      -280.9167
   4   2.0000     -10.318600      -280.7834
   5   2.0000     -10.316320      -280.7213
   6   2.0000     -10.306049      -280.4419
   7   2.0000     -10.305989      -280.4402
   8   2.0000     -10.293820      -280.1091
   9   2.0000     -10.293802      -280.1086
  10   2.0000     -10.287957      -279.9495
  11   2.0000     -10.287021      -279.9241
  12   2.0000     -10.283599      -279.8310
  13   2.0000     -10.282197      -279.7928
  14   2.0000     -10.270977      -279.4875
  15   2.0000     -10.270688      -279.4796
  16   2.0000      -8.083414      -219.9609
  17   2.0000      -8.078677      -219.8320
  18   2.0000      -6.041873      -164.4077
  19   2.0000      -6.037818      -164.2974
  20   2.0000      -6.037107      -164.2780
  21   2.0000      -6.034278      -164.2011
  22   2.0000      -6.033082      -164.1685
  23   2.0000      -6.029425      -164.0690
  24   2.0000      -1.013810       -27.5872
  25   2.0000      -0.986592       -26.8465
  26   2.0000      -0.912154       -24.8210
  27   2.0000      -0.910093       -24.7649
  28   2.0000      -0.873630       -23.7727
  29   2.0000      -0.851229       -23.1631
  30   2.0000      -0.843714       -22.9586
  31   2.0000      -0.813799       -22.1446
  32   2.0000      -0.786384       -21.3986
  33   2.0000      -0.772734       -21.0272
  34   2.0000      -0.712125       -19.3779
  35   2.0000      -0.699538       -19.0354
  36   2.0000      -0.697121       -18.9696
  37   2.0000      -0.656810       -17.8727
  38   2.0000      -0.640135       -17.4190
  39   2.0000      -0.622831       -16.9481
  40   2.0000      -0.598695       -16.2913
  41   2.0000      -0.574443       -15.6314
  42   2.0000      -0.554365       -15.0850
  43   2.0000      -0.548818       -14.9341
  44   2.0000      -0.545723       -14.8499
  45   2.0000      -0.539699       -14.6859
  46   2.0000      -0.523923       -14.2567
  47   2.0000      -0.513757       -13.9800
  48   2.0000      -0.504407       -13.7256
  49   2.0000      -0.499171       -13.5831
  50   2.0000      -0.484762       -13.1910
  51   2.0000      -0.480722       -13.0811
  52   2.0000      -0.476373       -12.9628
  53   2.0000      -0.464665       -12.6442
  54   2.0000      -0.457131       -12.4392
  55   2.0000      -0.448077       -12.1928
  56   2.0000      -0.441591       -12.0163
  57   2.0000      -0.439081       -11.9480
  58   2.0000      -0.429857       -11.6970
  59   2.0000      -0.425267       -11.5721
  60   2.0000      -0.422273       -11.4906
  61   2.0000      -0.414798       -11.2872
  62   2.0000      -0.410767       -11.1775
  63   2.0000      -0.353989        -9.6325
  64   2.0000      -0.335948        -9.1416
  65   2.0000      -0.329191        -8.9577
  66   2.0000      -0.284908        -7.7527
  67   0.0000       0.025968         0.7066
  68   0.0000       0.068811         1.8724
  69   0.0000       0.101207         2.7540
  70   0.0000       0.121099         3.2953
  71   0.0000       0.138096         3.7578

MULLIKEN ATOMIC CHARGES
-----------------------
   0 S :    0.113593
   1 C :   -0.118626
   2 C :   -0.102097
   3 C :    0.008634
   4 C :   -0.121454
   5 H :    0.029059
   6 C :    0.059649
   7 H :    0.008918
   8 H :    0.002277
   9 C :   -0.004524
  10 H :    0.033582
  11 H :    0.021189
  12 C :   -0.049542
  13 H :    0.013059
  14 H :    0.018372
  15 H :    0.034098
  16 S :    0.096897
  17 C :   -0.105438
  18 C :   -0.042694
  19 C :   -0.023515
  20 C :   -0.164009
  21 H :    0.019941
  22 C :    0.040128
  23 H :    0.022660
  24 H :    0.037376
  25 C :   -0.048722
  26 H :    0.028450
  27 H :    0.023813
  28 C :   -0.049345
  29 H :    0.038363
  30 H :    0.025761
  31 H :    0.031699
  32 H :    0.047499
  33 H :    0.074950
Sum of atomic charges:    0.0000000

LOEWDIN ATOMIC CHARGES
----------------------
   0 S :    0.415971
   1 C :   -0.192525
   2 C :   -0.056828
   3 C :   -0.073724
   4 C :   -0.205751
   5 H :    0.037809
   6 C :   -0.027974
   7 H :    0.028139
   8 H :    0.021374
   9 C :   -0.028269
  10 H :    0.028294
  11 H :    0.018201
  12 C :   -0.066215
  13 H :    0.020812
  14 H :    0.025293
  15 H :    0.020683
  16 S :    0.411518
  17 C :   -0.189887
  18 C :   -0.074522
  19 C :   -0.053940
  20 C :   -0.205886
  21 H :    0.032847
  22 C :   -0.037540
  23 H :    0.029599
  24 H :    0.032393
  25 C :   -0.033675
  26 H :    0.025505
  27 H :    0.019946
  28 C :   -0.059659
  29 H :    0.028561
  30 H :    0.013244
  31 H :    0.031289
  32 H :    0.022272
  33 H :    0.042645

  Mayer bond orders larger than 0.100000
B(  0-S ,  1-C ) :   1.1333 B(  0-S ,  4-C ) :   1.1758 B(  1-C ,  2-C ) :   1.5850
B(  1-C ,  4-C ) :   0.1031 B(  1-C , 32-H ) :   0.9742 B(  2-C ,  3-C ) :   1.2753
B(  2-C ,  6-C ) :   0.9952 B(  3-C ,  4-C ) :   1.5258 B(  3-C ,  5-H ) :   0.9964
B(  4-C , 20-C ) :   1.0525 B(  6-C ,  7-H ) :   0.9429 B(  6-C ,  8-H ) :   0.9431
B(  6-C ,  9-C ) :   1.0711 B(  9-C , 10-H ) :   0.9554 B(  9-C , 11-H ) :   0.9559
B(  9-C , 12-C ) :   1.0770 B( 12-C , 13-H ) :   0.9751 B( 12-C , 14-H ) :   0.9748
B( 12-C , 15-H ) :   0.9759 B( 16-S , 17-C ) :   1.1500 B( 16-S , 20-C ) :   1.1480
B( 17-C , 18-C ) :   1.6223 B( 17-C , 20-C ) :   0.1012 B( 17-C , 33-H ) :   0.9604
B( 18-C , 19-C ) :   1.2308 B( 18-C , 21-H ) :   0.9907 B( 19-C , 20-C ) :   1.5632
B( 19-C , 22-C ) :   1.0430 B( 22-C , 23-H ) :   0.9349 B( 22-C , 24-H ) :   0.9290
B( 22-C , 25-C ) :   1.0739 B( 25-C , 26-H ) :   0.9511 B( 25-C , 27-H ) :   0.9579
B( 25-C , 28-C ) :   1.0810 B( 28-C , 29-H ) :   0.9783 B( 28-C , 30-H ) :   0.9734
B( 28-C , 31-H ) :   0.9732

Dispersion correction           -0.014657362
FINAL SINGLE POINT ENERGY     -1339.871323952977

DIPOLE MOMENT
-------------
                                X             Y             Z
Electronic contribution:    -22.52971     -10.06979      -1.96008
Nuclear contribution   :     23.05729      10.27619       2.40514
                        -----------------------------------------
Total Dipole Moment    :      0.52758       0.20640       0.44506
                        -----------------------------------------
Magnitude (a.u.)       :      0.72043
Magnitude (Debye)      :      1.83118

Rotational constants in cm-1:     0.021792     0.008204     0.006885
Rotational constants in MHz :   653.302025   245.938220   206.402188

                             ****ORCA TERMINATED NORMALLY****
TOTAL RUN TIME: 0 days 0 hours 0 minutes 22 seconds 168 msec
