                         Program Version 4.2.1 -  RELEASE  -
|  1> ! wB97X-D3 SP def2-SVP
|  2> %pal
|  3> nprocs 24
|  4> end
|  5>
|  6> * xyz 0 1
|  7> S 	 -85.3226 	 -47.1407 	 -84.644
|  8> C 	 -86.7399 	 -46.6532 	 -83.5981
|  9> C 	 -86.5122 	 -47.0603 	 -82.2895
| 10> C 	 -85.2041 	 -47.5951 	 -82.0738
| 11> C 	 -84.4606 	 -47.7596 	 -83.2451
| 12> H 	 -84.7234 	 -47.8378 	 -81.2191
| 13> C 	 -87.5233 	 -46.8288 	 -81.2013
| 14> H 	 -87.4175 	 -47.6737 	 -80.5325
| 15> H 	 -88.4706 	 -46.8569 	 -81.6569
| 16> C 	 -87.2387 	 -45.491 	 -80.4556
| 17> H 	 -86.4448 	 -45.6067 	 -79.749
| 18> H 	 -86.8553 	 -44.7037 	 -81.1447
| 19> C 	 -88.4663 	 -44.8774 	 -79.6913
| 20> H 	 -88.0848 	 -44.2196 	 -78.8673
| 21> H 	 -89.0405 	 -44.2991 	 -80.3223
| 22> H 	 -89.0867 	 -45.5858 	 -79.1207
| 23> S 	 -81.9505 	 -47.1811 	 -84.0789
| 24> C 	 -80.6414 	 -48.2892 	 -83.9544
| 25> C 	 -81.0276 	 -49.4302 	 -83.2351
| 26> C 	 -82.4248 	 -49.429 	 -82.9266
| 27> C 	 -83.1131 	 -48.3228 	 -83.4462
| 28> H 	 -80.1576 	 -50.0418 	 -82.9697
| 29> C 	 -83.0685 	 -50.5026 	 -82.1053
| 30> H 	 -84.1221 	 -50.2185 	 -81.9645
| 31> H 	 -82.4701 	 -50.5761 	 -81.1861
| 32> C 	 -83.0388 	 -51.7979 	 -82.808
| 33> H 	 -82.0848 	 -52.2164 	 -82.803
| 34> H 	 -83.3989 	 -51.8025 	 -83.8505
| 35> C 	 -83.8378 	 -52.9196 	 -82.1474
| 36> H 	 -83.765 	 -52.9773 	 -81.0833
| 37> H 	 -83.4962 	 -53.8973 	 -82.4942
| 38> H 	 -84.988 	 -52.9917 	 -82.3021
| 39> H 	 -87.5803 	 -46.0907 	 -84.1136
| 40> H 	 -79.6912 	 -48.2273 	 -84.481
| 41> *
| 42>
| 43>                          ****END OF INPUT****

CARTESIAN COORDINATES (ANGSTROEM)
---------------------------------
  S    -85.322600  -47.140700  -84.644000
  C    -86.739900  -46.653200  -83.598100
  C    -86.512200  -47.060300  -82.289500
  C    -85.204100  -47.595100  -82.073800
  C    -84.460600  -47.759600  -83.245100
  H    -84.723400  -47.837800  -81.219100
  C    -87.523300  -46.828800  -81.201300
  H    -87.417500  -47.673700  -80.532500
  H    -88.470600  -46.856900  -81.656900
  C    -87.238700  -45.491000  -80.455600
  H    -86.444800  -45.606700  -79.749000
  H    -86.855300  -44.703700  -81.144700
  C    -88.466300  -44.877400  -79.691300
  H    -88.084800  -44.219600  -78.867300
  H    -89.040500  -44.299100  -80.322300
  H    -89.086700  -45.585800  -79.120700
  S    -81.950500  -47.181100  -84.078900
  C    -80.641400  -48.289200  -83.954400
  C    -81.027600  -49.430200  -83.235100
  C    -82.424800  -49.429000  -82.926600
  C    -83.113100  -48.322800  -83.446200
  H    -80.157600  -50.041800  -82.969700
  C    -83.068500  -50.502600  -82.105300
  H    -84.122100  -50.218500  -81.964500
  H    -82.470100  -50.576100  -81.186100
  C    -83.038800  -51.797900  -82.808000
  H    -82.084800  -52.216400  -82.803000
  H    -83.398900  -51.802500  -83.850500
  C    -83.837800  -52.919600  -82.147400
  H    -83.765000  -52.977300  -81.083300
  H    -83.496200  -53.897300  -82.494200
  H    -84.988000  -52.991700  -82.302100
  H    -87.580300  -46.090700  -84.113600
  H    -79.691200  -48.227300  -84.481000

 Total Charge           Charge          ....    0
 Multiplicity           Mult            ....    1
 Number of Electrons    NEL             ....  134
 Basis Dimension        Dim             ....  322

ORBITAL ENERGIES
----------------

  NO   OCC          E(Eh)            E(eV)
   0   2.0000     -88.962202     -2420.7846
   1   2.0000     -88.961624     -2420.7689
   2   2.0000     -10.333236      -281.1816
   3   2.0000     -10.326635      -281.0020
   4   2.0000     -10.324966      -280.9566
   5   2.0000     -10.316518      -280.7267
   6   2.0000     -10.307358      -280.4775
   7   2.0000     -10.306290      -280.4484
   8   2.0000     -10.296950      -280.1943
   9   2.0000     -10.290872      -280.0289
  10   2.0000     -10.290316      -280.0137
  11   2.0000     -10.289283      -279.9856
  12   2.0000     -10.287847      -279.9465
  13   2.0000     -10.277939      -279.6769
  14   2.0000     -10.276537      -279.6388
  15   2.0000     -10.276372      -279.6343
  16   2.0000      -8.077558      -219.8015
  17   2.0000      -8.075498      -219.7455
  18   2.0000      -6.036017      -164.2484
  19   2.0000      -6.034011      -164.1938
  20   2.0000      -6.031808      -164.1338
  21   2.0000      -6.030078      -164.0868
  22   2.0000      -6.028490      -164.0436
  23   2.0000      -6.026350      -163.9853
  24   2.0000      -1.004084       -27.3225
  25   2.0000      -0.978947       -26.6385
  26   2.0000      -0.919469       -25.0200
  27   2.0000      -0.908522       -24.7221
  28   2.0000      -0.863930       -23.5087
  29   2.0000      -0.850831       -23.1523
  30   2.0000      -0.841700       -22.9038
  31   2.0000      -0.816115       -22.2076
  32   2.0000      -0.783016       -21.3069
  33   2.0000      -0.770342       -20.9621
  34   2.0000      -0.707954       -19.2644
  35   2.0000      -0.698926       -19.0187
  36   2.0000      -0.693545       -18.8723
  37   2.0000      -0.658209       -17.9108
  38   2.0000      -0.646508       -17.5924
  39   2.0000      -0.621056       -16.8998
  40   2.0000      -0.592857       -16.1325
  41   2.0000      -0.574668       -15.6375
  42   2.0000      -0.570468       -15.5232
  43   2.0000      -0.555126       -15.1057
  44   2.0000      -0.531684       -14.4679
  45   2.0000      -0.524296       -14.2668
  46   2.0000      -0.520076       -14.1520
  47   2.0000      -0.510086       -13.8802
  48   2.0000      -0.505552       -13.7568
  49   2.0000      -0.497957       -13.5501
  50   2.0000      -0.493144       -13.4191
  51   2.0000      -0.481715       -13.1081
  52   2.0000      -0.471602       -12.8329
  53   2.0000      -0.462721       -12.5913
  54   2.0000      -0.455485       -12.3944
  55   2.0000      -0.442849       -12.0505
  56   2.0000      -0.440263       -11.9802
  57   2.0000      -0.434643       -11.8272
  58   2.0000      -0.431000       -11.7281
  59   2.0000      -0.429472       -11.6865
  60   2.0000      -0.419683       -11.4202
  61   2.0000      -0.413893       -11.2626
  62   2.0000      -0.410662       -11.1747
  63   2.0000      -0.337596        -9.1865
  64   2.0000      -0.330367        -8.9898
  65   2.0000      -0.325084        -8.8460
  66   2.0000      -0.296251        -8.0614
  67   0.0000       0.026543         0.7223
  68   0.0000       0.068372         1.8605
  69   0.0000       0.108667         2.9570
  70   0.0000       0.111630         3.0376
  71   0.0000       0.134227         3.6525

MULLIKEN ATOMIC CHARGES
-----------------------
   0 S :    0.085243
   1 C :   -0.165051
   2 C :   -0.099323
   3 C :    0.091906
   4 C :   -0.174082
   5 H :   -0.032356
   6 C :    0.134498
   7 H :    0.024536
   8 H :    0.013136
   9 C :   -0.088985
  10 H :    0.022876
  11 H :    0.041297
  12 C :   -0.045345
  13 H :    0.031008
  14 H :    0.026463
  15 H :    0.030888
  16 S :    0.109680
  17 C :   -0.106899
  18 C :   -0.065508
  19 C :   -0.049021
  20 C :   -0.134939
  21 H :    0.032563
  22 C :    0.118158
  23 H :    0.024642
  24 H :    0.032444
  25 C :   -0.058861
  26 H :    0.013617
  27 H :    0.041040
  28 C :   -0.073676
  29 H :    0.011646
  30 H :    0.022186
  31 H :    0.036335
  32 H :    0.083584
  33 H :    0.066301
Sum of atomic charges:   -0.0000000

LOEWDIN ATOMIC CHARGES
----------------------
   0 S :    0.369957
   1 C :   -0.185981
   2 C :   -0.056341
   3 C :   -0.054037
   4 C :   -0.186015
   5 H :    0.013676
   6 C :   -0.022576
   7 H :    0.032278
   8 H :    0.024393
   9 C :   -0.036478
  10 H :    0.019611
  11 H :    0.031317
  12 C :   -0.065398
  13 H :    0.032921
  14 H :    0.012173
  15 H :    0.025784
  16 S :    0.424940
  17 C :   -0.196485
  18 C :   -0.081698
  19 C :   -0.050128
  20 C :   -0.212730
  21 H :    0.038516
  22 C :   -0.031634
  23 H :    0.033511
  24 H :    0.038943
  25 C :   -0.041574
  26 H :    0.018014
  27 H :    0.034825
  28 C :   -0.074901
  29 H :    0.014911
  30 H :    0.024109
  31 H :    0.030206
  32 H :    0.042554
  33 H :    0.033336

  Mayer bond orders larger than 0.100000
B(  0-S ,  1-C ) :   1.1200 B(  0-S ,  4-C ) :   1.1650 B(  1-C ,  2-C ) :   1.6012
B(  1-C ,  4-C ) :   0.1032 B(  1-C , 32-H ) :   0.9670 B(  2-C ,  3-C ) :   1.2113
B(  2-C ,  6-C ) :   1.0301 B(  3-C ,  4-C ) :   1.5764 B(  3-C ,  5-H ) :   1.0125
B(  4-C , 20-C ) :   1.0020 B(  6-C ,  7-H ) :   0.9319 B(  6-C ,  8-H ) :   0.9442
B(  6-C ,  9-C ) :   1.0468 B(  9-C , 10-H ) :   0.9599 B(  9-C , 11-H ) :   0.9632
B(  9-C , 12-C ) :   1.0751 B( 12-C , 13-H ) :   0.9760 B( 12-C , 14-H ) :   0.9818
B( 12-C , 15-H ) :   0.9761 B( 16-S , 17-C ) :   1.1824 B( 16-S , 20-C ) :   1.1545
B( 17-C , 18-C ) :   1.5894 B( 17-C , 20-C ) :   0.1069 B( 17-C , 33-H ) :   0.9638
B( 18-C , 19-C ) :   1.2317 B( 18-C , 21-H ) :   0.9942 B( 19-C , 20-C ) :   1.5748
B( 19-C , 22-C ) :   1.0546 B( 22-C , 23-H ) :   0.9322 B( 22-C , 24-H ) :   0.9155
B( 22-C , 25-C ) :   1.0901 B( 25-C , 26-H ) :   0.9479 B( 25-C , 27-H ) :   0.9524
B( 25-C , 28-C ) :   1.0849 B( 28-C , 29-H ) :   0.9705 B( 28-C , 30-H ) :   0.9756
B( 28-C , 31-H ) :   0.9750

Dispersion correction           -0.013433718
FINAL SINGLE POINT ENERGY     -1339.858536935251

DIPOLE MOMENT
-------------
                                X             Y             Z
Electronic contribution:     12.96849       9.75454     -19.25960
Nuclear contribution   :    -12.99933      -9.95443      19.83606
                        -----------------------------------------
Total Dipole Moment    :     -0.03084      -0.19989       0.57646
                        -----------------------------------------
Magnitude (a.u.)       :      0.61091
Magnitude (Debye)      :      1.55282

Rotational constants in cm-1:     0.018673     0.007560     0.006319
Rotational constants in MHz :   559.816323   226.630329   189.453235

                             ****ORCA TERMINATED NORMALLY****
TOTAL RUN TIME: 0 days 0 hours 0 minutes 20 seconds 703 msec
