                         Program Version 4.2.1 -  RELEASE  -
|  1> ! wB97X-D3 SP def2-SVP
|  2> %pal
|  3> nprocs 24
|  4> end
|  5>
|  6> * xyz 0 1
|  7> S 	 -97.0976 	 46.3609 	 -90.2098
|  8> C 	 -96.6002 	 44.9331 	 -91.1586
|  9> C 	 -97.2573 	 44.893 	 -92.4027
| 10> C 	 -98.0719 	 46.0403 	 -92.6611
| 11> C 	 -98.086 	 46.928 	 -91.571
| 12> H 	 -98.7798 	 46.1795 	 -93.4663
| 13> C 	 -97.2901 	 43.7283 	 -93.3952
| 14> H 	 -96.8144 	 44.0002 	 -94.3224
| 15> H 	 -98.3084 	 43.3511 	 -93.5611
| 16> C 	 -96.293 	 42.5979 	 -92.9371
| 17> H 	 -96.6224 	 42.2793 	 -91.931
| 18> H 	 -96.5532 	 41.6601 	 -93.446
| 19> C 	 -94.7793 	 42.8262 	 -93.039
| 20> H 	 -94.2367 	 41.9791 	 -92.6393
| 21> H 	 -94.3298 	 43.1614 	 -93.994
| 22> H 	 -94.5226 	 43.5774 	 -92.2238
| 23> S 	 -98.004 	 49.6534 	 -91.4272
| 24> C 	 -99.4803 	 50.5423 	 -91.6068
| 25> C 	 -100.587 	 49.7741 	 -91.8136
| 26> C 	 -100.239 	 48.3754 	 -91.8954
| 27> C 	 -98.8712 	 48.136 	 -91.6207
| 28> H 	 -101.588 	 50.2156 	 -91.9977
| 29> C 	 -101.283 	 47.3365 	 -91.946
| 30> H 	 -101.145 	 46.6765 	 -92.8854
| 31> H 	 -102.298 	 47.7397 	 -92.0205
| 32> C 	 -101.392 	 46.4004 	 -90.7467
| 33> H 	 -101.511 	 46.8356 	 -89.6739
| 34> H 	 -100.506 	 45.7744 	 -90.7004
| 35> C 	 -102.558 	 45.3827 	 -90.8627
| 36> H 	 -103.517 	 45.8423 	 -90.491
| 37> H 	 -102.279 	 44.5194 	 -90.2607
| 38> H 	 -102.778 	 45.0191 	 -91.8688
| 39> H 	 -95.7934 	 44.2885 	 -90.9024
| 40> H 	 -99.4393 	 51.6316 	 -91.4253
| 41> *
| 42>
| 43>                          ****END OF INPUT****

CARTESIAN COORDINATES (ANGSTROEM)
---------------------------------
  S    -97.097600   46.360900  -90.209800
  C    -96.600200   44.933100  -91.158600
  C    -97.257300   44.893000  -92.402700
  C    -98.071900   46.040300  -92.661100
  C    -98.086000   46.928000  -91.571000
  H    -98.779800   46.179500  -93.466300
  C    -97.290100   43.728300  -93.395200
  H    -96.814400   44.000200  -94.322400
  H    -98.308400   43.351100  -93.561100
  C    -96.293000   42.597900  -92.937100
  H    -96.622400   42.279300  -91.931000
  H    -96.553200   41.660100  -93.446000
  C    -94.779300   42.826200  -93.039000
  H    -94.236700   41.979100  -92.639300
  H    -94.329800   43.161400  -93.994000
  H    -94.522600   43.577400  -92.223800
  S    -98.004000   49.653400  -91.427200
  C    -99.480300   50.542300  -91.606800
  C    -100.587000   49.774100  -91.813600
  C    -100.239000   48.375400  -91.895400
  C    -98.871200   48.136000  -91.620700
  H    -101.588000   50.215600  -91.997700
  C    -101.283000   47.336500  -91.946000
  H    -101.145000   46.676500  -92.885400
  H    -102.298000   47.739700  -92.020500
  C    -101.392000   46.400400  -90.746700
  H    -101.511000   46.835600  -89.673900
  H    -100.506000   45.774400  -90.700400
  C    -102.558000   45.382700  -90.862700
  H    -103.517000   45.842300  -90.491000
  H    -102.279000   44.519400  -90.260700
  H    -102.778000   45.019100  -91.868800
  H    -95.793400   44.288500  -90.902400
  H    -99.439300   51.631600  -91.425300

 Total Charge           Charge          ....    0
 Multiplicity           Mult            ....    1
 Number of Electrons    NEL             ....  134
 Basis Dimension        Dim             ....  322

ORBITAL ENERGIES
----------------

  NO   OCC          E(Eh)            E(eV)
   0   2.0000     -88.972303     -2421.0595
   1   2.0000     -88.963452     -2420.8186
   2   2.0000     -10.331560      -281.1360
   3   2.0000     -10.325578      -280.9733
   4   2.0000     -10.317893      -280.7641
   5   2.0000     -10.316210      -280.7183
   6   2.0000     -10.305628      -280.4304
   7   2.0000     -10.305586      -280.4293
   8   2.0000     -10.297459      -280.2081
   9   2.0000     -10.297208      -280.2013
  10   2.0000     -10.295650      -280.1589
  11   2.0000     -10.294269      -280.1213
  12   2.0000     -10.290876      -280.0290
  13   2.0000     -10.288503      -279.9644
  14   2.0000     -10.287222      -279.9295
  15   2.0000     -10.278405      -279.6896
  16   2.0000      -8.085532      -220.0185
  17   2.0000      -8.078759      -219.8342
  18   2.0000      -6.044131      -164.4692
  19   2.0000      -6.040288      -164.3646
  20   2.0000      -6.037136      -164.2788
  21   2.0000      -6.036257      -164.2549
  22   2.0000      -6.033190      -164.1715
  23   2.0000      -6.029629      -164.0746
  24   2.0000      -1.002401       -27.2767
  25   2.0000      -0.977664       -26.6036
  26   2.0000      -0.907908       -24.7054
  27   2.0000      -0.906979       -24.6801
  28   2.0000      -0.865399       -23.5487
  29   2.0000      -0.850871       -23.1534
  30   2.0000      -0.846477       -23.0338
  31   2.0000      -0.807886       -21.9837
  32   2.0000      -0.784210       -21.3394
  33   2.0000      -0.768063       -20.9001
  34   2.0000      -0.707809       -19.2605
  35   2.0000      -0.698550       -19.0085
  36   2.0000      -0.682024       -18.5588
  37   2.0000      -0.661358       -17.9965
  38   2.0000      -0.639047       -17.3894
  39   2.0000      -0.609830       -16.5943
  40   2.0000      -0.596643       -16.2355
  41   2.0000      -0.571454       -15.5501
  42   2.0000      -0.560363       -15.2482
  43   2.0000      -0.559078       -15.2133
  44   2.0000      -0.526145       -14.3171
  45   2.0000      -0.521938       -14.2027
  46   2.0000      -0.518404       -14.1065
  47   2.0000      -0.508406       -13.8344
  48   2.0000      -0.500396       -13.6165
  49   2.0000      -0.493723       -13.4349
  50   2.0000      -0.487146       -13.2559
  51   2.0000      -0.485667       -13.2157
  52   2.0000      -0.474040       -12.8993
  53   2.0000      -0.462636       -12.5890
  54   2.0000      -0.457572       -12.4512
  55   2.0000      -0.449322       -12.2267
  56   2.0000      -0.444667       -12.1000
  57   2.0000      -0.438762       -11.9393
  58   2.0000      -0.433926       -11.8077
  59   2.0000      -0.421979       -11.4826
  60   2.0000      -0.415539       -11.3074
  61   2.0000      -0.405881       -11.0446
  62   2.0000      -0.404761       -11.0141
  63   2.0000      -0.340961        -9.2780
  64   2.0000      -0.331011        -9.0073
  65   2.0000      -0.327687        -8.9168
  66   2.0000      -0.291955        -7.9445
  67   0.0000       0.025722         0.6999
  68   0.0000       0.067442         1.8352
  69   0.0000       0.105913         2.8820
  70   0.0000       0.117034         3.1847
  71   0.0000       0.129284         3.5180

MULLIKEN ATOMIC CHARGES
-----------------------
   0 S :    0.123925
   1 C :   -0.123217
   2 C :   -0.091971
   3 C :    0.030438
   4 C :   -0.158545
   5 H :    0.018263
   6 C :    0.091550
   7 H :    0.031501
   8 H :    0.051496
   9 C :   -0.123794
  10 H :    0.020689
  11 H :    0.019548
  12 C :   -0.047456
  13 H :    0.034549
  14 H :    0.053582
  15 H :    0.019748
  16 S :    0.108506
  17 C :   -0.104889
  18 C :   -0.033302
  19 C :    0.000903
  20 C :   -0.176297
  21 H :    0.036592
  22 C :    0.036694
  23 H :    0.037710
  24 H :    0.016418
  25 C :   -0.101563
  26 H :    0.049209
  27 H :    0.036202
  28 C :   -0.070588
  29 H :    0.037976
  30 H :    0.037486
  31 H :    0.022897
  32 H :    0.046868
  33 H :    0.068872
Sum of atomic charges:   -0.0000000

LOEWDIN ATOMIC CHARGES
----------------------
   0 S :    0.390202
   1 C :   -0.192988
   2 C :   -0.057790
   3 C :   -0.056057
   4 C :   -0.191333
   5 H :    0.032489
   6 C :   -0.026463
   7 H :    0.031652
   8 H :    0.038157
   9 C :   -0.055161
  10 H :    0.023112
  11 H :    0.022534
  12 C :   -0.073544
  13 H :    0.030296
  14 H :    0.031645
  15 H :    0.028868
  16 S :    0.412090
  17 C :   -0.189123
  18 C :   -0.075159
  19 C :   -0.055611
  20 C :   -0.199266
  21 H :    0.041554
  22 C :   -0.044208
  23 H :    0.040131
  24 H :    0.029330
  25 C :   -0.048470
  26 H :    0.037821
  27 H :    0.020473
  28 C :   -0.071100
  29 H :    0.026586
  30 H :    0.028652
  31 H :    0.019276
  32 H :    0.019669
  33 H :    0.031736

  Mayer bond orders larger than 0.100000
B(  0-S ,  1-C ) :   1.1172 B(  0-S ,  4-C ) :   1.1464 B(  1-C ,  2-C ) :   1.6144
B(  1-C , 32-H ) :   0.9580 B(  2-C ,  3-C ) :   1.2466 B(  2-C ,  6-C ) :   1.0108
B(  3-C ,  4-C ) :   1.5610 B(  3-C ,  5-H ) :   0.9938 B(  4-C , 20-C ) :   1.0653
B(  6-C ,  7-H ) :   0.9360 B(  6-C ,  8-H ) :   0.9471 B(  6-C ,  9-C ) :   1.0729
B(  9-C , 10-H ) :   0.9461 B(  9-C , 11-H ) :   0.9545 B(  9-C , 12-C ) :   1.0774
B( 12-C , 13-H ) :   0.9680 B( 12-C , 14-H ) :   0.9726 B( 12-C , 15-H ) :   0.9697
B( 16-S , 17-C ) :   1.1688 B( 16-S , 20-C ) :   1.1474 B( 17-C , 18-C ) :   1.6035
B( 17-C , 33-H ) :   0.9613 B( 18-C , 19-C ) :   1.2459 B( 18-C , 21-H ) :   0.9858
B( 19-C , 20-C ) :   1.5622 B( 19-C , 22-C ) :   1.0625 B( 22-C , 23-H ) :   0.9168
B( 22-C , 24-H ) :   0.9431 B( 22-C , 25-C ) :   1.0646 B( 25-C , 26-H ) :   0.9558
B( 25-C , 27-H ) :   0.9542 B( 25-C , 28-C ) :   1.0763 B( 28-C , 29-H ) :   0.9775
B( 28-C , 30-H ) :   0.9770 B( 28-C , 31-H ) :   0.9744

Dispersion correction           -0.014705793
FINAL SINGLE POINT ENERGY     -1339.870374037987

DIPOLE MOMENT
-------------
                                X             Y             Z
Electronic contribution:      7.74854      23.07137       6.72812
Nuclear contribution   :     -8.06994     -23.45870      -7.01237
                        -----------------------------------------
Total Dipole Moment    :     -0.32140      -0.38733      -0.28425
                        -----------------------------------------
Magnitude (a.u.)       :      0.57804
Magnitude (Debye)      :      1.46925

Rotational constants in cm-1:     0.020426     0.008355     0.006799
Rotational constants in MHz :   612.363439   250.482290   203.814785

                             ****ORCA TERMINATED NORMALLY****
TOTAL RUN TIME: 0 days 0 hours 0 minutes 21 seconds 971 msec
