                         Program Version 4.2.1 -  RELEASE  -
|  1> ! wB97X-D3 SP def2-SVP
|  2> %pal
|  3> nprocs 24
|  4> end
|  5>
|  6> * xyz 0 1
|  7> S 	 -104.58 	 -4.44219 	 -120.599
|  8> C 	 -106.203 	 -3.96451 	 -121.015
|  9> C 	 -106.525 	 -2.82085 	 -120.247
| 10> C 	 -105.522 	 -2.36986 	 -119.36
| 11> C 	 -104.363 	 -3.21835 	 -119.405
| 12> H 	 -105.535 	 -1.53709 	 -118.643
| 13> C 	 -107.731 	 -1.96489 	 -120.343
| 14> H 	 -108.399 	 -2.24108 	 -119.536
| 15> H 	 -108.149 	 -2.30674 	 -121.34
| 16> C 	 -107.617 	 -0.437024 	 -120.445
| 17> H 	 -107.37 	 -0.0597075 	 -119.458
| 18> H 	 -106.882 	 -0.1449 	 -121.162
| 19> C 	 -108.999 	 0.193036 	 -120.858
| 20> H 	 -108.856 	 1.27879 	 -121.034
| 21> H 	 -109.201 	 -0.262447 	 -121.805
| 22> H 	 -109.885 	 0.0766683 	 -120.178
| 23> S 	 -101.695 	 -2.62473 	 -119.401
| 24> C 	 -100.821 	 -2.52182 	 -117.895
| 25> C 	 -101.516 	 -3.06607 	 -116.906
| 26> C 	 -102.877 	 -3.41109 	 -117.219
| 27> C 	 -103.172 	 -3.12533 	 -118.589
| 28> H 	 -101.004 	 -3.24825 	 -116.001
| 29> C 	 -103.904 	 -3.92732 	 -116.205
| 30> H 	 -103.386 	 -4.58579 	 -115.533
| 31> H 	 -104.765 	 -4.5121 	 -116.723
| 32> C 	 -104.576 	 -2.79097 	 -115.392
| 33> H 	 -105.08 	 -2.11466 	 -116.024
| 34> H 	 -103.721 	 -2.20478 	 -115.005
| 35> C 	 -105.49 	 -3.16754 	 -114.198
| 36> H 	 -105.858 	 -2.19654 	 -113.766
| 37> H 	 -105.03 	 -3.61709 	 -113.272
| 38> H 	 -106.373 	 -3.57162 	 -114.594
| 39> H 	 -106.803 	 -4.41663 	 -121.704
| 40> H 	 -99.8922 	 -2.1123 	 -117.81
| 41> *
| 42>
| 43>                          ****END OF INPUT****

CARTESIAN COORDINATES (ANGSTROEM)
---------------------------------
  S    -104.580000   -4.442190  -120.599000
  C    -106.203000   -3.964510  -121.015000
  C    -106.525000   -2.820850  -120.247000
  C    -105.522000   -2.369860  -119.360000
  C    -104.363000   -3.218350  -119.405000
  H    -105.535000   -1.537090  -118.643000
  C    -107.731000   -1.964890  -120.343000
  H    -108.399000   -2.241080  -119.536000
  H    -108.149000   -2.306740  -121.340000
  C    -107.617000   -0.437024  -120.445000
  H    -107.370000   -0.059707  -119.458000
  H    -106.882000   -0.144900  -121.162000
  C    -108.999000    0.193036  -120.858000
  H    -108.856000    1.278790  -121.034000
  H    -109.201000   -0.262447  -121.805000
  H    -109.885000    0.076668  -120.178000
  S    -101.695000   -2.624730  -119.401000
  C    -100.821000   -2.521820  -117.895000
  C    -101.516000   -3.066070  -116.906000
  C    -102.877000   -3.411090  -117.219000
  C    -103.172000   -3.125330  -118.589000
  H    -101.004000   -3.248250  -116.001000
  C    -103.904000   -3.927320  -116.205000
  H    -103.386000   -4.585790  -115.533000
  H    -104.765000   -4.512100  -116.723000
  C    -104.576000   -2.790970  -115.392000
  H    -105.080000   -2.114660  -116.024000
  H    -103.721000   -2.204780  -115.005000
  C    -105.490000   -3.167540  -114.198000
  H    -105.858000   -2.196540  -113.766000
  H    -105.030000   -3.617090  -113.272000
  H    -106.373000   -3.571620  -114.594000
  H    -106.803000   -4.416630  -121.704000
  H    -99.892200   -2.112300  -117.810000

 Total Charge           Charge          ....    0
 Multiplicity           Mult            ....    1
 Number of Electrons    NEL             ....  134
 Basis Dimension        Dim             ....  322

ORBITAL ENERGIES
----------------

  NO   OCC          E(Eh)            E(eV)
   0   2.0000     -88.968823     -2420.9648
   1   2.0000     -88.960070     -2420.7266
   2   2.0000     -10.330874      -281.1174
   3   2.0000     -10.329241      -281.0729
   4   2.0000     -10.312486      -280.6170
   5   2.0000     -10.311552      -280.5916
   6   2.0000     -10.306345      -280.4499
   7   2.0000     -10.300470      -280.2901
   8   2.0000     -10.297338      -280.2048
   9   2.0000     -10.296701      -280.1875
  10   2.0000     -10.289443      -279.9900
  11   2.0000     -10.289040      -279.9790
  12   2.0000     -10.287741      -279.9437
  13   2.0000     -10.284753      -279.8623
  14   2.0000     -10.284074      -279.8439
  15   2.0000     -10.282605      -279.8039
  16   2.0000      -8.083606      -219.9661
  17   2.0000      -8.075337      -219.7411
  18   2.0000      -6.041943      -164.4096
  19   2.0000      -6.037788      -164.2966
  20   2.0000      -6.034865      -164.2170
  21   2.0000      -6.033797      -164.1880
  22   2.0000      -6.029805      -164.0793
  23   2.0000      -6.026069      -163.9777
  24   2.0000      -1.005364       -27.3574
  25   2.0000      -0.985071       -26.8052
  26   2.0000      -0.912964       -24.8430
  27   2.0000      -0.902158       -24.5490
  28   2.0000      -0.873116       -23.7587
  29   2.0000      -0.848432       -23.0870
  30   2.0000      -0.845074       -22.9956
  31   2.0000      -0.816447       -22.2167
  32   2.0000      -0.779213       -21.2035
  33   2.0000      -0.769294       -20.9336
  34   2.0000      -0.714305       -19.4372
  35   2.0000      -0.700263       -19.0551
  36   2.0000      -0.693173       -18.8622
  37   2.0000      -0.659944       -17.9580
  38   2.0000      -0.643303       -17.5052
  39   2.0000      -0.616845       -16.7852
  40   2.0000      -0.597349       -16.2547
  41   2.0000      -0.577588       -15.7170
  42   2.0000      -0.569446       -15.4954
  43   2.0000      -0.562960       -15.3189
  44   2.0000      -0.526527       -14.3275
  45   2.0000      -0.524303       -14.2670
  46   2.0000      -0.516430       -14.0528
  47   2.0000      -0.510217       -13.8837
  48   2.0000      -0.509072       -13.8526
  49   2.0000      -0.503097       -13.6900
  50   2.0000      -0.498266       -13.5585
  51   2.0000      -0.476040       -12.9537
  52   2.0000      -0.469019       -12.7626
  53   2.0000      -0.462540       -12.5864
  54   2.0000      -0.460414       -12.5285
  55   2.0000      -0.449506       -12.2317
  56   2.0000      -0.446710       -12.1556
  57   2.0000      -0.437678       -11.9098
  58   2.0000      -0.427936       -11.6447
  59   2.0000      -0.422844       -11.5062
  60   2.0000      -0.418418       -11.3857
  61   2.0000      -0.411532       -11.1984
  62   2.0000      -0.409957       -11.1555
  63   2.0000      -0.339300        -9.2328
  64   2.0000      -0.330212        -8.9855
  65   2.0000      -0.321582        -8.7507
  66   2.0000      -0.298530        -8.1234
  67   0.0000       0.037019         1.0073
  68   0.0000       0.054313         1.4779
  69   0.0000       0.114704         3.1212
  70   0.0000       0.124052         3.3756
  71   0.0000       0.134732         3.6662

MULLIKEN ATOMIC CHARGES
-----------------------
   0 S :    0.131329
   1 C :   -0.083914
   2 C :   -0.076624
   3 C :    0.021904
   4 C :   -0.167221
   5 H :    0.028243
   6 C :    0.029781
   7 H :    0.042644
   8 H :    0.013869
   9 C :   -0.057383
  10 H :    0.028220
  11 H :    0.035287
  12 C :   -0.069233
  13 H :    0.040073
  14 H :    0.023164
  15 H :    0.046813
  16 S :    0.098424
  17 C :   -0.047748
  18 C :   -0.019758
  19 C :   -0.008446
  20 C :   -0.195321
  21 H :    0.005008
  22 C :    0.070389
  23 H :    0.016665
  24 H :    0.047222
  25 C :   -0.080274
  26 H :    0.011159
  27 H :    0.018176
  28 C :   -0.033974
  29 H :    0.023655
  30 H :    0.050354
  31 H :    0.026601
  32 H :    0.010890
  33 H :    0.020025
Sum of atomic charges:   -0.0000000

LOEWDIN ATOMIC CHARGES
----------------------
   0 S :    0.440299
   1 C :   -0.197121
   2 C :   -0.065056
   3 C :   -0.063132
   4 C :   -0.212672
   5 H :    0.035147
   6 C :   -0.041062
   7 H :    0.033667
   8 H :    0.030756
   9 C :   -0.031525
  10 H :    0.018863
  11 H :    0.025595
  12 C :   -0.066837
  13 H :    0.029827
  14 H :    0.019243
  15 H :    0.030865
  16 S :    0.400735
  17 C :   -0.163307
  18 C :   -0.071070
  19 C :   -0.044907
  20 C :   -0.203650
  21 H :    0.027798
  22 C :   -0.034099
  23 H :    0.025917
  24 H :    0.040595
  25 C :   -0.041399
  26 H :    0.015622
  27 H :    0.023280
  28 C :   -0.071614
  29 H :    0.033730
  30 H :    0.034783
  31 H :    0.018238
  32 H :    0.009881
  33 H :    0.012614

  Mayer bond orders larger than 0.100000
B(  0-S ,  1-C ) :   1.1522 B(  0-S ,  4-C ) :   1.1997 B(  1-C ,  2-C ) :   1.5433
B(  1-C ,  4-C ) :   0.1144 B(  1-C , 32-H ) :   0.9873 B(  2-C ,  3-C ) :   1.2795
B(  2-C ,  6-C ) :   1.0240 B(  3-C ,  4-C ) :   1.5106 B(  3-C ,  5-H ) :   0.9909
B(  4-C , 20-C ) :   1.0326 B(  6-C ,  7-H ) :   0.9296 B(  6-C ,  8-H ) :   0.9466
B(  6-C ,  9-C ) :   1.0777 B(  9-C , 10-H ) :   0.9457 B(  9-C , 11-H ) :   0.9583
B(  9-C , 12-C ) :   1.0787 B( 12-C , 13-H ) :   0.9752 B( 12-C , 14-H ) :   0.9764
B( 12-C , 15-H ) :   0.9770 B( 16-S , 17-C ) :   1.1470 B( 16-S , 20-C ) :   1.1525
B( 17-C , 18-C ) :   1.6288 B( 17-C , 33-H ) :   0.9794 B( 18-C , 19-C ) :   1.2209
B( 18-C , 21-H ) :   0.9963 B( 19-C , 20-C ) :   1.5751 B( 19-C , 22-C ) :   1.0532
B( 22-C , 23-H ) :   0.9313 B( 22-C , 24-H ) :   0.9346 B( 22-C , 25-C ) :   1.0609
B( 25-C , 26-H ) :   0.9535 B( 25-C , 27-H ) :   0.9561 B( 25-C , 28-C ) :   1.0872
B( 28-C , 29-H ) :   0.9682 B( 28-C , 30-H ) :   0.9742 B( 28-C , 31-H ) :   0.9732

Dispersion correction           -0.013825701
FINAL SINGLE POINT ENERGY     -1339.859913183793

DIPOLE MOMENT
-------------
                                X             Y             Z
Electronic contribution:     22.47142     -11.78597     -13.55633
Nuclear contribution   :    -22.77741      12.08650      13.99808
                        -----------------------------------------
Total Dipole Moment    :     -0.30600       0.30054       0.44175
                        -----------------------------------------
Magnitude (a.u.)       :      0.61571
Magnitude (Debye)      :      1.56502

Rotational constants in cm-1:     0.016499     0.008425     0.006829
Rotational constants in MHz :   494.639445   252.579768   204.738900

                             ****ORCA TERMINATED NORMALLY****
TOTAL RUN TIME: 0 days 0 hours 0 minutes 21 seconds 159 msec
