                         Program Version 4.2.1 -  RELEASE  -
|  1> ! wB97X-D3 SP def2-SVP
|  2> %pal
|  3> nprocs 24
|  4> end
|  5>
|  6> * xyz 0 1
|  7> S 	 -44.8558 	 18.7234 	 29.3094
|  8> C 	 -45.11 	 18.2849 	 27.6383
|  9> C 	 -44.9903 	 19.4378 	 26.8443
| 10> C 	 -44.9265 	 20.6668 	 27.5758
| 11> C 	 -44.9094 	 20.4537 	 28.9718
| 12> H 	 -45.0172 	 21.6916 	 27.2591
| 13> C 	 -45.1974 	 19.433 	 25.3206
| 14> H 	 -44.4122 	 18.8297 	 24.9309
| 15> H 	 -45.1802 	 20.4485 	 24.9854
| 16> C 	 -46.5569 	 18.7872 	 24.8969
| 17> H 	 -46.5526 	 18.8111 	 23.8579
| 18> H 	 -46.6604 	 17.7736 	 25.2753
| 19> C 	 -47.717 	 19.5667 	 25.4397
| 20> H 	 -47.7342 	 19.5882 	 26.592
| 21> H 	 -47.7225 	 20.584 	 25.2557
| 22> H 	 -48.7445 	 19.2731 	 25.1233
| 23> S 	 -45.4625 	 20.7661 	 31.5508
| 24> C 	 -45.2715 	 22.3955 	 32.3245
| 25> C 	 -44.8228 	 23.2856 	 31.3628
| 26> C 	 -44.8177 	 22.8231 	 30.0194
| 27> C 	 -44.9892 	 21.4399 	 29.9838
| 28> H 	 -44.7185 	 24.2882 	 31.6282
| 29> C 	 -44.4809 	 23.8352 	 28.9889
| 30> H 	 -44.0578 	 23.2915 	 28.1789
| 31> H 	 -43.6314 	 24.4842 	 29.3349
| 32> C 	 -45.5822 	 24.8244 	 28.5227
| 33> H 	 -45.1691 	 25.5084 	 27.7773
| 34> H 	 -45.9236 	 25.4725 	 29.3366
| 35> C 	 -46.7485 	 24.0043 	 27.8321
| 36> H 	 -46.5055 	 23.4787 	 26.9735
| 37> H 	 -47.4475 	 24.7643 	 27.4111
| 38> H 	 -47.321 	 23.2867 	 28.5837
| 39> H 	 -45.295 	 17.2978 	 27.2913
| 40> H 	 -45.4077 	 22.5485 	 33.408
| 41> *
| 42>
| 43>                          ****END OF INPUT****

CARTESIAN COORDINATES (ANGSTROEM)
---------------------------------
  S    -44.855800   18.723400   29.309400
  C    -45.110000   18.284900   27.638300
  C    -44.990300   19.437800   26.844300
  C    -44.926500   20.666800   27.575800
  C    -44.909400   20.453700   28.971800
  H    -45.017200   21.691600   27.259100
  C    -45.197400   19.433000   25.320600
  H    -44.412200   18.829700   24.930900
  H    -45.180200   20.448500   24.985400
  C    -46.556900   18.787200   24.896900
  H    -46.552600   18.811100   23.857900
  H    -46.660400   17.773600   25.275300
  C    -47.717000   19.566700   25.439700
  H    -47.734200   19.588200   26.592000
  H    -47.722500   20.584000   25.255700
  H    -48.744500   19.273100   25.123300
  S    -45.462500   20.766100   31.550800
  C    -45.271500   22.395500   32.324500
  C    -44.822800   23.285600   31.362800
  C    -44.817700   22.823100   30.019400
  C    -44.989200   21.439900   29.983800
  H    -44.718500   24.288200   31.628200
  C    -44.480900   23.835200   28.988900
  H    -44.057800   23.291500   28.178900
  H    -43.631400   24.484200   29.334900
  C    -45.582200   24.824400   28.522700
  H    -45.169100   25.508400   27.777300
  H    -45.923600   25.472500   29.336600
  C    -46.748500   24.004300   27.832100
  H    -46.505500   23.478700   26.973500
  H    -47.447500   24.764300   27.411100
  H    -47.321000   23.286700   28.583700
  H    -45.295000   17.297800   27.291300
  H    -45.407700   22.548500   33.408000

 Total Charge           Charge          ....    0
 Multiplicity           Mult            ....    1
 Number of Electrons    NEL             ....  134
 Basis Dimension        Dim             ....  322

ORBITAL ENERGIES
----------------

  NO   OCC          E(Eh)            E(eV)
   0   2.0000     -88.967514     -2420.9291
   1   2.0000     -88.963662     -2420.8243
   2   2.0000     -10.331610      -281.1374
   3   2.0000     -10.330077      -281.0957
   4   2.0000     -10.324173      -280.9350
   5   2.0000     -10.313636      -280.6483
   6   2.0000     -10.304686      -280.4048
   7   2.0000     -10.304152      -280.3902
   8   2.0000     -10.298924      -280.2480
   9   2.0000     -10.295143      -280.1451
  10   2.0000     -10.294187      -280.1191
  11   2.0000     -10.290300      -280.0133
  12   2.0000     -10.288550      -279.9657
  13   2.0000     -10.287165      -279.9280
  14   2.0000     -10.282521      -279.8016
  15   2.0000     -10.271565      -279.5035
  16   2.0000      -8.081726      -219.9150
  17   2.0000      -8.077475      -219.7993
  18   2.0000      -6.040341      -164.3660
  19   2.0000      -6.036217      -164.2538
  20   2.0000      -6.036163      -164.2523
  21   2.0000      -6.032486      -164.1523
  22   2.0000      -6.032189      -164.1442
  23   2.0000      -6.028017      -164.0307
  24   2.0000      -1.005695       -27.3664
  25   2.0000      -0.978127       -26.6162
  26   2.0000      -0.914205       -24.8768
  27   2.0000      -0.907055       -24.6822
  28   2.0000      -0.871928       -23.7264
  29   2.0000      -0.850430       -23.1414
  30   2.0000      -0.841261       -22.8919
  31   2.0000      -0.811127       -22.0719
  32   2.0000      -0.780586       -21.2408
  33   2.0000      -0.772762       -21.0279
  34   2.0000      -0.714666       -19.4471
  35   2.0000      -0.708784       -19.2870
  36   2.0000      -0.696182       -18.9441
  37   2.0000      -0.670190       -18.2368
  38   2.0000      -0.641290       -17.4504
  39   2.0000      -0.611486       -16.6394
  40   2.0000      -0.593821       -16.1587
  41   2.0000      -0.576010       -15.6740
  42   2.0000      -0.554978       -15.1017
  43   2.0000      -0.551700       -15.0125
  44   2.0000      -0.543627       -14.7928
  45   2.0000      -0.530549       -14.4370
  46   2.0000      -0.521032       -14.1780
  47   2.0000      -0.517740       -14.0884
  48   2.0000      -0.506079       -13.7711
  49   2.0000      -0.497611       -13.5407
  50   2.0000      -0.489628       -13.3235
  51   2.0000      -0.482768       -13.1368
  52   2.0000      -0.472220       -12.8498
  53   2.0000      -0.467464       -12.7203
  54   2.0000      -0.453856       -12.3500
  55   2.0000      -0.446895       -12.1606
  56   2.0000      -0.443876       -12.0785
  57   2.0000      -0.436193       -11.8694
  58   2.0000      -0.428174       -11.6512
  59   2.0000      -0.425288       -11.5727
  60   2.0000      -0.419423       -11.4131
  61   2.0000      -0.414989       -11.2924
  62   2.0000      -0.409280       -11.1371
  63   2.0000      -0.361858        -9.8467
  64   2.0000      -0.334087        -9.0910
  65   2.0000      -0.326204        -8.8765
  66   2.0000      -0.275256        -7.4901
  67   0.0000       0.009731         0.2648
  68   0.0000       0.078393         2.1332
  69   0.0000       0.097629         2.6566
  70   0.0000       0.113062         3.0766
  71   0.0000       0.131803         3.5865

MULLIKEN ATOMIC CHARGES
-----------------------
   0 S :    0.113085
   1 C :   -0.123626
   2 C :   -0.091173
   3 C :    0.009925
   4 C :   -0.127113
   5 H :   -0.015590
   6 C :    0.092127
   7 H :    0.031673
   8 H :    0.015561
   9 C :   -0.027519
  10 H :    0.020445
  11 H :    0.030125
  12 C :   -0.071128
  13 H :    0.046451
  14 H :   -0.000791
  15 H :    0.032365
  16 S :    0.071894
  17 C :   -0.102112
  18 C :    0.000788
  19 C :   -0.047866
  20 C :   -0.112297
  21 H :   -0.001720
  22 C :    0.025258
  23 H :    0.012249
  24 H :    0.037005
  25 C :   -0.041740
  26 H :    0.034327
  27 H :    0.036747
  28 C :   -0.096511
  29 H :    0.024401
  30 H :    0.032602
  31 H :    0.075101
  32 H :    0.043867
  33 H :    0.073193
Sum of atomic charges:   -0.0000000

LOEWDIN ATOMIC CHARGES
----------------------
   0 S :    0.403962
   1 C :   -0.202260
   2 C :   -0.055300
   3 C :   -0.070943
   4 C :   -0.185780
   5 H :    0.024529
   6 C :   -0.018368
   7 H :    0.029320
   8 H :    0.024633
   9 C :   -0.029871
  10 H :    0.016816
  11 H :    0.024869
  12 C :   -0.075094
  13 H :    0.038168
  14 H :    0.009118
  15 H :    0.028144
  16 S :    0.365429
  17 C :   -0.167106
  18 C :   -0.056604
  19 C :   -0.061077
  20 C :   -0.176347
  21 H :    0.020525
  22 C :   -0.038548
  23 H :    0.022162
  24 H :    0.039959
  25 C :   -0.031407
  26 H :    0.027520
  27 H :    0.025787
  28 C :   -0.077077
  29 H :    0.009434
  30 H :    0.030174
  31 H :    0.046476
  32 H :    0.023174
  33 H :    0.035584

  Mayer bond orders larger than 0.100000
B(  0-S ,  1-C ) :   1.1323 B(  0-S ,  4-C ) :   1.1494 B(  1-C ,  2-C ) :   1.5683
B(  1-C ,  4-C ) :   0.1024 B(  1-C , 32-H ) :   0.9808 B(  2-C ,  3-C ) :   1.2528
B(  2-C ,  6-C ) :   1.0202 B(  3-C ,  4-C ) :   1.5379 B(  3-C ,  5-H ) :   0.9875
B(  4-C , 20-C ) :   1.1386 B(  6-C ,  7-H ) :   0.9320 B(  6-C ,  8-H ) :   0.9486
B(  6-C ,  9-C ) :   1.0826 B(  9-C , 10-H ) :   0.9548 B(  9-C , 11-H ) :   0.9539
B(  9-C , 12-C ) :   1.0741 B( 12-C , 13-H ) :   0.9699 B( 12-C , 14-H ) :   0.9741
B( 12-C , 15-H ) :   0.9729 B( 16-S , 17-C ) :   1.1182 B( 16-S , 20-C ) :   1.1270
B( 17-C , 18-C ) :   1.6195 B( 17-C , 20-C ) :   0.1004 B( 17-C , 33-H ) :   0.9679
B( 18-C , 19-C ) :   1.2329 B( 18-C , 21-H ) :   0.9901 B( 19-C , 20-C ) :   1.5561
B( 19-C , 22-C ) :   1.0455 B( 22-C , 23-H ) :   0.9308 B( 22-C , 24-H ) :   0.9337
B( 22-C , 25-C ) :   1.0725 B( 25-C , 26-H ) :   0.9544 B( 25-C , 27-H ) :   0.9559
B( 25-C , 28-C ) :   1.0679 B( 28-C , 29-H ) :   0.9719 B( 28-C , 30-H ) :   0.9712
B( 28-C , 31-H ) :   0.9737

Dispersion correction           -0.015538926
FINAL SINGLE POINT ENERGY     -1339.859721362750

DIPOLE MOMENT
-------------
                                X             Y             Z
Electronic contribution:      9.49627     -12.34756      22.52045
Nuclear contribution   :     -9.59808      12.93533     -23.01446
                        -----------------------------------------
Total Dipole Moment    :     -0.10181       0.58777      -0.49401
                        -----------------------------------------
Magnitude (a.u.)       :      0.77453
Magnitude (Debye)      :      1.96869

Rotational constants in cm-1:     0.019595     0.009818     0.007302
Rotational constants in MHz :   587.430091   294.323971   218.921076

                             ****ORCA TERMINATED NORMALLY****
TOTAL RUN TIME: 0 days 0 hours 0 minutes 21 seconds 489 msec
