                         Program Version 4.2.1 -  RELEASE  -
|  1> ! wB97X-D3 SP def2-SVP
|  2> %pal
|  3> nprocs 24
|  4> end
|  5>
|  6> * xyz 0 1
|  7> S 	 -137.564 	 15.2857 	 -2.77455
|  8> C 	 -137.677 	 14.3418 	 -1.25632
|  9> C 	 -136.485 	 14.0982 	 -0.616452
| 10> C 	 -135.417 	 14.8365 	 -1.24812
| 11> C 	 -135.804 	 15.3807 	 -2.45833
| 12> H 	 -134.426 	 14.9156 	 -1.00594
| 13> C 	 -136.26 	 13.402 	 0.744297
| 14> H 	 -137.241 	 12.8348 	 0.93755
| 15> H 	 -136 	 14.2003 	 1.39547
| 16> C 	 -135.265 	 12.19 	 0.714342
| 17> H 	 -134.423 	 12.6236 	 0.225778
| 18> H 	 -134.897 	 11.8433 	 1.73581
| 19> C 	 -135.844 	 11.1062 	 -0.100751
| 20> H 	 -135.084 	 10.3052 	 -0.14097
| 21> H 	 -136.69 	 10.5962 	 0.319579
| 22> H 	 -136.08 	 11.4088 	 -1.08267
| 23> S 	 -134.929 	 17.9918 	 -3.04052
| 24> C 	 -133.54 	 18.279 	 -4.06153
| 25> C 	 -132.912 	 17.1315 	 -4.20237
| 26> C 	 -133.664 	 15.94 	 -3.83722
| 27> C 	 -134.877 	 16.2469 	 -3.26213
| 28> H 	 -131.892 	 17.1595 	 -4.62137
| 29> C 	 -132.981 	 14.6062 	 -3.96227
| 30> H 	 -132.998 	 14.3415 	 -5.01575
| 31> H 	 -133.536 	 13.7067 	 -3.55224
| 32> C 	 -131.654 	 14.5405 	 -3.27017
| 33> H 	 -131.841 	 14.5979 	 -2.14686
| 34> H 	 -131.022 	 15.4381 	 -3.48356
| 35> C 	 -130.944 	 13.1423 	 -3.49664
| 36> H 	 -129.844 	 13.2701 	 -3.52635
| 37> H 	 -131.29 	 12.7245 	 -4.41549
| 38> H 	 -131.113 	 12.5563 	 -2.59781
| 39> H 	 -138.685 	 14.0555 	 -0.875629
| 40> H 	 -133.123 	 19.2617 	 -4.20746
| 41> *
| 42>
| 43>                          ****END OF INPUT****

CARTESIAN COORDINATES (ANGSTROEM)
---------------------------------
  S    -137.564000   15.285700   -2.774550
  C    -137.677000   14.341800   -1.256320
  C    -136.485000   14.098200   -0.616452
  C    -135.417000   14.836500   -1.248120
  C    -135.804000   15.380700   -2.458330
  H    -134.426000   14.915600   -1.005940
  C    -136.260000   13.402000    0.744297
  H    -137.241000   12.834800    0.937550
  H    -136.000000   14.200300    1.395470
  C    -135.265000   12.190000    0.714342
  H    -134.423000   12.623600    0.225778
  H    -134.897000   11.843300    1.735810
  C    -135.844000   11.106200   -0.100751
  H    -135.084000   10.305200   -0.140970
  H    -136.690000   10.596200    0.319579
  H    -136.080000   11.408800   -1.082670
  S    -134.929000   17.991800   -3.040520
  C    -133.540000   18.279000   -4.061530
  C    -132.912000   17.131500   -4.202370
  C    -133.664000   15.940000   -3.837220
  C    -134.877000   16.246900   -3.262130
  H    -131.892000   17.159500   -4.621370
  C    -132.981000   14.606200   -3.962270
  H    -132.998000   14.341500   -5.015750
  H    -133.536000   13.706700   -3.552240
  C    -131.654000   14.540500   -3.270170
  H    -131.841000   14.597900   -2.146860
  H    -131.022000   15.438100   -3.483560
  C    -130.944000   13.142300   -3.496640
  H    -129.844000   13.270100   -3.526350
  H    -131.290000   12.724500   -4.415490
  H    -131.113000   12.556300   -2.597810
  H    -138.685000   14.055500   -0.875629
  H    -133.123000   19.261700   -4.207460

 Total Charge           Charge          ....    0
 Multiplicity           Mult            ....    1
 Number of Electrons    NEL             ....  134
 Basis Dimension        Dim             ....  322

ORBITAL ENERGIES
----------------

  NO   OCC          E(Eh)            E(eV)
   0   2.0000     -88.969656     -2420.9874
   1   2.0000     -88.954314     -2420.5699
   2   2.0000     -10.334344      -281.2118
   3   2.0000     -10.327071      -281.0139
   4   2.0000     -10.322271      -280.8833
   5   2.0000     -10.310390      -280.5600
   6   2.0000     -10.306993      -280.4675
   7   2.0000     -10.303380      -280.3692
   8   2.0000     -10.299528      -280.2644
   9   2.0000     -10.295186      -280.1463
  10   2.0000     -10.293170      -280.0914
  11   2.0000     -10.291174      -280.0371
  12   2.0000     -10.290064      -280.0069
  13   2.0000     -10.289738      -279.9980
  14   2.0000     -10.282632      -279.8046
  15   2.0000     -10.270294      -279.4689
  16   2.0000      -8.083172      -219.9543
  17   2.0000      -8.069759      -219.5893
  18   2.0000      -6.041667      -164.4021
  19   2.0000      -6.038138      -164.3061
  20   2.0000      -6.033718      -164.1858
  21   2.0000      -6.028418      -164.0416
  22   2.0000      -6.024350      -163.9309
  23   2.0000      -6.020094      -163.8151
  24   2.0000      -1.004555       -27.3353
  25   2.0000      -0.982376       -26.7318
  26   2.0000      -0.914869       -24.8948
  27   2.0000      -0.910630       -24.7795
  28   2.0000      -0.870527       -23.6882
  29   2.0000      -0.851198       -23.1623
  30   2.0000      -0.840347       -22.8670
  31   2.0000      -0.817004       -22.2318
  32   2.0000      -0.780605       -21.2413
  33   2.0000      -0.772110       -21.0102
  34   2.0000      -0.704725       -19.1765
  35   2.0000      -0.697386       -18.9768
  36   2.0000      -0.691702       -18.8222
  37   2.0000      -0.653068       -17.7709
  38   2.0000      -0.644329       -17.5331
  39   2.0000      -0.619081       -16.8460
  40   2.0000      -0.604224       -16.4418
  41   2.0000      -0.571074       -15.5397
  42   2.0000      -0.561534       -15.2801
  43   2.0000      -0.557232       -15.1630
  44   2.0000      -0.548727       -14.9316
  45   2.0000      -0.530577       -14.4377
  46   2.0000      -0.513277       -13.9670
  47   2.0000      -0.508547       -13.8383
  48   2.0000      -0.506075       -13.7710
  49   2.0000      -0.498100       -13.5540
  50   2.0000      -0.479282       -13.0419
  51   2.0000      -0.477995       -13.0069
  52   2.0000      -0.470049       -12.7907
  53   2.0000      -0.462531       -12.5861
  54   2.0000      -0.458432       -12.4746
  55   2.0000      -0.453275       -12.3342
  56   2.0000      -0.449179       -12.2228
  57   2.0000      -0.442557       -12.0426
  58   2.0000      -0.440968       -11.9993
  59   2.0000      -0.427390       -11.6299
  60   2.0000      -0.410745       -11.1769
  61   2.0000      -0.405614       -11.0373
  62   2.0000      -0.402785       -10.9603
  63   2.0000      -0.341087        -9.2815
  64   2.0000      -0.330672        -8.9981
  65   2.0000      -0.318467        -8.6659
  66   2.0000      -0.310911        -8.4603
  67   0.0000       0.036802         1.0014
  68   0.0000       0.064039         1.7426
  69   0.0000       0.106825         2.9069
  70   0.0000       0.114019         3.1026
  71   0.0000       0.121486         3.3058

MULLIKEN ATOMIC CHARGES
-----------------------
   0 S :    0.107604
   1 C :   -0.141241
   2 C :   -0.078181
   3 C :    0.066235
   4 C :   -0.172636
   5 H :   -0.016261
   6 C :    0.050367
   7 H :    0.026639
   8 H :    0.045548
   9 C :   -0.059043
  10 H :    0.010646
  11 H :    0.044195
  12 C :   -0.039183
  13 H :    0.026775
  14 H :    0.025392
  15 H :    0.038419
  16 S :    0.072473
  17 C :   -0.075744
  18 C :   -0.050328
  19 C :   -0.034910
  20 C :   -0.128575
  21 H :    0.031631
  22 C :    0.050498
  23 H :    0.034094
  24 H :    0.028636
  25 C :   -0.141010
  26 H :    0.036315
  27 H :    0.038341
  28 C :   -0.029479
  29 H :    0.035740
  30 H :    0.035944
  31 H :    0.040826
  32 H :    0.061936
  33 H :    0.058336
Sum of atomic charges:   -0.0000000

LOEWDIN ATOMIC CHARGES
----------------------
   0 S :    0.371974
   1 C :   -0.181904
   2 C :   -0.066100
   3 C :   -0.040766
   4 C :   -0.176323
   5 H :    0.017158
   6 C :   -0.027192
   7 H :    0.035721
   8 H :    0.028922
   9 C :   -0.043350
  10 H :    0.015509
  11 H :    0.033370
  12 C :   -0.062327
  13 H :    0.030887
  14 H :    0.023050
  15 H :    0.023664
  16 S :    0.383793
  17 C :   -0.175656
  18 C :   -0.078442
  19 C :   -0.057807
  20 C :   -0.196138
  21 H :    0.034900
  22 C :   -0.047247
  23 H :    0.030700
  24 H :    0.036688
  25 C :   -0.047189
  26 H :    0.029098
  27 H :    0.020897
  28 C :   -0.062089
  29 H :    0.031598
  30 H :    0.021162
  31 H :    0.029014
  32 H :    0.032242
  33 H :    0.032184

  Mayer bond orders larger than 0.100000
B(  0-S ,  1-C ) :   1.1283 B(  0-S ,  4-C ) :   1.1297 B(  1-C ,  2-C ) :   1.6569
B(  1-C , 32-H ) :   0.9575 B(  2-C ,  3-C ) :   1.1726 B(  2-C ,  6-C ) :   1.0056
B(  3-C ,  4-C ) :   1.6331 B(  3-C ,  5-H ) :   1.0016 B(  4-C , 20-C ) :   1.0014
B(  6-C ,  7-H ) :   0.9472 B(  6-C ,  8-H ) :   0.9470 B(  6-C ,  9-C ) :   1.0543
B(  9-C , 10-H ) :   0.9542 B(  9-C , 11-H ) :   0.9568 B(  9-C , 12-C ) :   1.0872
B( 12-C , 13-H ) :   0.9671 B( 12-C , 14-H ) :   0.9711 B( 12-C , 15-H ) :   0.9728
B( 16-S , 17-C ) :   1.1353 B( 16-S , 20-C ) :   1.1342 B( 17-C , 18-C ) :   1.6567
B( 17-C , 33-H ) :   0.9677 B( 18-C , 19-C ) :   1.2053 B( 18-C , 21-H ) :   0.9807
B( 19-C , 20-C ) :   1.6331 B( 19-C , 22-C ) :   1.0428 B( 22-C , 23-H ) :   0.9297
B( 22-C , 24-H ) :   0.9378 B( 22-C , 25-C ) :   1.0533 B( 25-C , 26-H ) :   0.9599
B( 25-C , 27-H ) :   0.9609 B( 25-C , 28-C ) :   1.0559 B( 28-C , 29-H ) :   0.9761
B( 28-C , 30-H ) :   0.9795 B( 28-C , 31-H ) :   0.9793

Dispersion correction           -0.014462733
FINAL SINGLE POINT ENERGY     -1339.850218258193

DIPOLE MOMENT
-------------
                                X             Y             Z
Electronic contribution:    -16.66001      23.91778      -8.90475
Nuclear contribution   :     17.30236     -24.34576       9.26217
                        -----------------------------------------
Total Dipole Moment    :      0.64235      -0.42798       0.35742
                        -----------------------------------------
Magnitude (a.u.)       :      0.85060
Magnitude (Debye)      :      2.16206

Rotational constants in cm-1:     0.016468     0.009837     0.006904
Rotational constants in MHz :   493.704423   294.900054   206.974510

                             ****ORCA TERMINATED NORMALLY****
TOTAL RUN TIME: 0 days 0 hours 0 minutes 22 seconds 244 msec
