                         Program Version 4.2.1 -  RELEASE  -
|  1> ! wB97X-D3 SP def2-SVP
|  2> %pal
|  3> nprocs 24
|  4> end
|  5>
|  6> * xyz 0 1
|  7> S 	 -110.895 	 55.556 	 -100.674
|  8> C 	 -112.644 	 55.1772 	 -100.682
|  9> C 	 -113.35 	 56.3279 	 -100.397
| 10> C 	 -112.513 	 57.4841 	 -100.213
| 11> C 	 -111.15 	 57.1962 	 -100.274
| 12> H 	 -112.777 	 58.5453 	 -100.012
| 13> C 	 -114.866 	 56.4545 	 -100.213
| 14> H 	 -115.096 	 56.6296 	 -99.1453
| 15> H 	 -115.397 	 55.5781 	 -100.492
| 16> C 	 -115.411 	 57.665 	 -100.955
| 17> H 	 -114.783 	 58.4915 	 -100.758
| 18> H 	 -115.497 	 57.4972 	 -102.01
| 19> C 	 -116.833 	 58.1051 	 -100.545
| 20> H 	 -117.014 	 59.0991 	 -100.968
| 21> H 	 -117.525 	 57.4765 	 -101.056
| 22> H 	 -116.982 	 58.08 	 -99.5237
| 23> S 	 -109.067 	 57.6596 	 -98.5087
| 24> C 	 -108.452 	 59.2965 	 -98.3738
| 25> C 	 -108.829 	 60.0343 	 -99.4582
| 26> C 	 -109.719 	 59.3393 	 -100.326
| 27> C 	 -110.008 	 58.034 	 -99.9203
| 28> H 	 -108.611 	 61.074 	 -99.4135
| 29> C 	 -110.472 	 60.0164 	 -101.486
| 30> H 	 -110.914 	 59.3891 	 -102.179
| 31> H 	 -109.608 	 60.4014 	 -102.136
| 32> C 	 -111.388 	 61.2728 	 -101.209
| 33> H 	 -110.907 	 62.0305 	 -100.55
| 34> H 	 -112.226 	 60.8235 	 -100.605
| 35> C 	 -111.78 	 62.0082 	 -102.456
| 36> H 	 -110.89 	 62.3617 	 -103.013
| 37> H 	 -112.324 	 62.8898 	 -102.177
| 38> H 	 -112.318 	 61.3696 	 -103.192
| 39> H 	 -113.081 	 54.1767 	 -100.86
| 40> H 	 -107.894 	 59.695 	 -97.5473
| 41> *
| 42>
| 43>                          ****END OF INPUT****

CARTESIAN COORDINATES (ANGSTROEM)
---------------------------------
  S    -110.895000   55.556000  -100.674000
  C    -112.644000   55.177200  -100.682000
  C    -113.350000   56.327900  -100.397000
  C    -112.513000   57.484100  -100.213000
  C    -111.150000   57.196200  -100.274000
  H    -112.777000   58.545300  -100.012000
  C    -114.866000   56.454500  -100.213000
  H    -115.096000   56.629600  -99.145300
  H    -115.397000   55.578100  -100.492000
  C    -115.411000   57.665000  -100.955000
  H    -114.783000   58.491500  -100.758000
  H    -115.497000   57.497200  -102.010000
  C    -116.833000   58.105100  -100.545000
  H    -117.014000   59.099100  -100.968000
  H    -117.525000   57.476500  -101.056000
  H    -116.982000   58.080000  -99.523700
  S    -109.067000   57.659600  -98.508700
  C    -108.452000   59.296500  -98.373800
  C    -108.829000   60.034300  -99.458200
  C    -109.719000   59.339300  -100.326000
  C    -110.008000   58.034000  -99.920300
  H    -108.611000   61.074000  -99.413500
  C    -110.472000   60.016400  -101.486000
  H    -110.914000   59.389100  -102.179000
  H    -109.608000   60.401400  -102.136000
  C    -111.388000   61.272800  -101.209000
  H    -110.907000   62.030500  -100.550000
  H    -112.226000   60.823500  -100.605000
  C    -111.780000   62.008200  -102.456000
  H    -110.890000   62.361700  -103.013000
  H    -112.324000   62.889800  -102.177000
  H    -112.318000   61.369600  -103.192000
  H    -113.081000   54.176700  -100.860000
  H    -107.894000   59.695000  -97.547300

 Total Charge           Charge          ....    0
 Multiplicity           Mult            ....    1
 Number of Electrons    NEL             ....  134
 Basis Dimension        Dim             ....  322

ORBITAL ENERGIES
----------------

  NO   OCC          E(Eh)            E(eV)
   0   2.0000     -88.964490     -2420.8468
   1   2.0000     -88.963237     -2420.8128
   2   2.0000     -10.329102      -281.0691
   3   2.0000     -10.325491      -280.9709
   4   2.0000     -10.318715      -280.7865
   5   2.0000     -10.318040      -280.7681
   6   2.0000     -10.308565      -280.5103
   7   2.0000     -10.305761      -280.4340
   8   2.0000     -10.297889      -280.2198
   9   2.0000     -10.296661      -280.1864
  10   2.0000     -10.292813      -280.0817
  11   2.0000     -10.292392      -280.0702
  12   2.0000     -10.290995      -280.0322
  13   2.0000     -10.282419      -279.7989
  14   2.0000     -10.277136      -279.6551
  15   2.0000     -10.268972      -279.4329
  16   2.0000      -8.079512      -219.8547
  17   2.0000      -8.078237      -219.8200
  18   2.0000      -6.037988      -164.3020
  19   2.0000      -6.036781      -164.2692
  20   2.0000      -6.033914      -164.1911
  21   2.0000      -6.032574      -164.1547
  22   2.0000      -6.030320      -164.0933
  23   2.0000      -6.029077      -164.0595
  24   2.0000      -1.008634       -27.4463
  25   2.0000      -0.984827       -26.7985
  26   2.0000      -0.915206       -24.9040
  27   2.0000      -0.904892       -24.6234
  28   2.0000      -0.872951       -23.7542
  29   2.0000      -0.852368       -23.1941
  30   2.0000      -0.843753       -22.9597
  31   2.0000      -0.816147       -22.2085
  32   2.0000      -0.785108       -21.3639
  33   2.0000      -0.772474       -21.0201
  34   2.0000      -0.709597       -19.3091
  35   2.0000      -0.697727       -18.9861
  36   2.0000      -0.692609       -18.8469
  37   2.0000      -0.658261       -17.9122
  38   2.0000      -0.643133       -17.5005
  39   2.0000      -0.620148       -16.8751
  40   2.0000      -0.601373       -16.3642
  41   2.0000      -0.573539       -15.6068
  42   2.0000      -0.570419       -15.5219
  43   2.0000      -0.555562       -15.1176
  44   2.0000      -0.534050       -14.5323
  45   2.0000      -0.524646       -14.2763
  46   2.0000      -0.518311       -14.1040
  47   2.0000      -0.514682       -14.0052
  48   2.0000      -0.507641       -13.8136
  49   2.0000      -0.500260       -13.6128
  50   2.0000      -0.493505       -13.4290
  51   2.0000      -0.483177       -13.1479
  52   2.0000      -0.470602       -12.8057
  53   2.0000      -0.469591       -12.7782
  54   2.0000      -0.458801       -12.4846
  55   2.0000      -0.451529       -12.2867
  56   2.0000      -0.446542       -12.1510
  57   2.0000      -0.436908       -11.8889
  58   2.0000      -0.434452       -11.8220
  59   2.0000      -0.424291       -11.5456
  60   2.0000      -0.417615       -11.3639
  61   2.0000      -0.412327       -11.2200
  62   2.0000      -0.410951       -11.1825
  63   2.0000      -0.346150        -9.4192
  64   2.0000      -0.329554        -8.9676
  65   2.0000      -0.326566        -8.8863
  66   2.0000      -0.297554        -8.0968
  67   0.0000       0.034928         0.9504
  68   0.0000       0.063736         1.7344
  69   0.0000       0.117347         3.1932
  70   0.0000       0.121997         3.3197
  71   0.0000       0.124987         3.4011

MULLIKEN ATOMIC CHARGES
-----------------------
   0 S :    0.098718
   1 C :   -0.142778
   2 C :   -0.068287
   3 C :    0.021177
   4 C :   -0.172257
   5 H :    0.022644
   6 C :    0.112543
   7 H :    0.035957
   8 H :    0.007046
   9 C :   -0.112425
  10 H :    0.021437
  11 H :    0.028140
  12 C :   -0.008007
  13 H :    0.028425
  14 H :    0.018441
  15 H :    0.015905
  16 S :    0.109800
  17 C :   -0.104084
  18 C :   -0.013372
  19 C :   -0.020930
  20 C :   -0.126550
  21 H :    0.014389
  22 C :    0.035043
  23 H :    0.011199
  24 H :    0.024806
  25 C :   -0.079320
  26 H :    0.030904
  27 H :    0.033359
  28 C :   -0.046275
  29 H :    0.030730
  30 H :    0.037632
  31 H :    0.038964
  32 H :    0.059961
  33 H :    0.057064
Sum of atomic charges:    0.0000000

LOEWDIN ATOMIC CHARGES
----------------------
   0 S :    0.407537
   1 C :   -0.196839
   2 C :   -0.059120
   3 C :   -0.071330
   4 C :   -0.201781
   5 H :    0.035180
   6 C :   -0.024149
   7 H :    0.036245
   8 H :    0.021895
   9 C :   -0.035486
  10 H :    0.014631
  11 H :    0.023947
  12 C :   -0.052304
  13 H :    0.030049
  14 H :    0.020250
  15 H :    0.010748
  16 S :    0.411058
  17 C :   -0.173666
  18 C :   -0.071250
  19 C :   -0.050772
  20 C :   -0.215095
  21 H :    0.029862
  22 C :   -0.036837
  23 H :    0.018040
  24 H :    0.038509
  25 C :   -0.044752
  26 H :    0.026165
  27 H :    0.023881
  28 C :   -0.067728
  29 H :    0.029648
  30 H :    0.026863
  31 H :    0.028876
  32 H :    0.037215
  33 H :    0.030513

  Mayer bond orders larger than 0.100000
B(  0-S ,  1-C ) :   1.1224 B(  0-S ,  4-C ) :   1.1716 B(  1-C ,  2-C ) :   1.6218
B(  1-C , 32-H ) :   0.9702 B(  2-C ,  3-C ) :   1.2192 B(  2-C ,  6-C ) :   1.0243
B(  3-C ,  4-C ) :   1.5865 B(  3-C ,  5-H ) :   0.9809 B(  4-C , 20-C ) :   1.0081
B(  6-C ,  7-H ) :   0.9385 B(  6-C ,  8-H ) :   0.9432 B(  6-C ,  9-C ) :   1.0603
B(  9-C , 10-H ) :   0.9596 B(  9-C , 11-H ) :   0.9562 B(  9-C , 12-C ) :   1.0902
B( 12-C , 13-H ) :   0.9733 B( 12-C , 14-H ) :   0.9763 B( 12-C , 15-H ) :   0.9765
B( 16-S , 17-C ) :   1.1638 B( 16-S , 20-C ) :   1.1387 B( 17-C , 18-C ) :   1.6127
B( 17-C , 33-H ) :   0.9686 B( 18-C , 19-C ) :   1.2332 B( 18-C , 21-H ) :   0.9967
B( 19-C , 20-C ) :   1.5892 B( 19-C , 22-C ) :   1.0454 B( 22-C , 23-H ) :   0.9424
B( 22-C , 24-H ) :   0.9314 B( 22-C , 25-C ) :   1.0463 B( 25-C , 26-H ) :   0.9536
B( 25-C , 27-H ) :   0.9517 B( 25-C , 28-C ) :   1.0855 B( 28-C , 29-H ) :   0.9701
B( 28-C , 30-H ) :   0.9721 B( 28-C , 31-H ) :   0.9745

Dispersion correction           -0.014047505
FINAL SINGLE POINT ENERGY     -1339.873955838703

DIPOLE MOMENT
-------------
                                X             Y             Z
Electronic contribution:     24.29847     -19.06612      10.11659
Nuclear contribution   :    -24.82134      19.71335     -10.14280
                        -----------------------------------------
Total Dipole Moment    :     -0.52287       0.64724      -0.02621
                        -----------------------------------------
Magnitude (a.u.)       :      0.83247
Magnitude (Debye)      :      2.11596

Rotational constants in cm-1:     0.015609     0.009735     0.006831
Rotational constants in MHz :   467.939954   291.851645   204.786955

                             ****ORCA TERMINATED NORMALLY****
TOTAL RUN TIME: 0 days 0 hours 0 minutes 21 seconds 523 msec
