                         Program Version 4.2.1 -  RELEASE  -
|  1> ! wB97X-D3 SP def2-SVP
|  2> %pal
|  3> nprocs 24
|  4> end
|  5>
|  6> * xyz 0 1
|  7> S 	 -132.234 	 6.45062 	 -1.99932
|  8> C 	 -130.493 	 6.45304 	 -1.95071
|  9> C 	 -130.053 	 5.52372 	 -1.03533
| 10> C 	 -131.126 	 4.79095 	 -0.463544
| 11> C 	 -132.37 	 5.0533 	 -0.930934
| 12> H 	 -131.014 	 4.12407 	 0.382568
| 13> C 	 -128.585 	 5.49745 	 -0.537025
| 14> H 	 -127.927 	 5.71322 	 -1.42665
| 15> H 	 -128.247 	 4.52857 	 -0.121842
| 16> C 	 -128.258 	 6.46913 	 0.646766
| 17> H 	 -128.403 	 7.44442 	 0.100459
| 18> H 	 -128.895 	 6.35032 	 1.49303
| 19> C 	 -126.858 	 6.43534 	 1.11084
| 20> H 	 -126.54 	 7.09977 	 1.91705
| 21> H 	 -126.612 	 5.40746 	 1.43405
| 22> H 	 -126.2 	 6.66155 	 0.275608
| 23> S 	 -135.054 	 4.90866 	 -1.59833
| 24> C 	 -136.074 	 3.76889 	 -0.741282
| 25> C 	 -135.327 	 3.0763 	 0.214323
| 26> C 	 -133.977 	 3.45003 	 0.293839
| 27> C 	 -133.637 	 4.40218 	 -0.644481
| 28> H 	 -135.891 	 2.43495 	 0.893082
| 29> C 	 -133.208 	 3.02525 	 1.51672
| 30> H 	 -133.997 	 2.91932 	 2.30289
| 31> H 	 -132.593 	 3.83461 	 1.9259
| 32> C 	 -132.341 	 1.68305 	 1.2972
| 33> H 	 -131.828 	 1.45131 	 2.2491
| 34> H 	 -131.629 	 1.82041 	 0.507969
| 35> C 	 -133.184 	 0.480555 	 0.995385
| 36> H 	 -133.648 	 0.728843 	 0.127143
| 37> H 	 -134.016 	 0.266834 	 1.7333
| 38> H 	 -132.534 	 -0.324548 	 0.730547
| 39> H 	 -129.816 	 7.07888 	 -2.52168
| 40> H 	 -137.124 	 3.4742 	 -1.04994
| 41> *
| 42>
| 43>                          ****END OF INPUT****

CARTESIAN COORDINATES (ANGSTROEM)
---------------------------------
  S    -132.234000    6.450620   -1.999320
  C    -130.493000    6.453040   -1.950710
  C    -130.053000    5.523720   -1.035330
  C    -131.126000    4.790950   -0.463544
  C    -132.370000    5.053300   -0.930934
  H    -131.014000    4.124070    0.382568
  C    -128.585000    5.497450   -0.537025
  H    -127.927000    5.713220   -1.426650
  H    -128.247000    4.528570   -0.121842
  C    -128.258000    6.469130    0.646766
  H    -128.403000    7.444420    0.100459
  H    -128.895000    6.350320    1.493030
  C    -126.858000    6.435340    1.110840
  H    -126.540000    7.099770    1.917050
  H    -126.612000    5.407460    1.434050
  H    -126.200000    6.661550    0.275608
  S    -135.054000    4.908660   -1.598330
  C    -136.074000    3.768890   -0.741282
  C    -135.327000    3.076300    0.214323
  C    -133.977000    3.450030    0.293839
  C    -133.637000    4.402180   -0.644481
  H    -135.891000    2.434950    0.893082
  C    -133.208000    3.025250    1.516720
  H    -133.997000    2.919320    2.302890
  H    -132.593000    3.834610    1.925900
  C    -132.341000    1.683050    1.297200
  H    -131.828000    1.451310    2.249100
  H    -131.629000    1.820410    0.507969
  C    -133.184000    0.480555    0.995385
  H    -133.648000    0.728843    0.127143
  H    -134.016000    0.266834    1.733300
  H    -132.534000   -0.324548    0.730547
  H    -129.816000    7.078880   -2.521680
  H    -137.124000    3.474200   -1.049940

 Total Charge           Charge          ....    0
 Multiplicity           Mult            ....    1
 Number of Electrons    NEL             ....  134
 Basis Dimension        Dim             ....  322

ORBITAL ENERGIES
----------------

  NO   OCC          E(Eh)            E(eV)
   0   2.0000     -88.970239     -2421.0033
   1   2.0000     -88.965453     -2420.8730
   2   2.0000     -10.334113      -281.2055
   3   2.0000     -10.331150      -281.1249
   4   2.0000     -10.325590      -280.9736
   5   2.0000     -10.315588      -280.7014
   6   2.0000     -10.302908      -280.3564
   7   2.0000     -10.302751      -280.3521
   8   2.0000     -10.302710      -280.3510
   9   2.0000     -10.301468      -280.3172
  10   2.0000     -10.295688      -280.1599
  11   2.0000     -10.290394      -280.0159
  12   2.0000     -10.289715      -279.9974
  13   2.0000     -10.285413      -279.8803
  14   2.0000     -10.276557      -279.6393
  15   2.0000     -10.267898      -279.4037
  16   2.0000      -8.084303      -219.9851
  17   2.0000      -8.080157      -219.8722
  18   2.0000      -6.042909      -164.4359
  19   2.0000      -6.038854      -164.3256
  20   2.0000      -6.038825      -164.3248
  21   2.0000      -6.035061      -164.2223
  22   2.0000      -6.034712      -164.2129
  23   2.0000      -6.030707      -164.1039
  24   2.0000      -1.010773       -27.5045
  25   2.0000      -0.987745       -26.8779
  26   2.0000      -0.911952       -24.8155
  27   2.0000      -0.909058       -24.7367
  28   2.0000      -0.874496       -23.7963
  29   2.0000      -0.859756       -23.3952
  30   2.0000      -0.846065       -23.0226
  31   2.0000      -0.817344       -22.2411
  32   2.0000      -0.784081       -21.3359
  33   2.0000      -0.771123       -20.9833
  34   2.0000      -0.710295       -19.3281
  35   2.0000      -0.694022       -18.8853
  36   2.0000      -0.691628       -18.8202
  37   2.0000      -0.666560       -18.1380
  38   2.0000      -0.639599       -17.4044
  39   2.0000      -0.622254       -16.9324
  40   2.0000      -0.593784       -16.1577
  41   2.0000      -0.575045       -15.6478
  42   2.0000      -0.565585       -15.3904
  43   2.0000      -0.555279       -15.1099
  44   2.0000      -0.548755       -14.9324
  45   2.0000      -0.529734       -14.4148
  46   2.0000      -0.516814       -14.0632
  47   2.0000      -0.508920       -13.8484
  48   2.0000      -0.507052       -13.7976
  49   2.0000      -0.498051       -13.5527
  50   2.0000      -0.496314       -13.5054
  51   2.0000      -0.483444       -13.1552
  52   2.0000      -0.475895       -12.9498
  53   2.0000      -0.464172       -12.6308
  54   2.0000      -0.460593       -12.5334
  55   2.0000      -0.448085       -12.1930
  56   2.0000      -0.444987       -12.1087
  57   2.0000      -0.436881       -11.8881
  58   2.0000      -0.433938       -11.8080
  59   2.0000      -0.429811       -11.6957
  60   2.0000      -0.417103       -11.3499
  61   2.0000      -0.413372       -11.2484
  62   2.0000      -0.403549       -10.9811
  63   2.0000      -0.365562        -9.9475
  64   2.0000      -0.337787        -9.1917
  65   2.0000      -0.328440        -8.9373
  66   2.0000      -0.282435        -7.6855
  67   0.0000       0.014126         0.3844
  68   0.0000       0.082575         2.2470
  69   0.0000       0.092275         2.5109
  70   0.0000       0.119667         3.2563
  71   0.0000       0.135244         3.6802

MULLIKEN ATOMIC CHARGES
-----------------------
   0 S :    0.094789
   1 C :   -0.114123
   2 C :   -0.054236
   3 C :   -0.022431
   4 C :   -0.085725
   5 H :   -0.000537
   6 C :    0.007829
   7 H :    0.035379
   8 H :    0.017151
   9 C :   -0.056966
  10 H :    0.026157
  11 H :    0.031589
  12 C :   -0.038704
  13 H :    0.042582
  14 H :    0.019823
  15 H :    0.019713
  16 S :    0.104446
  17 C :   -0.119315
  18 C :   -0.044485
  19 C :   -0.042421
  20 C :   -0.106568
  21 H :    0.023596
  22 C :   -0.008942
  23 H :    0.034173
  24 H :    0.038748
  25 C :   -0.065887
  26 H :    0.033064
  27 H :    0.035408
  28 C :   -0.012042
  29 H :    0.004586
  30 H :    0.039088
  31 H :    0.030205
  32 H :    0.049470
  33 H :    0.084586
Sum of atomic charges:    0.0000000

LOEWDIN ATOMIC CHARGES
----------------------
   0 S :    0.395023
   1 C :   -0.192946
   2 C :   -0.065638
   3 C :   -0.073289
   4 C :   -0.179143
   5 H :    0.028759
   6 C :   -0.032173
   7 H :    0.034667
   8 H :    0.023173
   9 C :   -0.043483
  10 H :    0.028109
  11 H :    0.020897
  12 C :   -0.069838
  13 H :    0.030259
  14 H :    0.023007
  15 H :    0.023846
  16 S :    0.394468
  17 C :   -0.196198
  18 C :   -0.073294
  19 C :   -0.066946
  20 C :   -0.176719
  21 H :    0.033300
  22 C :   -0.032799
  23 H :    0.036941
  24 H :    0.029608
  25 C :   -0.031493
  26 H :    0.023601
  27 H :    0.022050
  28 C :   -0.062877
  29 H :    0.010926
  30 H :    0.032738
  31 H :    0.027802
  32 H :    0.031797
  33 H :    0.045865

  Mayer bond orders larger than 0.100000
B(  0-S ,  1-C ) :   1.1371 B(  0-S ,  4-C ) :   1.1272 B(  1-C ,  2-C ) :   1.6030
B(  1-C , 32-H ) :   0.9681 B(  2-C ,  3-C ) :   1.2583 B(  2-C ,  6-C ) :   1.0288
B(  3-C ,  4-C ) :   1.5770 B(  3-C ,  5-H ) :   0.9904 B(  4-C , 20-C ) :   1.0906
B(  6-C ,  7-H ) :   0.9451 B(  6-C ,  8-H ) :   0.9455 B(  6-C ,  9-C ) :   1.0457
B(  9-C , 10-H ) :   0.9543 B(  9-C , 11-H ) :   0.9585 B(  9-C , 12-C ) :   1.0924
B( 12-C , 13-H ) :   0.9722 B( 12-C , 14-H ) :   0.9689 B( 12-C , 15-H ) :   0.9708
B( 16-S , 17-C ) :   1.1537 B( 16-S , 20-C ) :   1.1332 B( 17-C , 18-C ) :   1.6074
B( 17-C , 20-C ) :   0.1055 B( 17-C , 33-H ) :   0.9566 B( 18-C , 19-C ) :   1.2565
B( 18-C , 21-H ) :   0.9839 B( 19-C , 20-C ) :   1.5889 B( 19-C , 22-C ) :   1.0106
B( 22-C , 23-H ) :   0.9487 B( 22-C , 24-H ) :   0.9469 B( 22-C , 25-C ) :   1.0485
B( 25-C , 26-H ) :   0.9597 B( 25-C , 27-H ) :   0.9559 B( 25-C , 28-C ) :   1.0893
B( 28-C , 29-H ) :   0.9677 B( 28-C , 30-H ) :   0.9727 B( 28-C , 31-H ) :   0.9659

Dispersion correction           -0.014092673
FINAL SINGLE POINT ENERGY     -1339.868735035410

DIPOLE MOMENT
-------------
                                X             Y             Z
Electronic contribution:    -21.47697      11.20469     -17.07071
Nuclear contribution   :     21.76731     -11.51010      17.57332
                        -----------------------------------------
Total Dipole Moment    :      0.29034      -0.30542       0.50261
                        -----------------------------------------
Magnitude (a.u.)       :      0.65589
Magnitude (Debye)      :      1.66714

Rotational constants in cm-1:     0.019613     0.008423     0.006231
Rotational constants in MHz :   587.976969   252.508059   186.806810

                             ****ORCA TERMINATED NORMALLY****
TOTAL RUN TIME: 0 days 0 hours 0 minutes 20 seconds 404 msec
