                         Program Version 4.2.1 -  RELEASE  -
|  1> ! wB97X-D3 SP def2-SVP
|  2> %pal
|  3> nprocs 24
|  4> end
|  5>
|  6> * xyz 0 1
|  7> S 	 -47.3506 	 15.407 	 24.4686
|  8> C 	 -48.5648 	 14.123 	 24.4362
|  9> C 	 -48.1303 	 13.096 	 23.6479
| 10> C 	 -46.8198 	 13.2735 	 23.0488
| 11> C 	 -46.2322 	 14.4427 	 23.462
| 12> H 	 -46.2766 	 12.6513 	 22.3803
| 13> C 	 -48.9596 	 11.8572 	 23.542
| 14> H 	 -49.5525 	 11.9955 	 24.4402
| 15> H 	 -48.3138 	 11.0384 	 23.7602
| 16> C 	 -49.9124 	 11.5702 	 22.369
| 17> H 	 -50.5141 	 12.4963 	 22.2201
| 18> H 	 -49.3488 	 11.5737 	 21.5005
| 19> C 	 -50.7243 	 10.3075 	 22.6744
| 20> H 	 -50.722 	 10.2179 	 23.7499
| 21> H 	 -51.6504 	 10.3723 	 22.0984
| 22> H 	 -50.1862 	 9.39602 	 22.4425
| 23> S 	 -44.6572 	 16.6318 	 22.6609
| 24> C 	 -42.9419 	 16.5154 	 22.7178
| 25> C 	 -42.5549 	 15.2116 	 22.9555
| 26> C 	 -43.6936 	 14.3055 	 23.1642
| 27> C 	 -44.9122 	 14.9625 	 23.1911
| 28> H 	 -41.5045 	 14.9671 	 22.9147
| 29> C 	 -43.3972 	 12.8178 	 23.472
| 30> H 	 -42.3409 	 12.5848 	 23.487
| 31> H 	 -43.9365 	 12.2398 	 22.7114
| 32> C 	 -43.8328 	 12.4135 	 24.8988
| 33> H 	 -43.7138 	 11.3406 	 25.0674
| 34> H 	 -44.8689 	 12.6009 	 25.0933
| 35> C 	 -43.0501 	 13.1443 	 26.0138
| 36> H 	 -42.0375 	 12.8099 	 26.0954
| 37> H 	 -43.5898 	 12.9572 	 26.9657
| 38> H 	 -43.0574 	 14.2195 	 25.8053
| 39> H 	 -49.3087 	 13.9585 	 25.2005
| 40> H 	 -42.2371 	 17.3206 	 22.5371
| 41> *
| 42>
| 43>                          ****END OF INPUT****

CARTESIAN COORDINATES (ANGSTROEM)
---------------------------------
  S    -47.350600   15.407000   24.468600
  C    -48.564800   14.123000   24.436200
  C    -48.130300   13.096000   23.647900
  C    -46.819800   13.273500   23.048800
  C    -46.232200   14.442700   23.462000
  H    -46.276600   12.651300   22.380300
  C    -48.959600   11.857200   23.542000
  H    -49.552500   11.995500   24.440200
  H    -48.313800   11.038400   23.760200
  C    -49.912400   11.570200   22.369000
  H    -50.514100   12.496300   22.220100
  H    -49.348800   11.573700   21.500500
  C    -50.724300   10.307500   22.674400
  H    -50.722000   10.217900   23.749900
  H    -51.650400   10.372300   22.098400
  H    -50.186200    9.396020   22.442500
  S    -44.657200   16.631800   22.660900
  C    -42.941900   16.515400   22.717800
  C    -42.554900   15.211600   22.955500
  C    -43.693600   14.305500   23.164200
  C    -44.912200   14.962500   23.191100
  H    -41.504500   14.967100   22.914700
  C    -43.397200   12.817800   23.472000
  H    -42.340900   12.584800   23.487000
  H    -43.936500   12.239800   22.711400
  C    -43.832800   12.413500   24.898800
  H    -43.713800   11.340600   25.067400
  H    -44.868900   12.600900   25.093300
  C    -43.050100   13.144300   26.013800
  H    -42.037500   12.809900   26.095400
  H    -43.589800   12.957200   26.965700
  H    -43.057400   14.219500   25.805300
  H    -49.308700   13.958500   25.200500
  H    -42.237100   17.320600   22.537100

 Total Charge           Charge          ....    0
 Multiplicity           Mult            ....    1
 Number of Electrons    NEL             ....  134
 Basis Dimension        Dim             ....  322

ORBITAL ENERGIES
----------------

  NO   OCC          E(Eh)            E(eV)
   0   2.0000     -88.965754     -2420.8812
   1   2.0000     -88.963478     -2420.8193
   2   2.0000     -10.335229      -281.2359
   3   2.0000     -10.329774      -281.0874
   4   2.0000     -10.317825      -280.7623
   5   2.0000     -10.312471      -280.6166
   6   2.0000     -10.310601      -280.5657
   7   2.0000     -10.302245      -280.3383
   8   2.0000     -10.297267      -280.2029
   9   2.0000     -10.296410      -280.1796
  10   2.0000     -10.295933      -280.1666
  11   2.0000     -10.283985      -279.8415
  12   2.0000     -10.282974      -279.8139
  13   2.0000     -10.279787      -279.7272
  14   2.0000     -10.278960      -279.7047
  15   2.0000     -10.270767      -279.4818
  16   2.0000      -8.080688      -219.8867
  17   2.0000      -8.077652      -219.8041
  18   2.0000      -6.039291      -164.3375
  19   2.0000      -6.036333      -164.2570
  20   2.0000      -6.035143      -164.2246
  21   2.0000      -6.032188      -164.1442
  22   2.0000      -6.031342      -164.1212
  23   2.0000      -6.028298      -164.0383
  24   2.0000      -1.006051       -27.3760
  25   2.0000      -0.983518       -26.7629
  26   2.0000      -0.915793       -24.9200
  27   2.0000      -0.905805       -24.6482
  28   2.0000      -0.874688       -23.8015
  29   2.0000      -0.849099       -23.1052
  30   2.0000      -0.839825       -22.8528
  31   2.0000      -0.821605       -22.3570
  32   2.0000      -0.781865       -21.2756
  33   2.0000      -0.769710       -20.9449
  34   2.0000      -0.716487       -19.4966
  35   2.0000      -0.704869       -19.1805
  36   2.0000      -0.686759       -18.6877
  37   2.0000      -0.663383       -18.0516
  38   2.0000      -0.644920       -17.5492
  39   2.0000      -0.618719       -16.8362
  40   2.0000      -0.590760       -16.0754
  41   2.0000      -0.573793       -15.6137
  42   2.0000      -0.561325       -15.2744
  43   2.0000      -0.554385       -15.0856
  44   2.0000      -0.545013       -14.8306
  45   2.0000      -0.535960       -14.5842
  46   2.0000      -0.520089       -14.1524
  47   2.0000      -0.510744       -13.8981
  48   2.0000      -0.509777       -13.8717
  49   2.0000      -0.501633       -13.6501
  50   2.0000      -0.490090       -13.3360
  51   2.0000      -0.476371       -12.9627
  52   2.0000      -0.470009       -12.7896
  53   2.0000      -0.466859       -12.7039
  54   2.0000      -0.454866       -12.3775
  55   2.0000      -0.448811       -12.2128
  56   2.0000      -0.442240       -12.0340
  57   2.0000      -0.434442       -11.8218
  58   2.0000      -0.433037       -11.7835
  59   2.0000      -0.421495       -11.4695
  60   2.0000      -0.417271       -11.3545
  61   2.0000      -0.414146       -11.2695
  62   2.0000      -0.410528       -11.1710
  63   2.0000      -0.355021        -9.6606
  64   2.0000      -0.330528        -8.9941
  65   2.0000      -0.327996        -8.9252
  66   2.0000      -0.293463        -7.9855
  67   0.0000       0.023840         0.6487
  68   0.0000       0.067367         1.8332
  69   0.0000       0.111465         3.0331
  70   0.0000       0.115597         3.1455
  71   0.0000       0.136549         3.7157

MULLIKEN ATOMIC CHARGES
-----------------------
   0 S :    0.090095
   1 C :   -0.101911
   2 C :   -0.123456
   3 C :    0.059236
   4 C :   -0.162276
   5 H :   -0.001271
   6 C :    0.031300
   7 H :    0.000548
   8 H :    0.017178
   9 C :   -0.018259
  10 H :    0.024532
  11 H :    0.007571
  12 C :   -0.015445
  13 H :    0.022354
  14 H :    0.052255
  15 H :    0.025037
  16 S :    0.113795
  17 C :   -0.090374
  18 C :   -0.039605
  19 C :   -0.059611
  20 C :   -0.139123
  21 H :    0.018937
  22 C :    0.089858
  23 H :    0.019427
  24 H :    0.036071
  25 C :   -0.083749
  26 H :    0.023640
  27 H :    0.035346
  28 C :   -0.063644
  29 H :    0.023336
  30 H :    0.037877
  31 H :    0.045399
  32 H :    0.061909
  33 H :    0.063021
Sum of atomic charges:   -0.0000000

LOEWDIN ATOMIC CHARGES
----------------------
   0 S :    0.376032
   1 C :   -0.196581
   2 C :   -0.057066
   3 C :   -0.057780
   4 C :   -0.166669
   5 H :    0.028150
   6 C :   -0.038037
   7 H :    0.027340
   8 H :    0.023520
   9 C :   -0.034912
  10 H :    0.029385
  11 H :    0.011597
  12 C :   -0.061254
  13 H :    0.026675
  14 H :    0.034276
  15 H :    0.027440
  16 S :    0.409180
  17 C :   -0.192214
  18 C :   -0.076005
  19 C :   -0.050012
  20 C :   -0.203943
  21 H :    0.030288
  22 C :   -0.027415
  23 H :    0.029763
  24 H :    0.030266
  25 C :   -0.041427
  26 H :    0.021810
  27 H :    0.019484
  28 C :   -0.064075
  29 H :    0.016001
  30 H :    0.031615
  31 H :    0.027604
  32 H :    0.032332
  33 H :    0.034634

  Mayer bond orders larger than 0.100000
B(  0-S ,  1-C ) :   1.1090 B(  0-S ,  4-C ) :   1.1389 B(  1-C ,  2-C ) :   1.6620
B(  1-C , 32-H ) :   0.9569 B(  2-C ,  3-C ) :   1.1845 B(  2-C ,  6-C ) :   1.0232
B(  3-C ,  4-C ) :   1.5964 B(  3-C ,  5-H ) :   1.0045 B(  4-C , 20-C ) :   1.0569
B(  6-C ,  7-H ) :   0.9333 B(  6-C ,  8-H ) :   0.9365 B(  6-C ,  9-C ) :   1.0629
B(  9-C , 10-H ) :   0.9526 B(  9-C , 11-H ) :   0.9543 B(  9-C , 12-C ) :   1.0639
B( 12-C , 13-H ) :   0.9751 B( 12-C , 14-H ) :   0.9740 B( 12-C , 15-H ) :   0.9713
B( 16-S , 17-C ) :   1.1561 B( 16-S , 20-C ) :   1.1319 B( 17-C , 18-C ) :   1.6141
B( 17-C , 33-H ) :   0.9666 B( 18-C , 19-C ) :   1.2259 B( 18-C , 21-H ) :   0.9930
B( 19-C , 20-C ) :   1.5927 B( 19-C , 22-C ) :   1.0353 B( 22-C , 23-H ) :   0.9429
B( 22-C , 24-H ) :   0.9324 B( 22-C , 25-C ) :   1.0698 B( 25-C , 26-H ) :   0.9565
B( 25-C , 27-H ) :   0.9590 B( 25-C , 28-C ) :   1.0715 B( 28-C , 29-H ) :   0.9767
B( 28-C , 30-H ) :   0.9747 B( 28-C , 31-H ) :   0.9767

Dispersion correction           -0.014787747
FINAL SINGLE POINT ENERGY     -1339.872938971930

DIPOLE MOMENT
-------------
                                X             Y             Z
Electronic contribution:      4.89822      25.40167      -4.01851
Nuclear contribution   :     -4.69506     -26.12189       3.99935
                        -----------------------------------------
Total Dipole Moment    :      0.20316      -0.72022      -0.01916
                        -----------------------------------------
Magnitude (a.u.)       :      0.74857
Magnitude (Debye)      :      1.90272

Rotational constants in cm-1:     0.022235     0.007735     0.006756
Rotational constants in MHz :   666.600298   231.875449   202.527992

                             ****ORCA TERMINATED NORMALLY****
TOTAL RUN TIME: 0 days 0 hours 0 minutes 20 seconds 938 msec
