                         Program Version 4.2.1 -  RELEASE  -
|  1> ! wB97X-D3 SP def2-SVP
|  2> %pal
|  3> nprocs 24
|  4> end
|  5>
|  6> * xyz 0 1
|  7> S 	 -120.648 	 35.7227 	 -121.743
|  8> C 	 -119.069 	 35.9704 	 -120.958
|  9> C 	 -119.165 	 36.1127 	 -119.616
| 10> C 	 -120.59 	 36.1363 	 -119.199
| 11> C 	 -121.507 	 35.9554 	 -120.229
| 12> H 	 -120.803 	 36.2314 	 -118.179
| 13> C 	 -118.045 	 36.1851 	 -118.583
| 14> H 	 -118.139 	 37.1661 	 -118.196
| 15> H 	 -117.093 	 36.0906 	 -119.062
| 16> C 	 -118.124 	 35.1095 	 -117.403
| 17> H 	 -117.293 	 35.0443 	 -116.764
| 18> H 	 -118.982 	 35.3005 	 -116.751
| 19> C 	 -118.345 	 33.676 	 -117.955
| 20> H 	 -117.441 	 33.452 	 -118.549
| 21> H 	 -118.55 	 32.8706 	 -117.261
| 22> H 	 -119.193 	 33.6057 	 -118.615
| 23> S 	 -123.542 	 34.5916 	 -121.264
| 24> C 	 -125.026 	 34.4417 	 -120.346
| 25> C 	 -125.008 	 35.113 	 -119.152
| 26> C 	 -123.748 	 35.8669 	 -118.998
| 27> C 	 -122.916 	 35.7224 	 -120.085
| 28> H 	 -125.837 	 35.0242 	 -118.52
| 29> C 	 -123.385 	 36.6573 	 -117.758
| 30> H 	 -122.841 	 37.4747 	 -118.136
| 31> H 	 -122.744 	 36.0199 	 -117.115
| 32> C 	 -124.544 	 36.9963 	 -116.871
| 33> H 	 -124.967 	 35.9958 	 -116.497
| 34> H 	 -125.388 	 37.5415 	 -117.429
| 35> C 	 -124.252 	 37.7929 	 -115.581
| 36> H 	 -125.176 	 37.8877 	 -114.985
| 37> H 	 -124.013 	 38.8265 	 -115.735
| 38> H 	 -123.401 	 37.3233 	 -115.013
| 39> H 	 -118.097 	 35.7034 	 -121.411
| 40> H 	 -125.921 	 33.9561 	 -120.844
| 41> *
| 42>
| 43>                          ****END OF INPUT****

CARTESIAN COORDINATES (ANGSTROEM)
---------------------------------
  S    -120.648000   35.722700  -121.743000
  C    -119.069000   35.970400  -120.958000
  C    -119.165000   36.112700  -119.616000
  C    -120.590000   36.136300  -119.199000
  C    -121.507000   35.955400  -120.229000
  H    -120.803000   36.231400  -118.179000
  C    -118.045000   36.185100  -118.583000
  H    -118.139000   37.166100  -118.196000
  H    -117.093000   36.090600  -119.062000
  C    -118.124000   35.109500  -117.403000
  H    -117.293000   35.044300  -116.764000
  H    -118.982000   35.300500  -116.751000
  C    -118.345000   33.676000  -117.955000
  H    -117.441000   33.452000  -118.549000
  H    -118.550000   32.870600  -117.261000
  H    -119.193000   33.605700  -118.615000
  S    -123.542000   34.591600  -121.264000
  C    -125.026000   34.441700  -120.346000
  C    -125.008000   35.113000  -119.152000
  C    -123.748000   35.866900  -118.998000
  C    -122.916000   35.722400  -120.085000
  H    -125.837000   35.024200  -118.520000
  C    -123.385000   36.657300  -117.758000
  H    -122.841000   37.474700  -118.136000
  H    -122.744000   36.019900  -117.115000
  C    -124.544000   36.996300  -116.871000
  H    -124.967000   35.995800  -116.497000
  H    -125.388000   37.541500  -117.429000
  C    -124.252000   37.792900  -115.581000
  H    -125.176000   37.887700  -114.985000
  H    -124.013000   38.826500  -115.735000
  H    -123.401000   37.323300  -115.013000
  H    -118.097000   35.703400  -121.411000
  H    -125.921000   33.956100  -120.844000

 Total Charge           Charge          ....    0
 Multiplicity           Mult            ....    1
 Number of Electrons    NEL             ....  134
 Basis Dimension        Dim             ....  322

ORBITAL ENERGIES
----------------

  NO   OCC          E(Eh)            E(eV)
   0   2.0000     -88.964870     -2420.8572
   1   2.0000     -88.962435     -2420.7909
   2   2.0000     -10.333026      -281.1759
   3   2.0000     -10.324282      -280.9380
   4   2.0000     -10.322394      -280.8866
   5   2.0000     -10.314175      -280.6630
   6   2.0000     -10.309747      -280.5425
   7   2.0000     -10.303421      -280.3703
   8   2.0000     -10.300035      -280.2782
   9   2.0000     -10.297628      -280.2127
  10   2.0000     -10.297256      -280.2026
  11   2.0000     -10.292911      -280.0843
  12   2.0000     -10.292823      -280.0820
  13   2.0000     -10.291723      -280.0520
  14   2.0000     -10.285237      -279.8755
  15   2.0000     -10.272817      -279.5376
  16   2.0000      -8.079168      -219.8453
  17   2.0000      -8.077853      -219.8095
  18   2.0000      -6.038055      -164.3038
  19   2.0000      -6.036429      -164.2596
  20   2.0000      -6.033871      -164.1900
  21   2.0000      -6.032374      -164.1492
  22   2.0000      -6.029422      -164.0689
  23   2.0000      -6.028387      -164.0407
  24   2.0000      -1.008230       -27.4353
  25   2.0000      -0.979142       -26.6438
  26   2.0000      -0.915505       -24.9122
  27   2.0000      -0.907681       -24.6993
  28   2.0000      -0.872862       -23.7518
  29   2.0000      -0.852320       -23.1928
  30   2.0000      -0.838148       -22.8072
  31   2.0000      -0.815344       -22.1866
  32   2.0000      -0.786125       -21.3915
  33   2.0000      -0.777185       -21.1483
  34   2.0000      -0.712656       -19.3924
  35   2.0000      -0.699875       -19.0446
  36   2.0000      -0.695555       -18.9270
  37   2.0000      -0.655130       -17.8270
  38   2.0000      -0.630860       -17.1666
  39   2.0000      -0.625884       -17.0312
  40   2.0000      -0.597884       -16.2693
  41   2.0000      -0.577797       -15.7227
  42   2.0000      -0.562112       -15.2958
  43   2.0000      -0.557511       -15.1707
  44   2.0000      -0.544369       -14.8130
  45   2.0000      -0.527321       -14.3491
  46   2.0000      -0.520758       -14.1705
  47   2.0000      -0.509048       -13.8519
  48   2.0000      -0.503463       -13.6999
  49   2.0000      -0.497885       -13.5481
  50   2.0000      -0.489261       -13.3135
  51   2.0000      -0.484159       -13.1746
  52   2.0000      -0.469117       -12.7653
  53   2.0000      -0.462130       -12.5752
  54   2.0000      -0.457169       -12.4402
  55   2.0000      -0.455761       -12.4019
  56   2.0000      -0.444663       -12.0999
  57   2.0000      -0.436466       -11.8768
  58   2.0000      -0.432235       -11.7617
  59   2.0000      -0.422388       -11.4938
  60   2.0000      -0.419878       -11.4255
  61   2.0000      -0.418370       -11.3844
  62   2.0000      -0.415273       -11.3001
  63   2.0000      -0.362658        -9.8684
  64   2.0000      -0.332559        -9.0494
  65   2.0000      -0.324174        -8.8212
  66   2.0000      -0.287739        -7.8298
  67   0.0000       0.021289         0.5793
  68   0.0000       0.081150         2.2082
  69   0.0000       0.097259         2.6466
  70   0.0000       0.118597         3.2272
  71   0.0000       0.129828         3.5328

MULLIKEN ATOMIC CHARGES
-----------------------
   0 S :    0.085068
   1 C :   -0.120407
   2 C :   -0.124718
   3 C :   -0.000308
   4 C :   -0.099425
   5 H :   -0.026924
   6 C :    0.119198
   7 H :    0.036280
   8 H :    0.014492
   9 C :   -0.067680
  10 H :    0.028327
  11 H :    0.025473
  12 C :   -0.073824
  13 H :    0.026415
  14 H :    0.034279
  15 H :    0.040121
  16 S :    0.075398
  17 C :   -0.110856
  18 C :   -0.009501
  19 C :   -0.100326
  20 C :   -0.073718
  21 H :    0.004256
  22 C :    0.090737
  23 H :    0.032250
  24 H :    0.047585
  25 C :   -0.145456
  26 H :    0.040048
  27 H :    0.044858
  28 C :   -0.030093
  29 H :    0.037916
  30 H :    0.026269
  31 H :    0.035822
  32 H :    0.055381
  33 H :    0.083062
Sum of atomic charges:   -0.0000000

LOEWDIN ATOMIC CHARGES
----------------------
   0 S :    0.375481
   1 C :   -0.195455
   2 C :   -0.057195
   3 C :   -0.060892
   4 C :   -0.183602
   5 H :    0.014533
   6 C :   -0.017899
   7 H :    0.032270
   8 H :    0.026352
   9 C :   -0.033282
  10 H :    0.019363
  11 H :    0.020515
  12 C :   -0.069868
  13 H :    0.024923
  14 H :    0.024798
  15 H :    0.024376
  16 S :    0.393407
  17 C :   -0.182564
  18 C :   -0.067102
  19 C :   -0.045073
  20 C :   -0.194763
  21 H :    0.024915
  22 C :   -0.036228
  23 H :    0.028211
  24 H :    0.037903
  25 C :   -0.052654
  26 H :    0.031099
  27 H :    0.031008
  28 C :   -0.070090
  29 H :    0.032291
  30 H :    0.019948
  31 H :    0.029156
  32 H :    0.035280
  33 H :    0.040841

  Mayer bond orders larger than 0.100000
B(  0-S ,  1-C ) :   1.1040 B(  0-S ,  4-C ) :   1.1249 B(  1-C ,  2-C ) :   1.6886
B(  1-C , 32-H ) :   0.9505 B(  2-C ,  3-C ) :   1.2001 B(  2-C ,  6-C ) :   1.0170
B(  3-C ,  4-C ) :   1.5741 B(  3-C ,  5-H ) :   0.9980 B(  4-C , 20-C ) :   1.0859
B(  6-C ,  7-H ) :   0.9386 B(  6-C ,  8-H ) :   0.9442 B(  6-C ,  9-C ) :   1.0554
B(  9-C , 10-H ) :   0.9640 B(  9-C , 11-H ) :   0.9571 B(  9-C , 12-C ) :   1.0687
B( 12-C , 13-H ) :   0.9788 B( 12-C , 14-H ) :   0.9763 B( 12-C , 15-H ) :   0.9723
B( 16-S , 17-C ) :   1.1545 B( 16-S , 20-C ) :   1.1153 B( 17-C , 18-C ) :   1.6281
B( 17-C , 33-H ) :   0.9541 B( 18-C , 19-C ) :   1.1943 B( 18-C , 21-H ) :   1.0045
B( 19-C , 20-C ) :   1.6294 B( 19-C , 22-C ) :   1.0391 B( 22-C , 23-H ) :   0.9352
B( 22-C , 24-H ) :   0.9090 B( 22-C , 25-C ) :   1.0799 B( 25-C , 26-H ) :   0.9411
B( 25-C , 27-H ) :   0.9541 B( 25-C , 28-C ) :   1.0858 B( 28-C , 29-H ) :   0.9718
B( 28-C , 30-H ) :   0.9733 B( 28-C , 31-H ) :   0.9712

Dispersion correction           -0.014334091
FINAL SINGLE POINT ENERGY     -1339.871785711176

DIPOLE MOMENT
-------------
                                X             Y             Z
Electronic contribution:     -5.74791      -3.38438     -27.41877
Nuclear contribution   :      5.77296       3.34472      28.26266
                        -----------------------------------------
Total Dipole Moment    :      0.02506      -0.03967       0.84390
                        -----------------------------------------
Magnitude (a.u.)       :      0.84520
Magnitude (Debye)      :      2.14833

Rotational constants in cm-1:     0.016025     0.009893     0.007065
Rotational constants in MHz :   480.421242   296.593920   211.797900

                             ****ORCA TERMINATED NORMALLY****
TOTAL RUN TIME: 0 days 0 hours 0 minutes 21 seconds 920 msec
