                         Program Version 4.2.1 -  RELEASE  -
|  1> ! wB97X-D3 SP def2-SVP
|  2> %pal
|  3> nprocs 24
|  4> end
|  5>
|  6> * xyz 0 1
|  7> S 	 -54.1042 	 -42.0313 	 -75.5693
|  8> C 	 -54.3571 	 -42.2186 	 -73.8747
|  9> C 	 -53.2109 	 -42.6573 	 -73.2406
| 10> C 	 -52.1176 	 -42.8169 	 -74.1589
| 11> C 	 -52.3745 	 -42.3873 	 -75.4626
| 12> H 	 -51.1114 	 -43.263 	 -74.0096
| 13> C 	 -53.1725 	 -43.3203 	 -71.8641
| 14> H 	 -53.5847 	 -42.601 	 -71.1341
| 15> H 	 -52.1935 	 -43.4533 	 -71.4739
| 16> C 	 -53.849 	 -44.7142 	 -71.8409
| 17> H 	 -54.586 	 -44.6229 	 -72.6281
| 18> H 	 -53.1639 	 -45.4246 	 -72.3109
| 19> C 	 -54.2284 	 -45.2503 	 -70.4546
| 20> H 	 -54.7342 	 -44.4782 	 -69.8268
| 21> H 	 -54.8826 	 -46.074 	 -70.6853
| 22> H 	 -53.4106 	 -45.6575 	 -69.8982
| 23> S 	 -52.2334 	 -43.811 	 -77.73
| 24> C 	 -50.8292 	 -43.8804 	 -78.7354
| 25> C 	 -49.7846 	 -43.226 	 -78.1709
| 26> C 	 -50.1774 	 -42.5768 	 -76.935
| 27> C 	 -51.539 	 -42.6647 	 -76.6552
| 28> H 	 -48.7858 	 -43.3166 	 -78.5292
| 29> C 	 -49.144 	 -42.0478 	 -75.9861
| 30> H 	 -49.5941 	 -41.2031 	 -75.3714
| 31> H 	 -48.4411 	 -41.5109 	 -76.6756
| 32> C 	 -48.3194 	 -43.092 	 -75.1858
| 33> H 	 -49.0211 	 -43.6005 	 -74.5328
| 34> H 	 -47.7642 	 -42.4673 	 -74.4334
| 35> C 	 -47.3949 	 -43.9667 	 -76.019
| 36> H 	 -46.6563 	 -43.4122 	 -76.6787
| 37> H 	 -47.8393 	 -44.8071 	 -76.5949
| 38> H 	 -46.8886 	 -44.492 	 -75.3376
| 39> H 	 -55.3365 	 -42.0722 	 -73.335
| 40> H 	 -50.8104 	 -44.3804 	 -79.6531
| 41> *
| 42>
| 43>                          ****END OF INPUT****

CARTESIAN COORDINATES (ANGSTROEM)
---------------------------------
  S    -54.104200  -42.031300  -75.569300
  C    -54.357100  -42.218600  -73.874700
  C    -53.210900  -42.657300  -73.240600
  C    -52.117600  -42.816900  -74.158900
  C    -52.374500  -42.387300  -75.462600
  H    -51.111400  -43.263000  -74.009600
  C    -53.172500  -43.320300  -71.864100
  H    -53.584700  -42.601000  -71.134100
  H    -52.193500  -43.453300  -71.473900
  C    -53.849000  -44.714200  -71.840900
  H    -54.586000  -44.622900  -72.628100
  H    -53.163900  -45.424600  -72.310900
  C    -54.228400  -45.250300  -70.454600
  H    -54.734200  -44.478200  -69.826800
  H    -54.882600  -46.074000  -70.685300
  H    -53.410600  -45.657500  -69.898200
  S    -52.233400  -43.811000  -77.730000
  C    -50.829200  -43.880400  -78.735400
  C    -49.784600  -43.226000  -78.170900
  C    -50.177400  -42.576800  -76.935000
  C    -51.539000  -42.664700  -76.655200
  H    -48.785800  -43.316600  -78.529200
  C    -49.144000  -42.047800  -75.986100
  H    -49.594100  -41.203100  -75.371400
  H    -48.441100  -41.510900  -76.675600
  C    -48.319400  -43.092000  -75.185800
  H    -49.021100  -43.600500  -74.532800
  H    -47.764200  -42.467300  -74.433400
  C    -47.394900  -43.966700  -76.019000
  H    -46.656300  -43.412200  -76.678700
  H    -47.839300  -44.807100  -76.594900
  H    -46.888600  -44.492000  -75.337600
  H    -55.336500  -42.072200  -73.335000
  H    -50.810400  -44.380400  -79.653100

 Total Charge           Charge          ....    0
 Multiplicity           Mult            ....    1
 Number of Electrons    NEL             ....  134
 Basis Dimension        Dim             ....  322

ORBITAL ENERGIES
----------------

  NO   OCC          E(Eh)            E(eV)
   0   2.0000     -88.968047     -2420.9436
   1   2.0000     -88.958555     -2420.6853
   2   2.0000     -10.332560      -281.1633
   3   2.0000     -10.324001      -280.9303
   4   2.0000     -10.320221      -280.8275
   5   2.0000     -10.308682      -280.5135
   6   2.0000     -10.303335      -280.3680
   7   2.0000     -10.300600      -280.2936
   8   2.0000     -10.299491      -280.2634
   9   2.0000     -10.296778      -280.1896
  10   2.0000     -10.293023      -280.0874
  11   2.0000     -10.289646      -279.9955
  12   2.0000     -10.288465      -279.9634
  13   2.0000     -10.284672      -279.8602
  14   2.0000     -10.280950      -279.7589
  15   2.0000     -10.280126      -279.7365
  16   2.0000      -8.082653      -219.9402
  17   2.0000      -8.074618      -219.7215
  18   2.0000      -6.041175      -164.3887
  19   2.0000      -6.037108      -164.2781
  20   2.0000      -6.033455      -164.1787
  21   2.0000      -6.033146      -164.1702
  22   2.0000      -6.028909      -164.0550
  23   2.0000      -6.025294      -163.9566
  24   2.0000      -1.009434       -27.4681
  25   2.0000      -0.987496       -26.8711
  26   2.0000      -0.909363       -24.7450
  27   2.0000      -0.907568       -24.6962
  28   2.0000      -0.871368       -23.7111
  29   2.0000      -0.850801       -23.1515
  30   2.0000      -0.845376       -23.0038
  31   2.0000      -0.817343       -22.2410
  32   2.0000      -0.783422       -21.3180
  33   2.0000      -0.774212       -21.0674
  34   2.0000      -0.707838       -19.2612
  35   2.0000      -0.703063       -19.1313
  36   2.0000      -0.691490       -18.8164
  37   2.0000      -0.666981       -18.1495
  38   2.0000      -0.641131       -17.4461
  39   2.0000      -0.612358       -16.6631
  40   2.0000      -0.589547       -16.0424
  41   2.0000      -0.573744       -15.6124
  42   2.0000      -0.555695       -15.1212
  43   2.0000      -0.550331       -14.9753
  44   2.0000      -0.542509       -14.7624
  45   2.0000      -0.525988       -14.3128
  46   2.0000      -0.518468       -14.1082
  47   2.0000      -0.510955       -13.9038
  48   2.0000      -0.504556       -13.7297
  49   2.0000      -0.502567       -13.6755
  50   2.0000      -0.492310       -13.3964
  51   2.0000      -0.487999       -13.2791
  52   2.0000      -0.474026       -12.8989
  53   2.0000      -0.466449       -12.6927
  54   2.0000      -0.462657       -12.5895
  55   2.0000      -0.443721       -12.0742
  56   2.0000      -0.440511       -11.9869
  57   2.0000      -0.436951       -11.8900
  58   2.0000      -0.435206       -11.8425
  59   2.0000      -0.429872       -11.6974
  60   2.0000      -0.422093       -11.4857
  61   2.0000      -0.408563       -11.1176
  62   2.0000      -0.403020       -10.9667
  63   2.0000      -0.350734        -9.5440
  64   2.0000      -0.328261        -8.9324
  65   2.0000      -0.320641        -8.7251
  66   2.0000      -0.295360        -8.0371
  67   0.0000       0.029827         0.8116
  68   0.0000       0.071102         1.9348
  69   0.0000       0.112008         3.0479
  70   0.0000       0.123775         3.3681
  71   0.0000       0.133125         3.6225

MULLIKEN ATOMIC CHARGES
-----------------------
   0 S :    0.110688
   1 C :   -0.137908
   2 C :   -0.081037
   3 C :    0.020007
   4 C :   -0.153337
   5 H :    0.015262
   6 C :    0.054246
   7 H :    0.024541
   8 H :    0.007088
   9 C :   -0.072249
  10 H :    0.019534
  11 H :    0.020248
  12 C :   -0.022638
  13 H :    0.039830
  14 H :    0.036154
  15 H :    0.034032
  16 S :    0.092739
  17 C :   -0.067949
  18 C :   -0.006656
  19 C :   -0.080281
  20 C :   -0.118136
  21 H :    0.010595
  22 C :   -0.002837
  23 H :    0.044780
  24 H :    0.020858
  25 C :   -0.051892
  26 H :    0.019209
  27 H :    0.035759
  28 C :   -0.013608
  29 H :    0.044786
  30 H :    0.044007
  31 H :   -0.000615
  32 H :    0.077791
  33 H :    0.036987
Sum of atomic charges:    0.0000000

LOEWDIN ATOMIC CHARGES
----------------------
   0 S :    0.414866
   1 C :   -0.209245
   2 C :   -0.071864
   3 C :   -0.059720
   4 C :   -0.200030
   5 H :    0.034511
   6 C :   -0.035260
   7 H :    0.029665
   8 H :    0.020842
   9 C :   -0.042973
  10 H :    0.020440
  11 H :    0.026957
  12 C :   -0.062233
  13 H :    0.029355
  14 H :    0.031070
  15 H :    0.024351
  16 S :    0.422384
  17 C :   -0.178121
  18 C :   -0.067636
  19 C :   -0.062281
  20 C :   -0.210985
  21 H :    0.028513
  22 C :   -0.050401
  23 H :    0.038522
  24 H :    0.030554
  25 C :   -0.036050
  26 H :    0.019383
  27 H :    0.034132
  28 C :   -0.066543
  29 H :    0.035858
  30 H :    0.035453
  31 H :    0.012424
  32 H :    0.045653
  33 H :    0.018407

  Mayer bond orders larger than 0.100000
B(  0-S ,  1-C ) :   1.1609 B(  0-S ,  4-C ) :   1.1534 B(  1-C ,  2-C ) :   1.5801
B(  1-C , 32-H ) :   0.9587 B(  2-C ,  3-C ) :   1.2595 B(  2-C ,  6-C ) :   1.0439
B(  3-C ,  4-C ) :   1.5580 B(  3-C ,  5-H ) :   0.9848 B(  4-C , 20-C ) :   1.0153
B(  6-C ,  7-H ) :   0.9407 B(  6-C ,  8-H ) :   0.9419 B(  6-C ,  9-C ) :   1.0459
B(  9-C , 10-H ) :   0.9659 B(  9-C , 11-H ) :   0.9486 B(  9-C , 12-C ) :   1.0664
B( 12-C , 13-H ) :   0.9785 B( 12-C , 14-H ) :   0.9720 B( 12-C , 15-H ) :   0.9745
B( 16-S , 17-C ) :   1.1665 B( 16-S , 20-C ) :   1.1497 B( 17-C , 18-C ) :   1.5897
B( 17-C , 33-H ) :   0.9753 B( 18-C , 19-C ) :   1.2451 B( 18-C , 21-H ) :   0.9959
B( 19-C , 20-C ) :   1.6018 B( 19-C , 22-C ) :   1.0524 B( 22-C , 23-H ) :   0.9389
B( 22-C , 24-H ) :   0.9341 B( 22-C , 25-C ) :   1.0595 B( 25-C , 26-H ) :   0.9488
B( 25-C , 27-H ) :   0.9519 B( 25-C , 28-C ) :   1.0787 B( 28-C , 29-H ) :   0.9719
B( 28-C , 30-H ) :   0.9638 B( 28-C , 31-H ) :   0.9611

Dispersion correction           -0.014598292
FINAL SINGLE POINT ENERGY     -1339.859265411823

DIPOLE MOMENT
-------------
                                X             Y             Z
Electronic contribution:    -13.49483       8.73204     -20.26984
Nuclear contribution   :     14.01677      -9.24220      20.76383
                        -----------------------------------------
Total Dipole Moment    :      0.52194      -0.51016       0.49399
                        -----------------------------------------
Magnitude (a.u.)       :      0.88131
Magnitude (Debye)      :      2.24012

Rotational constants in cm-1:     0.019751     0.008185     0.006729
Rotational constants in MHz :   592.127018   245.374518   201.730114

                             ****ORCA TERMINATED NORMALLY****
TOTAL RUN TIME: 0 days 0 hours 0 minutes 21 seconds 570 msec
