                         Program Version 4.2.1 -  RELEASE  -
|  1> ! wB97X-D3 SP def2-SVP
|  2> %pal
|  3> nprocs 24
|  4> end
|  5>
|  6> * xyz 0 1
|  7> S 	 -38.3839 	 -48.8134 	 -73.1713
|  8> C 	 -39.0204 	 -47.2575 	 -73.7032
|  9> C 	 -38.0992 	 -46.2787 	 -73.4894
| 10> C 	 -36.9074 	 -46.7934 	 -72.934
| 11> C 	 -36.8632 	 -48.1374 	 -72.6663
| 12> H 	 -36.0453 	 -46.2936 	 -72.6708
| 13> C 	 -38.2259 	 -44.7958 	 -73.8915
| 14> H 	 -39.2687 	 -44.5949 	 -74.3174
| 15> H 	 -37.4882 	 -44.6117 	 -74.6363
| 16> C 	 -37.8152 	 -43.7626 	 -72.805
| 17> H 	 -36.8495 	 -43.9589 	 -72.4453
| 18> H 	 -37.8612 	 -42.7687 	 -73.1746
| 19> C 	 -38.7493 	 -43.9314 	 -71.6578
| 20> H 	 -39.7712 	 -43.8056 	 -72.0159
| 21> H 	 -38.617 	 -44.9511 	 -71.2187
| 22> H 	 -38.5708 	 -43.2671 	 -70.8199
| 23> S 	 -36.288 	 -50.1422 	 -70.956
| 24> C 	 -34.6643 	 -50.4016 	 -70.4102
| 25> C 	 -33.7931 	 -49.5905 	 -71.1115
| 26> C 	 -34.3892 	 -48.8273 	 -72.1642
| 27> C 	 -35.745 	 -48.8786 	 -72.0785
| 28> H 	 -32.7362 	 -49.5656 	 -70.8079
| 29> C 	 -33.5449 	 -47.8755 	 -72.9653
| 30> H 	 -33.6634 	 -46.7987 	 -72.7906
| 31> H 	 -34.0216 	 -47.9766 	 -73.9919
| 32> C 	 -32.0885 	 -48.2458 	 -73.244
| 33> H 	 -31.5779 	 -47.899 	 -72.3839
| 34> H 	 -31.8641 	 -47.661 	 -74.0784
| 35> C 	 -31.8781 	 -49.7186 	 -73.6344
| 36> H 	 -31.6012 	 -50.2976 	 -72.7737
| 37> H 	 -31.155 	 -49.8368 	 -74.406
| 38> H 	 -32.8067 	 -50.1476 	 -74.0155
| 39> H 	 -39.8983 	 -47.0186 	 -74.385
| 40> H 	 -34.3874 	 -51.0136 	 -69.6215
| 41> *
| 42>
| 43>                          ****END OF INPUT****

CARTESIAN COORDINATES (ANGSTROEM)
---------------------------------
  S    -38.383900  -48.813400  -73.171300
  C    -39.020400  -47.257500  -73.703200
  C    -38.099200  -46.278700  -73.489400
  C    -36.907400  -46.793400  -72.934000
  C    -36.863200  -48.137400  -72.666300
  H    -36.045300  -46.293600  -72.670800
  C    -38.225900  -44.795800  -73.891500
  H    -39.268700  -44.594900  -74.317400
  H    -37.488200  -44.611700  -74.636300
  C    -37.815200  -43.762600  -72.805000
  H    -36.849500  -43.958900  -72.445300
  H    -37.861200  -42.768700  -73.174600
  C    -38.749300  -43.931400  -71.657800
  H    -39.771200  -43.805600  -72.015900
  H    -38.617000  -44.951100  -71.218700
  H    -38.570800  -43.267100  -70.819900
  S    -36.288000  -50.142200  -70.956000
  C    -34.664300  -50.401600  -70.410200
  C    -33.793100  -49.590500  -71.111500
  C    -34.389200  -48.827300  -72.164200
  C    -35.745000  -48.878600  -72.078500
  H    -32.736200  -49.565600  -70.807900
  C    -33.544900  -47.875500  -72.965300
  H    -33.663400  -46.798700  -72.790600
  H    -34.021600  -47.976600  -73.991900
  C    -32.088500  -48.245800  -73.244000
  H    -31.577900  -47.899000  -72.383900
  H    -31.864100  -47.661000  -74.078400
  C    -31.878100  -49.718600  -73.634400
  H    -31.601200  -50.297600  -72.773700
  H    -31.155000  -49.836800  -74.406000
  H    -32.806700  -50.147600  -74.015500
  H    -39.898300  -47.018600  -74.385000
  H    -34.387400  -51.013600  -69.621500

 Total Charge           Charge          ....    0
 Multiplicity           Mult            ....    1
 Number of Electrons    NEL             ....  134
 Basis Dimension        Dim             ....  322

ORBITAL ENERGIES
----------------

  NO   OCC          E(Eh)            E(eV)
   0   2.0000     -88.965900     -2420.8852
   1   2.0000     -88.963422     -2420.8178
   2   2.0000     -10.330302      -281.1018
   3   2.0000     -10.329449      -281.0786
   4   2.0000     -10.317273      -280.7473
   5   2.0000     -10.312365      -280.6137
   6   2.0000     -10.304902      -280.4106
   7   2.0000     -10.300123      -280.2806
   8   2.0000     -10.297969      -280.2220
   9   2.0000     -10.295524      -280.1554
  10   2.0000     -10.295159      -280.1455
  11   2.0000     -10.283892      -279.8389
  12   2.0000     -10.280680      -279.7515
  13   2.0000     -10.278156      -279.6828
  14   2.0000     -10.273838      -279.5653
  15   2.0000     -10.268460      -279.4190
  16   2.0000      -8.080426      -219.8796
  17   2.0000      -8.078509      -219.8274
  18   2.0000      -6.039075      -164.3316
  19   2.0000      -6.036980      -164.2746
  20   2.0000      -6.034918      -164.2185
  21   2.0000      -6.033026      -164.1670
  22   2.0000      -6.031066      -164.1136
  23   2.0000      -6.029219      -164.0634
  24   2.0000      -1.011723       -27.5304
  25   2.0000      -0.989373       -26.9222
  26   2.0000      -0.917928       -24.9781
  27   2.0000      -0.915341       -24.9077
  28   2.0000      -0.874139       -23.7865
  29   2.0000      -0.853575       -23.2270
  30   2.0000      -0.841646       -22.9023
  31   2.0000      -0.816802       -22.2263
  32   2.0000      -0.788252       -21.4494
  33   2.0000      -0.775879       -21.1127
  34   2.0000      -0.713962       -19.4279
  35   2.0000      -0.701318       -19.0838
  36   2.0000      -0.694544       -18.8995
  37   2.0000      -0.662777       -18.0351
  38   2.0000      -0.641013       -17.4429
  39   2.0000      -0.623446       -16.9648
  40   2.0000      -0.603187       -16.4135
  41   2.0000      -0.570690       -15.5293
  42   2.0000      -0.563947       -15.3458
  43   2.0000      -0.556505       -15.1433
  44   2.0000      -0.546014       -14.8578
  45   2.0000      -0.542756       -14.7691
  46   2.0000      -0.522206       -14.2099
  47   2.0000      -0.511982       -13.9317
  48   2.0000      -0.510017       -13.8783
  49   2.0000      -0.494838       -13.4652
  50   2.0000      -0.487505       -13.2657
  51   2.0000      -0.479387       -13.0448
  52   2.0000      -0.471805       -12.8385
  53   2.0000      -0.469366       -12.7721
  54   2.0000      -0.459169       -12.4946
  55   2.0000      -0.444685       -12.1005
  56   2.0000      -0.442900       -12.0519
  57   2.0000      -0.438967       -11.9449
  58   2.0000      -0.433293       -11.7905
  59   2.0000      -0.424605       -11.5541
  60   2.0000      -0.422018       -11.4837
  61   2.0000      -0.414424       -11.2770
  62   2.0000      -0.413035       -11.2392
  63   2.0000      -0.354792        -9.6544
  64   2.0000      -0.331585        -9.0229
  65   2.0000      -0.330105        -8.9826
  66   2.0000      -0.290614        -7.9080
  67   0.0000       0.027145         0.7387
  68   0.0000       0.074236         2.0201
  69   0.0000       0.106715         2.9039
  70   0.0000       0.121675         3.3109
  71   0.0000       0.140566         3.8250

MULLIKEN ATOMIC CHARGES
-----------------------
   0 S :    0.105556
   1 C :   -0.140696
   2 C :   -0.072578
   3 C :    0.020866
   4 C :   -0.116036
   5 H :   -0.039506
   6 C :    0.057856
   7 H :    0.032581
   8 H :    0.029871
   9 C :   -0.037592
  10 H :    0.015424
  11 H :    0.025039
  12 C :   -0.063115
  13 H :    0.023151
  14 H :    0.047268
  15 H :    0.026346
  16 S :    0.092992
  17 C :   -0.051903
  18 C :   -0.067178
  19 C :   -0.010051
  20 C :   -0.150961
  21 H :    0.030792
  22 C :   -0.025363
  23 H :    0.054097
  24 H :    0.031253
  25 C :   -0.029603
  26 H :    0.026363
  27 H :    0.018045
  28 C :   -0.030931
  29 H :    0.029030
  30 H :    0.029976
  31 H :    0.036230
  32 H :    0.071585
  33 H :    0.031191
Sum of atomic charges:   -0.0000000

LOEWDIN ATOMIC CHARGES
----------------------
   0 S :    0.399745
   1 C :   -0.207821
   2 C :   -0.066581
   3 C :   -0.065182
   4 C :   -0.192102
   5 H :    0.013859
   6 C :   -0.024332
   7 H :    0.034357
   8 H :    0.027996
   9 C :   -0.033956
  10 H :    0.016204
  11 H :    0.021925
  12 C :   -0.066841
  13 H :    0.021829
  14 H :    0.032774
  15 H :    0.019753
  16 S :    0.398721
  17 C :   -0.177516
  18 C :   -0.068918
  19 C :   -0.065489
  20 C :   -0.174040
  21 H :    0.033916
  22 C :   -0.042962
  23 H :    0.032140
  24 H :    0.039350
  25 C :   -0.034021
  26 H :    0.017232
  27 H :    0.023015
  28 C :   -0.057868
  29 H :    0.023896
  30 H :    0.023061
  31 H :    0.031378
  32 H :    0.049884
  33 H :    0.016594

  Mayer bond orders larger than 0.100000
B(  0-S ,  1-C ) :   1.1263 B(  0-S ,  4-C ) :   1.1410 B(  1-C ,  2-C ) :   1.6370
B(  1-C , 32-H ) :   0.9517 B(  2-C ,  3-C ) :   1.2176 B(  2-C ,  6-C ) :   1.0125
B(  3-C ,  4-C ) :   1.5897 B(  3-C ,  5-H ) :   1.0126 B(  4-C , 20-C ) :   1.0443
B(  6-C ,  7-H ) :   0.9474 B(  6-C ,  8-H ) :   0.9386 B(  6-C ,  9-C ) :   1.0737
B(  9-C , 10-H ) :   0.9502 B(  9-C , 11-H ) :   0.9539 B(  9-C , 12-C ) :   1.0865
B( 12-C , 13-H ) :   0.9756 B( 12-C , 14-H ) :   0.9701 B( 12-C , 15-H ) :   0.9734
B( 16-S , 17-C ) :   1.1475 B( 16-S , 20-C ) :   1.1331 B( 17-C , 18-C ) :   1.6293
B( 17-C , 33-H ) :   0.9765 B( 18-C , 19-C ) :   1.2047 B( 18-C , 21-H ) :   0.9820
B( 19-C , 20-C ) :   1.6234 B( 19-C , 22-C ) :   1.0304 B( 22-C , 23-H ) :   0.9392
B( 22-C , 24-H ) :   0.9288 B( 22-C , 25-C ) :   1.0797 B( 25-C , 26-H ) :   0.9522
B( 25-C , 27-H ) :   0.9532 B( 25-C , 28-C ) :   1.0770 B( 28-C , 29-H ) :   0.9704
B( 28-C , 30-H ) :   0.9764 B( 28-C , 31-H ) :   0.9753

Dispersion correction           -0.014414590
FINAL SINGLE POINT ENERGY     -1339.862316759886

DIPOLE MOMENT
-------------
                                X             Y             Z
Electronic contribution:    -11.99168     -18.54290       5.14369
Nuclear contribution   :     12.58964      19.13872      -5.32248
                        -----------------------------------------
Total Dipole Moment    :      0.59796       0.59582      -0.17879
                        -----------------------------------------
Magnitude (a.u.)       :      0.86286
Magnitude (Debye)      :      2.19321

Rotational constants in cm-1:     0.020274     0.008223     0.006934
Rotational constants in MHz :   607.802233   246.525436   207.884643

                             ****ORCA TERMINATED NORMALLY****
TOTAL RUN TIME: 0 days 0 hours 0 minutes 22 seconds 67 msec
