                         Program Version 4.2.1 -  RELEASE  -
|  1> ! wB97X-D3 SP def2-SVP
|  2> %pal
|  3> nprocs 24
|  4> end
|  5>
|  6> * xyz 0 1
|  7> S 	 -51.7126 	 13.0185 	 -98.2508
|  8> C 	 -52.2085 	 11.3671 	 -98.4971
|  9> C 	 -51.4196 	 10.6133 	 -99.3459
| 10> C 	 -50.1945 	 11.3461 	 -99.5579
| 11> C 	 -50.1926 	 12.6195 	 -98.9942
| 12> H 	 -49.2955 	 10.937 	 -99.9914
| 13> C 	 -51.56 	 9.08628 	 -99.4041
| 14> H 	 -52.5637 	 8.79705 	 -99.2025
| 15> H 	 -50.9854 	 8.70453 	 -98.6085
| 16> C 	 -51.1728 	 8.31538 	 -100.733
| 17> H 	 -50.0876 	 8.40216 	 -100.917
| 18> H 	 -51.3914 	 7.22083 	 -100.695
| 19> C 	 -51.9746 	 8.86899 	 -101.953
| 20> H 	 -52.9691 	 8.61067 	 -101.698
| 21> H 	 -52.0474 	 9.97823 	 -102.054
| 22> H 	 -51.4969 	 8.64685 	 -102.939
| 23> S 	 -49.5494 	 14.9894 	 -100.076
| 24> C 	 -47.9369 	 15.5943 	 -99.9413
| 25> C 	 -47.1473 	 14.6337 	 -99.2999
| 26> C 	 -47.8049 	 13.5238 	 -98.6896
| 27> C 	 -49.164 	 13.5982 	 -99.0743
| 28> H 	 -46.0896 	 14.733 	 -99.191
| 29> C 	 -47.0754 	 12.4505 	 -97.9426
| 30> H 	 -46.0769 	 12.3862 	 -98.4309
| 31> H 	 -47.5606 	 11.4564 	 -98.174
| 32> C 	 -46.9283 	 12.8705 	 -96.5613
| 33> H 	 -47.8591 	 12.7931 	 -96.0026
| 34> H 	 -46.6011 	 13.9264 	 -96.4768
| 35> C 	 -45.9275 	 11.9892 	 -95.872
| 36> H 	 -46.3102 	 10.9535 	 -95.9615
| 37> H 	 -46.0482 	 12.4219 	 -94.8739
| 38> H 	 -44.8376 	 12.1039 	 -96.1502
| 39> H 	 -53.0562 	 10.9901 	 -97.9802
| 40> H 	 -47.5132 	 16.4333 	 -100.522
| 41> *
| 42>
| 43>                          ****END OF INPUT****

CARTESIAN COORDINATES (ANGSTROEM)
---------------------------------
  S    -51.712600   13.018500  -98.250800
  C    -52.208500   11.367100  -98.497100
  C    -51.419600   10.613300  -99.345900
  C    -50.194500   11.346100  -99.557900
  C    -50.192600   12.619500  -98.994200
  H    -49.295500   10.937000  -99.991400
  C    -51.560000    9.086280  -99.404100
  H    -52.563700    8.797050  -99.202500
  H    -50.985400    8.704530  -98.608500
  C    -51.172800    8.315380  -100.733000
  H    -50.087600    8.402160  -100.917000
  H    -51.391400    7.220830  -100.695000
  C    -51.974600    8.868990  -101.953000
  H    -52.969100    8.610670  -101.698000
  H    -52.047400    9.978230  -102.054000
  H    -51.496900    8.646850  -102.939000
  S    -49.549400   14.989400  -100.076000
  C    -47.936900   15.594300  -99.941300
  C    -47.147300   14.633700  -99.299900
  C    -47.804900   13.523800  -98.689600
  C    -49.164000   13.598200  -99.074300
  H    -46.089600   14.733000  -99.191000
  C    -47.075400   12.450500  -97.942600
  H    -46.076900   12.386200  -98.430900
  H    -47.560600   11.456400  -98.174000
  C    -46.928300   12.870500  -96.561300
  H    -47.859100   12.793100  -96.002600
  H    -46.601100   13.926400  -96.476800
  C    -45.927500   11.989200  -95.872000
  H    -46.310200   10.953500  -95.961500
  H    -46.048200   12.421900  -94.873900
  H    -44.837600   12.103900  -96.150200
  H    -53.056200   10.990100  -97.980200
  H    -47.513200   16.433300  -100.522000

 Total Charge           Charge          ....    0
 Multiplicity           Mult            ....    1
 Number of Electrons    NEL             ....  134
 Basis Dimension        Dim             ....  322

ORBITAL ENERGIES
----------------

  NO   OCC          E(Eh)            E(eV)
   0   2.0000     -88.965524     -2420.8750
   1   2.0000     -88.964217     -2420.8394
   2   2.0000     -10.322314      -280.8844
   3   2.0000     -10.320672      -280.8398
   4   2.0000     -10.315713      -280.7048
   5   2.0000     -10.310754      -280.5699
   6   2.0000     -10.304797      -280.4078
   7   2.0000     -10.300131      -280.2808
   8   2.0000     -10.296460      -280.1809
   9   2.0000     -10.296152      -280.1725
  10   2.0000     -10.293878      -280.1107
  11   2.0000     -10.292422      -280.0710
  12   2.0000     -10.289794      -279.9995
  13   2.0000     -10.279833      -279.7285
  14   2.0000     -10.279509      -279.7197
  15   2.0000     -10.278075      -279.6806
  16   2.0000      -8.080985      -219.8948
  17   2.0000      -8.079161      -219.8452
  18   2.0000      -6.039298      -164.3376
  19   2.0000      -6.037598      -164.2914
  20   2.0000      -6.035530      -164.2351
  21   2.0000      -6.033619      -164.1831
  22   2.0000      -6.031779      -164.1331
  23   2.0000      -6.030000      -164.0846
  24   2.0000      -1.007777       -27.4230
  25   2.0000      -0.982402       -26.7325
  26   2.0000      -0.928200       -25.2576
  27   2.0000      -0.905788       -24.6478
  28   2.0000      -0.867031       -23.5931
  29   2.0000      -0.855872       -23.2895
  30   2.0000      -0.845161       -22.9980
  31   2.0000      -0.808112       -21.9898
  32   2.0000      -0.783973       -21.3330
  33   2.0000      -0.769287       -20.9334
  34   2.0000      -0.705163       -19.1885
  35   2.0000      -0.692175       -18.8350
  36   2.0000      -0.688523       -18.7357
  37   2.0000      -0.661061       -17.9884
  38   2.0000      -0.643415       -17.5082
  39   2.0000      -0.620053       -16.8725
  40   2.0000      -0.599672       -16.3179
  41   2.0000      -0.570625       -15.5275
  42   2.0000      -0.563472       -15.3329
  43   2.0000      -0.551162       -14.9979
  44   2.0000      -0.539223       -14.6730
  45   2.0000      -0.533572       -14.5192
  46   2.0000      -0.520476       -14.1629
  47   2.0000      -0.515404       -14.0249
  48   2.0000      -0.506817       -13.7912
  49   2.0000      -0.493422       -13.4267
  50   2.0000      -0.486867       -13.2483
  51   2.0000      -0.479076       -13.0363
  52   2.0000      -0.469232       -12.7685
  53   2.0000      -0.460538       -12.5319
  54   2.0000      -0.455481       -12.3943
  55   2.0000      -0.449818       -12.2402
  56   2.0000      -0.442221       -12.0334
  57   2.0000      -0.437632       -11.9086
  58   2.0000      -0.432965       -11.7816
  59   2.0000      -0.424191       -11.5428
  60   2.0000      -0.418934       -11.3998
  61   2.0000      -0.411910       -11.2086
  62   2.0000      -0.409213       -11.1353
  63   2.0000      -0.337413        -9.1815
  64   2.0000      -0.331785        -9.0283
  65   2.0000      -0.327004        -8.8982
  66   2.0000      -0.289016        -7.8645
  67   0.0000       0.038093         1.0366
  68   0.0000       0.057490         1.5644
  69   0.0000       0.108895         2.9632
  70   0.0000       0.117761         3.2044
  71   0.0000       0.124563         3.3895

MULLIKEN ATOMIC CHARGES
-----------------------
   0 S :    0.121032
   1 C :   -0.116037
   2 C :   -0.041465
   3 C :    0.038312
   4 C :   -0.190369
   5 H :    0.012904
   6 C :    0.049258
   7 H :    0.013525
   8 H :    0.036613
   9 C :   -0.096314
  10 H :    0.030685
  11 H :    0.045493
  12 C :   -0.072943
  13 H :    0.024286
  14 H :    0.037657
  15 H :    0.047841
  16 S :    0.117338
  17 C :   -0.090246
  18 C :   -0.047865
  19 C :   -0.041508
  20 C :   -0.180758
  21 H :    0.002539
  22 C :    0.088613
  23 H :    0.021561
  24 H :    0.034586
  25 C :   -0.094140
  26 H :    0.034695
  27 H :    0.035062
  28 C :   -0.043780
  29 H :    0.037783
  30 H :    0.031303
  31 H :    0.047586
  32 H :    0.035950
  33 H :    0.070802
Sum of atomic charges:    0.0000000

LOEWDIN ATOMIC CHARGES
----------------------
   0 S :    0.411247
   1 C :   -0.181646
   2 C :   -0.063060
   3 C :   -0.053496
   4 C :   -0.207295
   5 H :    0.027753
   6 C :   -0.022255
   7 H :    0.024187
   8 H :    0.029398
   9 C :   -0.043912
  10 H :    0.018338
  11 H :    0.031639
  12 C :   -0.078001
  13 H :    0.020831
  14 H :    0.029897
  15 H :    0.034140
  16 S :    0.418174
  17 C :   -0.210139
  18 C :   -0.068762
  19 C :   -0.050936
  20 C :   -0.206704
  21 H :    0.020360
  22 C :   -0.038713
  23 H :    0.035575
  24 H :    0.037254
  25 C :   -0.046820
  26 H :    0.030383
  27 H :    0.030983
  28 C :   -0.070052
  29 H :    0.028488
  30 H :    0.029653
  31 H :    0.029570
  32 H :    0.015928
  33 H :    0.037994

  Mayer bond orders larger than 0.100000
B(  0-S ,  1-C ) :   1.1505 B(  0-S ,  4-C ) :   1.1422 B(  1-C ,  2-C ) :   1.6141
B(  1-C , 32-H ) :   0.9725 B(  2-C ,  3-C ) :   1.2060 B(  2-C ,  6-C ) :   1.0238
B(  3-C ,  4-C ) :   1.6059 B(  3-C ,  5-H ) :   0.9924 B(  4-C , 20-C ) :   1.0339
B(  6-C ,  7-H ) :   0.9462 B(  6-C ,  8-H ) :   0.9460 B(  6-C ,  9-C ) :   1.0620
B(  9-C , 10-H ) :   0.9603 B(  9-C , 11-H ) :   0.9613 B(  9-C , 12-C ) :   1.0572
B( 12-C , 13-H ) :   0.9783 B( 12-C , 14-H ) :   0.9757 B( 12-C , 15-H ) :   0.9751
B( 16-S , 17-C ) :   1.1489 B( 16-S , 20-C ) :   1.1722 B( 17-C , 18-C ) :   1.5882
B( 17-C , 20-C ) :   0.1059 B( 17-C , 33-H ) :   0.9648 B( 18-C , 19-C ) :   1.2709
B( 18-C , 21-H ) :   0.9801 B( 19-C , 20-C ) :   1.5579 B( 19-C , 22-C ) :   1.0374
B( 22-C , 23-H ) :   0.9330 B( 22-C , 24-H ) :   0.9190 B( 22-C , 25-C ) :   1.0760
B( 25-C , 26-H ) :   0.9467 B( 25-C , 27-H ) :   0.9538 B( 25-C , 28-C ) :   1.0778
B( 28-C , 29-H ) :   0.9669 B( 28-C , 30-H ) :   0.9756 B( 28-C , 31-H ) :   0.9753

Dispersion correction           -0.013955118
FINAL SINGLE POINT ENERGY     -1339.853402142217

DIPOLE MOMENT
-------------
                                X             Y             Z
Electronic contribution:     -9.83273      21.65936      -2.33145
Nuclear contribution   :     10.23470     -22.21119       2.46091
                        -----------------------------------------
Total Dipole Moment    :      0.40196      -0.55183       0.12946
                        -----------------------------------------
Magnitude (a.u.)       :      0.69487
Magnitude (Debye)      :      1.76623

Rotational constants in cm-1:     0.017716     0.008345     0.007102
Rotational constants in MHz :   531.115662   250.175678   212.906641

                             ****ORCA TERMINATED NORMALLY****
TOTAL RUN TIME: 0 days 0 hours 0 minutes 21 seconds 434 msec
