                         Program Version 4.2.1 -  RELEASE  -
|  1> ! wB97X-D3 SP def2-SVP
|  2> %pal
|  3> nprocs 24
|  4> end
|  5>
|  6> * xyz 0 1
|  7> S 	 -47.6135 	 7.35526 	 -20.0865
|  8> C 	 -48.8579 	 7.80151 	 -19.0188
|  9> C 	 -49.6164 	 8.90118 	 -19.3417
| 10> C 	 -49.0104 	 9.57919 	 -20.4676
| 11> C 	 -47.9492 	 8.81951 	 -21.0615
| 12> H 	 -49.2599 	 10.5017 	 -20.9687
| 13> C 	 -50.842 	 9.32941 	 -18.5825
| 14> H 	 -51.3352 	 8.40388 	 -18.1965
| 15> H 	 -51.6103 	 9.77982 	 -19.2299
| 16> C 	 -50.6436 	 10.1936 	 -17.35
| 17> H 	 -50.0195 	 11.0694 	 -17.6391
| 18> H 	 -51.6533 	 10.4933 	 -17.0349
| 19> C 	 -49.8156 	 9.51635 	 -16.1324
| 20> H 	 -49.6011 	 10.2979 	 -15.3452
| 21> H 	 -50.3866 	 8.65517 	 -15.8043
| 22> H 	 -48.9054 	 9.01247 	 -16.5313
| 23> S 	 -47.1279 	 8.01261 	 -23.5883
| 24> C 	 -46.1023 	 9.08512 	 -24.4236
| 25> C 	 -45.8139 	 10.2305 	 -23.6781
| 26> C 	 -46.6249 	 10.3246 	 -22.5121
| 27> C 	 -47.2656 	 9.14052 	 -22.2466
| 28> H 	 -45.1281 	 10.9272 	 -24.0845
| 29> C 	 -46.4646 	 11.4875 	 -21.5364
| 30> H 	 -45.4499 	 11.6345 	 -21.3287
| 31> H 	 -46.9103 	 11.2244 	 -20.5735
| 32> C 	 -47.1864 	 12.7295 	 -22.1013
| 33> H 	 -48.2328 	 12.4922 	 -22.3948
| 34> H 	 -46.7516 	 12.7914 	 -23.1777
| 35> C 	 -47.032 	 13.9656 	 -21.2391
| 36> H 	 -47.5393 	 14.8847 	 -21.6012
| 37> H 	 -45.9343 	 14.0876 	 -21.0971
| 38> H 	 -47.4682 	 13.8356 	 -20.3228
| 39> H 	 -49.1263 	 7.16767 	 -18.1449
| 40> H 	 -45.5443 	 8.7919 	 -25.2542
| 41> *
| 42>
| 43>                          ****END OF INPUT****

CARTESIAN COORDINATES (ANGSTROEM)
---------------------------------
  S    -47.613500    7.355260  -20.086500
  C    -48.857900    7.801510  -19.018800
  C    -49.616400    8.901180  -19.341700
  C    -49.010400    9.579190  -20.467600
  C    -47.949200    8.819510  -21.061500
  H    -49.259900   10.501700  -20.968700
  C    -50.842000    9.329410  -18.582500
  H    -51.335200    8.403880  -18.196500
  H    -51.610300    9.779820  -19.229900
  C    -50.643600   10.193600  -17.350000
  H    -50.019500   11.069400  -17.639100
  H    -51.653300   10.493300  -17.034900
  C    -49.815600    9.516350  -16.132400
  H    -49.601100   10.297900  -15.345200
  H    -50.386600    8.655170  -15.804300
  H    -48.905400    9.012470  -16.531300
  S    -47.127900    8.012610  -23.588300
  C    -46.102300    9.085120  -24.423600
  C    -45.813900   10.230500  -23.678100
  C    -46.624900   10.324600  -22.512100
  C    -47.265600    9.140520  -22.246600
  H    -45.128100   10.927200  -24.084500
  C    -46.464600   11.487500  -21.536400
  H    -45.449900   11.634500  -21.328700
  H    -46.910300   11.224400  -20.573500
  C    -47.186400   12.729500  -22.101300
  H    -48.232800   12.492200  -22.394800
  H    -46.751600   12.791400  -23.177700
  C    -47.032000   13.965600  -21.239100
  H    -47.539300   14.884700  -21.601200
  H    -45.934300   14.087600  -21.097100
  H    -47.468200   13.835600  -20.322800
  H    -49.126300    7.167670  -18.144900
  H    -45.544300    8.791900  -25.254200

 Total Charge           Charge          ....    0
 Multiplicity           Mult            ....    1
 Number of Electrons    NEL             ....  134
 Basis Dimension        Dim             ....  322

ORBITAL ENERGIES
----------------

  NO   OCC          E(Eh)            E(eV)
   0   2.0000     -88.970174     -2421.0015
   1   2.0000     -88.965399     -2420.8716
   2   2.0000     -10.328877      -281.0630
   3   2.0000     -10.319082      -280.7965
   4   2.0000     -10.312487      -280.6170
   5   2.0000     -10.309732      -280.5421
   6   2.0000     -10.303497      -280.3724
   7   2.0000     -10.301766      -280.3253
   8   2.0000     -10.299380      -280.2604
   9   2.0000     -10.296147      -280.1724
  10   2.0000     -10.294305      -280.1223
  11   2.0000     -10.293559      -280.1020
  12   2.0000     -10.291445      -280.0444
  13   2.0000     -10.288111      -279.9537
  14   2.0000     -10.285279      -279.8767
  15   2.0000     -10.277028      -279.6521
  16   2.0000      -8.085019      -220.0046
  17   2.0000      -8.080986      -219.8948
  18   2.0000      -6.043333      -164.4474
  19   2.0000      -6.039634      -164.3468
  20   2.0000      -6.039323      -164.3383
  21   2.0000      -6.035872      -164.2444
  22   2.0000      -6.035382      -164.2311
  23   2.0000      -6.031885      -164.1359
  24   2.0000      -1.009533       -27.4708
  25   2.0000      -0.985403       -26.8142
  26   2.0000      -0.911167       -24.7941
  27   2.0000      -0.909099       -24.7378
  28   2.0000      -0.872696       -23.7473
  29   2.0000      -0.852996       -23.2112
  30   2.0000      -0.844038       -22.9674
  31   2.0000      -0.806801       -21.9542
  32   2.0000      -0.786144       -21.3921
  33   2.0000      -0.774574       -21.0772
  34   2.0000      -0.708279       -19.2733
  35   2.0000      -0.698810       -19.0156
  36   2.0000      -0.690417       -18.7872
  37   2.0000      -0.665039       -18.0966
  38   2.0000      -0.641216       -17.4484
  39   2.0000      -0.615094       -16.7376
  40   2.0000      -0.598810       -16.2944
  41   2.0000      -0.571579       -15.5535
  42   2.0000      -0.562337       -15.3020
  43   2.0000      -0.542463       -14.7612
  44   2.0000      -0.537733       -14.6324
  45   2.0000      -0.525113       -14.2891
  46   2.0000      -0.520462       -14.1625
  47   2.0000      -0.515028       -14.0146
  48   2.0000      -0.508843       -13.8463
  49   2.0000      -0.493070       -13.4171
  50   2.0000      -0.487311       -13.2604
  51   2.0000      -0.478707       -13.0263
  52   2.0000      -0.472859       -12.8671
  53   2.0000      -0.467729       -12.7276
  54   2.0000      -0.461424       -12.5560
  55   2.0000      -0.450292       -12.2531
  56   2.0000      -0.442997       -12.0545
  57   2.0000      -0.440182       -11.9780
  58   2.0000      -0.439462       -11.9584
  59   2.0000      -0.427095       -11.6219
  60   2.0000      -0.425901       -11.5893
  61   2.0000      -0.408828       -11.1248
  62   2.0000      -0.403035       -10.9671
  63   2.0000      -0.345369        -9.3980
  64   2.0000      -0.335246        -9.1225
  65   2.0000      -0.330527        -8.9941
  66   2.0000      -0.285573        -7.7708
  67   0.0000       0.028580         0.7777
  68   0.0000       0.067365         1.8331
  69   0.0000       0.113930         3.1002
  70   0.0000       0.119850         3.2613
  71   0.0000       0.128414         3.4943

MULLIKEN ATOMIC CHARGES
-----------------------
   0 S :    0.133467
   1 C :   -0.133892
   2 C :   -0.064980
   3 C :    0.034721
   4 C :   -0.204798
   5 H :    0.009308
   6 C :    0.043327
   7 H :    0.022679
   8 H :    0.037083
   9 C :   -0.073508
  10 H :    0.032316
  11 H :    0.038084
  12 C :   -0.090645
  13 H :    0.062704
  14 H :    0.023612
  15 H :    0.042613
  16 S :    0.122314
  17 C :   -0.072095
  18 C :   -0.029844
  19 C :   -0.044365
  20 C :   -0.152635
  21 H :    0.011867
  22 C :    0.095352
  23 H :    0.016774
  24 H :    0.022471
  25 C :   -0.142432
  26 H :    0.028914
  27 H :    0.027668
  28 C :    0.024585
  29 H :    0.039723
  30 H :    0.033208
  31 H :    0.008374
  32 H :    0.058227
  33 H :    0.039803
Sum of atomic charges:   -0.0000000

LOEWDIN ATOMIC CHARGES
----------------------
   0 S :    0.415815
   1 C :   -0.215381
   2 C :   -0.067901
   3 C :   -0.047459
   4 C :   -0.186581
   5 H :    0.029376
   6 C :   -0.041353
   7 H :    0.033869
   8 H :    0.036051
   9 C :   -0.038855
  10 H :    0.023961
  11 H :    0.024988
  12 C :   -0.076786
  13 H :    0.037244
  14 H :    0.018645
  15 H :    0.028620
  16 S :    0.420963
  17 C :   -0.190857
  18 C :   -0.063257
  19 C :   -0.049101
  20 C :   -0.207886
  21 H :    0.025773
  22 C :   -0.023351
  23 H :    0.022600
  24 H :    0.026544
  25 C :   -0.051103
  26 H :    0.022311
  27 H :    0.028408
  28 C :   -0.062895
  29 H :    0.033319
  30 H :    0.033379
  31 H :    0.013362
  32 H :    0.030982
  33 H :    0.016557

  Mayer bond orders larger than 0.100000
B(  0-S ,  1-C ) :   1.1561 B(  0-S ,  4-C ) :   1.1378 B(  1-C ,  2-C ) :   1.6135
B(  1-C , 32-H ) :   0.9504 B(  2-C ,  3-C ) :   1.2336 B(  2-C ,  6-C ) :   1.0280
B(  3-C ,  4-C ) :   1.5507 B(  3-C ,  5-H ) :   0.9938 B(  4-C , 20-C ) :   1.1085
B(  6-C ,  7-H ) :   0.9369 B(  6-C ,  8-H ) :   0.9399 B(  6-C ,  9-C ) :   1.0714
B(  9-C , 10-H ) :   0.9577 B(  9-C , 11-H ) :   0.9567 B(  9-C , 12-C ) :   1.0622
B( 12-C , 13-H ) :   0.9752 B( 12-C , 14-H ) :   0.9761 B( 12-C , 15-H ) :   0.9719
B( 16-S , 17-C ) :   1.1658 B( 16-S , 20-C ) :   1.1366 B( 17-C , 18-C ) :   1.6027
B( 17-C , 33-H ) :   0.9704 B( 18-C , 19-C ) :   1.2364 B( 18-C , 21-H ) :   0.9942
B( 19-C , 20-C ) :   1.5773 B( 19-C , 22-C ) :   1.0449 B( 22-C , 23-H ) :   0.9385
B( 22-C , 24-H ) :   0.9302 B( 22-C , 25-C ) :   1.0383 B( 25-C , 26-H ) :   0.9526
B( 25-C , 27-H ) :   0.9582 B( 25-C , 28-C ) :   1.0709 B( 28-C , 29-H ) :   0.9717
B( 28-C , 30-H ) :   0.9707 B( 28-C , 31-H ) :   0.9688

Dispersion correction           -0.014578735
FINAL SINGLE POINT ENERGY     -1339.871191792255

DIPOLE MOMENT
-------------
                                X             Y             Z
Electronic contribution:      7.64281     -22.74952     -16.71269
Nuclear contribution   :     -7.72759      23.19436      16.95321
                        -----------------------------------------
Total Dipole Moment    :     -0.08478       0.44484       0.24052
                        -----------------------------------------
Magnitude (a.u.)       :      0.51276
Magnitude (Debye)      :      1.30333

Rotational constants in cm-1:     0.018423     0.009056     0.006603
Rotational constants in MHz :   552.300430   271.496385   197.951984

                             ****ORCA TERMINATED NORMALLY****
TOTAL RUN TIME: 0 days 0 hours 0 minutes 21 seconds 800 msec
