                         Program Version 4.2.1 -  RELEASE  -
|  1> ! wB97X-D3 SP def2-SVP
|  2> %pal
|  3> nprocs 24
|  4> end
|  5>
|  6> * xyz 0 1
|  7> S 	 -114.227 	 30.0728 	 -23.2371
|  8> C 	 -113.926 	 30.2427 	 -24.9241
|  9> C 	 -115.05 	 30.6187 	 -25.6548
| 10> C 	 -116.103 	 30.997 	 -24.7297
| 11> C 	 -115.847 	 30.6501 	 -23.3801
| 12> H 	 -117.107 	 31.4138 	 -24.9957
| 13> C 	 -115.232 	 30.6575 	 -27.1588
| 14> H 	 -114.246 	 30.7138 	 -27.6337
| 15> H 	 -115.596 	 31.6007 	 -27.4502
| 16> C 	 -115.942 	 29.4676 	 -27.8819
| 17> H 	 -116.85 	 29.2824 	 -27.3648
| 18> H 	 -116.178 	 29.6833 	 -28.8933
| 19> C 	 -115.059 	 28.1422 	 -27.8865
| 20> H 	 -114.15 	 28.3031 	 -28.4392
| 21> H 	 -114.837 	 27.8093 	 -26.8945
| 22> H 	 -115.658 	 27.3557 	 -28.2694
| 23> S 	 -117.334 	 29.3622 	 -21.4578
| 24> C 	 -118.756 	 30.1738 	 -20.8379
| 25> C 	 -118.685 	 31.5402 	 -21.1402
| 26> C 	 -117.519 	 31.965 	 -21.9165
| 27> C 	 -116.759 	 30.8542 	 -22.2409
| 28> H 	 -119.434 	 32.1805 	 -20.8782
| 29> C 	 -117.388 	 33.3636 	 -22.5057
| 30> H 	 -118.343 	 33.9505 	 -22.4811
| 31> H 	 -117.11 	 33.1292 	 -23.5228
| 32> C 	 -116.279 	 34.2376 	 -21.7436
| 33> H 	 -116.342 	 35.2358 	 -22.1944
| 34> H 	 -115.274 	 33.8542 	 -21.9241
| 35> C 	 -116.604 	 34.462 	 -20.2597
| 36> H 	 -115.947 	 35.2019 	 -19.8375
| 37> H 	 -116.285 	 33.5771 	 -19.6578
| 38> H 	 -117.619 	 34.7212 	 -19.9213
| 39> H 	 -113.036 	 29.7919 	 -25.3386
| 40> H 	 -119.479 	 29.7399 	 -20.2926
| 41> *
| 42>
| 43>                          ****END OF INPUT****

CARTESIAN COORDINATES (ANGSTROEM)
---------------------------------
  S    -114.227000   30.072800  -23.237100
  C    -113.926000   30.242700  -24.924100
  C    -115.050000   30.618700  -25.654800
  C    -116.103000   30.997000  -24.729700
  C    -115.847000   30.650100  -23.380100
  H    -117.107000   31.413800  -24.995700
  C    -115.232000   30.657500  -27.158800
  H    -114.246000   30.713800  -27.633700
  H    -115.596000   31.600700  -27.450200
  C    -115.942000   29.467600  -27.881900
  H    -116.850000   29.282400  -27.364800
  H    -116.178000   29.683300  -28.893300
  C    -115.059000   28.142200  -27.886500
  H    -114.150000   28.303100  -28.439200
  H    -114.837000   27.809300  -26.894500
  H    -115.658000   27.355700  -28.269400
  S    -117.334000   29.362200  -21.457800
  C    -118.756000   30.173800  -20.837900
  C    -118.685000   31.540200  -21.140200
  C    -117.519000   31.965000  -21.916500
  C    -116.759000   30.854200  -22.240900
  H    -119.434000   32.180500  -20.878200
  C    -117.388000   33.363600  -22.505700
  H    -118.343000   33.950500  -22.481100
  H    -117.110000   33.129200  -23.522800
  C    -116.279000   34.237600  -21.743600
  H    -116.342000   35.235800  -22.194400
  H    -115.274000   33.854200  -21.924100
  C    -116.604000   34.462000  -20.259700
  H    -115.947000   35.201900  -19.837500
  H    -116.285000   33.577100  -19.657800
  H    -117.619000   34.721200  -19.921300
  H    -113.036000   29.791900  -25.338600
  H    -119.479000   29.739900  -20.292600

 Total Charge           Charge          ....    0
 Multiplicity           Mult            ....    1
 Number of Electrons    NEL             ....  134
 Basis Dimension        Dim             ....  322

ORBITAL ENERGIES
----------------

  NO   OCC          E(Eh)            E(eV)
   0   2.0000     -88.966736     -2420.9080
   1   2.0000     -88.963527     -2420.8206
   2   2.0000     -10.330726      -281.1134
   3   2.0000     -10.327777      -281.0331
   4   2.0000     -10.314052      -280.6596
   5   2.0000     -10.313106      -280.6339
   6   2.0000     -10.307979      -280.4944
   7   2.0000     -10.307397      -280.4785
   8   2.0000     -10.301492      -280.3179
   9   2.0000     -10.298777      -280.2440
  10   2.0000     -10.292025      -280.0602
  11   2.0000     -10.291681      -280.0509
  12   2.0000     -10.290942      -280.0308
  13   2.0000     -10.286546      -279.9111
  14   2.0000     -10.276618      -279.6410
  15   2.0000     -10.272359      -279.5251
  16   2.0000      -8.082333      -219.9315
  17   2.0000      -8.078000      -219.8136
  18   2.0000      -6.040710      -164.3761
  19   2.0000      -6.036596      -164.2641
  20   2.0000      -6.036551      -164.2629
  21   2.0000      -6.033319      -164.1750
  22   2.0000      -6.032540      -164.1537
  23   2.0000      -6.028730      -164.0501
  24   2.0000      -1.003332       -27.3021
  25   2.0000      -0.979951       -26.6658
  26   2.0000      -0.905534       -24.6408
  27   2.0000      -0.899959       -24.4891
  28   2.0000      -0.864803       -23.5325
  29   2.0000      -0.848041       -23.0764
  30   2.0000      -0.842247       -22.9187
  31   2.0000      -0.808830       -22.0094
  32   2.0000      -0.784898       -21.3581
  33   2.0000      -0.774953       -21.0875
  34   2.0000      -0.710445       -19.3322
  35   2.0000      -0.701224       -19.0813
  36   2.0000      -0.691502       -18.8167
  37   2.0000      -0.667889       -18.1742
  38   2.0000      -0.643511       -17.5108
  39   2.0000      -0.614832       -16.7304
  40   2.0000      -0.589089       -16.0299
  41   2.0000      -0.569968       -15.5096
  42   2.0000      -0.558436       -15.1958
  43   2.0000      -0.545762       -14.8509
  44   2.0000      -0.543500       -14.7894
  45   2.0000      -0.536249       -14.5921
  46   2.0000      -0.517142       -14.0721
  47   2.0000      -0.505452       -13.7540
  48   2.0000      -0.503608       -13.7039
  49   2.0000      -0.491347       -13.3702
  50   2.0000      -0.485071       -13.1995
  51   2.0000      -0.479354       -13.0439
  52   2.0000      -0.470461       -12.8019
  53   2.0000      -0.463664       -12.6170
  54   2.0000      -0.461779       -12.5656
  55   2.0000      -0.446871       -12.1600
  56   2.0000      -0.437943       -11.9170
  57   2.0000      -0.437210       -11.8971
  58   2.0000      -0.432142       -11.7592
  59   2.0000      -0.428768       -11.6674
  60   2.0000      -0.428219       -11.6524
  61   2.0000      -0.416551       -11.3349
  62   2.0000      -0.407978       -11.1016
  63   2.0000      -0.339310        -9.2331
  64   2.0000      -0.330249        -8.9865
  65   2.0000      -0.327352        -8.9077
  66   2.0000      -0.295367        -8.0373
  67   0.0000       0.033729         0.9178
  68   0.0000       0.061551         1.6749
  69   0.0000       0.111646         3.0380
  70   0.0000       0.120163         3.2698
  71   0.0000       0.126779         3.4498

MULLIKEN ATOMIC CHARGES
-----------------------
   0 S :    0.118525
   1 C :   -0.117085
   2 C :   -0.095921
   3 C :    0.011953
   4 C :   -0.175796
   5 H :    0.038653
   6 C :    0.080163
   7 H :    0.005566
   8 H :    0.014383
   9 C :   -0.040319
  10 H :    0.022146
  11 H :    0.026167
  12 C :   -0.045698
  13 H :    0.030998
  14 H :    0.029462
  15 H :    0.026756
  16 S :    0.098245
  17 C :   -0.040666
  18 C :   -0.010888
  19 C :   -0.038287
  20 C :   -0.151436
  21 H :   -0.018374
  22 C :    0.068247
  23 H :    0.035100
  24 H :    0.018587
  25 C :   -0.063122
  26 H :    0.031856
  27 H :    0.045051
  28 C :   -0.069751
  29 H :    0.025056
  30 H :    0.038727
  31 H :    0.035269
  32 H :    0.051624
  33 H :    0.014807
Sum of atomic charges:   -0.0000000

LOEWDIN ATOMIC CHARGES
----------------------
   0 S :    0.430773
   1 C :   -0.206360
   2 C :   -0.060157
   3 C :   -0.068070
   4 C :   -0.212759
   5 H :    0.036037
   6 C :   -0.034299
   7 H :    0.030584
   8 H :    0.025249
   9 C :   -0.023185
  10 H :    0.018195
  11 H :    0.020730
  12 C :   -0.057288
  13 H :    0.021637
  14 H :    0.022434
  15 H :    0.023053
  16 S :    0.392736
  17 C :   -0.161347
  18 C :   -0.054330
  19 C :   -0.046832
  20 C :   -0.197737
  21 H :    0.010763
  22 C :   -0.029455
  23 H :    0.035233
  24 H :    0.028923
  25 C :   -0.032017
  26 H :    0.024091
  27 H :    0.029327
  28 C :   -0.078507
  29 H :    0.024875
  30 H :    0.031870
  31 H :    0.026198
  32 H :    0.024267
  33 H :    0.005369

  Mayer bond orders larger than 0.100000
B(  0-S ,  1-C ) :   1.1606 B(  0-S ,  4-C ) :   1.1703 B(  1-C ,  2-C ) :   1.5933
B(  1-C , 32-H ) :   0.9642 B(  2-C ,  3-C ) :   1.2557 B(  2-C ,  6-C ) :   1.0294
B(  3-C ,  4-C ) :   1.5650 B(  3-C ,  5-H ) :   0.9742 B(  4-C , 20-C ) :   0.9979
B(  6-C ,  7-H ) :   0.9376 B(  6-C ,  8-H ) :   0.9376 B(  6-C ,  9-C ) :   1.0613
B(  9-C , 10-H ) :   0.9599 B(  9-C , 11-H ) :   0.9577 B(  9-C , 12-C ) :   1.0753
B( 12-C , 13-H ) :   0.9781 B( 12-C , 14-H ) :   0.9784 B( 12-C , 15-H ) :   0.9745
B( 16-S , 17-C ) :   1.1472 B( 16-S , 20-C ) :   1.1386 B( 17-C , 18-C ) :   1.6076
B( 17-C , 33-H ) :   0.9871 B( 18-C , 19-C ) :   1.2188 B( 18-C , 21-H ) :   1.0023
B( 19-C , 20-C ) :   1.6054 B( 19-C , 22-C ) :   1.0273 B( 22-C , 23-H ) :   0.9450
B( 22-C , 24-H ) :   0.9303 B( 22-C , 25-C ) :   1.0672 B( 25-C , 26-H ) :   0.9614
B( 25-C , 27-H ) :   0.9586 B( 25-C , 28-C ) :   1.0699 B( 28-C , 29-H ) :   0.9724
B( 28-C , 30-H ) :   0.9713 B( 28-C , 31-H ) :   0.9776

Dispersion correction           -0.014693592
FINAL SINGLE POINT ENERGY     -1339.867100068713

DIPOLE MOMENT
-------------
                                X             Y             Z
Electronic contribution:      1.26092     -10.84832      13.28614
Nuclear contribution   :     -1.58187      11.18642     -13.70772
                        -----------------------------------------
Total Dipole Moment    :     -0.32095       0.33810      -0.42158
                        -----------------------------------------
Magnitude (a.u.)       :      0.62853
Magnitude (Debye)      :      1.59761

Rotational constants in cm-1:     0.021488     0.007745     0.006999
Rotational constants in MHz :   644.205743   232.194809   209.817493

                             ****ORCA TERMINATED NORMALLY****
TOTAL RUN TIME: 0 days 0 hours 0 minutes 21 seconds 429 msec
