                         Program Version 4.2.1 -  RELEASE  -
|  1> ! wB97X-D3 SP def2-SVP
|  2> %pal
|  3> nprocs 24
|  4> end
|  5>
|  6> * xyz 0 1
|  7> S 	 -128.437 	 28.902 	 -21.2778
|  8> C 	 -129.984 	 29.6215 	 -21.7589
|  9> C 	 -130.763 	 28.6782 	 -22.3681
| 10> C 	 -130.163 	 27.3745 	 -22.4929
| 11> C 	 -128.857 	 27.2819 	 -21.913
| 12> H 	 -130.658 	 26.482 	 -22.9474
| 13> C 	 -132.252 	 28.9301 	 -22.7501
| 14> H 	 -132.662 	 28.0589 	 -23.2847
| 15> H 	 -132.322 	 29.7439 	 -23.3961
| 16> C 	 -133.213 	 29.0991 	 -21.5298
| 17> H 	 -132.99 	 29.9655 	 -21.0174
| 18> H 	 -134.262 	 29.0841 	 -21.8588
| 19> C 	 -133.106 	 27.913 	 -20.5154
| 20> H 	 -133.599 	 28.2632 	 -19.6196
| 21> H 	 -133.509 	 26.9323 	 -20.8977
| 22> H 	 -132.141 	 27.7059 	 -20.1354
| 23> S 	 -126.229 	 26.8023 	 -21.624
| 24> C 	 -125.634 	 25.1445 	 -21.5781
| 25> C 	 -126.674 	 24.2747 	 -21.8601
| 26> C 	 -127.974 	 24.8712 	 -22.041
| 27> C 	 -127.835 	 26.2647 	 -22.0632
| 28> H 	 -126.54 	 23.2298 	 -21.8259
| 29> C 	 -129.254 	 24.1102 	 -21.8095
| 30> H 	 -129.248 	 23.2647 	 -22.501
| 31> H 	 -130.139 	 24.63 	 -22.1189
| 32> C 	 -129.303 	 23.5954 	 -20.3201
| 33> H 	 -129.106 	 24.4194 	 -19.6206
| 34> H 	 -128.543 	 22.7445 	 -20.224
| 35> C 	 -130.635 	 22.9147 	 -19.9852
| 36> H 	 -130.94 	 22.0764 	 -20.7313
| 37> H 	 -131.564 	 23.5349 	 -19.9531
| 38> H 	 -130.612 	 22.4884 	 -18.9862
| 39> H 	 -130.406 	 30.5222 	 -21.4997
| 40> H 	 -124.633 	 24.8597 	 -21.283
| 41> *
| 42>
| 43>                          ****END OF INPUT****

CARTESIAN COORDINATES (ANGSTROEM)
---------------------------------
  S    -128.437000   28.902000  -21.277800
  C    -129.984000   29.621500  -21.758900
  C    -130.763000   28.678200  -22.368100
  C    -130.163000   27.374500  -22.492900
  C    -128.857000   27.281900  -21.913000
  H    -130.658000   26.482000  -22.947400
  C    -132.252000   28.930100  -22.750100
  H    -132.662000   28.058900  -23.284700
  H    -132.322000   29.743900  -23.396100
  C    -133.213000   29.099100  -21.529800
  H    -132.990000   29.965500  -21.017400
  H    -134.262000   29.084100  -21.858800
  C    -133.106000   27.913000  -20.515400
  H    -133.599000   28.263200  -19.619600
  H    -133.509000   26.932300  -20.897700
  H    -132.141000   27.705900  -20.135400
  S    -126.229000   26.802300  -21.624000
  C    -125.634000   25.144500  -21.578100
  C    -126.674000   24.274700  -21.860100
  C    -127.974000   24.871200  -22.041000
  C    -127.835000   26.264700  -22.063200
  H    -126.540000   23.229800  -21.825900
  C    -129.254000   24.110200  -21.809500
  H    -129.248000   23.264700  -22.501000
  H    -130.139000   24.630000  -22.118900
  C    -129.303000   23.595400  -20.320100
  H    -129.106000   24.419400  -19.620600
  H    -128.543000   22.744500  -20.224000
  C    -130.635000   22.914700  -19.985200
  H    -130.940000   22.076400  -20.731300
  H    -131.564000   23.534900  -19.953100
  H    -130.612000   22.488400  -18.986200
  H    -130.406000   30.522200  -21.499700
  H    -124.633000   24.859700  -21.283000

 Total Charge           Charge          ....    0
 Multiplicity           Mult            ....    1
 Number of Electrons    NEL             ....  134
 Basis Dimension        Dim             ....  322

ORBITAL ENERGIES
----------------

  NO   OCC          E(Eh)            E(eV)
   0   2.0000     -88.966956     -2420.9139
   1   2.0000     -88.966858     -2420.9113
   2   2.0000     -10.338294      -281.3193
   3   2.0000     -10.329276      -281.0739
   4   2.0000     -10.322547      -280.8908
   5   2.0000     -10.308599      -280.5112
   6   2.0000     -10.307832      -280.4904
   7   2.0000     -10.302320      -280.3404
   8   2.0000     -10.302149      -280.3357
   9   2.0000     -10.301951      -280.3303
  10   2.0000     -10.297896      -280.2200
  11   2.0000     -10.295839      -280.1640
  12   2.0000     -10.290133      -280.0087
  13   2.0000     -10.288609      -279.9673
  14   2.0000     -10.286000      -279.8963
  15   2.0000     -10.273885      -279.5666
  16   2.0000      -8.081656      -219.9130
  17   2.0000      -8.080260      -219.8750
  18   2.0000      -6.040267      -164.3640
  19   2.0000      -6.039110      -164.3325
  20   2.0000      -6.036245      -164.2546
  21   2.0000      -6.034827      -164.2160
  22   2.0000      -6.032219      -164.1450
  23   2.0000      -6.030864      -164.1082
  24   2.0000      -1.004610       -27.3368
  25   2.0000      -0.977185       -26.5906
  26   2.0000      -0.908844       -24.7309
  27   2.0000      -0.904370       -24.6092
  28   2.0000      -0.869020       -23.6472
  29   2.0000      -0.851489       -23.1702
  30   2.0000      -0.835355       -22.7312
  31   2.0000      -0.812453       -22.1080
  32   2.0000      -0.782529       -21.2937
  33   2.0000      -0.774440       -21.0736
  34   2.0000      -0.707806       -19.2604
  35   2.0000      -0.702929       -19.1277
  36   2.0000      -0.697163       -18.9708
  37   2.0000      -0.666079       -18.1249
  38   2.0000      -0.634165       -17.2565
  39   2.0000      -0.613596       -16.6968
  40   2.0000      -0.597557       -16.2604
  41   2.0000      -0.574792       -15.6409
  42   2.0000      -0.562942       -15.3184
  43   2.0000      -0.553141       -15.0517
  44   2.0000      -0.537805       -14.6344
  45   2.0000      -0.524706       -14.2780
  46   2.0000      -0.516402       -14.0520
  47   2.0000      -0.512290       -13.9401
  48   2.0000      -0.505222       -13.7478
  49   2.0000      -0.503600       -13.7037
  50   2.0000      -0.485699       -13.2165
  51   2.0000      -0.477056       -12.9814
  52   2.0000      -0.471420       -12.8280
  53   2.0000      -0.461722       -12.5641
  54   2.0000      -0.453285       -12.3345
  55   2.0000      -0.449532       -12.2324
  56   2.0000      -0.440610       -11.9896
  57   2.0000      -0.438168       -11.9231
  58   2.0000      -0.431955       -11.7541
  59   2.0000      -0.426387       -11.6026
  60   2.0000      -0.422795       -11.5048
  61   2.0000      -0.419062       -11.4033
  62   2.0000      -0.407363       -11.0849
  63   2.0000      -0.362979        -9.8772
  64   2.0000      -0.333710        -9.0807
  65   2.0000      -0.326763        -8.8917
  66   2.0000      -0.280197        -7.6245
  67   0.0000       0.012242         0.3331
  68   0.0000       0.079701         2.1688
  69   0.0000       0.096903         2.6369
  70   0.0000       0.117071         3.1857
  71   0.0000       0.129780         3.5315

MULLIKEN ATOMIC CHARGES
-----------------------
   0 S :    0.080541
   1 C :   -0.063507
   2 C :   -0.111447
   3 C :   -0.005502
   4 C :   -0.130618
   5 H :    0.035063
   6 C :    0.084753
   7 H :    0.017384
   8 H :    0.022659
   9 C :   -0.055131
  10 H :    0.012435
  11 H :    0.038753
  12 C :   -0.068492
  13 H :    0.025596
  14 H :    0.036117
  15 H :    0.030926
  16 S :    0.082001
  17 C :   -0.090207
  18 C :   -0.010665
  19 C :   -0.075526
  20 C :   -0.094196
  21 H :    0.003679
  22 C :    0.092892
  23 H :    0.023303
  24 H :    0.003298
  25 C :   -0.087001
  26 H :    0.057731
  27 H :    0.047253
  28 C :   -0.086581
  29 H :    0.036865
  30 H :    0.035658
  31 H :    0.037261
  32 H :    0.012407
  33 H :    0.062299
Sum of atomic charges:   -0.0000000

LOEWDIN ATOMIC CHARGES
----------------------
   0 S :    0.376881
   1 C :   -0.182839
   2 C :   -0.059370
   3 C :   -0.075585
   4 C :   -0.175432
   5 H :    0.033836
   6 C :   -0.025093
   7 H :    0.029630
   8 H :    0.020122
   9 C :   -0.027534
  10 H :    0.008650
  11 H :    0.029828
  12 C :   -0.067980
  13 H :    0.026242
  14 H :    0.027875
  15 H :    0.019102
  16 S :    0.398325
  17 C :   -0.177420
  18 C :   -0.059740
  19 C :   -0.053750
  20 C :   -0.195293
  21 H :    0.021490
  22 C :   -0.029056
  23 H :    0.033166
  24 H :    0.023471
  25 C :   -0.035124
  26 H :    0.033462
  27 H :    0.035860
  28 C :   -0.083802
  29 H :    0.032560
  30 H :    0.025370
  31 H :    0.025749
  32 H :    0.014870
  33 H :    0.031531

  Mayer bond orders larger than 0.100000
B(  0-S ,  1-C ) :   1.1152 B(  0-S ,  4-C ) :   1.1371 B(  1-C ,  2-C ) :   1.6220
B(  1-C , 32-H ) :   0.9763 B(  2-C ,  3-C ) :   1.2638 B(  2-C ,  6-C ) :   1.0122
B(  3-C ,  4-C ) :   1.5391 B(  3-C ,  5-H ) :   0.9756 B(  4-C , 20-C ) :   1.0946
B(  6-C ,  7-H ) :   0.9478 B(  6-C ,  8-H ) :   0.9450 B(  6-C ,  9-C ) :   1.0695
B(  9-C , 10-H ) :   0.9601 B(  9-C , 11-H ) :   0.9593 B(  9-C , 12-C ) :   1.0742
B( 12-C , 13-H ) :   0.9737 B( 12-C , 14-H ) :   0.9783 B( 12-C , 15-H ) :   0.9733
B( 16-S , 17-C ) :   1.1418 B( 16-S , 20-C ) :   1.1317 B( 17-C , 18-C ) :   1.6074
B( 17-C , 33-H ) :   0.9724 B( 18-C , 19-C ) :   1.2424 B( 18-C , 21-H ) :   0.9944
B( 19-C , 20-C ) :   1.5689 B( 19-C , 22-C ) :   1.0639 B( 22-C , 23-H ) :   0.9211
B( 22-C , 24-H ) :   0.9381 B( 22-C , 25-C ) :   1.0480 B( 25-C , 26-H ) :   0.9600
B( 25-C , 27-H ) :   0.9504 B( 25-C , 28-C ) :   1.0802 B( 28-C , 29-H ) :   0.9722
B( 28-C , 30-H ) :   0.9744 B( 28-C , 31-H ) :   0.9736

Dispersion correction           -0.014734155
FINAL SINGLE POINT ENERGY     -1339.865157852367

DIPOLE MOMENT
-------------
                                X             Y             Z
Electronic contribution:     26.69210      12.46928      -5.59884
Nuclear contribution   :    -27.23709     -12.98608       5.82670
                        -----------------------------------------
Total Dipole Moment    :     -0.54500      -0.51681       0.22786
                        -----------------------------------------
Magnitude (a.u.)       :      0.78487
Magnitude (Debye)      :      1.99499

Rotational constants in cm-1:     0.018379     0.009695     0.006915
Rotational constants in MHz :   550.993205   290.649225   207.307976

                             ****ORCA TERMINATED NORMALLY****
TOTAL RUN TIME: 0 days 0 hours 0 minutes 22 seconds 175 msec
