                         Program Version 4.2.1 -  RELEASE  -
|  1> ! wB97X-D3 SP def2-SVP
|  2> %pal
|  3> nprocs 24
|  4> end
|  5>
|  6> * xyz 0 1
|  7> S 	 -62.9056 	 -58.1715 	 -75.4678
|  8> C 	 -64.632 	 -58.1433 	 -75.7964
|  9> C 	 -64.8634 	 -58.6873 	 -77.0328
| 10> C 	 -63.6361 	 -59.1848 	 -77.697
| 11> C 	 -62.5112 	 -59.0214 	 -76.9622
| 12> H 	 -63.5821 	 -59.5823 	 -78.7227
| 13> C 	 -66.2109 	 -58.8346 	 -77.6458
| 14> H 	 -66.9856 	 -58.6949 	 -76.9344
| 15> H 	 -66.3352 	 -59.8912 	 -77.9783
| 16> C 	 -66.461 	 -57.8578 	 -78.8132
| 17> H 	 -65.6067 	 -58.0849 	 -79.5089
| 18> H 	 -67.3767 	 -58.2264 	 -79.3128
| 19> C 	 -66.5381 	 -56.3654 	 -78.4744
| 20> H 	 -67.3518 	 -56.1847 	 -77.7998
| 21> H 	 -65.62 	 -56.0081 	 -78.0091
| 22> H 	 -66.6347 	 -55.7494 	 -79.4392
| 23> S 	 -60.351 	 -60.4801 	 -76.1723
| 24> C 	 -58.8729 	 -60.3229 	 -77.1333
| 25> C 	 -59.1015 	 -59.8906 	 -78.4299
| 26> C 	 -60.4325 	 -59.327 	 -78.5613
| 27> C 	 -61.1507 	 -59.4776 	 -77.3327
| 28> H 	 -58.3816 	 -59.8178 	 -79.165
| 29> C 	 -60.7402 	 -58.551 	 -79.7693
| 30> H 	 -61.7465 	 -58.7967 	 -80.0178
| 31> H 	 -60.1987 	 -58.9425 	 -80.6332
| 32> C 	 -60.4659 	 -57.0578 	 -79.7205
| 33> H 	 -60.4428 	 -56.6603 	 -80.7642
| 34> H 	 -59.3936 	 -56.9227 	 -79.4468
| 35> C 	 -61.3856 	 -56.1127 	 -78.8659
| 36> H 	 -62.3796 	 -56.0122 	 -79.212
| 37> H 	 -60.9871 	 -55.1027 	 -78.7365
| 38> H 	 -61.4913 	 -56.4941 	 -77.857
| 39> H 	 -65.4394 	 -57.7632 	 -75.1455
| 40> H 	 -57.943 	 -60.6723 	 -76.7137
| 41> *
| 42>
| 43>                          ****END OF INPUT****

CARTESIAN COORDINATES (ANGSTROEM)
---------------------------------
  S    -62.905600  -58.171500  -75.467800
  C    -64.632000  -58.143300  -75.796400
  C    -64.863400  -58.687300  -77.032800
  C    -63.636100  -59.184800  -77.697000
  C    -62.511200  -59.021400  -76.962200
  H    -63.582100  -59.582300  -78.722700
  C    -66.210900  -58.834600  -77.645800
  H    -66.985600  -58.694900  -76.934400
  H    -66.335200  -59.891200  -77.978300
  C    -66.461000  -57.857800  -78.813200
  H    -65.606700  -58.084900  -79.508900
  H    -67.376700  -58.226400  -79.312800
  C    -66.538100  -56.365400  -78.474400
  H    -67.351800  -56.184700  -77.799800
  H    -65.620000  -56.008100  -78.009100
  H    -66.634700  -55.749400  -79.439200
  S    -60.351000  -60.480100  -76.172300
  C    -58.872900  -60.322900  -77.133300
  C    -59.101500  -59.890600  -78.429900
  C    -60.432500  -59.327000  -78.561300
  C    -61.150700  -59.477600  -77.332700
  H    -58.381600  -59.817800  -79.165000
  C    -60.740200  -58.551000  -79.769300
  H    -61.746500  -58.796700  -80.017800
  H    -60.198700  -58.942500  -80.633200
  C    -60.465900  -57.057800  -79.720500
  H    -60.442800  -56.660300  -80.764200
  H    -59.393600  -56.922700  -79.446800
  C    -61.385600  -56.112700  -78.865900
  H    -62.379600  -56.012200  -79.212000
  H    -60.987100  -55.102700  -78.736500
  H    -61.491300  -56.494100  -77.857000
  H    -65.439400  -57.763200  -75.145500
  H    -57.943000  -60.672300  -76.713700

 Total Charge           Charge          ....    0
 Multiplicity           Mult            ....    1
 Number of Electrons    NEL             ....  134
 Basis Dimension        Dim             ....  322

ORBITAL ENERGIES
----------------

  NO   OCC          E(Eh)            E(eV)
   0   2.0000     -88.967547     -2420.9300
   1   2.0000     -88.963061     -2420.8080
   2   2.0000     -10.330788      -281.1150
   3   2.0000     -10.329329      -281.0753
   4   2.0000     -10.319213      -280.8000
   5   2.0000     -10.316478      -280.7256
   6   2.0000     -10.307039      -280.4688
   7   2.0000     -10.301234      -280.3108
   8   2.0000     -10.295798      -280.1629
   9   2.0000     -10.293561      -280.1020
  10   2.0000     -10.292648      -280.0772
  11   2.0000     -10.291377      -280.0426
  12   2.0000     -10.288322      -279.9595
  13   2.0000     -10.288053      -279.9522
  14   2.0000     -10.282449      -279.7997
  15   2.0000     -10.269694      -279.4526
  16   2.0000      -8.082511      -219.9363
  17   2.0000      -8.077268      -219.7936
  18   2.0000      -6.040854      -164.3800
  19   2.0000      -6.037217      -164.2810
  20   2.0000      -6.036008      -164.2481
  21   2.0000      -6.033199      -164.1717
  22   2.0000      -6.031813      -164.1340
  23   2.0000      -6.027815      -164.0252
  24   2.0000      -1.003368       -27.3030
  25   2.0000      -0.981605       -26.7108
  26   2.0000      -0.912403       -24.8278
  27   2.0000      -0.909751       -24.7556
  28   2.0000      -0.867512       -23.6062
  29   2.0000      -0.845954       -23.0196
  30   2.0000      -0.838992       -22.8301
  31   2.0000      -0.815397       -22.1881
  32   2.0000      -0.784719       -21.3533
  33   2.0000      -0.773780       -21.0556
  34   2.0000      -0.709537       -19.3075
  35   2.0000      -0.694790       -18.9062
  36   2.0000      -0.687905       -18.7188
  37   2.0000      -0.667025       -18.1507
  38   2.0000      -0.638047       -17.3621
  39   2.0000      -0.620101       -16.8738
  40   2.0000      -0.599048       -16.3009
  41   2.0000      -0.568556       -15.4712
  42   2.0000      -0.549031       -14.9399
  43   2.0000      -0.544918       -14.8280
  44   2.0000      -0.541962       -14.7475
  45   2.0000      -0.531473       -14.4621
  46   2.0000      -0.517536       -14.0829
  47   2.0000      -0.511135       -13.9087
  48   2.0000      -0.501663       -13.6510
  49   2.0000      -0.499301       -13.5867
  50   2.0000      -0.492370       -13.3981
  51   2.0000      -0.477723       -12.9995
  52   2.0000      -0.469735       -12.7821
  53   2.0000      -0.465691       -12.6721
  54   2.0000      -0.461228       -12.5507
  55   2.0000      -0.447832       -12.1861
  56   2.0000      -0.443543       -12.0694
  57   2.0000      -0.438874       -11.9424
  58   2.0000      -0.433087       -11.7849
  59   2.0000      -0.422465       -11.4958
  60   2.0000      -0.418185       -11.3794
  61   2.0000      -0.411358       -11.1936
  62   2.0000      -0.409155       -11.1337
  63   2.0000      -0.345939        -9.4135
  64   2.0000      -0.332396        -9.0449
  65   2.0000      -0.322766        -8.7829
  66   2.0000      -0.293602        -7.9893
  67   0.0000       0.027042         0.7358
  68   0.0000       0.075136         2.0446
  69   0.0000       0.097524         2.6538
  70   0.0000       0.119921         3.2632
  71   0.0000       0.125857         3.4248

MULLIKEN ATOMIC CHARGES
-----------------------
   0 S :    0.097789
   1 C :   -0.125571
   2 C :   -0.107677
   3 C :    0.030580
   4 C :   -0.145200
   5 H :    0.025347
   6 C :    0.069410
   7 H :   -0.000000
   8 H :    0.037697
   9 C :   -0.094601
  10 H :    0.025313
  11 H :    0.033664
  12 C :   -0.049871
  13 H :    0.028906
  14 H :    0.041146
  15 H :    0.048772
  16 S :    0.118299
  17 C :   -0.092742
  18 C :    0.014628
  19 C :   -0.052260
  20 C :   -0.170186
  21 H :   -0.007924
  22 C :    0.111549
  23 H :   -0.001661
  24 H :    0.016983
  25 C :   -0.076653
  26 H :    0.027413
  27 H :    0.023149
  28 C :   -0.021014
  29 H :    0.021551
  30 H :    0.030854
  31 H :    0.027306
  32 H :    0.061247
  33 H :    0.053757
Sum of atomic charges:    0.0000000

LOEWDIN ATOMIC CHARGES
----------------------
   0 S :    0.385263
   1 C :   -0.199951
   2 C :   -0.064271
   3 C :   -0.065931
   4 C :   -0.193343
   5 H :    0.033586
   6 C :   -0.036598
   7 H :    0.019085
   8 H :    0.038314
   9 C :   -0.044393
  10 H :    0.023893
  11 H :    0.024925
  12 C :   -0.068658
  13 H :    0.020857
  14 H :    0.026681
  15 H :    0.039247
  16 S :    0.411261
  17 C :   -0.168448
  18 C :   -0.051745
  19 C :   -0.048015
  20 C :   -0.205545
  21 H :    0.018577
  22 C :   -0.039100
  23 H :    0.023765
  24 H :    0.038254
  25 C :   -0.039110
  26 H :    0.026428
  27 H :    0.027289
  28 C :   -0.065482
  29 H :    0.018659
  30 H :    0.029386
  31 H :    0.023343
  32 H :    0.040109
  33 H :    0.021670

  Mayer bond orders larger than 0.100000
B(  0-S ,  1-C ) :   1.1114 B(  0-S ,  4-C ) :   1.1283 B(  1-C ,  2-C ) :   1.6462
B(  1-C , 32-H ) :   0.9644 B(  2-C ,  3-C ) :   1.1899 B(  2-C ,  6-C ) :   1.0405
B(  3-C ,  4-C ) :   1.6244 B(  3-C ,  5-H ) :   0.9860 B(  4-C , 20-C ) :   1.0228
B(  6-C ,  7-H ) :   0.9397 B(  6-C ,  8-H ) :   0.9388 B(  6-C ,  9-C ) :   1.0626
B(  9-C , 10-H ) :   0.9587 B(  9-C , 11-H ) :   0.9564 B(  9-C , 12-C ) :   1.0709
B( 12-C , 13-H ) :   0.9745 B( 12-C , 14-H ) :   0.9736 B( 12-C , 15-H ) :   0.9724
B( 16-S , 17-C ) :   1.1491 B( 16-S , 20-C ) :   1.1649 B( 17-C , 18-C ) :   1.5984
B( 17-C , 33-H ) :   0.9728 B( 18-C , 19-C ) :   1.2346 B( 18-C , 21-H ) :   1.0001
B( 19-C , 20-C ) :   1.5688 B( 19-C , 22-C ) :   1.0615 B( 22-C , 23-H ) :   0.9178
B( 22-C , 24-H ) :   0.9212 B( 22-C , 25-C ) :   1.0746 B( 25-C , 26-H ) :   0.9541
B( 25-C , 27-H ) :   0.9525 B( 25-C , 28-C ) :   1.0725 B( 28-C , 29-H ) :   0.9760
B( 28-C , 30-H ) :   0.9730 B( 28-C , 31-H ) :   0.9719

Dispersion correction           -0.015957613
FINAL SINGLE POINT ENERGY     -1339.881426346553

DIPOLE MOMENT
-------------
                                X             Y             Z
Electronic contribution:     13.23376     -15.04368      18.67271
Nuclear contribution   :    -13.41623      15.13074     -19.25079
                        -----------------------------------------
Total Dipole Moment    :     -0.18247       0.08706      -0.57808
                        -----------------------------------------
Magnitude (a.u.)       :      0.61241
Magnitude (Debye)      :      1.55663

Rotational constants in cm-1:     0.021206     0.009256     0.007573
Rotational constants in MHz :   635.754556   277.479969   227.047534

                             ****ORCA TERMINATED NORMALLY****
TOTAL RUN TIME: 0 days 0 hours 0 minutes 22 seconds 934 msec
