                         Program Version 4.2.1 -  RELEASE  -
|  1> ! wB97X-D3 SP def2-SVP
|  2> %pal
|  3> nprocs 24
|  4> end
|  5>
|  6> * xyz 0 1
|  7> S 	 -89.5903 	 -34.1793 	 -66.0725
|  8> C 	 -90.948 	 -35.0797 	 -66.8675
|  9> C 	 -92.0173 	 -34.2556 	 -67.2019
| 10> C 	 -91.699 	 -32.8739 	 -66.8352
| 11> C 	 -90.6087 	 -32.7292 	 -66.0216
| 12> H 	 -92.3959 	 -32.0722 	 -66.9009
| 13> C 	 -93.2791 	 -34.6194 	 -67.8944
| 14> H 	 -93.1847 	 -35.6169 	 -68.2398
| 15> H 	 -93.493 	 -34.0043 	 -68.7766
| 16> C 	 -94.5109 	 -34.3736 	 -66.9608
| 17> H 	 -94.3576 	 -34.8245 	 -65.9497
| 18> H 	 -94.5954 	 -33.3013 	 -66.9256
| 19> C 	 -95.8701 	 -34.7434 	 -67.4607
| 20> H 	 -96.6991 	 -34.2495 	 -66.9418
| 21> H 	 -96.0323 	 -34.4848 	 -68.5177
| 22> H 	 -95.9202 	 -35.7937 	 -67.37
| 23> S 	 -89.9258 	 -31.6856 	 -63.5748
| 24> C 	 -89.9025 	 -29.902 	 -63.4491
| 25> C 	 -89.8775 	 -29.2902 	 -64.7214
| 26> C 	 -90.0401 	 -30.2455 	 -65.757
| 27> C 	 -90.2202 	 -31.5205 	 -65.2875
| 28> H 	 -89.8353 	 -28.2137 	 -64.9011
| 29> C 	 -90.2918 	 -29.7335 	 -67.1848
| 30> H 	 -90.6349 	 -28.7457 	 -67.0953
| 31> H 	 -91.0736 	 -30.312 	 -67.6583
| 32> C 	 -89.0166 	 -29.8613 	 -68.139
| 33> H 	 -89.0738 	 -30.7685 	 -68.6923
| 34> H 	 -88.0336 	 -29.8302 	 -67.6258
| 35> C 	 -88.8948 	 -28.6954 	 -69.0967
| 36> H 	 -87.8502 	 -28.721 	 -69.4142
| 37> H 	 -89.1725 	 -27.8087 	 -68.6522
| 38> H 	 -89.4207 	 -28.8246 	 -70.0487
| 39> H 	 -90.921 	 -36.0886 	 -67.1235
| 40> H 	 -89.6202 	 -29.4049 	 -62.4779
| 41> *
| 42>
| 43>                          ****END OF INPUT****

CARTESIAN COORDINATES (ANGSTROEM)
---------------------------------
  S    -89.590300  -34.179300  -66.072500
  C    -90.948000  -35.079700  -66.867500
  C    -92.017300  -34.255600  -67.201900
  C    -91.699000  -32.873900  -66.835200
  C    -90.608700  -32.729200  -66.021600
  H    -92.395900  -32.072200  -66.900900
  C    -93.279100  -34.619400  -67.894400
  H    -93.184700  -35.616900  -68.239800
  H    -93.493000  -34.004300  -68.776600
  C    -94.510900  -34.373600  -66.960800
  H    -94.357600  -34.824500  -65.949700
  H    -94.595400  -33.301300  -66.925600
  C    -95.870100  -34.743400  -67.460700
  H    -96.699100  -34.249500  -66.941800
  H    -96.032300  -34.484800  -68.517700
  H    -95.920200  -35.793700  -67.370000
  S    -89.925800  -31.685600  -63.574800
  C    -89.902500  -29.902000  -63.449100
  C    -89.877500  -29.290200  -64.721400
  C    -90.040100  -30.245500  -65.757000
  C    -90.220200  -31.520500  -65.287500
  H    -89.835300  -28.213700  -64.901100
  C    -90.291800  -29.733500  -67.184800
  H    -90.634900  -28.745700  -67.095300
  H    -91.073600  -30.312000  -67.658300
  C    -89.016600  -29.861300  -68.139000
  H    -89.073800  -30.768500  -68.692300
  H    -88.033600  -29.830200  -67.625800
  C    -88.894800  -28.695400  -69.096700
  H    -87.850200  -28.721000  -69.414200
  H    -89.172500  -27.808700  -68.652200
  H    -89.420700  -28.824600  -70.048700
  H    -90.921000  -36.088600  -67.123500
  H    -89.620200  -29.404900  -62.477900

 Total Charge           Charge          ....    0
 Multiplicity           Mult            ....    1
 Number of Electrons    NEL             ....  134
 Basis Dimension        Dim             ....  322

ORBITAL ENERGIES
----------------

  NO   OCC          E(Eh)            E(eV)
   0   2.0000     -88.968012     -2420.9427
   1   2.0000     -88.964934     -2420.8589
   2   2.0000     -10.329758      -281.0870
   3   2.0000     -10.326830      -281.0073
   4   2.0000     -10.323848      -280.9262
   5   2.0000     -10.314014      -280.6586
   6   2.0000     -10.305016      -280.4138
   7   2.0000     -10.300285      -280.2850
   8   2.0000     -10.299574      -280.2657
   9   2.0000     -10.293321      -280.0955
  10   2.0000     -10.290782      -280.0264
  11   2.0000     -10.290169      -280.0097
  12   2.0000     -10.285926      -279.8943
  13   2.0000     -10.282551      -279.8024
  14   2.0000     -10.273576      -279.5582
  15   2.0000     -10.267198      -279.3847
  16   2.0000      -8.082235      -219.9288
  17   2.0000      -8.078412      -219.8248
  18   2.0000      -6.040716      -164.3762
  19   2.0000      -6.037163      -164.2796
  20   2.0000      -6.036953      -164.2738
  21   2.0000      -6.033310      -164.1747
  22   2.0000      -6.032917      -164.1640
  23   2.0000      -6.028792      -164.0518
  24   2.0000      -1.001735       -27.2586
  25   2.0000      -0.976255       -26.5653
  26   2.0000      -0.914549       -24.8861
  27   2.0000      -0.902908       -24.5694
  28   2.0000      -0.867760       -23.6130
  29   2.0000      -0.855279       -23.2733
  30   2.0000      -0.845238       -23.0001
  31   2.0000      -0.812416       -22.1070
  32   2.0000      -0.783491       -21.3199
  33   2.0000      -0.771455       -20.9924
  34   2.0000      -0.704003       -19.1569
  35   2.0000      -0.695566       -18.9273
  36   2.0000      -0.688892       -18.7457
  37   2.0000      -0.665527       -18.1099
  38   2.0000      -0.642106       -17.4726
  39   2.0000      -0.618399       -16.8275
  40   2.0000      -0.593117       -16.1395
  41   2.0000      -0.579617       -15.7722
  42   2.0000      -0.564352       -15.3568
  43   2.0000      -0.556115       -15.1327
  44   2.0000      -0.530748       -14.4424
  45   2.0000      -0.525196       -14.2913
  46   2.0000      -0.515518       -14.0280
  47   2.0000      -0.512878       -13.9561
  48   2.0000      -0.508300       -13.8316
  49   2.0000      -0.498090       -13.5537
  50   2.0000      -0.496860       -13.5203
  51   2.0000      -0.476975       -12.9792
  52   2.0000      -0.467886       -12.7318
  53   2.0000      -0.457836       -12.4583
  54   2.0000      -0.455981       -12.4079
  55   2.0000      -0.451933       -12.2977
  56   2.0000      -0.448910       -12.2155
  57   2.0000      -0.440104       -11.9758
  58   2.0000      -0.429357       -11.6834
  59   2.0000      -0.425367       -11.5748
  60   2.0000      -0.416380       -11.3303
  61   2.0000      -0.414967       -11.2918
  62   2.0000      -0.412005       -11.2112
  63   2.0000      -0.341323        -9.2879
  64   2.0000      -0.331989        -9.0339
  65   2.0000      -0.326214        -8.8767
  66   2.0000      -0.293553        -7.9880
  67   0.0000       0.030219         0.8223
  68   0.0000       0.062174         1.6918
  69   0.0000       0.103207         2.8084
  70   0.0000       0.111622         3.0374
  71   0.0000       0.128163         3.4875

MULLIKEN ATOMIC CHARGES
-----------------------
   0 S :    0.094272
   1 C :   -0.096383
   2 C :   -0.091579
   3 C :    0.034738
   4 C :   -0.141940
   5 H :    0.012232
   6 C :    0.109976
   7 H :    0.004112
   8 H :    0.029154
   9 C :   -0.123744
  10 H :    0.048491
  11 H :    0.023378
  12 C :   -0.018235
  13 H :    0.039939
  14 H :    0.018994
  15 H :    0.021141
  16 S :    0.113581
  17 C :   -0.117832
  18 C :   -0.040507
  19 C :   -0.018037
  20 C :   -0.180080
  21 H :    0.029417
  22 C :    0.091859
  23 H :    0.005614
  24 H :    0.021160
  25 C :   -0.076820
  26 H :    0.033205
  27 H :    0.040392
  28 C :   -0.036463
  29 H :    0.027057
  30 H :    0.016698
  31 H :    0.026281
  32 H :    0.020021
  33 H :    0.079909
Sum of atomic charges:   -0.0000000

LOEWDIN ATOMIC CHARGES
----------------------
   0 S :    0.360125
   1 C :   -0.170434
   2 C :   -0.050413
   3 C :   -0.060735
   4 C :   -0.176016
   5 H :    0.022188
   6 C :   -0.027560
   7 H :    0.021335
   8 H :    0.036273
   9 C :   -0.042195
  10 H :    0.031684
  11 H :    0.020822
  12 C :   -0.064939
  13 H :    0.030950
  14 H :    0.024580
  15 H :    0.017819
  16 S :    0.399404
  17 C :   -0.184109
  18 C :   -0.067259
  19 C :   -0.055002
  20 C :   -0.203070
  21 H :    0.034809
  22 C :   -0.018147
  23 H :    0.018521
  24 H :    0.030232
  25 C :   -0.033446
  26 H :    0.023067
  27 H :    0.029197
  28 C :   -0.061825
  29 H :    0.029644
  30 H :    0.010086
  31 H :    0.024055
  32 H :    0.012999
  33 H :    0.037362

  Mayer bond orders larger than 0.100000
B(  0-S ,  1-C ) :   1.1009 B(  0-S ,  4-C ) :   1.1246 B(  1-C ,  2-C ) :   1.6585
B(  1-C , 32-H ) :   0.9723 B(  2-C ,  3-C ) :   1.1848 B(  2-C ,  6-C ) :   1.0524
B(  3-C ,  4-C ) :   1.6471 B(  3-C ,  5-H ) :   0.9797 B(  4-C , 20-C ) :   1.0293
B(  6-C ,  7-H ) :   0.9366 B(  6-C ,  8-H ) :   0.9316 B(  6-C ,  9-C ) :   1.0467
B(  9-C , 10-H ) :   0.9598 B(  9-C , 11-H ) :   0.9565 B(  9-C , 12-C ) :   1.0932
B( 12-C , 13-H ) :   0.9733 B( 12-C , 14-H ) :   0.9664 B( 12-C , 15-H ) :   0.9756
B( 16-S , 17-C ) :   1.1511 B( 16-S , 20-C ) :   1.1397 B( 17-C , 18-C ) :   1.5938
B( 17-C , 20-C ) :   0.1064 B( 17-C , 33-H ) :   0.9605 B( 18-C , 19-C ) :   1.2520
B( 18-C , 21-H ) :   0.9844 B( 19-C , 20-C ) :   1.6008 B( 19-C , 22-C ) :   1.0390
B( 22-C , 23-H ) :   0.9491 B( 22-C , 24-H ) :   0.9355 B( 22-C , 25-C ) :   1.0363
B( 25-C , 26-H ) :   0.9572 B( 25-C , 27-H ) :   0.9743 B( 25-C , 28-C ) :   1.0780
B( 28-C , 29-H ) :   0.9778 B( 28-C , 30-H ) :   0.9799 B( 28-C , 31-H ) :   0.9745

Dispersion correction           -0.013732132
FINAL SINGLE POINT ENERGY     -1339.858837832965

DIPOLE MOMENT
-------------
                                X             Y             Z
Electronic contribution:     14.88645      -6.24110      19.54669
Nuclear contribution   :    -15.31893       6.56472     -20.00314
                        -----------------------------------------
Total Dipole Moment    :     -0.43248       0.32361      -0.45645
                        -----------------------------------------
Magnitude (a.u.)       :      0.70718
Magnitude (Debye)      :      1.79752

Rotational constants in cm-1:     0.016765     0.008038     0.007080
Rotational constants in MHz :   502.590355   240.959646   212.263754

                             ****ORCA TERMINATED NORMALLY****
TOTAL RUN TIME: 0 days 0 hours 0 minutes 20 seconds 251 msec
