                         Program Version 4.2.1 -  RELEASE  -
|  1> ! wB97X-D3 SP def2-SVP
|  2> %pal
|  3> nprocs 24
|  4> end
|  5>
|  6> * xyz 0 1
|  7> S 	 -120.965 	 20.9776 	 -22.9013
|  8> C 	 -119.566 	 20.1289 	 -23.554
|  9> C 	 -118.394 	 20.8383 	 -23.2696
| 10> C 	 -118.687 	 22.1137 	 -22.623
| 11> C 	 -120 	 22.3736 	 -22.4219
| 12> H 	 -118.025 	 22.8597 	 -22.2456
| 13> C 	 -116.961 	 20.3667 	 -23.4968
| 14> H 	 -117.001 	 19.7846 	 -24.4327
| 15> H 	 -116.886 	 19.6488 	 -22.6659
| 16> C 	 -115.885 	 21.5026 	 -23.4496
| 17> H 	 -116.157 	 22.4373 	 -23.894
| 18> H 	 -115.578 	 21.8608 	 -22.4579
| 19> C 	 -114.56 	 21.0596 	 -24.0708
| 20> H 	 -114.662 	 20.7758 	 -25.1239
| 21> H 	 -113.706 	 21.7924 	 -24.002
| 22> H 	 -114.111 	 20.2106 	 -23.5877
| 23> S 	 -121.927 	 23.4726 	 -20.7637
| 24> C 	 -122.174 	 25.206 	 -20.8422
| 25> C 	 -121.161 	 25.8188 	 -21.5645
| 26> C 	 -120.223 	 24.9607 	 -22.1577
| 27> C 	 -120.601 	 23.6443 	 -21.9733
| 28> H 	 -121.17 	 26.881 	 -21.6629
| 29> C 	 -119.151 	 25.349 	 -23.1834
| 30> H 	 -119.666 	 26.0442 	 -23.8513
| 31> H 	 -118.959 	 24.4037 	 -23.743
| 32> C 	 -117.848 	 25.9528 	 -22.6238
| 33> H 	 -117.299 	 25.2417 	 -22.0256
| 34> H 	 -118.222 	 26.6765 	 -21.9432
| 35> C 	 -116.946 	 26.5911 	 -23.7038
| 36> H 	 -116.484 	 25.8212 	 -24.3652
| 37> H 	 -116.105 	 27.1752 	 -23.3391
| 38> H 	 -117.628 	 27.2892 	 -24.2065
| 39> H 	 -119.642 	 19.0602 	 -23.9035
| 40> H 	 -122.91 	 25.7071 	 -20.1524
| 41> *
| 42>
| 43>                          ****END OF INPUT****

CARTESIAN COORDINATES (ANGSTROEM)
---------------------------------
  S    -120.965000   20.977600  -22.901300
  C    -119.566000   20.128900  -23.554000
  C    -118.394000   20.838300  -23.269600
  C    -118.687000   22.113700  -22.623000
  C    -120.000000   22.373600  -22.421900
  H    -118.025000   22.859700  -22.245600
  C    -116.961000   20.366700  -23.496800
  H    -117.001000   19.784600  -24.432700
  H    -116.886000   19.648800  -22.665900
  C    -115.885000   21.502600  -23.449600
  H    -116.157000   22.437300  -23.894000
  H    -115.578000   21.860800  -22.457900
  C    -114.560000   21.059600  -24.070800
  H    -114.662000   20.775800  -25.123900
  H    -113.706000   21.792400  -24.002000
  H    -114.111000   20.210600  -23.587700
  S    -121.927000   23.472600  -20.763700
  C    -122.174000   25.206000  -20.842200
  C    -121.161000   25.818800  -21.564500
  C    -120.223000   24.960700  -22.157700
  C    -120.601000   23.644300  -21.973300
  H    -121.170000   26.881000  -21.662900
  C    -119.151000   25.349000  -23.183400
  H    -119.666000   26.044200  -23.851300
  H    -118.959000   24.403700  -23.743000
  C    -117.848000   25.952800  -22.623800
  H    -117.299000   25.241700  -22.025600
  H    -118.222000   26.676500  -21.943200
  C    -116.946000   26.591100  -23.703800
  H    -116.484000   25.821200  -24.365200
  H    -116.105000   27.175200  -23.339100
  H    -117.628000   27.289200  -24.206500
  H    -119.642000   19.060200  -23.903500
  H    -122.910000   25.707100  -20.152400

 Total Charge           Charge          ....    0
 Multiplicity           Mult            ....    1
 Number of Electrons    NEL             ....  134
 Basis Dimension        Dim             ....  322

ORBITAL ENERGIES
----------------

  NO   OCC          E(Eh)            E(eV)
   0   2.0000     -88.964874     -2420.8573
   1   2.0000     -88.961571     -2420.7674
   2   2.0000     -10.331423      -281.1323
   3   2.0000     -10.326861      -281.0082
   4   2.0000     -10.322898      -280.9003
   5   2.0000     -10.319743      -280.8145
   6   2.0000     -10.309113      -280.5252
   7   2.0000     -10.304565      -280.4015
   8   2.0000     -10.303616      -280.3756
   9   2.0000     -10.295996      -280.1683
  10   2.0000     -10.294445      -280.1261
  11   2.0000     -10.293797      -280.1085
  12   2.0000     -10.290069      -280.0070
  13   2.0000     -10.287027      -279.9242
  14   2.0000     -10.285486      -279.8823
  15   2.0000     -10.281027      -279.7610
  16   2.0000      -8.079090      -219.8432
  17   2.0000      -8.076086      -219.7615
  18   2.0000      -6.037488      -164.2884
  19   2.0000      -6.034770      -164.2144
  20   2.0000      -6.033802      -164.1881
  21   2.0000      -6.030615      -164.1014
  22   2.0000      -6.029867      -164.0810
  23   2.0000      -6.026675      -163.9942
  24   2.0000      -1.003512       -27.3070
  25   2.0000      -0.980815       -26.6893
  26   2.0000      -0.909416       -24.7465
  27   2.0000      -0.908498       -24.7215
  28   2.0000      -0.868359       -23.6293
  29   2.0000      -0.854935       -23.2640
  30   2.0000      -0.843852       -22.9624
  31   2.0000      -0.814832       -22.1727
  32   2.0000      -0.782043       -21.2805
  33   2.0000      -0.768148       -20.9024
  34   2.0000      -0.715161       -19.4605
  35   2.0000      -0.703195       -19.1349
  36   2.0000      -0.689527       -18.7630
  37   2.0000      -0.661318       -17.9954
  38   2.0000      -0.641693       -17.4614
  39   2.0000      -0.615806       -16.7569
  40   2.0000      -0.592520       -16.1233
  41   2.0000      -0.572289       -15.5728
  42   2.0000      -0.565832       -15.3971
  43   2.0000      -0.558598       -15.2002
  44   2.0000      -0.528963       -14.3938
  45   2.0000      -0.523178       -14.2364
  46   2.0000      -0.514975       -14.0132
  47   2.0000      -0.510745       -13.8981
  48   2.0000      -0.507239       -13.8027
  49   2.0000      -0.495430       -13.4813
  50   2.0000      -0.493115       -13.4184
  51   2.0000      -0.479395       -13.0450
  52   2.0000      -0.470113       -12.7924
  53   2.0000      -0.466592       -12.6966
  54   2.0000      -0.459151       -12.4941
  55   2.0000      -0.449844       -12.2409
  56   2.0000      -0.443744       -12.0749
  57   2.0000      -0.438196       -11.9239
  58   2.0000      -0.434929       -11.8350
  59   2.0000      -0.426518       -11.6062
  60   2.0000      -0.422151       -11.4873
  61   2.0000      -0.419625       -11.4186
  62   2.0000      -0.414962       -11.2917
  63   2.0000      -0.349304        -9.5051
  64   2.0000      -0.335550        -9.1308
  65   2.0000      -0.325502        -8.8574
  66   2.0000      -0.289331        -7.8731
  67   0.0000       0.024006         0.6532
  68   0.0000       0.072655         1.9770
  69   0.0000       0.104590         2.8460
  70   0.0000       0.119728         3.2580
  71   0.0000       0.129571         3.5258

MULLIKEN ATOMIC CHARGES
-----------------------
   0 S :    0.096808
   1 C :   -0.154374
   2 C :   -0.104269
   3 C :   -0.000371
   4 C :   -0.115598
   5 H :   -0.004274
   6 C :    0.077129
   7 H :    0.040326
   8 H :    0.055413
   9 C :   -0.059759
  10 H :    0.028000
  11 H :    0.029246
  12 C :   -0.066804
  13 H :    0.032177
  14 H :    0.033619
  15 H :    0.022111
  16 S :    0.089807
  17 C :   -0.103309
  18 C :   -0.035832
  19 C :   -0.001035
  20 C :   -0.160639
  21 H :    0.007843
  22 C :    0.005628
  23 H :    0.030352
  24 H :    0.045340
  25 C :   -0.042953
  26 H :    0.023283
  27 H :    0.016283
  28 C :   -0.048517
  29 H :    0.043457
  30 H :    0.036621
  31 H :    0.031497
  32 H :    0.072924
  33 H :    0.079872
Sum of atomic charges:   -0.0000000

LOEWDIN ATOMIC CHARGES
----------------------
   0 S :    0.387818
   1 C :   -0.212331
   2 C :   -0.058522
   3 C :   -0.072813
   4 C :   -0.188867
   5 H :    0.027275
   6 C :   -0.030769
   7 H :    0.037586
   8 H :    0.045143
   9 C :   -0.044254
  10 H :    0.022350
  11 H :    0.030125
  12 C :   -0.071450
  13 H :    0.022706
  14 H :    0.030865
  15 H :    0.020532
  16 S :    0.378923
  17 C :   -0.188265
  18 C :   -0.071737
  19 C :   -0.058751
  20 C :   -0.168713
  21 H :    0.026811
  22 C :   -0.028894
  23 H :    0.031225
  24 H :    0.035018
  25 C :   -0.038928
  26 H :    0.017745
  27 H :    0.019781
  28 C :   -0.065768
  29 H :    0.030680
  30 H :    0.026042
  31 H :    0.027770
  32 H :    0.040979
  33 H :    0.040686

  Mayer bond orders larger than 0.100000
B(  0-S ,  1-C ) :   1.1274 B(  0-S ,  4-C ) :   1.1392 B(  1-C ,  2-C ) :   1.6217
B(  1-C , 32-H ) :   0.9654 B(  2-C ,  3-C ) :   1.2114 B(  2-C ,  6-C ) :   0.9970
B(  3-C ,  4-C ) :   1.5951 B(  3-C ,  5-H ) :   0.9989 B(  4-C , 20-C ) :   1.0239
B(  6-C ,  7-H ) :   0.9508 B(  6-C ,  8-H ) :   0.9309 B(  6-C ,  9-C ) :   1.0573
B(  9-C , 10-H ) :   0.9618 B(  9-C , 11-H ) :   0.9449 B(  9-C , 12-C ) :   1.0862
B( 12-C , 13-H ) :   0.9768 B( 12-C , 14-H ) :   0.9738 B( 12-C , 15-H ) :   0.9736
B( 16-S , 17-C ) :   1.1466 B( 16-S , 20-C ) :   1.1424 B( 17-C , 18-C ) :   1.6063
B( 17-C , 20-C ) :   0.1063 B( 17-C , 33-H ) :   0.9612 B( 18-C , 19-C ) :   1.2345
B( 18-C , 21-H ) :   0.9936 B( 19-C , 20-C ) :   1.6013 B( 19-C , 22-C ) :   1.0195
B( 22-C , 23-H ) :   0.9411 B( 22-C , 24-H ) :   0.9387 B( 22-C , 25-C ) :   1.0519
B( 25-C , 26-H ) :   0.9498 B( 25-C , 27-H ) :   0.9561 B( 25-C , 28-C ) :   1.0791
B( 28-C , 29-H ) :   0.9756 B( 28-C , 30-H ) :   0.9753 B( 28-C , 31-H ) :   0.9751

Dispersion correction           -0.014268939
FINAL SINGLE POINT ENERGY     -1339.877672128852

DIPOLE MOMENT
-------------
                                X             Y             Z
Electronic contribution:    -31.04707      -8.36357      10.65425
Nuclear contribution   :     31.76828       8.64815     -10.70874
                        -----------------------------------------
Total Dipole Moment    :      0.72122       0.28458      -0.05450
                        -----------------------------------------
Magnitude (a.u.)       :      0.77724
Magnitude (Debye)      :      1.97560

Rotational constants in cm-1:     0.016330     0.009931     0.006532
Rotational constants in MHz :   489.553812   297.726615   195.832083

                             ****ORCA TERMINATED NORMALLY****
TOTAL RUN TIME: 0 days 0 hours 0 minutes 20 seconds 749 msec
