                         Program Version 4.2.1 -  RELEASE  -
|  1> ! wB97X-D3 SP def2-SVP
|  2> %pal
|  3> nprocs 24
|  4> end
|  5>
|  6> * xyz 0 1
|  7> S 	 -50.5476 	 19.4776 	 26.5457
|  8> C 	 -50.4162 	 17.7649 	 26.6045
|  9> C 	 -50.5519 	 17.2833 	 27.9237
| 10> C 	 -51.0539 	 18.3188 	 28.7887
| 11> C 	 -51.2887 	 19.5221 	 28.1559
| 12> H 	 -51.2524 	 18.3103 	 29.8862
| 13> C 	 -50.5221 	 15.8053 	 28.2077
| 14> H 	 -50.5725 	 15.6629 	 29.2892
| 15> H 	 -49.5536 	 15.3845 	 27.9239
| 16> C 	 -51.6846 	 15.0251 	 27.3774
| 17> H 	 -51.5258 	 15.1792 	 26.2501
| 18> H 	 -51.6591 	 13.9114 	 27.6647
| 19> C 	 -53.1489 	 15.5117 	 27.6695
| 20> H 	 -53.8129 	 14.6969 	 27.4266
| 21> H 	 -53.4629 	 15.8793 	 28.7185
| 22> H 	 -53.3747 	 16.4237 	 27.0989
| 23> S 	 -50.267 	 21.909 	 29.061
| 24> C 	 -51.3089 	 23.0702 	 29.8299
| 25> C 	 -52.5791 	 22.5738 	 29.8384
| 26> C 	 -52.6912 	 21.2225 	 29.4668
| 27> C 	 -51.5595 	 20.7493 	 28.8261
| 28> H 	 -53.3798 	 23.2794 	 30.1893
| 29> C 	 -54.0429 	 20.5231 	 29.5653
| 30> H 	 -54.759 	 21.0033 	 30.3016
| 31> H 	 -53.8642 	 19.4569 	 29.8984
| 32> C 	 -54.8207 	 20.5127 	 28.2571
| 33> H 	 -54.2666 	 19.884 	 27.6382
| 34> H 	 -54.8598 	 21.4791 	 27.8304
| 35> C 	 -56.2371 	 19.9688 	 28.4457
| 36> H 	 -56.7455 	 20.1793 	 27.5069
| 37> H 	 -56.8111 	 20.4798 	 29.2553
| 38> H 	 -56.3234 	 18.8638 	 28.5454
| 39> H 	 -50.0659 	 17.0791 	 25.7798
| 40> H 	 -51.0726 	 24.0532 	 30.0983
| 41> *
| 42>
| 43>                          ****END OF INPUT****

CARTESIAN COORDINATES (ANGSTROEM)
---------------------------------
  S    -50.547600   19.477600   26.545700
  C    -50.416200   17.764900   26.604500
  C    -50.551900   17.283300   27.923700
  C    -51.053900   18.318800   28.788700
  C    -51.288700   19.522100   28.155900
  H    -51.252400   18.310300   29.886200
  C    -50.522100   15.805300   28.207700
  H    -50.572500   15.662900   29.289200
  H    -49.553600   15.384500   27.923900
  C    -51.684600   15.025100   27.377400
  H    -51.525800   15.179200   26.250100
  H    -51.659100   13.911400   27.664700
  C    -53.148900   15.511700   27.669500
  H    -53.812900   14.696900   27.426600
  H    -53.462900   15.879300   28.718500
  H    -53.374700   16.423700   27.098900
  S    -50.267000   21.909000   29.061000
  C    -51.308900   23.070200   29.829900
  C    -52.579100   22.573800   29.838400
  C    -52.691200   21.222500   29.466800
  C    -51.559500   20.749300   28.826100
  H    -53.379800   23.279400   30.189300
  C    -54.042900   20.523100   29.565300
  H    -54.759000   21.003300   30.301600
  H    -53.864200   19.456900   29.898400
  C    -54.820700   20.512700   28.257100
  H    -54.266600   19.884000   27.638200
  H    -54.859800   21.479100   27.830400
  C    -56.237100   19.968800   28.445700
  H    -56.745500   20.179300   27.506900
  H    -56.811100   20.479800   29.255300
  H    -56.323400   18.863800   28.545400
  H    -50.065900   17.079100   25.779800
  H    -51.072600   24.053200   30.098300

 Total Charge           Charge          ....    0
 Multiplicity           Mult            ....    1
 Number of Electrons    NEL             ....  134
 Basis Dimension        Dim             ....  322

ORBITAL ENERGIES
----------------

  NO   OCC          E(Eh)            E(eV)
   0   2.0000     -88.969736     -2420.9896
   1   2.0000     -88.961763     -2420.7726
   2   2.0000     -10.327081      -281.0142
   3   2.0000     -10.323224      -280.9092
   4   2.0000     -10.320915      -280.8464
   5   2.0000     -10.311954      -280.6025
   6   2.0000     -10.308280      -280.5026
   7   2.0000     -10.305908      -280.4380
   8   2.0000     -10.302474      -280.3446
   9   2.0000     -10.300059      -280.2789
  10   2.0000     -10.299888      -280.2742
  11   2.0000     -10.293602      -280.1031
  12   2.0000     -10.290472      -280.0180
  13   2.0000     -10.284145      -279.8458
  14   2.0000     -10.278921      -279.7037
  15   2.0000     -10.272029      -279.5161
  16   2.0000      -8.084429      -219.9885
  17   2.0000      -8.076741      -219.7793
  18   2.0000      -6.042857      -164.4345
  19   2.0000      -6.039021      -164.3301
  20   2.0000      -6.035277      -164.2282
  21   2.0000      -6.035175      -164.2255
  22   2.0000      -6.031116      -164.1150
  23   2.0000      -6.027545      -164.0178
  24   2.0000      -1.011220       -27.5167
  25   2.0000      -0.987338       -26.8668
  26   2.0000      -0.909255       -24.7421
  27   2.0000      -0.902148       -24.5487
  28   2.0000      -0.870855       -23.6972
  29   2.0000      -0.847911       -23.0728
  30   2.0000      -0.842387       -22.9225
  31   2.0000      -0.814511       -22.1640
  32   2.0000      -0.778117       -21.1736
  33   2.0000      -0.767081       -20.8733
  34   2.0000      -0.707520       -19.2526
  35   2.0000      -0.696539       -18.9538
  36   2.0000      -0.690427       -18.7875
  37   2.0000      -0.658768       -17.9260
  38   2.0000      -0.639889       -17.4123
  39   2.0000      -0.610316       -16.6075
  40   2.0000      -0.594283       -16.1713
  41   2.0000      -0.571509       -15.5516
  42   2.0000      -0.568884       -15.4801
  43   2.0000      -0.541857       -14.7447
  44   2.0000      -0.537310       -14.6209
  45   2.0000      -0.520141       -14.1538
  46   2.0000      -0.515402       -14.0248
  47   2.0000      -0.506733       -13.7889
  48   2.0000      -0.502921       -13.6852
  49   2.0000      -0.501371       -13.6430
  50   2.0000      -0.490216       -13.3394
  51   2.0000      -0.477642       -12.9973
  52   2.0000      -0.471121       -12.8198
  53   2.0000      -0.465615       -12.6700
  54   2.0000      -0.457976       -12.4622
  55   2.0000      -0.440461       -11.9856
  56   2.0000      -0.436179       -11.8690
  57   2.0000      -0.432194       -11.7606
  58   2.0000      -0.429757       -11.6943
  59   2.0000      -0.428774       -11.6675
  60   2.0000      -0.419288       -11.4094
  61   2.0000      -0.416608       -11.3365
  62   2.0000      -0.414280       -11.2731
  63   2.0000      -0.346739        -9.4352
  64   2.0000      -0.327658        -8.9160
  65   2.0000      -0.324230        -8.8227
  66   2.0000      -0.295855        -8.0506
  67   0.0000       0.030083         0.8186
  68   0.0000       0.052910         1.4398
  69   0.0000       0.112802         3.0695
  70   0.0000       0.122493         3.3332
  71   0.0000       0.128566         3.4984

MULLIKEN ATOMIC CHARGES
-----------------------
   0 S :    0.124106
   1 C :   -0.135639
   2 C :   -0.092505
   3 C :    0.022624
   4 C :   -0.177806
   5 H :    0.039640
   6 C :    0.075121
   7 H :    0.026780
   8 H :    0.032885
   9 C :   -0.125878
  10 H :    0.052979
  11 H :    0.052930
  12 C :   -0.085807
  13 H :    0.040625
  14 H :    0.036836
  15 H :    0.044951
  16 S :    0.106257
  17 C :   -0.069718
  18 C :   -0.062788
  19 C :   -0.012485
  20 C :   -0.163727
  21 H :    0.036036
  22 C :    0.022534
  23 H :    0.022229
  24 H :    0.028230
  25 C :   -0.023749
  26 H :    0.016357
  27 H :    0.019149
  28 C :   -0.062277
  29 H :    0.028927
  30 H :    0.035776
  31 H :    0.038038
  32 H :    0.075186
  33 H :    0.034185
Sum of atomic charges:    0.0000000

LOEWDIN ATOMIC CHARGES
----------------------
   0 S :    0.417821
   1 C :   -0.210234
   2 C :   -0.070998
   3 C :   -0.054847
   4 C :   -0.203266
   5 H :    0.042216
   6 C :   -0.035277
   7 H :    0.029946
   8 H :    0.030933
   9 C :   -0.042357
  10 H :    0.033825
  11 H :    0.031656
  12 C :   -0.084220
  13 H :    0.024989
  14 H :    0.031923
  15 H :    0.027864
  16 S :    0.407314
  17 C :   -0.184465
  18 C :   -0.077397
  19 C :   -0.060528
  20 C :   -0.203510
  21 H :    0.040416
  22 C :   -0.035422
  23 H :    0.030341
  24 H :    0.032880
  25 C :   -0.032615
  26 H :    0.018276
  27 H :    0.020425
  28 C :   -0.070480
  29 H :    0.027116
  30 H :    0.026494
  31 H :    0.028761
  32 H :    0.042020
  33 H :    0.020402

  Mayer bond orders larger than 0.100000
B(  0-S ,  1-C ) :   1.1664 B(  0-S ,  4-C ) :   1.1332 B(  1-C ,  2-C ) :   1.5673
B(  1-C ,  4-C ) :   0.1046 B(  1-C , 32-H ) :   0.9609 B(  2-C ,  3-C ) :   1.2456
B(  2-C ,  6-C ) :   1.0393 B(  3-C ,  4-C ) :   1.5760 B(  3-C ,  5-H ) :   0.9840
B(  4-C , 20-C ) :   1.0580 B(  6-C ,  7-H ) :   0.9489 B(  6-C ,  8-H ) :   0.9382
B(  6-C ,  9-C ) :   1.0502 B(  9-C , 10-H ) :   0.9551 B(  9-C , 11-H ) :   0.9637
B(  9-C , 12-C ) :   1.0509 B( 12-C , 13-H ) :   0.9772 B( 12-C , 14-H ) :   0.9783
B( 12-C , 15-H ) :   0.9760 B( 16-S , 17-C ) :   1.1507 B( 16-S , 20-C ) :   1.1448
B( 17-C , 18-C ) :   1.6195 B( 17-C , 20-C ) :   0.1048 B( 17-C , 33-H ) :   0.9730
B( 18-C , 19-C ) :   1.2471 B( 18-C , 21-H ) :   0.9803 B( 19-C , 20-C ) :   1.5811
B( 19-C , 22-C ) :   1.0527 B( 22-C , 23-H ) :   0.9418 B( 22-C , 24-H ) :   0.9293
B( 22-C , 25-C ) :   1.0716 B( 25-C , 26-H ) :   0.9484 B( 25-C , 27-H ) :   0.9544
B( 25-C , 28-C ) :   1.0906 B( 28-C , 29-H ) :   0.9728 B( 28-C , 30-H ) :   0.9730
B( 28-C , 31-H ) :   0.9738

Dispersion correction           -0.015087062
FINAL SINGLE POINT ENERGY     -1339.863466898080

DIPOLE MOMENT
-------------
                                X             Y             Z
Electronic contribution:     22.06584      17.92371      -1.49560
Nuclear contribution   :    -22.39680     -18.28474       1.59901
                        -----------------------------------------
Total Dipole Moment    :     -0.33096      -0.36102       0.10341
                        -----------------------------------------
Magnitude (a.u.)       :      0.50056
Magnitude (Debye)      :      1.27233

Rotational constants in cm-1:     0.018206     0.009774     0.007252
Rotational constants in MHz :   545.809651   293.016842   217.414672

                             ****ORCA TERMINATED NORMALLY****
TOTAL RUN TIME: 0 days 0 hours 0 minutes 21 seconds 162 msec
