                         Program Version 4.2.1 -  RELEASE  -
|  1> ! wB97X-D3 SP def2-SVP
|  2> %pal
|  3> nprocs 24
|  4> end
|  5>
|  6> * xyz 0 1
|  7> S 	 -63.1906 	 15.5925 	 -91.5236
|  8> C 	 -62.2992 	 16.4153 	 -92.8593
|  9> C 	 -61.8181 	 17.6641 	 -92.4102
| 10> C 	 -62.0599 	 17.8732 	 -91.0397
| 11> C 	 -62.5738 	 16.8131 	 -90.3751
| 12> H 	 -61.8528 	 18.7934 	 -90.5034
| 13> C 	 -61.3005 	 18.8072 	 -93.3539
| 14> H 	 -60.6075 	 18.5005 	 -94.1675
| 15> H 	 -60.8489 	 19.4781 	 -92.6882
| 16> C 	 -62.3635 	 19.6262 	 -94.1202
| 17> H 	 -61.846 	 20.443 	 -94.73
| 18> H 	 -62.7113 	 18.9804 	 -94.9527
| 19> C 	 -63.4364 	 20.1241 	 -93.2019
| 20> H 	 -63.8963 	 19.3468 	 -92.6454
| 21> H 	 -63.1446 	 21.0146 	 -92.5764
| 22> H 	 -64.2549 	 20.5438 	 -93.7954
| 23> S 	 -64.3668 	 16.5268 	 -88.4289
| 24> C 	 -63.9998 	 16.7713 	 -86.7847
| 25> C 	 -62.6845 	 17.0775 	 -86.6581
| 26> C 	 -61.9263 	 17.0296 	 -87.905
| 27> C 	 -62.7402 	 16.683 	 -88.9378
| 28> H 	 -62.3893 	 17.206 	 -85.6067
| 29> C 	 -60.4611 	 17.3039 	 -87.9787
| 30> H 	 -60.1094 	 17.8421 	 -87.1498
| 31> H 	 -60.2437 	 18.0075 	 -88.882
| 32> C 	 -59.5706 	 16.061 	 -87.9593
| 33> H 	 -59.8569 	 15.4836 	 -88.8593
| 34> H 	 -59.7327 	 15.3556 	 -87.1212
| 35> C 	 -58.1596 	 16.5298 	 -88.1778
| 36> H 	 -58.173 	 17.4257 	 -88.789
| 37> H 	 -57.4949 	 15.8238 	 -88.7757
| 38> H 	 -57.6195 	 16.7304 	 -87.2659
| 39> H 	 -62.5591 	 16.3138 	 -93.867
| 40> H 	 -64.6786 	 16.7389 	 -85.9599
| 41> *
| 42>
| 43>                          ****END OF INPUT****

CARTESIAN COORDINATES (ANGSTROEM)
---------------------------------
  S    -63.190600   15.592500  -91.523600
  C    -62.299200   16.415300  -92.859300
  C    -61.818100   17.664100  -92.410200
  C    -62.059900   17.873200  -91.039700
  C    -62.573800   16.813100  -90.375100
  H    -61.852800   18.793400  -90.503400
  C    -61.300500   18.807200  -93.353900
  H    -60.607500   18.500500  -94.167500
  H    -60.848900   19.478100  -92.688200
  C    -62.363500   19.626200  -94.120200
  H    -61.846000   20.443000  -94.730000
  H    -62.711300   18.980400  -94.952700
  C    -63.436400   20.124100  -93.201900
  H    -63.896300   19.346800  -92.645400
  H    -63.144600   21.014600  -92.576400
  H    -64.254900   20.543800  -93.795400
  S    -64.366800   16.526800  -88.428900
  C    -63.999800   16.771300  -86.784700
  C    -62.684500   17.077500  -86.658100
  C    -61.926300   17.029600  -87.905000
  C    -62.740200   16.683000  -88.937800
  H    -62.389300   17.206000  -85.606700
  C    -60.461100   17.303900  -87.978700
  H    -60.109400   17.842100  -87.149800
  H    -60.243700   18.007500  -88.882000
  C    -59.570600   16.061000  -87.959300
  H    -59.856900   15.483600  -88.859300
  H    -59.732700   15.355600  -87.121200
  C    -58.159600   16.529800  -88.177800
  H    -58.173000   17.425700  -88.789000
  H    -57.494900   15.823800  -88.775700
  H    -57.619500   16.730400  -87.265900
  H    -62.559100   16.313800  -93.867000
  H    -64.678600   16.738900  -85.959900

 Total Charge           Charge          ....    0
 Multiplicity           Mult            ....    1
 Number of Electrons    NEL             ....  134
 Basis Dimension        Dim             ....  322

ORBITAL ENERGIES
----------------

  NO   OCC          E(Eh)            E(eV)
   0   2.0000     -88.966610     -2420.9045
   1   2.0000     -88.960567     -2420.7401
   2   2.0000     -10.331028      -281.1216
   3   2.0000     -10.320688      -280.8402
   4   2.0000     -10.314863      -280.6817
   5   2.0000     -10.311141      -280.5804
   6   2.0000     -10.307870      -280.4914
   7   2.0000     -10.305096      -280.4159
   8   2.0000     -10.294258      -280.1210
   9   2.0000     -10.293191      -280.0920
  10   2.0000     -10.293142      -280.0906
  11   2.0000     -10.292214      -280.0654
  12   2.0000     -10.291484      -280.0455
  13   2.0000     -10.284046      -279.8431
  14   2.0000     -10.275513      -279.6109
  15   2.0000     -10.275008      -279.5972
  16   2.0000      -8.080003      -219.8681
  17   2.0000      -8.077408      -219.7974
  18   2.0000      -6.038638      -164.3197
  19   2.0000      -6.035876      -164.2445
  20   2.0000      -6.034878      -164.2174
  21   2.0000      -6.031512      -164.1258
  22   2.0000      -6.030532      -164.0991
  23   2.0000      -6.028174      -164.0349
  24   2.0000      -1.016304       -27.6550
  25   2.0000      -0.984587       -26.7920
  26   2.0000      -0.916424       -24.9372
  27   2.0000      -0.910570       -24.7779
  28   2.0000      -0.873333       -23.7646
  29   2.0000      -0.853320       -23.2200
  30   2.0000      -0.842652       -22.9297
  31   2.0000      -0.817892       -22.2560
  32   2.0000      -0.783165       -21.3110
  33   2.0000      -0.772325       -21.0160
  34   2.0000      -0.707934       -19.2639
  35   2.0000      -0.700441       -19.0600
  36   2.0000      -0.693393       -18.8682
  37   2.0000      -0.664416       -18.0797
  38   2.0000      -0.638860       -17.3843
  39   2.0000      -0.618745       -16.8369
  40   2.0000      -0.598500       -16.2860
  41   2.0000      -0.569999       -15.5104
  42   2.0000      -0.565002       -15.3745
  43   2.0000      -0.551484       -15.0067
  44   2.0000      -0.544952       -14.8289
  45   2.0000      -0.524007       -14.2589
  46   2.0000      -0.518528       -14.1099
  47   2.0000      -0.513214       -13.9653
  48   2.0000      -0.504383       -13.7250
  49   2.0000      -0.500202       -13.6112
  50   2.0000      -0.489129       -13.3099
  51   2.0000      -0.484900       -13.1948
  52   2.0000      -0.473866       -12.8945
  53   2.0000      -0.460675       -12.5356
  54   2.0000      -0.457223       -12.4417
  55   2.0000      -0.446568       -12.1517
  56   2.0000      -0.443183       -12.0596
  57   2.0000      -0.439609       -11.9624
  58   2.0000      -0.436259       -11.8712
  59   2.0000      -0.423940       -11.5360
  60   2.0000      -0.418404       -11.3854
  61   2.0000      -0.406845       -11.0708
  62   2.0000      -0.402454       -10.9513
  63   2.0000      -0.347954        -9.4683
  64   2.0000      -0.332724        -9.0539
  65   2.0000      -0.327568        -8.9136
  66   2.0000      -0.298453        -8.1213
  67   0.0000       0.024252         0.6599
  68   0.0000       0.067421         1.8346
  69   0.0000       0.104225         2.8361
  70   0.0000       0.119960         3.2643
  71   0.0000       0.134335         3.6554

MULLIKEN ATOMIC CHARGES
-----------------------
   0 S :    0.088306
   1 C :   -0.068638
   2 C :   -0.136926
   3 C :    0.028191
   4 C :   -0.154321
   5 H :    0.022583
   6 C :    0.080298
   7 H :    0.041527
   8 H :    0.004175
   9 C :   -0.099289
  10 H :    0.037130
  11 H :    0.024222
  12 C :   -0.048375
  13 H :    0.049728
  14 H :    0.039786
  15 H :    0.023643
  16 S :    0.099893
  17 C :   -0.075321
  18 C :   -0.054384
  19 C :   -0.034907
  20 C :   -0.114369
  21 H :    0.023509
  22 C :    0.035998
  23 H :    0.003168
  24 H :    0.039724
  25 C :   -0.063077
  26 H :    0.033318
  27 H :    0.040462
  28 C :   -0.047888
  29 H :    0.022572
  30 H :    0.037874
  31 H :    0.033456
  32 H :    0.040505
  33 H :    0.047426
Sum of atomic charges:    0.0000000

LOEWDIN ATOMIC CHARGES
----------------------
   0 S :    0.368232
   1 C :   -0.179940
   2 C :   -0.053995
   3 C :   -0.067805
   4 C :   -0.176413
   5 H :    0.033580
   6 C :   -0.028889
   7 H :    0.037566
   8 H :    0.017474
   9 C :   -0.048372
  10 H :    0.031991
  11 H :    0.021367
  12 C :   -0.073079
  13 H :    0.026050
  14 H :    0.033683
  15 H :    0.028585
  16 S :    0.434693
  17 C :   -0.193703
  18 C :   -0.076756
  19 C :   -0.054958
  20 C :   -0.210809
  21 H :    0.035521
  22 C :   -0.037554
  23 H :    0.021378
  24 H :    0.040749
  25 C :   -0.042968
  26 H :    0.028909
  27 H :    0.030184
  28 C :   -0.069746
  29 H :    0.024488
  30 H :    0.033363
  31 H :    0.021745
  32 H :    0.016413
  33 H :    0.029015

  Mayer bond orders larger than 0.100000
B(  0-S ,  1-C ) :   1.1216 B(  0-S ,  4-C ) :   1.1421 B(  1-C ,  2-C ) :   1.6126
B(  1-C ,  4-C ) :   0.1125 B(  1-C , 32-H ) :   0.9670 B(  2-C ,  3-C ) :   1.2469
B(  2-C ,  6-C ) :   1.0140 B(  3-C ,  4-C ) :   1.5920 B(  3-C ,  5-H ) :   0.9853
B(  4-C , 20-C ) :   1.0059 B(  6-C ,  7-H ) :   0.9477 B(  6-C ,  8-H ) :   0.9393
B(  6-C ,  9-C ) :   1.0701 B(  9-C , 10-H ) :   0.9527 B(  9-C , 11-H ) :   0.9562
B(  9-C , 12-C ) :   1.0819 B( 12-C , 13-H ) :   0.9699 B( 12-C , 14-H ) :   0.9728
B( 12-C , 15-H ) :   0.9676 B( 16-S , 17-C ) :   1.1588 B( 16-S , 20-C ) :   1.1545
B( 17-C , 18-C ) :   1.6331 B( 17-C , 33-H ) :   0.9695 B( 18-C , 19-C ) :   1.2090
B( 18-C , 21-H ) :   0.9910 B( 19-C , 20-C ) :   1.6142 B( 19-C , 22-C ) :   1.0588
B( 22-C , 23-H ) :   0.9282 B( 22-C , 24-H ) :   0.9282 B( 22-C , 25-C ) :   1.0649
B( 25-C , 26-H ) :   0.9553 B( 25-C , 27-H ) :   0.9555 B( 25-C , 28-C ) :   1.0749
B( 28-C , 29-H ) :   0.9692 B( 28-C , 30-H ) :   0.9737 B( 28-C , 31-H ) :   0.9752

Dispersion correction           -0.014626812
FINAL SINGLE POINT ENERGY     -1339.858705090480

DIPOLE MOMENT
-------------
                                X             Y             Z
Electronic contribution:    -17.60198     -13.70686       6.05195
Nuclear contribution   :     17.83293      14.32653      -5.93718
                        -----------------------------------------
Total Dipole Moment    :      0.23095       0.61967       0.11476
                        -----------------------------------------
Magnitude (a.u.)       :      0.67119
Magnitude (Debye)      :      1.70603

Rotational constants in cm-1:     0.017861     0.009080     0.007504
Rotational constants in MHz :   535.450902   272.198438   224.953326

                             ****ORCA TERMINATED NORMALLY****
TOTAL RUN TIME: 0 days 0 hours 0 minutes 21 seconds 990 msec
