                         Program Version 4.2.1 -  RELEASE  -
|  1> ! wB97X-D3 SP def2-SVP
|  2> %pal
|  3> nprocs 24
|  4> end
|  5>
|  6> * xyz 0 1
|  7> S 	 -105.975 	 22.4568 	 -117.44
|  8> C 	 -104.965 	 21.5741 	 -116.341
|  9> C 	 -104.15 	 22.4122 	 -115.652
| 10> C 	 -104.299 	 23.7367 	 -116.086
| 11> C 	 -105.166 	 23.912 	 -117.135
| 12> H 	 -103.806 	 24.7085 	 -115.835
| 13> C 	 -103.099 	 22.0682 	 -114.634
| 14> H 	 -102.203 	 22.6532 	 -114.859
| 15> H 	 -102.799 	 21.0231 	 -114.738
| 16> C 	 -103.583 	 22.3453 	 -113.225
| 17> H 	 -104.017 	 23.3087 	 -113.047
| 18> H 	 -104.372 	 21.7211 	 -113.108
| 19> C 	 -102.535 	 22.087 	 -112.142
| 20> H 	 -102.18 	 21.04 	 -112.197
| 21> H 	 -101.755 	 22.7965 	 -112.159
| 22> H 	 -102.971 	 22.1569 	 -111.155
| 23> S 	 -107.129 	 25.8008 	 -117.07
| 24> C 	 -106.558 	 27.4597 	 -117.333
| 25> C 	 -105.323 	 27.5436 	 -117.897
| 26> C 	 -104.67 	 26.2584 	 -118.002
| 27> C 	 -105.521 	 25.2224 	 -117.67
| 28> H 	 -104.966 	 28.4912 	 -118.284
| 29> C 	 -103.203 	 26.1604 	 -118.544
| 30> H 	 -102.707 	 25.3539 	 -118.031
| 31> H 	 -102.733 	 27.0881 	 -118.231
| 32> C 	 -103.146 	 25.887 	 -120.023
| 33> H 	 -103.649 	 26.6959 	 -120.574
| 34> H 	 -103.63 	 24.9368 	 -120.272
| 35> C 	 -101.687 	 25.8362 	 -120.587
| 36> H 	 -101.056 	 26.7803 	 -120.524
| 37> H 	 -101.674 	 25.7368 	 -121.683
| 38> H 	 -101.039 	 25.0118 	 -120.203
| 39> H 	 -105.174 	 20.4697 	 -116.21
| 40> H 	 -107.174 	 28.3388 	 -117.179
| 41> *
| 42>
| 43>                          ****END OF INPUT****

CARTESIAN COORDINATES (ANGSTROEM)
---------------------------------
  S    -105.975000   22.456800  -117.440000
  C    -104.965000   21.574100  -116.341000
  C    -104.150000   22.412200  -115.652000
  C    -104.299000   23.736700  -116.086000
  C    -105.166000   23.912000  -117.135000
  H    -103.806000   24.708500  -115.835000
  C    -103.099000   22.068200  -114.634000
  H    -102.203000   22.653200  -114.859000
  H    -102.799000   21.023100  -114.738000
  C    -103.583000   22.345300  -113.225000
  H    -104.017000   23.308700  -113.047000
  H    -104.372000   21.721100  -113.108000
  C    -102.535000   22.087000  -112.142000
  H    -102.180000   21.040000  -112.197000
  H    -101.755000   22.796500  -112.159000
  H    -102.971000   22.156900  -111.155000
  S    -107.129000   25.800800  -117.070000
  C    -106.558000   27.459700  -117.333000
  C    -105.323000   27.543600  -117.897000
  C    -104.670000   26.258400  -118.002000
  C    -105.521000   25.222400  -117.670000
  H    -104.966000   28.491200  -118.284000
  C    -103.203000   26.160400  -118.544000
  H    -102.707000   25.353900  -118.031000
  H    -102.733000   27.088100  -118.231000
  C    -103.146000   25.887000  -120.023000
  H    -103.649000   26.695900  -120.574000
  H    -103.630000   24.936800  -120.272000
  C    -101.687000   25.836200  -120.587000
  H    -101.056000   26.780300  -120.524000
  H    -101.674000   25.736800  -121.683000
  H    -101.039000   25.011800  -120.203000
  H    -105.174000   20.469700  -116.210000
  H    -107.174000   28.338800  -117.179000

 Total Charge           Charge          ....    0
 Multiplicity           Mult            ....    1
 Number of Electrons    NEL             ....  134
 Basis Dimension        Dim             ....  322

ORBITAL ENERGIES
----------------

  NO   OCC          E(Eh)            E(eV)
   0   2.0000     -88.964708     -2420.8528
   1   2.0000     -88.959920     -2420.7225
   2   2.0000     -10.327635      -281.0292
   3   2.0000     -10.319825      -280.8167
   4   2.0000     -10.317409      -280.7510
   5   2.0000     -10.313901      -280.6555
   6   2.0000     -10.309650      -280.5398
   7   2.0000     -10.296331      -280.1774
   8   2.0000     -10.295187      -280.1463
   9   2.0000     -10.294228      -280.1202
  10   2.0000     -10.291462      -280.0449
  11   2.0000     -10.288320      -279.9594
  12   2.0000     -10.286311      -279.9048
  13   2.0000     -10.286119      -279.8995
  14   2.0000     -10.272646      -279.5329
  15   2.0000     -10.271359      -279.4979
  16   2.0000      -8.078547      -219.8284
  17   2.0000      -8.076393      -219.7698
  18   2.0000      -6.037200      -164.2806
  19   2.0000      -6.034628      -164.2106
  20   2.0000      -6.033389      -164.1769
  21   2.0000      -6.030636      -164.1019
  22   2.0000      -6.028979      -164.0569
  23   2.0000      -6.027372      -164.0131
  24   2.0000      -1.013601       -27.5815
  25   2.0000      -0.983387       -26.7593
  26   2.0000      -0.917401       -24.9637
  27   2.0000      -0.906109       -24.6565
  28   2.0000      -0.872055       -23.7298
  29   2.0000      -0.851346       -23.1663
  30   2.0000      -0.843170       -22.9438
  31   2.0000      -0.810881       -22.0652
  32   2.0000      -0.783766       -21.3274
  33   2.0000      -0.773502       -21.0480
  34   2.0000      -0.707652       -19.2562
  35   2.0000      -0.702302       -19.1106
  36   2.0000      -0.690712       -18.7952
  37   2.0000      -0.661514       -18.0007
  38   2.0000      -0.645776       -17.5725
  39   2.0000      -0.615715       -16.7545
  40   2.0000      -0.593871       -16.1601
  41   2.0000      -0.570827       -15.5330
  42   2.0000      -0.566829       -15.4242
  43   2.0000      -0.557811       -15.1788
  44   2.0000      -0.524878       -14.2827
  45   2.0000      -0.519669       -14.1409
  46   2.0000      -0.514989       -14.0136
  47   2.0000      -0.509858       -13.8739
  48   2.0000      -0.503590       -13.7034
  49   2.0000      -0.501486       -13.6461
  50   2.0000      -0.492368       -13.3980
  51   2.0000      -0.479279       -13.0419
  52   2.0000      -0.467715       -12.7272
  53   2.0000      -0.460552       -12.5323
  54   2.0000      -0.460174       -12.5220
  55   2.0000      -0.450385       -12.2556
  56   2.0000      -0.441866       -12.0238
  57   2.0000      -0.436260       -11.8712
  58   2.0000      -0.432041       -11.7564
  59   2.0000      -0.425040       -11.5659
  60   2.0000      -0.422782       -11.5045
  61   2.0000      -0.419002       -11.4016
  62   2.0000      -0.416105       -11.3228
  63   2.0000      -0.344561        -9.3760
  64   2.0000      -0.330686        -8.9984
  65   2.0000      -0.329454        -8.9649
  66   2.0000      -0.297912        -8.1066
  67   0.0000       0.036977         1.0062
  68   0.0000       0.062945         1.7128
  69   0.0000       0.109942         2.9917
  70   0.0000       0.123790         3.3685
  71   0.0000       0.131748         3.5850

MULLIKEN ATOMIC CHARGES
-----------------------
   0 S :    0.099397
   1 C :   -0.162264
   2 C :   -0.048998
   3 C :    0.007565
   4 C :   -0.175514
   5 H :    0.027540
   6 C :    0.084172
   7 H :    0.022978
   8 H :    0.015865
   9 C :   -0.038631
  10 H :    0.021244
  11 H :   -0.007076
  12 C :   -0.016629
  13 H :    0.026763
  14 H :    0.024458
  15 H :    0.023486
  16 S :    0.089898
  17 C :   -0.089406
  18 C :   -0.022746
  19 C :   -0.088910
  20 C :   -0.122446
  21 H :    0.022091
  22 C :    0.106571
  23 H :    0.017577
  24 H :    0.020481
  25 C :   -0.049656
  26 H :    0.029328
  27 H :    0.044831
  28 C :   -0.095667
  29 H :    0.032089
  30 H :    0.031555
  31 H :    0.041986
  32 H :    0.071966
  33 H :    0.056102
Sum of atomic charges:    0.0000000

LOEWDIN ATOMIC CHARGES
----------------------
   0 S :    0.425411
   1 C :   -0.208425
   2 C :   -0.068801
   3 C :   -0.069384
   4 C :   -0.224376
   5 H :    0.040067
   6 C :   -0.022909
   7 H :    0.029102
   8 H :    0.029408
   9 C :   -0.033781
  10 H :    0.024228
  11 H :    0.011381
  12 C :   -0.058258
  13 H :    0.027151
  14 H :    0.017449
  15 H :    0.025878
  16 S :    0.367719
  17 C :   -0.164937
  18 C :   -0.075368
  19 C :   -0.044308
  20 C :   -0.183654
  21 H :    0.033173
  22 C :   -0.024100
  23 H :    0.027123
  24 H :    0.029046
  25 C :   -0.036394
  26 H :    0.027321
  27 H :    0.032830
  28 C :   -0.084162
  29 H :    0.028931
  30 H :    0.027011
  31 H :    0.027151
  32 H :    0.039919
  33 H :    0.028558

  Mayer bond orders larger than 0.100000
B(  0-S ,  1-C ) :   1.1487 B(  0-S ,  4-C ) :   1.1647 B(  1-C ,  2-C ) :   1.5915
B(  1-C , 32-H ) :   0.9667 B(  2-C ,  3-C ) :   1.2396 B(  2-C ,  6-C ) :   1.0211
B(  3-C ,  4-C ) :   1.5752 B(  3-C ,  5-H ) :   0.9878 B(  4-C , 20-C ) :   0.9976
B(  6-C ,  7-H ) :   0.9430 B(  6-C ,  8-H ) :   0.9390 B(  6-C ,  9-C ) :   1.0592
B(  9-C , 10-H ) :   0.9566 B(  9-C , 11-H ) :   0.9462 B(  9-C , 12-C ) :   1.0932
B( 12-C , 13-H ) :   0.9718 B( 12-C , 14-H ) :   0.9762 B( 12-C , 15-H ) :   0.9722
B( 16-S , 17-C ) :   1.1456 B( 16-S , 20-C ) :   1.1120 B( 17-C , 18-C ) :   1.6584
B( 17-C , 33-H ) :   0.9614 B( 18-C , 19-C ) :   1.1972 B( 18-C , 21-H ) :   0.9877
B( 19-C , 20-C ) :   1.6552 B( 19-C , 22-C ) :   1.0264 B( 22-C , 23-H ) :   0.9311
B( 22-C , 24-H ) :   0.9360 B( 22-C , 25-C ) :   1.0773 B( 25-C , 26-H ) :   0.9543
B( 25-C , 27-H ) :   0.9538 B( 25-C , 28-C ) :   1.0750 B( 28-C , 29-H ) :   0.9749
B( 28-C , 30-H ) :   0.9747 B( 28-C , 31-H ) :   0.9756

Dispersion correction           -0.013772132
FINAL SINGLE POINT ENERGY     -1339.873967615747

DIPOLE MOMENT
-------------
                                X             Y             Z
Electronic contribution:    -24.42270       0.58696      -5.43428
Nuclear contribution   :     24.95123      -0.31827       5.62268
                        -----------------------------------------
Total Dipole Moment    :      0.52853       0.26870       0.18840
                        -----------------------------------------
Magnitude (a.u.)       :      0.62212
Magnitude (Debye)      :      1.58131

Rotational constants in cm-1:     0.016702     0.008100     0.007101
Rotational constants in MHz :   500.727625   242.843405   212.895115

                             ****ORCA TERMINATED NORMALLY****
TOTAL RUN TIME: 0 days 0 hours 0 minutes 21 seconds 110 msec
