                         Program Version 4.2.1 -  RELEASE  -
|  1> ! wB97X-D3 SP def2-SVP
|  2> %pal
|  3> nprocs 24
|  4> end
|  5>
|  6> * xyz 0 1
|  7> S 	 -103.189 	 67.1657 	 -10.9213
|  8> C 	 -102.259 	 67.8498 	 -9.59981
|  9> C 	 -102.209 	 66.9596 	 -8.51545
| 10> C 	 -102.842 	 65.7254 	 -8.84256
| 11> C 	 -103.541 	 65.7358 	 -10.0197
| 12> H 	 -102.798 	 64.8108 	 -8.2981
| 13> C 	 -101.489 	 67.0928 	 -7.24515
| 14> H 	 -100.8 	 67.9184 	 -7.30245
| 15> H 	 -100.975 	 66.1776 	 -7.05483
| 16> C 	 -102.4 	 67.3007 	 -6.01466
| 17> H 	 -103.005 	 68.1368 	 -6.30615
| 18> H 	 -103.136 	 66.4369 	 -6.0319
| 19> C 	 -101.712 	 67.4839 	 -4.67712
| 20> H 	 -101.382 	 66.5331 	 -4.25415
| 21> H 	 -100.82 	 68.1549 	 -4.62411
| 22> H 	 -102.389 	 67.9921 	 -4.01502
| 23> S 	 -103.809 	 63.9832 	 -12.0798
| 24> C 	 -104.845 	 62.5453 	 -11.9535
| 25> C 	 -105.604 	 62.6382 	 -10.7695
| 26> C 	 -105.18 	 63.7115 	 -9.86109
| 27> C 	 -104.277 	 64.5881 	 -10.5231
| 28> H 	 -106.374 	 61.9067 	 -10.4073
| 29> C 	 -105.784 	 63.8861 	 -8.52749
| 30> H 	 -104.992 	 64.2715 	 -7.8186
| 31> H 	 -106.056 	 62.9503 	 -8.12051
| 32> C 	 -107.045 	 64.8429 	 -8.51874
| 33> H 	 -107.665 	 64.4486 	 -7.71313
| 34> H 	 -107.614 	 64.9059 	 -9.46251
| 35> C 	 -106.751 	 66.32 	 -8.3163
| 36> H 	 -107.537 	 67.0708 	 -8.4361
| 37> H 	 -105.984 	 66.6507 	 -8.99113
| 38> H 	 -106.298 	 66.452 	 -7.33098
| 39> H 	 -101.893 	 68.8176 	 -9.43916
| 40> H 	 -105.05 	 61.7324 	 -12.6341
| 41> *
| 42>
| 43>                          ****END OF INPUT****

CARTESIAN COORDINATES (ANGSTROEM)
---------------------------------
  S    -103.189000   67.165700  -10.921300
  C    -102.259000   67.849800   -9.599810
  C    -102.209000   66.959600   -8.515450
  C    -102.842000   65.725400   -8.842560
  C    -103.541000   65.735800  -10.019700
  H    -102.798000   64.810800   -8.298100
  C    -101.489000   67.092800   -7.245150
  H    -100.800000   67.918400   -7.302450
  H    -100.975000   66.177600   -7.054830
  C    -102.400000   67.300700   -6.014660
  H    -103.005000   68.136800   -6.306150
  H    -103.136000   66.436900   -6.031900
  C    -101.712000   67.483900   -4.677120
  H    -101.382000   66.533100   -4.254150
  H    -100.820000   68.154900   -4.624110
  H    -102.389000   67.992100   -4.015020
  S    -103.809000   63.983200  -12.079800
  C    -104.845000   62.545300  -11.953500
  C    -105.604000   62.638200  -10.769500
  C    -105.180000   63.711500   -9.861090
  C    -104.277000   64.588100  -10.523100
  H    -106.374000   61.906700  -10.407300
  C    -105.784000   63.886100   -8.527490
  H    -104.992000   64.271500   -7.818600
  H    -106.056000   62.950300   -8.120510
  C    -107.045000   64.842900   -8.518740
  H    -107.665000   64.448600   -7.713130
  H    -107.614000   64.905900   -9.462510
  C    -106.751000   66.320000   -8.316300
  H    -107.537000   67.070800   -8.436100
  H    -105.984000   66.650700   -8.991130
  H    -106.298000   66.452000   -7.330980
  H    -101.893000   68.817600   -9.439160
  H    -105.050000   61.732400  -12.634100

 Total Charge           Charge          ....    0
 Multiplicity           Mult            ....    1
 Number of Electrons    NEL             ....  134
 Basis Dimension        Dim             ....  322

ORBITAL ENERGIES
----------------

  NO   OCC          E(Eh)            E(eV)
   0   2.0000     -88.971853     -2421.0472
   1   2.0000     -88.969405     -2420.9806
   2   2.0000     -10.329694      -281.0853
   3   2.0000     -10.326636      -281.0020
   4   2.0000     -10.323334      -280.9122
   5   2.0000     -10.312790      -280.6253
   6   2.0000     -10.307707      -280.4870
   7   2.0000     -10.303616      -280.3757
   8   2.0000     -10.299145      -280.2540
   9   2.0000     -10.295078      -280.1433
  10   2.0000     -10.289364      -279.9878
  11   2.0000     -10.287926      -279.9487
  12   2.0000     -10.286849      -279.9194
  13   2.0000     -10.284450      -279.8541
  14   2.0000     -10.282688      -279.8062
  15   2.0000     -10.267415      -279.3906
  16   2.0000      -8.086221      -220.0373
  17   2.0000      -8.083483      -219.9628
  18   2.0000      -6.044812      -164.4877
  19   2.0000      -6.042221      -164.4172
  20   2.0000      -6.040717      -164.3763
  21   2.0000      -6.037874      -164.2989
  22   2.0000      -6.036979      -164.2745
  23   2.0000      -6.034243      -164.2001
  24   2.0000      -1.008743       -27.4493
  25   2.0000      -0.980774       -26.6882
  26   2.0000      -0.918048       -24.9814
  27   2.0000      -0.906673       -24.6718
  28   2.0000      -0.869425       -23.6583
  29   2.0000      -0.853402       -23.2223
  30   2.0000      -0.846517       -23.0349
  31   2.0000      -0.814615       -22.1668
  32   2.0000      -0.784321       -21.3425
  33   2.0000      -0.772579       -21.0229
  34   2.0000      -0.707206       -19.2440
  35   2.0000      -0.701750       -19.0956
  36   2.0000      -0.693596       -18.8737
  37   2.0000      -0.660683       -17.9781
  38   2.0000      -0.643220       -17.5029
  39   2.0000      -0.622146       -16.9294
  40   2.0000      -0.595918       -16.2158
  41   2.0000      -0.576085       -15.6761
  42   2.0000      -0.559677       -15.2296
  43   2.0000      -0.548375       -14.9220
  44   2.0000      -0.535539       -14.5727
  45   2.0000      -0.522449       -14.2165
  46   2.0000      -0.518978       -14.1221
  47   2.0000      -0.515342       -14.0232
  48   2.0000      -0.505205       -13.7473
  49   2.0000      -0.503526       -13.7016
  50   2.0000      -0.497803       -13.5459
  51   2.0000      -0.480107       -13.0644
  52   2.0000      -0.472825       -12.8662
  53   2.0000      -0.469462       -12.7747
  54   2.0000      -0.458361       -12.4726
  55   2.0000      -0.447581       -12.1793
  56   2.0000      -0.440415       -11.9843
  57   2.0000      -0.438499       -11.9322
  58   2.0000      -0.430449       -11.7131
  59   2.0000      -0.425698       -11.5838
  60   2.0000      -0.419436       -11.4134
  61   2.0000      -0.415825       -11.3152
  62   2.0000      -0.412433       -11.2229
  63   2.0000      -0.348924        -9.4947
  64   2.0000      -0.329413        -8.9638
  65   2.0000      -0.325464        -8.8563
  66   2.0000      -0.288794        -7.8585
  67   0.0000       0.027424         0.7463
  68   0.0000       0.069373         1.8877
  69   0.0000       0.108025         2.9395
  70   0.0000       0.111763         3.0412
  71   0.0000       0.127991         3.4828

MULLIKEN ATOMIC CHARGES
-----------------------
   0 S :    0.123422
   1 C :   -0.082072
   2 C :   -0.101752
   3 C :    0.012862
   4 C :   -0.151577
   5 H :    0.013649
   6 C :    0.098746
   7 H :    0.008158
   8 H :    0.019944
   9 C :   -0.104232
  10 H :    0.019113
  11 H :    0.030989
  12 C :   -0.021744
  13 H :    0.036166
  14 H :    0.030461
  15 H :    0.032830
  16 S :    0.113276
  17 C :   -0.088597
  18 C :   -0.045451
  19 C :   -0.076085
  20 C :   -0.138599
  21 H :    0.036578
  22 C :    0.075579
  23 H :    0.025260
  24 H :    0.008181
  25 C :   -0.063196
  26 H :    0.030277
  27 H :    0.042208
  28 C :   -0.045192
  29 H :    0.036521
  30 H :    0.026156
  31 H :    0.014851
  32 H :    0.022539
  33 H :    0.060731
Sum of atomic charges:   -0.0000000

LOEWDIN ATOMIC CHARGES
----------------------
   0 S :    0.418161
   1 C :   -0.197135
   2 C :   -0.054739
   3 C :   -0.060790
   4 C :   -0.205074
   5 H :    0.026586
   6 C :   -0.030633
   7 H :    0.024646
   8 H :    0.029010
   9 C :   -0.042643
  10 H :    0.019321
  11 H :    0.028363
  12 C :   -0.069541
  13 H :    0.027508
  14 H :    0.030851
  15 H :    0.028821
  16 S :    0.411135
  17 C :   -0.191427
  18 C :   -0.069496
  19 C :   -0.056793
  20 C :   -0.205861
  21 H :    0.037292
  22 C :   -0.033742
  23 H :    0.037818
  24 H :    0.024700
  25 C :   -0.035584
  26 H :    0.022201
  27 H :    0.032010
  28 C :   -0.070546
  29 H :    0.027443
  30 H :    0.024085
  31 H :    0.019595
  32 H :    0.020142
  33 H :    0.034314

  Mayer bond orders larger than 0.100000
B(  0-S ,  1-C ) :   1.1271 B(  0-S ,  4-C ) :   1.1466 B(  1-C ,  2-C ) :   1.6057
B(  1-C , 32-H ) :   0.9691 B(  2-C ,  3-C ) :   1.2317 B(  2-C ,  6-C ) :   1.0519
B(  3-C ,  4-C ) :   1.5767 B(  3-C ,  5-H ) :   0.9911 B(  4-C , 20-C ) :   1.0316
B(  6-C ,  7-H ) :   0.9333 B(  6-C ,  8-H ) :   0.9335 B(  6-C ,  9-C ) :   1.0571
B(  9-C , 10-H ) :   0.9566 B(  9-C , 11-H ) :   0.9544 B(  9-C , 12-C ) :   1.0786
B( 12-C , 13-H ) :   0.9732 B( 12-C , 14-H ) :   0.9723 B( 12-C , 15-H ) :   0.9728
B( 16-S , 17-C ) :   1.1411 B( 16-S , 20-C ) :   1.1504 B( 17-C , 18-C ) :   1.6047
B( 17-C , 20-C ) :   0.1015 B( 17-C , 33-H ) :   0.9691 B( 18-C , 19-C ) :   1.2562
B( 18-C , 21-H ) :   0.9716 B( 19-C , 20-C ) :   1.5598 B( 19-C , 22-C ) :   1.0765
B( 22-C , 23-H ) :   0.9293 B( 22-C , 24-H ) :   0.9253 B( 22-C , 25-C ) :   1.0428
B( 25-C , 26-H ) :   0.9590 B( 25-C , 27-H ) :   0.9622 B( 25-C , 28-C ) :   1.0757
B( 28-C , 29-H ) :   0.9742 B( 28-C , 30-H ) :   0.9715 B( 28-C , 31-H ) :   0.9729

Dispersion correction           -0.015426850
FINAL SINGLE POINT ENERGY     -1339.871639037074

DIPOLE MOMENT
-------------
                                X             Y             Z
Electronic contribution:      4.56998      -5.61381     -28.75686
Nuclear contribution   :     -4.64731       5.47523      29.48989
                        -----------------------------------------
Total Dipole Moment    :     -0.07733      -0.13857       0.73303
                        -----------------------------------------
Magnitude (a.u.)       :      0.75001
Magnitude (Debye)      :      1.90637

Rotational constants in cm-1:     0.019873     0.008960     0.007377
Rotational constants in MHz :   595.773799   268.610277   221.154339

                             ****ORCA TERMINATED NORMALLY****
TOTAL RUN TIME: 0 days 0 hours 0 minutes 21 seconds 278 msec
