                         Program Version 4.2.1 -  RELEASE  -
|  1> ! wB97X-D3 SP def2-SVP
|  2> %pal
|  3> nprocs 24
|  4> end
|  5>
|  6> * xyz 0 1
|  7> S 	 -109.271 	 -1.05551 	 -107.347
|  8> C 	 -109.904 	 -0.00704197 	 -106.079
|  9> C 	 -110.305 	 1.18369 	 -106.651
| 10> C 	 -109.971 	 1.25184 	 -108.053
| 11> C 	 -109.293 	 0.138279 	 -108.542
| 12> H 	 -110.07 	 2.05833 	 -108.74
| 13> C 	 -110.832 	 2.33647 	 -105.891
| 14> H 	 -110 	 2.85232 	 -105.471
| 15> H 	 -111.42 	 1.92618 	 -105.073
| 16> C 	 -111.809 	 3.27593 	 -106.653
| 17> H 	 -112.194 	 4.06608 	 -105.973
| 18> H 	 -111.358 	 3.72961 	 -107.521
| 19> C 	 -113.163 	 2.60167 	 -107.035
| 20> H 	 -112.878 	 1.62931 	 -107.376
| 21> H 	 -113.789 	 2.50789 	 -106.126
| 22> H 	 -113.747 	 3.1492 	 -107.773
| 23> S 	 -106.873 	 -0.233545 	 -109.854
| 24> C 	 -106.803 	 -0.140883 	 -111.574
| 25> C 	 -108.079 	 0.0667493 	 -112.087
| 26> C 	 -109.092 	 0.178513 	 -111.126
| 27> C 	 -108.602 	 -0.00542873 	 -109.84
| 28> H 	 -108.223 	 0.174458 	 -113.152
| 29> C 	 -110.546 	 0.561186 	 -111.413
| 30> H 	 -111.087 	 0.934914 	 -110.561
| 31> H 	 -111.091 	 -0.346322 	 -111.687
| 32> C 	 -110.785 	 1.51388 	 -112.628
| 33> H 	 -111.892 	 1.61101 	 -112.764
| 34> H 	 -110.337 	 1.08458 	 -113.567
| 35> C 	 -110.169 	 2.91553 	 -112.509
| 36> H 	 -109.048 	 2.75565 	 -112.52
| 37> H 	 -110.454 	 3.40107 	 -111.562
| 38> H 	 -110.574 	 3.43686 	 -113.328
| 39> H 	 -110.006 	 -0.221395 	 -105.034
| 40> H 	 -106.004 	 -0.255633 	 -112.303
| 41> *
| 42>
| 43>                          ****END OF INPUT****

CARTESIAN COORDINATES (ANGSTROEM)
---------------------------------
  S    -109.271000   -1.055510  -107.347000
  C    -109.904000   -0.007042  -106.079000
  C    -110.305000    1.183690  -106.651000
  C    -109.971000    1.251840  -108.053000
  C    -109.293000    0.138279  -108.542000
  H    -110.070000    2.058330  -108.740000
  C    -110.832000    2.336470  -105.891000
  H    -110.000000    2.852320  -105.471000
  H    -111.420000    1.926180  -105.073000
  C    -111.809000    3.275930  -106.653000
  H    -112.194000    4.066080  -105.973000
  H    -111.358000    3.729610  -107.521000
  C    -113.163000    2.601670  -107.035000
  H    -112.878000    1.629310  -107.376000
  H    -113.789000    2.507890  -106.126000
  H    -113.747000    3.149200  -107.773000
  S    -106.873000   -0.233545  -109.854000
  C    -106.803000   -0.140883  -111.574000
  C    -108.079000    0.066749  -112.087000
  C    -109.092000    0.178513  -111.126000
  C    -108.602000   -0.005429  -109.840000
  H    -108.223000    0.174458  -113.152000
  C    -110.546000    0.561186  -111.413000
  H    -111.087000    0.934914  -110.561000
  H    -111.091000   -0.346322  -111.687000
  C    -110.785000    1.513880  -112.628000
  H    -111.892000    1.611010  -112.764000
  H    -110.337000    1.084580  -113.567000
  C    -110.169000    2.915530  -112.509000
  H    -109.048000    2.755650  -112.520000
  H    -110.454000    3.401070  -111.562000
  H    -110.574000    3.436860  -113.328000
  H    -110.006000   -0.221395  -105.034000
  H    -106.004000   -0.255633  -112.303000

 Total Charge           Charge          ....    0
 Multiplicity           Mult            ....    1
 Number of Electrons    NEL             ....  134
 Basis Dimension        Dim             ....  322

ORBITAL ENERGIES
----------------

  NO   OCC          E(Eh)            E(eV)
   0   2.0000     -88.971316     -2421.0326
   1   2.0000     -88.964040     -2420.8346
   2   2.0000     -10.327483      -281.0251
   3   2.0000     -10.327369      -281.0220
   4   2.0000     -10.318858      -280.7904
   5   2.0000     -10.312193      -280.6090
   6   2.0000     -10.303601      -280.3752
   7   2.0000     -10.301384      -280.3149
   8   2.0000     -10.294058      -280.1156
   9   2.0000     -10.292050      -280.0609
  10   2.0000     -10.291848      -280.0554
  11   2.0000     -10.291313      -280.0409
  12   2.0000     -10.289476      -279.9909
  13   2.0000     -10.289412      -279.9891
  14   2.0000     -10.277522      -279.6656
  15   2.0000     -10.276502      -279.6378
  16   2.0000      -8.086064      -220.0330
  17   2.0000      -8.079565      -219.8561
  18   2.0000      -6.044547      -164.4805
  19   2.0000      -6.040446      -164.3689
  20   2.0000      -6.038032      -164.3032
  21   2.0000      -6.036958      -164.2740
  22   2.0000      -6.033730      -164.1861
  23   2.0000      -6.030550      -164.0996
  24   2.0000      -1.012188       -27.5430
  25   2.0000      -0.990778       -26.9604
  26   2.0000      -0.915073       -24.9004
  27   2.0000      -0.906299       -24.6616
  28   2.0000      -0.869410       -23.6579
  29   2.0000      -0.851240       -23.1634
  30   2.0000      -0.842392       -22.9226
  31   2.0000      -0.817319       -22.2404
  32   2.0000      -0.786832       -21.4108
  33   2.0000      -0.776152       -21.1202
  34   2.0000      -0.709214       -19.2987
  35   2.0000      -0.693786       -18.8789
  36   2.0000      -0.689358       -18.7584
  37   2.0000      -0.653278       -17.7766
  38   2.0000      -0.643229       -17.5031
  39   2.0000      -0.622007       -16.9257
  40   2.0000      -0.599788       -16.3211
  41   2.0000      -0.572322       -15.5737
  42   2.0000      -0.563049       -15.3213
  43   2.0000      -0.550873       -14.9900
  44   2.0000      -0.540663       -14.7122
  45   2.0000      -0.539251       -14.6738
  46   2.0000      -0.524670       -14.2770
  47   2.0000      -0.510896       -13.9022
  48   2.0000      -0.508663       -13.8414
  49   2.0000      -0.501376       -13.6431
  50   2.0000      -0.490700       -13.3526
  51   2.0000      -0.480931       -13.0868
  52   2.0000      -0.473208       -12.8766
  53   2.0000      -0.467788       -12.7292
  54   2.0000      -0.462615       -12.5884
  55   2.0000      -0.450832       -12.2678
  56   2.0000      -0.445170       -12.1137
  57   2.0000      -0.428583       -11.6623
  58   2.0000      -0.427699       -11.6383
  59   2.0000      -0.425520       -11.5790
  60   2.0000      -0.422285       -11.4910
  61   2.0000      -0.417785       -11.3685
  62   2.0000      -0.409008       -11.1297
  63   2.0000      -0.342097        -9.3089
  64   2.0000      -0.333837        -9.0842
  65   2.0000      -0.327041        -8.8992
  66   2.0000      -0.298308        -8.1174
  67   0.0000       0.031982         0.8703
  68   0.0000       0.068876         1.8742
  69   0.0000       0.118326         3.2198
  70   0.0000       0.124958         3.4003
  71   0.0000       0.128197         3.4884

MULLIKEN ATOMIC CHARGES
-----------------------
   0 S :    0.117440
   1 C :   -0.120633
   2 C :   -0.104682
   3 C :    0.048552
   4 C :   -0.177918
   5 H :   -0.005153
   6 C :    0.096020
   7 H :    0.047565
   8 H :    0.014444
   9 C :   -0.101215
  10 H :    0.035302
  11 H :    0.034008
  12 C :   -0.061941
  13 H :    0.032270
  14 H :    0.031665
  15 H :    0.040035
  16 S :    0.140162
  17 C :   -0.079197
  18 C :   -0.068959
  19 C :   -0.010497
  20 C :   -0.174057
  21 H :    0.013554
  22 C :    0.103477
  23 H :    0.018389
  24 H :    0.037318
  25 C :   -0.146060
  26 H :    0.037282
  27 H :    0.033340
  28 C :   -0.039233
  29 H :    0.049147
  30 H :    0.029379
  31 H :    0.034396
  32 H :    0.040112
  33 H :    0.055686
Sum of atomic charges:    0.0000000

LOEWDIN ATOMIC CHARGES
----------------------
   0 S :    0.429601
   1 C :   -0.197730
   2 C :   -0.064723
   3 C :   -0.068460
   4 C :   -0.211639
   5 H :    0.022095
   6 C :   -0.030389
   7 H :    0.035569
   8 H :    0.031718
   9 C :   -0.041279
  10 H :    0.029969
  11 H :    0.017126
  12 C :   -0.063847
  13 H :    0.018734
  14 H :    0.026757
  15 H :    0.026492
  16 S :    0.436713
  17 C :   -0.199695
  18 C :   -0.076774
  19 C :   -0.055079
  20 C :   -0.208088
  21 H :    0.028202
  22 C :   -0.032160
  23 H :    0.026819
  24 H :    0.038880
  25 C :   -0.045733
  26 H :    0.027547
  27 H :    0.023457
  28 C :   -0.067300
  29 H :    0.034252
  30 H :    0.022355
  31 H :    0.021072
  32 H :    0.027871
  33 H :    0.037669

  Mayer bond orders larger than 0.100000
B(  0-S ,  1-C ) :   1.1363 B(  0-S ,  4-C ) :   1.1869 B(  1-C ,  2-C ) :   1.5939
B(  1-C , 32-H ) :   0.9780 B(  2-C ,  3-C ) :   1.2311 B(  2-C ,  6-C ) :   1.0221
B(  3-C ,  4-C ) :   1.5572 B(  3-C ,  5-H ) :   0.9981 B(  4-C , 20-C ) :   1.0059
B(  6-C ,  7-H ) :   0.9361 B(  6-C ,  8-H ) :   0.9353 B(  6-C ,  9-C ) :   1.0768
B(  9-C , 10-H ) :   0.9614 B(  9-C , 11-H ) :   0.9565 B(  9-C , 12-C ) :   1.0628
B( 12-C , 13-H ) :   0.9807 B( 12-C , 14-H ) :   0.9770 B( 12-C , 15-H ) :   0.9762
B( 16-S , 17-C ) :   1.1688 B( 16-S , 20-C ) :   1.1618 B( 17-C , 18-C ) :   1.5864
B( 17-C , 20-C ) :   0.1044 B( 17-C , 33-H ) :   0.9635 B( 18-C , 19-C ) :   1.2820
B( 18-C , 21-H ) :   0.9841 B( 19-C , 20-C ) :   1.5654 B( 19-C , 22-C ) :   1.0309
B( 22-C , 23-H ) :   0.9372 B( 22-C , 24-H ) :   0.9240 B( 22-C , 25-C ) :   1.0778
B( 25-C , 26-H ) :   0.9558 B( 25-C , 27-H ) :   0.9514 B( 25-C , 28-C ) :   1.0723
B( 28-C , 29-H ) :   0.9724 B( 28-C , 30-H ) :   0.9752 B( 28-C , 31-H ) :   0.9746

Dispersion correction           -0.014856940
FINAL SINGLE POINT ENERGY     -1339.883509178164

DIPOLE MOMENT
-------------
                                X             Y             Z
Electronic contribution:     20.92802     -19.55005       5.68275
Nuclear contribution   :    -21.27775      20.02903      -5.87615
                        -----------------------------------------
Total Dipole Moment    :     -0.34974       0.47898      -0.19340
                        -----------------------------------------
Magnitude (a.u.)       :      0.62381
Magnitude (Debye)      :      1.58560

Rotational constants in cm-1:     0.017830     0.009890     0.007084
Rotational constants in MHz :   534.525785   296.488458   212.383665

                             ****ORCA TERMINATED NORMALLY****
TOTAL RUN TIME: 0 days 0 hours 0 minutes 22 seconds 277 msec
