                         Program Version 4.2.1 -  RELEASE  -
|  1> ! wB97X-D3 SP def2-SVP
|  2> %pal
|  3> nprocs 24
|  4> end
|  5>
|  6> * xyz 0 1
|  7> S 	 43.1158 	 -23.4923 	 -114.535
|  8> C 	 41.8885 	 -22.6242 	 -113.634
|  9> C 	 42.3951 	 -21.4796 	 -113.029
| 10> C 	 43.7034 	 -21.2106 	 -113.495
| 11> C 	 44.2596 	 -22.1806 	 -114.262
| 12> H 	 44.2922 	 -20.3429 	 -113.254
| 13> C 	 41.784 	 -20.5185 	 -112
| 14> H 	 40.7355 	 -20.7219 	 -111.917
| 15> H 	 41.9021 	 -19.5402 	 -112.378
| 16> C 	 42.3714 	 -20.6063 	 -110.524
| 17> H 	 43.4633 	 -20.4321 	 -110.725
| 18> H 	 42.065 	 -19.8099 	 -109.747
| 19> C 	 42.0636 	 -21.9207 	 -109.798
| 20> H 	 42.381 	 -22.7701 	 -110.443
| 21> H 	 42.4234 	 -21.8911 	 -108.811
| 22> H 	 40.9348 	 -22.1004 	 -109.75
| 23> S 	 45.4468 	 -22.241 	 -116.76
| 24> C 	 47.1187 	 -21.8125 	 -116.868
| 25> C 	 47.7325 	 -21.8858 	 -115.649
| 26> C 	 46.788 	 -21.8585 	 -114.553
| 27> C 	 45.5288 	 -22.1422 	 -114.999
| 28> H 	 48.7922 	 -21.8029 	 -115.713
| 29> C 	 47.1881 	 -22.0399 	 -113.105
| 30> H 	 48.053 	 -22.6969 	 -113.203
| 31> H 	 46.4413 	 -22.5831 	 -112.511
| 32> C 	 47.6402 	 -20.8351 	 -112.315
| 33> H 	 46.8279 	 -20.1103 	 -112.079
| 34> H 	 48.3417 	 -20.2797 	 -112.915
| 35> C 	 48.2758 	 -21.1381 	 -110.972
| 36> H 	 47.5098 	 -21.5311 	 -110.4
| 37> H 	 48.7545 	 -20.2639 	 -110.443
| 38> H 	 48.9693 	 -21.9043 	 -111.172
| 39> H 	 40.8213 	 -22.9278 	 -113.641
| 40> H 	 47.6138 	 -21.9014 	 -117.795
| 41> *
| 42>
| 43>                          ****END OF INPUT****

CARTESIAN COORDINATES (ANGSTROEM)
---------------------------------
  S     43.115800  -23.492300  -114.535000
  C     41.888500  -22.624200  -113.634000
  C     42.395100  -21.479600  -113.029000
  C     43.703400  -21.210600  -113.495000
  C     44.259600  -22.180600  -114.262000
  H     44.292200  -20.342900  -113.254000
  C     41.784000  -20.518500  -112.000000
  H     40.735500  -20.721900  -111.917000
  H     41.902100  -19.540200  -112.378000
  C     42.371400  -20.606300  -110.524000
  H     43.463300  -20.432100  -110.725000
  H     42.065000  -19.809900  -109.747000
  C     42.063600  -21.920700  -109.798000
  H     42.381000  -22.770100  -110.443000
  H     42.423400  -21.891100  -108.811000
  H     40.934800  -22.100400  -109.750000
  S     45.446800  -22.241000  -116.760000
  C     47.118700  -21.812500  -116.868000
  C     47.732500  -21.885800  -115.649000
  C     46.788000  -21.858500  -114.553000
  C     45.528800  -22.142200  -114.999000
  H     48.792200  -21.802900  -115.713000
  C     47.188100  -22.039900  -113.105000
  H     48.053000  -22.696900  -113.203000
  H     46.441300  -22.583100  -112.511000
  C     47.640200  -20.835100  -112.315000
  H     46.827900  -20.110300  -112.079000
  H     48.341700  -20.279700  -112.915000
  C     48.275800  -21.138100  -110.972000
  H     47.509800  -21.531100  -110.400000
  H     48.754500  -20.263900  -110.443000
  H     48.969300  -21.904300  -111.172000
  H     40.821300  -22.927800  -113.641000
  H     47.613800  -21.901400  -117.795000

 Total Charge           Charge          ....    0
 Multiplicity           Mult            ....    1
 Number of Electrons    NEL             ....  134
 Basis Dimension        Dim             ....  322

ORBITAL ENERGIES
----------------

  NO   OCC          E(Eh)            E(eV)
   0   2.0000     -88.966812     -2420.9100
   1   2.0000     -88.961791     -2420.7734
   2   2.0000     -10.326786      -281.0061
   3   2.0000     -10.325679      -280.9760
   4   2.0000     -10.321137      -280.8524
   5   2.0000     -10.311333      -280.5856
   6   2.0000     -10.306242      -280.4471
   7   2.0000     -10.304743      -280.4063
   8   2.0000     -10.300460      -280.2898
   9   2.0000     -10.295109      -280.1442
  10   2.0000     -10.293967      -280.1131
  11   2.0000     -10.292110      -280.0625
  12   2.0000     -10.289324      -279.9867
  13   2.0000     -10.280987      -279.7599
  14   2.0000     -10.280003      -279.7331
  15   2.0000     -10.270142      -279.4648
  16   2.0000      -8.081538      -219.9098
  17   2.0000      -8.077221      -219.7924
  18   2.0000      -6.040047      -164.3580
  19   2.0000      -6.036093      -164.2504
  20   2.0000      -6.035645      -164.2383
  21   2.0000      -6.032256      -164.1460
  22   2.0000      -6.031792      -164.1334
  23   2.0000      -6.027853      -164.0262
  24   2.0000      -1.010270       -27.4908
  25   2.0000      -0.988144       -26.8888
  26   2.0000      -0.915576       -24.9141
  27   2.0000      -0.904964       -24.6253
  28   2.0000      -0.870057       -23.6755
  29   2.0000      -0.856486       -23.3062
  30   2.0000      -0.847608       -23.0646
  31   2.0000      -0.816642       -22.2220
  32   2.0000      -0.785227       -21.3671
  33   2.0000      -0.775447       -21.1010
  34   2.0000      -0.704037       -19.1578
  35   2.0000      -0.694517       -18.8988
  36   2.0000      -0.690262       -18.7830
  37   2.0000      -0.663149       -18.0452
  38   2.0000      -0.642813       -17.4918
  39   2.0000      -0.624495       -16.9934
  40   2.0000      -0.600512       -16.3408
  41   2.0000      -0.572767       -15.5858
  42   2.0000      -0.564682       -15.3658
  43   2.0000      -0.554604       -15.0916
  44   2.0000      -0.540180       -14.6990
  45   2.0000      -0.526403       -14.3241
  46   2.0000      -0.520512       -14.1638
  47   2.0000      -0.516096       -14.0437
  48   2.0000      -0.501922       -13.6580
  49   2.0000      -0.496472       -13.5097
  50   2.0000      -0.487449       -13.2642
  51   2.0000      -0.481685       -13.1073
  52   2.0000      -0.472851       -12.8669
  53   2.0000      -0.466236       -12.6869
  54   2.0000      -0.456608       -12.4249
  55   2.0000      -0.451320       -12.2810
  56   2.0000      -0.447350       -12.1730
  57   2.0000      -0.439189       -11.9509
  58   2.0000      -0.434248       -11.8165
  59   2.0000      -0.425810       -11.5869
  60   2.0000      -0.423214       -11.5162
  61   2.0000      -0.412333       -11.2201
  62   2.0000      -0.404322       -11.0022
  63   2.0000      -0.346543        -9.4299
  64   2.0000      -0.331595        -9.0232
  65   2.0000      -0.329755        -8.9731
  66   2.0000      -0.299091        -8.1387
  67   0.0000       0.031865         0.8671
  68   0.0000       0.065677         1.7872
  69   0.0000       0.105583         2.8730
  70   0.0000       0.115464         3.1419
  71   0.0000       0.127828         3.4784

MULLIKEN ATOMIC CHARGES
-----------------------
   0 S :    0.103139
   1 C :   -0.146269
   2 C :   -0.086713
   3 C :    0.032316
   4 C :   -0.155953
   5 H :    0.008341
   6 C :    0.104947
   7 H :    0.009059
   8 H :    0.028035
   9 C :   -0.122598
  10 H :    0.032115
  11 H :    0.047117
  12 C :   -0.054933
  13 H :    0.046350
  14 H :    0.037130
  15 H :    0.028764
  16 S :    0.101371
  17 C :   -0.086870
  18 C :   -0.022253
  19 C :    0.004492
  20 C :   -0.143272
  21 H :    0.016535
  22 C :    0.026164
  23 H :    0.024023
  24 H :    0.035658
  25 C :   -0.085313
  26 H :    0.024368
  27 H :    0.014509
  28 C :   -0.008610
  29 H :    0.013474
  30 H :    0.050483
  31 H :    0.010196
  32 H :    0.066039
  33 H :    0.048157
Sum of atomic charges:   -0.0000000

LOEWDIN ATOMIC CHARGES
----------------------
   0 S :    0.394754
   1 C :   -0.197619
   2 C :   -0.064348
   3 C :   -0.058879
   4 C :   -0.188571
   5 H :    0.031032
   6 C :   -0.022877
   7 H :    0.022300
   8 H :    0.027681
   9 C :   -0.049494
  10 H :    0.022490
  11 H :    0.034298
  12 C :   -0.071455
  13 H :    0.030838
  14 H :    0.019750
  15 H :    0.030767
  16 S :    0.400000
  17 C :   -0.179796
  18 C :   -0.064637
  19 C :   -0.054251
  20 C :   -0.189365
  21 H :    0.029372
  22 C :   -0.029942
  23 H :    0.035209
  24 H :    0.032077
  25 C :   -0.044974
  26 H :    0.021537
  27 H :    0.016391
  28 C :   -0.056594
  29 H :    0.015319
  30 H :    0.037193
  31 H :    0.016177
  32 H :    0.035961
  33 H :    0.019658

  Mayer bond orders larger than 0.100000
B(  0-S ,  1-C ) :   1.1417 B(  0-S ,  4-C ) :   1.1357 B(  1-C ,  2-C ) :   1.6088
B(  1-C , 32-H ) :   0.9637 B(  2-C ,  3-C ) :   1.2249 B(  2-C ,  6-C ) :   1.0228
B(  3-C ,  4-C ) :   1.6116 B(  3-C ,  5-H ) :   0.9923 B(  4-C , 20-C ) :   1.0134
B(  6-C ,  7-H ) :   0.9427 B(  6-C ,  8-H ) :   0.9419 B(  6-C ,  9-C ) :   1.0499
B(  9-C , 10-H ) :   0.9562 B(  9-C , 11-H ) :   0.9602 B(  9-C , 12-C ) :   1.0716
B( 12-C , 13-H ) :   0.9747 B( 12-C , 14-H ) :   0.9747 B( 12-C , 15-H ) :   0.9717
B( 16-S , 17-C ) :   1.1553 B( 16-S , 20-C ) :   1.1358 B( 17-C , 18-C ) :   1.6506
B( 17-C , 33-H ) :   0.9656 B( 18-C , 19-C ) :   1.1875 B( 18-C , 21-H ) :   0.9893
B( 19-C , 20-C ) :   1.6252 B( 19-C , 22-C ) :   1.0380 B( 22-C , 23-H ) :   0.9364
B( 22-C , 24-H ) :   0.9447 B( 22-C , 25-C ) :   1.0589 B( 25-C , 26-H ) :   0.9516
B( 25-C , 27-H ) :   0.9557 B( 25-C , 28-C ) :   1.0813 B( 28-C , 29-H ) :   0.9737
B( 28-C , 30-H ) :   0.9730 B( 28-C , 31-H ) :   0.9731

Dispersion correction           -0.014388704
FINAL SINGLE POINT ENERGY     -1339.866830420400

DIPOLE MOMENT
-------------
                                X             Y             Z
Electronic contribution:     -4.21791      -9.68889     -28.63629
Nuclear contribution   :      4.43790       9.93012      29.03429
                        -----------------------------------------
Total Dipole Moment    :      0.21999       0.24123       0.39800
                        -----------------------------------------
Magnitude (a.u.)       :      0.51477
Magnitude (Debye)      :      1.30845

Rotational constants in cm-1:     0.016879     0.009930     0.006863
Rotational constants in MHz :   506.033181   297.679609   205.742155

                             ****ORCA TERMINATED NORMALLY****
TOTAL RUN TIME: 0 days 0 hours 0 minutes 21 seconds 965 msec
