                         Program Version 4.2.1 -  RELEASE  -
|  1> ! wB97X-D3 SP def2-SVP
|  2> %pal
|  3> nprocs 24
|  4> end
|  5>
|  6> * xyz 0 1
|  7> S 	 -61.0048 	 16.6332 	 -103.023
|  8> C 	 -61.4766 	 17.4176 	 -101.566
|  9> C 	 -61.5291 	 16.4441 	 -100.552
| 10> C 	 -61.0032 	 15.1748 	 -100.955
| 11> C 	 -60.7323 	 15.1062 	 -102.278
| 12> H 	 -60.9122 	 14.2726 	 -100.283
| 13> C 	 -61.9079 	 16.5414 	 -99.0963
| 14> H 	 -62.1144 	 15.5848 	 -98.7029
| 15> H 	 -62.7659 	 17.2404 	 -99.0265
| 16> C 	 -60.8445 	 17.2272 	 -98.261
| 17> H 	 -59.9272 	 16.6699 	 -98.4218
| 18> H 	 -60.7299 	 18.25 	 -98.5969
| 19> C 	 -61.029 	 17.4487 	 -96.8181
| 20> H 	 -61.9281 	 18.021 	 -96.6202
| 21> H 	 -61.114 	 16.5171 	 -96.3527
| 22> H 	 -60.2067 	 18.065 	 -96.4582
| 23> S 	 -58.5398 	 13.6689 	 -103.071
| 24> C 	 -58.7798 	 12.0562 	 -103.833
| 25> C 	 -60.1255 	 11.7045 	 -103.863
| 26> C 	 -60.9524 	 12.78 	 -103.401
| 27> C 	 -60.2875 	 13.9601 	 -102.993
| 28> H 	 -60.406 	 10.7198 	 -104.218
| 29> C 	 -62.4425 	 12.6132 	 -103.51
| 30> H 	 -62.8099 	 12.4183 	 -102.504
| 31> H 	 -62.684 	 11.7137 	 -104.111
| 32> C 	 -63.2468 	 13.7213 	 -104.179
| 33> H 	 -63.1703 	 14.6601 	 -103.732
| 34> H 	 -64.386 	 13.5321 	 -104.288
| 35> C 	 -62.7535 	 14.0452 	 -105.588
| 36> H 	 -63.3884 	 14.7478 	 -106.089
| 37> H 	 -62.85 	 13.0938 	 -106.173
| 38> H 	 -61.7007 	 14.4115 	 -105.628
| 39> H 	 -61.6974 	 18.4586 	 -101.447
| 40> H 	 -57.935 	 11.3994 	 -103.981
| 41> *
| 42>
| 43>                          ****END OF INPUT****

CARTESIAN COORDINATES (ANGSTROEM)
---------------------------------
  S    -61.004800   16.633200  -103.023000
  C    -61.476600   17.417600  -101.566000
  C    -61.529100   16.444100  -100.552000
  C    -61.003200   15.174800  -100.955000
  C    -60.732300   15.106200  -102.278000
  H    -60.912200   14.272600  -100.283000
  C    -61.907900   16.541400  -99.096300
  H    -62.114400   15.584800  -98.702900
  H    -62.765900   17.240400  -99.026500
  C    -60.844500   17.227200  -98.261000
  H    -59.927200   16.669900  -98.421800
  H    -60.729900   18.250000  -98.596900
  C    -61.029000   17.448700  -96.818100
  H    -61.928100   18.021000  -96.620200
  H    -61.114000   16.517100  -96.352700
  H    -60.206700   18.065000  -96.458200
  S    -58.539800   13.668900  -103.071000
  C    -58.779800   12.056200  -103.833000
  C    -60.125500   11.704500  -103.863000
  C    -60.952400   12.780000  -103.401000
  C    -60.287500   13.960100  -102.993000
  H    -60.406000   10.719800  -104.218000
  C    -62.442500   12.613200  -103.510000
  H    -62.809900   12.418300  -102.504000
  H    -62.684000   11.713700  -104.111000
  C    -63.246800   13.721300  -104.179000
  H    -63.170300   14.660100  -103.732000
  H    -64.386000   13.532100  -104.288000
  C    -62.753500   14.045200  -105.588000
  H    -63.388400   14.747800  -106.089000
  H    -62.850000   13.093800  -106.173000
  H    -61.700700   14.411500  -105.628000
  H    -61.697400   18.458600  -101.447000
  H    -57.935000   11.399400  -103.981000

 Total Charge           Charge          ....    0
 Multiplicity           Mult            ....    1
 Number of Electrons    NEL             ....  134
 Basis Dimension        Dim             ....  322

ORBITAL ENERGIES
----------------

  NO   OCC          E(Eh)            E(eV)
   0   2.0000     -88.967266     -2420.9224
   1   2.0000     -88.964395     -2420.8443
   2   2.0000     -10.327583      -281.0278
   3   2.0000     -10.324026      -280.9310
   4   2.0000     -10.322098      -280.8786
   5   2.0000     -10.317360      -280.7496
   6   2.0000     -10.309350      -280.5317
   7   2.0000     -10.302586      -280.3476
   8   2.0000     -10.299548      -280.2650
   9   2.0000     -10.294268      -280.1213
  10   2.0000     -10.289495      -279.9914
  11   2.0000     -10.287383      -279.9339
  12   2.0000     -10.279126      -279.7092
  13   2.0000     -10.274472      -279.5826
  14   2.0000     -10.269206      -279.4393
  15   2.0000     -10.268014      -279.4069
  16   2.0000      -8.082514      -219.9364
  17   2.0000      -8.078142      -219.8174
  18   2.0000      -6.040992      -164.3837
  19   2.0000      -6.036721      -164.2675
  20   2.0000      -6.036661      -164.2659
  21   2.0000      -6.033492      -164.1797
  22   2.0000      -6.032737      -164.1591
  23   2.0000      -6.028996      -164.0573
  24   2.0000      -1.011781       -27.5320
  25   2.0000      -0.981086       -26.6967
  26   2.0000      -0.921507       -25.0755
  27   2.0000      -0.905686       -24.6450
  28   2.0000      -0.876796       -23.8588
  29   2.0000      -0.857329       -23.3291
  30   2.0000      -0.843110       -22.9422
  31   2.0000      -0.815287       -22.1851
  32   2.0000      -0.784592       -21.3498
  33   2.0000      -0.768094       -20.9009
  34   2.0000      -0.708216       -19.2715
  35   2.0000      -0.693732       -18.8774
  36   2.0000      -0.681309       -18.5394
  37   2.0000      -0.663366       -18.0511
  38   2.0000      -0.648263       -17.6401
  39   2.0000      -0.619660       -16.8618
  40   2.0000      -0.589904       -16.0521
  41   2.0000      -0.582228       -15.8432
  42   2.0000      -0.568880       -15.4800
  43   2.0000      -0.555345       -15.1117
  44   2.0000      -0.546357       -14.8671
  45   2.0000      -0.529326       -14.4037
  46   2.0000      -0.520290       -14.1578
  47   2.0000      -0.516013       -14.0414
  48   2.0000      -0.513650       -13.9771
  49   2.0000      -0.499542       -13.5932
  50   2.0000      -0.484476       -13.1833
  51   2.0000      -0.479540       -13.0489
  52   2.0000      -0.475992       -12.9524
  53   2.0000      -0.462757       -12.5923
  54   2.0000      -0.457723       -12.4553
  55   2.0000      -0.446444       -12.1484
  56   2.0000      -0.438130       -11.9221
  57   2.0000      -0.432466       -11.7680
  58   2.0000      -0.428913       -11.6713
  59   2.0000      -0.418099       -11.3771
  60   2.0000      -0.414611       -11.2821
  61   2.0000      -0.411435       -11.1957
  62   2.0000      -0.405534       -11.0351
  63   2.0000      -0.339459        -9.2371
  64   2.0000      -0.330459        -8.9923
  65   2.0000      -0.315014        -8.5720
  66   2.0000      -0.311534        -8.4773
  67   0.0000       0.038165         1.0385
  68   0.0000       0.049582         1.3492
  69   0.0000       0.111769         3.0414
  70   0.0000       0.118811         3.2330
  71   0.0000       0.129326         3.5191

MULLIKEN ATOMIC CHARGES
-----------------------
   0 S :    0.124880
   1 C :   -0.112409
   2 C :   -0.100890
   3 C :    0.020186
   4 C :   -0.176407
   5 H :    0.037185
   6 C :    0.110192
   7 H :    0.007848
   8 H :    0.017726
   9 C :   -0.107753
  10 H :    0.020102
  11 H :    0.013114
  12 C :    0.015594
  13 H :    0.015649
  14 H :    0.013991
  15 H :    0.037139
  16 S :    0.093232
  17 C :   -0.096217
  18 C :   -0.032935
  19 C :   -0.031781
  20 C :   -0.156417
  21 H :    0.027477
  22 C :    0.101097
  23 H :    0.034918
  24 H :    0.019174
  25 C :   -0.083888
  26 H :    0.020574
  27 H :    0.039117
  28 C :   -0.075971
  29 H :    0.027724
  30 H :    0.017752
  31 H :    0.050022
  32 H :    0.046624
  33 H :    0.063354
Sum of atomic charges:    0.0000000

LOEWDIN ATOMIC CHARGES
----------------------
   0 S :    0.443006
   1 C :   -0.206517
   2 C :   -0.057412
   3 C :   -0.063119
   4 C :   -0.219023
   5 H :    0.044137
   6 C :   -0.027915
   7 H :    0.021256
   8 H :    0.032476
   9 C :   -0.045788
  10 H :    0.020951
  11 H :    0.021656
  12 C :   -0.055704
  13 H :    0.022337
  14 H :    0.014025
  15 H :    0.033106
  16 S :    0.384111
  17 C :   -0.162297
  18 C :   -0.070384
  19 C :   -0.044696
  20 C :   -0.204931
  21 H :    0.035929
  22 C :   -0.033860
  23 H :    0.034995
  24 H :    0.032332
  25 C :   -0.048916
  26 H :    0.008245
  27 H :    0.036035
  28 C :   -0.068639
  29 H :    0.020457
  30 H :    0.021396
  31 H :    0.027347
  32 H :    0.028368
  33 H :    0.027035

  Mayer bond orders larger than 0.100000
B(  0-S ,  1-C ) :   1.1534 B(  0-S ,  4-C ) :   1.1650 B(  1-C ,  2-C ) :   1.5694
B(  1-C , 32-H ) :   0.9790 B(  2-C ,  3-C ) :   1.2546 B(  2-C ,  6-C ) :   1.0427
B(  3-C ,  4-C ) :   1.5827 B(  3-C ,  5-H ) :   0.9873 B(  4-C , 20-C ) :   1.0249
B(  6-C ,  7-H ) :   0.9352 B(  6-C ,  8-H ) :   0.9273 B(  6-C ,  9-C ) :   1.0793
B(  9-C , 10-H ) :   0.9516 B(  9-C , 11-H ) :   0.9550 B(  9-C , 12-C ) :   1.0993
B( 12-C , 13-H ) :   0.9683 B( 12-C , 14-H ) :   0.9703 B( 12-C , 15-H ) :   0.9696
B( 16-S , 17-C ) :   1.1631 B( 16-S , 20-C ) :   1.1341 B( 17-C , 18-C ) :   1.5964
B( 17-C , 20-C ) :   0.1065 B( 17-C , 33-H ) :   0.9660 B( 18-C , 19-C ) :   1.2483
B( 18-C , 21-H ) :   0.9916 B( 19-C , 20-C ) :   1.5758 B( 19-C , 22-C ) :   1.0360
B( 22-C , 23-H ) :   0.9199 B( 22-C , 24-H ) :   0.9452 B( 22-C , 25-C ) :   1.0704
B( 25-C , 26-H ) :   0.9523 B( 25-C , 27-H ) :   0.9551 B( 25-C , 28-C ) :   1.0784
B( 28-C , 29-H ) :   0.9746 B( 28-C , 30-H ) :   0.9764 B( 28-C , 31-H ) :   0.9696

Dispersion correction           -0.015184843
FINAL SINGLE POINT ENERGY     -1339.869555691276

DIPOLE MOMENT
-------------
                                X             Y             Z
Electronic contribution:     13.61701      -2.38690     -11.37465
Nuclear contribution   :    -13.92781       2.17994      11.83226
                        -----------------------------------------
Total Dipole Moment    :     -0.31081      -0.20695       0.45761
                        -----------------------------------------
Magnitude (a.u.)       :      0.59062
Magnitude (Debye)      :      1.50124

Rotational constants in cm-1:     0.022102     0.008005     0.007090
Rotational constants in MHz :   662.612118   239.977145   212.538708

                             ****ORCA TERMINATED NORMALLY****
TOTAL RUN TIME: 0 days 0 hours 0 minutes 20 seconds 866 msec
