                         Program Version 4.2.1 -  RELEASE  -
|  1> ! wB97X-D3 SP def2-SVP
|  2> %pal
|  3> nprocs 24
|  4> end
|  5>
|  6> * xyz 0 1
|  7> S 	 -53.8889 	 10.5931 	 -98.0799
|  8> C 	 -52.1618 	 10.6696 	 -98.067
|  9> C 	 -51.6952 	 11.986 	 -98.1558
| 10> C 	 -52.7598 	 12.8142 	 -98.5609
| 11> C 	 -54.0034 	 12.3112 	 -98.4857
| 12> H 	 -52.4907 	 13.7536 	 -99.0148
| 13> C 	 -50.2415 	 12.4809 	 -98.0625
| 14> H 	 -50.2499 	 13.6374 	 -98.0033
| 15> H 	 -49.5813 	 12.0693 	 -98.8308
| 16> C 	 -49.5699 	 12.1084 	 -96.7499
| 17> H 	 -49.7994 	 11.057 	 -96.5593
| 18> H 	 -48.449 	 12.1821 	 -96.8292
| 19> C 	 -49.8866 	 13.0073 	 -95.5782
| 20> H 	 -50.8941 	 12.9635 	 -95.3196
| 21> H 	 -49.2616 	 12.688 	 -94.7567
| 22> H 	 -49.5601 	 14.0609 	 -95.7811
| 23> S 	 -56.519 	 13.2865 	 -97.6015
| 24> C 	 -57.5459 	 13.912 	 -98.8797
| 25> C 	 -56.9231 	 14.0111 	 -100.1
| 26> C 	 -55.64 	 13.3643 	 -100.067
| 27> C 	 -55.2979 	 12.8241 	 -98.8072
| 28> H 	 -57.4211 	 14.5274 	 -100.9
| 29> C 	 -54.7408 	 13.3828 	 -101.238
| 30> H 	 -54.1775 	 12.467 	 -101.213
| 31> H 	 -53.9526 	 14.1975 	 -101.307
| 32> C 	 -55.4427 	 13.5859 	 -102.578
| 33> H 	 -55.8632 	 14.6293 	 -102.513
| 34> H 	 -56.299 	 12.9218 	 -102.545
| 35> C 	 -54.5753 	 13.1942 	 -103.821
| 36> H 	 -54.0644 	 12.1927 	 -103.742
| 37> H 	 -53.893 	 13.974 	 -103.887
| 38> H 	 -55.1447 	 13.1627 	 -104.688
| 39> H 	 -51.5814 	 9.77125 	 -97.9484
| 40> H 	 -58.4892 	 14.3169 	 -98.6347
| 41> *
| 42>
| 43>                          ****END OF INPUT****

CARTESIAN COORDINATES (ANGSTROEM)
---------------------------------
  S    -53.888900   10.593100  -98.079900
  C    -52.161800   10.669600  -98.067000
  C    -51.695200   11.986000  -98.155800
  C    -52.759800   12.814200  -98.560900
  C    -54.003400   12.311200  -98.485700
  H    -52.490700   13.753600  -99.014800
  C    -50.241500   12.480900  -98.062500
  H    -50.249900   13.637400  -98.003300
  H    -49.581300   12.069300  -98.830800
  C    -49.569900   12.108400  -96.749900
  H    -49.799400   11.057000  -96.559300
  H    -48.449000   12.182100  -96.829200
  C    -49.886600   13.007300  -95.578200
  H    -50.894100   12.963500  -95.319600
  H    -49.261600   12.688000  -94.756700
  H    -49.560100   14.060900  -95.781100
  S    -56.519000   13.286500  -97.601500
  C    -57.545900   13.912000  -98.879700
  C    -56.923100   14.011100  -100.100000
  C    -55.640000   13.364300  -100.067000
  C    -55.297900   12.824100  -98.807200
  H    -57.421100   14.527400  -100.900000
  C    -54.740800   13.382800  -101.238000
  H    -54.177500   12.467000  -101.213000
  H    -53.952600   14.197500  -101.307000
  C    -55.442700   13.585900  -102.578000
  H    -55.863200   14.629300  -102.513000
  H    -56.299000   12.921800  -102.545000
  C    -54.575300   13.194200  -103.821000
  H    -54.064400   12.192700  -103.742000
  H    -53.893000   13.974000  -103.887000
  H    -55.144700   13.162700  -104.688000
  H    -51.581400    9.771250  -97.948400
  H    -58.489200   14.316900  -98.634700

 Total Charge           Charge          ....    0
 Multiplicity           Mult            ....    1
 Number of Electrons    NEL             ....  134
 Basis Dimension        Dim             ....  322

ORBITAL ENERGIES
----------------

  NO   OCC          E(Eh)            E(eV)
   0   2.0000     -88.966200     -2420.8934
   1   2.0000     -88.961677     -2420.7703
   2   2.0000     -10.323692      -280.9219
   3   2.0000     -10.321559      -280.8639
   4   2.0000     -10.316518      -280.7267
   5   2.0000     -10.314932      -280.6836
   6   2.0000     -10.303379      -280.3692
   7   2.0000     -10.301887      -280.3286
   8   2.0000     -10.300643      -280.2947
   9   2.0000     -10.293340      -280.0960
  10   2.0000     -10.289443      -279.9900
  11   2.0000     -10.286996      -279.9234
  12   2.0000     -10.285521      -279.8832
  13   2.0000     -10.285036      -279.8701
  14   2.0000     -10.275114      -279.6001
  15   2.0000     -10.270910      -279.4857
  16   2.0000      -8.080426      -219.8796
  17   2.0000      -8.076967      -219.7854
  18   2.0000      -6.038919      -164.3273
  19   2.0000      -6.035320      -164.2294
  20   2.0000      -6.035153      -164.2249
  21   2.0000      -6.031400      -164.1227
  22   2.0000      -6.031086      -164.1142
  23   2.0000      -6.027849      -164.0261
  24   2.0000      -1.007540       -27.4166
  25   2.0000      -0.983524       -26.7630
  26   2.0000      -0.913697       -24.8630
  27   2.0000      -0.910494       -24.7758
  28   2.0000      -0.871787       -23.7225
  29   2.0000      -0.851419       -23.1683
  30   2.0000      -0.846106       -23.0237
  31   2.0000      -0.814971       -22.1765
  32   2.0000      -0.786484       -21.4013
  33   2.0000      -0.770524       -20.9670
  34   2.0000      -0.704212       -19.1626
  35   2.0000      -0.701148       -19.0792
  36   2.0000      -0.692800       -18.8520
  37   2.0000      -0.647504       -17.6195
  38   2.0000      -0.642457       -17.4821
  39   2.0000      -0.621552       -16.9133
  40   2.0000      -0.604488       -16.4489
  41   2.0000      -0.576464       -15.6864
  42   2.0000      -0.569476       -15.4962
  43   2.0000      -0.559956       -15.2372
  44   2.0000      -0.547587       -14.9006
  45   2.0000      -0.521451       -14.1894
  46   2.0000      -0.518902       -14.1200
  47   2.0000      -0.505975       -13.7683
  48   2.0000      -0.504323       -13.7233
  49   2.0000      -0.494948       -13.4682
  50   2.0000      -0.493353       -13.4248
  51   2.0000      -0.475625       -12.9424
  52   2.0000      -0.473270       -12.8783
  53   2.0000      -0.466508       -12.6943
  54   2.0000      -0.459214       -12.4958
  55   2.0000      -0.449672       -12.2362
  56   2.0000      -0.444641       -12.0993
  57   2.0000      -0.430021       -11.7015
  58   2.0000      -0.427878       -11.6431
  59   2.0000      -0.422650       -11.5009
  60   2.0000      -0.421353       -11.4656
  61   2.0000      -0.413788       -11.2597
  62   2.0000      -0.413147       -11.2423
  63   2.0000      -0.339539        -9.2393
  64   2.0000      -0.330949        -9.0056
  65   2.0000      -0.323905        -8.8139
  66   2.0000      -0.296288        -8.0624
  67   0.0000       0.035740         0.9725
  68   0.0000       0.055274         1.5041
  69   0.0000       0.109133         2.9697
  70   0.0000       0.117978         3.2104
  71   0.0000       0.124219         3.3802

MULLIKEN ATOMIC CHARGES
-----------------------
   0 S :    0.108655
   1 C :   -0.133054
   2 C :   -0.086825
   3 C :    0.037997
   4 C :   -0.184273
   5 H :    0.007947
   6 C :    0.055001
   7 H :    0.032836
   8 H :    0.047698
   9 C :   -0.115813
  10 H :    0.024727
  11 H :    0.028938
  12 C :   -0.025547
  13 H :    0.031812
  14 H :    0.029308
  15 H :    0.029435
  16 S :    0.109450
  17 C :   -0.076322
  18 C :   -0.032047
  19 C :   -0.027236
  20 C :   -0.114641
  21 H :    0.023023
  22 C :    0.045156
  23 H :    0.027665
  24 H :    0.041436
  25 C :   -0.149055
  26 H :    0.042360
  27 H :    0.024638
  28 C :    0.023901
  29 H :    0.044812
  30 H :    0.015551
  31 H :    0.020509
  32 H :    0.051491
  33 H :    0.040467
Sum of atomic charges:    0.0000000

LOEWDIN ATOMIC CHARGES
----------------------
   0 S :    0.409168
   1 C :   -0.189303
   2 C :   -0.070725
   3 C :   -0.052303
   4 C :   -0.196342
   5 H :    0.031408
   6 C :   -0.035877
   7 H :    0.038179
   8 H :    0.036176
   9 C :   -0.049165
  10 H :    0.019473
  11 H :    0.027013
  12 C :   -0.059709
  13 H :    0.016673
  14 H :    0.027339
  15 H :    0.028720
  16 S :    0.396119
  17 C :   -0.166548
  18 C :   -0.071434
  19 C :   -0.043837
  20 C :   -0.209200
  21 H :    0.033708
  22 C :   -0.044762
  23 H :    0.029015
  24 H :    0.036424
  25 C :   -0.044867
  26 H :    0.027421
  27 H :    0.016150
  28 C :   -0.051027
  29 H :    0.037759
  30 H :    0.016344
  31 H :    0.018245
  32 H :    0.022273
  33 H :    0.017490

  Mayer bond orders larger than 0.100000
B(  0-S ,  1-C ) :   1.1769 B(  0-S ,  4-C ) :   1.1334 B(  1-C ,  2-C ) :   1.5718
B(  1-C ,  4-C ) :   0.1055 B(  1-C , 32-H ) :   0.9705 B(  2-C ,  3-C ) :   1.2672
B(  2-C ,  6-C ) :   1.0091 B(  3-C ,  4-C ) :   1.5912 B(  3-C ,  5-H ) :   0.9985
B(  4-C , 20-C ) :   1.0358 B(  6-C ,  7-H ) :   0.9490 B(  6-C ,  8-H ) :   0.9391
B(  6-C ,  9-C ) :   1.0632 B(  9-C , 10-H ) :   0.9540 B(  9-C , 11-H ) :   0.9568
B(  9-C , 12-C ) :   1.0918 B( 12-C , 13-H ) :   0.9775 B( 12-C , 14-H ) :   0.9721
B( 12-C , 15-H ) :   0.9682 B( 16-S , 17-C ) :   1.1655 B( 16-S , 20-C ) :   1.1280
B( 17-C , 18-C ) :   1.5991 B( 17-C , 33-H ) :   0.9672 B( 18-C , 19-C ) :   1.2326
B( 18-C , 21-H ) :   0.9923 B( 19-C , 20-C ) :   1.5795 B( 19-C , 22-C ) :   1.0633
B( 22-C , 23-H ) :   0.9219 B( 22-C , 24-H ) :   0.9258 B( 22-C , 25-C ) :   1.0708
B( 25-C , 26-H ) :   0.9462 B( 25-C , 27-H ) :   0.9617 B( 25-C , 28-C ) :   1.0668
B( 28-C , 29-H ) :   0.9740 B( 28-C , 30-H ) :   0.9744 B( 28-C , 31-H ) :   0.9734

Dispersion correction           -0.013861203
FINAL SINGLE POINT ENERGY     -1339.861878567604

DIPOLE MOMENT
-------------
                                X             Y             Z
Electronic contribution:    -18.47945      -6.71989      11.20533
Nuclear contribution   :     18.93438       7.02345     -11.63531
                        -----------------------------------------
Total Dipole Moment    :      0.45493       0.30356      -0.42999
                        -----------------------------------------
Magnitude (a.u.)       :      0.69570
Magnitude (Debye)      :      1.76833

Rotational constants in cm-1:     0.019151     0.007910     0.006571
Rotational constants in MHz :   574.129832   237.138002   196.984762

                             ****ORCA TERMINATED NORMALLY****
TOTAL RUN TIME: 0 days 0 hours 0 minutes 21 seconds 337 msec
