                         Program Version 4.2.1 -  RELEASE  -
|  1> ! wB97X-D3 SP def2-SVP
|  2> %pal
|  3> nprocs 24
|  4> end
|  5>
|  6> * xyz 0 1
|  7> S 	 -128.042 	 75.6641 	 -43.8326
|  8> C 	 -129.399 	 76.8554 	 -43.8868
|  9> C 	 -129.483 	 77.5085 	 -45.0233
| 10> C 	 -128.334 	 77.2116 	 -45.9095
| 11> C 	 -127.467 	 76.2421 	 -45.335
| 12> H 	 -128.173 	 77.6367 	 -46.8376
| 13> C 	 -130.615 	 78.4576 	 -45.3959
| 14> H 	 -130.215 	 79.4216 	 -45.6939
| 15> H 	 -130.989 	 78.8399 	 -44.3935
| 16> C 	 -131.776 	 77.897 	 -46.1774
| 17> H 	 -132.357 	 77.3571 	 -45.4797
| 18> H 	 -132.355 	 78.8029 	 -46.4466
| 19> C 	 -131.333 	 77.1709 	 -47.4344
| 20> H 	 -130.8 	 77.775 	 -48.1382
| 21> H 	 -130.891 	 76.1704 	 -47.2825
| 22> H 	 -132.297 	 76.8855 	 -48.01
| 23> S 	 -124.834 	 75.8114 	 -45.0152
| 24> C 	 -123.879 	 75.108 	 -46.3107
| 25> C 	 -124.502 	 75.0792 	 -47.5268
| 26> C 	 -125.863 	 75.4583 	 -47.3219
| 27> C 	 -126.257 	 75.7834 	 -45.9845
| 28> H 	 -124.06 	 74.6951 	 -48.4149
| 29> C 	 -126.695 	 75.4013 	 -48.5853
| 30> H 	 -127.75 	 75.4604 	 -48.1809
| 31> H 	 -126.575 	 74.475 	 -49.1641
| 32> C 	 -126.447 	 76.612 	 -49.566
| 33> H 	 -125.417 	 76.649 	 -50.0017
| 34> H 	 -126.51 	 77.5859 	 -49.0297
| 35> C 	 -127.48 	 76.7365 	 -50.6899
| 36> H 	 -127.221 	 77.527 	 -51.3525
| 37> H 	 -128.465 	 76.7847 	 -50.3273
| 38> H 	 -127.613 	 75.91 	 -51.3844
| 39> H 	 -130.279 	 76.8698 	 -43.2508
| 40> H 	 -122.841 	 74.9561 	 -46.4201
| 41> *
| 42>
| 43>                          ****END OF INPUT****

CARTESIAN COORDINATES (ANGSTROEM)
---------------------------------
  S    -128.042000   75.664100  -43.832600
  C    -129.399000   76.855400  -43.886800
  C    -129.483000   77.508500  -45.023300
  C    -128.334000   77.211600  -45.909500
  C    -127.467000   76.242100  -45.335000
  H    -128.173000   77.636700  -46.837600
  C    -130.615000   78.457600  -45.395900
  H    -130.215000   79.421600  -45.693900
  H    -130.989000   78.839900  -44.393500
  C    -131.776000   77.897000  -46.177400
  H    -132.357000   77.357100  -45.479700
  H    -132.355000   78.802900  -46.446600
  C    -131.333000   77.170900  -47.434400
  H    -130.800000   77.775000  -48.138200
  H    -130.891000   76.170400  -47.282500
  H    -132.297000   76.885500  -48.010000
  S    -124.834000   75.811400  -45.015200
  C    -123.879000   75.108000  -46.310700
  C    -124.502000   75.079200  -47.526800
  C    -125.863000   75.458300  -47.321900
  C    -126.257000   75.783400  -45.984500
  H    -124.060000   74.695100  -48.414900
  C    -126.695000   75.401300  -48.585300
  H    -127.750000   75.460400  -48.180900
  H    -126.575000   74.475000  -49.164100
  C    -126.447000   76.612000  -49.566000
  H    -125.417000   76.649000  -50.001700
  H    -126.510000   77.585900  -49.029700
  C    -127.480000   76.736500  -50.689900
  H    -127.221000   77.527000  -51.352500
  H    -128.465000   76.784700  -50.327300
  H    -127.613000   75.910000  -51.384400
  H    -130.279000   76.869800  -43.250800
  H    -122.841000   74.956100  -46.420100

 Total Charge           Charge          ....    0
 Multiplicity           Mult            ....    1
 Number of Electrons    NEL             ....  134
 Basis Dimension        Dim             ....  322

ORBITAL ENERGIES
----------------

  NO   OCC          E(Eh)            E(eV)
   0   2.0000     -88.968770     -2420.9633
   1   2.0000     -88.967574     -2420.9308
   2   2.0000     -10.333853      -281.1984
   3   2.0000     -10.329636      -281.0837
   4   2.0000     -10.309957      -280.5482
   5   2.0000     -10.309043      -280.5233
   6   2.0000     -10.305393      -280.4240
   7   2.0000     -10.297910      -280.2204
   8   2.0000     -10.295497      -280.1547
   9   2.0000     -10.295003      -280.1413
  10   2.0000     -10.294541      -280.1287
  11   2.0000     -10.294041      -280.1151
  12   2.0000     -10.289359      -279.9877
  13   2.0000     -10.288269      -279.9580
  14   2.0000     -10.285378      -279.8794
  15   2.0000     -10.270390      -279.4715
  16   2.0000      -8.083345      -219.9590
  17   2.0000      -8.082469      -219.9352
  18   2.0000      -6.042001      -164.4112
  19   2.0000      -6.041068      -164.3858
  20   2.0000      -6.037989      -164.3020
  21   2.0000      -6.036928      -164.2732
  22   2.0000      -6.033823      -164.1887
  23   2.0000      -6.033138      -164.1700
  24   2.0000      -1.007830       -27.4245
  25   2.0000      -0.984213       -26.7818
  26   2.0000      -0.919356       -25.0170
  27   2.0000      -0.901723       -24.5371
  28   2.0000      -0.877328       -23.8733
  29   2.0000      -0.850426       -23.1413
  30   2.0000      -0.844102       -22.9692
  31   2.0000      -0.815628       -22.1944
  32   2.0000      -0.788167       -21.4471
  33   2.0000      -0.768254       -20.9053
  34   2.0000      -0.711333       -19.3564
  35   2.0000      -0.705383       -19.1944
  36   2.0000      -0.694559       -18.8999
  37   2.0000      -0.665243       -18.1022
  38   2.0000      -0.635503       -17.2929
  39   2.0000      -0.615179       -16.7399
  40   2.0000      -0.589314       -16.0360
  41   2.0000      -0.582003       -15.8371
  42   2.0000      -0.558302       -15.1922
  43   2.0000      -0.552049       -15.0220
  44   2.0000      -0.544816       -14.8252
  45   2.0000      -0.527108       -14.3433
  46   2.0000      -0.517272       -14.0757
  47   2.0000      -0.511935       -13.9305
  48   2.0000      -0.503502       -13.7010
  49   2.0000      -0.500290       -13.6136
  50   2.0000      -0.491112       -13.3638
  51   2.0000      -0.482503       -13.1296
  52   2.0000      -0.470051       -12.7907
  53   2.0000      -0.467840       -12.7306
  54   2.0000      -0.462262       -12.5788
  55   2.0000      -0.450714       -12.2646
  56   2.0000      -0.443929       -12.0799
  57   2.0000      -0.435245       -11.8436
  58   2.0000      -0.427739       -11.6394
  59   2.0000      -0.421869       -11.4796
  60   2.0000      -0.417745       -11.3674
  61   2.0000      -0.410862       -11.1801
  62   2.0000      -0.407194       -11.0803
  63   2.0000      -0.354175        -9.6376
  64   2.0000      -0.336246        -9.1497
  65   2.0000      -0.324572        -8.8321
  66   2.0000      -0.289423        -7.8756
  67   0.0000       0.027447         0.7469
  68   0.0000       0.076396         2.0788
  69   0.0000       0.108906         2.9635
  70   0.0000       0.113587         3.0909
  71   0.0000       0.122127         3.3233

MULLIKEN ATOMIC CHARGES
-----------------------
   0 S :    0.114335
   1 C :   -0.108902
   2 C :   -0.091779
   3 C :    0.059186
   4 C :   -0.142581
   5 H :   -0.029504
   6 C :    0.018471
   7 H :    0.026431
   8 H :    0.012020
   9 C :   -0.000499
  10 H :    0.020482
  11 H :    0.033862
  12 C :   -0.079384
  13 H :    0.035582
  14 H :    0.058186
  15 H :    0.032666
  16 S :    0.112783
  17 C :   -0.039742
  18 C :   -0.049492
  19 C :   -0.042871
  20 C :   -0.137333
  21 H :    0.019618
  22 C :    0.028855
  23 H :    0.028063
  24 H :    0.037113
  25 C :   -0.095066
  26 H :    0.032010
  27 H :    0.033446
  28 C :   -0.013996
  29 H :    0.028265
  30 H :    0.014058
  31 H :    0.011224
  32 H :    0.040844
  33 H :    0.033649
Sum of atomic charges:    0.0000000

LOEWDIN ATOMIC CHARGES
----------------------
   0 S :    0.396974
   1 C :   -0.183183
   2 C :   -0.060539
   3 C :   -0.048266
   4 C :   -0.206628
   5 H :    0.012934
   6 C :   -0.042342
   7 H :    0.028713
   8 H :    0.034963
   9 C :   -0.036772
  10 H :    0.021234
  11 H :    0.034241
  12 C :   -0.073158
  13 H :    0.022060
  14 H :    0.032468
  15 H :    0.036058
  16 S :    0.423566
  17 C :   -0.179710
  18 C :   -0.063182
  19 C :   -0.053631
  20 C :   -0.214084
  21 H :    0.032052
  22 C :   -0.038889
  23 H :    0.032601
  24 H :    0.031007
  25 C :   -0.042783
  26 H :    0.025391
  27 H :    0.027339
  28 C :   -0.068478
  29 H :    0.025208
  30 H :    0.018248
  31 H :    0.022983
  32 H :    0.030602
  33 H :    0.023003

  Mayer bond orders larger than 0.100000
B(  0-S ,  1-C ) :   1.0885 B(  0-S ,  4-C ) :   1.1556 B(  1-C ,  2-C ) :   1.7173
B(  1-C , 32-H ) :   0.9508 B(  2-C ,  3-C ) :   1.1878 B(  2-C ,  6-C ) :   1.0078
B(  3-C ,  4-C ) :   1.5591 B(  3-C ,  5-H ) :   1.0095 B(  4-C , 20-C ) :   1.0494
B(  6-C ,  7-H ) :   0.9418 B(  6-C ,  8-H ) :   0.9379 B(  6-C ,  9-C ) :   1.0662
B(  9-C , 10-H ) :   0.9533 B(  9-C , 11-H ) :   0.9488 B(  9-C , 12-C ) :   1.0909
B( 12-C , 13-H ) :   0.9730 B( 12-C , 14-H ) :   0.9686 B( 12-C , 15-H ) :   0.9695
B( 16-S , 17-C ) :   1.1559 B( 16-S , 20-C ) :   1.1415 B( 17-C , 18-C ) :   1.6147
B( 17-C , 33-H ) :   0.9600 B( 18-C , 19-C ) :   1.2521 B( 18-C , 21-H ) :   0.9936
B( 19-C , 20-C ) :   1.5645 B( 19-C , 22-C ) :   1.0531 B( 22-C , 23-H ) :   0.9374
B( 22-C , 24-H ) :   0.9428 B( 22-C , 25-C ) :   1.0495 B( 25-C , 26-H ) :   0.9554
B( 25-C , 27-H ) :   0.9542 B( 25-C , 28-C ) :   1.0841 B( 28-C , 29-H ) :   0.9729
B( 28-C , 30-H ) :   0.9729 B( 28-C , 31-H ) :   0.9700

Dispersion correction           -0.014909908
FINAL SINGLE POINT ENERGY     -1339.847004973620

DIPOLE MOMENT
-------------
                                X             Y             Z
Electronic contribution:     17.82431      -8.56502      24.88521
Nuclear contribution   :    -18.22278       8.82838     -25.57191
                        -----------------------------------------
Total Dipole Moment    :     -0.39847       0.26336      -0.68670
                        -----------------------------------------
Magnitude (a.u.)       :      0.83647
Magnitude (Debye)      :      2.12615

Rotational constants in cm-1:     0.016868     0.010357     0.006801
Rotational constants in MHz :   505.680620   310.481562   203.896288

                             ****ORCA TERMINATED NORMALLY****
TOTAL RUN TIME: 0 days 0 hours 0 minutes 22 seconds 214 msec
