                         Program Version 4.2.1 -  RELEASE  -
|  1> ! wB97X-D3 SP def2-SVP
|  2> %pal
|  3> nprocs 24
|  4> end
|  5>
|  6> * xyz 0 1
|  7> S 	 -36.063 	 9.48588 	 2.40975
|  8> C 	 -37.0974 	 9.77961 	 3.78478
|  9> C 	 -36.7624 	 8.93474 	 4.83965
| 10> C 	 -35.789 	 7.96772 	 4.48366
| 11> C 	 -35.3299 	 8.06613 	 3.18197
| 12> H 	 -35.3291 	 7.26262 	 5.20485
| 13> C 	 -37.3275 	 9.05507 	 6.22182
| 14> H 	 -37.7735 	 8.11443 	 6.48713
| 15> H 	 -38.2576 	 9.71676 	 6.23476
| 16> C 	 -36.4353 	 9.411 	 7.40325
| 17> H 	 -36.0166 	 10.4436 	 7.36818
| 18> H 	 -36.989 	 9.23402 	 8.25479
| 19> C 	 -35.1601 	 8.60321 	 7.52949
| 20> H 	 -35.3067 	 7.55179 	 7.43367
| 21> H 	 -34.3904 	 8.84771 	 6.8684
| 22> H 	 -34.8689 	 8.81539 	 8.47845
| 23> S 	 -34.8038 	 5.52866 	 2.34613
| 24> C 	 -33.2402 	 5.18985 	 1.78023
| 25> C 	 -32.5694 	 6.35335 	 1.44457
| 26> C 	 -33.1529 	 7.52982 	 2.00399
| 27> C 	 -34.3149 	 7.20796 	 2.61587
| 28> H 	 -31.6977 	 6.23782 	 0.781367
| 29> C 	 -32.4285 	 8.92725 	 1.88871
| 30> H 	 -33.1104 	 9.72688 	 1.89398
| 31> H 	 -31.9329 	 8.96321 	 0.996578
| 32> C 	 -31.4079 	 9.2077 	 3.03351
| 33> H 	 -30.8595 	 10.1087 	 3.01127
| 34> H 	 -30.6061 	 8.48321 	 2.99971
| 35> C 	 -32.1256 	 9.24785 	 4.40229
| 36> H 	 -32.4395 	 8.29605 	 4.79375
| 37> H 	 -33.0216 	 9.81581 	 4.19629
| 38> H 	 -31.5785 	 9.75087 	 5.22756
| 39> H 	 -37.8522 	 10.6364 	 3.77109
| 40> H 	 -32.8354 	 4.2435 	 1.41795
| 41> *
| 42>
| 43>                          ****END OF INPUT****

CARTESIAN COORDINATES (ANGSTROEM)
---------------------------------
  S    -36.063000    9.485880    2.409750
  C    -37.097400    9.779610    3.784780
  C    -36.762400    8.934740    4.839650
  C    -35.789000    7.967720    4.483660
  C    -35.329900    8.066130    3.181970
  H    -35.329100    7.262620    5.204850
  C    -37.327500    9.055070    6.221820
  H    -37.773500    8.114430    6.487130
  H    -38.257600    9.716760    6.234760
  C    -36.435300    9.411000    7.403250
  H    -36.016600   10.443600    7.368180
  H    -36.989000    9.234020    8.254790
  C    -35.160100    8.603210    7.529490
  H    -35.306700    7.551790    7.433670
  H    -34.390400    8.847710    6.868400
  H    -34.868900    8.815390    8.478450
  S    -34.803800    5.528660    2.346130
  C    -33.240200    5.189850    1.780230
  C    -32.569400    6.353350    1.444570
  C    -33.152900    7.529820    2.003990
  C    -34.314900    7.207960    2.615870
  H    -31.697700    6.237820    0.781367
  C    -32.428500    8.927250    1.888710
  H    -33.110400    9.726880    1.893980
  H    -31.932900    8.963210    0.996578
  C    -31.407900    9.207700    3.033510
  H    -30.859500   10.108700    3.011270
  H    -30.606100    8.483210    2.999710
  C    -32.125600    9.247850    4.402290
  H    -32.439500    8.296050    4.793750
  H    -33.021600    9.815810    4.196290
  H    -31.578500    9.750870    5.227560
  H    -37.852200   10.636400    3.771090
  H    -32.835400    4.243500    1.417950

 Total Charge           Charge          ....    0
 Multiplicity           Mult            ....    1
 Number of Electrons    NEL             ....  134
 Basis Dimension        Dim             ....  322

ORBITAL ENERGIES
----------------

  NO   OCC          E(Eh)            E(eV)
   0   2.0000     -88.966018     -2420.8884
   1   2.0000     -88.965712     -2420.8801
   2   2.0000     -10.326280      -280.9924
   3   2.0000     -10.321446      -280.8608
   4   2.0000     -10.321270      -280.8560
   5   2.0000     -10.311454      -280.5889
   6   2.0000     -10.304481      -280.3992
   7   2.0000     -10.300005      -280.2774
   8   2.0000     -10.293468      -280.0995
   9   2.0000     -10.292220      -280.0655
  10   2.0000     -10.290062      -280.0068
  11   2.0000     -10.288835      -279.9734
  12   2.0000     -10.280546      -279.7479
  13   2.0000     -10.280539      -279.7477
  14   2.0000     -10.268837      -279.4293
  15   2.0000     -10.258509      -279.1482
  16   2.0000      -8.081123      -219.8985
  17   2.0000      -8.080124      -219.8713
  18   2.0000      -6.039472      -164.3424
  19   2.0000      -6.038599      -164.3186
  20   2.0000      -6.035835      -164.2434
  21   2.0000      -6.034679      -164.2120
  22   2.0000      -6.031681      -164.1304
  23   2.0000      -6.030991      -164.1116
  24   2.0000      -1.009796       -27.4780
  25   2.0000      -0.985785       -26.8246
  26   2.0000      -0.915649       -24.9161
  27   2.0000      -0.905468       -24.6390
  28   2.0000      -0.871036       -23.7021
  29   2.0000      -0.850250       -23.1365
  30   2.0000      -0.846581       -23.0366
  31   2.0000      -0.812829       -22.1182
  32   2.0000      -0.787701       -21.4344
  33   2.0000      -0.776770       -21.1370
  34   2.0000      -0.704879       -19.1807
  35   2.0000      -0.701094       -19.0777
  36   2.0000      -0.693845       -18.8805
  37   2.0000      -0.659229       -17.9385
  38   2.0000      -0.636658       -17.3243
  39   2.0000      -0.613985       -16.7074
  40   2.0000      -0.594565       -16.1789
  41   2.0000      -0.577100       -15.7037
  42   2.0000      -0.555523       -15.1166
  43   2.0000      -0.549664       -14.9571
  44   2.0000      -0.546450       -14.8697
  45   2.0000      -0.540142       -14.6980
  46   2.0000      -0.517178       -14.0731
  47   2.0000      -0.510004       -13.8779
  48   2.0000      -0.500628       -13.6228
  49   2.0000      -0.492516       -13.4020
  50   2.0000      -0.490052       -13.3350
  51   2.0000      -0.477940       -13.0054
  52   2.0000      -0.473818       -12.8933
  53   2.0000      -0.462138       -12.5754
  54   2.0000      -0.458337       -12.4720
  55   2.0000      -0.444526       -12.0962
  56   2.0000      -0.442890       -12.0517
  57   2.0000      -0.437266       -11.8986
  58   2.0000      -0.432433       -11.7671
  59   2.0000      -0.429463       -11.6863
  60   2.0000      -0.424626       -11.5546
  61   2.0000      -0.415439       -11.3047
  62   2.0000      -0.408785       -11.1236
  63   2.0000      -0.342124        -9.3097
  64   2.0000      -0.329075        -8.9546
  65   2.0000      -0.327741        -8.9183
  66   2.0000      -0.296605        -8.0710
  67   0.0000       0.032394         0.8815
  68   0.0000       0.066147         1.8000
  69   0.0000       0.102491         2.7889
  70   0.0000       0.113840         3.0977
  71   0.0000       0.132042         3.5930

MULLIKEN ATOMIC CHARGES
-----------------------
   0 S :    0.109979
   1 C :   -0.164684
   2 C :   -0.050089
   3 C :    0.004978
   4 C :   -0.147304
   5 H :    0.025896
   6 C :    0.044622
   7 H :    0.018987
   8 H :    0.022827
   9 C :   -0.038307
  10 H :    0.032399
  11 H :    0.014112
  12 C :   -0.013971
  13 H :    0.014729
  14 H :    0.031357
  15 H :    0.004375
  16 S :    0.132312
  17 C :   -0.082141
  18 C :   -0.080263
  19 C :   -0.020104
  20 C :   -0.197112
  21 H :    0.026834
  22 C :    0.159291
  23 H :    0.005264
  24 H :   -0.001687
  25 C :   -0.036542
  26 H :    0.018312
  27 H :    0.014566
  28 C :   -0.080670
  29 H :    0.037305
  30 H :    0.027480
  31 H :    0.034710
  32 H :    0.079264
  33 H :    0.053275
Sum of atomic charges:    0.0000000

LOEWDIN ATOMIC CHARGES
----------------------
   0 S :    0.398447
   1 C :   -0.204763
   2 C :   -0.069894
   3 C :   -0.060265
   4 C :   -0.195496
   5 H :    0.038405
   6 C :   -0.040896
   7 H :    0.028534
   8 H :    0.035940
   9 C :   -0.027224
  10 H :    0.031172
  11 H :    0.016796
  12 C :   -0.052734
  13 H :    0.016335
  14 H :    0.019817
  15 H :    0.017036
  16 S :    0.425391
  17 C :   -0.206120
  18 C :   -0.073436
  19 C :   -0.050383
  20 C :   -0.192863
  21 H :    0.033479
  22 C :   -0.005989
  23 H :    0.015428
  24 H :    0.019016
  25 C :   -0.032485
  26 H :    0.020770
  27 H :    0.017732
  28 C :   -0.067296
  29 H :    0.019422
  30 H :    0.023448
  31 H :    0.026898
  32 H :    0.044204
  33 H :    0.031572

  Mayer bond orders larger than 0.100000
B(  0-S ,  1-C ) :   1.1479 B(  0-S ,  4-C ) :   1.1346 B(  1-C ,  2-C ) :   1.5880
B(  1-C , 32-H ) :   0.9596 B(  2-C ,  3-C ) :   1.2541 B(  2-C ,  6-C ) :   1.0296
B(  3-C ,  4-C ) :   1.5515 B(  3-C ,  5-H ) :   0.9853 B(  4-C , 20-C ) :   1.0574
B(  6-C ,  7-H ) :   0.9331 B(  6-C ,  8-H ) :   0.9400 B(  6-C ,  9-C ) :   1.0864
B(  9-C , 10-H ) :   0.9517 B(  9-C , 11-H ) :   0.9522 B(  9-C , 12-C ) :   1.0931
B( 12-C , 13-H ) :   0.9681 B( 12-C , 14-H ) :   0.9693 B( 12-C , 15-H ) :   0.9636
B( 16-S , 17-C ) :   1.1529 B( 16-S , 20-C ) :   1.1504 B( 17-C , 18-C ) :   1.6316
B( 17-C , 33-H ) :   0.9639 B( 18-C , 19-C ) :   1.2194 B( 18-C , 21-H ) :   0.9849
B( 19-C , 20-C ) :   1.6105 B( 19-C , 22-C ) :   1.0276 B( 22-C , 23-H ) :   0.9356
B( 22-C , 24-H ) :   0.9286 B( 22-C , 25-C ) :   1.0769 B( 25-C , 26-H ) :   0.9575
B( 25-C , 27-H ) :   0.9552 B( 25-C , 28-C ) :   1.0653 B( 28-C , 29-H ) :   0.9751
B( 28-C , 30-H ) :   0.9752 B( 28-C , 31-H ) :   0.9768

Dispersion correction           -0.016503786
FINAL SINGLE POINT ENERGY     -1339.858953084311

DIPOLE MOMENT
-------------
                                X             Y             Z
Electronic contribution:     -9.28271      -9.82382     -19.58785
Nuclear contribution   :      9.52963      10.00347      19.88362
                        -----------------------------------------
Total Dipole Moment    :      0.24691       0.17965       0.29577
                        -----------------------------------------
Magnitude (a.u.)       :      0.42511
Magnitude (Debye)      :      1.08054

Rotational constants in cm-1:     0.019295     0.009462     0.008753
Rotational constants in MHz :   578.435165   283.672553   262.412975

                             ****ORCA TERMINATED NORMALLY****
TOTAL RUN TIME: 0 days 0 hours 0 minutes 24 seconds 515 msec
