                         Program Version 4.2.1 -  RELEASE  -
|  1> ! wB97X-D3 SP def2-SVP
|  2> %pal
|  3> nprocs 24
|  4> end
|  5>
|  6> * xyz 0 1
|  7> S 	 44.9785 	 -22.2364 	 -113.694
|  8> C 	 46.0595 	 -22.6806 	 -115.075
|  9> C 	 47.31 	 -23.1319 	 -114.628
| 10> C 	 47.1994 	 -23.4621 	 -113.252
| 11> C 	 45.9978 	 -23.2047 	 -112.633
| 12> H 	 47.9142 	 -23.9393 	 -112.559
| 13> C 	 48.4332 	 -23.5846 	 -115.573
| 14> H 	 49.374 	 -23.399 	 -115.099
| 15> H 	 48.525 	 -22.8133 	 -116.358
| 16> C 	 48.3235 	 -25.0043 	 -116.154
| 17> H 	 48.5838 	 -25.7654 	 -115.447
| 18> H 	 47.261 	 -25.0121 	 -116.383
| 19> C 	 49.146 	 -25.2431 	 -117.446
| 20> H 	 48.9279 	 -24.4334 	 -118.154
| 21> H 	 50.1364 	 -25.1271 	 -117.164
| 22> H 	 49.2166 	 -26.2926 	 -117.86
| 23> S 	 45.7725 	 -22.246 	 -110.175
| 24> C 	 45.3254 	 -23.3622 	 -108.843
| 25> C 	 45.3364 	 -24.6519 	 -109.262
| 26> C 	 45.4369 	 -24.8154 	 -110.686
| 27> C 	 45.52 	 -23.5591 	 -111.313
| 28> H 	 45.2291 	 -25.4388 	 -108.58
| 29> C 	 45.4494 	 -26.1485 	 -111.322
| 30> H 	 45.1531 	 -26.0036 	 -112.378
| 31> H 	 44.784 	 -26.8521 	 -110.903
| 32> C 	 46.8143 	 -26.8045 	 -111.155
| 33> H 	 47.2067 	 -26.8729 	 -110.167
| 34> H 	 47.6061 	 -26.0899 	 -111.495
| 35> C 	 46.8819 	 -28.1015 	 -112.04
| 36> H 	 47.6267 	 -28.7514 	 -111.615
| 37> H 	 47.1344 	 -27.8771 	 -113.133
| 38> H 	 45.9025 	 -28.6824 	 -111.942
| 39> H 	 45.913 	 -22.4114 	 -116.099
| 40> H 	 45.2614 	 -23.0702 	 -107.818
| 41> *
| 42>
| 43>                          ****END OF INPUT****

CARTESIAN COORDINATES (ANGSTROEM)
---------------------------------
  S     44.978500  -22.236400  -113.694000
  C     46.059500  -22.680600  -115.075000
  C     47.310000  -23.131900  -114.628000
  C     47.199400  -23.462100  -113.252000
  C     45.997800  -23.204700  -112.633000
  H     47.914200  -23.939300  -112.559000
  C     48.433200  -23.584600  -115.573000
  H     49.374000  -23.399000  -115.099000
  H     48.525000  -22.813300  -116.358000
  C     48.323500  -25.004300  -116.154000
  H     48.583800  -25.765400  -115.447000
  H     47.261000  -25.012100  -116.383000
  C     49.146000  -25.243100  -117.446000
  H     48.927900  -24.433400  -118.154000
  H     50.136400  -25.127100  -117.164000
  H     49.216600  -26.292600  -117.860000
  S     45.772500  -22.246000  -110.175000
  C     45.325400  -23.362200  -108.843000
  C     45.336400  -24.651900  -109.262000
  C     45.436900  -24.815400  -110.686000
  C     45.520000  -23.559100  -111.313000
  H     45.229100  -25.438800  -108.580000
  C     45.449400  -26.148500  -111.322000
  H     45.153100  -26.003600  -112.378000
  H     44.784000  -26.852100  -110.903000
  C     46.814300  -26.804500  -111.155000
  H     47.206700  -26.872900  -110.167000
  H     47.606100  -26.089900  -111.495000
  C     46.881900  -28.101500  -112.040000
  H     47.626700  -28.751400  -111.615000
  H     47.134400  -27.877100  -113.133000
  H     45.902500  -28.682400  -111.942000
  H     45.913000  -22.411400  -116.099000
  H     45.261400  -23.070200  -107.818000

 Total Charge           Charge          ....    0
 Multiplicity           Mult            ....    1
 Number of Electrons    NEL             ....  134
 Basis Dimension        Dim             ....  322

ORBITAL ENERGIES
----------------

  NO   OCC          E(Eh)            E(eV)
   0   2.0000     -88.962832     -2420.8017
   1   2.0000     -88.962728     -2420.7989
   2   2.0000     -10.324746      -280.9506
   3   2.0000     -10.324387      -280.9409
   4   2.0000     -10.318196      -280.7724
   5   2.0000     -10.316944      -280.7383
   6   2.0000     -10.306794      -280.4621
   7   2.0000     -10.306490      -280.4538
   8   2.0000     -10.295729      -280.1610
   9   2.0000     -10.295069      -280.1431
  10   2.0000     -10.291458      -280.0448
  11   2.0000     -10.289671      -279.9962
  12   2.0000     -10.289246      -279.9846
  13   2.0000     -10.288133      -279.9543
  14   2.0000     -10.288019      -279.9512
  15   2.0000     -10.280517      -279.7471
  16   2.0000      -8.077198      -219.7917
  17   2.0000      -8.076690      -219.7779
  18   2.0000      -6.035822      -164.2431
  19   2.0000      -6.035250      -164.2275
  20   2.0000      -6.031956      -164.1379
  21   2.0000      -6.031444      -164.1239
  22   2.0000      -6.027631      -164.0202
  23   2.0000      -6.027288      -164.0108
  24   2.0000      -1.003775       -27.3141
  25   2.0000      -0.978487       -26.6260
  26   2.0000      -0.914048       -24.8725
  27   2.0000      -0.910303       -24.7706
  28   2.0000      -0.870961       -23.7000
  29   2.0000      -0.844712       -22.9858
  30   2.0000      -0.843301       -22.9474
  31   2.0000      -0.814076       -22.1521
  32   2.0000      -0.783798       -21.3282
  33   2.0000      -0.768777       -20.9195
  34   2.0000      -0.708573       -19.2812
  35   2.0000      -0.705987       -19.2109
  36   2.0000      -0.698023       -18.9942
  37   2.0000      -0.665508       -18.1094
  38   2.0000      -0.646010       -17.5788
  39   2.0000      -0.611098       -16.6288
  40   2.0000      -0.602277       -16.3888
  41   2.0000      -0.573945       -15.6178
  42   2.0000      -0.565708       -15.3937
  43   2.0000      -0.556596       -15.1457
  44   2.0000      -0.527114       -14.3435
  45   2.0000      -0.520519       -14.1641
  46   2.0000      -0.518122       -14.0988
  47   2.0000      -0.511737       -13.9251
  48   2.0000      -0.502061       -13.6618
  49   2.0000      -0.498238       -13.5578
  50   2.0000      -0.490755       -13.3541
  51   2.0000      -0.476049       -12.9539
  52   2.0000      -0.468906       -12.7596
  53   2.0000      -0.465279       -12.6609
  54   2.0000      -0.453754       -12.3473
  55   2.0000      -0.450383       -12.2556
  56   2.0000      -0.445267       -12.1163
  57   2.0000      -0.444811       -12.1039
  58   2.0000      -0.430806       -11.7228
  59   2.0000      -0.428318       -11.6551
  60   2.0000      -0.421481       -11.4691
  61   2.0000      -0.413165       -11.2428
  62   2.0000      -0.410300       -11.1648
  63   2.0000      -0.338870        -9.2211
  64   2.0000      -0.331649        -9.0246
  65   2.0000      -0.318043        -8.6544
  66   2.0000      -0.301222        -8.1967
  67   0.0000       0.032657         0.8886
  68   0.0000       0.049431         1.3451
  69   0.0000       0.102351         2.7851
  70   0.0000       0.108053         2.9403
  71   0.0000       0.123241         3.3536

MULLIKEN ATOMIC CHARGES
-----------------------
   0 S :    0.102403
   1 C :   -0.107432
   2 C :   -0.080206
   3 C :    0.038554
   4 C :   -0.200624
   5 H :    0.017990
   6 C :    0.048108
   7 H :    0.012094
   8 H :    0.017642
   9 C :   -0.033173
  10 H :    0.031304
  11 H :    0.028074
  12 C :   -0.047036
  13 H :    0.036138
  14 H :    0.006771
  15 H :    0.048647
  16 S :    0.090998
  17 C :   -0.067957
  18 C :   -0.010101
  19 C :   -0.040469
  20 C :   -0.142417
  21 H :   -0.001725
  22 C :    0.110352
  23 H :    0.041973
  24 H :    0.013218
  25 C :   -0.104010
  26 H :    0.020702
  27 H :    0.012495
  28 C :   -0.063018
  29 H :    0.031030
  30 H :    0.062754
  31 H :    0.039878
  32 H :    0.039872
  33 H :    0.047171
Sum of atomic charges:    0.0000000

LOEWDIN ATOMIC CHARGES
----------------------
   0 S :    0.374277
   1 C :   -0.167327
   2 C :   -0.062658
   3 C :   -0.063340
   4 C :   -0.201683
   5 H :    0.033815
   6 C :   -0.034028
   7 H :    0.024662
   8 H :    0.032107
   9 C :   -0.033918
  10 H :    0.022712
  11 H :    0.024159
  12 C :   -0.069912
  13 H :    0.027860
  14 H :    0.014214
  15 H :    0.038689
  16 S :    0.385367
  17 C :   -0.158877
  18 C :   -0.061974
  19 C :   -0.041142
  20 C :   -0.205518
  21 H :    0.022933
  22 C :   -0.030209
  23 H :    0.041372
  24 H :    0.024956
  25 C :   -0.045836
  26 H :    0.020196
  27 H :    0.025095
  28 C :   -0.071542
  29 H :    0.021793
  30 H :    0.038223
  31 H :    0.031221
  32 H :    0.020185
  33 H :    0.024126

  Mayer bond orders larger than 0.100000
B(  0-S ,  1-C ) :   1.1417 B(  0-S ,  4-C ) :   1.1225 B(  1-C ,  2-C ) :   1.6088
B(  1-C ,  4-C ) :   0.1085 B(  1-C , 32-H ) :   0.9707 B(  2-C ,  3-C ) :   1.1973
B(  2-C ,  6-C ) :   1.0453 B(  3-C ,  4-C ) :   1.6255 B(  3-C ,  5-H ) :   0.9903
B(  4-C , 20-C ) :   0.9972 B(  6-C ,  7-H ) :   0.9323 B(  6-C ,  8-H ) :   0.9379
B(  6-C ,  9-C ) :   1.0413 B(  9-C , 10-H ) :   0.9565 B(  9-C , 11-H ) :   0.9605
B(  9-C , 12-C ) :   1.0758 B( 12-C , 13-H ) :   0.9758 B( 12-C , 14-H ) :   0.9725
B( 12-C , 15-H ) :   0.9729 B( 16-S , 17-C ) :   1.1325 B( 16-S , 20-C ) :   1.1482
B( 17-C , 18-C ) :   1.6355 B( 17-C , 33-H ) :   0.9718 B( 18-C , 19-C ) :   1.2133
B( 18-C , 21-H ) :   0.9975 B( 19-C , 20-C ) :   1.6051 B( 19-C , 22-C ) :   1.0668
B( 22-C , 23-H ) :   0.9345 B( 22-C , 24-H ) :   0.9267 B( 22-C , 25-C ) :   1.0422
B( 25-C , 26-H ) :   0.9602 B( 25-C , 27-H ) :   0.9466 B( 25-C , 28-C ) :   1.0649
B( 28-C , 29-H ) :   0.9748 B( 28-C , 30-H ) :   0.9763 B( 28-C , 31-H ) :   0.9731

Dispersion correction           -0.014571147
FINAL SINGLE POINT ENERGY     -1339.844892467030

DIPOLE MOMENT
-------------
                                X             Y             Z
Electronic contribution:    -15.36925      24.09180      14.75309
Nuclear contribution   :     15.95177     -24.77696     -14.73430
                        -----------------------------------------
Total Dipole Moment    :      0.58252      -0.68516       0.01879
                        -----------------------------------------
Magnitude (a.u.)       :      0.89951
Magnitude (Debye)      :      2.28637

Rotational constants in cm-1:     0.018168     0.009084     0.006687
Rotational constants in MHz :   544.664023   272.330921   200.480508

                             ****ORCA TERMINATED NORMALLY****
TOTAL RUN TIME: 0 days 0 hours 0 minutes 21 seconds 928 msec
