                         Program Version 4.2.1 -  RELEASE  -
|  1> ! wB97X-D3 SP def2-SVP
|  2> %pal
|  3> nprocs 24
|  4> end
|  5>
|  6> * xyz 0 1
|  7> S 	 -44.334 	 -5.43152 	 -6.89388
|  8> C 	 -44.4004 	 -3.84077 	 -6.2054
|  9> C 	 -44.657 	 -2.8725 	 -7.13232
| 10> C 	 -44.8712 	 -3.4032 	 -8.45478
| 11> C 	 -44.8702 	 -4.81024 	 -8.49862
| 12> H 	 -44.9714 	 -2.767 	 -9.3586
| 13> C 	 -44.6789 	 -1.35351 	 -6.7804
| 14> H 	 -45.0769 	 -0.771575 	 -7.64114
| 15> H 	 -43.6567 	 -1.03374 	 -6.71789
| 16> C 	 -45.5607 	 -0.930113 	 -5.60982
| 17> H 	 -46.6772 	 -1.0889 	 -5.83851
| 18> H 	 -45.4872 	 -1.57797 	 -4.68731
| 19> C 	 -45.3132 	 0.526904 	 -5.27098
| 20> H 	 -45.551 	 1.22536 	 -6.00041
| 21> H 	 -45.8484 	 0.79506 	 -4.36618
| 22> H 	 -44.2603 	 0.746841 	 -5.01597
| 23> S 	 -44.7241 	 -5.0047 	 -11.2898
| 24> C 	 -45.6455 	 -6.22624 	 -12.1261
| 25> C 	 -46.0871 	 -7.14815 	 -11.2623
| 26> C 	 -45.9249 	 -6.80135 	 -9.85636
| 27> C 	 -45.2226 	 -5.60689 	 -9.70121
| 28> H 	 -46.7222 	 -7.96048 	 -11.6397
| 29> C 	 -46.5551 	 -7.72255 	 -8.7826
| 30> H 	 -45.9551 	 -7.68214 	 -7.85634
| 31> H 	 -46.3472 	 -8.69837 	 -9.11558
| 32> C 	 -47.9893 	 -7.48689 	 -8.58658
| 33> H 	 -48.6625 	 -7.81856 	 -9.4084
| 34> H 	 -48.1121 	 -6.41303 	 -8.53756
| 35> C 	 -48.4569 	 -7.99941 	 -7.18178
| 36> H 	 -49.5378 	 -8.01836 	 -7.021
| 37> H 	 -47.9898 	 -7.42597 	 -6.42557
| 38> H 	 -47.978 	 -8.96878 	 -7.06687
| 39> H 	 -44.031 	 -3.61555 	 -5.19444
| 40> H 	 -45.9416 	 -6.3154 	 -13.1645
| 41> *
| 42>
| 43>                          ****END OF INPUT****

CARTESIAN COORDINATES (ANGSTROEM)
---------------------------------
  S    -44.334000   -5.431520   -6.893880
  C    -44.400400   -3.840770   -6.205400
  C    -44.657000   -2.872500   -7.132320
  C    -44.871200   -3.403200   -8.454780
  C    -44.870200   -4.810240   -8.498620
  H    -44.971400   -2.767000   -9.358600
  C    -44.678900   -1.353510   -6.780400
  H    -45.076900   -0.771575   -7.641140
  H    -43.656700   -1.033740   -6.717890
  C    -45.560700   -0.930113   -5.609820
  H    -46.677200   -1.088900   -5.838510
  H    -45.487200   -1.577970   -4.687310
  C    -45.313200    0.526904   -5.270980
  H    -45.551000    1.225360   -6.000410
  H    -45.848400    0.795060   -4.366180
  H    -44.260300    0.746841   -5.015970
  S    -44.724100   -5.004700  -11.289800
  C    -45.645500   -6.226240  -12.126100
  C    -46.087100   -7.148150  -11.262300
  C    -45.924900   -6.801350   -9.856360
  C    -45.222600   -5.606890   -9.701210
  H    -46.722200   -7.960480  -11.639700
  C    -46.555100   -7.722550   -8.782600
  H    -45.955100   -7.682140   -7.856340
  H    -46.347200   -8.698370   -9.115580
  C    -47.989300   -7.486890   -8.586580
  H    -48.662500   -7.818560   -9.408400
  H    -48.112100   -6.413030   -8.537560
  C    -48.456900   -7.999410   -7.181780
  H    -49.537800   -8.018360   -7.021000
  H    -47.989800   -7.425970   -6.425570
  H    -47.978000   -8.968780   -7.066870
  H    -44.031000   -3.615550   -5.194440
  H    -45.941600   -6.315400  -13.164500

 Total Charge           Charge          ....    0
 Multiplicity           Mult            ....    1
 Number of Electrons    NEL             ....  134
 Basis Dimension        Dim             ....  322

ORBITAL ENERGIES
----------------

  NO   OCC          E(Eh)            E(eV)
   0   2.0000     -88.971005     -2421.0241
   1   2.0000     -88.964035     -2420.8345
   2   2.0000     -10.340648      -281.3833
   3   2.0000     -10.333426      -281.1868
   4   2.0000     -10.314495      -280.6717
   5   2.0000     -10.312371      -280.6139
   6   2.0000     -10.305838      -280.4361
   7   2.0000     -10.303120      -280.3622
   8   2.0000     -10.302581      -280.3475
   9   2.0000     -10.297651      -280.2133
  10   2.0000     -10.296714      -280.1878
  11   2.0000     -10.290029      -280.0059
  12   2.0000     -10.285848      -279.8921
  13   2.0000     -10.280688      -279.7517
  14   2.0000     -10.273910      -279.5673
  15   2.0000     -10.272098      -279.5180
  16   2.0000      -8.084597      -219.9931
  17   2.0000      -8.078476      -219.8265
  18   2.0000      -6.043270      -164.4457
  19   2.0000      -6.039302      -164.3378
  20   2.0000      -6.037255      -164.2821
  21   2.0000      -6.035217      -164.2266
  22   2.0000      -6.033066      -164.1681
  23   2.0000      -6.028919      -164.0552
  24   2.0000      -1.001294       -27.2466
  25   2.0000      -0.983060       -26.7504
  26   2.0000      -0.913417       -24.8553
  27   2.0000      -0.909174       -24.7399
  28   2.0000      -0.870269       -23.6812
  29   2.0000      -0.849436       -23.1143
  30   2.0000      -0.840748       -22.8779
  31   2.0000      -0.814526       -22.1644
  32   2.0000      -0.782207       -21.2849
  33   2.0000      -0.771214       -20.9858
  34   2.0000      -0.707320       -19.2471
  35   2.0000      -0.701169       -19.0798
  36   2.0000      -0.693802       -18.8793
  37   2.0000      -0.659325       -17.9412
  38   2.0000      -0.633756       -17.2454
  39   2.0000      -0.611661       -16.6441
  40   2.0000      -0.594634       -16.1808
  41   2.0000      -0.573256       -15.5991
  42   2.0000      -0.562854       -15.3160
  43   2.0000      -0.556676       -15.1479
  44   2.0000      -0.528389       -14.3782
  45   2.0000      -0.523015       -14.2320
  46   2.0000      -0.515771       -14.0349
  47   2.0000      -0.510147       -13.8818
  48   2.0000      -0.507580       -13.8120
  49   2.0000      -0.495826       -13.4921
  50   2.0000      -0.489902       -13.3309
  51   2.0000      -0.479274       -13.0417
  52   2.0000      -0.476345       -12.9620
  53   2.0000      -0.467469       -12.7205
  54   2.0000      -0.460070       -12.5191
  55   2.0000      -0.452674       -12.3179
  56   2.0000      -0.450633       -12.2624
  57   2.0000      -0.435146       -11.8409
  58   2.0000      -0.430248       -11.7076
  59   2.0000      -0.422163       -11.4876
  60   2.0000      -0.416669       -11.3382
  61   2.0000      -0.410308       -11.1650
  62   2.0000      -0.404609       -11.0100
  63   2.0000      -0.355285        -9.6678
  64   2.0000      -0.332050        -9.0356
  65   2.0000      -0.329198        -8.9579
  66   2.0000      -0.290185        -7.8963
  67   0.0000       0.022467         0.6114
  68   0.0000       0.082995         2.2584
  69   0.0000       0.102445         2.7877
  70   0.0000       0.118976         3.2375
  71   0.0000       0.130313         3.5460

MULLIKEN ATOMIC CHARGES
-----------------------
   0 S :    0.110112
   1 C :   -0.139268
   2 C :   -0.074263
   3 C :   -0.003763
   4 C :   -0.125569
   5 H :    0.035286
   6 C :    0.064814
   7 H :    0.024016
   8 H :    0.037920
   9 C :   -0.116091
  10 H :    0.044375
  11 H :    0.034776
  12 C :   -0.020412
  13 H :    0.020014
  14 H :    0.027157
  15 H :    0.022664
  16 S :    0.094033
  17 C :   -0.080748
  18 C :   -0.041890
  19 C :   -0.086917
  20 C :   -0.143780
  21 H :    0.026046
  22 C :    0.099811
  23 H :    0.017080
  24 H :    0.008347
  25 C :   -0.068044
  26 H :    0.035622
  27 H :    0.030307
  28 C :   -0.035976
  29 H :    0.041751
  30 H :    0.024961
  31 H :    0.020040
  32 H :    0.061931
  33 H :    0.055659
Sum of atomic charges:    0.0000000

LOEWDIN ATOMIC CHARGES
----------------------
   0 S :    0.396675
   1 C :   -0.203816
   2 C :   -0.066735
   3 C :   -0.063995
   4 C :   -0.179459
   5 H :    0.035627
   6 C :   -0.032489
   7 H :    0.034636
   8 H :    0.029343
   9 C :   -0.050375
  10 H :    0.035753
  11 H :    0.025271
  12 C :   -0.063892
  13 H :    0.015590
  14 H :    0.028050
  15 H :    0.027412
  16 S :    0.392967
  17 C :   -0.188053
  18 C :   -0.076498
  19 C :   -0.052686
  20 C :   -0.187951
  21 H :    0.033829
  22 C :   -0.032147
  23 H :    0.026664
  24 H :    0.024507
  25 C :   -0.043782
  26 H :    0.027401
  27 H :    0.025642
  28 C :   -0.059419
  29 H :    0.026799
  30 H :    0.020981
  31 H :    0.022315
  32 H :    0.034285
  33 H :    0.037548

  Mayer bond orders larger than 0.100000
B(  0-S ,  1-C ) :   1.1353 B(  0-S ,  4-C ) :   1.1379 B(  1-C ,  2-C ) :   1.6235
B(  1-C , 32-H ) :   0.9611 B(  2-C ,  3-C ) :   1.2686 B(  2-C ,  6-C ) :   0.9987
B(  3-C ,  4-C ) :   1.5475 B(  3-C ,  5-H ) :   0.9816 B(  4-C , 20-C ) :   1.0684
B(  6-C ,  7-H ) :   0.9463 B(  6-C ,  8-H ) :   0.9452 B(  6-C ,  9-C ) :   1.0537
B(  9-C , 10-H ) :   0.9534 B(  9-C , 11-H ) :   0.9583 B(  9-C , 12-C ) :   1.0812
B( 12-C , 13-H ) :   0.9751 B( 12-C , 14-H ) :   0.9711 B( 12-C , 15-H ) :   0.9731
B( 16-S , 17-C ) :   1.1278 B( 16-S , 20-C ) :   1.1220 B( 17-C , 18-C ) :   1.6685
B( 17-C , 33-H ) :   0.9611 B( 18-C , 19-C ) :   1.2180 B( 18-C , 21-H ) :   0.9793
B( 19-C , 20-C ) :   1.6140 B( 19-C , 22-C ) :   1.0327 B( 22-C , 23-H ) :   0.9381
B( 22-C , 24-H ) :   0.9170 B( 22-C , 25-C ) :   1.0618 B( 25-C , 26-H ) :   0.9526
B( 25-C , 27-H ) :   0.9599 B( 25-C , 28-C ) :   1.0764 B( 28-C , 29-H ) :   0.9757
B( 28-C , 30-H ) :   0.9762 B( 28-C , 31-H ) :   0.9741

Dispersion correction           -0.013684945
FINAL SINGLE POINT ENERGY     -1339.875368173598

DIPOLE MOMENT
-------------
                                X             Y             Z
Electronic contribution:     13.34740      -8.18930     -15.18336
Nuclear contribution   :    -13.64810       8.43873      15.33755
                        -----------------------------------------
Total Dipole Moment    :     -0.30069       0.24943       0.15418
                        -----------------------------------------
Magnitude (a.u.)       :      0.42001
Magnitude (Debye)      :      1.06757

Rotational constants in cm-1:     0.019695     0.007451     0.006181
Rotational constants in MHz :   590.449721   223.370371   185.313462

                             ****ORCA TERMINATED NORMALLY****
TOTAL RUN TIME: 0 days 0 hours 0 minutes 20 seconds 744 msec
