                         Program Version 4.2.1 -  RELEASE  -
|  1> ! wB97X-D3 SP def2-SVP
|  2> %pal
|  3> nprocs 24
|  4> end
|  5>
|  6> * xyz 0 1
|  7> S 	 -62.0544 	 -58.8597 	 -77.6873
|  8> C 	 -63.4579 	 -58.4035 	 -76.7234
|  9> C 	 -63.2372 	 -57.1103 	 -76.2845
| 10> C 	 -62.0957 	 -56.4778 	 -76.9663
| 11> C 	 -61.3495 	 -57.2838 	 -77.7825
| 12> H 	 -61.7979 	 -55.4804 	 -76.7921
| 13> C 	 -64.0775 	 -56.3345 	 -75.3278
| 14> H 	 -65.0295 	 -56.7495 	 -75.1997
| 15> H 	 -64.3212 	 -55.341 	 -75.6618
| 16> C 	 -63.4301 	 -56.2878 	 -73.8734
| 17> H 	 -62.5566 	 -55.7424 	 -74.0285
| 18> H 	 -64.1063 	 -55.7031 	 -73.2998
| 19> C 	 -63.1993 	 -57.6925 	 -73.3347
| 20> H 	 -62.9362 	 -57.7439 	 -72.3082
| 21> H 	 -64.03 	 -58.3193 	 -73.6283
| 22> H 	 -62.3182 	 -58.1225 	 -73.79
| 23> S 	 -59.7208 	 -57.7383 	 -79.9091
| 24> C 	 -58.2406 	 -56.8527 	 -80.1572
| 25> C 	 -57.9549 	 -56.0622 	 -79.0658
| 26> C 	 -58.9398 	 -56.2137 	 -78.0143
| 27> C 	 -60.0379 	 -56.993 	 -78.337
| 28> H 	 -57.0137 	 -55.5878 	 -79.0772
| 29> C 	 -58.7533 	 -55.2979 	 -76.7784
| 30> H 	 -59.7863 	 -54.946 	 -76.6319
| 31> H 	 -57.9827 	 -54.495 	 -77.0949
| 32> C 	 -58.348 	 -55.794 	 -75.3882
| 33> H 	 -58.1901 	 -54.9319 	 -74.7369
| 34> H 	 -57.3637 	 -56.3204 	 -75.3993
| 35> C 	 -59.3511 	 -56.8734 	 -74.8673
| 36> H 	 -59.1384 	 -57.2417 	 -73.8029
| 37> H 	 -59.3285 	 -57.8321 	 -75.3835
| 38> H 	 -60.3328 	 -56.4447 	 -75.0019
| 39> H 	 -64.1606 	 -59.1309 	 -76.2735
| 40> H 	 -57.5598 	 -56.994 	 -80.9753
| 41> *
| 42>
| 43>                          ****END OF INPUT****

CARTESIAN COORDINATES (ANGSTROEM)
---------------------------------
  S    -62.054400  -58.859700  -77.687300
  C    -63.457900  -58.403500  -76.723400
  C    -63.237200  -57.110300  -76.284500
  C    -62.095700  -56.477800  -76.966300
  C    -61.349500  -57.283800  -77.782500
  H    -61.797900  -55.480400  -76.792100
  C    -64.077500  -56.334500  -75.327800
  H    -65.029500  -56.749500  -75.199700
  H    -64.321200  -55.341000  -75.661800
  C    -63.430100  -56.287800  -73.873400
  H    -62.556600  -55.742400  -74.028500
  H    -64.106300  -55.703100  -73.299800
  C    -63.199300  -57.692500  -73.334700
  H    -62.936200  -57.743900  -72.308200
  H    -64.030000  -58.319300  -73.628300
  H    -62.318200  -58.122500  -73.790000
  S    -59.720800  -57.738300  -79.909100
  C    -58.240600  -56.852700  -80.157200
  C    -57.954900  -56.062200  -79.065800
  C    -58.939800  -56.213700  -78.014300
  C    -60.037900  -56.993000  -78.337000
  H    -57.013700  -55.587800  -79.077200
  C    -58.753300  -55.297900  -76.778400
  H    -59.786300  -54.946000  -76.631900
  H    -57.982700  -54.495000  -77.094900
  C    -58.348000  -55.794000  -75.388200
  H    -58.190100  -54.931900  -74.736900
  H    -57.363700  -56.320400  -75.399300
  C    -59.351100  -56.873400  -74.867300
  H    -59.138400  -57.241700  -73.802900
  H    -59.328500  -57.832100  -75.383500
  H    -60.332800  -56.444700  -75.001900
  H    -64.160600  -59.130900  -76.273500
  H    -57.559800  -56.994000  -80.975300

 Total Charge           Charge          ....    0
 Multiplicity           Mult            ....    1
 Number of Electrons    NEL             ....  134
 Basis Dimension        Dim             ....  322

ORBITAL ENERGIES
----------------

  NO   OCC          E(Eh)            E(eV)
   0   2.0000     -88.963500     -2420.8199
   1   2.0000     -88.963232     -2420.8126
   2   2.0000     -10.334285      -281.2102
   3   2.0000     -10.332694      -281.1669
   4   2.0000     -10.321524      -280.8629
   5   2.0000     -10.318806      -280.7890
   6   2.0000     -10.313802      -280.6528
   7   2.0000     -10.306978      -280.4671
   8   2.0000     -10.302363      -280.3415
   9   2.0000     -10.294409      -280.1251
  10   2.0000     -10.293317      -280.0954
  11   2.0000     -10.291669      -280.0506
  12   2.0000     -10.286344      -279.9056
  13   2.0000     -10.282041      -279.7886
  14   2.0000     -10.278976      -279.7051
  15   2.0000     -10.271786      -279.5095
  16   2.0000      -8.078542      -219.8283
  17   2.0000      -8.078192      -219.8188
  18   2.0000      -6.037192      -164.2803
  19   2.0000      -6.036741      -164.2681
  20   2.0000      -6.032927      -164.1643
  21   2.0000      -6.032549      -164.1540
  22   2.0000      -6.029144      -164.0614
  23   2.0000      -6.028998      -164.0574
  24   2.0000      -1.009713       -27.4757
  25   2.0000      -0.986219       -26.8364
  26   2.0000      -0.915521       -24.9126
  27   2.0000      -0.904397       -24.6099
  28   2.0000      -0.874619       -23.7996
  29   2.0000      -0.846198       -23.0262
  30   2.0000      -0.840801       -22.8794
  31   2.0000      -0.820467       -22.3260
  32   2.0000      -0.783864       -21.3300
  33   2.0000      -0.773169       -21.0390
  34   2.0000      -0.716623       -19.5003
  35   2.0000      -0.702260       -19.1095
  36   2.0000      -0.691808       -18.8250
  37   2.0000      -0.666117       -18.1260
  38   2.0000      -0.644709       -17.5434
  39   2.0000      -0.628208       -17.0944
  40   2.0000      -0.589982       -16.0542
  41   2.0000      -0.577522       -15.7152
  42   2.0000      -0.558890       -15.2082
  43   2.0000      -0.551080       -14.9956
  44   2.0000      -0.540744       -14.7144
  45   2.0000      -0.537390       -14.6231
  46   2.0000      -0.522355       -14.2140
  47   2.0000      -0.514639       -14.0040
  48   2.0000      -0.510823       -13.9002
  49   2.0000      -0.505463       -13.7544
  50   2.0000      -0.494022       -13.4430
  51   2.0000      -0.476516       -12.9666
  52   2.0000      -0.472175       -12.8485
  53   2.0000      -0.462524       -12.5859
  54   2.0000      -0.457719       -12.4552
  55   2.0000      -0.447465       -12.1761
  56   2.0000      -0.446282       -12.1440
  57   2.0000      -0.434834       -11.8324
  58   2.0000      -0.430474       -11.7138
  59   2.0000      -0.428089       -11.6489
  60   2.0000      -0.416875       -11.3437
  61   2.0000      -0.407819       -11.0973
  62   2.0000      -0.405994       -11.0477
  63   2.0000      -0.357890        -9.7387
  64   2.0000      -0.329723        -8.9722
  65   2.0000      -0.323367        -8.7993
  66   2.0000      -0.295935        -8.0528
  67   0.0000       0.021994         0.5985
  68   0.0000       0.073289         1.9943
  69   0.0000       0.108345         2.9482
  70   0.0000       0.112043         3.0488
  71   0.0000       0.125836         3.4242

MULLIKEN ATOMIC CHARGES
-----------------------
   0 S :    0.088408
   1 C :   -0.115220
   2 C :   -0.114661
   3 C :   -0.002044
   4 C :   -0.056443
   5 H :   -0.004903
   6 C :    0.061222
   7 H :    0.001379
   8 H :    0.024373
   9 C :   -0.046130
  10 H :    0.014062
  11 H :    0.023147
  12 C :   -0.015715
  13 H :    0.029973
  14 H :    0.020056
  15 H :    0.031070
  16 S :    0.090005
  17 C :   -0.079401
  18 C :   -0.035030
  19 C :   -0.030659
  20 C :   -0.148067
  21 H :    0.012258
  22 C :   -0.000778
  23 H :    0.023788
  24 H :    0.044957
  25 C :   -0.030698
  26 H :    0.039141
  27 H :    0.025019
  28 C :   -0.088943
  29 H :    0.039968
  30 H :    0.045719
  31 H :    0.025349
  32 H :    0.072512
  33 H :    0.056287
Sum of atomic charges:    0.0000000

LOEWDIN ATOMIC CHARGES
----------------------
   0 S :    0.404366
   1 C :   -0.196845
   2 C :   -0.057680
   3 C :   -0.064099
   4 C :   -0.198920
   5 H :    0.016838
   6 C :   -0.027833
   7 H :    0.018867
   8 H :    0.029506
   9 C :   -0.021687
  10 H :    0.010835
  11 H :    0.018605
  12 C :   -0.060467
  13 H :    0.024078
  14 H :    0.022581
  15 H :    0.029282
  16 S :    0.401492
  17 C :   -0.174952
  18 C :   -0.072494
  19 C :   -0.052478
  20 C :   -0.192217
  21 H :    0.028111
  22 C :   -0.039687
  23 H :    0.029208
  24 H :    0.042441
  25 C :   -0.042026
  26 H :    0.027328
  27 H :    0.024198
  28 C :   -0.074741
  29 H :    0.033193
  30 H :    0.029566
  31 H :    0.015891
  32 H :    0.040447
  33 H :    0.029293

  Mayer bond orders larger than 0.100000
B(  0-S ,  1-C ) :   1.1274 B(  0-S ,  4-C ) :   1.1506 B(  1-C ,  2-C ) :   1.6022
B(  1-C , 32-H ) :   0.9645 B(  2-C ,  3-C ) :   1.2300 B(  2-C ,  6-C ) :   1.0469
B(  3-C ,  4-C ) :   1.5688 B(  3-C ,  5-H ) :   1.0038 B(  4-C , 20-C ) :   1.0409
B(  6-C ,  7-H ) :   0.9381 B(  6-C ,  8-H ) :   0.9452 B(  6-C ,  9-C ) :   1.0628
B(  9-C , 10-H ) :   0.9588 B(  9-C , 11-H ) :   0.9571 B(  9-C , 12-C ) :   1.0741
B( 12-C , 13-H ) :   0.9714 B( 12-C , 14-H ) :   0.9759 B( 12-C , 15-H ) :   0.9663
B( 16-S , 17-C ) :   1.1642 B( 16-S , 20-C ) :   1.1220 B( 17-C , 18-C ) :   1.6200
B( 17-C , 33-H ) :   0.9672 B( 18-C , 19-C ) :   1.2304 B( 18-C , 21-H ) :   0.9965
B( 19-C , 20-C ) :   1.6029 B( 19-C , 22-C ) :   1.0116 B( 22-C , 23-H ) :   0.9423
B( 22-C , 24-H ) :   0.9394 B( 22-C , 25-C ) :   1.0776 B( 25-C , 26-H ) :   0.9542
B( 25-C , 27-H ) :   0.9511 B( 25-C , 28-C ) :   1.0659 B( 28-C , 29-H ) :   0.9721
B( 28-C , 30-H ) :   0.9702 B( 28-C , 31-H ) :   0.9715

Dispersion correction           -0.016902601
FINAL SINGLE POINT ENERGY     -1339.861447249561

DIPOLE MOMENT
-------------
                                X             Y             Z
Electronic contribution:      1.88059      -9.48681     -26.57040
Nuclear contribution   :     -1.68226       9.90710      27.16393
                        -----------------------------------------
Total Dipole Moment    :      0.19832       0.42029       0.59353
                        -----------------------------------------
Magnitude (a.u.)       :      0.75382
Magnitude (Debye)      :      1.91606

Rotational constants in cm-1:     0.022050     0.009836     0.007604
Rotational constants in MHz :   661.040873   294.862772   227.950711

                             ****ORCA TERMINATED NORMALLY****
TOTAL RUN TIME: 0 days 0 hours 0 minutes 23 seconds 790 msec
