                         Program Version 4.2.1 -  RELEASE  -
|  1> ! wB97X-D3 SP def2-SVP
|  2> %pal
|  3> nprocs 24
|  4> end
|  5>
|  6> * xyz 0 1
|  7> S 	 -30.986 	 10.6008 	 16.5261
|  8> C 	 -30.8604 	 11.7095 	 15.1314
|  9> C 	 -32.1309 	 11.9907 	 14.5925
| 10> C 	 -33.222 	 11.2412 	 15.233
| 11> C 	 -32.7441 	 10.4517 	 16.2771
| 12> H 	 -34.3055 	 11.4293 	 15.0224
| 13> C 	 -32.4245 	 13.05 	 13.5353
| 14> H 	 -32.4035 	 12.4024 	 12.736
| 15> H 	 -31.518 	 13.6394 	 13.4078
| 16> C 	 -33.5737 	 14.0327 	 13.6598
| 17> H 	 -33.4329 	 14.9456 	 12.9738
| 18> H 	 -34.4904 	 13.4937 	 13.3318
| 19> C 	 -33.8892 	 14.7135 	 15.0192
| 20> H 	 -34.906 	 15.0462 	 15.1421
| 21> H 	 -33.5826 	 14.077 	 15.9369
| 22> H 	 -33.3199 	 15.6541 	 15.1237
| 23> S 	 -33.5058 	 10.4189 	 18.9114
| 24> C 	 -34.7181 	 9.26981 	 19.4499
| 25> C 	 -35.33 	 8.78391 	 18.3512
| 26> C 	 -34.6685 	 9.03593 	 17.1269
| 27> C 	 -33.6429 	 9.90507 	 17.2675
| 28> H 	 -36.1657 	 8.17307 	 18.4237
| 29> C 	 -35.1406 	 8.50881 	 15.8044
| 30> H 	 -35.5003 	 7.50036 	 15.8724
| 31> H 	 -34.2503 	 8.61071 	 15.1631
| 32> C 	 -36.2211 	 9.27728 	 15.0642
| 33> H 	 -36.1844 	 10.3505 	 15.2019
| 34> H 	 -37.1377 	 8.97422 	 15.5722
| 35> C 	 -36.3354 	 8.99789 	 13.5688
| 36> H 	 -36.4022 	 7.9741 	 13.2974
| 37> H 	 -35.5183 	 9.33596 	 13.0514
| 38> H 	 -37.223 	 9.46942 	 13.1303
| 39> H 	 -29.9719 	 12.2252 	 14.7601
| 40> H 	 -35.0202 	 9.00197 	 20.4476
| 41> *
| 42>
| 43>                          ****END OF INPUT****

CARTESIAN COORDINATES (ANGSTROEM)
---------------------------------
  S    -30.986000   10.600800   16.526100
  C    -30.860400   11.709500   15.131400
  C    -32.130900   11.990700   14.592500
  C    -33.222000   11.241200   15.233000
  C    -32.744100   10.451700   16.277100
  H    -34.305500   11.429300   15.022400
  C    -32.424500   13.050000   13.535300
  H    -32.403500   12.402400   12.736000
  H    -31.518000   13.639400   13.407800
  C    -33.573700   14.032700   13.659800
  H    -33.432900   14.945600   12.973800
  H    -34.490400   13.493700   13.331800
  C    -33.889200   14.713500   15.019200
  H    -34.906000   15.046200   15.142100
  H    -33.582600   14.077000   15.936900
  H    -33.319900   15.654100   15.123700
  S    -33.505800   10.418900   18.911400
  C    -34.718100    9.269810   19.449900
  C    -35.330000    8.783910   18.351200
  C    -34.668500    9.035930   17.126900
  C    -33.642900    9.905070   17.267500
  H    -36.165700    8.173070   18.423700
  C    -35.140600    8.508810   15.804400
  H    -35.500300    7.500360   15.872400
  H    -34.250300    8.610710   15.163100
  C    -36.221100    9.277280   15.064200
  H    -36.184400   10.350500   15.201900
  H    -37.137700    8.974220   15.572200
  C    -36.335400    8.997890   13.568800
  H    -36.402200    7.974100   13.297400
  H    -35.518300    9.335960   13.051400
  H    -37.223000    9.469420   13.130300
  H    -29.971900   12.225200   14.760100
  H    -35.020200    9.001970   20.447600

 Total Charge           Charge          ....    0
 Multiplicity           Mult            ....    1
 Number of Electrons    NEL             ....  134
 Basis Dimension        Dim             ....  322

ORBITAL ENERGIES
----------------

  NO   OCC          E(Eh)            E(eV)
   0   2.0000     -88.972462     -2421.0638
   1   2.0000     -88.960265     -2420.7319
   2   2.0000     -10.334130      -281.2060
   3   2.0000     -10.322007      -280.8761
   4   2.0000     -10.317279      -280.7474
   5   2.0000     -10.311419      -280.5880
   6   2.0000     -10.310545      -280.5642
   7   2.0000     -10.306071      -280.4424
   8   2.0000     -10.301810      -280.3265
   9   2.0000     -10.290695      -280.0240
  10   2.0000     -10.288705      -279.9699
  11   2.0000     -10.284767      -279.8627
  12   2.0000     -10.283782      -279.8359
  13   2.0000     -10.282954      -279.8134
  14   2.0000     -10.280703      -279.7522
  15   2.0000     -10.268949      -279.4323
  16   2.0000      -8.085606      -220.0205
  17   2.0000      -8.075596      -219.7481
  18   2.0000      -6.044307      -164.4740
  19   2.0000      -6.040400      -164.3676
  20   2.0000      -6.036169      -164.2525
  21   2.0000      -6.034241      -164.2000
  22   2.0000      -6.030041      -164.0858
  23   2.0000      -6.026132      -163.9794
  24   2.0000      -1.010917       -27.5084
  25   2.0000      -0.978967       -26.6390
  26   2.0000      -0.912863       -24.8403
  27   2.0000      -0.911109       -24.7925
  28   2.0000      -0.871799       -23.7229
  29   2.0000      -0.852864       -23.2076
  30   2.0000      -0.842671       -22.9302
  31   2.0000      -0.818282       -22.2666
  32   2.0000      -0.786267       -21.3954
  33   2.0000      -0.776505       -21.1298
  34   2.0000      -0.709046       -19.2941
  35   2.0000      -0.700315       -19.0565
  36   2.0000      -0.696286       -18.9469
  37   2.0000      -0.666028       -18.1235
  38   2.0000      -0.632832       -17.2202
  39   2.0000      -0.618529       -16.8310
  40   2.0000      -0.596843       -16.2409
  41   2.0000      -0.572154       -15.5691
  42   2.0000      -0.565147       -15.3784
  43   2.0000      -0.558140       -15.1878
  44   2.0000      -0.540938       -14.7197
  45   2.0000      -0.522174       -14.2091
  46   2.0000      -0.518946       -14.1212
  47   2.0000      -0.516864       -14.0646
  48   2.0000      -0.504070       -13.7165
  49   2.0000      -0.498144       -13.5552
  50   2.0000      -0.491861       -13.3842
  51   2.0000      -0.480863       -13.0849
  52   2.0000      -0.476848       -12.9757
  53   2.0000      -0.469906       -12.7868
  54   2.0000      -0.456490       -12.4217
  55   2.0000      -0.450290       -12.2530
  56   2.0000      -0.446460       -12.1488
  57   2.0000      -0.442960       -12.0536
  58   2.0000      -0.432764       -11.7761
  59   2.0000      -0.419401       -11.4125
  60   2.0000      -0.414161       -11.2699
  61   2.0000      -0.411882       -11.2079
  62   2.0000      -0.408950       -11.1281
  63   2.0000      -0.347354        -9.4520
  64   2.0000      -0.327818        -8.9204
  65   2.0000      -0.325687        -8.8624
  66   2.0000      -0.295615        -8.0441
  67   0.0000       0.026364         0.7174
  68   0.0000       0.073458         1.9989
  69   0.0000       0.109546         2.9809
  70   0.0000       0.120139         3.2691
  71   0.0000       0.125913         3.4263

MULLIKEN ATOMIC CHARGES
-----------------------
   0 S :    0.119269
   1 C :   -0.118438
   2 C :   -0.146688
   3 C :    0.013539
   4 C :   -0.152680
   5 H :    0.040648
   6 C :    0.129424
   7 H :    0.026664
   8 H :    0.008720
   9 C :   -0.109414
  10 H :    0.051878
  11 H :    0.036634
  12 C :   -0.080676
  13 H :    0.035392
  14 H :    0.059800
  15 H :    0.029348
  16 S :    0.102969
  17 C :   -0.081915
  18 C :    0.002127
  19 C :   -0.051647
  20 C :   -0.147085
  21 H :   -0.015323
  22 C :    0.081635
  23 H :    0.019018
  24 H :    0.025699
  25 C :   -0.071683
  26 H :    0.021594
  27 H :    0.013491
  28 C :    0.000705
  29 H :    0.015632
  30 H :    0.007093
  31 H :    0.031008
  32 H :    0.052833
  33 H :    0.050427
Sum of atomic charges:    0.0000000

LOEWDIN ATOMIC CHARGES
----------------------
   0 S :    0.387404
   1 C :   -0.199230
   2 C :   -0.052563
   3 C :   -0.058619
   4 C :   -0.185393
   5 H :    0.041419
   6 C :   -0.036372
   7 H :    0.030370
   8 H :    0.030120
   9 C :   -0.051983
  10 H :    0.041761
  11 H :    0.024633
  12 C :   -0.078630
  13 H :    0.025264
  14 H :    0.038347
  15 H :    0.025424
  16 S :    0.404340
  17 C :   -0.178430
  18 C :   -0.063538
  19 C :   -0.064333
  20 C :   -0.201497
  21 H :    0.017918
  22 C :   -0.030627
  23 H :    0.027817
  24 H :    0.032271
  25 C :   -0.038834
  26 H :    0.017158
  27 H :    0.021012
  28 C :   -0.055530
  29 H :    0.021466
  30 H :    0.012508
  31 H :    0.031776
  32 H :    0.032811
  33 H :    0.031763

  Mayer bond orders larger than 0.100000
B(  0-S ,  1-C ) :   1.1132 B(  0-S ,  4-C ) :   1.1418 B(  1-C ,  2-C ) :   1.6428
B(  1-C , 32-H ) :   0.9622 B(  2-C ,  3-C ) :   1.2237 B(  2-C ,  6-C ) :   0.9974
B(  3-C ,  4-C ) :   1.5659 B(  3-C ,  5-H ) :   0.9746 B(  4-C , 20-C ) :   1.0445
B(  6-C ,  7-H ) :   0.9343 B(  6-C ,  8-H ) :   0.9387 B(  6-C ,  9-C ) :   1.0637
B(  9-C , 10-H ) :   0.9596 B(  9-C , 11-H ) :   0.9564 B(  9-C , 12-C ) :   1.0650
B( 12-C , 13-H ) :   0.9760 B( 12-C , 14-H ) :   0.9730 B( 12-C , 15-H ) :   0.9785
B( 16-S , 17-C ) :   1.1358 B( 16-S , 20-C ) :   1.1373 B( 17-C , 18-C ) :   1.6130
B( 17-C , 33-H ) :   0.9712 B( 18-C , 19-C ) :   1.2411 B( 18-C , 21-H ) :   0.9983
B( 19-C , 20-C ) :   1.6129 B( 19-C , 22-C ) :   1.0661 B( 22-C , 23-H ) :   0.9281
B( 22-C , 24-H ) :   0.9252 B( 22-C , 25-C ) :   1.0580 B( 25-C , 26-H ) :   0.9542
B( 25-C , 27-H ) :   0.9485 B( 25-C , 28-C ) :   1.0876 B( 28-C , 29-H ) :   0.9723
B( 28-C , 30-H ) :   0.9710 B( 28-C , 31-H ) :   0.9717

Dispersion correction           -0.015197300
FINAL SINGLE POINT ENERGY     -1339.857140302461

DIPOLE MOMENT
-------------
                                X             Y             Z
Electronic contribution:     16.20218      -8.07844      20.74075
Nuclear contribution   :    -16.67064       8.33360     -21.23378
                        -----------------------------------------
Total Dipole Moment    :     -0.46847       0.25516      -0.49303
                        -----------------------------------------
Magnitude (a.u.)       :      0.72639
Magnitude (Debye)      :      1.84634

Rotational constants in cm-1:     0.016194     0.010359     0.008064
Rotational constants in MHz :   485.496440   310.565097   241.762654

                             ****ORCA TERMINATED NORMALLY****
TOTAL RUN TIME: 0 days 0 hours 0 minutes 22 seconds 580 msec
