                         Program Version 4.2.1 -  RELEASE  -
|  1> ! wB97X-D3 SP def2-SVP
|  2> %pal
|  3> nprocs 24
|  4> end
|  5>
|  6> * xyz 0 1
|  7> S 	 -86.7529 	 -0.830198 	 4.62965
|  8> C 	 -85.4864 	 -1.28999 	 5.71239
|  9> C 	 -84.3089 	 -0.683575 	 5.49454
| 10> C 	 -84.3757 	 0.125253 	 4.27749
| 11> C 	 -85.6133 	 0.159576 	 3.68402
| 12> H 	 -83.5999 	 0.728064 	 3.8114
| 13> C 	 -83.0619 	 -0.724437 	 6.35392
| 14> H 	 -82.5686 	 -1.59365 	 5.99193
| 15> H 	 -83.3898 	 -1.00785 	 7.33145
| 16> C 	 -82.1892 	 0.538716 	 6.40814
| 17> H 	 -81.2825 	 0.357977 	 6.91212
| 18> H 	 -81.8903 	 0.75228 	 5.36487
| 19> C 	 -82.7437 	 1.78645 	 7.08009
| 20> H 	 -82.7254 	 1.61984 	 8.10948
| 21> H 	 -82.0276 	 2.62132 	 6.90794
| 22> H 	 -83.7453 	 2.05176 	 6.82241
| 23> S 	 -87.2595 	 2.04112 	 2.54625
| 24> C 	 -87.1532 	 2.20356 	 0.822961
| 25> C 	 -86.2272 	 1.42801 	 0.218365
| 26> C 	 -85.4479 	 0.668172 	 1.1246
| 27> C 	 -85.9905 	 0.78478 	 2.422
| 28> H 	 -86.1652 	 1.47278 	 -0.902178
| 29> C 	 -84.3371 	 -0.245833 	 0.710714
| 30> H 	 -83.8305 	 -0.577747 	 1.61255
| 31> H 	 -83.6338 	 0.437277 	 0.128348
| 32> C 	 -84.7466 	 -1.41548 	 -0.245318
| 33> H 	 -85.0876 	 -1.04115 	 -1.21745
| 34> H 	 -85.6206 	 -2.01014 	 0.111673
| 35> C 	 -83.6347 	 -2.4565 	 -0.458021
| 36> H 	 -83.171 	 -2.93472 	 0.409688
| 37> H 	 -82.81 	 -1.93096 	 -0.877753
| 38> H 	 -83.909 	 -3.36194 	 -1.03219
| 39> H 	 -85.6398 	 -1.99156 	 6.49478
| 40> H 	 -87.8897 	 2.65766 	 0.141478
| 41> *
| 42>
| 43>                          ****END OF INPUT****

CARTESIAN COORDINATES (ANGSTROEM)
---------------------------------
  S    -86.752900   -0.830198    4.629650
  C    -85.486400   -1.289990    5.712390
  C    -84.308900   -0.683575    5.494540
  C    -84.375700    0.125253    4.277490
  C    -85.613300    0.159576    3.684020
  H    -83.599900    0.728064    3.811400
  C    -83.061900   -0.724437    6.353920
  H    -82.568600   -1.593650    5.991930
  H    -83.389800   -1.007850    7.331450
  C    -82.189200    0.538716    6.408140
  H    -81.282500    0.357977    6.912120
  H    -81.890300    0.752280    5.364870
  C    -82.743700    1.786450    7.080090
  H    -82.725400    1.619840    8.109480
  H    -82.027600    2.621320    6.907940
  H    -83.745300    2.051760    6.822410
  S    -87.259500    2.041120    2.546250
  C    -87.153200    2.203560    0.822961
  C    -86.227200    1.428010    0.218365
  C    -85.447900    0.668172    1.124600
  C    -85.990500    0.784780    2.422000
  H    -86.165200    1.472780   -0.902178
  C    -84.337100   -0.245833    0.710714
  H    -83.830500   -0.577747    1.612550
  H    -83.633800    0.437277    0.128348
  C    -84.746600   -1.415480   -0.245318
  H    -85.087600   -1.041150   -1.217450
  H    -85.620600   -2.010140    0.111673
  C    -83.634700   -2.456500   -0.458021
  H    -83.171000   -2.934720    0.409688
  H    -82.810000   -1.930960   -0.877753
  H    -83.909000   -3.361940   -1.032190
  H    -85.639800   -1.991560    6.494780
  H    -87.889700    2.657660    0.141478

 Total Charge           Charge          ....    0
 Multiplicity           Mult            ....    1
 Number of Electrons    NEL             ....  134
 Basis Dimension        Dim             ....  322

ORBITAL ENERGIES
----------------

  NO   OCC          E(Eh)            E(eV)
   0   2.0000     -88.966029     -2420.8887
   1   2.0000     -88.960623     -2420.7416
   2   2.0000     -10.328267      -281.0464
   3   2.0000     -10.326001      -280.9848
   4   2.0000     -10.310234      -280.5557
   5   2.0000     -10.305770      -280.4343
   6   2.0000     -10.305370      -280.4234
   7   2.0000     -10.299446      -280.2622
   8   2.0000     -10.298449      -280.2351
   9   2.0000     -10.293468      -280.0995
  10   2.0000     -10.293385      -280.0972
  11   2.0000     -10.291234      -280.0387
  12   2.0000     -10.288648      -279.9683
  13   2.0000     -10.285988      -279.8960
  14   2.0000     -10.275607      -279.6135
  15   2.0000     -10.271456      -279.5005
  16   2.0000      -8.080500      -219.8816
  17   2.0000      -8.075678      -219.7504
  18   2.0000      -6.038954      -164.3283
  19   2.0000      -6.035238      -164.2272
  20   2.0000      -6.034213      -164.1993
  21   2.0000      -6.031145      -164.1158
  22   2.0000      -6.030271      -164.0920
  23   2.0000      -6.026254      -163.9827
  24   2.0000      -1.003682       -27.3116
  25   2.0000      -0.984021       -26.7766
  26   2.0000      -0.912560       -24.8320
  27   2.0000      -0.904797       -24.6208
  28   2.0000      -0.871790       -23.7226
  29   2.0000      -0.852442       -23.1961
  30   2.0000      -0.845367       -23.0036
  31   2.0000      -0.816755       -22.2250
  32   2.0000      -0.787123       -21.4187
  33   2.0000      -0.771405       -20.9910
  34   2.0000      -0.712266       -19.3817
  35   2.0000      -0.701143       -19.0791
  36   2.0000      -0.692996       -18.8574
  37   2.0000      -0.651185       -17.7197
  38   2.0000      -0.642501       -17.4834
  39   2.0000      -0.619542       -16.8586
  40   2.0000      -0.591242       -16.0885
  41   2.0000      -0.563713       -15.3394
  42   2.0000      -0.557377       -15.1670
  43   2.0000      -0.554291       -15.0830
  44   2.0000      -0.542916       -14.7735
  45   2.0000      -0.525881       -14.3100
  46   2.0000      -0.519228       -14.1289
  47   2.0000      -0.509503       -13.8643
  48   2.0000      -0.497537       -13.5387
  49   2.0000      -0.495463       -13.4822
  50   2.0000      -0.488120       -13.2824
  51   2.0000      -0.479786       -13.0556
  52   2.0000      -0.471720       -12.8361
  53   2.0000      -0.464318       -12.6347
  54   2.0000      -0.460381       -12.5276
  55   2.0000      -0.448756       -12.2113
  56   2.0000      -0.444649       -12.0995
  57   2.0000      -0.438074       -11.9206
  58   2.0000      -0.435923       -11.8621
  59   2.0000      -0.433500       -11.7961
  60   2.0000      -0.424478       -11.5506
  61   2.0000      -0.413748       -11.2586
  62   2.0000      -0.408865       -11.1258
  63   2.0000      -0.342170        -9.3109
  64   2.0000      -0.332100        -9.0369
  65   2.0000      -0.326104        -8.8737
  66   2.0000      -0.294114        -8.0033
  67   0.0000       0.035573         0.9680
  68   0.0000       0.069232         1.8839
  69   0.0000       0.112784         3.0690
  70   0.0000       0.127306         3.4642
  71   0.0000       0.131572         3.5803

MULLIKEN ATOMIC CHARGES
-----------------------
   0 S :    0.105957
   1 C :   -0.121731
   2 C :   -0.101173
   3 C :    0.019652
   4 C :   -0.162850
   5 H :    0.017838
   6 C :    0.128698
   7 H :    0.031922
   8 H :    0.000981
   9 C :   -0.072319
  10 H :    0.016144
  11 H :    0.025183
  12 C :   -0.018284
  13 H :    0.012506
  14 H :    0.037025
  15 H :    0.038350
  16 S :    0.111244
  17 C :   -0.075451
  18 C :   -0.080150
  19 C :   -0.005401
  20 C :   -0.189240
  21 H :    0.035277
  22 C :    0.072199
  23 H :    0.021250
  24 H :    0.041309
  25 C :   -0.074938
  26 H :    0.028820
  27 H :    0.040689
  28 C :   -0.049201
  29 H :    0.024283
  30 H :    0.015413
  31 H :    0.039927
  32 H :    0.029600
  33 H :    0.056469
Sum of atomic charges:    0.0000000

LOEWDIN ATOMIC CHARGES
----------------------
   0 S :    0.390806
   1 C :   -0.195039
   2 C :   -0.064157
   3 C :   -0.063256
   4 C :   -0.191331
   5 H :    0.031104
   6 C :   -0.026979
   7 H :    0.034756
   8 H :    0.024190
   9 C :   -0.037876
  10 H :    0.022393
  11 H :    0.022562
  12 C :   -0.055697
  13 H :    0.017198
  14 H :    0.035181
  15 H :    0.023066
  16 S :    0.394064
  17 C :   -0.196105
  18 C :   -0.080103
  19 C :   -0.050073
  20 C :   -0.188013
  21 H :    0.041250
  22 C :   -0.031801
  23 H :    0.029605
  24 H :    0.042504
  25 C :   -0.039858
  26 H :    0.023796
  27 H :    0.030002
  28 C :   -0.074102
  29 H :    0.025891
  30 H :    0.018109
  31 H :    0.031606
  32 H :    0.021278
  33 H :    0.035027

  Mayer bond orders larger than 0.100000
B(  0-S ,  1-C ) :   1.1298 B(  0-S ,  4-C ) :   1.1288 B(  1-C ,  2-C ) :   1.6678
B(  1-C , 32-H ) :   0.9684 B(  2-C ,  3-C ) :   1.1859 B(  2-C ,  6-C ) :   0.9971
B(  3-C ,  4-C ) :   1.6308 B(  3-C ,  5-H ) :   0.9894 B(  4-C , 20-C ) :   1.0265
B(  6-C ,  7-H ) :   0.9258 B(  6-C ,  8-H ) :   0.9375 B(  6-C ,  9-C ) :   1.0819
B(  9-C , 10-H ) :   0.9509 B(  9-C , 11-H ) :   0.9517 B(  9-C , 12-C ) :   1.0787
B( 12-C , 13-H ) :   0.9726 B( 12-C , 14-H ) :   0.9721 B( 12-C , 15-H ) :   0.9784
B( 16-S , 17-C ) :   1.1357 B( 16-S , 20-C ) :   1.1382 B( 17-C , 18-C ) :   1.6778
B( 17-C , 33-H ) :   0.9517 B( 18-C , 19-C ) :   1.2059 B( 18-C , 21-H ) :   0.9776
B( 19-C , 20-C ) :   1.6003 B( 19-C , 22-C ) :   1.0588 B( 22-C , 23-H ) :   0.9326
B( 22-C , 24-H ) :   0.9236 B( 22-C , 25-C ) :   1.0522 B( 25-C , 26-H ) :   0.9515
B( 25-C , 27-H ) :   0.9611 B( 25-C , 28-C ) :   1.0820 B( 28-C , 29-H ) :   0.9745
B( 28-C , 30-H ) :   0.9732 B( 28-C , 31-H ) :   0.9751

Dispersion correction           -0.014072121
FINAL SINGLE POINT ENERGY     -1339.877498708477

DIPOLE MOMENT
-------------
                                X             Y             Z
Electronic contribution:    -22.63549       6.41226       1.91067
Nuclear contribution   :     23.27132      -6.61816      -2.01809
                        -----------------------------------------
Total Dipole Moment    :      0.63583      -0.20590      -0.10742
                        -----------------------------------------
Magnitude (a.u.)       :      0.67692
Magnitude (Debye)      :      1.72059

Rotational constants in cm-1:     0.016777     0.008691     0.007325
Rotational constants in MHz :   502.967415   260.549868   219.599622

                             ****ORCA TERMINATED NORMALLY****
TOTAL RUN TIME: 0 days 0 hours 0 minutes 21 seconds 328 msec
