                         Program Version 4.2.1 -  RELEASE  -
|  1> ! wB97X-D3 SP def2-SVP
|  2> %pal
|  3> nprocs 24
|  4> end
|  5>
|  6> * xyz 0 1
|  7> S 	 -41.8328 	 18.5096 	 20.7287
|  8> C 	 -42.9366 	 17.2253 	 21.1264
|  9> C 	 -43.3824 	 17.3013 	 22.4306
| 10> C 	 -42.9797 	 18.4967 	 23.1057
| 11> C 	 -42.1181 	 19.2216 	 22.3033
| 12> H 	 -43.2231 	 18.8789 	 24.1198
| 13> C 	 -44.2947 	 16.3334 	 23.0632
| 14> H 	 -45.2931 	 16.5848 	 22.6646
| 15> H 	 -44.3244 	 16.593 	 24.1586
| 16> C 	 -43.9442 	 14.8371 	 22.827
| 17> H 	 -44.32 	 14.6394 	 21.7624
| 18> H 	 -42.8986 	 14.5828 	 22.918
| 19> C 	 -44.5526 	 13.8403 	 23.7712
| 20> H 	 -45.5448 	 14.2416 	 23.9965
| 21> H 	 -44.6216 	 12.8044 	 23.4086
| 22> H 	 -43.9997 	 13.8598 	 24.702
| 23> S 	 -42.0739 	 21.9511 	 22.0764
| 24> C 	 -40.8256 	 22.8299 	 22.986
| 25> C 	 -40.0518 	 22.0192 	 23.7756
| 26> C 	 -40.3871 	 20.6087 	 23.5948
| 27> C 	 -41.4457 	 20.4562 	 22.7234
| 28> H 	 -39.26 	 22.5795 	 24.2467
| 29> C 	 -39.7813 	 19.5481 	 24.4399
| 30> H 	 -38.7861 	 19.1991 	 24.2297
| 31> H 	 -40.3265 	 18.722 	 24.0883
| 32> C 	 -40.1023 	 19.6011 	 25.9586
| 33> H 	 -39.6523 	 20.5296 	 26.4658
| 34> H 	 -39.5186 	 18.7741 	 26.4618
| 35> C 	 -41.5596 	 19.5183 	 26.3684
| 36> H 	 -42.1911 	 20.2693 	 25.922
| 37> H 	 -41.6973 	 19.7136 	 27.4018
| 38> H 	 -42.0357 	 18.5325 	 26.1952
| 39> H 	 -43.2475 	 16.3697 	 20.49
| 40> H 	 -40.6369 	 23.9137 	 22.8306
| 41> *
| 42>
| 43>                          ****END OF INPUT****

CARTESIAN COORDINATES (ANGSTROEM)
---------------------------------
  S    -41.832800   18.509600   20.728700
  C    -42.936600   17.225300   21.126400
  C    -43.382400   17.301300   22.430600
  C    -42.979700   18.496700   23.105700
  C    -42.118100   19.221600   22.303300
  H    -43.223100   18.878900   24.119800
  C    -44.294700   16.333400   23.063200
  H    -45.293100   16.584800   22.664600
  H    -44.324400   16.593000   24.158600
  C    -43.944200   14.837100   22.827000
  H    -44.320000   14.639400   21.762400
  H    -42.898600   14.582800   22.918000
  C    -44.552600   13.840300   23.771200
  H    -45.544800   14.241600   23.996500
  H    -44.621600   12.804400   23.408600
  H    -43.999700   13.859800   24.702000
  S    -42.073900   21.951100   22.076400
  C    -40.825600   22.829900   22.986000
  C    -40.051800   22.019200   23.775600
  C    -40.387100   20.608700   23.594800
  C    -41.445700   20.456200   22.723400
  H    -39.260000   22.579500   24.246700
  C    -39.781300   19.548100   24.439900
  H    -38.786100   19.199100   24.229700
  H    -40.326500   18.722000   24.088300
  C    -40.102300   19.601100   25.958600
  H    -39.652300   20.529600   26.465800
  H    -39.518600   18.774100   26.461800
  C    -41.559600   19.518300   26.368400
  H    -42.191100   20.269300   25.922000
  H    -41.697300   19.713600   27.401800
  H    -42.035700   18.532500   26.195200
  H    -43.247500   16.369700   20.490000
  H    -40.636900   23.913700   22.830600

 Total Charge           Charge          ....    0
 Multiplicity           Mult            ....    1
 Number of Electrons    NEL             ....  134
 Basis Dimension        Dim             ....  322

ORBITAL ENERGIES
----------------

  NO   OCC          E(Eh)            E(eV)
   0   2.0000     -88.968450     -2420.9546
   1   2.0000     -88.962379     -2420.7894
   2   2.0000     -10.325163      -280.9620
   3   2.0000     -10.323383      -280.9135
   4   2.0000     -10.317080      -280.7420
   5   2.0000     -10.311449      -280.5888
   6   2.0000     -10.305178      -280.4182
   7   2.0000     -10.297452      -280.2079
   8   2.0000     -10.296246      -280.1751
   9   2.0000     -10.295976      -280.1677
  10   2.0000     -10.295523      -280.1554
  11   2.0000     -10.292187      -280.0646
  12   2.0000     -10.290650      -280.0228
  13   2.0000     -10.281229      -279.7665
  14   2.0000     -10.276865      -279.6477
  15   2.0000     -10.274455      -279.5821
  16   2.0000      -8.083014      -219.9500
  17   2.0000      -8.077145      -219.7903
  18   2.0000      -6.041470      -164.3968
  19   2.0000      -6.037591      -164.2912
  20   2.0000      -6.035633      -164.2379
  21   2.0000      -6.033804      -164.1881
  22   2.0000      -6.031759      -164.1325
  23   2.0000      -6.027810      -164.0251
  24   2.0000      -1.005482       -27.3605
  25   2.0000      -0.981893       -26.7187
  26   2.0000      -0.913810       -24.8660
  27   2.0000      -0.907403       -24.6917
  28   2.0000      -0.868279       -23.6271
  29   2.0000      -0.855528       -23.2801
  30   2.0000      -0.847290       -23.0559
  31   2.0000      -0.817280       -22.2393
  32   2.0000      -0.784806       -21.3556
  33   2.0000      -0.768254       -20.9053
  34   2.0000      -0.706305       -19.2195
  35   2.0000      -0.699418       -19.0321
  36   2.0000      -0.687696       -18.7131
  37   2.0000      -0.651409       -17.7257
  38   2.0000      -0.638103       -17.3637
  39   2.0000      -0.612925       -16.6785
  40   2.0000      -0.593267       -16.1436
  41   2.0000      -0.568005       -15.4562
  42   2.0000      -0.565091       -15.3769
  43   2.0000      -0.551544       -15.0083
  44   2.0000      -0.538074       -14.6417
  45   2.0000      -0.528361       -14.3774
  46   2.0000      -0.520230       -14.1562
  47   2.0000      -0.512628       -13.9493
  48   2.0000      -0.503439       -13.6993
  49   2.0000      -0.495275       -13.4771
  50   2.0000      -0.490270       -13.3409
  51   2.0000      -0.479785       -13.0556
  52   2.0000      -0.467642       -12.7252
  53   2.0000      -0.463004       -12.5990
  54   2.0000      -0.453777       -12.3479
  55   2.0000      -0.448491       -12.2041
  56   2.0000      -0.443882       -12.0786
  57   2.0000      -0.441085       -12.0025
  58   2.0000      -0.434895       -11.8341
  59   2.0000      -0.422471       -11.4960
  60   2.0000      -0.419283       -11.4093
  61   2.0000      -0.411478       -11.1969
  62   2.0000      -0.405834       -11.0433
  63   2.0000      -0.337954        -9.1962
  64   2.0000      -0.328700        -8.9444
  65   2.0000      -0.320850        -8.7308
  66   2.0000      -0.306465        -8.3393
  67   0.0000       0.043259         1.1771
  68   0.0000       0.062143         1.6910
  69   0.0000       0.115723         3.1490
  70   0.0000       0.119660         3.2561
  71   0.0000       0.124430         3.3859

MULLIKEN ATOMIC CHARGES
-----------------------
   0 S :    0.135087
   1 C :   -0.130674
   2 C :   -0.088724
   3 C :    0.037340
   4 C :   -0.184416
   5 H :    0.022965
   6 C :    0.047424
   7 H :    0.050591
   8 H :    0.023755
   9 C :   -0.107732
  10 H :    0.037337
  11 H :    0.035700
  12 C :   -0.037940
  13 H :    0.020180
  14 H :    0.045592
  15 H :    0.029453
  16 S :    0.106862
  17 C :   -0.127986
  18 C :   -0.021973
  19 C :   -0.018834
  20 C :   -0.192607
  21 H :    0.022036
  22 C :    0.137290
  23 H :    0.028308
  24 H :   -0.004494
  25 C :   -0.113176
  26 H :    0.036409
  27 H :    0.035613
  28 C :   -0.042733
  29 H :    0.040582
  30 H :    0.020222
  31 H :    0.033389
  32 H :    0.057108
  33 H :    0.068045
Sum of atomic charges:   -0.0000000

LOEWDIN ATOMIC CHARGES
----------------------
   0 S :    0.415826
   1 C :   -0.212482
   2 C :   -0.068154
   3 C :   -0.059925
   4 C :   -0.199174
   5 H :    0.041136
   6 C :   -0.039474
   7 H :    0.041326
   8 H :    0.031140
   9 C :   -0.047771
  10 H :    0.028469
  11 H :    0.024496
  12 C :   -0.066368
  13 H :    0.022590
  14 H :    0.031172
  15 H :    0.023717
  16 S :    0.388664
  17 C :   -0.179161
  18 C :   -0.072225
  19 C :   -0.049619
  20 C :   -0.203010
  21 H :    0.035585
  22 C :   -0.039543
  23 H :    0.033812
  24 H :    0.028173
  25 C :   -0.042133
  26 H :    0.027077
  27 H :    0.030975
  28 C :   -0.070200
  29 H :    0.024931
  30 H :    0.025118
  31 H :    0.025358
  32 H :    0.036057
  33 H :    0.033617

  Mayer bond orders larger than 0.100000
B(  0-S ,  1-C ) :   1.1289 B(  0-S ,  4-C ) :   1.1639 B(  1-C ,  2-C ) :   1.6214
B(  1-C , 32-H ) :   0.9621 B(  2-C ,  3-C ) :   1.2273 B(  2-C ,  6-C ) :   1.0274
B(  3-C ,  4-C ) :   1.5875 B(  3-C ,  5-H ) :   0.9835 B(  4-C , 20-C ) :   1.0011
B(  6-C ,  7-H ) :   0.9249 B(  6-C ,  8-H ) :   0.9470 B(  6-C ,  9-C ) :   1.0525
B(  9-C , 10-H ) :   0.9471 B(  9-C , 11-H ) :   0.9695 B(  9-C , 12-C ) :   1.0885
B( 12-C , 13-H ) :   0.9718 B( 12-C , 14-H ) :   0.9733 B( 12-C , 15-H ) :   0.9753
B( 16-S , 17-C ) :   1.1311 B( 16-S , 20-C ) :   1.1464 B( 17-C , 18-C ) :   1.6731
B( 17-C , 33-H ) :   0.9602 B( 18-C , 19-C ) :   1.1591 B( 18-C , 21-H ) :   0.9913
B( 19-C , 20-C ) :   1.6385 B( 19-C , 22-C ) :   1.0505 B( 22-C , 23-H ) :   0.9274
B( 22-C , 24-H ) :   0.9134 B( 22-C , 25-C ) :   1.0624 B( 25-C , 26-H ) :   0.9581
B( 25-C , 27-H ) :   0.9535 B( 25-C , 28-C ) :   1.0831 B( 28-C , 29-H ) :   0.9674
B( 28-C , 30-H ) :   0.9649 B( 28-C , 31-H ) :   0.9692

Dispersion correction           -0.015222416
FINAL SINGLE POINT ENERGY     -1339.873724543660

DIPOLE MOMENT
-------------
                                X             Y             Z
Electronic contribution:      4.76201      20.14274     -20.44322
Nuclear contribution   :     -4.76643     -20.47665      20.95417
                        -----------------------------------------
Total Dipole Moment    :     -0.00442      -0.33391       0.51094
                        -----------------------------------------
Magnitude (a.u.)       :      0.61039
Magnitude (Debye)      :      1.55149

Rotational constants in cm-1:     0.021411     0.008387     0.006743
Rotational constants in MHz :   641.888600   251.427002   202.155539

                             ****ORCA TERMINATED NORMALLY****
TOTAL RUN TIME: 0 days 0 hours 0 minutes 22 seconds 155 msec
