                         Program Version 4.2.1 -  RELEASE  -
|  1> ! wB97X-D3 SP def2-SVP
|  2> %pal
|  3> nprocs 24
|  4> end
|  5>
|  6> * xyz 0 1
|  7> S 	 -134.291 	 6.19929 	 7.06588
|  8> C 	 -132.739 	 6.78281 	 6.53556
|  9> C 	 -131.756 	 6.20333 	 7.25967
| 10> C 	 -132.209 	 5.21623 	 8.25167
| 11> C 	 -133.595 	 5.20665 	 8.39279
| 12> H 	 -131.535 	 4.62749 	 8.92824
| 13> C 	 -130.337 	 6.44048 	 7.21087
| 14> H 	 -129.939 	 6.86682 	 8.16025
| 15> H 	 -130.153 	 7.20519 	 6.39813
| 16> C 	 -129.484 	 5.26759 	 6.82927
| 17> H 	 -129.307 	 4.50892 	 7.63226
| 18> H 	 -129.956 	 4.66831 	 6.07904
| 19> C 	 -128.074 	 5.6422 	 6.32606
| 20> H 	 -127.389 	 4.80418 	 6.3471
| 21> H 	 -128.208 	 6.03704 	 5.33358
| 22> H 	 -127.669 	 6.38761 	 6.97114
| 23> S 	 -134.471 	 4.7897 	 10.9445
| 24> C 	 -135.724 	 3.62378 	 11.1895
| 25> C 	 -136.197 	 3.11777 	 9.97894
| 26> C 	 -135.31 	 3.41085 	 8.93204
| 27> C 	 -134.371 	 4.32851 	 9.27171
| 28> H 	 -137.005 	 2.39497 	 10.0105
| 29> C 	 -135.497 	 2.76294 	 7.58202
| 30> H 	 -135.178 	 3.61429 	 6.83471
| 31> H 	 -136.608 	 2.62869 	 7.38165
| 32> C 	 -134.685 	 1.50109 	 7.31881
| 33> H 	 -135.031 	 1.02602 	 6.35206
| 34> H 	 -134.848 	 0.710614 	 8.10899
| 35> C 	 -133.133 	 1.60055 	 7.29427
| 36> H 	 -132.83 	 2.45678 	 6.71861
| 37> H 	 -132.745 	 0.682786 	 6.85841
| 38> H 	 -132.679 	 1.72778 	 8.25168
| 39> H 	 -132.594 	 7.64602 	 5.82922
| 40> H 	 -136.058 	 3.29869 	 12.1012
| 41> *
| 42>
| 43>                          ****END OF INPUT****

CARTESIAN COORDINATES (ANGSTROEM)
---------------------------------
  S    -134.291000    6.199290    7.065880
  C    -132.739000    6.782810    6.535560
  C    -131.756000    6.203330    7.259670
  C    -132.209000    5.216230    8.251670
  C    -133.595000    5.206650    8.392790
  H    -131.535000    4.627490    8.928240
  C    -130.337000    6.440480    7.210870
  H    -129.939000    6.866820    8.160250
  H    -130.153000    7.205190    6.398130
  C    -129.484000    5.267590    6.829270
  H    -129.307000    4.508920    7.632260
  H    -129.956000    4.668310    6.079040
  C    -128.074000    5.642200    6.326060
  H    -127.389000    4.804180    6.347100
  H    -128.208000    6.037040    5.333580
  H    -127.669000    6.387610    6.971140
  S    -134.471000    4.789700   10.944500
  C    -135.724000    3.623780   11.189500
  C    -136.197000    3.117770    9.978940
  C    -135.310000    3.410850    8.932040
  C    -134.371000    4.328510    9.271710
  H    -137.005000    2.394970   10.010500
  C    -135.497000    2.762940    7.582020
  H    -135.178000    3.614290    6.834710
  H    -136.608000    2.628690    7.381650
  C    -134.685000    1.501090    7.318810
  H    -135.031000    1.026020    6.352060
  H    -134.848000    0.710614    8.108990
  C    -133.133000    1.600550    7.294270
  H    -132.830000    2.456780    6.718610
  H    -132.745000    0.682786    6.858410
  H    -132.679000    1.727780    8.251680
  H    -132.594000    7.646020    5.829220
  H    -136.058000    3.298690   12.101200

 Total Charge           Charge          ....    0
 Multiplicity           Mult            ....    1
 Number of Electrons    NEL             ....  134
 Basis Dimension        Dim             ....  322

ORBITAL ENERGIES
----------------

  NO   OCC          E(Eh)            E(eV)
   0   2.0000     -88.966595     -2420.9041
   1   2.0000     -88.963618     -2420.8231
   2   2.0000     -10.334050      -281.2038
   3   2.0000     -10.319587      -280.8102
   4   2.0000     -10.317957      -280.7659
   5   2.0000     -10.311765      -280.5974
   6   2.0000     -10.301553      -280.3195
   7   2.0000     -10.298584      -280.2387
   8   2.0000     -10.297005      -280.1958
   9   2.0000     -10.296986      -280.1952
  10   2.0000     -10.292187      -280.0646
  11   2.0000     -10.291579      -280.0481
  12   2.0000     -10.291055      -280.0338
  13   2.0000     -10.282659      -279.8054
  14   2.0000     -10.273680      -279.5610
  15   2.0000     -10.268272      -279.4139
  16   2.0000      -8.081976      -219.9218
  17   2.0000      -8.077561      -219.8016
  18   2.0000      -6.040286      -164.3645
  19   2.0000      -6.036429      -164.2596
  20   2.0000      -6.036303      -164.2562
  21   2.0000      -6.032871      -164.1628
  22   2.0000      -6.032114      -164.1422
  23   2.0000      -6.028161      -164.0346
  24   2.0000      -1.010457       -27.4959
  25   2.0000      -0.987317       -26.8663
  26   2.0000      -0.918712       -24.9994
  27   2.0000      -0.902539       -24.5593
  28   2.0000      -0.872264       -23.7355
  29   2.0000      -0.850797       -23.1514
  30   2.0000      -0.845954       -23.0196
  31   2.0000      -0.814879       -22.1740
  32   2.0000      -0.780137       -21.2286
  33   2.0000      -0.771191       -20.9852
  34   2.0000      -0.708387       -19.2762
  35   2.0000      -0.695100       -18.9146
  36   2.0000      -0.688767       -18.7423
  37   2.0000      -0.667174       -18.1547
  38   2.0000      -0.637148       -17.3377
  39   2.0000      -0.617987       -16.8163
  40   2.0000      -0.589950       -16.0534
  41   2.0000      -0.577352       -15.7106
  42   2.0000      -0.565015       -15.3748
  43   2.0000      -0.546660       -14.8754
  44   2.0000      -0.538496       -14.6532
  45   2.0000      -0.525704       -14.3051
  46   2.0000      -0.515643       -14.0314
  47   2.0000      -0.514350       -13.9962
  48   2.0000      -0.508010       -13.8236
  49   2.0000      -0.499156       -13.5827
  50   2.0000      -0.492284       -13.3957
  51   2.0000      -0.481382       -13.0991
  52   2.0000      -0.466511       -12.6944
  53   2.0000      -0.460069       -12.5191
  54   2.0000      -0.458286       -12.4706
  55   2.0000      -0.448291       -12.1986
  56   2.0000      -0.445967       -12.1354
  57   2.0000      -0.438082       -11.9208
  58   2.0000      -0.432936       -11.7808
  59   2.0000      -0.421040       -11.4571
  60   2.0000      -0.416487       -11.3332
  61   2.0000      -0.408824       -11.1247
  62   2.0000      -0.400001       -10.8846
  63   2.0000      -0.339705        -9.2439
  64   2.0000      -0.334279        -9.0962
  65   2.0000      -0.321816        -8.7571
  66   2.0000      -0.303289        -8.2529
  67   0.0000       0.034643         0.9427
  68   0.0000       0.061830         1.6825
  69   0.0000       0.106039         2.8855
  70   0.0000       0.116059         3.1581
  71   0.0000       0.128287         3.4909

MULLIKEN ATOMIC CHARGES
-----------------------
   0 S :    0.095551
   1 C :   -0.133630
   2 C :   -0.068769
   3 C :    0.008907
   4 C :   -0.136818
   5 H :    0.041402
   6 C :    0.055399
   7 H :    0.046063
   8 H :    0.012070
   9 C :   -0.111974
  10 H :    0.026996
  11 H :    0.023006
  12 C :   -0.022942
  13 H :    0.032570
  14 H :    0.032421
  15 H :    0.020959
  16 S :    0.122713
  17 C :   -0.067446
  18 C :   -0.029756
  19 C :   -0.048877
  20 C :   -0.158597
  21 H :    0.021691
  22 C :    0.028315
  23 H :    0.038608
  24 H :    0.040543
  25 C :   -0.087335
  26 H :    0.040023
  27 H :    0.029430
  28 C :   -0.034726
  29 H :    0.029184
  30 H :    0.031263
  31 H :    0.030024
  32 H :    0.070880
  33 H :    0.022854
Sum of atomic charges:   -0.0000000

LOEWDIN ATOMIC CHARGES
----------------------
   0 S :    0.387863
   1 C :   -0.203361
   2 C :   -0.073843
   3 C :   -0.055255
   4 C :   -0.178805
   5 H :    0.040452
   6 C :   -0.042778
   7 H :    0.038708
   8 H :    0.032555
   9 C :   -0.045583
  10 H :    0.023083
  11 H :    0.019669
  12 C :   -0.055653
  13 H :    0.026440
  14 H :    0.023142
  15 H :    0.019829
  16 S :    0.427559
  17 C :   -0.169907
  18 C :   -0.063412
  19 C :   -0.062724
  20 C :   -0.214007
  21 H :    0.031833
  22 C :   -0.047467
  23 H :    0.031136
  24 H :    0.038778
  25 C :   -0.047738
  26 H :    0.030299
  27 H :    0.027021
  28 C :   -0.062341
  29 H :    0.021283
  30 H :    0.028120
  31 H :    0.020302
  32 H :    0.045572
  33 H :    0.009229

  Mayer bond orders larger than 0.100000
B(  0-S ,  1-C ) :   1.1147 B(  0-S ,  4-C ) :   1.1227 B(  1-C ,  2-C ) :   1.6510
B(  1-C , 32-H ) :   0.9568 B(  2-C ,  3-C ) :   1.1831 B(  2-C ,  6-C ) :   1.0600
B(  3-C ,  4-C ) :   1.6075 B(  3-C ,  5-H ) :   0.9842 B(  4-C , 20-C ) :   1.0159
B(  6-C ,  7-H ) :   0.9247 B(  6-C ,  8-H ) :   0.9403 B(  6-C ,  9-C ) :   1.0548
B(  9-C , 10-H ) :   0.9485 B(  9-C , 11-H ) :   0.9600 B(  9-C , 12-C ) :   1.0883
B( 12-C , 13-H ) :   0.9753 B( 12-C , 14-H ) :   0.9763 B( 12-C , 15-H ) :   0.9739
B( 16-S , 17-C ) :   1.1768 B( 16-S , 20-C ) :   1.1475 B( 17-C , 18-C ) :   1.5813
B( 17-C , 20-C ) :   0.1028 B( 17-C , 33-H ) :   0.9796 B( 18-C , 19-C ) :   1.2652
B( 18-C , 21-H ) :   0.9902 B( 19-C , 20-C ) :   1.5927 B( 19-C , 22-C ) :   1.0273
B( 22-C , 23-H ) :   0.9223 B( 22-C , 24-H ) :   0.9393 B( 22-C , 25-C ) :   1.0716
B( 25-C , 26-H ) :   0.9571 B( 25-C , 27-H ) :   0.9549 B( 25-C , 28-C ) :   1.0737
B( 28-C , 29-H ) :   0.9756 B( 28-C , 30-H ) :   0.9723 B( 28-C , 31-H ) :   0.9748

Dispersion correction           -0.015376145
FINAL SINGLE POINT ENERGY     -1339.872507034978

DIPOLE MOMENT
-------------
                                X             Y             Z
Electronic contribution:    -19.02917      10.98493      13.07100
Nuclear contribution   :     19.34707     -11.26321     -13.13698
                        -----------------------------------------
Total Dipole Moment    :      0.31790      -0.27828      -0.06598
                        -----------------------------------------
Magnitude (a.u.)       :      0.42761
Magnitude (Debye)      :      1.08691

Rotational constants in cm-1:     0.020888     0.008239     0.007593
Rotational constants in MHz :   626.200729   247.004393   227.635557

                             ****ORCA TERMINATED NORMALLY****
TOTAL RUN TIME: 0 days 0 hours 0 minutes 21 seconds 102 msec
