                         Program Version 4.2.1 -  RELEASE  -
|  1> ! wB97X-D3 SP def2-SVP
|  2> %pal
|  3> nprocs 24
|  4> end
|  5>
|  6> * xyz 0 1
|  7> S 	 -64.1932 	 7.7894 	 -81.445
|  8> C 	 -65.4487 	 6.85092 	 -82.3376
|  9> C 	 -66.7243 	 7.03312 	 -81.7352
| 10> C 	 -66.5869 	 7.71487 	 -80.4591
| 11> C 	 -65.3348 	 8.28785 	 -80.2561
| 12> H 	 -67.3569 	 7.6528 	 -79.7245
| 13> C 	 -68.04 	 6.37315 	 -82.1295
| 14> H 	 -68.489 	 5.74236 	 -81.3223
| 15> H 	 -67.9198 	 5.60478 	 -82.893
| 16> C 	 -69.0528 	 7.38774 	 -82.6613
| 17> H 	 -69.9261 	 6.87754 	 -82.9672
| 18> H 	 -69.3546 	 8.11353 	 -81.8749
| 19> C 	 -68.4429 	 7.96113 	 -83.884
| 20> H 	 -69.1177 	 8.73606 	 -84.2135
| 21> H 	 -67.4436 	 8.36012 	 -83.5884
| 22> H 	 -68.3581 	 7.20616 	 -84.6272
| 23> S 	 -64.9277 	 10.7726 	 -79.1337
| 24> C 	 -64.4463 	 10.8477 	 -77.4732
| 25> C 	 -64.3457 	 9.62176 	 -76.9419
| 26> C 	 -64.6949 	 8.50142 	 -77.7886
| 27> C 	 -64.9348 	 8.98693 	 -79.0574
| 28> H 	 -64.097 	 9.58756 	 -75.8906
| 29> C 	 -64.491 	 7.06257 	 -77.4331
| 30> H 	 -64.6633 	 6.44474 	 -78.3219
| 31> H 	 -65.2072 	 6.70118 	 -76.6403
| 32> C 	 -63.0576 	 6.71622 	 -76.8971
| 33> H 	 -62.801 	 7.3727 	 -76.1188
| 34> H 	 -62.319 	 6.86818 	 -77.6698
| 35> C 	 -62.856 	 5.33171 	 -76.2762
| 36> H 	 -62.911 	 4.4752 	 -76.9851
| 37> H 	 -63.712 	 5.06477 	 -75.5784
| 38> H 	 -61.8919 	 5.19763 	 -75.7016
| 39> H 	 -65.22 	 6.3143 	 -83.2304
| 40> H 	 -64.2815 	 11.6919 	 -76.8185
| 41> *
| 42>
| 43>                          ****END OF INPUT****

CARTESIAN COORDINATES (ANGSTROEM)
---------------------------------
  S    -64.193200    7.789400  -81.445000
  C    -65.448700    6.850920  -82.337600
  C    -66.724300    7.033120  -81.735200
  C    -66.586900    7.714870  -80.459100
  C    -65.334800    8.287850  -80.256100
  H    -67.356900    7.652800  -79.724500
  C    -68.040000    6.373150  -82.129500
  H    -68.489000    5.742360  -81.322300
  H    -67.919800    5.604780  -82.893000
  C    -69.052800    7.387740  -82.661300
  H    -69.926100    6.877540  -82.967200
  H    -69.354600    8.113530  -81.874900
  C    -68.442900    7.961130  -83.884000
  H    -69.117700    8.736060  -84.213500
  H    -67.443600    8.360120  -83.588400
  H    -68.358100    7.206160  -84.627200
  S    -64.927700   10.772600  -79.133700
  C    -64.446300   10.847700  -77.473200
  C    -64.345700    9.621760  -76.941900
  C    -64.694900    8.501420  -77.788600
  C    -64.934800    8.986930  -79.057400
  H    -64.097000    9.587560  -75.890600
  C    -64.491000    7.062570  -77.433100
  H    -64.663300    6.444740  -78.321900
  H    -65.207200    6.701180  -76.640300
  C    -63.057600    6.716220  -76.897100
  H    -62.801000    7.372700  -76.118800
  H    -62.319000    6.868180  -77.669800
  C    -62.856000    5.331710  -76.276200
  H    -62.911000    4.475200  -76.985100
  H    -63.712000    5.064770  -75.578400
  H    -61.891900    5.197630  -75.701600
  H    -65.220000    6.314300  -83.230400
  H    -64.281500   11.691900  -76.818500

 Total Charge           Charge          ....    0
 Multiplicity           Mult            ....    1
 Number of Electrons    NEL             ....  134
 Basis Dimension        Dim             ....  322

ORBITAL ENERGIES
----------------

  NO   OCC          E(Eh)            E(eV)
   0   2.0000     -88.969396     -2420.9804
   1   2.0000     -88.963028     -2420.8071
   2   2.0000     -10.326785      -281.0061
   3   2.0000     -10.325716      -280.9770
   4   2.0000     -10.324370      -280.9404
   5   2.0000     -10.311361      -280.5864
   6   2.0000     -10.309894      -280.5465
   7   2.0000     -10.305241      -280.4199
   8   2.0000     -10.297923      -280.2207
   9   2.0000     -10.296700      -280.1875
  10   2.0000     -10.294376      -280.1242
  11   2.0000     -10.287700      -279.9425
  12   2.0000     -10.286809      -279.9183
  13   2.0000     -10.283121      -279.8180
  14   2.0000     -10.277566      -279.6668
  15   2.0000     -10.265413      -279.3361
  16   2.0000      -8.083611      -219.9662
  17   2.0000      -8.077758      -219.8070
  18   2.0000      -6.042120      -164.4145
  19   2.0000      -6.038129      -164.3058
  20   2.0000      -6.036341      -164.2572
  21   2.0000      -6.034454      -164.2058
  22   2.0000      -6.032387      -164.1496
  23   2.0000      -6.028309      -164.0386
  24   2.0000      -1.005436       -27.3593
  25   2.0000      -0.980570       -26.6827
  26   2.0000      -0.921655       -25.0795
  27   2.0000      -0.905523       -24.6405
  28   2.0000      -0.870357       -23.6836
  29   2.0000      -0.848895       -23.0996
  30   2.0000      -0.844994       -22.9935
  31   2.0000      -0.811307       -22.0768
  32   2.0000      -0.780982       -21.2516
  33   2.0000      -0.770645       -20.9703
  34   2.0000      -0.707217       -19.2443
  35   2.0000      -0.698826       -19.0160
  36   2.0000      -0.691869       -18.8267
  37   2.0000      -0.651816       -17.7368
  38   2.0000      -0.643490       -17.5103
  39   2.0000      -0.623320       -16.9614
  40   2.0000      -0.597727       -16.2650
  41   2.0000      -0.574715       -15.6388
  42   2.0000      -0.560945       -15.2641
  43   2.0000      -0.555194       -15.1076
  44   2.0000      -0.546483       -14.8706
  45   2.0000      -0.521748       -14.1975
  46   2.0000      -0.516012       -14.0414
  47   2.0000      -0.510264       -13.8850
  48   2.0000      -0.503649       -13.7050
  49   2.0000      -0.496634       -13.5141
  50   2.0000      -0.488676       -13.2975
  51   2.0000      -0.472568       -12.8592
  52   2.0000      -0.465096       -12.6559
  53   2.0000      -0.463325       -12.6077
  54   2.0000      -0.456527       -12.4227
  55   2.0000      -0.453116       -12.3299
  56   2.0000      -0.444117       -12.0850
  57   2.0000      -0.429506       -11.6875
  58   2.0000      -0.427675       -11.6376
  59   2.0000      -0.424052       -11.5390
  60   2.0000      -0.421855       -11.4792
  61   2.0000      -0.418201       -11.3798
  62   2.0000      -0.416821       -11.3423
  63   2.0000      -0.334052        -9.0900
  64   2.0000      -0.328843        -8.9483
  65   2.0000      -0.324072        -8.8185
  66   2.0000      -0.310474        -8.4484
  67   0.0000       0.042323         1.1517
  68   0.0000       0.056167         1.5284
  69   0.0000       0.107065         2.9134
  70   0.0000       0.118486         3.2242
  71   0.0000       0.123591         3.3631

MULLIKEN ATOMIC CHARGES
-----------------------
   0 S :    0.113977
   1 C :   -0.117939
   2 C :   -0.096163
   3 C :    0.054377
   4 C :   -0.168625
   5 H :    0.012699
   6 C :    0.022660
   7 H :    0.037074
   8 H :    0.011993
   9 C :   -0.057098
  10 H :    0.013865
  11 H :    0.037915
  12 C :   -0.032287
  13 H :    0.028494
  14 H :    0.054530
  15 H :    0.015652
  16 S :    0.109113
  17 C :   -0.068663
  18 C :   -0.058844
  19 C :    0.030888
  20 C :   -0.193200
  21 H :    0.013458
  22 C :    0.057301
  23 H :    0.037300
  24 H :    0.033690
  25 C :   -0.050482
  26 H :    0.017396
  27 H :    0.032871
  28 C :   -0.098831
  29 H :    0.032051
  30 H :    0.028192
  31 H :    0.050611
  32 H :    0.047849
  33 H :    0.048176
Sum of atomic charges:    0.0000000

LOEWDIN ATOMIC CHARGES
----------------------
   0 S :    0.405060
   1 C :   -0.176914
   2 C :   -0.056770
   3 C :   -0.048129
   4 C :   -0.215589
   5 H :    0.028296
   6 C :   -0.037792
   7 H :    0.033830
   8 H :    0.026312
   9 C :   -0.040673
  10 H :    0.017476
  11 H :    0.026114
  12 C :   -0.059150
  13 H :    0.023610
  14 H :    0.032761
  15 H :    0.018613
  16 S :    0.393328
  17 C :   -0.190754
  18 C :   -0.075606
  19 C :   -0.051147
  20 C :   -0.187086
  21 H :    0.028146
  22 C :   -0.031465
  23 H :    0.033424
  24 H :    0.036673
  25 C :   -0.037508
  26 H :    0.016878
  27 H :    0.025877
  28 C :   -0.079507
  29 H :    0.023409
  30 H :    0.027270
  31 H :    0.034798
  32 H :    0.021289
  33 H :    0.034926

  Mayer bond orders larger than 0.100000
B(  0-S ,  1-C ) :   1.1407 B(  0-S ,  4-C ) :   1.1567 B(  1-C ,  2-C ) :   1.5846
B(  1-C ,  4-C ) :   0.1011 B(  1-C , 32-H ) :   0.9750 B(  2-C ,  3-C ) :   1.2316
B(  2-C ,  6-C ) :   1.0253 B(  3-C ,  4-C ) :   1.5809 B(  3-C ,  5-H ) :   0.9975
B(  4-C , 20-C ) :   1.0051 B(  6-C ,  7-H ) :   0.9459 B(  6-C ,  8-H ) :   0.9458
B(  6-C ,  9-C ) :   1.0726 B(  9-C , 10-H ) :   0.9507 B(  9-C , 11-H ) :   0.9564
B(  9-C , 12-C ) :   1.0770 B( 12-C , 13-H ) :   0.9697 B( 12-C , 14-H ) :   0.9718
B( 12-C , 15-H ) :   0.9717 B( 16-S , 17-C ) :   1.1250 B( 16-S , 20-C ) :   1.1354
B( 17-C , 18-C ) :   1.6871 B( 17-C , 33-H ) :   0.9615 B( 18-C , 19-C ) :   1.1823
B( 18-C , 21-H ) :   0.9814 B( 19-C , 20-C ) :   1.6317 B( 19-C , 22-C ) :   1.0652
B( 22-C , 23-H ) :   0.9352 B( 22-C , 24-H ) :   0.9249 B( 22-C , 25-C ) :   1.0600
B( 25-C , 26-H ) :   0.9541 B( 25-C , 27-H ) :   0.9539 B( 25-C , 28-C ) :   1.0790
B( 28-C , 29-H ) :   0.9761 B( 28-C , 30-H ) :   0.9716 B( 28-C , 31-H ) :   0.9747

Dispersion correction           -0.014380840
FINAL SINGLE POINT ENERGY     -1339.875919278288

DIPOLE MOMENT
-------------
                                X             Y             Z
Electronic contribution:      7.91573      16.33483      -2.29182
Nuclear contribution   :     -8.21051     -16.82890       2.57201
                        -----------------------------------------
Total Dipole Moment    :     -0.29478      -0.49407       0.28019
                        -----------------------------------------
Magnitude (a.u.)       :      0.63993
Magnitude (Debye)      :      1.62656

Rotational constants in cm-1:     0.020041     0.008027     0.006747
Rotational constants in MHz :   600.800203   240.647986   202.273063

                             ****ORCA TERMINATED NORMALLY****
TOTAL RUN TIME: 0 days 0 hours 0 minutes 21 seconds 324 msec
