                         Program Version 4.2.1 -  RELEASE  -
|  1> ! wB97X-D3 SP def2-SVP
|  2> %pal
|  3> nprocs 24
|  4> end
|  5>
|  6> * xyz 0 1
|  7> S 	 -76.1704 	 -2.67707 	 10.7376
|  8> C 	 -76.2536 	 -1.16737 	 9.8002
|  9> C 	 -76.0825 	 -0.0605188 	 10.5819
| 10> C 	 -75.8098 	 -0.393729 	 11.9425
| 11> C 	 -75.7654 	 -1.74147 	 12.2686
| 12> H 	 -75.5037 	 0.321957 	 12.609
| 13> C 	 -76.2556 	 1.40251 	 10.0599
| 14> H 	 -75.3858 	 1.68781 	 9.48218
| 15> H 	 -76.162 	 2.05859 	 10.9451
| 16> C 	 -77.5698 	 1.59956 	 9.35462
| 17> H 	 -77.6076 	 2.52522 	 8.78356
| 18> H 	 -77.7664 	 0.895167 	 8.58038
| 19> C 	 -78.8263 	 1.68244 	 10.312
| 20> H 	 -78.6424 	 2.51139 	 11.0329
| 21> H 	 -79.7671 	 1.93467 	 9.92805
| 22> H 	 -78.9864 	 0.69287 	 10.7386
| 23> S 	 -76.957 	 -3.33917 	 14.0657
| 24> C 	 -76.2221 	 -3.62221 	 15.545
| 25> C 	 -75.2731 	 -2.6704 	 15.8398
| 26> C 	 -74.9669 	 -1.83464 	 14.6802
| 27> C 	 -75.6462 	 -2.28542 	 13.5568
| 28> H 	 -74.6577 	 -2.82804 	 16.736
| 29> C 	 -73.7895 	 -0.911786 	 14.7409
| 30> H 	 -73.648 	 -0.899555 	 15.8411
| 31> H 	 -74.038 	 0.0952384 	 14.568
| 32> C 	 -72.5569 	 -1.49475 	 14.0628
| 33> H 	 -72.5744 	 -2.56797 	 14.0362
| 34> H 	 -71.7146 	 -1.2228 	 14.7329
| 35> C 	 -72.3483 	 -0.920708 	 12.6634
| 36> H 	 -71.3057 	 -1.19181 	 12.3753
| 37> H 	 -72.3279 	 0.128391 	 12.6422
| 38> H 	 -73.1305 	 -1.32946 	 12.0919
| 39> H 	 -76.4726 	 -1.11128 	 8.75228
| 40> H 	 -76.7027 	 -4.21544 	 16.3183
| 41> *
| 42>
| 43>                          ****END OF INPUT****

CARTESIAN COORDINATES (ANGSTROEM)
---------------------------------
  S    -76.170400   -2.677070   10.737600
  C    -76.253600   -1.167370    9.800200
  C    -76.082500   -0.060519   10.581900
  C    -75.809800   -0.393729   11.942500
  C    -75.765400   -1.741470   12.268600
  H    -75.503700    0.321957   12.609000
  C    -76.255600    1.402510   10.059900
  H    -75.385800    1.687810    9.482180
  H    -76.162000    2.058590   10.945100
  C    -77.569800    1.599560    9.354620
  H    -77.607600    2.525220    8.783560
  H    -77.766400    0.895167    8.580380
  C    -78.826300    1.682440   10.312000
  H    -78.642400    2.511390   11.032900
  H    -79.767100    1.934670    9.928050
  H    -78.986400    0.692870   10.738600
  S    -76.957000   -3.339170   14.065700
  C    -76.222100   -3.622210   15.545000
  C    -75.273100   -2.670400   15.839800
  C    -74.966900   -1.834640   14.680200
  C    -75.646200   -2.285420   13.556800
  H    -74.657700   -2.828040   16.736000
  C    -73.789500   -0.911786   14.740900
  H    -73.648000   -0.899555   15.841100
  H    -74.038000    0.095238   14.568000
  C    -72.556900   -1.494750   14.062800
  H    -72.574400   -2.567970   14.036200
  H    -71.714600   -1.222800   14.732900
  C    -72.348300   -0.920708   12.663400
  H    -71.305700   -1.191810   12.375300
  H    -72.327900    0.128391   12.642200
  H    -73.130500   -1.329460   12.091900
  H    -76.472600   -1.111280    8.752280
  H    -76.702700   -4.215440   16.318300

 Total Charge           Charge          ....    0
 Multiplicity           Mult            ....    1
 Number of Electrons    NEL             ....  134
 Basis Dimension        Dim             ....  322

ORBITAL ENERGIES
----------------

  NO   OCC          E(Eh)            E(eV)
   0   2.0000     -88.966681     -2420.9065
   1   2.0000     -88.960724     -2420.7444
   2   2.0000     -10.332569      -281.1635
   3   2.0000     -10.320959      -280.8476
   4   2.0000     -10.314670      -280.6764
   5   2.0000     -10.309254      -280.5291
   6   2.0000     -10.304762      -280.4068
   7   2.0000     -10.300380      -280.2876
   8   2.0000     -10.298877      -280.2467
   9   2.0000     -10.293500      -280.1004
  10   2.0000     -10.289575      -279.9936
  11   2.0000     -10.287081      -279.9257
  12   2.0000     -10.285348      -279.8785
  13   2.0000     -10.281792      -279.7818
  14   2.0000     -10.275398      -279.6078
  15   2.0000     -10.265295      -279.3329
  16   2.0000      -8.079491      -219.8541
  17   2.0000      -8.077286      -219.7941
  18   2.0000      -6.038262      -164.3095
  19   2.0000      -6.035597      -164.2369
  20   2.0000      -6.034302      -164.2017
  21   2.0000      -6.031660      -164.1298
  22   2.0000      -6.030047      -164.0859
  23   2.0000      -6.027992      -164.0300
  24   2.0000      -1.010258       -27.4905
  25   2.0000      -0.980027       -26.6679
  26   2.0000      -0.916003       -24.9257
  27   2.0000      -0.909013       -24.7355
  28   2.0000      -0.873479       -23.7686
  29   2.0000      -0.851314       -23.1654
  30   2.0000      -0.840937       -22.8831
  31   2.0000      -0.811319       -22.0771
  32   2.0000      -0.785383       -21.3714
  33   2.0000      -0.774686       -21.0803
  34   2.0000      -0.712739       -19.3946
  35   2.0000      -0.707300       -19.2466
  36   2.0000      -0.694559       -18.8999
  37   2.0000      -0.663863       -18.0646
  38   2.0000      -0.637819       -17.3559
  39   2.0000      -0.618069       -16.8185
  40   2.0000      -0.599176       -16.3044
  41   2.0000      -0.572262       -15.5720
  42   2.0000      -0.559955       -15.2372
  43   2.0000      -0.555625       -15.1193
  44   2.0000      -0.541641       -14.7388
  45   2.0000      -0.526458       -14.3257
  46   2.0000      -0.518476       -14.1084
  47   2.0000      -0.507840       -13.8190
  48   2.0000      -0.503257       -13.6943
  49   2.0000      -0.498749       -13.5717
  50   2.0000      -0.491515       -13.3748
  51   2.0000      -0.485771       -13.2185
  52   2.0000      -0.473780       -12.8922
  53   2.0000      -0.466632       -12.6977
  54   2.0000      -0.454592       -12.3701
  55   2.0000      -0.450170       -12.2497
  56   2.0000      -0.444653       -12.0996
  57   2.0000      -0.435284       -11.8447
  58   2.0000      -0.433262       -11.7897
  59   2.0000      -0.420816       -11.4510
  60   2.0000      -0.418357       -11.3841
  61   2.0000      -0.410424       -11.1682
  62   2.0000      -0.402482       -10.9521
  63   2.0000      -0.354752        -9.6533
  64   2.0000      -0.331601        -9.0233
  65   2.0000      -0.325683        -8.8623
  66   2.0000      -0.285951        -7.7811
  67   0.0000       0.018725         0.5095
  68   0.0000       0.070238         1.9113
  69   0.0000       0.100521         2.7353
  70   0.0000       0.118491         3.2243
  71   0.0000       0.136811         3.7228

MULLIKEN ATOMIC CHARGES
-----------------------
   0 S :    0.094195
   1 C :   -0.124826
   2 C :   -0.097480
   3 C :    0.069454
   4 C :   -0.166908
   5 H :   -0.032404
   6 C :    0.102722
   7 H :    0.041274
   8 H :    0.016301
   9 C :   -0.070150
  10 H :    0.020395
  11 H :    0.019175
  12 C :   -0.051754
  13 H :    0.030389
  14 H :    0.017464
  15 H :    0.044380
  16 S :    0.106863
  17 C :   -0.077935
  18 C :   -0.062832
  19 C :   -0.071141
  20 C :   -0.134622
  21 H :    0.037949
  22 C :    0.070219
  23 H :    0.012292
  24 H :    0.017193
  25 C :   -0.055580
  26 H :    0.033694
  27 H :    0.023161
  28 C :   -0.006563
  29 H :    0.029322
  30 H :    0.010971
  31 H :    0.049110
  32 H :    0.044378
  33 H :    0.061293
Sum of atomic charges:   -0.0000000

LOEWDIN ATOMIC CHARGES
----------------------
   0 S :    0.355150
   1 C :   -0.178230
   2 C :   -0.063850
   3 C :   -0.044557
   4 C :   -0.174318
   5 H :    0.013605
   6 C :   -0.025399
   7 H :    0.034420
   8 H :    0.031142
   9 C :   -0.041317
  10 H :    0.023970
  11 H :    0.017464
  12 C :   -0.062800
  13 H :    0.028801
  14 H :    0.016734
  15 H :    0.028504
  16 S :    0.433643
  17 C :   -0.205680
  18 C :   -0.084272
  19 C :   -0.046754
  20 C :   -0.202814
  21 H :    0.035932
  22 C :   -0.036699
  23 H :    0.036175
  24 H :    0.021273
  25 C :   -0.030735
  26 H :    0.025620
  27 H :    0.024208
  28 C :   -0.053991
  29 H :    0.031080
  30 H :    0.014517
  31 H :    0.023161
  32 H :    0.025408
  33 H :    0.030611

  Mayer bond orders larger than 0.100000
B(  0-S ,  1-C ) :   1.1268 B(  0-S ,  4-C ) :   1.1051 B(  1-C ,  2-C ) :   1.6307
B(  1-C , 32-H ) :   0.9666 B(  2-C ,  3-C ) :   1.2563 B(  2-C ,  6-C ) :   0.9958
B(  3-C ,  4-C ) :   1.5688 B(  3-C ,  5-H ) :   0.9981 B(  4-C , 20-C ) :   1.1116
B(  6-C ,  7-H ) :   0.9376 B(  6-C ,  8-H ) :   0.9454 B(  6-C ,  9-C ) :   1.0709
B(  9-C , 10-H ) :   0.9534 B(  9-C , 11-H ) :   0.9597 B(  9-C , 12-C ) :   1.0661
B( 12-C , 13-H ) :   0.9762 B( 12-C , 14-H ) :   0.9774 B( 12-C , 15-H ) :   0.9790
B( 16-S , 17-C ) :   1.1776 B( 16-S , 20-C ) :   1.1420 B( 17-C , 18-C ) :   1.6181
B( 17-C , 33-H ) :   0.9601 B( 18-C , 19-C ) :   1.2411 B( 18-C , 21-H ) :   0.9775
B( 19-C , 20-C ) :   1.5647 B( 19-C , 22-C ) :   1.0578 B( 22-C , 23-H ) :   0.9307
B( 22-C , 24-H ) :   0.9275 B( 22-C , 25-C ) :   1.0491 B( 25-C , 26-H ) :   0.9590
B( 25-C , 27-H ) :   0.9557 B( 25-C , 28-C ) :   1.0801 B( 28-C , 29-H ) :   0.9691
B( 28-C , 30-H ) :   0.9767 B( 28-C , 31-H ) :   0.9739

Dispersion correction           -0.015563130
FINAL SINGLE POINT ENERGY     -1339.849753543331

DIPOLE MOMENT
-------------
                                X             Y             Z
Electronic contribution:     -7.01764     -20.31480       4.21841
Nuclear contribution   :      7.20947      20.97163      -4.08368
                        -----------------------------------------
Total Dipole Moment    :      0.19183       0.65683       0.13473
                        -----------------------------------------
Magnitude (a.u.)       :      0.69741
Magnitude (Debye)      :      1.77266

Rotational constants in cm-1:     0.020302     0.008897     0.007701
Rotational constants in MHz :   608.635895   266.736629   230.860706

                             ****ORCA TERMINATED NORMALLY****
TOTAL RUN TIME: 0 days 0 hours 0 minutes 23 seconds 754 msec
