                         Program Version 4.2.1 -  RELEASE  -
|  1> ! wB97X-D3 SP def2-SVP
|  2> %pal
|  3> nprocs 24
|  4> end
|  5>
|  6> * xyz 0 1
|  7> S 	 -85.6997 	 -30.3434 	 -59.6227
|  8> C 	 -86.1743 	 -28.8541 	 -60.3539
|  9> C 	 -86.9741 	 -28.0491 	 -59.5455
| 10> C 	 -87.1484 	 -28.6847 	 -58.26
| 11> C 	 -86.5544 	 -29.9239 	 -58.1943
| 12> H 	 -87.7647 	 -28.3918 	 -57.4139
| 13> C 	 -87.7391 	 -26.7865 	 -59.9038
| 14> H 	 -88.4117 	 -27.0742 	 -60.7209
| 15> H 	 -87.1148 	 -26.1243 	 -60.5779
| 16> C 	 -88.2742 	 -25.8484 	 -58.8114
| 17> H 	 -88.7982 	 -25.0009 	 -59.182
| 18> H 	 -88.991 	 -26.3928 	 -58.2158
| 19> C 	 -87.1316 	 -25.3324 	 -57.9167
| 20> H 	 -86.7858 	 -26.1176 	 -57.298
| 21> H 	 -86.2217 	 -24.9877 	 -58.496
| 22> H 	 -87.5005 	 -24.44 	 -57.3509
| 23> S 	 -87.2296 	 -32.4996 	 -57.3947
| 24> C 	 -87.2428 	 -32.8369 	 -55.6539
| 25> C 	 -86.7988 	 -31.7553 	 -54.94
| 26> C 	 -86.5205 	 -30.6123 	 -55.6908
| 27> C 	 -86.6688 	 -30.7985 	 -57.0519
| 28> H 	 -86.7897 	 -31.7609 	 -53.8519
| 29> C 	 -86.088 	 -29.2878 	 -55.0829
| 30> H 	 -86.0128 	 -28.5233 	 -55.9153
| 31> H 	 -85.0246 	 -29.4447 	 -54.9776
| 32> C 	 -86.7381 	 -28.7123 	 -53.8437
| 33> H 	 -86.3947 	 -27.6784 	 -53.668
| 34> H 	 -86.6509 	 -29.3362 	 -52.934
| 35> C 	 -88.2189 	 -28.5779 	 -54.0208
| 36> H 	 -88.6949 	 -28.1293 	 -53.1217
| 37> H 	 -88.7049 	 -29.5103 	 -54.3759
| 38> H 	 -88.3345 	 -27.863 	 -54.7811
| 39> H 	 -85.8928 	 -28.627 	 -61.2919
| 40> H 	 -87.5934 	 -33.7033 	 -55.1226
| 41> *
| 42>
| 43>                          ****END OF INPUT****

CARTESIAN COORDINATES (ANGSTROEM)
---------------------------------
  S    -85.699700  -30.343400  -59.622700
  C    -86.174300  -28.854100  -60.353900
  C    -86.974100  -28.049100  -59.545500
  C    -87.148400  -28.684700  -58.260000
  C    -86.554400  -29.923900  -58.194300
  H    -87.764700  -28.391800  -57.413900
  C    -87.739100  -26.786500  -59.903800
  H    -88.411700  -27.074200  -60.720900
  H    -87.114800  -26.124300  -60.577900
  C    -88.274200  -25.848400  -58.811400
  H    -88.798200  -25.000900  -59.182000
  H    -88.991000  -26.392800  -58.215800
  C    -87.131600  -25.332400  -57.916700
  H    -86.785800  -26.117600  -57.298000
  H    -86.221700  -24.987700  -58.496000
  H    -87.500500  -24.440000  -57.350900
  S    -87.229600  -32.499600  -57.394700
  C    -87.242800  -32.836900  -55.653900
  C    -86.798800  -31.755300  -54.940000
  C    -86.520500  -30.612300  -55.690800
  C    -86.668800  -30.798500  -57.051900
  H    -86.789700  -31.760900  -53.851900
  C    -86.088000  -29.287800  -55.082900
  H    -86.012800  -28.523300  -55.915300
  H    -85.024600  -29.444700  -54.977600
  C    -86.738100  -28.712300  -53.843700
  H    -86.394700  -27.678400  -53.668000
  H    -86.650900  -29.336200  -52.934000
  C    -88.218900  -28.577900  -54.020800
  H    -88.694900  -28.129300  -53.121700
  H    -88.704900  -29.510300  -54.375900
  H    -88.334500  -27.863000  -54.781100
  H    -85.892800  -28.627000  -61.291900
  H    -87.593400  -33.703300  -55.122600

 Total Charge           Charge          ....    0
 Multiplicity           Mult            ....    1
 Number of Electrons    NEL             ....  134
 Basis Dimension        Dim             ....  322

ORBITAL ENERGIES
----------------

  NO   OCC          E(Eh)            E(eV)
   0   2.0000     -88.969359     -2420.9793
   1   2.0000     -88.965310     -2420.8692
   2   2.0000     -10.327286      -281.0198
   3   2.0000     -10.323329      -280.9121
   4   2.0000     -10.317341      -280.7491
   5   2.0000     -10.308512      -280.5089
   6   2.0000     -10.304908      -280.4108
   7   2.0000     -10.301957      -280.3305
   8   2.0000     -10.299099      -280.2527
   9   2.0000     -10.292457      -280.0720
  10   2.0000     -10.292412      -280.0708
  11   2.0000     -10.289861      -280.0013
  12   2.0000     -10.289232      -279.9842
  13   2.0000     -10.289213      -279.9837
  14   2.0000     -10.282318      -279.7961
  15   2.0000     -10.272246      -279.5220
  16   2.0000      -8.084943      -220.0025
  17   2.0000      -8.078557      -219.8287
  18   2.0000      -6.043333      -164.4474
  19   2.0000      -6.039323      -164.3383
  20   2.0000      -6.037222      -164.2812
  21   2.0000      -6.035813      -164.2428
  22   2.0000      -6.033350      -164.1758
  23   2.0000      -6.029167      -164.0620
  24   2.0000      -1.009008       -27.4565
  25   2.0000      -0.983301       -26.7570
  26   2.0000      -0.915383       -24.9088
  27   2.0000      -0.912671       -24.8350
  28   2.0000      -0.873245       -23.7622
  29   2.0000      -0.854735       -23.2585
  30   2.0000      -0.846876       -23.0447
  31   2.0000      -0.815233       -22.1836
  32   2.0000      -0.785134       -21.3646
  33   2.0000      -0.774075       -21.0637
  34   2.0000      -0.711429       -19.3590
  35   2.0000      -0.702799       -19.1241
  36   2.0000      -0.694665       -18.9028
  37   2.0000      -0.657372       -17.8880
  38   2.0000      -0.649479       -17.6732
  39   2.0000      -0.623611       -16.9693
  40   2.0000      -0.596982       -16.2447
  41   2.0000      -0.564356       -15.3569
  42   2.0000      -0.559816       -15.2334
  43   2.0000      -0.553863       -15.0714
  44   2.0000      -0.551133       -14.9971
  45   2.0000      -0.542835       -14.7713
  46   2.0000      -0.520229       -14.1561
  47   2.0000      -0.505300       -13.7499
  48   2.0000      -0.501362       -13.6428
  49   2.0000      -0.495125       -13.4730
  50   2.0000      -0.493595       -13.4314
  51   2.0000      -0.477888       -13.0040
  52   2.0000      -0.472980       -12.8704
  53   2.0000      -0.460266       -12.5245
  54   2.0000      -0.457345       -12.4450
  55   2.0000      -0.452749       -12.3199
  56   2.0000      -0.445461       -12.1216
  57   2.0000      -0.440466       -11.9857
  58   2.0000      -0.436110       -11.8671
  59   2.0000      -0.430017       -11.7014
  60   2.0000      -0.422824       -11.5056
  61   2.0000      -0.414882       -11.2895
  62   2.0000      -0.411712       -11.2033
  63   2.0000      -0.348368        -9.4796
  64   2.0000      -0.332427        -9.0458
  65   2.0000      -0.328998        -8.9525
  66   2.0000      -0.286861        -7.8059
  67   0.0000       0.030402         0.8273
  68   0.0000       0.066988         1.8228
  69   0.0000       0.110478         3.0063
  70   0.0000       0.116263         3.1637
  71   0.0000       0.125991         3.4284

MULLIKEN ATOMIC CHARGES
-----------------------
   0 S :    0.134170
   1 C :   -0.083414
   2 C :   -0.045275
   3 C :   -0.007711
   4 C :   -0.156667
   5 H :    0.017074
   6 C :    0.026479
   7 H :    0.039517
   8 H :    0.018489
   9 C :   -0.022990
  10 H :    0.025677
  11 H :    0.028622
  12 C :   -0.075854
  13 H :    0.026521
  14 H :    0.038615
  15 H :    0.044133
  16 S :    0.090289
  17 C :   -0.075137
  18 C :   -0.042559
  19 C :   -0.033659
  20 C :   -0.170756
  21 H :    0.015041
  22 C :    0.050437
  23 H :    0.023719
  24 H :    0.035474
  25 C :   -0.044926
  26 H :    0.035791
  27 H :    0.033636
  28 C :   -0.060919
  29 H :    0.038429
  30 H :    0.049708
  31 H :    0.004835
  32 H :   -0.007529
  33 H :    0.050738
Sum of atomic charges:    0.0000000

LOEWDIN ATOMIC CHARGES
----------------------
   0 S :    0.436438
   1 C :   -0.189988
   2 C :   -0.050735
   3 C :   -0.067783
   4 C :   -0.209523
   5 H :    0.031550
   6 C :   -0.046333
   7 H :    0.038894
   8 H :    0.035602
   9 C :   -0.036850
  10 H :    0.025371
  11 H :    0.021654
  12 C :   -0.065772
  13 H :    0.015343
  14 H :    0.032586
  15 H :    0.031816
  16 S :    0.363311
  17 C :   -0.173230
  18 C :   -0.075738
  19 C :   -0.058050
  20 C :   -0.173740
  21 H :    0.031922
  22 C :   -0.043483
  23 H :    0.038687
  24 H :    0.038497
  25 C :   -0.043878
  26 H :    0.034278
  27 H :    0.023923
  28 C :   -0.067346
  29 H :    0.030118
  30 H :    0.029555
  31 H :    0.011927
  32 H :   -0.000215
  33 H :    0.031193

  Mayer bond orders larger than 0.100000
B(  0-S ,  1-C ) :   1.1431 B(  0-S ,  4-C ) :   1.1667 B(  1-C ,  2-C ) :   1.5970
B(  1-C , 32-H ) :   0.9868 B(  2-C ,  3-C ) :   1.2326 B(  2-C ,  6-C ) :   1.0092
B(  3-C ,  4-C ) :   1.5698 B(  3-C ,  5-H ) :   0.9876 B(  4-C , 20-C ) :   1.0394
B(  6-C ,  7-H ) :   0.9347 B(  6-C ,  8-H ) :   0.9342 B(  6-C ,  9-C ) :   1.0722
B(  9-C , 10-H ) :   0.9549 B(  9-C , 11-H ) :   0.9488 B(  9-C , 12-C ) :   1.0721
B( 12-C , 13-H ) :   0.9768 B( 12-C , 14-H ) :   0.9742 B( 12-C , 15-H ) :   0.9752
B( 16-S , 17-C ) :   1.1399 B( 16-S , 20-C ) :   1.1154 B( 17-C , 18-C ) :   1.6242
B( 17-C , 20-C ) :   0.1056 B( 17-C , 33-H ) :   0.9655 B( 18-C , 19-C ) :   1.2438
B( 18-C , 21-H ) :   0.9846 B( 19-C , 20-C ) :   1.6124 B( 19-C , 22-C ) :   1.0248
B( 22-C , 23-H ) :   0.9326 B( 22-C , 24-H ) :   0.9189 B( 22-C , 25-C ) :   1.0739
B( 25-C , 26-H ) :   0.9509 B( 25-C , 27-H ) :   0.9528 B( 25-C , 28-C ) :   1.0807
B( 28-C , 29-H ) :   0.9715 B( 28-C , 30-H ) :   0.9713 B( 28-C , 31-H ) :   0.9720

Dispersion correction           -0.015581863
FINAL SINGLE POINT ENERGY     -1339.872043021505

DIPOLE MOMENT
-------------
                                X             Y             Z
Electronic contribution:      6.84906     -26.42454     -13.16202
Nuclear contribution   :     -7.06381      27.06961      13.44932
                        -----------------------------------------
Total Dipole Moment    :     -0.21475       0.64507       0.28730
                        -----------------------------------------
Magnitude (a.u.)       :      0.73808
Magnitude (Debye)      :      1.87606

Rotational constants in cm-1:     0.017238     0.010810     0.007329
Rotational constants in MHz :   516.774081   324.082104   219.714349

                             ****ORCA TERMINATED NORMALLY****
TOTAL RUN TIME: 0 days 0 hours 0 minutes 21 seconds 812 msec
