                         Program Version 4.2.1 -  RELEASE  -
|  1> ! wB97X-D3 SP def2-SVP
|  2> %pal
|  3> nprocs 24
|  4> end
|  5>
|  6> * xyz 0 1
|  7> S 	 18.3162 	 -14.5786 	 -119.023
|  8> C 	 17.2522 	 -13.9285 	 -120.224
|  9> C 	 16.2391 	 -13.31 	 -119.579
| 10> C 	 16.3811 	 -13.2243 	 -118.164
| 11> C 	 17.4336 	 -13.9376 	 -117.651
| 12> H 	 15.7653 	 -12.7112 	 -117.463
| 13> C 	 15.0094 	 -12.6804 	 -120.264
| 14> H 	 15.471 	 -12.2966 	 -121.156
| 15> H 	 14.4947 	 -11.8931 	 -119.705
| 16> C 	 14.0172 	 -13.7657 	 -120.585
| 17> H 	 14.4615 	 -14.6675 	 -120.86
| 18> H 	 13.4453 	 -13.9685 	 -119.706
| 19> C 	 13.0432 	 -13.2952 	 -121.694
| 20> H 	 12.353 	 -14.0994 	 -121.785
| 21> H 	 12.6606 	 -12.3644 	 -121.266
| 22> H 	 13.6568 	 -13.0934 	 -122.573
| 23> S 	 19.5209 	 -13.1756 	 -116.019
| 24> C 	 19.5681 	 -13.5985 	 -114.341
| 25> C 	 18.4118 	 -14.2394 	 -114.028
| 26> C 	 17.4629 	 -14.3742 	 -115.03
| 27> C 	 17.9502 	 -13.8707 	 -116.273
| 28> H 	 18.2911 	 -14.6347 	 -113.039
| 29> C 	 16.0706 	 -14.84 	 -114.83
| 30> H 	 15.3417 	 -14.0318 	 -115.091
| 31> H 	 15.8702 	 -14.9878 	 -113.858
| 32> C 	 15.7863 	 -16.2106 	 -115.566
| 33> H 	 16.2179 	 -16.9711 	 -114.996
| 34> H 	 16.3327 	 -16.1165 	 -116.545
| 35> C 	 14.3122 	 -16.4954 	 -115.717
| 36> H 	 13.7926 	 -16.1969 	 -114.843
| 37> H 	 13.9956 	 -17.5123 	 -115.81
| 38> H 	 13.9203 	 -15.9677 	 -116.542
| 39> H 	 17.1533 	 -14.3818 	 -121.231
| 40> H 	 20.5074 	 -13.4221 	 -113.717
| 41> *
| 42>
| 43>                          ****END OF INPUT****

CARTESIAN COORDINATES (ANGSTROEM)
---------------------------------
  S     18.316200  -14.578600  -119.023000
  C     17.252200  -13.928500  -120.224000
  C     16.239100  -13.310000  -119.579000
  C     16.381100  -13.224300  -118.164000
  C     17.433600  -13.937600  -117.651000
  H     15.765300  -12.711200  -117.463000
  C     15.009400  -12.680400  -120.264000
  H     15.471000  -12.296600  -121.156000
  H     14.494700  -11.893100  -119.705000
  C     14.017200  -13.765700  -120.585000
  H     14.461500  -14.667500  -120.860000
  H     13.445300  -13.968500  -119.706000
  C     13.043200  -13.295200  -121.694000
  H     12.353000  -14.099400  -121.785000
  H     12.660600  -12.364400  -121.266000
  H     13.656800  -13.093400  -122.573000
  S     19.520900  -13.175600  -116.019000
  C     19.568100  -13.598500  -114.341000
  C     18.411800  -14.239400  -114.028000
  C     17.462900  -14.374200  -115.030000
  C     17.950200  -13.870700  -116.273000
  H     18.291100  -14.634700  -113.039000
  C     16.070600  -14.840000  -114.830000
  H     15.341700  -14.031800  -115.091000
  H     15.870200  -14.987800  -113.858000
  C     15.786300  -16.210600  -115.566000
  H     16.217900  -16.971100  -114.996000
  H     16.332700  -16.116500  -116.545000
  C     14.312200  -16.495400  -115.717000
  H     13.792600  -16.196900  -114.843000
  H     13.995600  -17.512300  -115.810000
  H     13.920300  -15.967700  -116.542000
  H     17.153300  -14.381800  -121.231000
  H     20.507400  -13.422100  -113.717000

 Total Charge           Charge          ....    0
 Multiplicity           Mult            ....    1
 Number of Electrons    NEL             ....  134
 Basis Dimension        Dim             ....  322

ORBITAL ENERGIES
----------------

  NO   OCC          E(Eh)            E(eV)
   0   2.0000     -88.963965     -2420.8326
   1   2.0000     -88.962323     -2420.7879
   2   2.0000     -10.330850      -281.1167
   3   2.0000     -10.328350      -281.0487
   4   2.0000     -10.318366      -280.7770
   5   2.0000     -10.312820      -280.6261
   6   2.0000     -10.300663      -280.2953
   7   2.0000     -10.299796      -280.2717
   8   2.0000     -10.289490      -279.9913
   9   2.0000     -10.288184      -279.9557
  10   2.0000     -10.286894      -279.9206
  11   2.0000     -10.283343      -279.8240
  12   2.0000     -10.280517      -279.7471
  13   2.0000     -10.276391      -279.6348
  14   2.0000     -10.274043      -279.5709
  15   2.0000     -10.264156      -279.3019
  16   2.0000      -8.079229      -219.8470
  17   2.0000      -8.077428      -219.7980
  18   2.0000      -6.037509      -164.2890
  19   2.0000      -6.036051      -164.2493
  20   2.0000      -6.033447      -164.1784
  21   2.0000      -6.031661      -164.1298
  22   2.0000      -6.030395      -164.0954
  23   2.0000      -6.028222      -164.0363
  24   2.0000      -1.011908       -27.5354
  25   2.0000      -0.992984       -27.0205
  26   2.0000      -0.918829       -25.0026
  27   2.0000      -0.910219       -24.7683
  28   2.0000      -0.874152       -23.7869
  29   2.0000      -0.854631       -23.2557
  30   2.0000      -0.846058       -23.0224
  31   2.0000      -0.819219       -22.2921
  32   2.0000      -0.782596       -21.2955
  33   2.0000      -0.770883       -20.9768
  34   2.0000      -0.709822       -19.3153
  35   2.0000      -0.699823       -19.0431
  36   2.0000      -0.693845       -18.8805
  37   2.0000      -0.661629       -18.0038
  38   2.0000      -0.645214       -17.5572
  39   2.0000      -0.619121       -16.8471
  40   2.0000      -0.599822       -16.3220
  41   2.0000      -0.586487       -15.9591
  42   2.0000      -0.568347       -15.4655
  43   2.0000      -0.558506       -15.1977
  44   2.0000      -0.535212       -14.5639
  45   2.0000      -0.521806       -14.1991
  46   2.0000      -0.520465       -14.1626
  47   2.0000      -0.513913       -13.9843
  48   2.0000      -0.512858       -13.9556
  49   2.0000      -0.501703       -13.6520
  50   2.0000      -0.492131       -13.3916
  51   2.0000      -0.488103       -13.2820
  52   2.0000      -0.477343       -12.9892
  53   2.0000      -0.465680       -12.6718
  54   2.0000      -0.461912       -12.5693
  55   2.0000      -0.449711       -12.2373
  56   2.0000      -0.443608       -12.0712
  57   2.0000      -0.434641       -11.8272
  58   2.0000      -0.430230       -11.7072
  59   2.0000      -0.427300       -11.6274
  60   2.0000      -0.420740       -11.4489
  61   2.0000      -0.414626       -11.2825
  62   2.0000      -0.403026       -10.9669
  63   2.0000      -0.347556        -9.4575
  64   2.0000      -0.330753        -9.0003
  65   2.0000      -0.325903        -8.8683
  66   2.0000      -0.297906        -8.1064
  67   0.0000       0.030240         0.8229
  68   0.0000       0.061320         1.6686
  69   0.0000       0.124270         3.3816
  70   0.0000       0.129151         3.5144
  71   0.0000       0.133601         3.6355

MULLIKEN ATOMIC CHARGES
-----------------------
   0 S :    0.097636
   1 C :   -0.123367
   2 C :   -0.107610
   3 C :    0.042803
   4 C :   -0.151513
   5 H :   -0.000703
   6 C :    0.071928
   7 H :    0.019677
   8 H :    0.029958
   9 C :   -0.073053
  10 H :    0.010490
  11 H :    0.016246
  12 C :   -0.017473
  13 H :    0.036838
  14 H :    0.028011
  15 H :    0.033980
  16 S :    0.116554
  17 C :   -0.129349
  18 C :   -0.025487
  19 C :   -0.025597
  20 C :   -0.180889
  21 H :    0.006776
  22 C :    0.103352
  23 H :    0.037577
  24 H :   -0.027503
  25 C :   -0.079531
  26 H :    0.015955
  27 H :    0.053779
  28 C :    0.002817
  29 H :    0.008393
  30 H :    0.020989
  31 H :    0.022334
  32 H :    0.076496
  33 H :    0.089487
Sum of atomic charges:   -0.0000000

LOEWDIN ATOMIC CHARGES
----------------------
   0 S :    0.410470
   1 C :   -0.215678
   2 C :   -0.059859
   3 C :   -0.062751
   4 C :   -0.196409
   5 H :    0.026023
   6 C :   -0.026053
   7 H :    0.026473
   8 H :    0.031152
   9 C :   -0.034757
  10 H :    0.010220
  11 H :    0.019515
  12 C :   -0.052537
  13 H :    0.022552
  14 H :    0.025807
  15 H :    0.024101
  16 S :    0.432676
  17 C :   -0.206782
  18 C :   -0.078293
  19 C :   -0.056391
  20 C :   -0.205588
  21 H :    0.029406
  22 C :   -0.025306
  23 H :    0.037210
  24 H :    0.009684
  25 C :   -0.027733
  26 H :    0.015787
  27 H :    0.031056
  28 C :   -0.061004
  29 H :    0.019847
  30 H :    0.024015
  31 H :    0.021654
  32 H :    0.042748
  33 H :    0.048745

  Mayer bond orders larger than 0.100000
B(  0-S ,  1-C ) :   1.1374 B(  0-S ,  4-C ) :   1.1570 B(  1-C ,  2-C ) :   1.6202
B(  1-C , 32-H ) :   0.9542 B(  2-C ,  3-C ) :   1.2510 B(  2-C ,  6-C ) :   1.0048
B(  3-C ,  4-C ) :   1.5624 B(  3-C ,  5-H ) :   1.0006 B(  4-C , 20-C ) :   1.0216
B(  6-C ,  7-H ) :   0.9454 B(  6-C ,  8-H ) :   0.9452 B(  6-C ,  9-C ) :   1.0683
B(  9-C , 10-H ) :   0.9609 B(  9-C , 11-H ) :   0.9504 B(  9-C , 12-C ) :   1.0717
B( 12-C , 13-H ) :   0.9752 B( 12-C , 14-H ) :   0.9745 B( 12-C , 15-H ) :   0.9812
B( 16-S , 17-C ) :   1.1764 B( 16-S , 20-C ) :   1.1870 B( 17-C , 18-C ) :   1.5472
B( 17-C , 20-C ) :   0.1118 B( 17-C , 33-H ) :   0.9600 B( 18-C , 19-C ) :   1.3152
B( 18-C , 21-H ) :   0.9927 B( 19-C , 20-C ) :   1.5095 B( 19-C , 22-C ) :   1.0467
B( 22-C , 23-H ) :   0.9430 B( 22-C , 24-H ) :   0.9105 B( 22-C , 25-C ) :   1.0390
B( 25-C , 26-H ) :   0.9535 B( 25-C , 27-H ) :   0.9676 B( 25-C , 28-C ) :   1.0789
B( 28-C , 29-H ) :   0.9674 B( 28-C , 30-H ) :   0.9724 B( 28-C , 31-H ) :   0.9759

Dispersion correction           -0.014353414
FINAL SINGLE POINT ENERGY     -1339.859291539898

DIPOLE MOMENT
-------------
                                X             Y             Z
Electronic contribution:     28.51131       5.37955       5.46728
Nuclear contribution   :    -29.15158      -5.47636      -5.27315
                        -----------------------------------------
Total Dipole Moment    :     -0.64027      -0.09681       0.19413
                        -----------------------------------------
Magnitude (a.u.)       :      0.67602
Magnitude (Debye)      :      1.71831

Rotational constants in cm-1:     0.020463     0.008498     0.006730
Rotational constants in MHz :   613.473228   254.776511   201.766188

                             ****ORCA TERMINATED NORMALLY****
TOTAL RUN TIME: 0 days 0 hours 0 minutes 22 seconds 22 msec
