                         Program Version 4.2.1 -  RELEASE  -
|  1> ! wB97X-D3 SP def2-SVP
|  2> %pal
|  3> nprocs 24
|  4> end
|  5>
|  6> * xyz 0 1
|  7> S 	 -77.0846 	 -4.93314 	 6.6389
|  8> C 	 -75.3966 	 -4.58478 	 6.55344
|  9> C 	 -74.7592 	 -5.28569 	 5.57338
| 10> C 	 -75.6533 	 -6.08004 	 4.78685
| 11> C 	 -76.9641 	 -5.94854 	 5.2233
| 12> H 	 -75.5147 	 -6.79524 	 3.98587
| 13> C 	 -73.2038 	 -5.27483 	 5.32077
| 14> H 	 -72.7592 	 -4.27658 	 5.19229
| 15> H 	 -72.9745 	 -5.84138 	 4.3657
| 16> C 	 -72.4 	 -5.97001 	 6.39668
| 17> H 	 -71.38 	 -6.05898 	 6.09233
| 18> H 	 -72.4982 	 -5.37279 	 7.28774
| 19> C 	 -72.9044 	 -7.38931 	 6.80387
| 20> H 	 -74.0082 	 -7.60642 	 6.72074
| 21> H 	 -72.4333 	 -8.10659 	 6.08617
| 22> H 	 -72.5179 	 -7.62289 	 7.83224
| 23> S 	 -79.4008 	 -5.40087 	 4.27817
| 24> C 	 -80.4213 	 -6.76243 	 3.85781
| 25> C 	 -79.8303 	 -7.97357 	 4.02173
| 26> C 	 -78.4833 	 -7.91136 	 4.40846
| 27> C 	 -78.1533 	 -6.54443 	 4.7134
| 28> H 	 -80.3622 	 -8.85101 	 3.83187
| 29> C 	 -77.6093 	 -9.05766 	 4.62313
| 30> H 	 -77.8164 	 -9.22183 	 5.62249
| 31> H 	 -76.5915 	 -8.76011 	 4.51462
| 32> C 	 -77.8385 	 -10.3854 	 3.77509
| 33> H 	 -77.4619 	 -10.2448 	 2.74409
| 34> H 	 -78.8676 	 -10.726 	 3.79558
| 35> C 	 -76.9634 	 -11.5223 	 4.37618
| 36> H 	 -77.0945 	 -11.4929 	 5.4824
| 37> H 	 -75.9001 	 -11.4284 	 4.08922
| 38> H 	 -77.3302 	 -12.5248 	 4.1402
| 39> H 	 -74.9145 	 -3.97174 	 7.28074
| 40> H 	 -81.4671 	 -6.63088 	 3.5544
| 41> *
| 42>
| 43>                          ****END OF INPUT****

CARTESIAN COORDINATES (ANGSTROEM)
---------------------------------
  S    -77.084600   -4.933140    6.638900
  C    -75.396600   -4.584780    6.553440
  C    -74.759200   -5.285690    5.573380
  C    -75.653300   -6.080040    4.786850
  C    -76.964100   -5.948540    5.223300
  H    -75.514700   -6.795240    3.985870
  C    -73.203800   -5.274830    5.320770
  H    -72.759200   -4.276580    5.192290
  H    -72.974500   -5.841380    4.365700
  C    -72.400000   -5.970010    6.396680
  H    -71.380000   -6.058980    6.092330
  H    -72.498200   -5.372790    7.287740
  C    -72.904400   -7.389310    6.803870
  H    -74.008200   -7.606420    6.720740
  H    -72.433300   -8.106590    6.086170
  H    -72.517900   -7.622890    7.832240
  S    -79.400800   -5.400870    4.278170
  C    -80.421300   -6.762430    3.857810
  C    -79.830300   -7.973570    4.021730
  C    -78.483300   -7.911360    4.408460
  C    -78.153300   -6.544430    4.713400
  H    -80.362200   -8.851010    3.831870
  C    -77.609300   -9.057660    4.623130
  H    -77.816400   -9.221830    5.622490
  H    -76.591500   -8.760110    4.514620
  C    -77.838500  -10.385400    3.775090
  H    -77.461900  -10.244800    2.744090
  H    -78.867600  -10.726000    3.795580
  C    -76.963400  -11.522300    4.376180
  H    -77.094500  -11.492900    5.482400
  H    -75.900100  -11.428400    4.089220
  H    -77.330200  -12.524800    4.140200
  H    -74.914500   -3.971740    7.280740
  H    -81.467100   -6.630880    3.554400

 Total Charge           Charge          ....    0
 Multiplicity           Mult            ....    1
 Number of Electrons    NEL             ....  134
 Basis Dimension        Dim             ....  322

ORBITAL ENERGIES
----------------

  NO   OCC          E(Eh)            E(eV)
   0   2.0000     -88.965789     -2420.8822
   1   2.0000     -88.963833     -2420.8290
   2   2.0000     -10.321992      -280.8757
   3   2.0000     -10.320220      -280.8275
   4   2.0000     -10.312494      -280.6172
   5   2.0000     -10.306911      -280.4653
   6   2.0000     -10.303729      -280.3787
   7   2.0000     -10.303186      -280.3640
   8   2.0000     -10.298183      -280.2278
   9   2.0000     -10.297493      -280.2090
  10   2.0000     -10.293446      -280.0989
  11   2.0000     -10.286055      -279.8978
  12   2.0000     -10.285209      -279.8748
  13   2.0000     -10.284255      -279.8488
  14   2.0000     -10.282632      -279.8046
  15   2.0000     -10.281200      -279.7657
  16   2.0000      -8.080548      -219.8829
  17   2.0000      -8.079277      -219.8483
  18   2.0000      -6.038890      -164.3266
  19   2.0000      -6.037607      -164.2916
  20   2.0000      -6.035149      -164.2247
  21   2.0000      -6.033717      -164.1858
  22   2.0000      -6.031379      -164.1222
  23   2.0000      -6.030150      -164.0887
  24   2.0000      -1.009433       -27.4681
  25   2.0000      -0.984821       -26.7983
  26   2.0000      -0.913129       -24.8475
  27   2.0000      -0.906781       -24.6748
  28   2.0000      -0.871143       -23.7050
  29   2.0000      -0.855816       -23.2879
  30   2.0000      -0.843155       -22.9434
  31   2.0000      -0.813027       -22.1236
  32   2.0000      -0.781954       -21.2781
  33   2.0000      -0.766955       -20.8699
  34   2.0000      -0.709130       -19.2964
  35   2.0000      -0.698123       -18.9969
  36   2.0000      -0.691527       -18.8174
  37   2.0000      -0.659254       -17.9392
  38   2.0000      -0.643949       -17.5228
  39   2.0000      -0.610268       -16.6062
  40   2.0000      -0.596097       -16.2206
  41   2.0000      -0.577064       -15.7027
  42   2.0000      -0.573883       -15.6161
  43   2.0000      -0.546219       -14.8634
  44   2.0000      -0.540097       -14.6968
  45   2.0000      -0.522439       -14.2163
  46   2.0000      -0.520623       -14.1669
  47   2.0000      -0.513913       -13.9843
  48   2.0000      -0.506021       -13.7695
  49   2.0000      -0.493057       -13.4168
  50   2.0000      -0.487659       -13.2699
  51   2.0000      -0.476259       -12.9597
  52   2.0000      -0.468819       -12.7572
  53   2.0000      -0.461274       -12.5519
  54   2.0000      -0.460081       -12.5194
  55   2.0000      -0.454655       -12.3718
  56   2.0000      -0.441551       -12.0152
  57   2.0000      -0.439515       -11.9598
  58   2.0000      -0.431863       -11.7516
  59   2.0000      -0.428964       -11.6727
  60   2.0000      -0.422480       -11.4963
  61   2.0000      -0.420082       -11.4310
  62   2.0000      -0.408764       -11.1230
  63   2.0000      -0.345931        -9.4133
  64   2.0000      -0.331801        -9.0288
  65   2.0000      -0.329369        -8.9626
  66   2.0000      -0.284656        -7.7459
  67   0.0000       0.031413         0.8548
  68   0.0000       0.070122         1.9081
  69   0.0000       0.115800         3.1511
  70   0.0000       0.121602         3.3090
  71   0.0000       0.129629         3.5274

MULLIKEN ATOMIC CHARGES
-----------------------
   0 S :    0.118075
   1 C :   -0.114985
   2 C :   -0.067468
   3 C :    0.039207
   4 C :   -0.196527
   5 H :    0.013001
   6 C :    0.056951
   7 H :    0.040424
   8 H :    0.023853
   9 C :   -0.065095
  10 H :    0.032493
  11 H :    0.023375
  12 C :   -0.105154
  13 H :    0.059914
  14 H :    0.025866
  15 H :    0.043079
  16 S :    0.122343
  17 C :   -0.090703
  18 C :   -0.021903
  19 C :   -0.001604
  20 C :   -0.188711
  21 H :   -0.010571
  22 C :    0.098587
  23 H :    0.029069
  24 H :    0.008975
  25 C :   -0.088730
  26 H :    0.045965
  27 H :    0.038063
  28 C :   -0.069637
  29 H :    0.028827
  30 H :    0.046073
  31 H :    0.032559
  32 H :    0.037853
  33 H :    0.056535
Sum of atomic charges:   -0.0000000

LOEWDIN ATOMIC CHARGES
----------------------
   0 S :    0.416607
   1 C :   -0.200914
   2 C :   -0.060840
   3 C :   -0.066803
   4 C :   -0.199230
   5 H :    0.032070
   6 C :   -0.031726
   7 H :    0.033017
   8 H :    0.031028
   9 C :   -0.043156
  10 H :    0.023600
  11 H :    0.017482
  12 C :   -0.078615
  13 H :    0.032775
  14 H :    0.023465
  15 H :    0.030628
  16 S :    0.414170
  17 C :   -0.184112
  18 C :   -0.068648
  19 C :   -0.042056
  20 C :   -0.214978
  21 H :    0.022300
  22 C :   -0.028772
  23 H :    0.034310
  24 H :    0.028016
  25 C :   -0.032537
  26 H :    0.030053
  27 H :    0.021908
  28 C :   -0.070801
  29 H :    0.026939
  30 H :    0.028150
  31 H :    0.025286
  32 H :    0.021907
  33 H :    0.029479

  Mayer bond orders larger than 0.100000
B(  0-S ,  1-C ) :   1.1373 B(  0-S ,  4-C ) :   1.1640 B(  1-C ,  2-C ) :   1.6212
B(  1-C , 32-H ) :   0.9748 B(  2-C ,  3-C ) :   1.2200 B(  2-C ,  6-C ) :   1.0029
B(  3-C ,  4-C ) :   1.5805 B(  3-C ,  5-H ) :   0.9949 B(  4-C , 20-C ) :   1.0541
B(  6-C ,  7-H ) :   0.9462 B(  6-C ,  8-H ) :   0.9486 B(  6-C ,  9-C ) :   1.0756
B(  9-C , 10-H ) :   0.9581 B(  9-C , 11-H ) :   0.9605 B(  9-C , 12-C ) :   1.0630
B( 12-C , 13-H ) :   0.9748 B( 12-C , 14-H ) :   0.9787 B( 12-C , 15-H ) :   0.9769
B( 16-S , 17-C ) :   1.1506 B( 16-S , 20-C ) :   1.1640 B( 17-C , 18-C ) :   1.6052
B( 17-C , 20-C ) :   0.1090 B( 17-C , 33-H ) :   0.9624 B( 18-C , 19-C ) :   1.2532
B( 18-C , 21-H ) :   0.9985 B( 19-C , 20-C ) :   1.5360 B( 19-C , 22-C ) :   1.0405
B( 22-C , 23-H ) :   0.9190 B( 22-C , 24-H ) :   0.9270 B( 22-C , 25-C ) :   1.0672
B( 25-C , 26-H ) :   0.9599 B( 25-C , 27-H ) :   0.9546 B( 25-C , 28-C ) :   1.0799
B( 28-C , 29-H ) :   0.9755 B( 28-C , 30-H ) :   0.9775 B( 28-C , 31-H ) :   0.9756

Dispersion correction           -0.014270592
FINAL SINGLE POINT ENERGY     -1339.874310330482

DIPOLE MOMENT
-------------
                                X             Y             Z
Electronic contribution:    -20.13517      22.24551       0.00757
Nuclear contribution   :     20.42263     -22.83565      -0.07345
                        -----------------------------------------
Total Dipole Moment    :      0.28746      -0.59014      -0.06588
                        -----------------------------------------
Magnitude (a.u.)       :      0.65973
Magnitude (Debye)      :      1.67690

Rotational constants in cm-1:     0.016963     0.009575     0.006593
Rotational constants in MHz :   508.539469   287.044613   197.656249

                             ****ORCA TERMINATED NORMALLY****
TOTAL RUN TIME: 0 days 0 hours 0 minutes 21 seconds 912 msec
