                         Program Version 4.2.1 -  RELEASE  -
|  1> ! wB97X-D3 SP def2-SVP
|  2> %pal
|  3> nprocs 24
|  4> end
|  5>
|  6> * xyz 0 1
|  7> S 	 -48.7892 	 -52.4801 	 -74.3912
|  8> C 	 -48.3196 	 -50.8319 	 -74.7621
|  9> C 	 -47.0859 	 -50.6043 	 -74.1661
| 10> C 	 -46.5997 	 -51.7138 	 -73.4058
| 11> C 	 -47.4979 	 -52.757 	 -73.2473
| 12> H 	 -45.672 	 -51.6527 	 -72.8668
| 13> C 	 -46.3771 	 -49.2733 	 -74.0292
| 14> H 	 -46.3081 	 -49.0307 	 -72.9091
| 15> H 	 -46.9483 	 -48.525 	 -74.506
| 16> C 	 -44.9766 	 -49.4033 	 -74.5323
| 17> H 	 -44.3425 	 -49.7262 	 -73.7465
| 18> H 	 -44.9904 	 -50.1349 	 -75.3306
| 19> C 	 -44.4006 	 -48.0849 	 -75.0727
| 20> H 	 -44.2211 	 -47.236 	 -74.3542
| 21> H 	 -43.4225 	 -48.1961 	 -75.5365
| 22> H 	 -44.974 	 -47.6681 	 -75.9071
| 23> S 	 -48.3216 	 -55.3445 	 -72.9123
| 24> C 	 -47.6382 	 -56.3522 	 -71.6466
| 25> C 	 -46.7939 	 -55.5899 	 -70.845
| 26> C 	 -46.6125 	 -54.227 	 -71.282
| 27> C 	 -47.3422 	 -53.9454 	 -72.4113
| 28> H 	 -46.3186 	 -55.9972 	 -69.9601
| 29> C 	 -45.8907 	 -53.1038 	 -70.5123
| 30> H 	 -46.561 	 -52.3085 	 -70.3571
| 31> H 	 -44.9981 	 -52.662 	 -71.0927
| 32> C 	 -45.2272 	 -53.4266 	 -69.2145
| 33> H 	 -44.6697 	 -52.5087 	 -68.9915
| 34> H 	 -44.6374 	 -54.3602 	 -69.437
| 35> C 	 -46.0966 	 -53.6388 	 -67.997
| 36> H 	 -46.8574 	 -54.4259 	 -68.0421
| 37> H 	 -46.6359 	 -52.6785 	 -67.7008
| 38> H 	 -45.3988 	 -53.7905 	 -67.1641
| 39> H 	 -48.717 	 -50.1023 	 -75.4061
| 40> H 	 -47.7859 	 -57.3829 	 -71.4821
| 41> *
| 42>
| 43>                          ****END OF INPUT****

CARTESIAN COORDINATES (ANGSTROEM)
---------------------------------
  S    -48.789200  -52.480100  -74.391200
  C    -48.319600  -50.831900  -74.762100
  C    -47.085900  -50.604300  -74.166100
  C    -46.599700  -51.713800  -73.405800
  C    -47.497900  -52.757000  -73.247300
  H    -45.672000  -51.652700  -72.866800
  C    -46.377100  -49.273300  -74.029200
  H    -46.308100  -49.030700  -72.909100
  H    -46.948300  -48.525000  -74.506000
  C    -44.976600  -49.403300  -74.532300
  H    -44.342500  -49.726200  -73.746500
  H    -44.990400  -50.134900  -75.330600
  C    -44.400600  -48.084900  -75.072700
  H    -44.221100  -47.236000  -74.354200
  H    -43.422500  -48.196100  -75.536500
  H    -44.974000  -47.668100  -75.907100
  S    -48.321600  -55.344500  -72.912300
  C    -47.638200  -56.352200  -71.646600
  C    -46.793900  -55.589900  -70.845000
  C    -46.612500  -54.227000  -71.282000
  C    -47.342200  -53.945400  -72.411300
  H    -46.318600  -55.997200  -69.960100
  C    -45.890700  -53.103800  -70.512300
  H    -46.561000  -52.308500  -70.357100
  H    -44.998100  -52.662000  -71.092700
  C    -45.227200  -53.426600  -69.214500
  H    -44.669700  -52.508700  -68.991500
  H    -44.637400  -54.360200  -69.437000
  C    -46.096600  -53.638800  -67.997000
  H    -46.857400  -54.425900  -68.042100
  H    -46.635900  -52.678500  -67.700800
  H    -45.398800  -53.790500  -67.164100
  H    -48.717000  -50.102300  -75.406100
  H    -47.785900  -57.382900  -71.482100

 Total Charge           Charge          ....    0
 Multiplicity           Mult            ....    1
 Number of Electrons    NEL             ....  134
 Basis Dimension        Dim             ....  322

ORBITAL ENERGIES
----------------

  NO   OCC          E(Eh)            E(eV)
   0   2.0000     -88.967317     -2420.9238
   1   2.0000     -88.965899     -2420.8852
   2   2.0000     -10.334367      -281.2124
   3   2.0000     -10.332363      -281.1579
   4   2.0000     -10.321030      -280.8495
   5   2.0000     -10.312649      -280.6214
   6   2.0000     -10.308703      -280.5141
   7   2.0000     -10.300836      -280.3000
   8   2.0000     -10.297170      -280.2002
   9   2.0000     -10.294731      -280.1339
  10   2.0000     -10.290218      -280.0111
  11   2.0000     -10.289974      -280.0044
  12   2.0000     -10.289554      -279.9930
  13   2.0000     -10.282988      -279.8143
  14   2.0000     -10.282471      -279.8003
  15   2.0000     -10.281208      -279.7659
  16   2.0000      -8.081582      -219.9110
  17   2.0000      -8.080345      -219.8774
  18   2.0000      -6.040255      -164.3637
  19   2.0000      -6.039090      -164.3320
  20   2.0000      -6.036120      -164.2512
  21   2.0000      -6.034866      -164.2171
  22   2.0000      -6.032237      -164.1455
  23   2.0000      -6.030871      -164.1083
  24   2.0000      -1.007455       -27.4143
  25   2.0000      -0.984482       -26.7891
  26   2.0000      -0.919792       -25.0288
  27   2.0000      -0.917101       -24.9556
  28   2.0000      -0.872644       -23.7458
  29   2.0000      -0.852196       -23.1894
  30   2.0000      -0.839938       -22.8559
  31   2.0000      -0.816972       -22.2309
  32   2.0000      -0.787939       -21.4409
  33   2.0000      -0.776235       -21.1224
  34   2.0000      -0.713796       -19.4234
  35   2.0000      -0.698910       -19.0183
  36   2.0000      -0.693087       -18.8599
  37   2.0000      -0.657520       -17.8920
  38   2.0000      -0.639075       -17.3901
  39   2.0000      -0.625336       -17.0163
  40   2.0000      -0.607245       -16.5240
  41   2.0000      -0.578707       -15.7474
  42   2.0000      -0.562752       -15.3133
  43   2.0000      -0.552875       -15.0445
  44   2.0000      -0.546113       -14.8605
  45   2.0000      -0.526545       -14.3280
  46   2.0000      -0.517755       -14.0888
  47   2.0000      -0.515600       -14.0302
  48   2.0000      -0.511613       -13.9217
  49   2.0000      -0.503556       -13.7025
  50   2.0000      -0.494429       -13.4541
  51   2.0000      -0.479486       -13.0475
  52   2.0000      -0.475405       -12.9364
  53   2.0000      -0.468986       -12.7618
  54   2.0000      -0.463984       -12.6256
  55   2.0000      -0.448763       -12.2115
  56   2.0000      -0.442968       -12.0538
  57   2.0000      -0.435088       -11.8393
  58   2.0000      -0.428269       -11.6538
  59   2.0000      -0.423513       -11.5244
  60   2.0000      -0.418610       -11.3910
  61   2.0000      -0.415638       -11.3101
  62   2.0000      -0.406611       -11.0644
  63   2.0000      -0.361402        -9.8342
  64   2.0000      -0.334705        -9.1078
  65   2.0000      -0.323365        -8.7992
  66   2.0000      -0.285426        -7.7668
  67   0.0000       0.017254         0.4695
  68   0.0000       0.082624         2.2483
  69   0.0000       0.095865         2.6086
  70   0.0000       0.115112         3.1324
  71   0.0000       0.128744         3.5033

MULLIKEN ATOMIC CHARGES
-----------------------
   0 S :    0.098652
   1 C :   -0.081019
   2 C :   -0.124668
   3 C :    0.005132
   4 C :   -0.092329
   5 H :   -0.009164
   6 C :    0.079657
   7 H :    0.050308
   8 H :    0.001757
   9 C :   -0.062911
  10 H :    0.030291
  11 H :    0.039032
  12 C :   -0.071258
  13 H :    0.035678
  14 H :    0.024651
  15 H :    0.027051
  16 S :    0.094866
  17 C :   -0.059142
  18 C :   -0.046936
  19 C :   -0.037253
  20 C :   -0.131717
  21 H :    0.019542
  22 C :    0.032713
  23 H :    0.025561
  24 H :    0.057833
  25 C :   -0.098374
  26 H :    0.034359
  27 H :    0.040456
  28 C :   -0.064188
  29 H :    0.040949
  30 H :    0.030946
  31 H :    0.037076
  32 H :    0.027805
  33 H :    0.044644
Sum of atomic charges:    0.0000000

LOEWDIN ATOMIC CHARGES
----------------------
   0 S :    0.399869
   1 C :   -0.196115
   2 C :   -0.063571
   3 C :   -0.066879
   4 C :   -0.186391
   5 H :    0.022439
   6 C :   -0.027399
   7 H :    0.042941
   8 H :    0.018744
   9 C :   -0.039465
  10 H :    0.021549
  11 H :    0.028276
  12 C :   -0.075128
  13 H :    0.029212
  14 H :    0.024774
  15 H :    0.023470
  16 S :    0.390750
  17 C :   -0.174374
  18 C :   -0.070543
  19 C :   -0.059223
  20 C :   -0.174305
  21 H :    0.029890
  22 C :   -0.035132
  23 H :    0.024388
  24 H :    0.042515
  25 C :   -0.053339
  26 H :    0.034494
  27 H :    0.030409
  28 C :   -0.074977
  29 H :    0.022159
  30 H :    0.031044
  31 H :    0.029429
  32 H :    0.025102
  33 H :    0.025386

  Mayer bond orders larger than 0.100000
B(  0-S ,  1-C ) :   1.1210 B(  0-S ,  4-C ) :   1.1400 B(  1-C ,  2-C ) :   1.6109
B(  1-C , 32-H ) :   0.9719 B(  2-C ,  3-C ) :   1.2437 B(  2-C ,  6-C ) :   1.0375
B(  3-C ,  4-C ) :   1.5519 B(  3-C ,  5-H ) :   0.9921 B(  4-C , 20-C ) :   1.0903
B(  6-C ,  7-H ) :   0.9429 B(  6-C ,  8-H ) :   0.9456 B(  6-C ,  9-C ) :   1.0422
B(  9-C , 10-H ) :   0.9478 B(  9-C , 11-H ) :   0.9641 B(  9-C , 12-C ) :   1.0910
B( 12-C , 13-H ) :   0.9730 B( 12-C , 14-H ) :   0.9732 B( 12-C , 15-H ) :   0.9756
B( 16-S , 17-C ) :   1.1492 B( 16-S , 20-C ) :   1.1253 B( 17-C , 18-C ) :   1.6085
B( 17-C , 33-H ) :   0.9723 B( 18-C , 19-C ) :   1.2457 B( 18-C , 21-H ) :   0.9807
B( 19-C , 20-C ) :   1.6126 B( 19-C , 22-C ) :   1.0228 B( 22-C , 23-H ) :   0.9343
B( 22-C , 24-H ) :   0.9288 B( 22-C , 25-C ) :   1.0834 B( 25-C , 26-H ) :   0.9492
B( 25-C , 27-H ) :   0.9489 B( 25-C , 28-C ) :   1.0929 B( 28-C , 29-H ) :   0.9750
B( 28-C , 30-H ) :   0.9677 B( 28-C , 31-H ) :   0.9727

Dispersion correction           -0.013680752
FINAL SINGLE POINT ENERGY     -1339.866352819429

DIPOLE MOMENT
-------------
                                X             Y             Z
Electronic contribution:    -20.07243     -18.57403     -11.95406
Nuclear contribution   :     20.64882      18.97567      12.40241
                        -----------------------------------------
Total Dipole Moment    :      0.57639       0.40165       0.44835
                        -----------------------------------------
Magnitude (a.u.)       :      0.83341
Magnitude (Debye)      :      2.11835

Rotational constants in cm-1:     0.018363     0.008402     0.006189
Rotational constants in MHz :   550.518096   251.892109   185.526747

                             ****ORCA TERMINATED NORMALLY****
TOTAL RUN TIME: 0 days 0 hours 0 minutes 21 seconds 428 msec
