                         Program Version 4.2.1 -  RELEASE  -
|  1> ! wB97X-D3 SP def2-SVP
|  2> %pal
|  3> nprocs 24
|  4> end
|  5>
|  6> * xyz 0 1
|  7> S 	 -30.5748 	 20.8232 	 12.8676
|  8> C 	 -28.9642 	 21.5189 	 12.6572
|  9> C 	 -27.9519 	 20.5648 	 12.5206
| 10> C 	 -28.5694 	 19.2736 	 12.4962
| 11> C 	 -29.9454 	 19.2298 	 12.6
| 12> H 	 -27.9882 	 18.3162 	 12.3664
| 13> C 	 -26.4359 	 20.8412 	 12.4064
| 14> H 	 -25.9881 	 19.9411 	 12.8249
| 15> H 	 -26.1526 	 21.618 	 13.1843
| 16> C 	 -25.942 	 21.223 	 10.9925
| 17> H 	 -26.2182 	 20.5364 	 10.1884
| 18> H 	 -26.2758 	 22.2138 	 10.8621
| 19> C 	 -24.4389 	 21.3279 	 10.8649
| 20> H 	 -24.1455 	 22.1856 	 11.4859
| 21> H 	 -23.7979 	 20.4776 	 11.0703
| 22> H 	 -24.1406 	 21.6187 	 9.8228
| 23> S 	 -31.7008 	 17.8264 	 14.1077
| 24> C 	 -32.3036 	 16.3134 	 13.4322
| 25> C 	 -31.8054 	 15.9493 	 12.2549
| 26> C 	 -30.9497 	 16.9557 	 11.7801
| 27> C 	 -30.7974 	 18.0535 	 12.6227
| 28> H 	 -32.0717 	 15.0269 	 11.7509
| 29> C 	 -30.0838 	 16.6654 	 10.5613
| 30> H 	 -29.4171 	 15.8843 	 10.8707
| 31> H 	 -29.439 	 17.5296 	 10.33
| 32> C 	 -30.7461 	 16.0973 	 9.34114
| 33> H 	 -30.7765 	 15.0619 	 9.58605
| 34> H 	 -30.1034 	 16.2525 	 8.50344
| 35> C 	 -32.0941 	 16.6702 	 9.00189
| 36> H 	 -32.7488 	 16.6997 	 9.8324
| 37> H 	 -32.5414 	 16.144 	 8.12612
| 38> H 	 -32.0257 	 17.6834 	 8.77351
| 39> H 	 -28.7764 	 22.6162 	 12.7592
| 40> H 	 -32.9047 	 15.6125 	 13.9795
| 41> *
| 42>
| 43>                          ****END OF INPUT****

CARTESIAN COORDINATES (ANGSTROEM)
---------------------------------
  S    -30.574800   20.823200   12.867600
  C    -28.964200   21.518900   12.657200
  C    -27.951900   20.564800   12.520600
  C    -28.569400   19.273600   12.496200
  C    -29.945400   19.229800   12.600000
  H    -27.988200   18.316200   12.366400
  C    -26.435900   20.841200   12.406400
  H    -25.988100   19.941100   12.824900
  H    -26.152600   21.618000   13.184300
  C    -25.942000   21.223000   10.992500
  H    -26.218200   20.536400   10.188400
  H    -26.275800   22.213800   10.862100
  C    -24.438900   21.327900   10.864900
  H    -24.145500   22.185600   11.485900
  H    -23.797900   20.477600   11.070300
  H    -24.140600   21.618700    9.822800
  S    -31.700800   17.826400   14.107700
  C    -32.303600   16.313400   13.432200
  C    -31.805400   15.949300   12.254900
  C    -30.949700   16.955700   11.780100
  C    -30.797400   18.053500   12.622700
  H    -32.071700   15.026900   11.750900
  C    -30.083800   16.665400   10.561300
  H    -29.417100   15.884300   10.870700
  H    -29.439000   17.529600   10.330000
  C    -30.746100   16.097300    9.341140
  H    -30.776500   15.061900    9.586050
  H    -30.103400   16.252500    8.503440
  C    -32.094100   16.670200    9.001890
  H    -32.748800   16.699700    9.832400
  H    -32.541400   16.144000    8.126120
  H    -32.025700   17.683400    8.773510
  H    -28.776400   22.616200   12.759200
  H    -32.904700   15.612500   13.979500

 Total Charge           Charge          ....    0
 Multiplicity           Mult            ....    1
 Number of Electrons    NEL             ....  134
 Basis Dimension        Dim             ....  322

ORBITAL ENERGIES
----------------

  NO   OCC          E(Eh)            E(eV)
   0   2.0000     -88.966715     -2420.9074
   1   2.0000     -88.964580     -2420.8493
   2   2.0000     -10.325547      -280.9724
   3   2.0000     -10.323738      -280.9232
   4   2.0000     -10.318458      -280.7795
   5   2.0000     -10.311359      -280.5863
   6   2.0000     -10.305028      -280.4141
   7   2.0000     -10.303037      -280.3599
   8   2.0000     -10.300222      -280.2833
   9   2.0000     -10.296255      -280.1753
  10   2.0000     -10.287462      -279.9361
  11   2.0000     -10.287250      -279.9303
  12   2.0000     -10.281855      -279.7835
  13   2.0000     -10.280043      -279.7342
  14   2.0000     -10.273905      -279.5672
  15   2.0000     -10.263177      -279.2752
  16   2.0000      -8.081393      -219.9059
  17   2.0000      -8.079423      -219.8523
  18   2.0000      -6.039869      -164.3532
  19   2.0000      -6.037870      -164.2988
  20   2.0000      -6.035940      -164.2463
  21   2.0000      -6.034126      -164.1969
  22   2.0000      -6.032173      -164.1438
  23   2.0000      -6.030016      -164.0851
  24   2.0000      -1.008741       -27.4492
  25   2.0000      -0.985123       -26.8066
  26   2.0000      -0.916941       -24.9512
  27   2.0000      -0.911585       -24.8055
  28   2.0000      -0.874192       -23.7880
  29   2.0000      -0.848859       -23.0986
  30   2.0000      -0.847659       -23.0660
  31   2.0000      -0.813516       -22.1369
  32   2.0000      -0.786711       -21.4075
  33   2.0000      -0.774060       -21.0632
  34   2.0000      -0.705697       -19.2030
  35   2.0000      -0.701231       -19.0815
  36   2.0000      -0.689814       -18.7708
  37   2.0000      -0.662275       -18.0214
  38   2.0000      -0.636960       -17.3326
  39   2.0000      -0.615549       -16.7499
  40   2.0000      -0.593815       -16.1585
  41   2.0000      -0.572655       -15.5827
  42   2.0000      -0.565244       -15.3811
  43   2.0000      -0.561282       -15.2733
  44   2.0000      -0.546107       -14.8603
  45   2.0000      -0.524263       -14.2659
  46   2.0000      -0.520475       -14.1629
  47   2.0000      -0.508879       -13.8473
  48   2.0000      -0.502207       -13.6657
  49   2.0000      -0.494760       -13.4631
  50   2.0000      -0.491365       -13.3707
  51   2.0000      -0.476642       -12.9701
  52   2.0000      -0.468090       -12.7374
  53   2.0000      -0.461422       -12.5559
  54   2.0000      -0.460100       -12.5200
  55   2.0000      -0.453262       -12.3339
  56   2.0000      -0.445412       -12.1203
  57   2.0000      -0.433883       -11.8066
  58   2.0000      -0.430290       -11.7088
  59   2.0000      -0.425415       -11.5761
  60   2.0000      -0.422526       -11.4975
  61   2.0000      -0.418450       -11.3866
  62   2.0000      -0.411052       -11.1853
  63   2.0000      -0.348104        -9.4724
  64   2.0000      -0.332535        -9.0487
  65   2.0000      -0.328136        -8.9290
  66   2.0000      -0.292753        -7.9662
  67   0.0000       0.036474         0.9925
  68   0.0000       0.068044         1.8516
  69   0.0000       0.107663         2.9297
  70   0.0000       0.120656         3.2832
  71   0.0000       0.131053         3.5661

MULLIKEN ATOMIC CHARGES
-----------------------
   0 S :    0.116458
   1 C :   -0.145943
   2 C :   -0.085887
   3 C :    0.014498
   4 C :   -0.165211
   5 H :    0.028259
   6 C :    0.044284
   7 H :    0.019533
   8 H :    0.038653
   9 C :   -0.020221
  10 H :    0.040825
  11 H :    0.021193
  12 C :   -0.072918
  13 H :    0.022883
  14 H :    0.036157
  15 H :    0.032436
  16 S :    0.103595
  17 C :   -0.063501
  18 C :   -0.036484
  19 C :   -0.050518
  20 C :   -0.163499
  21 H :    0.027225
  22 C :    0.070057
  23 H :    0.028612
  24 H :    0.024616
  25 C :   -0.067143
  26 H :    0.013910
  27 H :    0.024444
  28 C :   -0.004357
  29 H :    0.019144
  30 H :    0.037349
  31 H :    0.011250
  32 H :    0.061148
  33 H :    0.039152
Sum of atomic charges:   -0.0000000

LOEWDIN ATOMIC CHARGES
----------------------
   0 S :    0.407418
   1 C :   -0.197673
   2 C :   -0.066254
   3 C :   -0.069091
   4 C :   -0.210231
   5 H :    0.037405
   6 C :   -0.032832
   7 H :    0.028070
   8 H :    0.039497
   9 C :   -0.035189
  10 H :    0.029846
  11 H :    0.024038
  12 C :   -0.071221
  13 H :    0.023569
  14 H :    0.021326
  15 H :    0.030603
  16 S :    0.395215
  17 C :   -0.164887
  18 C :   -0.073175
  19 C :   -0.052475
  20 C :   -0.200851
  21 H :    0.038891
  22 C :   -0.032619
  23 H :    0.032781
  24 H :    0.027478
  25 C :   -0.041441
  26 H :    0.016777
  27 H :    0.026973
  28 C :   -0.060247
  29 H :    0.019962
  30 H :    0.032101
  31 H :    0.020295
  32 H :    0.032832
  33 H :    0.023109

  Mayer bond orders larger than 0.100000
B(  0-S ,  1-C ) :   1.1480 B(  0-S ,  4-C ) :   1.1510 B(  1-C ,  2-C ) :   1.6028
B(  1-C ,  4-C ) :   0.1008 B(  1-C , 32-H ) :   0.9620 B(  2-C ,  3-C ) :   1.2605
B(  2-C ,  6-C ) :   1.0108 B(  3-C ,  4-C ) :   1.5770 B(  3-C ,  5-H ) :   0.9826
B(  4-C , 20-C ) :   1.0236 B(  6-C ,  7-H ) :   0.9426 B(  6-C ,  8-H ) :   0.9421
B(  6-C ,  9-C ) :   1.0585 B(  9-C , 10-H ) :   0.9608 B(  9-C , 11-H ) :   0.9518
B(  9-C , 12-C ) :   1.0868 B( 12-C , 13-H ) :   0.9743 B( 12-C , 14-H ) :   0.9773
B( 12-C , 15-H ) :   0.9733 B( 16-S , 17-C ) :   1.1443 B( 16-S , 20-C ) :   1.1329
B( 17-C , 18-C ) :   1.6521 B( 17-C , 33-H ) :   0.9599 B( 18-C , 19-C ) :   1.2090
B( 18-C , 21-H ) :   0.9903 B( 19-C , 20-C ) :   1.6314 B( 19-C , 22-C ) :   1.0461
B( 22-C , 23-H ) :   0.9407 B( 22-C , 24-H ) :   0.9302 B( 22-C , 25-C ) :   1.0642
B( 25-C , 26-H ) :   0.9522 B( 25-C , 27-H ) :   0.9511 B( 25-C , 28-C ) :   1.1049
B( 28-C , 29-H ) :   0.9623 B( 28-C , 30-H ) :   0.9722 B( 28-C , 31-H ) :   0.9682

Dispersion correction           -0.013864334
FINAL SINGLE POINT ENERGY     -1339.873159642916

DIPOLE MOMENT
-------------
                                X             Y             Z
Electronic contribution:    -18.46379       2.57181      19.70266
Nuclear contribution   :     19.04206      -2.85622     -20.02296
                        -----------------------------------------
Total Dipole Moment    :      0.57827      -0.28440      -0.32030
                        -----------------------------------------
Magnitude (a.u.)       :      0.71963
Magnitude (Debye)      :      1.82916

Rotational constants in cm-1:     0.019925     0.007731     0.006308
Rotational constants in MHz :   597.332309   231.764354   189.097484

                             ****ORCA TERMINATED NORMALLY****
TOTAL RUN TIME: 0 days 0 hours 0 minutes 21 seconds 72 msec
