                         Program Version 4.2.1 -  RELEASE  -
|  1> ! wB97X-D3 SP def2-SVP
|  2> %pal
|  3> nprocs 24
|  4> end
|  5>
|  6> * xyz 0 1
|  7> S 	 32.8714 	 -35.9189 	 -127.415
|  8> C 	 31.7869 	 -35.1659 	 -126.195
|  9> C 	 30.6876 	 -34.4541 	 -126.8
| 10> C 	 30.7385 	 -34.6701 	 -128.18
| 11> C 	 31.8663 	 -35.3529 	 -128.722
| 12> H 	 30.1255 	 -34.171 	 -128.937
| 13> C 	 29.6037 	 -33.5599 	 -126.117
| 14> H 	 29.4106 	 -32.5966 	 -126.7
| 15> H 	 29.9556 	 -33.3693 	 -125.094
| 16> C 	 28.2332 	 -34.2286 	 -126.099
| 17> H 	 27.5238 	 -33.4649 	 -125.973
| 18> H 	 28.0063 	 -34.7242 	 -127.038
| 19> C 	 28.0592 	 -35.3062 	 -124.988
| 20> H 	 28.4335 	 -36.2867 	 -125.242
| 21> H 	 28.6726 	 -35.1603 	 -124.055
| 22> H 	 27.0182 	 -35.4299 	 -124.684
| 23> S 	 31.0905 	 -36.0679 	 -131.289
| 24> C 	 32.3438 	 -36.2202 	 -132.518
| 25> C 	 33.5501 	 -35.7148 	 -132.085
| 26> C 	 33.4824 	 -35.2155 	 -130.742
| 27> C 	 32.2485 	 -35.4916 	 -130.115
| 28> H 	 34.399 	 -35.6466 	 -132.734
| 29> C 	 34.5421 	 -34.3365 	 -130.091
| 30> H 	 34.9538 	 -34.8734 	 -129.158
| 31> H 	 33.9836 	 -33.4246 	 -129.751
| 32> C 	 35.7477 	 -33.9896 	 -130.929
| 33> H 	 35.4251 	 -33.5387 	 -131.827
| 34> H 	 36.43 	 -34.8461 	 -131.123
| 35> C 	 36.641 	 -32.9318 	 -130.258
| 36> H 	 37.5055 	 -32.8231 	 -130.871
| 37> H 	 36.8843 	 -33.1151 	 -129.177
| 38> H 	 36.0201 	 -31.9473 	 -130.317
| 39> H 	 31.7272 	 -35.205 	 -125.095
| 40> H 	 32.1024 	 -36.7222 	 -133.441
| 41> *
| 42>
| 43>                          ****END OF INPUT****

CARTESIAN COORDINATES (ANGSTROEM)
---------------------------------
  S     32.871400  -35.918900  -127.415000
  C     31.786900  -35.165900  -126.195000
  C     30.687600  -34.454100  -126.800000
  C     30.738500  -34.670100  -128.180000
  C     31.866300  -35.352900  -128.722000
  H     30.125500  -34.171000  -128.937000
  C     29.603700  -33.559900  -126.117000
  H     29.410600  -32.596600  -126.700000
  H     29.955600  -33.369300  -125.094000
  C     28.233200  -34.228600  -126.099000
  H     27.523800  -33.464900  -125.973000
  H     28.006300  -34.724200  -127.038000
  C     28.059200  -35.306200  -124.988000
  H     28.433500  -36.286700  -125.242000
  H     28.672600  -35.160300  -124.055000
  H     27.018200  -35.429900  -124.684000
  S     31.090500  -36.067900  -131.289000
  C     32.343800  -36.220200  -132.518000
  C     33.550100  -35.714800  -132.085000
  C     33.482400  -35.215500  -130.742000
  C     32.248500  -35.491600  -130.115000
  H     34.399000  -35.646600  -132.734000
  C     34.542100  -34.336500  -130.091000
  H     34.953800  -34.873400  -129.158000
  H     33.983600  -33.424600  -129.751000
  C     35.747700  -33.989600  -130.929000
  H     35.425100  -33.538700  -131.827000
  H     36.430000  -34.846100  -131.123000
  C     36.641000  -32.931800  -130.258000
  H     37.505500  -32.823100  -130.871000
  H     36.884300  -33.115100  -129.177000
  H     36.020100  -31.947300  -130.317000
  H     31.727200  -35.205000  -125.095000
  H     32.102400  -36.722200  -133.441000

 Total Charge           Charge          ....    0
 Multiplicity           Mult            ....    1
 Number of Electrons    NEL             ....  134
 Basis Dimension        Dim             ....  322

ORBITAL ENERGIES
----------------

  NO   OCC          E(Eh)            E(eV)
   0   2.0000     -88.976331     -2421.1690
   1   2.0000     -88.964990     -2420.8604
   2   2.0000     -10.332602      -281.1644
   3   2.0000     -10.326251      -280.9916
   4   2.0000     -10.324627      -280.9474
   5   2.0000     -10.318737      -280.7871
   6   2.0000     -10.308420      -280.5064
   7   2.0000     -10.306486      -280.4537
   8   2.0000     -10.304978      -280.4127
   9   2.0000     -10.297049      -280.1970
  10   2.0000     -10.295592      -280.1573
  11   2.0000     -10.294244      -280.1206
  12   2.0000     -10.284993      -279.8689
  13   2.0000     -10.284699      -279.8609
  14   2.0000     -10.284138      -279.8456
  15   2.0000     -10.278477      -279.6916
  16   2.0000      -8.089133      -220.1165
  17   2.0000      -8.079692      -219.8596
  18   2.0000      -6.047791      -164.5688
  19   2.0000      -6.043736      -164.4584
  20   2.0000      -6.040019      -164.3573
  21   2.0000      -6.038167      -164.3069
  22   2.0000      -6.034184      -164.1985
  23   2.0000      -6.030528      -164.0990
  24   2.0000      -1.001336       -27.2477
  25   2.0000      -0.977037       -26.5865
  26   2.0000      -0.910473       -24.7752
  27   2.0000      -0.909751       -24.7556
  28   2.0000      -0.865450       -23.5501
  29   2.0000      -0.850213       -23.1355
  30   2.0000      -0.842128       -22.9155
  31   2.0000      -0.805899       -21.9296
  32   2.0000      -0.783218       -21.3124
  33   2.0000      -0.767219       -20.8771
  34   2.0000      -0.706851       -19.2344
  35   2.0000      -0.698910       -19.0183
  36   2.0000      -0.692407       -18.8414
  37   2.0000      -0.654909       -17.8210
  38   2.0000      -0.627986       -17.0884
  39   2.0000      -0.614919       -16.7328
  40   2.0000      -0.598752       -16.2929
  41   2.0000      -0.575291       -15.6545
  42   2.0000      -0.569402       -15.4942
  43   2.0000      -0.546273       -14.8648
  44   2.0000      -0.536970       -14.6117
  45   2.0000      -0.531949       -14.4751
  46   2.0000      -0.516809       -14.0631
  47   2.0000      -0.511120       -13.9083
  48   2.0000      -0.501301       -13.6411
  49   2.0000      -0.490234       -13.3399
  50   2.0000      -0.475353       -12.9350
  51   2.0000      -0.473768       -12.8919
  52   2.0000      -0.468385       -12.7454
  53   2.0000      -0.463459       -12.6114
  54   2.0000      -0.455720       -12.4008
  55   2.0000      -0.451790       -12.2938
  56   2.0000      -0.443947       -12.0804
  57   2.0000      -0.436158       -11.8685
  58   2.0000      -0.430335       -11.7100
  59   2.0000      -0.425497       -11.5784
  60   2.0000      -0.422814       -11.5054
  61   2.0000      -0.418180       -11.3792
  62   2.0000      -0.412803       -11.2329
  63   2.0000      -0.346409        -9.4263
  64   2.0000      -0.335202        -9.1213
  65   2.0000      -0.327315        -8.9067
  66   2.0000      -0.280298        -7.6273
  67   0.0000       0.019630         0.5342
  68   0.0000       0.066261         1.8031
  69   0.0000       0.100990         2.7481
  70   0.0000       0.116176         3.1613
  71   0.0000       0.128592         3.4992

MULLIKEN ATOMIC CHARGES
-----------------------
   0 S :    0.137672
   1 C :   -0.123881
   2 C :   -0.102667
   3 C :    0.020667
   4 C :   -0.169803
   5 H :    0.012006
   6 C :    0.041669
   7 H :    0.052692
   8 H :    0.028880
   9 C :   -0.032871
  10 H :    0.018787
  11 H :    0.037214
  12 C :   -0.077933
  13 H :    0.030712
  14 H :    0.020209
  15 H :    0.038597
  16 S :    0.106091
  17 C :   -0.094703
  18 C :   -0.016692
  19 C :   -0.056105
  20 C :   -0.150844
  21 H :    0.018357
  22 C :    0.028818
  23 H :    0.045563
  24 H :    0.052088
  25 C :   -0.088150
  26 H :    0.022239
  27 H :    0.040035
  28 C :   -0.063226
  29 H :    0.032935
  30 H :    0.045641
  31 H :    0.036301
  32 H :    0.049696
  33 H :    0.060004
Sum of atomic charges:   -0.0000000

LOEWDIN ATOMIC CHARGES
----------------------
   0 S :    0.422230
   1 C :   -0.206140
   2 C :   -0.060933
   3 C :   -0.071699
   4 C :   -0.200851
   5 H :    0.027229
   6 C :   -0.025399
   7 H :    0.044956
   8 H :    0.029687
   9 C :   -0.036710
  10 H :    0.017009
  11 H :    0.029304
  12 C :   -0.074809
  13 H :    0.024142
  14 H :    0.025275
  15 H :    0.027268
  16 S :    0.405533
  17 C :   -0.176357
  18 C :   -0.069705
  19 C :   -0.060016
  20 C :   -0.209283
  21 H :    0.031109
  22 C :   -0.044651
  23 H :    0.035820
  24 H :    0.042053
  25 C :   -0.048171
  26 H :    0.017721
  27 H :    0.028165
  28 C :   -0.064820
  29 H :    0.020400
  30 H :    0.028804
  31 H :    0.032651
  32 H :    0.033640
  33 H :    0.026548

  Mayer bond orders larger than 0.100000
B(  0-S ,  1-C ) :   1.1505 B(  0-S ,  4-C ) :   1.1547 B(  1-C ,  2-C ) :   1.5698
B(  1-C ,  4-C ) :   0.1149 B(  1-C , 32-H ) :   0.9582 B(  2-C ,  3-C ) :   1.3002
B(  2-C ,  6-C ) :   1.0214 B(  3-C ,  4-C ) :   1.5328 B(  3-C ,  5-H ) :   0.9781
B(  4-C , 20-C ) :   1.0697 B(  6-C ,  7-H ) :   0.9459 B(  6-C ,  8-H ) :   0.9439
B(  6-C ,  9-C ) :   1.0697 B(  9-C , 10-H ) :   0.9605 B(  9-C , 11-H ) :   0.9570
B(  9-C , 12-C ) :   1.0576 B( 12-C , 13-H ) :   0.9771 B( 12-C , 14-H ) :   0.9779
B( 12-C , 15-H ) :   0.9783 B( 16-S , 17-C ) :   1.1623 B( 16-S , 20-C ) :   1.1435
B( 17-C , 18-C ) :   1.5703 B( 17-C , 20-C ) :   0.1006 B( 17-C , 33-H ) :   0.9689
B( 18-C , 19-C ) :   1.2670 B( 18-C , 21-H ) :   0.9925 B( 19-C , 20-C ) :   1.5558
B( 19-C , 22-C ) :   1.0229 B( 22-C , 23-H ) :   0.9203 B( 22-C , 24-H ) :   0.9389
B( 22-C , 25-C ) :   1.0976 B( 25-C , 26-H ) :   0.9469 B( 25-C , 27-H ) :   0.9486
B( 25-C , 28-C ) :   1.0859 B( 28-C , 29-H ) :   0.9736 B( 28-C , 30-H ) :   0.9742
B( 28-C , 31-H ) :   0.9761

Dispersion correction           -0.013913996
FINAL SINGLE POINT ENERGY     -1339.864497772322

DIPOLE MOMENT
-------------
                                X             Y             Z
Electronic contribution:     -1.08183     -12.25326      -9.21788
Nuclear contribution   :      1.09057      12.63955       9.17875
                        -----------------------------------------
Total Dipole Moment    :      0.00874       0.38629      -0.03913
                        -----------------------------------------
Magnitude (a.u.)       :      0.38837
Magnitude (Debye)      :      0.98715

Rotational constants in cm-1:     0.021500     0.007442     0.006158
Rotational constants in MHz :   644.547629   223.112698   184.620131

                             ****ORCA TERMINATED NORMALLY****
TOTAL RUN TIME: 0 days 0 hours 0 minutes 20 seconds 790 msec
