                         Program Version 4.2.1 -  RELEASE  -
|  1> ! wB97X-D3 SP def2-SVP
|  2> %pal
|  3> nprocs 24
|  4> end
|  5>
|  6> * xyz 0 1
|  7> S 	 -139.884 	 8.80923 	 -1.67722
|  8> C 	 -140.765 	 10.1208 	 -2.40853
|  9> C 	 -140.914 	 9.81419 	 -3.7616
| 10> C 	 -140.48 	 8.44183 	 -4.09638
| 11> C 	 -139.904 	 7.77342 	 -3.08464
| 12> H 	 -140.652 	 7.92122 	 -5.05647
| 13> C 	 -141.517 	 10.6276 	 -4.85185
| 14> H 	 -140.79 	 10.7293 	 -5.66666
| 15> H 	 -141.855 	 11.6009 	 -4.43468
| 16> C 	 -142.779 	 9.97075 	 -5.39572
| 17> H 	 -142.5 	 8.98672 	 -5.76618
| 18> H 	 -143.41 	 9.82174 	 -4.42718
| 19> C 	 -143.492 	 10.6964 	 -6.53286
| 20> H 	 -143.013 	 10.5459 	 -7.55601
| 21> H 	 -144.532 	 10.5129 	 -6.51493
| 22> H 	 -143.439 	 11.7803 	 -6.42835
| 23> S 	 -138.3 	 6.16434 	 -4.54754
| 24> C 	 -137.996 	 4.53271 	 -3.99478
| 25> C 	 -138.672 	 4.26031 	 -2.82923
| 26> C 	 -139.422 	 5.35445 	 -2.31895
| 27> C 	 -139.381 	 6.44654 	 -3.17129
| 28> H 	 -138.544 	 3.28219 	 -2.42549
| 29> C 	 -140.255 	 5.34925 	 -1.02487
| 30> H 	 -140.991 	 4.50947 	 -1.06037
| 31> H 	 -140.901 	 6.23582 	 -0.992258
| 32> C 	 -139.4 	 5.1953 	 0.263029
| 33> H 	 -138.935 	 6.12905 	 0.48337
| 34> H 	 -138.596 	 4.47433 	 0.0863116
| 35> C 	 -140.129 	 4.5702 	 1.42171
| 36> H 	 -140.831 	 3.81201 	 1.10673
| 37> H 	 -140.765 	 5.33227 	 1.8068
| 38> H 	 -139.383 	 4.28911 	 2.19496
| 39> H 	 -141.13 	 11.0263 	 -2.01254
| 40> H 	 -137.47 	 3.77725 	 -4.49621
| 41> *
| 42>
| 43>                          ****END OF INPUT****

CARTESIAN COORDINATES (ANGSTROEM)
---------------------------------
  S    -139.884000    8.809230   -1.677220
  C    -140.765000   10.120800   -2.408530
  C    -140.914000    9.814190   -3.761600
  C    -140.480000    8.441830   -4.096380
  C    -139.904000    7.773420   -3.084640
  H    -140.652000    7.921220   -5.056470
  C    -141.517000   10.627600   -4.851850
  H    -140.790000   10.729300   -5.666660
  H    -141.855000   11.600900   -4.434680
  C    -142.779000    9.970750   -5.395720
  H    -142.500000    8.986720   -5.766180
  H    -143.410000    9.821740   -4.427180
  C    -143.492000   10.696400   -6.532860
  H    -143.013000   10.545900   -7.556010
  H    -144.532000   10.512900   -6.514930
  H    -143.439000   11.780300   -6.428350
  S    -138.300000    6.164340   -4.547540
  C    -137.996000    4.532710   -3.994780
  C    -138.672000    4.260310   -2.829230
  C    -139.422000    5.354450   -2.318950
  C    -139.381000    6.446540   -3.171290
  H    -138.544000    3.282190   -2.425490
  C    -140.255000    5.349250   -1.024870
  H    -140.991000    4.509470   -1.060370
  H    -140.901000    6.235820   -0.992258
  C    -139.400000    5.195300    0.263029
  H    -138.935000    6.129050    0.483370
  H    -138.596000    4.474330    0.086312
  C    -140.129000    4.570200    1.421710
  H    -140.831000    3.812010    1.106730
  H    -140.765000    5.332270    1.806800
  H    -139.383000    4.289110    2.194960
  H    -141.130000   11.026300   -2.012540
  H    -137.470000    3.777250   -4.496210

 Total Charge           Charge          ....    0
 Multiplicity           Mult            ....    1
 Number of Electrons    NEL             ....  134
 Basis Dimension        Dim             ....  322

ORBITAL ENERGIES
----------------

  NO   OCC          E(Eh)            E(eV)
   0   2.0000     -88.967129     -2420.9186
   1   2.0000     -88.964417     -2420.8449
   2   2.0000     -10.326337      -280.9939
   3   2.0000     -10.324693      -280.9492
   4   2.0000     -10.315590      -280.7015
   5   2.0000     -10.314469      -280.6710
   6   2.0000     -10.306723      -280.4602
   7   2.0000     -10.303690      -280.3777
   8   2.0000     -10.294911      -280.1388
   9   2.0000     -10.292695      -280.0785
  10   2.0000     -10.291929      -280.0576
  11   2.0000     -10.290846      -280.0281
  12   2.0000     -10.290756      -280.0257
  13   2.0000     -10.280206      -279.7386
  14   2.0000     -10.278930      -279.7039
  15   2.0000     -10.272118      -279.5185
  16   2.0000      -8.081430      -219.9069
  17   2.0000      -8.078944      -219.8393
  18   2.0000      -6.039923      -164.3547
  19   2.0000      -6.037713      -164.2945
  20   2.0000      -6.036028      -164.2487
  21   2.0000      -6.033390      -164.1769
  22   2.0000      -6.032189      -164.1442
  23   2.0000      -6.029496      -164.0709
  24   2.0000      -1.009936       -27.4817
  25   2.0000      -0.984975       -26.8025
  26   2.0000      -0.915651       -24.9161
  27   2.0000      -0.907130       -24.6843
  28   2.0000      -0.878218       -23.8975
  29   2.0000      -0.853924       -23.2365
  30   2.0000      -0.842265       -22.9192
  31   2.0000      -0.818642       -22.2764
  32   2.0000      -0.780485       -21.2381
  33   2.0000      -0.771892       -21.0043
  34   2.0000      -0.711113       -19.3504
  35   2.0000      -0.696725       -18.9588
  36   2.0000      -0.692334       -18.8394
  37   2.0000      -0.666882       -18.1468
  38   2.0000      -0.635117       -17.2824
  39   2.0000      -0.619920       -16.8689
  40   2.0000      -0.597132       -16.2488
  41   2.0000      -0.574261       -15.6264
  42   2.0000      -0.566671       -15.4199
  43   2.0000      -0.562917       -15.3178
  44   2.0000      -0.532869       -14.5001
  45   2.0000      -0.524790       -14.2803
  46   2.0000      -0.518442       -14.1075
  47   2.0000      -0.514364       -13.9966
  48   2.0000      -0.508519       -13.8375
  49   2.0000      -0.504537       -13.7292
  50   2.0000      -0.499436       -13.5904
  51   2.0000      -0.474585       -12.9141
  52   2.0000      -0.468618       -12.7517
  53   2.0000      -0.463627       -12.6159
  54   2.0000      -0.462519       -12.5858
  55   2.0000      -0.448428       -12.2023
  56   2.0000      -0.446537       -12.1509
  57   2.0000      -0.437903       -11.9160
  58   2.0000      -0.426166       -11.5966
  59   2.0000      -0.422420       -11.4946
  60   2.0000      -0.415880       -11.3167
  61   2.0000      -0.412302       -11.2193
  62   2.0000      -0.409122       -11.1328
  63   2.0000      -0.353236        -9.6120
  64   2.0000      -0.334156        -9.0928
  65   2.0000      -0.321329        -8.7438
  66   2.0000      -0.296143        -8.0585
  67   0.0000       0.028949         0.7877
  68   0.0000       0.079387         2.1602
  69   0.0000       0.105576         2.8729
  70   0.0000       0.117639         3.2011
  71   0.0000       0.128325         3.4919

MULLIKEN ATOMIC CHARGES
-----------------------
   0 S :    0.104553
   1 C :   -0.086385
   2 C :   -0.102859
   3 C :   -0.032797
   4 C :   -0.104763
   5 H :    0.031883
   6 C :    0.083099
   7 H :    0.038119
   8 H :    0.015108
   9 C :   -0.141842
  10 H :    0.030191
  11 H :    0.044155
  12 C :   -0.014976
  13 H :    0.043571
  14 H :    0.032730
  15 H :    0.013924
  16 S :    0.108293
  17 C :   -0.065680
  18 C :   -0.039247
  19 C :   -0.003430
  20 C :   -0.171468
  21 H :    0.009323
  22 C :    0.046301
  23 H :    0.026458
  24 H :    0.029802
  25 C :   -0.071530
  26 H :    0.025963
  27 H :    0.023279
  28 C :   -0.028489
  29 H :    0.027054
  30 H :    0.016468
  31 H :    0.046516
  32 H :    0.029728
  33 H :    0.036948
Sum of atomic charges:    0.0000000

LOEWDIN ATOMIC CHARGES
----------------------
   0 S :    0.407703
   1 C :   -0.197772
   2 C :   -0.056969
   3 C :   -0.074779
   4 C :   -0.196348
   5 H :    0.033070
   6 C :   -0.037792
   7 H :    0.033219
   8 H :    0.028531
   9 C :   -0.048486
  10 H :    0.019071
  11 H :    0.035787
  12 C :   -0.071764
  13 H :    0.036475
  14 H :    0.024628
  15 H :    0.022569
  16 S :    0.404082
  17 C :   -0.174327
  18 C :   -0.065509
  19 C :   -0.049794
  20 C :   -0.186744
  21 H :    0.028684
  22 C :   -0.032567
  23 H :    0.031946
  24 H :    0.023317
  25 C :   -0.039742
  26 H :    0.020474
  27 H :    0.022181
  28 C :   -0.063915
  29 H :    0.023792
  30 H :    0.020238
  31 H :    0.034159
  32 H :    0.025611
  33 H :    0.020969

  Mayer bond orders larger than 0.100000
B(  0-S ,  1-C ) :   1.1175 B(  0-S ,  4-C ) :   1.1178 B(  1-C ,  2-C ) :   1.6241
B(  1-C , 32-H ) :   0.9768 B(  2-C ,  3-C ) :   1.1890 B(  2-C ,  6-C ) :   1.0535
B(  3-C ,  4-C ) :   1.6042 B(  3-C ,  5-H ) :   0.9864 B(  4-C , 20-C ) :   1.0642
B(  6-C ,  7-H ) :   0.9323 B(  6-C ,  8-H ) :   0.9357 B(  6-C ,  9-C ) :   1.0610
B(  9-C , 10-H ) :   0.9553 B(  9-C , 11-H ) :   0.9559 B(  9-C , 12-C ) :   1.0764
B( 12-C , 13-H ) :   0.9712 B( 12-C , 14-H ) :   0.9732 B( 12-C , 15-H ) :   0.9716
B( 16-S , 17-C ) :   1.1444 B( 16-S , 20-C ) :   1.1344 B( 17-C , 18-C ) :   1.6314
B( 17-C , 33-H ) :   0.9699 B( 18-C , 19-C ) :   1.2179 B( 18-C , 21-H ) :   0.9941
B( 19-C , 20-C ) :   1.5871 B( 19-C , 22-C ) :   1.0434 B( 22-C , 23-H ) :   0.9413
B( 22-C , 24-H ) :   0.9312 B( 22-C , 25-C ) :   1.0451 B( 25-C , 26-H ) :   0.9515
B( 25-C , 27-H ) :   0.9678 B( 25-C , 28-C ) :   1.0806 B( 28-C , 29-H ) :   0.9729
B( 28-C , 30-H ) :   0.9726 B( 28-C , 31-H ) :   0.9740

Dispersion correction           -0.013761942
FINAL SINGLE POINT ENERGY     -1339.879032322957

DIPOLE MOMENT
-------------
                                X             Y             Z
Electronic contribution:     14.96974      -1.46446      -2.87489
Nuclear contribution   :    -15.28264       1.34499       2.79077
                        -----------------------------------------
Total Dipole Moment    :     -0.31291      -0.11947      -0.08412
                        -----------------------------------------
Magnitude (a.u.)       :      0.34534
Magnitude (Debye)      :      0.87778

Rotational constants in cm-1:     0.020715     0.007709     0.006339
Rotational constants in MHz :   621.021203   231.124324   190.029686

                             ****ORCA TERMINATED NORMALLY****
TOTAL RUN TIME: 0 days 0 hours 0 minutes 22 seconds 81 msec
