                         Program Version 4.2.1 -  RELEASE  -
|  1> ! wB97X-D3 SP def2-SVP
|  2> %pal
|  3> nprocs 24
|  4> end
|  5>
|  6> * xyz 0 1
|  7> S 	 -57.9288 	 1.51893 	 -34.2539
|  8> C 	 -57.7214 	 0.162737 	 -35.2663
|  9> C 	 -56.4021 	 -0.268964 	 -35.3554
| 10> C 	 -55.5504 	 0.65469 	 -34.6936
| 11> C 	 -56.196 	 1.64128 	 -34.0368
| 12> H 	 -54.4983 	 0.601193 	 -34.58
| 13> C 	 -55.9102 	 -1.51099 	 -36.1183
| 14> H 	 -55.8598 	 -1.41539 	 -37.1468
| 15> H 	 -56.6634 	 -2.3099 	 -35.9846
| 16> C 	 -54.5777 	 -2.1694 	 -35.5764
| 17> H 	 -54.3336 	 -3.00969 	 -36.2264
| 18> H 	 -53.729 	 -1.6039 	 -35.7881
| 19> C 	 -54.6101 	 -2.5761 	 -34.1331
| 20> H 	 -53.6674 	 -3.09645 	 -33.7216
| 21> H 	 -54.8459 	 -1.77533 	 -33.4364
| 22> H 	 -55.3946 	 -3.27596 	 -33.9461
| 23> S 	 -56.3499 	 2.76359 	 -31.5577
| 24> C 	 -55.3934 	 4.20047 	 -31.241
| 25> C 	 -54.5689 	 4.45428 	 -32.2774
| 26> C 	 -54.5524 	 3.50889 	 -33.3221
| 27> C 	 -55.657 	 2.65974 	 -33.1794
| 28> H 	 -54.03 	 5.42727 	 -32.3477
| 29> C 	 -53.5701 	 3.62031 	 -34.5045
| 30> H 	 -53.5201 	 2.70336 	 -35.1213
| 31> H 	 -52.5574 	 3.79728 	 -34.1998
| 32> C 	 -53.9414 	 4.70319 	 -35.5585
| 33> H 	 -53.9071 	 5.7134 	 -35.0998
| 34> H 	 -54.9548 	 4.46119 	 -35.9128
| 35> C 	 -52.9704 	 4.57854 	 -36.683
| 36> H 	 -51.9362 	 4.69511 	 -36.4012
| 37> H 	 -53.2336 	 5.17913 	 -37.4945
| 38> H 	 -53.1607 	 3.61713 	 -37.21
| 39> H 	 -58.504 	 -0.399019 	 -35.7742
| 40> H 	 -55.4641 	 4.84304 	 -30.414
| 41> *
| 42>
| 43>                          ****END OF INPUT****

CARTESIAN COORDINATES (ANGSTROEM)
---------------------------------
  S    -57.928800    1.518930  -34.253900
  C    -57.721400    0.162737  -35.266300
  C    -56.402100   -0.268964  -35.355400
  C    -55.550400    0.654690  -34.693600
  C    -56.196000    1.641280  -34.036800
  H    -54.498300    0.601193  -34.580000
  C    -55.910200   -1.510990  -36.118300
  H    -55.859800   -1.415390  -37.146800
  H    -56.663400   -2.309900  -35.984600
  C    -54.577700   -2.169400  -35.576400
  H    -54.333600   -3.009690  -36.226400
  H    -53.729000   -1.603900  -35.788100
  C    -54.610100   -2.576100  -34.133100
  H    -53.667400   -3.096450  -33.721600
  H    -54.845900   -1.775330  -33.436400
  H    -55.394600   -3.275960  -33.946100
  S    -56.349900    2.763590  -31.557700
  C    -55.393400    4.200470  -31.241000
  C    -54.568900    4.454280  -32.277400
  C    -54.552400    3.508890  -33.322100
  C    -55.657000    2.659740  -33.179400
  H    -54.030000    5.427270  -32.347700
  C    -53.570100    3.620310  -34.504500
  H    -53.520100    2.703360  -35.121300
  H    -52.557400    3.797280  -34.199800
  C    -53.941400    4.703190  -35.558500
  H    -53.907100    5.713400  -35.099800
  H    -54.954800    4.461190  -35.912800
  C    -52.970400    4.578540  -36.683000
  H    -51.936200    4.695110  -36.401200
  H    -53.233600    5.179130  -37.494500
  H    -53.160700    3.617130  -37.210000
  H    -58.504000   -0.399019  -35.774200
  H    -55.464100    4.843040  -30.414000

 Total Charge           Charge          ....    0
 Multiplicity           Mult            ....    1
 Number of Electrons    NEL             ....  134
 Basis Dimension        Dim             ....  322

ORBITAL ENERGIES
----------------

  NO   OCC          E(Eh)            E(eV)
   0   2.0000     -88.967093     -2420.9177
   1   2.0000     -88.963642     -2420.8238
   2   2.0000     -10.326386      -280.9952
   3   2.0000     -10.320813      -280.8436
   4   2.0000     -10.310944      -280.5751
   5   2.0000     -10.307063      -280.4694
   6   2.0000     -10.303285      -280.3666
   7   2.0000     -10.301997      -280.3316
   8   2.0000     -10.295009      -280.1414
   9   2.0000     -10.293529      -280.1012
  10   2.0000     -10.288814      -279.9729
  11   2.0000     -10.286660      -279.9142
  12   2.0000     -10.286371      -279.9064
  13   2.0000     -10.284274      -279.8493
  14   2.0000     -10.276222      -279.6302
  15   2.0000     -10.271436      -279.5000
  16   2.0000      -8.082557      -219.9376
  17   2.0000      -8.078165      -219.8180
  18   2.0000      -6.040890      -164.3810
  19   2.0000      -6.037005      -164.2753
  20   2.0000      -6.036766      -164.2687
  21   2.0000      -6.033409      -164.1774
  22   2.0000      -6.032806      -164.1610
  23   2.0000      -6.028733      -164.0502
  24   2.0000      -1.011970       -27.5371
  25   2.0000      -0.987252       -26.8645
  26   2.0000      -0.912610       -24.8334
  27   2.0000      -0.908841       -24.7308
  28   2.0000      -0.873026       -23.7562
  29   2.0000      -0.854669       -23.2567
  30   2.0000      -0.846805       -23.0427
  31   2.0000      -0.816800       -22.2263
  32   2.0000      -0.784463       -21.3463
  33   2.0000      -0.772433       -21.0190
  34   2.0000      -0.713170       -19.4063
  35   2.0000      -0.698358       -19.0033
  36   2.0000      -0.693256       -18.8645
  37   2.0000      -0.658605       -17.9215
  38   2.0000      -0.644089       -17.5265
  39   2.0000      -0.625618       -17.0239
  40   2.0000      -0.602784       -16.4026
  41   2.0000      -0.574296       -15.6274
  42   2.0000      -0.561299       -15.2737
  43   2.0000      -0.556306       -15.1379
  44   2.0000      -0.531789       -14.4707
  45   2.0000      -0.527320       -14.3491
  46   2.0000      -0.513658       -13.9774
  47   2.0000      -0.511958       -13.9311
  48   2.0000      -0.500532       -13.6202
  49   2.0000      -0.495747       -13.4900
  50   2.0000      -0.490354       -13.3432
  51   2.0000      -0.484795       -13.1919
  52   2.0000      -0.473086       -12.8733
  53   2.0000      -0.466086       -12.6828
  54   2.0000      -0.457068       -12.4375
  55   2.0000      -0.451130       -12.2759
  56   2.0000      -0.444761       -12.1026
  57   2.0000      -0.440092       -11.9755
  58   2.0000      -0.431257       -11.7351
  59   2.0000      -0.428752       -11.6669
  60   2.0000      -0.420610       -11.4454
  61   2.0000      -0.418355       -11.3840
  62   2.0000      -0.413905       -11.2629
  63   2.0000      -0.351915        -9.5761
  64   2.0000      -0.331838        -9.0298
  65   2.0000      -0.329104        -8.9554
  66   2.0000      -0.286930        -7.8078
  67   0.0000       0.031173         0.8483
  68   0.0000       0.071015         1.9324
  69   0.0000       0.116556         3.1717
  70   0.0000       0.125756         3.4220
  71   0.0000       0.134051         3.6477

MULLIKEN ATOMIC CHARGES
-----------------------
   0 S :    0.129074
   1 C :   -0.114998
   2 C :   -0.090011
   3 C :    0.033791
   4 C :   -0.159010
   5 H :    0.003115
   6 C :    0.084739
   7 H :    0.027187
   8 H :    0.023025
   9 C :   -0.052662
  10 H :    0.018486
  11 H :    0.009921
  12 C :   -0.065614
  13 H :    0.043661
  14 H :    0.039459
  15 H :    0.016909
  16 S :    0.101215
  17 C :   -0.061477
  18 C :   -0.053699
  19 C :    0.010480
  20 C :   -0.167690
  21 H :    0.031624
  22 C :    0.043140
  23 H :    0.009040
  24 H :    0.020015
  25 C :   -0.087046
  26 H :    0.034429
  27 H :    0.037440
  28 C :   -0.012466
  29 H :    0.035044
  30 H :    0.013570
  31 H :    0.022450
  32 H :    0.043287
  33 H :    0.033573
Sum of atomic charges:    0.0000000

LOEWDIN ATOMIC CHARGES
----------------------
   0 S :    0.427202
   1 C :   -0.209563
   2 C :   -0.064229
   3 C :   -0.058580
   4 C :   -0.198720
   5 H :    0.026527
   6 C :   -0.021833
   7 H :    0.022419
   8 H :    0.034345
   9 C :   -0.043000
  10 H :    0.029167
  11 H :    0.012690
  12 C :   -0.073090
  13 H :    0.037287
  14 H :    0.026762
  15 H :    0.020302
  16 S :    0.391925
  17 C :   -0.182712
  18 C :   -0.072853
  19 C :   -0.056182
  20 C :   -0.186749
  21 H :    0.037448
  22 C :   -0.029974
  23 H :    0.028885
  24 H :    0.025947
  25 C :   -0.036295
  26 H :    0.022681
  27 H :    0.029757
  28 C :   -0.066719
  29 H :    0.024220
  30 H :    0.019804
  31 H :    0.032268
  32 H :    0.029649
  33 H :    0.021214

  Mayer bond orders larger than 0.100000
B(  0-S ,  1-C ) :   1.1556 B(  0-S ,  4-C ) :   1.1426 B(  1-C ,  2-C ) :   1.6159
B(  1-C , 32-H ) :   0.9658 B(  2-C ,  3-C ) :   1.2421 B(  2-C ,  6-C ) :   1.0009
B(  3-C ,  4-C ) :   1.5900 B(  3-C ,  5-H ) :   0.9955 B(  4-C , 20-C ) :   1.0457
B(  6-C ,  7-H ) :   0.9409 B(  6-C ,  8-H ) :   0.9430 B(  6-C ,  9-C ) :   1.0799
B(  9-C , 10-H ) :   0.9490 B(  9-C , 11-H ) :   0.9493 B(  9-C , 12-C ) :   1.0759
B( 12-C , 13-H ) :   0.9726 B( 12-C , 14-H ) :   0.9727 B( 12-C , 15-H ) :   0.9730
B( 16-S , 17-C ) :   1.1199 B( 16-S , 20-C ) :   1.1494 B( 17-C , 18-C ) :   1.6493
B( 17-C , 20-C ) :   0.1042 B( 17-C , 33-H ) :   0.9722 B( 18-C , 19-C ) :   1.2261
B( 18-C , 21-H ) :   0.9768 B( 19-C , 20-C ) :   1.5908 B( 19-C , 22-C ) :   1.0436
B( 22-C , 23-H ) :   0.9414 B( 22-C , 24-H ) :   0.9365 B( 22-C , 25-C ) :   1.0593
B( 25-C , 26-H ) :   0.9547 B( 25-C , 27-H ) :   0.9535 B( 25-C , 28-C ) :   1.0993
B( 28-C , 29-H ) :   0.9722 B( 28-C , 30-H ) :   0.9649 B( 28-C , 31-H ) :   0.9643

Dispersion correction           -0.014285561
FINAL SINGLE POINT ENERGY     -1339.873340407996

DIPOLE MOMENT
-------------
                                X             Y             Z
Electronic contribution:    -18.67289       7.33993      15.85554
Nuclear contribution   :     19.12958      -7.42509     -16.34779
                        -----------------------------------------
Total Dipole Moment    :      0.45669      -0.08516      -0.49225
                        -----------------------------------------
Magnitude (a.u.)       :      0.67685
Magnitude (Debye)      :      1.72042

Rotational constants in cm-1:     0.016460     0.009373     0.007612
Rotational constants in MHz :   493.451767   280.993125   228.192316

                             ****ORCA TERMINATED NORMALLY****
TOTAL RUN TIME: 0 days 0 hours 0 minutes 21 seconds 869 msec
