                         Program Version 4.2.1 -  RELEASE  -
|  1> ! wB97X-D3 SP def2-SVP
|  2> %pal
|  3> nprocs 24
|  4> end
|  5>
|  6> * xyz 0 1
|  7> S 	 -121.716 	 23.0431 	 -24.7439
|  8> C 	 -120.648 	 23.2058 	 -26.1589
|  9> C 	 -119.384 	 23.5977 	 -25.7448
| 10> C 	 -119.38 	 24.1289 	 -24.3971
| 11> C 	 -120.586 	 23.8986 	 -23.7331
| 12> H 	 -118.519 	 24.5687 	 -23.9556
| 13> C 	 -118.015 	 23.6563 	 -26.4396
| 14> H 	 -117.234 	 23.3311 	 -25.726
| 15> H 	 -117.862 	 24.7158 	 -26.6582
| 16> C 	 -117.92 	 22.8109 	 -27.7062
| 17> H 	 -118.186 	 21.7759 	 -27.5979
| 18> H 	 -118.667 	 23.1437 	 -28.4466
| 19> C 	 -116.497 	 22.913 	 -28.3716
| 20> H 	 -116.256 	 23.9555 	 -28.2961
| 21> H 	 -115.796 	 22.2114 	 -27.8443
| 22> H 	 -116.493 	 22.6595 	 -29.4049
| 23> S 	 -121.063 	 22.8784 	 -21.0702
| 24> C 	 -121.372 	 24.0547 	 -19.955
| 25> C 	 -121.007 	 25.3483 	 -20.3102
| 26> C 	 -120.72 	 25.4179 	 -21.6957
| 27> C 	 -120.778 	 24.1414 	 -22.283
| 28> H 	 -121.022 	 26.1337 	 -19.535
| 29> C 	 -120.28 	 26.7253 	 -22.3577
| 30> H 	 -119.449 	 26.4593 	 -23.0324
| 31> H 	 -119.853 	 27.4037 	 -21.5484
| 32> C 	 -121.362 	 27.443 	 -23.1983
| 33> H 	 -122.269 	 27.7465 	 -22.6266
| 34> H 	 -121.655 	 26.7848 	 -24.0503
| 35> C 	 -120.759 	 28.6821 	 -23.9062
| 36> H 	 -121.506 	 29.3239 	 -24.3365
| 37> H 	 -120.026 	 28.4556 	 -24.5967
| 38> H 	 -120.195 	 29.2747 	 -23.1611
| 39> H 	 -120.842 	 22.7356 	 -27.1505
| 40> H 	 -121.494 	 23.779 	 -18.8908
| 41> *
| 42>
| 43>                          ****END OF INPUT****

CARTESIAN COORDINATES (ANGSTROEM)
---------------------------------
  S    -121.716000   23.043100  -24.743900
  C    -120.648000   23.205800  -26.158900
  C    -119.384000   23.597700  -25.744800
  C    -119.380000   24.128900  -24.397100
  C    -120.586000   23.898600  -23.733100
  H    -118.519000   24.568700  -23.955600
  C    -118.015000   23.656300  -26.439600
  H    -117.234000   23.331100  -25.726000
  H    -117.862000   24.715800  -26.658200
  C    -117.920000   22.810900  -27.706200
  H    -118.186000   21.775900  -27.597900
  H    -118.667000   23.143700  -28.446600
  C    -116.497000   22.913000  -28.371600
  H    -116.256000   23.955500  -28.296100
  H    -115.796000   22.211400  -27.844300
  H    -116.493000   22.659500  -29.404900
  S    -121.063000   22.878400  -21.070200
  C    -121.372000   24.054700  -19.955000
  C    -121.007000   25.348300  -20.310200
  C    -120.720000   25.417900  -21.695700
  C    -120.778000   24.141400  -22.283000
  H    -121.022000   26.133700  -19.535000
  C    -120.280000   26.725300  -22.357700
  H    -119.449000   26.459300  -23.032400
  H    -119.853000   27.403700  -21.548400
  C    -121.362000   27.443000  -23.198300
  H    -122.269000   27.746500  -22.626600
  H    -121.655000   26.784800  -24.050300
  C    -120.759000   28.682100  -23.906200
  H    -121.506000   29.323900  -24.336500
  H    -120.026000   28.455600  -24.596700
  H    -120.195000   29.274700  -23.161100
  H    -120.842000   22.735600  -27.150500
  H    -121.494000   23.779000  -18.890800

 Total Charge           Charge          ....    0
 Multiplicity           Mult            ....    1
 Number of Electrons    NEL             ....  134
 Basis Dimension        Dim             ....  322

ORBITAL ENERGIES
----------------

  NO   OCC          E(Eh)            E(eV)
   0   2.0000     -88.969632     -2420.9868
   1   2.0000     -88.966445     -2420.9000
   2   2.0000     -10.330981      -281.1203
   3   2.0000     -10.325336      -280.9667
   4   2.0000     -10.318863      -280.7905
   5   2.0000     -10.309643      -280.5396
   6   2.0000     -10.304479      -280.3991
   7   2.0000     -10.302819      -280.3540
   8   2.0000     -10.299441      -280.2620
   9   2.0000     -10.298543      -280.2376
  10   2.0000     -10.292008      -280.0598
  11   2.0000     -10.291393      -280.0431
  12   2.0000     -10.288596      -279.9669
  13   2.0000     -10.287482      -279.9366
  14   2.0000     -10.280460      -279.7455
  15   2.0000     -10.268079      -279.4086
  16   2.0000      -8.085821      -220.0264
  17   2.0000      -8.080666      -219.8861
  18   2.0000      -6.043999      -164.4656
  19   2.0000      -6.040261      -164.3639
  20   2.0000      -6.039353      -164.3391
  21   2.0000      -6.036705      -164.2671
  22   2.0000      -6.035294      -164.2287
  23   2.0000      -6.031216      -164.1177
  24   2.0000      -1.007025       -27.4025
  25   2.0000      -0.984559       -26.7912
  26   2.0000      -0.909796       -24.7568
  27   2.0000      -0.904758       -24.6197
  28   2.0000      -0.861837       -23.4518
  29   2.0000      -0.854362       -23.2484
  30   2.0000      -0.846251       -23.0277
  31   2.0000      -0.804135       -21.8816
  32   2.0000      -0.782274       -21.2868
  33   2.0000      -0.769973       -20.9520
  34   2.0000      -0.711191       -19.3525
  35   2.0000      -0.698262       -19.0007
  36   2.0000      -0.681935       -18.5564
  37   2.0000      -0.653568       -17.7845
  38   2.0000      -0.635661       -17.2972
  39   2.0000      -0.614625       -16.7248
  40   2.0000      -0.593997       -16.1635
  41   2.0000      -0.570431       -15.5222
  42   2.0000      -0.564979       -15.3739
  43   2.0000      -0.556607       -15.1461
  44   2.0000      -0.523853       -14.2548
  45   2.0000      -0.522751       -14.2248
  46   2.0000      -0.512155       -13.9364
  47   2.0000      -0.509998       -13.8777
  48   2.0000      -0.501295       -13.6409
  49   2.0000      -0.493955       -13.4412
  50   2.0000      -0.490701       -13.3527
  51   2.0000      -0.480093       -13.0640
  52   2.0000      -0.475155       -12.9296
  53   2.0000      -0.465721       -12.6729
  54   2.0000      -0.459122       -12.4934
  55   2.0000      -0.445389       -12.1196
  56   2.0000      -0.441562       -12.0155
  57   2.0000      -0.440702       -11.9921
  58   2.0000      -0.436658       -11.8821
  59   2.0000      -0.424760       -11.5583
  60   2.0000      -0.421515       -11.4700
  61   2.0000      -0.416569       -11.3354
  62   2.0000      -0.413214       -11.2441
  63   2.0000      -0.339259        -9.2317
  64   2.0000      -0.333430        -9.0731
  65   2.0000      -0.325314        -8.8522
  66   2.0000      -0.292006        -7.9459
  67   0.0000       0.033833         0.9206
  68   0.0000       0.064629         1.7587
  69   0.0000       0.108730         2.9587
  70   0.0000       0.112252         3.0545
  71   0.0000       0.126533         3.4432

MULLIKEN ATOMIC CHARGES
-----------------------
   0 S :    0.109398
   1 C :   -0.146838
   2 C :   -0.080739
   3 C :    0.017895
   4 C :   -0.146170
   5 H :    0.011657
   6 C :    0.037686
   7 H :    0.044658
   8 H :    0.045541
   9 C :   -0.104510
  10 H :    0.027735
  11 H :    0.025458
  12 C :   -0.031787
  13 H :    0.024506
  14 H :    0.046041
  15 H :    0.027709
  16 S :    0.146560
  17 C :   -0.105513
  18 C :   -0.058028
  19 C :   -0.013790
  20 C :   -0.178695
  21 H :    0.027341
  22 C :    0.050578
  23 H :    0.015240
  24 H :    0.036101
  25 C :   -0.093669
  26 H :    0.042295
  27 H :    0.051012
  28 C :   -0.014089
  29 H :    0.034651
  30 H :    0.012291
  31 H :    0.010678
  32 H :    0.065923
  33 H :    0.062872
Sum of atomic charges:   -0.0000000

LOEWDIN ATOMIC CHARGES
----------------------
   0 S :    0.398613
   1 C :   -0.210064
   2 C :   -0.055256
   3 C :   -0.061295
   4 C :   -0.191782
   5 H :    0.024537
   6 C :   -0.033009
   7 H :    0.037093
   8 H :    0.037412
   9 C :   -0.047008
  10 H :    0.019558
  11 H :    0.022981
  12 C :   -0.060329
  13 H :    0.021727
  14 H :    0.031972
  15 H :    0.021282
  16 S :    0.446248
  17 C :   -0.222087
  18 C :   -0.079766
  19 C :   -0.048057
  20 C :   -0.208408
  21 H :    0.036143
  22 C :   -0.034669
  23 H :    0.030401
  24 H :    0.036378
  25 C :   -0.039718
  26 H :    0.028158
  27 H :    0.033310
  28 C :   -0.062042
  29 H :    0.024954
  30 H :    0.013077
  31 H :    0.022809
  32 H :    0.035842
  33 H :    0.030995

  Mayer bond orders larger than 0.100000
B(  0-S ,  1-C ) :   1.1127 B(  0-S ,  4-C ) :   1.1505 B(  1-C ,  2-C ) :   1.6355
B(  1-C , 32-H ) :   0.9608 B(  2-C ,  3-C ) :   1.2354 B(  2-C ,  6-C ) :   1.0041
B(  3-C ,  4-C ) :   1.5686 B(  3-C ,  5-H ) :   0.9910 B(  4-C , 20-C ) :   1.0407
B(  6-C ,  7-H ) :   0.9498 B(  6-C ,  8-H ) :   0.9338 B(  6-C ,  9-C ) :   1.0702
B(  9-C , 10-H ) :   0.9629 B(  9-C , 11-H ) :   0.9496 B(  9-C , 12-C ) :   1.0773
B( 12-C , 13-H ) :   0.9764 B( 12-C , 14-H ) :   0.9777 B( 12-C , 15-H ) :   0.9754
B( 16-S , 17-C ) :   1.1996 B( 16-S , 20-C ) :   1.1531 B( 17-C , 18-C ) :   1.5761
B( 17-C , 33-H ) :   0.9559 B( 18-C , 19-C ) :   1.2777 B( 18-C , 21-H ) :   0.9890
B( 19-C , 20-C ) :   1.5631 B( 19-C , 22-C ) :   1.0297 B( 22-C , 23-H ) :   0.9293
B( 22-C , 24-H ) :   0.9395 B( 22-C , 25-C ) :   1.0647 B( 25-C , 26-H ) :   0.9586
B( 25-C , 27-H ) :   0.9546 B( 25-C , 28-C ) :   1.0797 B( 28-C , 29-H ) :   0.9750
B( 28-C , 30-H ) :   0.9745 B( 28-C , 31-H ) :   0.9706

Dispersion correction           -0.014011976
FINAL SINGLE POINT ENERGY     -1339.873136747572

DIPOLE MOMENT
-------------
                                X             Y             Z
Electronic contribution:    -15.47722     -15.74686      17.37628
Nuclear contribution   :     16.05876      15.99578     -17.49803
                        -----------------------------------------
Total Dipole Moment    :      0.58155       0.24892      -0.12175
                        -----------------------------------------
Magnitude (a.u.)       :      0.64419
Magnitude (Debye)      :      1.63740

Rotational constants in cm-1:     0.018861     0.007841     0.006503
Rotational constants in MHz :   565.438628   235.081374   194.943697

                             ****ORCA TERMINATED NORMALLY****
TOTAL RUN TIME: 0 days 0 hours 0 minutes 21 seconds 282 msec
