                         Program Version 4.2.1 -  RELEASE  -
|  1> ! wB97X-D3 SP def2-SVP
|  2> %pal
|  3> nprocs 24
|  4> end
|  5>
|  6> * xyz 0 1
|  7> S 	 -47.3858 	 2.70755 	 -23.0598
|  8> C 	 -46.1291 	 3.8034 	 -23.6439
|  9> C 	 -46.7446 	 4.90056 	 -24.181
| 10> C 	 -48.1775 	 4.86712 	 -24.2411
| 11> C 	 -48.6712 	 3.68098 	 -23.6603
| 12> H 	 -48.8428 	 5.60533 	 -24.6926
| 13> C 	 -45.9492 	 6.09162 	 -24.7785
| 14> H 	 -45.1221 	 6.23852 	 -24.1264
| 15> H 	 -46.5394 	 7.07212 	 -24.8175
| 16> C 	 -45.1955 	 5.72986 	 -26.0738
| 17> H 	 -44.1295 	 5.50859 	 -25.8948
| 18> H 	 -45.6057 	 4.70081 	 -26.4639
| 19> C 	 -45.2753 	 6.77812 	 -27.1454
| 20> H 	 -44.9555 	 7.74657 	 -26.7995
| 21> H 	 -44.7142 	 6.58845 	 -28.0943
| 22> H 	 -46.2904 	 6.91084 	 -27.4706
| 23> S 	 -50.9636 	 3.61692 	 -25.0963
| 24> C 	 -52.3752 	 3.05717 	 -24.383
| 25> C 	 -52.3158 	 2.99419 	 -23.0243
| 26> C 	 -50.9662 	 3.10773 	 -22.5447
| 27> C 	 -50.0488 	 3.35172 	 -23.5924
| 28> H 	 -53.1495 	 2.84054 	 -22.3972
| 29> C 	 -50.6724 	 3.03229 	 -21.0591
| 30> H 	 -51.5527 	 3.45201 	 -20.5924
| 31> H 	 -49.8061 	 3.68323 	 -20.8422
| 32> C 	 -50.5427 	 1.69328 	 -20.4049
| 33> H 	 -49.6363 	 1.19511 	 -20.7058
| 34> H 	 -51.3144 	 0.999489 	 -20.6866
| 35> C 	 -50.6656 	 1.84459 	 -18.8636
| 36> H 	 -50.0071 	 2.55537 	 -18.4738
| 37> H 	 -50.2904 	 0.945633 	 -18.33
| 38> H 	 -51.5915 	 2.00378 	 -18.4219
| 39> H 	 -45.1304 	 3.54848 	 -23.6914
| 40> H 	 -53.3068 	 2.90239 	 -24.8368
| 41> *
| 42>
| 43>                          ****END OF INPUT****

CARTESIAN COORDINATES (ANGSTROEM)
---------------------------------
  S    -47.385800    2.707550  -23.059800
  C    -46.129100    3.803400  -23.643900
  C    -46.744600    4.900560  -24.181000
  C    -48.177500    4.867120  -24.241100
  C    -48.671200    3.680980  -23.660300
  H    -48.842800    5.605330  -24.692600
  C    -45.949200    6.091620  -24.778500
  H    -45.122100    6.238520  -24.126400
  H    -46.539400    7.072120  -24.817500
  C    -45.195500    5.729860  -26.073800
  H    -44.129500    5.508590  -25.894800
  H    -45.605700    4.700810  -26.463900
  C    -45.275300    6.778120  -27.145400
  H    -44.955500    7.746570  -26.799500
  H    -44.714200    6.588450  -28.094300
  H    -46.290400    6.910840  -27.470600
  S    -50.963600    3.616920  -25.096300
  C    -52.375200    3.057170  -24.383000
  C    -52.315800    2.994190  -23.024300
  C    -50.966200    3.107730  -22.544700
  C    -50.048800    3.351720  -23.592400
  H    -53.149500    2.840540  -22.397200
  C    -50.672400    3.032290  -21.059100
  H    -51.552700    3.452010  -20.592400
  H    -49.806100    3.683230  -20.842200
  C    -50.542700    1.693280  -20.404900
  H    -49.636300    1.195110  -20.705800
  H    -51.314400    0.999489  -20.686600
  C    -50.665600    1.844590  -18.863600
  H    -50.007100    2.555370  -18.473800
  H    -50.290400    0.945633  -18.330000
  H    -51.591500    2.003780  -18.421900
  H    -45.130400    3.548480  -23.691400
  H    -53.306800    2.902390  -24.836800

 Total Charge           Charge          ....    0
 Multiplicity           Mult            ....    1
 Number of Electrons    NEL             ....  134
 Basis Dimension        Dim             ....  322

ORBITAL ENERGIES
----------------

  NO   OCC          E(Eh)            E(eV)
   0   2.0000     -88.967133     -2420.9188
   1   2.0000     -88.965211     -2420.8665
   2   2.0000     -10.328931      -281.0645
   3   2.0000     -10.325604      -280.9740
   4   2.0000     -10.308224      -280.5010
   5   2.0000     -10.307464      -280.4804
   6   2.0000     -10.305338      -280.4225
   7   2.0000     -10.303379      -280.3692
   8   2.0000     -10.295202      -280.1467
   9   2.0000     -10.293708      -280.1060
  10   2.0000     -10.291588      -280.0484
  11   2.0000     -10.287718      -279.9430
  12   2.0000     -10.287263      -279.9307
  13   2.0000     -10.281662      -279.7783
  14   2.0000     -10.274236      -279.5762
  15   2.0000     -10.268356      -279.4162
  16   2.0000      -8.081804      -219.9171
  17   2.0000      -8.080875      -219.8918
  18   2.0000      -6.040370      -164.3668
  19   2.0000      -6.039280      -164.3372
  20   2.0000      -6.036156      -164.2522
  21   2.0000      -6.035398      -164.2315
  22   2.0000      -6.032680      -164.1576
  23   2.0000      -6.031543      -164.1266
  24   2.0000      -1.010356       -27.4932
  25   2.0000      -0.987384       -26.8681
  26   2.0000      -0.913842       -24.8669
  27   2.0000      -0.909513       -24.7491
  28   2.0000      -0.875392       -23.8206
  29   2.0000      -0.853351       -23.2209
  30   2.0000      -0.845228       -22.9998
  31   2.0000      -0.812441       -22.1076
  32   2.0000      -0.786085       -21.3904
  33   2.0000      -0.772725       -21.0269
  34   2.0000      -0.715014       -19.4565
  35   2.0000      -0.699718       -19.0403
  36   2.0000      -0.693045       -18.8587
  37   2.0000      -0.667664       -18.1681
  38   2.0000      -0.642597       -17.4859
  39   2.0000      -0.611165       -16.6306
  40   2.0000      -0.600295       -16.3349
  41   2.0000      -0.572966       -15.5912
  42   2.0000      -0.566558       -15.4168
  43   2.0000      -0.556084       -15.1318
  44   2.0000      -0.529952       -14.4207
  45   2.0000      -0.521892       -14.2014
  46   2.0000      -0.518936       -14.1210
  47   2.0000      -0.514860       -14.0101
  48   2.0000      -0.512061       -13.9339
  49   2.0000      -0.506638       -13.7863
  50   2.0000      -0.488012       -13.2795
  51   2.0000      -0.479247       -13.0410
  52   2.0000      -0.473665       -12.8891
  53   2.0000      -0.467109       -12.7107
  54   2.0000      -0.459681       -12.5086
  55   2.0000      -0.455329       -12.3901
  56   2.0000      -0.446543       -12.1510
  57   2.0000      -0.437847       -11.9144
  58   2.0000      -0.431817       -11.7503
  59   2.0000      -0.419817       -11.4238
  60   2.0000      -0.418036       -11.3753
  61   2.0000      -0.415782       -11.3140
  62   2.0000      -0.400421       -10.8960
  63   2.0000      -0.349729        -9.5166
  64   2.0000      -0.331081        -9.0092
  65   2.0000      -0.329114        -8.9556
  66   2.0000      -0.286637        -7.7998
  67   0.0000       0.029625         0.8061
  68   0.0000       0.065354         1.7784
  69   0.0000       0.099070         2.6958
  70   0.0000       0.126418         3.4400
  71   0.0000       0.135958         3.6996

MULLIKEN ATOMIC CHARGES
-----------------------
   0 S :    0.114214
   1 C :   -0.109600
   2 C :   -0.072904
   3 C :    0.002569
   4 C :   -0.156096
   5 H :    0.024047
   6 C :    0.073643
   7 H :    0.019045
   8 H :    0.046873
   9 C :   -0.107571
  10 H :    0.030558
  11 H :    0.047913
  12 C :   -0.052420
  13 H :    0.022183
  14 H :    0.036094
  15 H :    0.025238
  16 S :    0.111521
  17 C :   -0.038775
  18 C :   -0.032518
  19 C :   -0.027629
  20 C :   -0.162117
  21 H :    0.001706
  22 C :    0.055090
  23 H :    0.012266
  24 H :    0.038335
  25 C :   -0.022250
  26 H :    0.021832
  27 H :    0.019257
  28 C :   -0.033232
  29 H :    0.011091
  30 H :    0.021239
  31 H :    0.021885
  32 H :    0.025405
  33 H :    0.033106
Sum of atomic charges:    0.0000000

LOEWDIN ATOMIC CHARGES
----------------------
   0 S :    0.418811
   1 C :   -0.190993
   2 C :   -0.052948
   3 C :   -0.076893
   4 C :   -0.203804
   5 H :    0.031445
   6 C :   -0.036654
   7 H :    0.030422
   8 H :    0.038956
   9 C :   -0.051251
  10 H :    0.021944
  11 H :    0.032878
  12 C :   -0.070171
  13 H :    0.019764
  14 H :    0.031161
  15 H :    0.021532
  16 S :    0.430720
  17 C :   -0.193352
  18 C :   -0.067982
  19 C :   -0.045161
  20 C :   -0.195449
  21 H :    0.024010
  22 C :   -0.035782
  23 H :    0.031940
  24 H :    0.034428
  25 C :   -0.032702
  26 H :    0.021433
  27 H :    0.023295
  28 C :   -0.062530
  29 H :    0.017328
  30 H :    0.032453
  31 H :    0.016023
  32 H :    0.015389
  33 H :    0.021739

  Mayer bond orders larger than 0.100000
B(  0-S ,  1-C ) :   1.1203 B(  0-S ,  4-C ) :   1.1758 B(  1-C ,  2-C ) :   1.5927
B(  1-C , 32-H ) :   0.9877 B(  2-C ,  3-C ) :   1.2557 B(  2-C ,  6-C ) :   1.0298
B(  3-C ,  4-C ) :   1.5192 B(  3-C ,  5-H ) :   0.9927 B(  4-C , 20-C ) :   1.0729
B(  6-C ,  7-H ) :   0.9327 B(  6-C ,  8-H ) :   0.9585 B(  6-C ,  9-C ) :   1.0166
B(  9-C , 10-H ) :   0.9583 B(  9-C , 11-H ) :   0.9647 B(  9-C , 12-C ) :   1.0872
B( 12-C , 13-H ) :   0.9730 B( 12-C , 14-H ) :   0.9727 B( 12-C , 15-H ) :   0.9765
B( 16-S , 17-C ) :   1.1718 B( 16-S , 20-C ) :   1.1322 B( 17-C , 18-C ) :   1.5951
B( 17-C , 33-H ) :   0.9687 B( 18-C , 19-C ) :   1.2534 B( 18-C , 21-H ) :   0.9963
B( 19-C , 20-C ) :   1.5568 B( 19-C , 22-C ) :   1.0495 B( 22-C , 23-H ) :   0.9326
B( 22-C , 24-H ) :   0.9285 B( 22-C , 25-C ) :   1.0732 B( 25-C , 26-H ) :   0.9499
B( 25-C , 27-H ) :   0.9539 B( 25-C , 28-C ) :   1.0768 B( 28-C , 29-H ) :   0.9736
B( 28-C , 30-H ) :   0.9706 B( 28-C , 31-H ) :   0.9775

Dispersion correction           -0.013707469
FINAL SINGLE POINT ENERGY     -1339.862068878027

DIPOLE MOMENT
-------------
                                X             Y             Z
Electronic contribution:     -7.73037      -6.45293      -6.15340
Nuclear contribution   :      7.64744       6.69385       6.31974
                        -----------------------------------------
Total Dipole Moment    :     -0.08293       0.24093       0.16634
                        -----------------------------------------
Magnitude (a.u.)       :      0.30429
Magnitude (Debye)      :      0.77344

Rotational constants in cm-1:     0.022585     0.007413     0.005954
Rotational constants in MHz :   677.090076   222.226384   178.486393

                             ****ORCA TERMINATED NORMALLY****
TOTAL RUN TIME: 0 days 0 hours 0 minutes 21 seconds 889 msec
