                         Program Version 4.2.1 -  RELEASE  -
|  1> ! wB97X-D3 SP def2-SVP
|  2> %pal
|  3> nprocs 24
|  4> end
|  5>
|  6> * xyz 0 1
|  7> S 	 -46.9732 	 2.89066 	 -17.6012
|  8> C 	 -48.0036 	 1.62929 	 -18.4902
|  9> C 	 -49.3639 	 1.73198 	 -18.2007
| 10> C 	 -49.6271 	 2.83455 	 -17.3152
| 11> C 	 -48.5131 	 3.52919 	 -16.9145
| 12> H 	 -50.6091 	 3.11668 	 -16.8522
| 13> C 	 -50.4643 	 0.748335 	 -18.6082
| 14> H 	 -51.0418 	 0.35791 	 -17.7774
| 15> H 	 -49.9755 	 -0.117807 	 -19.1656
| 16> C 	 -51.5349 	 1.35579 	 -19.5961
| 17> H 	 -51.8412 	 2.33343 	 -19.1962
| 18> H 	 -51.143 	 1.68408 	 -20.5391
| 19> C 	 -52.8003 	 0.440252 	 -19.7359
| 20> H 	 -53.3726 	 0.812224 	 -20.6344
| 21> H 	 -52.6126 	 -0.632863 	 -19.8143
| 22> H 	 -53.5734 	 0.672865 	 -18.9588
| 23> S 	 -48.2419 	 6.22077 	 -17.3029
| 24> C 	 -48.059 	 7.24524 	 -15.7935
| 25> C 	 -48.484 	 6.53443 	 -14.7003
| 26> C 	 -48.7877 	 5.22201 	 -14.9358
| 27> C 	 -48.5508 	 4.81123 	 -16.2821
| 28> H 	 -48.495 	 7.00565 	 -13.6952
| 29> C 	 -49.1251 	 4.3502 	 -13.7846
| 30> H 	 -49.7329 	 3.56718 	 -14.1661
| 31> H 	 -49.7028 	 4.9669 	 -13.1471
| 32> C 	 -48.03 	 3.70002 	 -12.9698
| 33> H 	 -47.3618 	 3.17927 	 -13.747
| 34> H 	 -48.449 	 3.00342 	 -12.2893
| 35> C 	 -47.0446 	 4.72166 	 -12.1714
| 36> H 	 -46.304 	 4.97999 	 -12.9151
| 37> H 	 -46.5887 	 4.23627 	 -11.2999
| 38> H 	 -47.4416 	 5.65881 	 -11.9158
| 39> H 	 -47.5779 	 0.762991 	 -18.9368
| 40> H 	 -47.7229 	 8.30243 	 -15.7677
| 41> *
| 42>
| 43>                          ****END OF INPUT****

CARTESIAN COORDINATES (ANGSTROEM)
---------------------------------
  S    -46.973200    2.890660  -17.601200
  C    -48.003600    1.629290  -18.490200
  C    -49.363900    1.731980  -18.200700
  C    -49.627100    2.834550  -17.315200
  C    -48.513100    3.529190  -16.914500
  H    -50.609100    3.116680  -16.852200
  C    -50.464300    0.748335  -18.608200
  H    -51.041800    0.357910  -17.777400
  H    -49.975500   -0.117807  -19.165600
  C    -51.534900    1.355790  -19.596100
  H    -51.841200    2.333430  -19.196200
  H    -51.143000    1.684080  -20.539100
  C    -52.800300    0.440252  -19.735900
  H    -53.372600    0.812224  -20.634400
  H    -52.612600   -0.632863  -19.814300
  H    -53.573400    0.672865  -18.958800
  S    -48.241900    6.220770  -17.302900
  C    -48.059000    7.245240  -15.793500
  C    -48.484000    6.534430  -14.700300
  C    -48.787700    5.222010  -14.935800
  C    -48.550800    4.811230  -16.282100
  H    -48.495000    7.005650  -13.695200
  C    -49.125100    4.350200  -13.784600
  H    -49.732900    3.567180  -14.166100
  H    -49.702800    4.966900  -13.147100
  C    -48.030000    3.700020  -12.969800
  H    -47.361800    3.179270  -13.747000
  H    -48.449000    3.003420  -12.289300
  C    -47.044600    4.721660  -12.171400
  H    -46.304000    4.979990  -12.915100
  H    -46.588700    4.236270  -11.299900
  H    -47.441600    5.658810  -11.915800
  H    -47.577900    0.762991  -18.936800
  H    -47.722900    8.302430  -15.767700

 Total Charge           Charge          ....    0
 Multiplicity           Mult            ....    1
 Number of Electrons    NEL             ....  134
 Basis Dimension        Dim             ....  322

ORBITAL ENERGIES
----------------

  NO   OCC          E(Eh)            E(eV)
   0   2.0000     -88.969942     -2420.9952
   1   2.0000     -88.965750     -2420.8811
   2   2.0000     -10.331184      -281.1258
   3   2.0000     -10.326547      -280.9996
   4   2.0000     -10.324283      -280.9380
   5   2.0000     -10.322200      -280.8813
   6   2.0000     -10.311229      -280.5828
   7   2.0000     -10.304854      -280.4093
   8   2.0000     -10.301721      -280.3241
   9   2.0000     -10.297100      -280.1983
  10   2.0000     -10.291853      -280.0556
  11   2.0000     -10.291002      -280.0324
  12   2.0000     -10.290126      -280.0086
  13   2.0000     -10.289841      -280.0008
  14   2.0000     -10.278685      -279.6972
  15   2.0000     -10.274742      -279.5900
  16   2.0000      -8.082322      -219.9312
  17   2.0000      -8.078913      -219.8384
  18   2.0000      -6.040996      -164.3839
  19   2.0000      -6.037518      -164.2892
  20   2.0000      -6.037433      -164.2869
  21   2.0000      -6.033712      -164.1856
  22   2.0000      -6.032749      -164.1594
  23   2.0000      -6.029585      -164.0733
  24   2.0000      -0.999157       -27.1884
  25   2.0000      -0.973262       -26.4838
  26   2.0000      -0.907917       -24.7057
  27   2.0000      -0.901982       -24.5442
  28   2.0000      -0.868161       -23.6239
  29   2.0000      -0.841418       -22.8961
  30   2.0000      -0.839666       -22.8485
  31   2.0000      -0.811521       -22.0826
  32   2.0000      -0.782469       -21.2921
  33   2.0000      -0.769723       -20.9452
  34   2.0000      -0.713938       -19.4272
  35   2.0000      -0.701196       -19.0805
  36   2.0000      -0.690738       -18.7959
  37   2.0000      -0.660377       -17.9698
  38   2.0000      -0.642778       -17.4909
  39   2.0000      -0.612978       -16.6800
  40   2.0000      -0.589454       -16.0398
  41   2.0000      -0.566056       -15.4032
  42   2.0000      -0.555285       -15.1101
  43   2.0000      -0.549981       -14.9657
  44   2.0000      -0.542652       -14.7663
  45   2.0000      -0.521705       -14.1963
  46   2.0000      -0.515609       -14.0304
  47   2.0000      -0.506165       -13.7734
  48   2.0000      -0.501435       -13.6447
  49   2.0000      -0.491543       -13.3756
  50   2.0000      -0.484447       -13.1825
  51   2.0000      -0.481151       -13.0928
  52   2.0000      -0.467900       -12.7322
  53   2.0000      -0.466873       -12.7042
  54   2.0000      -0.455151       -12.3853
  55   2.0000      -0.450528       -12.2595
  56   2.0000      -0.443866       -12.0782
  57   2.0000      -0.436445       -11.8763
  58   2.0000      -0.435169       -11.8415
  59   2.0000      -0.423901       -11.5349
  60   2.0000      -0.415740       -11.3129
  61   2.0000      -0.412672       -11.2294
  62   2.0000      -0.411376       -11.1941
  63   2.0000      -0.344004        -9.3608
  64   2.0000      -0.329156        -8.9568
  65   2.0000      -0.325085        -8.8460
  66   2.0000      -0.294808        -8.0221
  67   0.0000       0.026948         0.7333
  68   0.0000       0.048032         1.3070
  69   0.0000       0.093108         2.5336
  70   0.0000       0.105290         2.8651
  71   0.0000       0.126750         3.4490

MULLIKEN ATOMIC CHARGES
-----------------------
   0 S :    0.096798
   1 C :   -0.116074
   2 C :   -0.057914
   3 C :    0.027803
   4 C :   -0.174468
   5 H :    0.040558
   6 C :    0.050724
   7 H :    0.038979
   8 H :    0.033183
   9 C :   -0.081523
  10 H :    0.021806
  11 H :    0.026363
  12 C :   -0.082119
  13 H :    0.037688
  14 H :    0.049468
  15 H :    0.041202
  16 S :    0.105907
  17 C :   -0.120115
  18 C :   -0.042079
  19 C :   -0.021835
  20 C :   -0.184812
  21 H :    0.031873
  22 C :    0.115624
  23 H :    0.007823
  24 H :    0.008044
  25 C :   -0.078233
  26 H :    0.043017
  27 H :    0.032603
  28 C :   -0.057012
  29 H :    0.037167
  30 H :    0.044382
  31 H :    0.012159
  32 H :    0.043950
  33 H :    0.069064
Sum of atomic charges:   -0.0000000

LOEWDIN ATOMIC CHARGES
----------------------
   0 S :    0.345107
   1 C :   -0.157172
   2 C :   -0.059022
   3 C :   -0.056362
   4 C :   -0.185601
   5 H :    0.042686
   6 C :   -0.030439
   7 H :    0.032153
   8 H :    0.035599
   9 C :   -0.042188
  10 H :    0.023947
  11 H :    0.020451
  12 C :   -0.079300
  13 H :    0.035268
  14 H :    0.025587
  15 H :    0.031471
  16 S :    0.375265
  17 C :   -0.167960
  18 C :   -0.076368
  19 C :   -0.059369
  20 C :   -0.196788
  21 H :    0.039942
  22 C :   -0.032095
  23 H :    0.027862
  24 H :    0.024840
  25 C :   -0.028097
  26 H :    0.035255
  27 H :    0.017724
  28 C :   -0.069295
  29 H :    0.029187
  30 H :    0.029922
  31 H :    0.010194
  32 H :    0.020657
  33 H :    0.036939

  Mayer bond orders larger than 0.100000
B(  0-S ,  1-C ) :   1.1092 B(  0-S ,  4-C ) :   1.1123 B(  1-C ,  2-C ) :   1.6578
B(  1-C , 32-H ) :   0.9646 B(  2-C ,  3-C ) :   1.1894 B(  2-C ,  6-C ) :   1.0286
B(  3-C ,  4-C ) :   1.6397 B(  3-C ,  5-H ) :   0.9764 B(  4-C , 20-C ) :   1.0452
B(  6-C ,  7-H ) :   0.9485 B(  6-C ,  8-H ) :   0.9416 B(  6-C ,  9-C ) :   1.0427
B(  9-C , 10-H ) :   0.9596 B(  9-C , 11-H ) :   0.9611 B(  9-C , 12-C ) :   1.0677
B( 12-C , 13-H ) :   0.9737 B( 12-C , 14-H ) :   0.9778 B( 12-C , 15-H ) :   0.9757
B( 16-S , 17-C ) :   1.1371 B( 16-S , 20-C ) :   1.1504 B( 17-C , 18-C ) :   1.5983
B( 17-C , 20-C ) :   0.1168 B( 17-C , 33-H ) :   0.9630 B( 18-C , 19-C ) :   1.2796
B( 18-C , 21-H ) :   0.9772 B( 19-C , 20-C ) :   1.5444 B( 19-C , 22-C ) :   1.0534
B( 22-C , 23-H ) :   0.9164 B( 22-C , 24-H ) :   0.9257 B( 22-C , 25-C ) :   1.0821
B( 25-C , 26-H ) :   0.9593 B( 25-C , 27-H ) :   0.9608 B( 25-C , 28-C ) :   1.0546
B( 28-C , 29-H ) :   0.9774 B( 28-C , 30-H ) :   0.9779 B( 28-C , 31-H ) :   0.9801

Dispersion correction           -0.014286228
FINAL SINGLE POINT ENERGY     -1339.849428582754

DIPOLE MOMENT
-------------
                                X             Y             Z
Electronic contribution:     13.72536      12.16120      -8.02613
Nuclear contribution   :    -14.20287     -12.42282       8.32652
                        -----------------------------------------
Total Dipole Moment    :     -0.47751      -0.26162       0.30039
                        -----------------------------------------
Magnitude (a.u.)       :      0.62185
Magnitude (Debye)      :      1.58062

Rotational constants in cm-1:     0.020975     0.007125     0.006769
Rotational constants in MHz :   628.828278   213.590923   202.918473

                             ****ORCA TERMINATED NORMALLY****
TOTAL RUN TIME: 0 days 0 hours 0 minutes 20 seconds 46 msec
