                         Program Version 4.2.1 -  RELEASE  -
|  1> ! wB97X-D3 SP def2-SVP
|  2> %pal
|  3> nprocs 24
|  4> end
|  5>
|  6> * xyz 0 1
|  7> S 	 -108.485 	 54.9835 	 -97.4061
|  8> C 	 -108.151 	 53.6733 	 -96.2794
|  9> C 	 -107.499 	 52.6183 	 -96.8948
| 10> C 	 -107.338 	 52.8366 	 -98.2716
| 11> C 	 -107.754 	 54.075 	 -98.7332
| 12> H 	 -106.998 	 52.038 	 -98.9728
| 13> C 	 -107.002 	 51.3777 	 -96.202
| 14> H 	 -107.35 	 50.6661 	 -96.8828
| 15> H 	 -107.439 	 51.291 	 -95.1998
| 16> C 	 -105.461 	 51.3145 	 -96.1424
| 17> H 	 -105.15 	 50.2847 	 -96.0829
| 18> H 	 -104.903 	 51.663 	 -97.0461
| 19> C 	 -104.823 	 52.1946 	 -95.0778
| 20> H 	 -105.114 	 52.0031 	 -94.0769
| 21> H 	 -103.727 	 52.0893 	 -95.116
| 22> H 	 -104.961 	 53.2481 	 -95.2975
| 23> S 	 -106.721 	 56.0468 	 -100.174
| 24> C 	 -107.207 	 56.3379 	 -101.825
| 25> C 	 -108.053 	 55.3545 	 -102.304
| 26> C 	 -108.491 	 54.4662 	 -101.275
| 27> C 	 -107.817 	 54.694 	 -100.058
| 28> H 	 -108.312 	 55.423 	 -103.368
| 29> C 	 -109.482 	 53.3364 	 -101.494
| 30> H 	 -109.048 	 52.4553 	 -100.955
| 31> H 	 -109.482 	 53.1852 	 -102.533
| 32> C 	 -110.912 	 53.6198 	 -101.074
| 33> H 	 -111.394 	 54.4761 	 -101.631
| 34> H 	 -110.833 	 54.0069 	 -100.057
| 35> C 	 -111.82 	 52.4128 	 -101.267
| 36> H 	 -111.373 	 51.6801 	 -100.647
| 37> H 	 -111.984 	 52.1153 	 -102.34
| 38> H 	 -112.861 	 52.638 	 -100.939
| 39> H 	 -108.336 	 53.6823 	 -95.2197
| 40> H 	 -106.818 	 57.1603 	 -102.432
| 41> *
| 42>
| 43>                          ****END OF INPUT****

CARTESIAN COORDINATES (ANGSTROEM)
---------------------------------
  S    -108.485000   54.983500  -97.406100
  C    -108.151000   53.673300  -96.279400
  C    -107.499000   52.618300  -96.894800
  C    -107.338000   52.836600  -98.271600
  C    -107.754000   54.075000  -98.733200
  H    -106.998000   52.038000  -98.972800
  C    -107.002000   51.377700  -96.202000
  H    -107.350000   50.666100  -96.882800
  H    -107.439000   51.291000  -95.199800
  C    -105.461000   51.314500  -96.142400
  H    -105.150000   50.284700  -96.082900
  H    -104.903000   51.663000  -97.046100
  C    -104.823000   52.194600  -95.077800
  H    -105.114000   52.003100  -94.076900
  H    -103.727000   52.089300  -95.116000
  H    -104.961000   53.248100  -95.297500
  S    -106.721000   56.046800  -100.174000
  C    -107.207000   56.337900  -101.825000
  C    -108.053000   55.354500  -102.304000
  C    -108.491000   54.466200  -101.275000
  C    -107.817000   54.694000  -100.058000
  H    -108.312000   55.423000  -103.368000
  C    -109.482000   53.336400  -101.494000
  H    -109.048000   52.455300  -100.955000
  H    -109.482000   53.185200  -102.533000
  C    -110.912000   53.619800  -101.074000
  H    -111.394000   54.476100  -101.631000
  H    -110.833000   54.006900  -100.057000
  C    -111.820000   52.412800  -101.267000
  H    -111.373000   51.680100  -100.647000
  H    -111.984000   52.115300  -102.340000
  H    -112.861000   52.638000  -100.939000
  H    -108.336000   53.682300  -95.219700
  H    -106.818000   57.160300  -102.432000

 Total Charge           Charge          ....    0
 Multiplicity           Mult            ....    1
 Number of Electrons    NEL             ....  134
 Basis Dimension        Dim             ....  322

ORBITAL ENERGIES
----------------

  NO   OCC          E(Eh)            E(eV)
   0   2.0000     -88.964964     -2420.8597
   1   2.0000     -88.963721     -2420.8259
   2   2.0000     -10.332030      -281.1488
   3   2.0000     -10.325996      -280.9846
   4   2.0000     -10.316267      -280.7199
   5   2.0000     -10.311912      -280.6014
   6   2.0000     -10.307695      -280.4866
   7   2.0000     -10.297270      -280.2030
   8   2.0000     -10.296461      -280.1809
   9   2.0000     -10.296164      -280.1729
  10   2.0000     -10.291355      -280.0420
  11   2.0000     -10.287841      -279.9464
  12   2.0000     -10.287203      -279.9290
  13   2.0000     -10.283182      -279.8196
  14   2.0000     -10.278466      -279.6913
  15   2.0000     -10.271910      -279.5129
  16   2.0000      -8.079197      -219.8461
  17   2.0000      -8.078740      -219.8337
  18   2.0000      -6.037693      -164.2940
  19   2.0000      -6.037082      -164.2773
  20   2.0000      -6.033738      -164.1864
  21   2.0000      -6.033114      -164.1694
  22   2.0000      -6.030019      -164.0852
  23   2.0000      -6.029749      -164.0778
  24   2.0000      -1.005584       -27.3633
  25   2.0000      -0.983315       -26.7574
  26   2.0000      -0.914581       -24.8870
  27   2.0000      -0.910116       -24.7655
  28   2.0000      -0.868163       -23.6239
  29   2.0000      -0.849181       -23.1074
  30   2.0000      -0.846877       -23.0447
  31   2.0000      -0.814913       -22.1749
  32   2.0000      -0.785188       -21.3661
  33   2.0000      -0.769825       -20.9480
  34   2.0000      -0.708328       -19.2746
  35   2.0000      -0.696189       -18.9443
  36   2.0000      -0.688232       -18.7277
  37   2.0000      -0.660479       -17.9726
  38   2.0000      -0.639352       -17.3976
  39   2.0000      -0.622579       -16.9412
  40   2.0000      -0.591075       -16.0840
  41   2.0000      -0.571244       -15.5443
  42   2.0000      -0.564442       -15.3593
  43   2.0000      -0.555362       -15.1122
  44   2.0000      -0.538875       -14.6635
  45   2.0000      -0.525372       -14.2961
  46   2.0000      -0.519754       -14.1432
  47   2.0000      -0.511678       -13.9235
  48   2.0000      -0.503582       -13.7032
  49   2.0000      -0.496847       -13.5199
  50   2.0000      -0.487785       -13.2733
  51   2.0000      -0.478235       -13.0134
  52   2.0000      -0.471140       -12.8204
  53   2.0000      -0.463527       -12.6132
  54   2.0000      -0.460248       -12.5240
  55   2.0000      -0.449771       -12.2389
  56   2.0000      -0.442662       -12.0455
  57   2.0000      -0.436447       -11.8763
  58   2.0000      -0.431483       -11.7412
  59   2.0000      -0.429390       -11.6843
  60   2.0000      -0.421011       -11.4563
  61   2.0000      -0.411961       -11.2100
  62   2.0000      -0.406973       -11.0743
  63   2.0000      -0.338044        -9.1987
  64   2.0000      -0.328607        -8.9419
  65   2.0000      -0.326547        -8.8858
  66   2.0000      -0.299692        -8.1550
  67   0.0000       0.038075         1.0361
  68   0.0000       0.058246         1.5850
  69   0.0000       0.114869         3.1257
  70   0.0000       0.118072         3.2129
  71   0.0000       0.134067         3.6481

MULLIKEN ATOMIC CHARGES
-----------------------
   0 S :    0.113300
   1 C :   -0.114443
   2 C :   -0.127259
   3 C :    0.039865
   4 C :   -0.168345
   5 H :    0.025973
   6 C :    0.137368
   7 H :    0.013923
   8 H :    0.026949
   9 C :   -0.089786
  10 H :    0.024184
  11 H :    0.033891
  12 C :   -0.045491
  13 H :    0.019464
  14 H :    0.029289
  15 H :    0.037285
  16 S :    0.112177
  17 C :   -0.101676
  18 C :   -0.056464
  19 C :   -0.019724
  20 C :   -0.187815
  21 H :    0.029498
  22 C :    0.103915
  23 H :    0.032065
  24 H :   -0.003400
  25 C :   -0.090764
  26 H :    0.027119
  27 H :    0.029593
  28 C :   -0.034577
  29 H :    0.028077
  30 H :    0.040182
  31 H :    0.036715
  32 H :    0.037935
  33 H :    0.060978
Sum of atomic charges:   -0.0000000

LOEWDIN ATOMIC CHARGES
----------------------
   0 S :    0.399704
   1 C :   -0.195952
   2 C :   -0.067684
   3 C :   -0.066968
   4 C :   -0.198185
   5 H :    0.038237
   6 C :   -0.020355
   7 H :    0.027543
   8 H :    0.033980
   9 C :   -0.043409
  10 H :    0.019799
  11 H :    0.033320
  12 C :   -0.065079
  13 H :    0.013627
  14 H :    0.030468
  15 H :    0.027927
  16 S :    0.418490
  17 C :   -0.188433
  18 C :   -0.077878
  19 C :   -0.049297
  20 C :   -0.212616
  21 H :    0.038273
  22 C :   -0.029272
  23 H :    0.036712
  24 H :    0.020929
  25 C :   -0.046196
  26 H :    0.027079
  27 H :    0.023950
  28 C :   -0.066508
  29 H :    0.019965
  30 H :    0.031672
  31 H :    0.030675
  32 H :    0.024727
  33 H :    0.030756

  Mayer bond orders larger than 0.100000
B(  0-S ,  1-C ) :   1.1362 B(  0-S ,  4-C ) :   1.1572 B(  1-C ,  2-C ) :   1.6095
B(  1-C ,  4-C ) :   0.1070 B(  1-C , 32-H ) :   0.9674 B(  2-C ,  3-C ) :   1.2495
B(  2-C ,  6-C ) :   1.0137 B(  3-C ,  4-C ) :   1.5905 B(  3-C ,  5-H ) :   0.9850
B(  4-C , 20-C ) :   0.9939 B(  6-C ,  7-H ) :   0.9254 B(  6-C ,  8-H ) :   0.9448
B(  6-C ,  9-C ) :   1.0666 B(  9-C , 10-H ) :   0.9583 B(  9-C , 11-H ) :   0.9584
B(  9-C , 12-C ) :   1.0733 B( 12-C , 13-H ) :   0.9770 B( 12-C , 14-H ) :   0.9715
B( 12-C , 15-H ) :   0.9754 B( 16-S , 17-C ) :   1.1640 B( 16-S , 20-C ) :   1.1657
B( 17-C , 18-C ) :   1.6098 B( 17-C , 20-C ) :   0.1066 B( 17-C , 33-H ) :   0.9645
B( 18-C , 19-C ) :   1.2404 B( 18-C , 21-H ) :   0.9886 B( 19-C , 20-C ) :   1.5791
B( 19-C , 22-C ) :   1.0389 B( 22-C , 23-H ) :   0.9344 B( 22-C , 24-H ) :   0.9210
B( 22-C , 25-C ) :   1.0695 B( 25-C , 26-H ) :   0.9511 B( 25-C , 27-H ) :   0.9553
B( 25-C , 28-C ) :   1.0806 B( 28-C , 29-H ) :   0.9753 B( 28-C , 30-H ) :   0.9729
B( 28-C , 31-H ) :   0.9724

Dispersion correction           -0.014242295
FINAL SINGLE POINT ENERGY     -1339.882057305703

DIPOLE MOMENT
-------------
                                X             Y             Z
Electronic contribution:      3.70449      18.97559      -2.75524
Nuclear contribution   :     -3.70021     -19.46817       2.59659
                        -----------------------------------------
Total Dipole Moment    :      0.00428      -0.49258      -0.15864
                        -----------------------------------------
Magnitude (a.u.)       :      0.51752
Magnitude (Debye)      :      1.31542

Rotational constants in cm-1:     0.019213     0.008376     0.006929
Rotational constants in MHz :   575.985578   251.108659   207.727255

                             ****ORCA TERMINATED NORMALLY****
TOTAL RUN TIME: 0 days 0 hours 0 minutes 21 seconds 364 msec
