                         Program Version 4.2.1 -  RELEASE  -
|  1> ! wB97X-D3 SP def2-SVP
|  2> %pal
|  3> nprocs 24
|  4> end
|  5>
|  6> * xyz 0 1
|  7> S 	 -41.3724 	 -9.61706 	 7.60325
|  8> C 	 -40.3839 	 -10.4701 	 6.4867
|  9> C 	 -39.1562 	 -9.83437 	 6.30587
| 10> C 	 -39.0826 	 -8.66643 	 7.1096
| 11> C 	 -40.2319 	 -8.31853 	 7.73157
| 12> H 	 -38.2028 	 -8.07643 	 7.43596
| 13> C 	 -38.0045 	 -10.3844 	 5.47218
| 14> H 	 -37.7417 	 -11.4395 	 5.82592
| 15> H 	 -37.104 	 -9.81904 	 5.77262
| 16> C 	 -38.2733 	 -10.1381 	 4.01833
| 17> H 	 -37.4929 	 -10.5409 	 3.44447
| 18> H 	 -39.048 	 -10.8201 	 3.61549
| 19> C 	 -38.4053 	 -8.70058 	 3.66071
| 20> H 	 -39.4525 	 -8.50718 	 3.7654
| 21> H 	 -37.7989 	 -8.12465 	 4.39975
| 22> H 	 -38.0287 	 -8.52433 	 2.68114
| 23> S 	 -41.0081 	 -7.46329 	 10.2576
| 24> C 	 -40.8679 	 -5.77702 	 10.6587
| 25> C 	 -40.7061 	 -4.99603 	 9.55508
| 26> C 	 -40.5021 	 -5.77574 	 8.32974
| 27> C 	 -40.4599 	 -7.15363 	 8.59066
| 28> H 	 -40.5691 	 -3.91237 	 9.6025
| 29> C 	 -40.3346 	 -5.16683 	 6.96717
| 30> H 	 -39.3839 	 -5.52571 	 6.67409
| 31> H 	 -40.2739 	 -4.09055 	 6.9511
| 32> C 	 -41.3768 	 -5.47789 	 5.89664
| 33> H 	 -42.1129 	 -4.68332 	 5.93398
| 34> H 	 -41.9416 	 -6.39064 	 6.16943
| 35> C 	 -41.027 	 -5.61869 	 4.36386
| 36> H 	 -40.2991 	 -4.83701 	 4.05778
| 37> H 	 -41.8964 	 -5.61004 	 3.67815
| 38> H 	 -40.4793 	 -6.56612 	 4.2324
| 39> H 	 -40.6012 	 -11.4882 	 6.12548
| 40> H 	 -40.9764 	 -5.36527 	 11.6742
| 41> *
| 42>
| 43>                          ****END OF INPUT****

CARTESIAN COORDINATES (ANGSTROEM)
---------------------------------
  S    -41.372400   -9.617060    7.603250
  C    -40.383900  -10.470100    6.486700
  C    -39.156200   -9.834370    6.305870
  C    -39.082600   -8.666430    7.109600
  C    -40.231900   -8.318530    7.731570
  H    -38.202800   -8.076430    7.435960
  C    -38.004500  -10.384400    5.472180
  H    -37.741700  -11.439500    5.825920
  H    -37.104000   -9.819040    5.772620
  C    -38.273300  -10.138100    4.018330
  H    -37.492900  -10.540900    3.444470
  H    -39.048000  -10.820100    3.615490
  C    -38.405300   -8.700580    3.660710
  H    -39.452500   -8.507180    3.765400
  H    -37.798900   -8.124650    4.399750
  H    -38.028700   -8.524330    2.681140
  S    -41.008100   -7.463290   10.257600
  C    -40.867900   -5.777020   10.658700
  C    -40.706100   -4.996030    9.555080
  C    -40.502100   -5.775740    8.329740
  C    -40.459900   -7.153630    8.590660
  H    -40.569100   -3.912370    9.602500
  C    -40.334600   -5.166830    6.967170
  H    -39.383900   -5.525710    6.674090
  H    -40.273900   -4.090550    6.951100
  C    -41.376800   -5.477890    5.896640
  H    -42.112900   -4.683320    5.933980
  H    -41.941600   -6.390640    6.169430
  C    -41.027000   -5.618690    4.363860
  H    -40.299100   -4.837010    4.057780
  H    -41.896400   -5.610040    3.678150
  H    -40.479300   -6.566120    4.232400
  H    -40.601200  -11.488200    6.125480
  H    -40.976400   -5.365270   11.674200

 Total Charge           Charge          ....    0
 Multiplicity           Mult            ....    1
 Number of Electrons    NEL             ....  134
 Basis Dimension        Dim             ....  322

ORBITAL ENERGIES
----------------

  NO   OCC          E(Eh)            E(eV)
   0   2.0000     -88.965379     -2420.8710
   1   2.0000     -88.963443     -2420.8184
   2   2.0000     -10.329284      -281.0741
   3   2.0000     -10.323687      -280.9218
   4   2.0000     -10.318691      -280.7858
   5   2.0000     -10.314636      -280.6755
   6   2.0000     -10.310872      -280.5731
   7   2.0000     -10.301056      -280.3060
   8   2.0000     -10.297538      -280.2103
   9   2.0000     -10.296541      -280.1831
  10   2.0000     -10.291598      -280.0486
  11   2.0000     -10.285907      -279.8938
  12   2.0000     -10.282023      -279.7881
  13   2.0000     -10.281269      -279.7676
  14   2.0000     -10.275984      -279.6237
  15   2.0000     -10.271583      -279.5040
  16   2.0000      -8.080897      -219.8924
  17   2.0000      -8.078167      -219.8181
  18   2.0000      -6.039259      -164.3366
  19   2.0000      -6.036788      -164.2694
  20   2.0000      -6.035248      -164.2275
  21   2.0000      -6.032771      -164.1601
  22   2.0000      -6.031818      -164.1341
  23   2.0000      -6.028719      -164.0498
  24   2.0000      -1.010355       -27.4932
  25   2.0000      -0.985278       -26.8108
  26   2.0000      -0.922128       -25.0924
  27   2.0000      -0.904512       -24.6130
  28   2.0000      -0.869746       -23.6670
  29   2.0000      -0.850506       -23.1434
  30   2.0000      -0.841291       -22.8927
  31   2.0000      -0.816851       -22.2276
  32   2.0000      -0.783043       -21.3077
  33   2.0000      -0.772008       -21.0074
  34   2.0000      -0.704390       -19.1674
  35   2.0000      -0.701856       -19.0985
  36   2.0000      -0.686696       -18.6859
  37   2.0000      -0.659225       -17.9384
  38   2.0000      -0.643991       -17.5239
  39   2.0000      -0.608878       -16.5684
  40   2.0000      -0.593733       -16.1563
  41   2.0000      -0.576827       -15.6963
  42   2.0000      -0.564212       -15.3530
  43   2.0000      -0.558753       -15.2045
  44   2.0000      -0.541762       -14.7421
  45   2.0000      -0.518879       -14.1194
  46   2.0000      -0.513993       -13.9865
  47   2.0000      -0.505942       -13.7674
  48   2.0000      -0.504787       -13.7359
  49   2.0000      -0.500264       -13.6129
  50   2.0000      -0.491046       -13.3620
  51   2.0000      -0.481648       -13.1063
  52   2.0000      -0.473711       -12.8903
  53   2.0000      -0.465739       -12.6734
  54   2.0000      -0.458720       -12.4824
  55   2.0000      -0.448271       -12.1981
  56   2.0000      -0.443220       -12.0606
  57   2.0000      -0.436168       -11.8687
  58   2.0000      -0.432420       -11.7667
  59   2.0000      -0.424705       -11.5568
  60   2.0000      -0.414075       -11.2675
  61   2.0000      -0.409354       -11.1391
  62   2.0000      -0.401320       -10.9205
  63   2.0000      -0.345235        -9.3943
  64   2.0000      -0.330332        -8.9888
  65   2.0000      -0.326733        -8.8909
  66   2.0000      -0.294802        -8.0220
  67   0.0000       0.031715         0.8630
  68   0.0000       0.062788         1.7086
  69   0.0000       0.109112         2.9691
  70   0.0000       0.119196         3.2435
  71   0.0000       0.131839         3.5875

MULLIKEN ATOMIC CHARGES
-----------------------
   0 S :    0.118652
   1 C :   -0.128400
   2 C :   -0.107057
   3 C :    0.021166
   4 C :   -0.171253
   5 H :    0.031343
   6 C :    0.049333
   7 H :    0.046974
   8 H :    0.019259
   9 C :   -0.055432
  10 H :   -0.000890
  11 H :    0.021044
  12 C :   -0.025806
  13 H :    0.065388
  14 H :    0.026830
  15 H :    0.030866
  16 S :    0.096432
  17 C :   -0.090278
  18 C :   -0.027759
  19 C :   -0.060941
  20 C :   -0.171929
  21 H :    0.027064
  22 C :    0.144903
  23 H :    0.010637
  24 H :    0.011481
  25 C :   -0.101311
  26 H :    0.020849
  27 H :    0.037959
  28 C :   -0.066271
  29 H :    0.028453
  30 H :    0.046666
  31 H :    0.026498
  32 H :    0.058765
  33 H :    0.066769
Sum of atomic charges:   -0.0000000

LOEWDIN ATOMIC CHARGES
----------------------
   0 S :    0.424373
   1 C :   -0.208516
   2 C :   -0.067229
   3 C :   -0.072681
   4 C :   -0.207756
   5 H :    0.040647
   6 C :   -0.034463
   7 H :    0.039549
   8 H :    0.028686
   9 C :   -0.050688
  10 H :    0.014397
  11 H :    0.025902
  12 C :   -0.053229
  13 H :    0.028211
  14 H :    0.030614
  15 H :    0.024710
  16 S :    0.388949
  17 C :   -0.184817
  18 C :   -0.076467
  19 C :   -0.040998
  20 C :   -0.192261
  21 H :    0.034575
  22 C :   -0.032904
  23 H :    0.028774
  24 H :    0.030066
  25 C :   -0.043973
  26 H :    0.019383
  27 H :    0.026002
  28 C :   -0.069763
  29 H :    0.023730
  30 H :    0.031830
  31 H :    0.024701
  32 H :    0.033888
  33 H :    0.036758

  Mayer bond orders larger than 0.100000
B(  0-S ,  1-C ) :   1.1605 B(  0-S ,  4-C ) :   1.1520 B(  1-C ,  2-C ) :   1.5851
B(  1-C , 32-H ) :   0.9662 B(  2-C ,  3-C ) :   1.2533 B(  2-C ,  6-C ) :   1.0092
B(  3-C ,  4-C ) :   1.5996 B(  3-C ,  5-H ) :   0.9813 B(  4-C , 20-C ) :   1.0307
B(  6-C ,  7-H ) :   0.9435 B(  6-C ,  8-H ) :   0.9423 B(  6-C ,  9-C ) :   1.0797
B(  9-C , 10-H ) :   0.9488 B(  9-C , 11-H ) :   0.9516 B(  9-C , 12-C ) :   1.0650
B( 12-C , 13-H ) :   0.9638 B( 12-C , 14-H ) :   0.9755 B( 12-C , 15-H ) :   0.9707
B( 16-S , 17-C ) :   1.1502 B( 16-S , 20-C ) :   1.1214 B( 17-C , 18-C ) :   1.6296
B( 17-C , 33-H ) :   0.9631 B( 18-C , 19-C ) :   1.2249 B( 18-C , 21-H ) :   0.9860
B( 19-C , 20-C ) :   1.6093 B( 19-C , 22-C ) :   1.0430 B( 22-C , 23-H ) :   0.9279
B( 22-C , 24-H ) :   0.9320 B( 22-C , 25-C ) :   1.0402 B( 25-C , 26-H ) :   0.9609
B( 25-C , 27-H ) :   0.9654 B( 25-C , 28-C ) :   1.0733 B( 28-C , 29-H ) :   0.9748
B( 28-C , 30-H ) :   0.9738 B( 28-C , 31-H ) :   0.9743

Dispersion correction           -0.015930150
FINAL SINGLE POINT ENERGY     -1339.869152344314

DIPOLE MOMENT
-------------
                                X             Y             Z
Electronic contribution:     -9.52860      -6.17020      26.61981
Nuclear contribution   :      9.98102       6.32654     -26.98293
                        -----------------------------------------
Total Dipole Moment    :      0.45243       0.15633      -0.36312
                        -----------------------------------------
Magnitude (a.u.)       :      0.60083
Magnitude (Debye)      :      1.52718

Rotational constants in cm-1:     0.020037     0.009829     0.007626
Rotational constants in MHz :   600.691368   294.656389   228.621269

                             ****ORCA TERMINATED NORMALLY****
TOTAL RUN TIME: 0 days 0 hours 0 minutes 23 seconds 46 msec
