                         Program Version 4.2.1 -  RELEASE  -
|  1> ! wB97X-D3 SP def2-SVP
|  2> %pal
|  3> nprocs 24
|  4> end
|  5>
|  6> * xyz 0 1
|  7> S 	 -36.5225 	 11.2542 	 24.2884
|  8> C 	 -38.0601 	 10.7716 	 23.557
|  9> C 	 -39.0791 	 10.7906 	 24.5388
| 10> C 	 -38.5917 	 11.0359 	 25.8762
| 11> C 	 -37.2598 	 11.4567 	 25.8971
| 12> H 	 -39.034 	 10.9192 	 26.8423
| 13> C 	 -40.5445 	 10.6769 	 24.2805
| 14> H 	 -41.1212 	 10.0368 	 24.9287
| 15> H 	 -40.7791 	 10.3189 	 23.3211
| 16> C 	 -41.1383 	 12.0467 	 24.2926
| 17> H 	 -41.1493 	 12.5075 	 25.1988
| 18> H 	 -40.5715 	 12.6189 	 23.5919
| 19> C 	 -42.6199 	 12.0847 	 23.9219
| 20> H 	 -42.9835 	 13.0793 	 23.8875
| 21> H 	 -42.8675 	 11.4806 	 23.097
| 22> H 	 -43.196 	 11.5988 	 24.7289
| 23> S 	 -35.4721 	 13.4287 	 26.4275
| 24> C 	 -35.1412 	 13.874 	 28.0777
| 25> C 	 -35.6848 	 12.9922 	 28.9419
| 26> C 	 -36.6333 	 12.0552 	 28.3678
| 27> C 	 -36.5433 	 12.0981 	 26.9909
| 28> H 	 -35.4781 	 13.1216 	 30.0237
| 29> C 	 -37.4991 	 11.2985 	 29.3288
| 30> H 	 -36.773 	 10.8898 	 30.0369
| 31> H 	 -37.8693 	 10.5024 	 28.6118
| 32> C 	 -38.6645 	 12.0691 	 29.9352
| 33> H 	 -38.272 	 12.8149 	 30.6276
| 34> H 	 -39.0952 	 11.4492 	 30.7368
| 35> C 	 -39.6916 	 12.7541 	 29.0484
| 36> H 	 -40.3141 	 12.0711 	 28.4665
| 37> H 	 -39.1831 	 13.4907 	 28.4386
| 38> H 	 -40.412 	 13.3499 	 29.6486
| 39> H 	 -38.2521 	 10.5705 	 22.5385
| 40> H 	 -34.35 	 14.5042 	 28.4181
| 41> *
| 42>
| 43>                          ****END OF INPUT****

CARTESIAN COORDINATES (ANGSTROEM)
---------------------------------
  S    -36.522500   11.254200   24.288400
  C    -38.060100   10.771600   23.557000
  C    -39.079100   10.790600   24.538800
  C    -38.591700   11.035900   25.876200
  C    -37.259800   11.456700   25.897100
  H    -39.034000   10.919200   26.842300
  C    -40.544500   10.676900   24.280500
  H    -41.121200   10.036800   24.928700
  H    -40.779100   10.318900   23.321100
  C    -41.138300   12.046700   24.292600
  H    -41.149300   12.507500   25.198800
  H    -40.571500   12.618900   23.591900
  C    -42.619900   12.084700   23.921900
  H    -42.983500   13.079300   23.887500
  H    -42.867500   11.480600   23.097000
  H    -43.196000   11.598800   24.728900
  S    -35.472100   13.428700   26.427500
  C    -35.141200   13.874000   28.077700
  C    -35.684800   12.992200   28.941900
  C    -36.633300   12.055200   28.367800
  C    -36.543300   12.098100   26.990900
  H    -35.478100   13.121600   30.023700
  C    -37.499100   11.298500   29.328800
  H    -36.773000   10.889800   30.036900
  H    -37.869300   10.502400   28.611800
  C    -38.664500   12.069100   29.935200
  H    -38.272000   12.814900   30.627600
  H    -39.095200   11.449200   30.736800
  C    -39.691600   12.754100   29.048400
  H    -40.314100   12.071100   28.466500
  H    -39.183100   13.490700   28.438600
  H    -40.412000   13.349900   29.648600
  H    -38.252100   10.570500   22.538500
  H    -34.350000   14.504200   28.418100

 Total Charge           Charge          ....    0
 Multiplicity           Mult            ....    1
 Number of Electrons    NEL             ....  134
 Basis Dimension        Dim             ....  322

ORBITAL ENERGIES
----------------

  NO   OCC          E(Eh)            E(eV)
   0   2.0000     -88.967453     -2420.9275
   1   2.0000     -88.962644     -2420.7966
   2   2.0000     -10.333823      -281.1976
   3   2.0000     -10.332942      -281.1736
   4   2.0000     -10.317254      -280.7468
   5   2.0000     -10.309429      -280.5338
   6   2.0000     -10.308414      -280.5062
   7   2.0000     -10.304352      -280.3957
   8   2.0000     -10.301399      -280.3153
   9   2.0000     -10.295650      -280.1589
  10   2.0000     -10.292290      -280.0674
  11   2.0000     -10.291206      -280.0379
  12   2.0000     -10.284390      -279.8525
  13   2.0000     -10.281973      -279.7867
  14   2.0000     -10.269029      -279.4345
  15   2.0000     -10.268312      -279.4150
  16   2.0000      -8.081058      -219.8968
  17   2.0000      -8.077117      -219.7895
  18   2.0000      -6.039773      -164.3506
  19   2.0000      -6.035842      -164.2436
  20   2.0000      -6.035682      -164.2393
  21   2.0000      -6.031801      -164.1337
  22   2.0000      -6.031706      -164.1311
  23   2.0000      -6.027493      -164.0164
  24   2.0000      -1.003153       -27.2972
  25   2.0000      -0.979219       -26.6459
  26   2.0000      -0.923154       -25.1203
  27   2.0000      -0.914832       -24.8938
  28   2.0000      -0.870478       -23.6869
  29   2.0000      -0.854040       -23.2396
  30   2.0000      -0.845007       -22.9938
  31   2.0000      -0.816641       -22.2219
  32   2.0000      -0.786898       -21.4126
  33   2.0000      -0.775850       -21.1119
  34   2.0000      -0.715420       -19.4676
  35   2.0000      -0.703035       -19.1305
  36   2.0000      -0.697078       -18.9685
  37   2.0000      -0.663458       -18.0536
  38   2.0000      -0.646561       -17.5938
  39   2.0000      -0.619060       -16.8455
  40   2.0000      -0.587505       -15.9868
  41   2.0000      -0.579037       -15.7564
  42   2.0000      -0.564155       -15.3514
  43   2.0000      -0.561873       -15.2893
  44   2.0000      -0.544917       -14.8279
  45   2.0000      -0.529849       -14.4179
  46   2.0000      -0.519214       -14.1285
  47   2.0000      -0.516848       -14.0641
  48   2.0000      -0.510857       -13.9011
  49   2.0000      -0.501869       -13.6565
  50   2.0000      -0.492627       -13.4051
  51   2.0000      -0.482399       -13.1267
  52   2.0000      -0.464437       -12.6380
  53   2.0000      -0.460677       -12.5357
  54   2.0000      -0.457293       -12.4436
  55   2.0000      -0.454696       -12.3729
  56   2.0000      -0.448121       -12.1940
  57   2.0000      -0.438760       -11.9393
  58   2.0000      -0.437602       -11.9078
  59   2.0000      -0.427283       -11.6270
  60   2.0000      -0.420527       -11.4431
  61   2.0000      -0.416039       -11.3210
  62   2.0000      -0.402437       -10.9509
  63   2.0000      -0.357317        -9.7231
  64   2.0000      -0.329281        -8.9602
  65   2.0000      -0.325746        -8.8640
  66   2.0000      -0.284941        -7.7536
  67   0.0000       0.022148         0.6027
  68   0.0000       0.072201         1.9647
  69   0.0000       0.108965         2.9651
  70   0.0000       0.116453         3.1689
  71   0.0000       0.126642         3.4461

MULLIKEN ATOMIC CHARGES
-----------------------
   0 S :    0.101209
   1 C :   -0.086791
   2 C :   -0.093528
   3 C :    0.042277
   4 C :   -0.144918
   5 H :   -0.013262
   6 C :    0.108944
   7 H :    0.013845
   8 H :   -0.011050
   9 C :   -0.052711
  10 H :    0.008312
  11 H :    0.019387
  12 C :   -0.014226
  13 H :    0.032508
  14 H :    0.011622
  15 H :    0.012013
  16 S :    0.084325
  17 C :   -0.062247
  18 C :   -0.062959
  19 C :   -0.089013
  20 C :   -0.121394
  21 H :    0.028153
  22 C :    0.061856
  23 H :    0.041744
  24 H :    0.033218
  25 C :   -0.057712
  26 H :    0.013658
  27 H :    0.024907
  28 C :   -0.040965
  29 H :    0.041577
  30 H :    0.051137
  31 H :    0.033333
  32 H :    0.035870
  33 H :    0.050880
Sum of atomic charges:    0.0000000

LOEWDIN ATOMIC CHARGES
----------------------
   0 S :    0.383874
   1 C :   -0.192619
   2 C :   -0.046221
   3 C :   -0.060605
   4 C :   -0.178251
   5 H :    0.023887
   6 C :   -0.028641
   7 H :    0.027075
   8 H :    0.021402
   9 C :   -0.026520
  10 H :    0.011319
  11 H :    0.021725
  12 C :   -0.056344
  13 H :    0.024001
  14 H :    0.013961
  15 H :    0.025521
  16 S :    0.380417
  17 C :   -0.188013
  18 C :   -0.073359
  19 C :   -0.063838
  20 C :   -0.175983
  21 H :    0.034163
  22 C :   -0.035171
  23 H :    0.041412
  24 H :    0.035600
  25 C :   -0.050068
  26 H :    0.025797
  27 H :    0.028421
  28 C :   -0.063106
  29 H :    0.022310
  30 H :    0.032193
  31 H :    0.034751
  32 H :    0.022776
  33 H :    0.028136

  Mayer bond orders larger than 0.100000
B(  0-S ,  1-C ) :   1.1171 B(  0-S ,  4-C ) :   1.1400 B(  1-C ,  2-C ) :   1.6087
B(  1-C , 32-H ) :   0.9749 B(  2-C ,  3-C ) :   1.2162 B(  2-C ,  6-C ) :   1.0547
B(  3-C ,  4-C ) :   1.5792 B(  3-C ,  5-H ) :   0.9861 B(  4-C , 20-C ) :   1.0552
B(  6-C ,  7-H ) :   0.9365 B(  6-C ,  8-H ) :   0.9313 B(  6-C ,  9-C ) :   1.0630
B(  9-C , 10-H ) :   0.9546 B(  9-C , 11-H ) :   0.9527 B(  9-C , 12-C ) :   1.0928
B( 12-C , 13-H ) :   0.9734 B( 12-C , 14-H ) :   0.9732 B( 12-C , 15-H ) :   0.9692
B( 16-S , 17-C ) :   1.1243 B( 16-S , 20-C ) :   1.1185 B( 17-C , 18-C ) :   1.6853
B( 17-C , 33-H ) :   0.9583 B( 18-C , 19-C ) :   1.1872 B( 18-C , 21-H ) :   0.9766
B( 19-C , 20-C ) :   1.6330 B( 19-C , 22-C ) :   1.0232 B( 22-C , 23-H ) :   0.9294
B( 22-C , 24-H ) :   0.9315 B( 22-C , 25-C ) :   1.0784 B( 25-C , 26-H ) :   0.9447
B( 25-C , 27-H ) :   0.9496 B( 25-C , 28-C ) :   1.0801 B( 28-C , 29-H ) :   0.9694
B( 28-C , 30-H ) :   0.9715 B( 28-C , 31-H ) :   0.9669

Dispersion correction           -0.014985971
FINAL SINGLE POINT ENERGY     -1339.857875652368

DIPOLE MOMENT
-------------
                                X             Y             Z
Electronic contribution:     28.10393       0.50701      -8.12490
Nuclear contribution   :    -28.69979      -0.46837       8.67612
                        -----------------------------------------
Total Dipole Moment    :     -0.59586       0.03864       0.55122
                        -----------------------------------------
Magnitude (a.u.)       :      0.81265
Magnitude (Debye)      :      2.06558

Rotational constants in cm-1:     0.018409     0.009571     0.007184
Rotational constants in MHz :   551.900555   286.926764   215.356775

                             ****ORCA TERMINATED NORMALLY****
TOTAL RUN TIME: 0 days 0 hours 0 minutes 22 seconds 340 msec
