                         Program Version 4.2.1 -  RELEASE  -
|  1> ! wB97X-D3 SP def2-SVP
|  2> %pal
|  3> nprocs 24
|  4> end
|  5>
|  6> * xyz 0 1
|  7> S 	 -133.294 	 5.53513 	 8.56597
|  8> C 	 -132.527 	 6.15297 	 7.13448
|  9> C 	 -131.388 	 5.3558 	 6.86283
| 10> C 	 -131.091 	 4.39086 	 7.86168
| 11> C 	 -132.041 	 4.3385 	 8.8597
| 12> H 	 -130.226 	 3.79066 	 7.87702
| 13> C 	 -130.307 	 5.56788 	 5.76702
| 14> H 	 -129.602 	 6.16568 	 6.29229
| 15> H 	 -130.807 	 6.07937 	 4.90046
| 16> C 	 -129.672 	 4.2543 	 5.12943
| 17> H 	 -129.194 	 3.67704 	 5.90294
| 18> H 	 -130.561 	 3.6543 	 4.72543
| 19> C 	 -128.628 	 4.64502 	 4.0256
| 20> H 	 -128.499 	 3.85349 	 3.32828
| 21> H 	 -129.009 	 5.47078 	 3.37291
| 22> H 	 -127.696 	 5.00875 	 4.36325
| 23> S 	 -131.527 	 4.05901 	 11.6322
| 24> C 	 -132.258 	 2.70764 	 12.4698
| 25> C 	 -132.998 	 1.88312 	 11.6447
| 26> C 	 -132.925 	 2.30536 	 10.283
| 27> C 	 -132.181 	 3.45993 	 10.0733
| 28> H 	 -133.581 	 1.1443 	 12.1447
| 29> C 	 -133.834 	 1.62944 	 9.25509
| 30> H 	 -133.397 	 1.95434 	 8.29781
| 31> H 	 -134.899 	 1.84306 	 9.27549
| 32> C 	 -133.829 	 0.0905061 	 9.3714
| 33> H 	 -134.597 	 -0.212103 	 8.67894
| 34> H 	 -134.094 	 -0.416306 	 10.3695
| 35> C 	 -132.567 	 -0.551409 	 8.86089
| 36> H 	 -132.268 	 -0.293754 	 7.77818
| 37> H 	 -132.819 	 -1.54708 	 8.6709
| 38> H 	 -131.731 	 -0.521245 	 9.56008
| 39> H 	 -132.781 	 6.99319 	 6.49657
| 40> H 	 -132.08 	 2.53844 	 13.5333
| 41> *
| 42>
| 43>                          ****END OF INPUT****

CARTESIAN COORDINATES (ANGSTROEM)
---------------------------------
  S    -133.294000    5.535130    8.565970
  C    -132.527000    6.152970    7.134480
  C    -131.388000    5.355800    6.862830
  C    -131.091000    4.390860    7.861680
  C    -132.041000    4.338500    8.859700
  H    -130.226000    3.790660    7.877020
  C    -130.307000    5.567880    5.767020
  H    -129.602000    6.165680    6.292290
  H    -130.807000    6.079370    4.900460
  C    -129.672000    4.254300    5.129430
  H    -129.194000    3.677040    5.902940
  H    -130.561000    3.654300    4.725430
  C    -128.628000    4.645020    4.025600
  H    -128.499000    3.853490    3.328280
  H    -129.009000    5.470780    3.372910
  H    -127.696000    5.008750    4.363250
  S    -131.527000    4.059010   11.632200
  C    -132.258000    2.707640   12.469800
  C    -132.998000    1.883120   11.644700
  C    -132.925000    2.305360   10.283000
  C    -132.181000    3.459930   10.073300
  H    -133.581000    1.144300   12.144700
  C    -133.834000    1.629440    9.255090
  H    -133.397000    1.954340    8.297810
  H    -134.899000    1.843060    9.275490
  C    -133.829000    0.090506    9.371400
  H    -134.597000   -0.212103    8.678940
  H    -134.094000   -0.416306   10.369500
  C    -132.567000   -0.551409    8.860890
  H    -132.268000   -0.293754    7.778180
  H    -132.819000   -1.547080    8.670900
  H    -131.731000   -0.521245    9.560080
  H    -132.781000    6.993190    6.496570
  H    -132.080000    2.538440   13.533300

 Total Charge           Charge          ....    0
 Multiplicity           Mult            ....    1
 Number of Electrons    NEL             ....  134
 Basis Dimension        Dim             ....  322

ORBITAL ENERGIES
----------------

  NO   OCC          E(Eh)            E(eV)
   0   2.0000     -88.965322     -2420.8695
   1   2.0000     -88.963959     -2420.8324
   2   2.0000     -10.332016      -281.1485
   3   2.0000     -10.331189      -281.1260
   4   2.0000     -10.318625      -280.7841
   5   2.0000     -10.316745      -280.7329
   6   2.0000     -10.305861      -280.4367
   7   2.0000     -10.301229      -280.3107
   8   2.0000     -10.300168      -280.2818
   9   2.0000     -10.296240      -280.1749
  10   2.0000     -10.290927      -280.0304
  11   2.0000     -10.289800      -279.9997
  12   2.0000     -10.289437      -279.9898
  13   2.0000     -10.287337      -279.9327
  14   2.0000     -10.279326      -279.7147
  15   2.0000     -10.270760      -279.4816
  16   2.0000      -8.079775      -219.8619
  17   2.0000      -8.078232      -219.8199
  18   2.0000      -6.038262      -164.3095
  19   2.0000      -6.036755      -164.2685
  20   2.0000      -6.034135      -164.1972
  21   2.0000      -6.032777      -164.1602
  22   2.0000      -6.030738      -164.1047
  23   2.0000      -6.029024      -164.0581
  24   2.0000      -0.999753       -27.2047
  25   2.0000      -0.980403       -26.6781
  26   2.0000      -0.907487       -24.6940
  27   2.0000      -0.899627       -24.4801
  28   2.0000      -0.861918       -23.4540
  29   2.0000      -0.846586       -23.0368
  30   2.0000      -0.845654       -23.0114
  31   2.0000      -0.814235       -22.1565
  32   2.0000      -0.781258       -21.2591
  33   2.0000      -0.768643       -20.9158
  34   2.0000      -0.707533       -19.2529
  35   2.0000      -0.693628       -18.8746
  36   2.0000      -0.687475       -18.7071
  37   2.0000      -0.653249       -17.7758
  38   2.0000      -0.638601       -17.3772
  39   2.0000      -0.620760       -16.8917
  40   2.0000      -0.597296       -16.2532
  41   2.0000      -0.566781       -15.4229
  42   2.0000      -0.565447       -15.3866
  43   2.0000      -0.548843       -14.9348
  44   2.0000      -0.538778       -14.6609
  45   2.0000      -0.523285       -14.2393
  46   2.0000      -0.520267       -14.1572
  47   2.0000      -0.508764       -13.8442
  48   2.0000      -0.501763       -13.6537
  49   2.0000      -0.495225       -13.4757
  50   2.0000      -0.488800       -13.3009
  51   2.0000      -0.474003       -12.8983
  52   2.0000      -0.468372       -12.7450
  53   2.0000      -0.460419       -12.5286
  54   2.0000      -0.454260       -12.3610
  55   2.0000      -0.447041       -12.1646
  56   2.0000      -0.443434       -12.0665
  57   2.0000      -0.434367       -11.8197
  58   2.0000      -0.430736       -11.7209
  59   2.0000      -0.421879       -11.4799
  60   2.0000      -0.418377       -11.3846
  61   2.0000      -0.412780       -11.2323
  62   2.0000      -0.407481       -11.0881
  63   2.0000      -0.334876        -9.1124
  64   2.0000      -0.330045        -8.9810
  65   2.0000      -0.316234        -8.6052
  66   2.0000      -0.311239        -8.4693
  67   0.0000       0.047466         1.2916
  68   0.0000       0.048336         1.3153
  69   0.0000       0.116086         3.1589
  70   0.0000       0.122139         3.3236
  71   0.0000       0.131781         3.5859

MULLIKEN ATOMIC CHARGES
-----------------------
   0 S :    0.123322
   1 C :   -0.112760
   2 C :   -0.105943
   3 C :    0.059777
   4 C :   -0.175397
   5 H :   -0.004525
   6 C :    0.025252
   7 H :    0.047396
   8 H :    0.032868
   9 C :   -0.114145
  10 H :    0.037931
  11 H :    0.051978
  12 C :   -0.022191
  13 H :    0.029400
  14 H :    0.022196
  15 H :    0.029464
  16 S :    0.103201
  17 C :   -0.109470
  18 C :   -0.027121
  19 C :    0.001325
  20 C :   -0.171790
  21 H :    0.016585
  22 C :    0.089016
  23 H :    0.029489
  24 H :    0.045591
  25 C :   -0.119392
  26 H :    0.018688
  27 H :    0.046465
  28 C :   -0.043126
  29 H :    0.029185
  30 H :    0.008999
  31 H :    0.045753
  32 H :    0.048325
  33 H :    0.063654
Sum of atomic charges:    0.0000000

LOEWDIN ATOMIC CHARGES
----------------------
   0 S :    0.418868
   1 C :   -0.212317
   2 C :   -0.066772
   3 C :   -0.058158
   4 C :   -0.193910
   5 H :    0.025949
   6 C :   -0.032582
   7 H :    0.028993
   8 H :    0.031809
   9 C :   -0.039369
  10 H :    0.017173
  11 H :    0.036802
  12 C :   -0.064038
  13 H :    0.023366
  14 H :    0.029877
  15 H :    0.020661
  16 S :    0.389025
  17 C :   -0.174659
  18 C :   -0.074916
  19 C :   -0.050660
  20 C :   -0.199503
  21 H :    0.030897
  22 C :   -0.028538
  23 H :    0.034368
  24 H :    0.034790
  25 C :   -0.049981
  26 H :    0.022559
  27 H :    0.033915
  28 C :   -0.073039
  29 H :    0.033698
  30 H :    0.017511
  31 H :    0.025268
  32 H :    0.033321
  33 H :    0.029593

  Mayer bond orders larger than 0.100000
B(  0-S ,  1-C ) :   1.1472 B(  0-S ,  4-C ) :   1.1678 B(  1-C ,  2-C ) :   1.5913
B(  1-C ,  4-C ) :   0.1036 B(  1-C , 32-H ) :   0.9714 B(  2-C ,  3-C ) :   1.2520
B(  2-C ,  6-C ) :   1.0057 B(  3-C ,  4-C ) :   1.5779 B(  3-C ,  5-H ) :   1.0047
B(  4-C , 20-C ) :   0.9851 B(  6-C ,  7-H ) :   0.9492 B(  6-C ,  8-H ) :   0.9478
B(  6-C ,  9-C ) :   1.0566 B(  9-C , 10-H ) :   0.9547 B(  9-C , 11-H ) :   0.9616
B(  9-C , 12-C ) :   1.0728 B( 12-C , 13-H ) :   0.9755 B( 12-C , 14-H ) :   0.9736
B( 12-C , 15-H ) :   0.9773 B( 16-S , 17-C ) :   1.1675 B( 16-S , 20-C ) :   1.1343
B( 17-C , 18-C ) :   1.6211 B( 17-C , 33-H ) :   0.9622 B( 18-C , 19-C ) :   1.2122
B( 18-C , 21-H ) :   0.9983 B( 19-C , 20-C ) :   1.6208 B( 19-C , 22-C ) :   1.0317
B( 22-C , 23-H ) :   0.9317 B( 22-C , 24-H ) :   0.9451 B( 22-C , 25-C ) :   1.0707
B( 25-C , 26-H ) :   0.9546 B( 25-C , 27-H ) :   0.9487 B( 25-C , 28-C ) :   1.0917
B( 28-C , 29-H ) :   0.9676 B( 28-C , 30-H ) :   0.9695 B( 28-C , 31-H ) :   0.9745

Dispersion correction           -0.013850046
FINAL SINGLE POINT ENERGY     -1339.862874221811

DIPOLE MOMENT
-------------
                                X             Y             Z
Electronic contribution:     -7.41858      15.09312      20.70579
Nuclear contribution   :      7.47873     -15.45525     -21.02573
                        -----------------------------------------
Total Dipole Moment    :      0.06015      -0.36213      -0.31994
                        -----------------------------------------
Magnitude (a.u.)       :      0.48695
Magnitude (Debye)      :      1.23773

Rotational constants in cm-1:     0.018378     0.007790     0.006664
Rotational constants in MHz :   550.955099   233.529005   199.768798

                             ****ORCA TERMINATED NORMALLY****
TOTAL RUN TIME: 0 days 0 hours 0 minutes 21 seconds 15 msec
