                         Program Version 4.2.1 -  RELEASE  -
|  1> ! wB97X-D3 SP def2-SVP
|  2> %pal
|  3> nprocs 24
|  4> end
|  5>
|  6> * xyz 0 1
|  7> S 	 -52.239 	 -49.6248 	 -82.3243
|  8> C 	 -52.6547 	 -47.9011 	 -82.3742
|  9> C 	 -51.58 	 -47.1874 	 -81.8733
| 10> C 	 -50.5883 	 -47.9302 	 -81.1786
| 11> C 	 -50.8488 	 -49.303 	 -81.2663
| 12> H 	 -49.7005 	 -47.5962 	 -80.6602
| 13> C 	 -51.5323 	 -45.6727 	 -81.96
| 14> H 	 -51.0899 	 -45.301 	 -81.0596
| 15> H 	 -52.4826 	 -45.228 	 -81.9155
| 16> C 	 -50.702 	 -45.0583 	 -83.0429
| 17> H 	 -49.6944 	 -45.3549 	 -82.8279
| 18> H 	 -50.9376 	 -45.5124 	 -83.9752
| 19> C 	 -50.7937 	 -43.5511 	 -83.1739
| 20> H 	 -50.7123 	 -43.158 	 -82.13
| 21> H 	 -50.1245 	 -43.1398 	 -83.9034
| 22> H 	 -51.8424 	 -43.4123 	 -83.442
| 23> S 	 -50.7038 	 -51.6992 	 -79.9859
| 24> C 	 -49.2323 	 -52.3122 	 -79.4221
| 25> C 	 -48.161 	 -51.5255 	 -79.8208
| 26> C 	 -48.5642 	 -50.4601 	 -80.6691
| 27> C 	 -49.9644 	 -50.3589 	 -80.842
| 28> H 	 -47.1348 	 -51.7889 	 -79.6282
| 29> C 	 -47.6519 	 -49.3125 	 -81.2135
| 30> H 	 -48.2727 	 -48.7031 	 -81.8458
| 31> H 	 -46.9906 	 -49.7477 	 -81.9422
| 32> C 	 -46.7896 	 -48.4914 	 -80.1867
| 33> H 	 -47.3416 	 -48.7027 	 -79.287
| 34> H 	 -46.8522 	 -47.3956 	 -80.2358
| 35> C 	 -45.3015 	 -48.8813 	 -80.0488
| 36> H 	 -44.6262 	 -48.3312 	 -80.7395
| 37> H 	 -45.2276 	 -49.9608 	 -80.2183
| 38> H 	 -44.9566 	 -48.6987 	 -79.0719
| 39> H 	 -53.508 	 -47.382 	 -82.9298
| 40> H 	 -49.0622 	 -53.0619 	 -78.6568
| 41> *
| 42>
| 43>                          ****END OF INPUT****

CARTESIAN COORDINATES (ANGSTROEM)
---------------------------------
  S    -52.239000  -49.624800  -82.324300
  C    -52.654700  -47.901100  -82.374200
  C    -51.580000  -47.187400  -81.873300
  C    -50.588300  -47.930200  -81.178600
  C    -50.848800  -49.303000  -81.266300
  H    -49.700500  -47.596200  -80.660200
  C    -51.532300  -45.672700  -81.960000
  H    -51.089900  -45.301000  -81.059600
  H    -52.482600  -45.228000  -81.915500
  C    -50.702000  -45.058300  -83.042900
  H    -49.694400  -45.354900  -82.827900
  H    -50.937600  -45.512400  -83.975200
  C    -50.793700  -43.551100  -83.173900
  H    -50.712300  -43.158000  -82.130000
  H    -50.124500  -43.139800  -83.903400
  H    -51.842400  -43.412300  -83.442000
  S    -50.703800  -51.699200  -79.985900
  C    -49.232300  -52.312200  -79.422100
  C    -48.161000  -51.525500  -79.820800
  C    -48.564200  -50.460100  -80.669100
  C    -49.964400  -50.358900  -80.842000
  H    -47.134800  -51.788900  -79.628200
  C    -47.651900  -49.312500  -81.213500
  H    -48.272700  -48.703100  -81.845800
  H    -46.990600  -49.747700  -81.942200
  C    -46.789600  -48.491400  -80.186700
  H    -47.341600  -48.702700  -79.287000
  H    -46.852200  -47.395600  -80.235800
  C    -45.301500  -48.881300  -80.048800
  H    -44.626200  -48.331200  -80.739500
  H    -45.227600  -49.960800  -80.218300
  H    -44.956600  -48.698700  -79.071900
  H    -53.508000  -47.382000  -82.929800
  H    -49.062200  -53.061900  -78.656800

 Total Charge           Charge          ....    0
 Multiplicity           Mult            ....    1
 Number of Electrons    NEL             ....  134
 Basis Dimension        Dim             ....  322

ORBITAL ENERGIES
----------------

  NO   OCC          E(Eh)            E(eV)
   0   2.0000     -88.968548     -2420.9573
   1   2.0000     -88.967454     -2420.9275
   2   2.0000     -10.334784      -281.2238
   3   2.0000     -10.327787      -281.0334
   4   2.0000     -10.321381      -280.8591
   5   2.0000     -10.318571      -280.7826
   6   2.0000     -10.310734      -280.5693
   7   2.0000     -10.302711      -280.3510
   8   2.0000     -10.297628      -280.2127
   9   2.0000     -10.295776      -280.1623
  10   2.0000     -10.291728      -280.0522
  11   2.0000     -10.290087      -280.0075
  12   2.0000     -10.280948      -279.7588
  13   2.0000     -10.279892      -279.7301
  14   2.0000     -10.279542      -279.7206
  15   2.0000     -10.274094      -279.5723
  16   2.0000      -8.083200      -219.9551
  17   2.0000      -8.082302      -219.9306
  18   2.0000      -6.041492      -164.3974
  19   2.0000      -6.040893      -164.3810
  20   2.0000      -6.037312      -164.2836
  21   2.0000      -6.037074      -164.2771
  22   2.0000      -6.034356      -164.2032
  23   2.0000      -6.032881      -164.1630
  24   2.0000      -1.009699       -27.4753
  25   2.0000      -0.985430       -26.8149
  26   2.0000      -0.919619       -25.0241
  27   2.0000      -0.903536       -24.5865
  28   2.0000      -0.874208       -23.7884
  29   2.0000      -0.853574       -23.2269
  30   2.0000      -0.846194       -23.0261
  31   2.0000      -0.815926       -22.2025
  32   2.0000      -0.786793       -21.4097
  33   2.0000      -0.772350       -21.0167
  34   2.0000      -0.709835       -19.3156
  35   2.0000      -0.700988       -19.0748
  36   2.0000      -0.696956       -18.9651
  37   2.0000      -0.662748       -18.0343
  38   2.0000      -0.639394       -17.3988
  39   2.0000      -0.621992       -16.9253
  40   2.0000      -0.595603       -16.2072
  41   2.0000      -0.577328       -15.7099
  42   2.0000      -0.564748       -15.3676
  43   2.0000      -0.553908       -15.0726
  44   2.0000      -0.535551       -14.5731
  45   2.0000      -0.531530       -14.4637
  46   2.0000      -0.517525       -14.0826
  47   2.0000      -0.514602       -14.0030
  48   2.0000      -0.506989       -13.7959
  49   2.0000      -0.501262       -13.6400
  50   2.0000      -0.495658       -13.4875
  51   2.0000      -0.481415       -13.1000
  52   2.0000      -0.471947       -12.8423
  53   2.0000      -0.468674       -12.7533
  54   2.0000      -0.460686       -12.5359
  55   2.0000      -0.451869       -12.2960
  56   2.0000      -0.449306       -12.2262
  57   2.0000      -0.435747       -11.8573
  58   2.0000      -0.433734       -11.8025
  59   2.0000      -0.423283       -11.5181
  60   2.0000      -0.419336       -11.4107
  61   2.0000      -0.411782       -11.2052
  62   2.0000      -0.410964       -11.1829
  63   2.0000      -0.351701        -9.5703
  64   2.0000      -0.334414        -9.0999
  65   2.0000      -0.331996        -9.0341
  66   2.0000      -0.288676        -7.8553
  67   0.0000       0.020685         0.5629
  68   0.0000       0.067787         1.8446
  69   0.0000       0.106926         2.9096
  70   0.0000       0.120427         3.2770
  71   0.0000       0.129326         3.5191

MULLIKEN ATOMIC CHARGES
-----------------------
   0 S :    0.105219
   1 C :   -0.130297
   2 C :   -0.088190
   3 C :    0.023026
   4 C :   -0.116849
   5 H :    0.017587
   6 C :    0.073606
   7 H :   -0.000133
   8 H :   -0.003982
   9 C :   -0.052834
  10 H :    0.007527
  11 H :    0.010670
  12 C :   -0.021393
  13 H :    0.027462
  14 H :    0.047334
  15 H :    0.022757
  16 S :    0.120336
  17 C :   -0.071276
  18 C :   -0.052072
  19 C :   -0.054826
  20 C :   -0.165598
  21 H :    0.020037
  22 C :    0.059022
  23 H :    0.019592
  24 H :    0.023503
  25 C :   -0.088348
  26 H :    0.028370
  27 H :    0.034136
  28 C :   -0.030411
  29 H :    0.043142
  30 H :    0.027151
  31 H :    0.023735
  32 H :    0.078670
  33 H :    0.063323
Sum of atomic charges:   -0.0000000

LOEWDIN ATOMIC CHARGES
----------------------
   0 S :    0.388585
   1 C :   -0.207323
   2 C :   -0.058467
   3 C :   -0.061556
   4 C :   -0.181018
   5 H :    0.035479
   6 C :   -0.031310
   7 H :    0.025095
   8 H :    0.018650
   9 C :   -0.039870
  10 H :    0.015720
  11 H :    0.014897
  12 C :   -0.058058
  13 H :    0.028881
  14 H :    0.027289
  15 H :    0.025531
  16 S :    0.442161
  17 C :   -0.200410
  18 C :   -0.077901
  19 C :   -0.048695
  20 C :   -0.211390
  21 H :    0.030448
  22 C :   -0.033214
  23 H :    0.027942
  24 H :    0.028381
  25 C :   -0.049383
  26 H :    0.023423
  27 H :    0.025875
  28 C :   -0.060858
  29 H :    0.030523
  30 H :    0.023782
  31 H :    0.020937
  32 H :    0.050053
  33 H :    0.035799

  Mayer bond orders larger than 0.100000
B(  0-S ,  1-C ) :   1.1152 B(  0-S ,  4-C ) :   1.1579 B(  1-C ,  2-C ) :   1.6112
B(  1-C , 32-H ) :   0.9600 B(  2-C ,  3-C ) :   1.2340 B(  2-C ,  6-C ) :   1.0326
B(  3-C ,  4-C ) :   1.5442 B(  3-C ,  5-H ) :   0.9998 B(  4-C , 20-C ) :   1.0463
B(  6-C ,  7-H ) :   0.9309 B(  6-C ,  8-H ) :   0.9424 B(  6-C ,  9-C ) :   1.0622
B(  9-C , 10-H ) :   0.9497 B(  9-C , 11-H ) :   0.9541 B(  9-C , 12-C ) :   1.0817
B( 12-C , 13-H ) :   0.9726 B( 12-C , 14-H ) :   0.9731 B( 12-C , 15-H ) :   0.9745
B( 16-S , 17-C ) :   1.1953 B( 16-S , 20-C ) :   1.1497 B( 17-C , 18-C ) :   1.5627
B( 17-C , 33-H ) :   0.9631 B( 18-C , 19-C ) :   1.2920 B( 18-C , 21-H ) :   0.9923
B( 19-C , 20-C ) :   1.5443 B( 19-C , 22-C ) :   1.0426 B( 22-C , 23-H ) :   0.9396
B( 22-C , 24-H ) :   0.9357 B( 22-C , 25-C ) :   1.0266 B( 25-C , 26-H ) :   0.9657
B( 25-C , 27-H ) :   0.9589 B( 25-C , 28-C ) :   1.0741 B( 28-C , 29-H ) :   0.9753
B( 28-C , 30-H ) :   0.9786 B( 28-C , 31-H ) :   0.9731

Dispersion correction           -0.014057258
FINAL SINGLE POINT ENERGY     -1339.863036176933

DIPOLE MOMENT
-------------
                                X             Y             Z
Electronic contribution:    -18.24558     -25.96349       2.59433
Nuclear contribution   :     18.80102      26.45606      -2.47372
                        -----------------------------------------
Total Dipole Moment    :      0.55544       0.49257       0.12061
                        -----------------------------------------
Magnitude (a.u.)       :      0.75212
Magnitude (Debye)      :      1.91173

Rotational constants in cm-1:     0.017518     0.008898     0.006151
Rotational constants in MHz :   525.184462   266.747772   184.408535

                             ****ORCA TERMINATED NORMALLY****
TOTAL RUN TIME: 0 days 0 hours 0 minutes 21 seconds 403 msec
