                         Program Version 4.2.1 -  RELEASE  -
|  1> ! wB97X-D3 SP def2-SVP
|  2> %pal
|  3> nprocs 24
|  4> end
|  5>
|  6> * xyz 0 1
|  7> S 	 -56.4857 	 19.5696 	 23.5023
|  8> C 	 -57.5967 	 18.4013 	 24.0076
|  9> C 	 -56.905 	 17.2808 	 24.5035
| 10> C 	 -55.4543 	 17.396 	 24.4389
| 11> C 	 -55.0726 	 18.5963 	 23.9024
| 12> H 	 -54.7033 	 16.6324 	 24.842
| 13> C 	 -57.636 	 16.12 	 25.0648
| 14> H 	 -57.2483 	 15.2332 	 24.5414
| 15> H 	 -58.7018 	 16.0629 	 24.8278
| 16> C 	 -57.484 	 15.9767 	 26.5738
| 17> H 	 -57.9801 	 16.7318 	 27.0405
| 18> H 	 -58.0011 	 15.0738 	 26.8661
| 19> C 	 -56.0635 	 15.961 	 27.1037
| 20> H 	 -55.3849 	 15.3202 	 26.5318
| 21> H 	 -55.6026 	 16.9845 	 27.2422
| 22> H 	 -56.1558 	 15.5355 	 28.0639
| 23> S 	 -52.5623 	 18.0923 	 23.0202
| 24> C 	 -51.3317 	 19.2007 	 23.5203
| 25> C 	 -51.7912 	 20.2486 	 24.3183
| 26> C 	 -53.1673 	 20.1427 	 24.4904
| 27> C 	 -53.7528 	 19.0916 	 23.7943
| 28> H 	 -51.2809 	 21.0867 	 24.7829
| 29> C 	 -54.0334 	 21.1956 	 25.312
| 30> H 	 -54.8383 	 21.6607 	 24.6496
| 31> H 	 -53.3856 	 22.0366 	 25.6482
| 32> C 	 -54.7449 	 20.7493 	 26.5995
| 33> H 	 -55.4479 	 19.9691 	 26.2664
| 34> H 	 -55.3179 	 21.5036 	 27.1486
| 35> C 	 -53.8422 	 19.999 	 27.6108
| 36> H 	 -53.1452 	 19.2551 	 27.1613
| 37> H 	 -54.318 	 19.2443 	 28.2465
| 38> H 	 -53.3385 	 20.7343 	 28.1444
| 39> H 	 -58.6849 	 18.4209 	 23.7708
| 40> H 	 -50.2694 	 19.091 	 23.2663
| 41> *
| 42>
| 43>                          ****END OF INPUT****

CARTESIAN COORDINATES (ANGSTROEM)
---------------------------------
  S    -56.485700   19.569600   23.502300
  C    -57.596700   18.401300   24.007600
  C    -56.905000   17.280800   24.503500
  C    -55.454300   17.396000   24.438900
  C    -55.072600   18.596300   23.902400
  H    -54.703300   16.632400   24.842000
  C    -57.636000   16.120000   25.064800
  H    -57.248300   15.233200   24.541400
  H    -58.701800   16.062900   24.827800
  C    -57.484000   15.976700   26.573800
  H    -57.980100   16.731800   27.040500
  H    -58.001100   15.073800   26.866100
  C    -56.063500   15.961000   27.103700
  H    -55.384900   15.320200   26.531800
  H    -55.602600   16.984500   27.242200
  H    -56.155800   15.535500   28.063900
  S    -52.562300   18.092300   23.020200
  C    -51.331700   19.200700   23.520300
  C    -51.791200   20.248600   24.318300
  C    -53.167300   20.142700   24.490400
  C    -53.752800   19.091600   23.794300
  H    -51.280900   21.086700   24.782900
  C    -54.033400   21.195600   25.312000
  H    -54.838300   21.660700   24.649600
  H    -53.385600   22.036600   25.648200
  C    -54.744900   20.749300   26.599500
  H    -55.447900   19.969100   26.266400
  H    -55.317900   21.503600   27.148600
  C    -53.842200   19.999000   27.610800
  H    -53.145200   19.255100   27.161300
  H    -54.318000   19.244300   28.246500
  H    -53.338500   20.734300   28.144400
  H    -58.684900   18.420900   23.770800
  H    -50.269400   19.091000   23.266300

 Total Charge           Charge          ....    0
 Multiplicity           Mult            ....    1
 Number of Electrons    NEL             ....  134
 Basis Dimension        Dim             ....  322

ORBITAL ENERGIES
----------------

  NO   OCC          E(Eh)            E(eV)
   0   2.0000     -88.973294     -2421.0864
   1   2.0000     -88.962848     -2420.8022
   2   2.0000     -10.324637      -280.9477
   3   2.0000     -10.320760      -280.8422
   4   2.0000     -10.318895      -280.7914
   5   2.0000     -10.313348      -280.6405
   6   2.0000     -10.302798      -280.3534
   7   2.0000     -10.301366      -280.3144
   8   2.0000     -10.301096      -280.3071
   9   2.0000     -10.300813      -280.2994
  10   2.0000     -10.294752      -280.1344
  11   2.0000     -10.285234      -279.8754
  12   2.0000     -10.281695      -279.7792
  13   2.0000     -10.275713      -279.6164
  14   2.0000     -10.274505      -279.5835
  15   2.0000     -10.267607      -279.3958
  16   2.0000      -8.088208      -220.0913
  17   2.0000      -8.078065      -219.8153
  18   2.0000      -6.046562      -164.5353
  19   2.0000      -6.042665      -164.4293
  20   2.0000      -6.039160      -164.3339
  21   2.0000      -6.036574      -164.2635
  22   2.0000      -6.032333      -164.1481
  23   2.0000      -6.028957      -164.0563
  24   2.0000      -1.013291       -27.5731
  25   2.0000      -0.988306       -26.8932
  26   2.0000      -0.916931       -24.9510
  27   2.0000      -0.898120       -24.4391
  28   2.0000      -0.877161       -23.8688
  29   2.0000      -0.850724       -23.1494
  30   2.0000      -0.844267       -22.9737
  31   2.0000      -0.814341       -22.1593
  32   2.0000      -0.781967       -21.2784
  33   2.0000      -0.769364       -20.9355
  34   2.0000      -0.706048       -19.2125
  35   2.0000      -0.698783       -19.0148
  36   2.0000      -0.681330       -18.5399
  37   2.0000      -0.670204       -18.2372
  38   2.0000      -0.639747       -17.4084
  39   2.0000      -0.612158       -16.6577
  40   2.0000      -0.593456       -16.1488
  41   2.0000      -0.570990       -15.5374
  42   2.0000      -0.559744       -15.2314
  43   2.0000      -0.545660       -14.8482
  44   2.0000      -0.541992       -14.7483
  45   2.0000      -0.534976       -14.5574
  46   2.0000      -0.518979       -14.1221
  47   2.0000      -0.509380       -13.8609
  48   2.0000      -0.506279       -13.7765
  49   2.0000      -0.493653       -13.4330
  50   2.0000      -0.487702       -13.2711
  51   2.0000      -0.477555       -12.9949
  52   2.0000      -0.472183       -12.8488
  53   2.0000      -0.467119       -12.7109
  54   2.0000      -0.461411       -12.5556
  55   2.0000      -0.452099       -12.3022
  56   2.0000      -0.438612       -11.9352
  57   2.0000      -0.435522       -11.8512
  58   2.0000      -0.431101       -11.7309
  59   2.0000      -0.422528       -11.4976
  60   2.0000      -0.420577       -11.4445
  61   2.0000      -0.405071       -11.0225
  62   2.0000      -0.397364       -10.8128
  63   2.0000      -0.348932        -9.4949
  64   2.0000      -0.341566        -9.2945
  65   2.0000      -0.322787        -8.7835
  66   2.0000      -0.288732        -7.8568
  67   0.0000       0.031914         0.8684
  68   0.0000       0.067855         1.8464
  69   0.0000       0.107206         2.9172
  70   0.0000       0.123074         3.3490
  71   0.0000       0.130201         3.5429

MULLIKEN ATOMIC CHARGES
-----------------------
   0 S :    0.113035
   1 C :   -0.130971
   2 C :   -0.115969
   3 C :    0.009348
   4 C :   -0.175460
   5 H :    0.047231
   6 C :    0.057560
   7 H :    0.024781
   8 H :    0.012389
   9 C :   -0.017850
  10 H :    0.001635
  11 H :    0.020368
  12 C :   -0.067643
  13 H :    0.028020
  14 H :    0.056331
  15 H :    0.021291
  16 S :    0.136074
  17 C :   -0.098305
  18 C :   -0.011653
  19 C :   -0.038257
  20 C :   -0.151728
  21 H :    0.017415
  22 C :    0.028958
  23 H :    0.056339
  24 H :    0.016769
  25 C :   -0.064795
  26 H :    0.033513
  27 H :    0.038146
  28 C :   -0.064810
  29 H :    0.031810
  30 H :    0.028761
  31 H :    0.020778
  32 H :    0.073156
  33 H :    0.063735
Sum of atomic charges:   -0.0000000

LOEWDIN ATOMIC CHARGES
----------------------
   0 S :    0.431498
   1 C :   -0.229017
   2 C :   -0.063715
   3 C :   -0.071415
   4 C :   -0.197131
   5 H :    0.046906
   6 C :   -0.039032
   7 H :    0.030288
   8 H :    0.029391
   9 C :   -0.029780
  10 H :    0.013330
  11 H :    0.024037
  12 C :   -0.065879
  13 H :    0.020645
  14 H :    0.034643
  15 H :    0.022574
  16 S :    0.440539
  17 C :   -0.193384
  18 C :   -0.069626
  19 C :   -0.052213
  20 C :   -0.213241
  21 H :    0.036640
  22 C :   -0.038151
  23 H :    0.035076
  24 H :    0.025527
  25 C :   -0.046983
  26 H :    0.021871
  27 H :    0.028127
  28 C :   -0.074029
  29 H :    0.031217
  30 H :    0.026558
  31 H :    0.011774
  32 H :    0.041766
  33 H :    0.031186

  Mayer bond orders larger than 0.100000
B(  0-S ,  1-C ) :   1.1473 B(  0-S ,  4-C ) :   1.1596 B(  1-C ,  2-C ) :   1.5936
B(  1-C , 32-H ) :   0.9643 B(  2-C ,  3-C ) :   1.2407 B(  2-C ,  6-C ) :   1.0374
B(  3-C ,  4-C ) :   1.5752 B(  3-C ,  5-H ) :   0.9752 B(  4-C , 20-C ) :   1.0271
B(  6-C ,  7-H ) :   0.9354 B(  6-C ,  8-H ) :   0.9416 B(  6-C ,  9-C ) :   1.0792
B(  9-C , 10-H ) :   0.9442 B(  9-C , 11-H ) :   0.9537 B(  9-C , 12-C ) :   1.0944
B( 12-C , 13-H ) :   0.9713 B( 12-C , 14-H ) :   0.9649 B( 12-C , 15-H ) :   0.9657
B( 16-S , 17-C ) :   1.1808 B( 16-S , 20-C ) :   1.1545 B( 17-C , 18-C ) :   1.5453
B( 17-C , 20-C ) :   0.1047 B( 17-C , 33-H ) :   0.9638 B( 18-C , 19-C ) :   1.3202
B( 18-C , 21-H ) :   0.9851 B( 19-C , 20-C ) :   1.5538 B( 19-C , 22-C ) :   1.0115
B( 22-C , 23-H ) :   0.9445 B( 22-C , 24-H ) :   0.9422 B( 22-C , 25-C ) :   1.0580
B( 25-C , 26-H ) :   0.9552 B( 25-C , 27-H ) :   0.9592 B( 25-C , 28-C ) :   1.0713
B( 28-C , 29-H ) :   0.9703 B( 28-C , 30-H ) :   0.9734 B( 28-C , 31-H ) :   0.9804

Dispersion correction           -0.016843192
FINAL SINGLE POINT ENERGY     -1339.870403022519

DIPOLE MOMENT
-------------
                                X             Y             Z
Electronic contribution:      6.19025       4.44454     -22.71762
Nuclear contribution   :     -6.29790      -4.65215      23.16574
                        -----------------------------------------
Total Dipole Moment    :     -0.10765      -0.20761       0.44812
                        -----------------------------------------
Magnitude (a.u.)       :      0.50548
Magnitude (Debye)      :      1.28482

Rotational constants in cm-1:     0.019325     0.009919     0.009307
Rotational constants in MHz :   579.337225   297.352318   279.025574

                             ****ORCA TERMINATED NORMALLY****
TOTAL RUN TIME: 0 days 0 hours 0 minutes 24 seconds 998 msec
