                         Program Version 4.2.1 -  RELEASE  -
|  1> ! wB97X-D3 SP def2-SVP
|  2> %pal
|  3> nprocs 24
|  4> end
|  5>
|  6> * xyz 0 1
|  7> S 	 -52.0552 	 15.0519 	 24.239
|  8> C 	 -50.3987 	 14.5699 	 23.9926
|  9> C 	 -49.502 	 15.5184 	 24.4503
| 10> C 	 -50.1119 	 16.4929 	 25.3139
| 11> C 	 -51.4836 	 16.2608 	 25.3889
| 12> H 	 -49.5743 	 17.2982 	 25.7952
| 13> C 	 -47.9629 	 15.6479 	 24.1246
| 14> H 	 -47.9532 	 15.5593 	 22.9752
| 15> H 	 -47.4799 	 14.6945 	 24.4161
| 16> C 	 -47.0943 	 16.8758 	 24.5612
| 17> H 	 -47.1698 	 17.0394 	 25.6569
| 18> H 	 -46.0584 	 16.6436 	 24.2386
| 19> C 	 -47.5811 	 18.1216 	 23.8801
| 20> H 	 -47.3957 	 18.1214 	 22.8392
| 21> H 	 -48.6217 	 18.3633 	 24.018
| 22> H 	 -46.9703 	 18.8753 	 24.2735
| 23> S 	 -53.294 	 18.2299 	 25.5868
| 24> C 	 -53.7348 	 18.799 	 27.1477
| 25> C 	 -52.9111 	 18.2534 	 28.1311
| 26> C 	 -52.0992 	 17.1579 	 27.6359
| 27> C 	 -52.3436 	 17.0116 	 26.2685
| 28> H 	 -52.9912 	 18.8139 	 29.0339
| 29> C 	 -51.0876 	 16.3786 	 28.5573
| 30> H 	 -50.5505 	 15.7189 	 27.8361
| 31> H 	 -51.659 	 15.7138 	 29.2277
| 32> C 	 -50.1649 	 17.1881 	 29.5112
| 33> H 	 -50.6743 	 17.9811 	 30.1088
| 34> H 	 -49.4406 	 17.8003 	 28.9368
| 35> C 	 -49.4112 	 16.2043 	 30.395
| 36> H 	 -48.888 	 15.4607 	 29.774
| 37> H 	 -50.1808 	 15.7783 	 31.0623
| 38> H 	 -48.7017 	 16.7304 	 31.0237
| 39> H 	 -50.145 	 13.7165 	 23.361
| 40> H 	 -54.1993 	 19.7526 	 27.3627
| 41> *
| 42>
| 43>                          ****END OF INPUT****

CARTESIAN COORDINATES (ANGSTROEM)
---------------------------------
  S    -52.055200   15.051900   24.239000
  C    -50.398700   14.569900   23.992600
  C    -49.502000   15.518400   24.450300
  C    -50.111900   16.492900   25.313900
  C    -51.483600   16.260800   25.388900
  H    -49.574300   17.298200   25.795200
  C    -47.962900   15.647900   24.124600
  H    -47.953200   15.559300   22.975200
  H    -47.479900   14.694500   24.416100
  C    -47.094300   16.875800   24.561200
  H    -47.169800   17.039400   25.656900
  H    -46.058400   16.643600   24.238600
  C    -47.581100   18.121600   23.880100
  H    -47.395700   18.121400   22.839200
  H    -48.621700   18.363300   24.018000
  H    -46.970300   18.875300   24.273500
  S    -53.294000   18.229900   25.586800
  C    -53.734800   18.799000   27.147700
  C    -52.911100   18.253400   28.131100
  C    -52.099200   17.157900   27.635900
  C    -52.343600   17.011600   26.268500
  H    -52.991200   18.813900   29.033900
  C    -51.087600   16.378600   28.557300
  H    -50.550500   15.718900   27.836100
  H    -51.659000   15.713800   29.227700
  C    -50.164900   17.188100   29.511200
  H    -50.674300   17.981100   30.108800
  H    -49.440600   17.800300   28.936800
  C    -49.411200   16.204300   30.395000
  H    -48.888000   15.460700   29.774000
  H    -50.180800   15.778300   31.062300
  H    -48.701700   16.730400   31.023700
  H    -50.145000   13.716500   23.361000
  H    -54.199300   19.752600   27.362700

 Total Charge           Charge          ....    0
 Multiplicity           Mult            ....    1
 Number of Electrons    NEL             ....  134
 Basis Dimension        Dim             ....  322

ORBITAL ENERGIES
----------------

  NO   OCC          E(Eh)            E(eV)
   0   2.0000     -88.967161     -2420.9195
   1   2.0000     -88.964642     -2420.8510
   2   2.0000     -10.325726      -280.9773
   3   2.0000     -10.317086      -280.7422
   4   2.0000     -10.312134      -280.6074
   5   2.0000     -10.308309      -280.5033
   6   2.0000     -10.308067      -280.4968
   7   2.0000     -10.305461      -280.4258
   8   2.0000     -10.303250      -280.3657
   9   2.0000     -10.299119      -280.2533
  10   2.0000     -10.298159      -280.2271
  11   2.0000     -10.294750      -280.1344
  12   2.0000     -10.292902      -280.0841
  13   2.0000     -10.291283      -280.0401
  14   2.0000     -10.281003      -279.7603
  15   2.0000     -10.266423      -279.3636
  16   2.0000      -8.081855      -219.9185
  17   2.0000      -8.081016      -219.8956
  18   2.0000      -6.040226      -164.3629
  19   2.0000      -6.039321      -164.3383
  20   2.0000      -6.036698      -164.2669
  21   2.0000      -6.035406      -164.2318
  22   2.0000      -6.032451      -164.1513
  23   2.0000      -6.031790      -164.1334
  24   2.0000      -1.010812       -27.5056
  25   2.0000      -0.983292       -26.7567
  26   2.0000      -0.908087       -24.7103
  27   2.0000      -0.904562       -24.6144
  28   2.0000      -0.871701       -23.7202
  29   2.0000      -0.852198       -23.1895
  30   2.0000      -0.846576       -23.0365
  31   2.0000      -0.810429       -22.0529
  32   2.0000      -0.780845       -21.2479
  33   2.0000      -0.767613       -20.8878
  34   2.0000      -0.704552       -19.1718
  35   2.0000      -0.695476       -18.9249
  36   2.0000      -0.691662       -18.8211
  37   2.0000      -0.653338       -17.7782
  38   2.0000      -0.637597       -17.3499
  39   2.0000      -0.621573       -16.9139
  40   2.0000      -0.590417       -16.0661
  41   2.0000      -0.566772       -15.4227
  42   2.0000      -0.561206       -15.2712
  43   2.0000      -0.547048       -14.8859
  44   2.0000      -0.540959       -14.7202
  45   2.0000      -0.526204       -14.3187
  46   2.0000      -0.517955       -14.0943
  47   2.0000      -0.512862       -13.9557
  48   2.0000      -0.503054       -13.6888
  49   2.0000      -0.496893       -13.5211
  50   2.0000      -0.484493       -13.1837
  51   2.0000      -0.477697       -12.9988
  52   2.0000      -0.468275       -12.7424
  53   2.0000      -0.465140       -12.6571
  54   2.0000      -0.457781       -12.4568
  55   2.0000      -0.448788       -12.2121
  56   2.0000      -0.444769       -12.1028
  57   2.0000      -0.435981       -11.8636
  58   2.0000      -0.435095       -11.8395
  59   2.0000      -0.425480       -11.5779
  60   2.0000      -0.422792       -11.5047
  61   2.0000      -0.417490       -11.3605
  62   2.0000      -0.415607       -11.3092
  63   2.0000      -0.338257        -9.2044
  64   2.0000      -0.327884        -8.9222
  65   2.0000      -0.324782        -8.8378
  66   2.0000      -0.292815        -7.9679
  67   0.0000       0.034939         0.9507
  68   0.0000       0.059397         1.6163
  69   0.0000       0.106171         2.8891
  70   0.0000       0.114073         3.1041
  71   0.0000       0.127189         3.4610

MULLIKEN ATOMIC CHARGES
-----------------------
   0 S :    0.122743
   1 C :   -0.139520
   2 C :   -0.068519
   3 C :    0.023775
   4 C :   -0.190770
   5 H :    0.021813
   6 C :   -0.000530
   7 H :    0.038821
   8 H :    0.037664
   9 C :   -0.073113
  10 H :    0.042184
  11 H :    0.043916
  12 C :   -0.014945
  13 H :    0.017938
  14 H :    0.038915
  15 H :    0.016608
  16 S :    0.124031
  17 C :   -0.095914
  18 C :   -0.066536
  19 C :   -0.016724
  20 C :   -0.140300
  21 H :    0.012637
  22 C :    0.058885
  23 H :    0.043529
  24 H :    0.033115
  25 C :   -0.098695
  26 H :    0.035766
  27 H :    0.022004
  28 C :   -0.042085
  29 H :    0.043076
  30 H :    0.036729
  31 H :    0.031313
  32 H :    0.047347
  33 H :    0.054840
Sum of atomic charges:   -0.0000000

LOEWDIN ATOMIC CHARGES
----------------------
   0 S :    0.403733
   1 C :   -0.207285
   2 C :   -0.059847
   3 C :   -0.058953
   4 C :   -0.192945
   5 H :    0.032621
   6 C :   -0.045766
   7 H :    0.038736
   8 H :    0.030460
   9 C :   -0.040551
  10 H :    0.026811
  11 H :    0.036608
  12 C :   -0.059931
  13 H :    0.021516
  14 H :    0.025857
  15 H :    0.021285
  16 S :    0.446409
  17 C :   -0.209292
  18 C :   -0.067603
  19 C :   -0.051576
  20 C :   -0.227564
  21 H :    0.027316
  22 C :   -0.032437
  23 H :    0.035010
  24 H :    0.033044
  25 C :   -0.047346
  26 H :    0.026158
  27 H :    0.019700
  28 C :   -0.062008
  29 H :    0.030008
  30 H :    0.028675
  31 H :    0.024257
  32 H :    0.026933
  33 H :    0.027968

  Mayer bond orders larger than 0.100000
B(  0-S ,  1-C ) :   1.1319 B(  0-S ,  4-C ) :   1.1566 B(  1-C ,  2-C ) :   1.6295
B(  1-C , 32-H ) :   0.9725 B(  2-C ,  3-C ) :   1.2381 B(  2-C ,  6-C ) :   0.9825
B(  3-C ,  4-C ) :   1.5580 B(  3-C ,  5-H ) :   0.9907 B(  4-C , 20-C ) :   1.0144
B(  6-C ,  7-H ) :   0.9445 B(  6-C ,  8-H ) :   0.9449 B(  6-C ,  9-C ) :   1.0768
B(  9-C , 10-H ) :   0.9525 B(  9-C , 11-H ) :   0.9482 B(  9-C , 12-C ) :   1.0822
B( 12-C , 13-H ) :   0.9701 B( 12-C , 14-H ) :   0.9747 B( 12-C , 15-H ) :   0.9698
B( 16-S , 17-C ) :   1.1563 B( 16-S , 20-C ) :   1.1894 B( 17-C , 18-C ) :   1.6288
B( 17-C , 33-H ) :   0.9628 B( 18-C , 19-C ) :   1.2228 B( 18-C , 21-H ) :   0.9945
B( 19-C , 20-C ) :   1.5767 B( 19-C , 22-C ) :   1.0210 B( 22-C , 23-H ) :   0.9329
B( 22-C , 24-H ) :   0.9410 B( 22-C , 25-C ) :   1.0518 B( 25-C , 26-H ) :   0.9542
B( 25-C , 27-H ) :   0.9535 B( 25-C , 28-C ) :   1.0831 B( 28-C , 29-H ) :   0.9745
B( 28-C , 30-H ) :   0.9754 B( 28-C , 31-H ) :   0.9730

Dispersion correction           -0.014516919
FINAL SINGLE POINT ENERGY     -1339.856047970117

DIPOLE MOMENT
-------------
                                X             Y             Z
Electronic contribution:    -25.49041      -2.41669     -12.31586
Nuclear contribution   :     26.30824       2.72205      12.55583
                        -----------------------------------------
Total Dipole Moment    :      0.81783       0.30535       0.23996
                        -----------------------------------------
Magnitude (a.u.)       :      0.90536
Magnitude (Debye)      :      2.30124

Rotational constants in cm-1:     0.014804     0.010250     0.007894
Rotational constants in MHz :   443.806794   307.293531   236.662110

                             ****ORCA TERMINATED NORMALLY****
TOTAL RUN TIME: 0 days 0 hours 0 minutes 22 seconds 186 msec
