                         Program Version 4.2.1 -  RELEASE  -
|  1> ! wB97X-D3 SP def2-SVP
|  2> %pal
|  3> nprocs 24
|  4> end
|  5>
|  6> * xyz 0 1
|  7> S 	 -59.1159 	 3.72255 	 -22.9339
|  8> C 	 -60.7219 	 4.13494 	 -23.4621
|  9> C 	 -61.6908 	 3.21194 	 -23.1191
| 10> C 	 -61.1117 	 2.25454 	 -22.1998
| 11> C 	 -59.814 	 2.44807 	 -21.9525
| 12> H 	 -61.5869 	 1.38942 	 -21.7605
| 13> C 	 -63.1067 	 3.26778 	 -23.5713
| 14> H 	 -63.5055 	 2.28576 	 -23.8797
| 15> H 	 -63.0499 	 3.82097 	 -24.5014
| 16> C 	 -64.1509 	 3.80809 	 -22.5814
| 17> H 	 -64.2609 	 3.13838 	 -21.7141
| 18> H 	 -63.8591 	 4.83778 	 -22.3107
| 19> C 	 -65.5316 	 3.92232 	 -23.2064
| 20> H 	 -65.5717 	 4.67425 	 -24.0529
| 21> H 	 -65.9103 	 2.89679 	 -23.5997
| 22> H 	 -66.2183 	 4.35759 	 -22.4879
| 23> S 	 -57.613 	 0.894826 	 -21.5647
| 24> C 	 -57.3822 	 0.0177034 	 -20.1016
| 25> C 	 -58.3021 	 0.342382 	 -19.181
| 26> C 	 -59.1956 	 1.27333 	 -19.6553
| 27> C 	 -59.09 	 1.60171 	 -20.9999
| 28> H 	 -58.3031 	 -0.19083 	 -18.226
| 29> C 	 -60.2845 	 1.7756 	 -18.7464
| 30> H 	 -60.633 	 0.948058 	 -18.1254
| 31> H 	 -61.0468 	 2.09427 	 -19.4124
| 32> C 	 -59.8634 	 2.93413 	 -17.8483
| 33> H 	 -59.4108 	 3.73734 	 -18.3721
| 34> H 	 -59.1401 	 2.73295 	 -17.0844
| 35> C 	 -61.0666 	 3.46197 	 -17.0519
| 36> H 	 -61.5455 	 2.64201 	 -16.5054
| 37> H 	 -61.8197 	 3.92398 	 -17.714
| 38> H 	 -60.7702 	 4.22297 	 -16.3708
| 39> H 	 -60.9603 	 5.07624 	 -23.9401
| 40> H 	 -56.4727 	 -0.50067 	 -19.7959
| 41> *
| 42>
| 43>                          ****END OF INPUT****

CARTESIAN COORDINATES (ANGSTROEM)
---------------------------------
  S    -59.115900    3.722550  -22.933900
  C    -60.721900    4.134940  -23.462100
  C    -61.690800    3.211940  -23.119100
  C    -61.111700    2.254540  -22.199800
  C    -59.814000    2.448070  -21.952500
  H    -61.586900    1.389420  -21.760500
  C    -63.106700    3.267780  -23.571300
  H    -63.505500    2.285760  -23.879700
  H    -63.049900    3.820970  -24.501400
  C    -64.150900    3.808090  -22.581400
  H    -64.260900    3.138380  -21.714100
  H    -63.859100    4.837780  -22.310700
  C    -65.531600    3.922320  -23.206400
  H    -65.571700    4.674250  -24.052900
  H    -65.910300    2.896790  -23.599700
  H    -66.218300    4.357590  -22.487900
  S    -57.613000    0.894826  -21.564700
  C    -57.382200    0.017703  -20.101600
  C    -58.302100    0.342382  -19.181000
  C    -59.195600    1.273330  -19.655300
  C    -59.090000    1.601710  -20.999900
  H    -58.303100   -0.190830  -18.226000
  C    -60.284500    1.775600  -18.746400
  H    -60.633000    0.948058  -18.125400
  H    -61.046800    2.094270  -19.412400
  C    -59.863400    2.934130  -17.848300
  H    -59.410800    3.737340  -18.372100
  H    -59.140100    2.732950  -17.084400
  C    -61.066600    3.461970  -17.051900
  H    -61.545500    2.642010  -16.505400
  H    -61.819700    3.923980  -17.714000
  H    -60.770200    4.222970  -16.370800
  H    -60.960300    5.076240  -23.940100
  H    -56.472700   -0.500670  -19.795900

 Total Charge           Charge          ....    0
 Multiplicity           Mult            ....    1
 Number of Electrons    NEL             ....  134
 Basis Dimension        Dim             ....  322

ORBITAL ENERGIES
----------------

  NO   OCC          E(Eh)            E(eV)
   0   2.0000     -88.968716     -2420.9618
   1   2.0000     -88.959003     -2420.6975
   2   2.0000     -10.325717      -280.9770
   3   2.0000     -10.322181      -280.8808
   4   2.0000     -10.314520      -280.6724
   5   2.0000     -10.307088      -280.4701
   6   2.0000     -10.302444      -280.3438
   7   2.0000     -10.293264      -280.0940
   8   2.0000     -10.292638      -280.0769
   9   2.0000     -10.292067      -280.0614
  10   2.0000     -10.290114      -280.0082
  11   2.0000     -10.289948      -280.0037
  12   2.0000     -10.281771      -279.7812
  13   2.0000     -10.281239      -279.7667
  14   2.0000     -10.274652      -279.5875
  15   2.0000     -10.271305      -279.4964
  16   2.0000      -8.083715      -219.9691
  17   2.0000      -8.074995      -219.7318
  18   2.0000      -6.042245      -164.4179
  19   2.0000      -6.038420      -164.3138
  20   2.0000      -6.034203      -164.1990
  21   2.0000      -6.033362      -164.1761
  22   2.0000      -6.029229      -164.0637
  23   2.0000      -6.025933      -163.9740
  24   2.0000      -1.015566       -27.6350
  25   2.0000      -0.993783       -27.0422
  26   2.0000      -0.915917       -24.9234
  27   2.0000      -0.909619       -24.7520
  28   2.0000      -0.875895       -23.8343
  29   2.0000      -0.854928       -23.2638
  30   2.0000      -0.849717       -23.1220
  31   2.0000      -0.821967       -22.3669
  32   2.0000      -0.779226       -21.2038
  33   2.0000      -0.767272       -20.8785
  34   2.0000      -0.705702       -19.2031
  35   2.0000      -0.697043       -18.9675
  36   2.0000      -0.694209       -18.8904
  37   2.0000      -0.662047       -18.0152
  38   2.0000      -0.645938       -17.5769
  39   2.0000      -0.622204       -16.9310
  40   2.0000      -0.595199       -16.1962
  41   2.0000      -0.580578       -15.7983
  42   2.0000      -0.566528       -15.4160
  43   2.0000      -0.559231       -15.2174
  44   2.0000      -0.531090       -14.4517
  45   2.0000      -0.524197       -14.2641
  46   2.0000      -0.519824       -14.1451
  47   2.0000      -0.509273       -13.8580
  48   2.0000      -0.506346       -13.7784
  49   2.0000      -0.498535       -13.5658
  50   2.0000      -0.489999       -13.3335
  51   2.0000      -0.483311       -13.1516
  52   2.0000      -0.470740       -12.8095
  53   2.0000      -0.463383       -12.6093
  54   2.0000      -0.460644       -12.5347
  55   2.0000      -0.448109       -12.1937
  56   2.0000      -0.443173       -12.0594
  57   2.0000      -0.438141       -11.9224
  58   2.0000      -0.433943       -11.8082
  59   2.0000      -0.430923       -11.7260
  60   2.0000      -0.422590       -11.4993
  61   2.0000      -0.417598       -11.3634
  62   2.0000      -0.408870       -11.1259
  63   2.0000      -0.349626        -9.5138
  64   2.0000      -0.333066        -9.0632
  65   2.0000      -0.328617        -8.9421
  66   2.0000      -0.293210        -7.9786
  67   0.0000       0.036655         0.9974
  68   0.0000       0.065864         1.7922
  69   0.0000       0.109100         2.9688
  70   0.0000       0.130014         3.5379
  71   0.0000       0.133308         3.6275

MULLIKEN ATOMIC CHARGES
-----------------------
   0 S :    0.125625
   1 C :   -0.130150
   2 C :   -0.054963
   3 C :    0.013884
   4 C :   -0.120954
   5 H :    0.017501
   6 C :    0.062633
   7 H :    0.021503
   8 H :    0.015101
   9 C :   -0.059105
  10 H :    0.039340
  11 H :    0.029154
  12 C :   -0.086050
  13 H :    0.033937
  14 H :    0.044006
  15 H :    0.038600
  16 S :    0.088809
  17 C :   -0.077112
  18 C :   -0.056609
  19 C :   -0.043082
  20 C :   -0.170889
  21 H :    0.024241
  22 C :    0.106042
  23 H :    0.018845
  24 H :   -0.002217
  25 C :   -0.048761
  26 H :    0.018959
  27 H :    0.014574
  28 C :   -0.047088
  29 H :    0.025446
  30 H :    0.029211
  31 H :    0.025871
  32 H :    0.047221
  33 H :    0.056478
Sum of atomic charges:   -0.0000000

LOEWDIN ATOMIC CHARGES
----------------------
   0 S :    0.399973
   1 C :   -0.191825
   2 C :   -0.059494
   3 C :   -0.056955
   4 C :   -0.194813
   5 H :    0.033575
   6 C :   -0.038533
   7 H :    0.033466
   8 H :    0.030862
   9 C :   -0.040671
  10 H :    0.028365
  11 H :    0.026476
  12 C :   -0.075784
  13 H :    0.027494
  14 H :    0.031723
  15 H :    0.025489
  16 S :    0.417687
  17 C :   -0.192758
  18 C :   -0.080645
  19 C :   -0.061657
  20 C :   -0.201360
  21 H :    0.038915
  22 C :   -0.024007
  23 H :    0.029884
  24 H :    0.023289
  25 C :   -0.035426
  26 H :    0.021161
  27 H :    0.020440
  28 C :   -0.062160
  29 H :    0.023034
  30 H :    0.024142
  31 H :    0.019929
  32 H :    0.026690
  33 H :    0.033491

  Mayer bond orders larger than 0.100000
B(  0-S ,  1-C ) :   1.1298 B(  0-S ,  4-C ) :   1.1213 B(  1-C ,  2-C ) :   1.6376
B(  1-C , 32-H ) :   0.9646 B(  2-C ,  3-C ) :   1.1852 B(  2-C ,  6-C ) :   1.0397
B(  3-C ,  4-C ) :   1.6283 B(  3-C ,  5-H ) :   0.9967 B(  4-C , 20-C ) :   1.0251
B(  6-C ,  7-H ) :   0.9326 B(  6-C ,  8-H ) :   0.9361 B(  6-C ,  9-C ) :   1.0652
B(  9-C , 10-H ) :   0.9532 B(  9-C , 11-H ) :   0.9520 B(  9-C , 12-C ) :   1.0889
B( 12-C , 13-H ) :   0.9738 B( 12-C , 14-H ) :   0.9707 B( 12-C , 15-H ) :   0.9728
B( 16-S , 17-C ) :   1.1735 B( 16-S , 20-C ) :   1.1399 B( 17-C , 18-C ) :   1.5985
B( 17-C , 20-C ) :   0.1033 B( 17-C , 33-H ) :   0.9583 B( 18-C , 19-C ) :   1.2675
B( 18-C , 21-H ) :   0.9939 B( 19-C , 20-C ) :   1.5810 B( 19-C , 22-C ) :   1.0448
B( 22-C , 23-H ) :   0.9329 B( 22-C , 24-H ) :   0.9281 B( 22-C , 25-C ) :   1.0719
B( 25-C , 26-H ) :   0.9515 B( 25-C , 27-H ) :   0.9533 B( 25-C , 28-C ) :   1.0911
B( 28-C , 29-H ) :   0.9733 B( 28-C , 30-H ) :   0.9760 B( 28-C , 31-H ) :   0.9745

Dispersion correction           -0.013578715
FINAL SINGLE POINT ENERGY     -1339.878861618785

DIPOLE MOMENT
-------------
                                X             Y             Z
Electronic contribution:     27.10615      -7.35219     -11.95081
Nuclear contribution   :    -27.66271       7.44478      12.28613
                        -----------------------------------------
Total Dipole Moment    :     -0.55657       0.09259       0.33532
                        -----------------------------------------
Magnitude (a.u.)       :      0.65634
Magnitude (Debye)      :      1.66828

Rotational constants in cm-1:     0.017826     0.008490     0.006603
Rotational constants in MHz :   534.405244   254.535358   197.966507

                             ****ORCA TERMINATED NORMALLY****
TOTAL RUN TIME: 0 days 0 hours 0 minutes 21 seconds 540 msec
