                         Program Version 4.2.1 -  RELEASE  -
|  1> ! wB97X-D3 SP def2-SVP
|  2> %pal
|  3> nprocs 24
|  4> end
|  5>
|  6> * xyz 0 1
|  7> S 	 -36.6744 	 19.031 	 11.7567
|  8> C 	 -36.869 	 17.8618 	 12.9436
|  9> C 	 -37.1141 	 18.4777 	 14.1906
| 10> C 	 -37.1699 	 19.8681 	 14.1956
| 11> C 	 -37.0492 	 20.3886 	 12.8997
| 12> H 	 -37.3527 	 20.5925 	 14.9874
| 13> C 	 -37.4196 	 17.6727 	 15.463
| 14> H 	 -36.7236 	 18.0646 	 16.2256
| 15> H 	 -37.2254 	 16.5694 	 15.3269
| 16> C 	 -38.7351 	 18.0308 	 16.0904
| 17> H 	 -38.5917 	 18.892 	 16.7892
| 18> H 	 -39.4038 	 18.5103 	 15.3219
| 19> C 	 -39.3879 	 16.8356 	 16.7764
| 20> H 	 -40.0022 	 17.0174 	 17.6681
| 21> H 	 -39.9237 	 16.2603 	 16.0627
| 22> H 	 -38.5627 	 16.2244 	 17.1793
| 23> S 	 -37.6891 	 21.9086 	 10.6823
| 24> C 	 -37.5986 	 23.6744 	 10.7987
| 25> C 	 -37.0671 	 24.0974 	 12.0326
| 26> C 	 -36.7752 	 22.9998 	 12.9058
| 27> C 	 -37.1352 	 21.7604 	 12.376
| 28> H 	 -37.0172 	 25.1328 	 12.2791
| 29> C 	 -36.2471 	 23.2297 	 14.2568
| 30> H 	 -35.327 	 23.8319 	 14.2619
| 31> H 	 -36.0696 	 22.2478 	 14.6745
| 32> C 	 -37.2566 	 24.0536 	 15.0714
| 33> H 	 -37.3474 	 25.1306 	 14.6274
| 34> H 	 -36.8689 	 24.0596 	 16.0965
| 35> C 	 -38.6904 	 23.4396 	 15.181
| 36> H 	 -39.2349 	 24.0061 	 15.9588
| 37> H 	 -38.6003 	 22.3761 	 15.5004
| 38> H 	 -39.2688 	 23.4489 	 14.3784
| 39> H 	 -36.7761 	 16.7993 	 12.7853
| 40> H 	 -37.9738 	 24.341 	 10.015
| 41> *
| 42>
| 43>                          ****END OF INPUT****

CARTESIAN COORDINATES (ANGSTROEM)
---------------------------------
  S    -36.674400   19.031000   11.756700
  C    -36.869000   17.861800   12.943600
  C    -37.114100   18.477700   14.190600
  C    -37.169900   19.868100   14.195600
  C    -37.049200   20.388600   12.899700
  H    -37.352700   20.592500   14.987400
  C    -37.419600   17.672700   15.463000
  H    -36.723600   18.064600   16.225600
  H    -37.225400   16.569400   15.326900
  C    -38.735100   18.030800   16.090400
  H    -38.591700   18.892000   16.789200
  H    -39.403800   18.510300   15.321900
  C    -39.387900   16.835600   16.776400
  H    -40.002200   17.017400   17.668100
  H    -39.923700   16.260300   16.062700
  H    -38.562700   16.224400   17.179300
  S    -37.689100   21.908600   10.682300
  C    -37.598600   23.674400   10.798700
  C    -37.067100   24.097400   12.032600
  C    -36.775200   22.999800   12.905800
  C    -37.135200   21.760400   12.376000
  H    -37.017200   25.132800   12.279100
  C    -36.247100   23.229700   14.256800
  H    -35.327000   23.831900   14.261900
  H    -36.069600   22.247800   14.674500
  C    -37.256600   24.053600   15.071400
  H    -37.347400   25.130600   14.627400
  H    -36.868900   24.059600   16.096500
  C    -38.690400   23.439600   15.181000
  H    -39.234900   24.006100   15.958800
  H    -38.600300   22.376100   15.500400
  H    -39.268800   23.448900   14.378400
  H    -36.776100   16.799300   12.785300
  H    -37.973800   24.341000   10.015000

 Total Charge           Charge          ....    0
 Multiplicity           Mult            ....    1
 Number of Electrons    NEL             ....  134
 Basis Dimension        Dim             ....  322

ORBITAL ENERGIES
----------------

  NO   OCC          E(Eh)            E(eV)
   0   2.0000     -88.967566     -2420.9305
   1   2.0000     -88.966148     -2420.8920
   2   2.0000     -10.337748      -281.3044
   3   2.0000     -10.332387      -281.1585
   4   2.0000     -10.325594      -280.9737
   5   2.0000     -10.311089      -280.5790
   6   2.0000     -10.303464      -280.3715
   7   2.0000     -10.301111      -280.3075
   8   2.0000     -10.299712      -280.2694
   9   2.0000     -10.297667      -280.2138
  10   2.0000     -10.297493      -280.2090
  11   2.0000     -10.291756      -280.0529
  12   2.0000     -10.290102      -280.0079
  13   2.0000     -10.286261      -279.9034
  14   2.0000     -10.276405      -279.6352
  15   2.0000     -10.272850      -279.5385
  16   2.0000      -8.081275      -219.9027
  17   2.0000      -8.081115      -219.8983
  18   2.0000      -6.039869      -164.3532
  19   2.0000      -6.039548      -164.3444
  20   2.0000      -6.036030      -164.2487
  21   2.0000      -6.035438      -164.2326
  22   2.0000      -6.032095      -164.1416
  23   2.0000      -6.031905      -164.1365
  24   2.0000      -1.004208       -27.3259
  25   2.0000      -0.982515       -26.7356
  26   2.0000      -0.915201       -24.9039
  27   2.0000      -0.911561       -24.8048
  28   2.0000      -0.867962       -23.6185
  29   2.0000      -0.853834       -23.2340
  30   2.0000      -0.844617       -22.9832
  31   2.0000      -0.813094       -22.1254
  32   2.0000      -0.786224       -21.3942
  33   2.0000      -0.767884       -20.8952
  34   2.0000      -0.709052       -19.2943
  35   2.0000      -0.696403       -18.9501
  36   2.0000      -0.688489       -18.7347
  37   2.0000      -0.661318       -17.9954
  38   2.0000      -0.646263       -17.5857
  39   2.0000      -0.621354       -16.9079
  40   2.0000      -0.596234       -16.2244
  41   2.0000      -0.569954       -15.5092
  42   2.0000      -0.562487       -15.3061
  43   2.0000      -0.552583       -15.0366
  44   2.0000      -0.544713       -14.8224
  45   2.0000      -0.524646       -14.2763
  46   2.0000      -0.518849       -14.1186
  47   2.0000      -0.514881       -14.0106
  48   2.0000      -0.505514       -13.7557
  49   2.0000      -0.502509       -13.6740
  50   2.0000      -0.491374       -13.3710
  51   2.0000      -0.481153       -13.0928
  52   2.0000      -0.475655       -12.9432
  53   2.0000      -0.463562       -12.6142
  54   2.0000      -0.458507       -12.4766
  55   2.0000      -0.451832       -12.2950
  56   2.0000      -0.441255       -12.0071
  57   2.0000      -0.436334       -11.8732
  58   2.0000      -0.434714       -11.8292
  59   2.0000      -0.423880       -11.5344
  60   2.0000      -0.421223       -11.4621
  61   2.0000      -0.416818       -11.3422
  62   2.0000      -0.399188       -10.8625
  63   2.0000      -0.358660        -9.7596
  64   2.0000      -0.333535        -9.0759
  65   2.0000      -0.328705        -8.9445
  66   2.0000      -0.278364        -7.5747
  67   0.0000       0.020014         0.5446
  68   0.0000       0.070550         1.9198
  69   0.0000       0.103103         2.8056
  70   0.0000       0.118803         3.2328
  71   0.0000       0.125159         3.4057

MULLIKEN ATOMIC CHARGES
-----------------------
   0 S :    0.105816
   1 C :   -0.109262
   2 C :   -0.094255
   3 C :    0.024053
   4 C :   -0.149957
   5 H :    0.008843
   6 C :    0.056871
   7 H :    0.032080
   8 H :    0.035235
   9 C :   -0.114444
  10 H :    0.027186
  11 H :    0.043885
  12 C :   -0.038028
  13 H :    0.035454
  14 H :    0.038023
  15 H :    0.025199
  16 S :    0.094414
  17 C :   -0.099769
  18 C :   -0.026669
  19 C :   -0.048132
  20 C :   -0.142382
  21 H :    0.014543
  22 C :    0.094739
  23 H :    0.039672
  24 H :    0.013764
  25 C :   -0.132322
  26 H :    0.049547
  27 H :    0.037763
  28 C :   -0.014004
  29 H :    0.034245
  30 H :    0.022969
  31 H :    0.016502
  32 H :    0.049967
  33 H :    0.068458
Sum of atomic charges:    0.0000000

LOEWDIN ATOMIC CHARGES
----------------------
   0 S :    0.413384
   1 C :   -0.224650
   2 C :   -0.064802
   3 C :   -0.072193
   4 C :   -0.165053
   5 H :    0.030637
   6 C :   -0.041440
   7 H :    0.038178
   8 H :    0.032353
   9 C :   -0.054824
  10 H :    0.023659
  11 H :    0.026385
  12 C :   -0.063542
  13 H :    0.028041
  14 H :    0.023850
  15 H :    0.026679
  16 S :    0.380412
  17 C :   -0.173841
  18 C :   -0.065237
  19 C :   -0.053904
  20 C :   -0.190228
  21 H :    0.027453
  22 C :   -0.036092
  23 H :    0.039575
  24 H :    0.027300
  25 C :   -0.039772
  26 H :    0.032101
  27 H :    0.025815
  28 C :   -0.056588
  29 H :    0.032534
  30 H :    0.026796
  31 H :    0.004250
  32 H :    0.030242
  33 H :    0.032525

  Mayer bond orders larger than 0.100000
B(  0-S ,  1-C ) :   1.1556 B(  0-S ,  4-C ) :   1.1636 B(  1-C ,  2-C ) :   1.5632
B(  1-C ,  4-C ) :   0.1084 B(  1-C , 32-H ) :   0.9724 B(  2-C ,  3-C ) :   1.2666
B(  2-C ,  6-C ) :   1.0367 B(  3-C ,  4-C ) :   1.5353 B(  3-C ,  5-H ) :   0.9841
B(  4-C , 20-C ) :   1.0694 B(  6-C ,  7-H ) :   0.9284 B(  6-C ,  8-H ) :   0.9557
B(  6-C ,  9-C ) :   1.0382 B(  9-C , 10-H ) :   0.9525 B(  9-C , 11-H ) :   0.9675
B(  9-C , 12-C ) :   1.0720 B( 12-C , 13-H ) :   0.9750 B( 12-C , 14-H ) :   0.9776
B( 12-C , 15-H ) :   0.9750 B( 16-S , 17-C ) :   1.1510 B( 16-S , 20-C ) :   1.1215
B( 17-C , 18-C ) :   1.6077 B( 17-C , 33-H ) :   0.9663 B( 18-C , 19-C ) :   1.2172
B( 18-C , 21-H ) :   0.9945 B( 19-C , 20-C ) :   1.5809 B( 19-C , 22-C ) :   1.0617
B( 22-C , 23-H ) :   0.9247 B( 22-C , 24-H ) :   0.9292 B( 22-C , 25-C ) :   1.0734
B( 25-C , 26-H ) :   0.9508 B( 25-C , 27-H ) :   0.9580 B( 25-C , 28-C ) :   1.0674
B( 28-C , 29-H ) :   0.9716 B( 28-C , 30-H ) :   0.9716 B( 28-C , 31-H ) :   0.9739

Dispersion correction           -0.014881551
FINAL SINGLE POINT ENERGY     -1339.868287262948

DIPOLE MOMENT
-------------
                                X             Y             Z
Electronic contribution:      8.01293       0.56470     -27.98524
Nuclear contribution   :     -8.10919      -0.29776      28.59152
                        -----------------------------------------
Total Dipole Moment    :     -0.09626       0.26695       0.60628
                        -----------------------------------------
Magnitude (a.u.)       :      0.66941
Magnitude (Debye)      :      1.70150

Rotational constants in cm-1:     0.019734     0.009003     0.006834
Rotational constants in MHz :   591.602455   269.903426   204.875350

                             ****ORCA TERMINATED NORMALLY****
TOTAL RUN TIME: 0 days 0 hours 0 minutes 21 seconds 178 msec
