                         Program Version 4.2.1 -  RELEASE  -
|  1> ! wB97X-D3 SP def2-SVP
|  2> %pal
|  3> nprocs 24
|  4> end
|  5>
|  6> * xyz 0 1
|  7> S 	 -105.395 	 55.8273 	 -81.3477
|  8> C 	 -104.966 	 56.3148 	 -83.0005
|  9> C 	 -105.484 	 55.4418 	 -83.9507
| 10> C 	 -106.239 	 54.3812 	 -83.4015
| 11> C 	 -106.171 	 54.3207 	 -81.957
| 12> H 	 -106.694 	 53.6295 	 -83.974
| 13> C 	 -105.317 	 55.7002 	 -85.515
| 14> H 	 -104.38 	 56.2318 	 -85.5626
| 15> H 	 -106.109 	 56.3564 	 -85.81
| 16> C 	 -105.267 	 54.3844 	 -86.3627
| 17> H 	 -104.571 	 53.7103 	 -85.8786
| 18> H 	 -106.359 	 54.0311 	 -86.4319
| 19> C 	 -104.907 	 54.6057 	 -87.8247
| 20> H 	 -104.803 	 53.7929 	 -88.5272
| 21> H 	 -105.672 	 55.1811 	 -88.2695
| 22> H 	 -103.951 	 55.0835 	 -87.8685
| 23> S 	 -108.125 	 53.8639 	 -80.2824
| 24> C 	 -108.364 	 52.2668 	 -79.5791
| 25> C 	 -107.702 	 51.2922 	 -80.3044
| 26> C 	 -106.807 	 51.8786 	 -81.2207
| 27> C 	 -106.82 	 53.2549 	 -81.1856
| 28> H 	 -107.925 	 50.2322 	 -80.2385
| 29> C 	 -105.94 	 51.0381 	 -82.1672
| 30> H 	 -105.563 	 50.2055 	 -81.6151
| 31> H 	 -105.092 	 51.6843 	 -82.4906
| 32> C 	 -106.747 	 50.4911 	 -83.343
| 33> H 	 -106.08 	 49.9756 	 -84.07
| 34> H 	 -107.233 	 51.2361 	 -83.9191
| 35> C 	 -107.648 	 49.297 	 -83.0466
| 36> H 	 -107.934 	 48.7982 	 -83.9923
| 37> H 	 -108.573 	 49.6103 	 -82.642
| 38> H 	 -107.18 	 48.6083 	 -82.3973
| 39> H 	 -104.361 	 57.1889 	 -83.1614
| 40> H 	 -109.129 	 52.0312 	 -78.8369
| 41> *
| 42>
| 43>                          ****END OF INPUT****

CARTESIAN COORDINATES (ANGSTROEM)
---------------------------------
  S    -105.395000   55.827300  -81.347700
  C    -104.966000   56.314800  -83.000500
  C    -105.484000   55.441800  -83.950700
  C    -106.239000   54.381200  -83.401500
  C    -106.171000   54.320700  -81.957000
  H    -106.694000   53.629500  -83.974000
  C    -105.317000   55.700200  -85.515000
  H    -104.380000   56.231800  -85.562600
  H    -106.109000   56.356400  -85.810000
  C    -105.267000   54.384400  -86.362700
  H    -104.571000   53.710300  -85.878600
  H    -106.359000   54.031100  -86.431900
  C    -104.907000   54.605700  -87.824700
  H    -104.803000   53.792900  -88.527200
  H    -105.672000   55.181100  -88.269500
  H    -103.951000   55.083500  -87.868500
  S    -108.125000   53.863900  -80.282400
  C    -108.364000   52.266800  -79.579100
  C    -107.702000   51.292200  -80.304400
  C    -106.807000   51.878600  -81.220700
  C    -106.820000   53.254900  -81.185600
  H    -107.925000   50.232200  -80.238500
  C    -105.940000   51.038100  -82.167200
  H    -105.563000   50.205500  -81.615100
  H    -105.092000   51.684300  -82.490600
  C    -106.747000   50.491100  -83.343000
  H    -106.080000   49.975600  -84.070000
  H    -107.233000   51.236100  -83.919100
  C    -107.648000   49.297000  -83.046600
  H    -107.934000   48.798200  -83.992300
  H    -108.573000   49.610300  -82.642000
  H    -107.180000   48.608300  -82.397300
  H    -104.361000   57.188900  -83.161400
  H    -109.129000   52.031200  -78.836900

 Total Charge           Charge          ....    0
 Multiplicity           Mult            ....    1
 Number of Electrons    NEL             ....  134
 Basis Dimension        Dim             ....  322

ORBITAL ENERGIES
----------------

  NO   OCC          E(Eh)            E(eV)
   0   2.0000     -88.970931     -2421.0221
   1   2.0000     -88.962205     -2420.7847
   2   2.0000     -10.338237      -281.3177
   3   2.0000     -10.319038      -280.7953
   4   2.0000     -10.317327      -280.7487
   5   2.0000     -10.314957      -280.6843
   6   2.0000     -10.305166      -280.4178
   7   2.0000     -10.298315      -280.2314
   8   2.0000     -10.297712      -280.2150
   9   2.0000     -10.297052      -280.1970
  10   2.0000     -10.295579      -280.1570
  11   2.0000     -10.291703      -280.0515
  12   2.0000     -10.290212      -280.0109
  13   2.0000     -10.283371      -279.8247
  14   2.0000     -10.272837      -279.5381
  15   2.0000     -10.272494      -279.5288
  16   2.0000      -8.083967      -219.9759
  17   2.0000      -8.077967      -219.8127
  18   2.0000      -6.042522      -164.4254
  19   2.0000      -6.038631      -164.3195
  20   2.0000      -6.036368      -164.2579
  21   2.0000      -6.034857      -164.2168
  22   2.0000      -6.032477      -164.1520
  23   2.0000      -6.028614      -164.0469
  24   2.0000      -1.007484       -27.4150
  25   2.0000      -0.976432       -26.5701
  26   2.0000      -0.911567       -24.8050
  27   2.0000      -0.905005       -24.6264
  28   2.0000      -0.869297       -23.6548
  29   2.0000      -0.850040       -23.1308
  30   2.0000      -0.846389       -23.0314
  31   2.0000      -0.811397       -22.0792
  32   2.0000      -0.783606       -21.3230
  33   2.0000      -0.771696       -20.9989
  34   2.0000      -0.708842       -19.2886
  35   2.0000      -0.698174       -18.9983
  36   2.0000      -0.687445       -18.7063
  37   2.0000      -0.666251       -18.1296
  38   2.0000      -0.640519       -17.4294
  39   2.0000      -0.614025       -16.7085
  40   2.0000      -0.593586       -16.1523
  41   2.0000      -0.581797       -15.8315
  42   2.0000      -0.560171       -15.2430
  43   2.0000      -0.551891       -15.0177
  44   2.0000      -0.544285       -14.8108
  45   2.0000      -0.524653       -14.2765
  46   2.0000      -0.515689       -14.0326
  47   2.0000      -0.511725       -13.9247
  48   2.0000      -0.504093       -13.7171
  49   2.0000      -0.494996       -13.4695
  50   2.0000      -0.493827       -13.4377
  51   2.0000      -0.481504       -13.1024
  52   2.0000      -0.475090       -12.9278
  53   2.0000      -0.468192       -12.7401
  54   2.0000      -0.459799       -12.5118
  55   2.0000      -0.446791       -12.1578
  56   2.0000      -0.445730       -12.1289
  57   2.0000      -0.441522       -12.0144
  58   2.0000      -0.437122       -11.8947
  59   2.0000      -0.431162       -11.7325
  60   2.0000      -0.421164       -11.4605
  61   2.0000      -0.410809       -11.1787
  62   2.0000      -0.401768       -10.9327
  63   2.0000      -0.339932        -9.2500
  64   2.0000      -0.331540        -9.0217
  65   2.0000      -0.325347        -8.8531
  66   2.0000      -0.292119        -7.9490
  67   0.0000       0.025553         0.6953
  68   0.0000       0.062677         1.7055
  69   0.0000       0.106803         2.9063
  70   0.0000       0.124190         3.3794
  71   0.0000       0.132826         3.6144

MULLIKEN ATOMIC CHARGES
-----------------------
   0 S :    0.115482
   1 C :   -0.139123
   2 C :   -0.080013
   3 C :    0.057125
   4 C :   -0.159797
   5 H :   -0.010979
   6 C :    0.080876
   7 H :    0.018187
   8 H :    0.043950
   9 C :   -0.121431
  10 H :    0.044089
  11 H :    0.046408
  12 C :   -0.009365
  13 H :    0.028570
  14 H :    0.016970
  15 H :    0.019368
  16 S :    0.111222
  17 C :   -0.087530
  18 C :   -0.043796
  19 C :   -0.051146
  20 C :   -0.174905
  21 H :    0.022812
  22 C :    0.102665
  23 H :    0.012080
  24 H :    0.040788
  25 C :   -0.078711
  26 H :    0.028075
  27 H :    0.021323
  28 C :   -0.033934
  29 H :    0.031981
  30 H :    0.022502
  31 H :    0.022070
  32 H :    0.049191
  33 H :    0.054996
Sum of atomic charges:   -0.0000000

LOEWDIN ATOMIC CHARGES
----------------------
   0 S :    0.386522
   1 C :   -0.190477
   2 C :   -0.062450
   3 C :   -0.051973
   4 C :   -0.190389
   5 H :    0.019567
   6 C :   -0.019928
   7 H :    0.025498
   8 H :    0.029578
   9 C :   -0.043512
  10 H :    0.024945
  11 H :    0.033723
  12 C :   -0.065874
  13 H :    0.027044
  14 H :    0.020908
  15 H :    0.020916
  16 S :    0.427708
  17 C :   -0.181989
  18 C :   -0.070364
  19 C :   -0.058768
  20 C :   -0.215959
  21 H :    0.034402
  22 C :   -0.025262
  23 H :    0.024742
  24 H :    0.037972
  25 C :   -0.040408
  26 H :    0.030026
  27 H :    0.015679
  28 C :   -0.058594
  29 H :    0.031918
  30 H :    0.014948
  31 H :    0.017683
  32 H :    0.025015
  33 H :    0.027154

  Mayer bond orders larger than 0.100000
B(  0-S ,  1-C ) :   1.1421 B(  0-S ,  4-C ) :   1.1569 B(  1-C ,  2-C ) :   1.5906
B(  1-C ,  4-C ) :   0.1133 B(  1-C , 32-H ) :   0.9717 B(  2-C ,  3-C ) :   1.2824
B(  2-C ,  6-C ) :   0.9934 B(  3-C ,  4-C ) :   1.5133 B(  3-C ,  5-H ) :   0.9960
B(  4-C , 20-C ) :   1.0333 B(  6-C ,  7-H ) :   0.9453 B(  6-C ,  8-H ) :   0.9429
B(  6-C ,  9-C ) :   1.0643 B(  9-C , 10-H ) :   0.9643 B(  9-C , 11-H ) :   0.9499
B(  9-C , 12-C ) :   1.0822 B( 12-C , 13-H ) :   0.9743 B( 12-C , 14-H ) :   0.9731
B( 12-C , 15-H ) :   0.9736 B( 16-S , 17-C ) :   1.1578 B( 16-S , 20-C ) :   1.1722
B( 17-C , 18-C ) :   1.5910 B( 17-C , 20-C ) :   0.1029 B( 17-C , 33-H ) :   0.9678
B( 18-C , 19-C ) :   1.2568 B( 18-C , 21-H ) :   0.9880 B( 19-C , 20-C ) :   1.6015
B( 19-C , 22-C ) :   1.0368 B( 22-C , 23-H ) :   0.9343 B( 22-C , 24-H ) :   0.9328
B( 22-C , 25-C ) :   1.0751 B( 25-C , 26-H ) :   0.9575 B( 25-C , 27-H ) :   0.9532
B( 25-C , 28-C ) :   1.0817 B( 28-C , 29-H ) :   0.9717 B( 28-C , 30-H ) :   0.9706
B( 28-C , 31-H ) :   0.9730

Dispersion correction           -0.014507379
FINAL SINGLE POINT ENERGY     -1339.859275568867

DIPOLE MOMENT
-------------
                                X             Y             Z
Electronic contribution:     -3.73279      15.43339      26.98694
Nuclear contribution   :      3.71229     -15.79497     -27.72448
                        -----------------------------------------
Total Dipole Moment    :     -0.02051      -0.36158      -0.73754
                        -----------------------------------------
Magnitude (a.u.)       :      0.82166
Magnitude (Debye)      :      2.08850

Rotational constants in cm-1:     0.017114     0.009415     0.006544
Rotational constants in MHz :   513.078923   282.261722   196.185832

                             ****ORCA TERMINATED NORMALLY****
TOTAL RUN TIME: 0 days 0 hours 0 minutes 21 seconds 882 msec
