                         Program Version 4.2.1 -  RELEASE  -
|  1> ! wB97X-D3 SP def2-SVP
|  2> %pal
|  3> nprocs 24
|  4> end
|  5>
|  6> * xyz 0 1
|  7> S 	 -107.566 	 16.8144 	 -117.975
|  8> C 	 -107.576 	 15.3823 	 -117.022
|  9> C 	 -106.244 	 15.1125 	 -116.587
| 10> C 	 -105.404 	 16.2363 	 -116.905
| 11> C 	 -105.952 	 17.2914 	 -117.589
| 12> H 	 -104.36 	 16.3204 	 -116.693
| 13> C 	 -105.797 	 14.0454 	 -115.685
| 14> H 	 -106.411 	 13.1133 	 -115.624
| 15> H 	 -105.826 	 14.52 	 -114.735
| 16> C 	 -104.334 	 13.5455 	 -116.203
| 17> H 	 -104.38 	 13.303 	 -117.317
| 18> H 	 -103.581 	 14.3188 	 -116.086
| 19> C 	 -103.755 	 12.3271 	 -115.389
| 20> H 	 -103.754 	 12.6185 	 -114.347
| 21> H 	 -104.313 	 11.3664 	 -115.403
| 22> H 	 -102.685 	 12.2205 	 -115.783
| 23> S 	 -105.444 	 19.9615 	 -117.032
| 24> C 	 -104.354 	 20.8635 	 -118.122
| 25> C 	 -103.966 	 20.1231 	 -119.164
| 26> C 	 -104.498 	 18.8008 	 -119.145
| 27> C 	 -105.264 	 18.5411 	 -118.032
| 28> H 	 -103.387 	 20.5254 	 -119.968
| 29> C 	 -104.194 	 17.8767 	 -120.275
| 30> H 	 -103.682 	 18.3368 	 -121.122
| 31> H 	 -105.147 	 17.5255 	 -120.623
| 32> C 	 -103.222 	 16.7866 	 -119.989
| 33> H 	 -103.775 	 15.9027 	 -119.591
| 34> H 	 -102.449 	 17.1229 	 -119.254
| 35> C 	 -102.32 	 16.358 	 -121.186
| 36> H 	 -101.733 	 17.1124 	 -121.757
| 37> H 	 -102.834 	 15.9779 	 -122.073
| 38> H 	 -101.824 	 15.4327 	 -120.875
| 39> H 	 -108.435 	 14.7712 	 -116.849
| 40> H 	 -104.067 	 21.8784 	 -117.936
| 41> *
| 42>
| 43>                          ****END OF INPUT****

CARTESIAN COORDINATES (ANGSTROEM)
---------------------------------
  S    -107.566000   16.814400  -117.975000
  C    -107.576000   15.382300  -117.022000
  C    -106.244000   15.112500  -116.587000
  C    -105.404000   16.236300  -116.905000
  C    -105.952000   17.291400  -117.589000
  H    -104.360000   16.320400  -116.693000
  C    -105.797000   14.045400  -115.685000
  H    -106.411000   13.113300  -115.624000
  H    -105.826000   14.520000  -114.735000
  C    -104.334000   13.545500  -116.203000
  H    -104.380000   13.303000  -117.317000
  H    -103.581000   14.318800  -116.086000
  C    -103.755000   12.327100  -115.389000
  H    -103.754000   12.618500  -114.347000
  H    -104.313000   11.366400  -115.403000
  H    -102.685000   12.220500  -115.783000
  S    -105.444000   19.961500  -117.032000
  C    -104.354000   20.863500  -118.122000
  C    -103.966000   20.123100  -119.164000
  C    -104.498000   18.800800  -119.145000
  C    -105.264000   18.541100  -118.032000
  H    -103.387000   20.525400  -119.968000
  C    -104.194000   17.876700  -120.275000
  H    -103.682000   18.336800  -121.122000
  H    -105.147000   17.525500  -120.623000
  C    -103.222000   16.786600  -119.989000
  H    -103.775000   15.902700  -119.591000
  H    -102.449000   17.122900  -119.254000
  C    -102.320000   16.358000  -121.186000
  H    -101.733000   17.112400  -121.757000
  H    -102.834000   15.977900  -122.073000
  H    -101.824000   15.432700  -120.875000
  H    -108.435000   14.771200  -116.849000
  H    -104.067000   21.878400  -117.936000

 Total Charge           Charge          ....    0
 Multiplicity           Mult            ....    1
 Number of Electrons    NEL             ....  134
 Basis Dimension        Dim             ....  322

ORBITAL ENERGIES
----------------

  NO   OCC          E(Eh)            E(eV)
   0   2.0000     -88.963722     -2420.8260
   1   2.0000     -88.961503     -2420.7656
   2   2.0000     -10.327903      -281.0365
   3   2.0000     -10.326330      -280.9937
   4   2.0000     -10.315616      -280.7022
   5   2.0000     -10.314706      -280.6774
   6   2.0000     -10.303474      -280.3718
   7   2.0000     -10.301099      -280.3071
   8   2.0000     -10.300184      -280.2823
   9   2.0000     -10.296595      -280.1846
  10   2.0000     -10.288601      -279.9671
  11   2.0000     -10.288507      -279.9645
  12   2.0000     -10.288108      -279.9536
  13   2.0000     -10.287998      -279.9507
  14   2.0000     -10.282124      -279.7908
  15   2.0000     -10.280748      -279.7534
  16   2.0000      -8.078273      -219.8210
  17   2.0000      -8.076933      -219.7845
  18   2.0000      -6.036834      -164.2706
  19   2.0000      -6.035348      -164.2302
  20   2.0000      -6.032871      -164.1628
  21   2.0000      -6.031069      -164.1137
  22   2.0000      -6.028914      -164.0551
  23   2.0000      -6.028015      -164.0306
  24   2.0000      -1.007280       -27.4095
  25   2.0000      -0.988123       -26.8882
  26   2.0000      -0.913249       -24.8508
  27   2.0000      -0.905346       -24.6357
  28   2.0000      -0.868386       -23.6300
  29   2.0000      -0.847237       -23.0545
  30   2.0000      -0.842767       -22.9328
  31   2.0000      -0.820054       -22.3148
  32   2.0000      -0.780712       -21.2443
  33   2.0000      -0.768151       -20.9024
  34   2.0000      -0.707784       -19.2598
  35   2.0000      -0.698265       -19.0008
  36   2.0000      -0.686003       -18.6671
  37   2.0000      -0.665509       -18.1094
  38   2.0000      -0.645277       -17.5589
  39   2.0000      -0.617989       -16.8163
  40   2.0000      -0.601541       -16.3688
  41   2.0000      -0.572411       -15.5761
  42   2.0000      -0.567006       -15.4290
  43   2.0000      -0.561208       -15.2712
  44   2.0000      -0.526317       -14.3218
  45   2.0000      -0.522243       -14.2109
  46   2.0000      -0.518604       -14.1119
  47   2.0000      -0.511560       -13.9202
  48   2.0000      -0.510085       -13.8801
  49   2.0000      -0.496461       -13.5094
  50   2.0000      -0.491906       -13.3855
  51   2.0000      -0.478976       -13.0336
  52   2.0000      -0.477555       -12.9949
  53   2.0000      -0.462557       -12.5868
  54   2.0000      -0.460726       -12.5370
  55   2.0000      -0.447487       -12.1767
  56   2.0000      -0.445587       -12.1250
  57   2.0000      -0.432868       -11.7789
  58   2.0000      -0.426343       -11.6014
  59   2.0000      -0.422387       -11.4937
  60   2.0000      -0.418228       -11.3806
  61   2.0000      -0.406824       -11.0702
  62   2.0000      -0.402847       -10.9620
  63   2.0000      -0.339086        -9.2270
  64   2.0000      -0.327407        -8.9092
  65   2.0000      -0.317527        -8.6403
  66   2.0000      -0.312286        -8.4977
  67   0.0000       0.047616         1.2957
  68   0.0000       0.055448         1.5088
  69   0.0000       0.113146         3.0789
  70   0.0000       0.120014         3.2657
  71   0.0000       0.135705         3.6927

MULLIKEN ATOMIC CHARGES
-----------------------
   0 S :    0.114417
   1 C :   -0.115102
   2 C :   -0.072356
   3 C :    0.036885
   4 C :   -0.167524
   5 H :   -0.000779
   6 C :    0.057012
   7 H :    0.034529
   8 H :    0.047144
   9 C :   -0.147658
  10 H :    0.054555
  11 H :    0.041126
  12 C :   -0.066796
  13 H :    0.030308
  14 H :    0.044032
  15 H :    0.049583
  16 S :    0.103889
  17 C :   -0.079630
  18 C :   -0.014337
  19 C :   -0.031072
  20 C :   -0.190612
  21 H :    0.012406
  22 C :    0.135546
  23 H :    0.000338
  24 H :    0.027697
  25 C :   -0.095433
  26 H :    0.048115
  27 H :    0.041296
  28 C :   -0.082017
  29 H :    0.041515
  30 H :    0.011183
  31 H :    0.037149
  32 H :    0.045623
  33 H :    0.048966
Sum of atomic charges:    0.0000000

LOEWDIN ATOMIC CHARGES
----------------------
   0 S :    0.427135
   1 C :   -0.205709
   2 C :   -0.066520
   3 C :   -0.062031
   4 C :   -0.214774
   5 H :    0.024774
   6 C :   -0.034865
   7 H :    0.034753
   8 H :    0.034622
   9 C :   -0.039688
  10 H :    0.033063
  11 H :    0.020694
  12 C :   -0.077383
  13 H :    0.022556
  14 H :    0.025641
  15 H :    0.037366
  16 S :    0.393120
  17 C :   -0.159741
  18 C :   -0.069242
  19 C :   -0.048925
  20 C :   -0.202395
  21 H :    0.031772
  22 C :   -0.035812
  23 H :    0.031036
  24 H :    0.032747
  25 C :   -0.042150
  26 H :    0.031318
  27 H :    0.031576
  28 C :   -0.088226
  29 H :    0.030049
  30 H :    0.021434
  31 H :    0.032230
  32 H :    0.025732
  33 H :    0.025845

  Mayer bond orders larger than 0.100000
B(  0-S ,  1-C ) :   1.1731 B(  0-S ,  4-C ) :   1.1614 B(  1-C ,  2-C ) :   1.5369
B(  1-C ,  4-C ) :   0.1020 B(  1-C , 32-H ) :   0.9799 B(  2-C ,  3-C ) :   1.2501
B(  2-C ,  6-C ) :   1.0422 B(  3-C ,  4-C ) :   1.5865 B(  3-C ,  5-H ) :   0.9932
B(  4-C , 20-C ) :   0.9978 B(  6-C ,  7-H ) :   0.9483 B(  6-C ,  8-H ) :   0.9388
B(  6-C ,  9-C ) :   1.0361 B(  9-C , 10-H ) :   0.9640 B(  9-C , 11-H ) :   0.9548
B(  9-C , 12-C ) :   1.0730 B( 12-C , 13-H ) :   0.9740 B( 12-C , 14-H ) :   0.9773
B( 12-C , 15-H ) :   0.9751 B( 16-S , 17-C ) :   1.1424 B( 16-S , 20-C ) :   1.1402
B( 17-C , 18-C ) :   1.6299 B( 17-C , 33-H ) :   0.9686 B( 18-C , 19-C ) :   1.2310
B( 18-C , 21-H ) :   0.9932 B( 19-C , 20-C ) :   1.6285 B( 19-C , 22-C ) :   1.0513
B( 22-C , 23-H ) :   0.9356 B( 22-C , 24-H ) :   0.9140 B( 22-C , 25-C ) :   1.0616
B( 25-C , 26-H ) :   0.9472 B( 25-C , 27-H ) :   0.9578 B( 25-C , 28-C ) :   1.0845
B( 28-C , 29-H ) :   0.9699 B( 28-C , 30-H ) :   0.9690 B( 28-C , 31-H ) :   0.9731

Dispersion correction           -0.014485731
FINAL SINGLE POINT ENERGY     -1339.859628604011

DIPOLE MOMENT
-------------
                                X             Y             Z
Electronic contribution:    -18.71259      22.49531       4.40654
Nuclear contribution   :     19.16211     -22.83076      -4.51114
                        -----------------------------------------
Total Dipole Moment    :      0.44952      -0.33545      -0.10460
                        -----------------------------------------
Magnitude (a.u.)       :      0.57056
Magnitude (Debye)      :      1.45024

Rotational constants in cm-1:     0.016667     0.008926     0.007157
Rotational constants in MHz :   499.663235   267.593405   214.555123

                             ****ORCA TERMINATED NORMALLY****
TOTAL RUN TIME: 0 days 0 hours 0 minutes 21 seconds 672 msec
