                         Program Version 4.2.1 -  RELEASE  -
|  1> ! wB97X-D3 SP def2-SVP
|  2> %pal
|  3> nprocs 24
|  4> end
|  5>
|  6> * xyz 0 1
|  7> S 	 -133.889 	 7.65538 	 5.96542
|  8> C 	 -132.426 	 8.54145 	 5.67394
|  9> C 	 -131.347 	 8.04545 	 6.43952
| 10> C 	 -131.768 	 6.9076 	 7.24943
| 11> C 	 -133.109 	 6.50202 	 7.10668
| 12> H 	 -131.17 	 6.35939 	 7.95636
| 13> C 	 -129.966 	 8.71016 	 6.41176
| 14> H 	 -129.752 	 8.99108 	 7.53388
| 15> H 	 -130.094 	 9.58048 	 5.69522
| 16> C 	 -128.772 	 7.87561 	 5.83203
| 17> H 	 -128.783 	 6.94881 	 6.38862
| 18> H 	 -129.065 	 7.6104 	 4.82158
| 19> C 	 -127.482 	 8.55033 	 5.74224
| 20> H 	 -126.843 	 8.08112 	 4.95995
| 21> H 	 -127.574 	 9.6749 	 5.57748
| 22> H 	 -126.917 	 8.50317 	 6.66238
| 23> S 	 -133.398 	 5.04134 	 9.46862
| 24> C 	 -134.711 	 3.92103 	 9.66688
| 25> C 	 -135.518 	 3.87881 	 8.56843
| 26> C 	 -134.999 	 4.66419 	 7.45235
| 27> C 	 -133.865 	 5.40035 	 7.80323
| 28> H 	 -136.421 	 3.26187 	 8.59277
| 29> C 	 -135.673 	 4.84844 	 6.08374
| 30> H 	 -134.942 	 4.64583 	 5.27588
| 31> H 	 -135.872 	 5.89038 	 5.97031
| 32> C 	 -136.948 	 3.97081 	 5.76476
| 33> H 	 -137.304 	 4.43874 	 4.84379
| 34> H 	 -137.712 	 4.24994 	 6.50468
| 35> C 	 -136.794 	 2.41982 	 5.67552
| 36> H 	 -137.821 	 1.92616 	 5.57629
| 37> H 	 -136.205 	 1.93159 	 6.45917
| 38> H 	 -136.279 	 2.31675 	 4.68933
| 39> H 	 -132.376 	 9.33404 	 5.00671
| 40> H 	 -134.84 	 3.29075 	 10.5478
| 41> *
| 42>
| 43>                          ****END OF INPUT****

CARTESIAN COORDINATES (ANGSTROEM)
---------------------------------
  S    -133.889000    7.655380    5.965420
  C    -132.426000    8.541450    5.673940
  C    -131.347000    8.045450    6.439520
  C    -131.768000    6.907600    7.249430
  C    -133.109000    6.502020    7.106680
  H    -131.170000    6.359390    7.956360
  C    -129.966000    8.710160    6.411760
  H    -129.752000    8.991080    7.533880
  H    -130.094000    9.580480    5.695220
  C    -128.772000    7.875610    5.832030
  H    -128.783000    6.948810    6.388620
  H    -129.065000    7.610400    4.821580
  C    -127.482000    8.550330    5.742240
  H    -126.843000    8.081120    4.959950
  H    -127.574000    9.674900    5.577480
  H    -126.917000    8.503170    6.662380
  S    -133.398000    5.041340    9.468620
  C    -134.711000    3.921030    9.666880
  C    -135.518000    3.878810    8.568430
  C    -134.999000    4.664190    7.452350
  C    -133.865000    5.400350    7.803230
  H    -136.421000    3.261870    8.592770
  C    -135.673000    4.848440    6.083740
  H    -134.942000    4.645830    5.275880
  H    -135.872000    5.890380    5.970310
  C    -136.948000    3.970810    5.764760
  H    -137.304000    4.438740    4.843790
  H    -137.712000    4.249940    6.504680
  C    -136.794000    2.419820    5.675520
  H    -137.821000    1.926160    5.576290
  H    -136.205000    1.931590    6.459170
  H    -136.279000    2.316750    4.689330
  H    -132.376000    9.334040    5.006710
  H    -134.840000    3.290750   10.547800

 Total Charge           Charge          ....    0
 Multiplicity           Mult            ....    1
 Number of Electrons    NEL             ....  134
 Basis Dimension        Dim             ....  322

ORBITAL ENERGIES
----------------

  NO   OCC          E(Eh)            E(eV)
   0   2.0000     -88.967562     -2420.9304
   1   2.0000     -88.965188     -2420.8658
   2   2.0000     -10.343026      -281.4481
   3   2.0000     -10.334090      -281.2049
   4   2.0000     -10.318502      -280.7807
   5   2.0000     -10.315147      -280.6894
   6   2.0000     -10.311073      -280.5786
   7   2.0000     -10.310855      -280.5726
   8   2.0000     -10.309229      -280.5284
   9   2.0000     -10.302274      -280.3391
  10   2.0000     -10.298897      -280.2472
  11   2.0000     -10.294362      -280.1238
  12   2.0000     -10.293038      -280.0878
  13   2.0000     -10.290838      -280.0280
  14   2.0000     -10.282113      -279.7905
  15   2.0000     -10.281154      -279.7644
  16   2.0000      -8.081205      -219.9008
  17   2.0000      -8.079935      -219.8662
  18   2.0000      -6.039831      -164.3522
  19   2.0000      -6.038477      -164.3153
  20   2.0000      -6.035713      -164.2401
  21   2.0000      -6.034439      -164.2054
  22   2.0000      -6.032089      -164.1415
  23   2.0000      -6.030672      -164.1029
  24   2.0000      -0.999263       -27.1913
  25   2.0000      -0.978628       -26.6298
  26   2.0000      -0.909513       -24.7491
  27   2.0000      -0.899393       -24.4737
  28   2.0000      -0.869144       -23.6506
  29   2.0000      -0.849138       -23.1062
  30   2.0000      -0.841063       -22.8865
  31   2.0000      -0.817976       -22.2583
  32   2.0000      -0.780623       -21.2418
  33   2.0000      -0.768071       -20.9003
  34   2.0000      -0.704521       -19.1710
  35   2.0000      -0.697609       -18.9829
  36   2.0000      -0.687392       -18.7049
  37   2.0000      -0.659693       -17.9512
  38   2.0000      -0.636885       -17.3305
  39   2.0000      -0.615580       -16.7508
  40   2.0000      -0.595871       -16.2145
  41   2.0000      -0.568908       -15.4808
  42   2.0000      -0.564784       -15.3686
  43   2.0000      -0.549573       -14.9546
  44   2.0000      -0.532134       -14.4801
  45   2.0000      -0.521629       -14.1942
  46   2.0000      -0.514864       -14.0102
  47   2.0000      -0.511113       -13.9081
  48   2.0000      -0.505288       -13.7496
  49   2.0000      -0.501966       -13.6592
  50   2.0000      -0.489914       -13.3312
  51   2.0000      -0.485488       -13.2108
  52   2.0000      -0.472455       -12.8562
  53   2.0000      -0.465283       -12.6610
  54   2.0000      -0.457823       -12.4580
  55   2.0000      -0.452178       -12.3044
  56   2.0000      -0.446770       -12.1572
  57   2.0000      -0.436499       -11.8778
  58   2.0000      -0.423763       -11.5312
  59   2.0000      -0.421844       -11.4789
  60   2.0000      -0.414518       -11.2796
  61   2.0000      -0.412550       -11.2260
  62   2.0000      -0.409492       -11.1429
  63   2.0000      -0.355474        -9.6729
  64   2.0000      -0.329858        -8.9759
  65   2.0000      -0.327391        -8.9088
  66   2.0000      -0.288191        -7.8421
  67   0.0000       0.022087         0.6010
  68   0.0000       0.079195         2.1550
  69   0.0000       0.109263         2.9732
  70   0.0000       0.120357         3.2751
  71   0.0000       0.122566         3.3352

MULLIKEN ATOMIC CHARGES
-----------------------
   0 S :    0.078397
   1 C :   -0.084439
   2 C :   -0.082809
   3 C :    0.020092
   4 C :   -0.135348
   5 H :    0.010076
   6 C :   -0.003639
   7 H :    0.059096
   8 H :    0.029289
   9 C :   -0.052988
  10 H :    0.026651
  11 H :    0.020526
  12 C :   -0.046294
  13 H :    0.045687
  14 H :    0.035291
  15 H :    0.025923
  16 S :    0.093289
  17 C :   -0.088554
  18 C :   -0.046629
  19 C :   -0.057759
  20 C :   -0.122629
  21 H :    0.031246
  22 C :    0.028007
  23 H :    0.039088
  24 H :    0.041497
  25 C :   -0.079447
  26 H :    0.031002
  27 H :    0.026576
  28 C :   -0.078768
  29 H :    0.052409
  30 H :    0.053814
  31 H :    0.039952
  32 H :    0.027885
  33 H :    0.063510
Sum of atomic charges:    0.0000000

LOEWDIN ATOMIC CHARGES
----------------------
   0 S :    0.400215
   1 C :   -0.189446
   2 C :   -0.063046
   3 C :   -0.067586
   4 C :   -0.174972
   5 H :    0.024573
   6 C :   -0.038095
   7 H :    0.043988
   8 H :    0.034001
   9 C :   -0.050352
  10 H :    0.023010
  11 H :    0.024797
  12 C :   -0.073240
  13 H :    0.035130
  14 H :    0.033996
  15 H :    0.023008
  16 S :    0.401643
  17 C :   -0.186133
  18 C :   -0.077278
  19 C :   -0.054258
  20 C :   -0.193910
  21 H :    0.036323
  22 C :   -0.039619
  23 H :    0.035528
  24 H :    0.020264
  25 C :   -0.045817
  26 H :    0.028798
  27 H :    0.018814
  28 C :   -0.075710
  29 H :    0.037854
  30 H :    0.026668
  31 H :    0.032633
  32 H :    0.013912
  33 H :    0.034306

  Mayer bond orders larger than 0.100000
B(  0-S ,  1-C ) :   1.1506 B(  0-S ,  4-C ) :   1.1352 B(  1-C ,  2-C ) :   1.5928
B(  1-C , 32-H ) :   0.9747 B(  2-C ,  3-C ) :   1.2370 B(  2-C ,  6-C ) :   1.0283
B(  3-C ,  4-C ) :   1.5782 B(  3-C ,  5-H ) :   0.9906 B(  4-C , 20-C ) :   1.0473
B(  6-C ,  7-H ) :   0.9390 B(  6-C ,  8-H ) :   0.9402 B(  6-C ,  9-C ) :   1.0607
B(  9-C , 10-H ) :   0.9534 B(  9-C , 11-H ) :   0.9537 B(  9-C , 12-C ) :   1.0916
B( 12-C , 13-H ) :   0.9730 B( 12-C , 14-H ) :   0.9687 B( 12-C , 15-H ) :   0.9703
B( 16-S , 17-C ) :   1.1556 B( 16-S , 20-C ) :   1.1329 B( 17-C , 18-C ) :   1.6206
B( 17-C , 33-H ) :   0.9627 B( 18-C , 19-C ) :   1.2317 B( 18-C , 21-H ) :   0.9855
B( 19-C , 20-C ) :   1.5957 B( 19-C , 22-C ) :   1.0220 B( 22-C , 23-H ) :   0.9348
B( 22-C , 24-H ) :   0.9311 B( 22-C , 25-C ) :   1.0806 B( 25-C , 26-H ) :   0.9572
B( 25-C , 27-H ) :   0.9546 B( 25-C , 28-C ) :   1.0566 B( 28-C , 29-H ) :   0.9741
B( 28-C , 30-H ) :   0.9777 B( 28-C , 31-H ) :   0.9756

Dispersion correction           -0.013451897
FINAL SINGLE POINT ENERGY     -1339.877215387284

DIPOLE MOMENT
-------------
                                X             Y             Z
Electronic contribution:     -7.36988       2.43978      12.16322
Nuclear contribution   :      7.43037      -2.55149     -12.35098
                        -----------------------------------------
Total Dipole Moment    :      0.06049      -0.11171      -0.18776
                        -----------------------------------------
Magnitude (a.u.)       :      0.22670
Magnitude (Debye)      :      0.57622

Rotational constants in cm-1:     0.023980     0.006532     0.005703
Rotational constants in MHz :   718.912809   195.810204   170.983683

                             ****ORCA TERMINATED NORMALLY****
TOTAL RUN TIME: 0 days 0 hours 0 minutes 20 seconds 245 msec
