                         Program Version 4.2.1 -  RELEASE  -
|  1> ! wB97X-D3 SP def2-SVP
|  2> %pal
|  3> nprocs 24
|  4> end
|  5>
|  6> * xyz 0 1
|  7> S 	 21.1477 	 -8.4566 	 -119.72
|  8> C 	 20.8559 	 -9.0335 	 -118.099
|  9> C 	 19.7466 	 -8.44664 	 -117.511
| 10> C 	 19.0804 	 -7.56179 	 -118.372
| 11> C 	 19.6559 	 -7.50429 	 -119.674
| 12> H 	 18.2415 	 -6.94603 	 -118.121
| 13> C 	 19.1938 	 -8.71283 	 -116.129
| 14> H 	 20.0436 	 -8.98319 	 -115.518
| 15> H 	 18.5616 	 -9.68395 	 -116.168
| 16> C 	 18.445 	 -7.63864 	 -115.44
| 17> H 	 18.778 	 -6.55251 	 -115.645
| 18> H 	 17.3977 	 -7.53718 	 -115.832
| 19> C 	 18.1493 	 -7.84389 	 -113.989
| 20> H 	 17.7112 	 -6.86568 	 -113.733
| 21> H 	 17.4072 	 -8.69409 	 -113.821
| 22> H 	 19.0146 	 -8.0323 	 -113.305
| 23> S 	 20.3025 	 -5.74194 	 -121.626
| 24> C 	 19.009 	 -4.96662 	 -122.431
| 25> C 	 17.8096 	 -5.31803 	 -122.03
| 26> C 	 17.8292 	 -6.35198 	 -121.066
| 27> C 	 19.1476 	 -6.71044 	 -120.782
| 28> H 	 17.0457 	 -4.68307 	 -122.408
| 29> C 	 16.5467 	 -6.84182 	 -120.323
| 30> H 	 16.6981 	 -7.88574 	 -120.007
| 31> H 	 15.7799 	 -6.7936 	 -121.015
| 32> C 	 16.0431 	 -5.83062 	 -119.197
| 33> H 	 15.739 	 -4.89892 	 -119.61
| 34> H 	 16.7689 	 -5.45835 	 -118.517
| 35> C 	 14.9457 	 -6.35973 	 -118.179
| 36> H 	 15.1945 	 -7.3916 	 -117.8
| 37> H 	 13.9534 	 -6.38552 	 -118.741
| 38> H 	 14.7283 	 -5.69155 	 -117.313
| 39> H 	 21.4694 	 -9.77849 	 -117.542
| 40> H 	 19.0678 	 -4.26538 	 -123.217
| 41> *
| 42>
| 43>                          ****END OF INPUT****

CARTESIAN COORDINATES (ANGSTROEM)
---------------------------------
  S     21.147700   -8.456600  -119.720000
  C     20.855900   -9.033500  -118.099000
  C     19.746600   -8.446640  -117.511000
  C     19.080400   -7.561790  -118.372000
  C     19.655900   -7.504290  -119.674000
  H     18.241500   -6.946030  -118.121000
  C     19.193800   -8.712830  -116.129000
  H     20.043600   -8.983190  -115.518000
  H     18.561600   -9.683950  -116.168000
  C     18.445000   -7.638640  -115.440000
  H     18.778000   -6.552510  -115.645000
  H     17.397700   -7.537180  -115.832000
  C     18.149300   -7.843890  -113.989000
  H     17.711200   -6.865680  -113.733000
  H     17.407200   -8.694090  -113.821000
  H     19.014600   -8.032300  -113.305000
  S     20.302500   -5.741940  -121.626000
  C     19.009000   -4.966620  -122.431000
  C     17.809600   -5.318030  -122.030000
  C     17.829200   -6.351980  -121.066000
  C     19.147600   -6.710440  -120.782000
  H     17.045700   -4.683070  -122.408000
  C     16.546700   -6.841820  -120.323000
  H     16.698100   -7.885740  -120.007000
  H     15.779900   -6.793600  -121.015000
  C     16.043100   -5.830620  -119.197000
  H     15.739000   -4.898920  -119.610000
  H     16.768900   -5.458350  -118.517000
  C     14.945700   -6.359730  -118.179000
  H     15.194500   -7.391600  -117.800000
  H     13.953400   -6.385520  -118.741000
  H     14.728300   -5.691550  -117.313000
  H     21.469400   -9.778490  -117.542000
  H     19.067800   -4.265380  -123.217000

 Total Charge           Charge          ....    0
 Multiplicity           Mult            ....    1
 Number of Electrons    NEL             ....  134
 Basis Dimension        Dim             ....  322

ORBITAL ENERGIES
----------------

  NO   OCC          E(Eh)            E(eV)
   0   2.0000     -88.970004     -2420.9969
   1   2.0000     -88.964481     -2420.8466
   2   2.0000     -10.330675      -281.1120
   3   2.0000     -10.323510      -280.9170
   4   2.0000     -10.314659      -280.6761
   5   2.0000     -10.305472      -280.4262
   6   2.0000     -10.300862      -280.3007
   7   2.0000     -10.298982      -280.2496
   8   2.0000     -10.296827      -280.1909
   9   2.0000     -10.295651      -280.1589
  10   2.0000     -10.295117      -280.1444
  11   2.0000     -10.292999      -280.0867
  12   2.0000     -10.291534      -280.0469
  13   2.0000     -10.289562      -279.9932
  14   2.0000     -10.287766      -279.9443
  15   2.0000     -10.281113      -279.7633
  16   2.0000      -8.084011      -219.9771
  17   2.0000      -8.080759      -219.8886
  18   2.0000      -6.042502      -164.4248
  19   2.0000      -6.039044      -164.3307
  20   2.0000      -6.038602      -164.3187
  21   2.0000      -6.035284      -164.2284
  22   2.0000      -6.034875      -164.2173
  23   2.0000      -6.031421      -164.1233
  24   2.0000      -1.013526       -27.5794
  25   2.0000      -0.986337       -26.8396
  26   2.0000      -0.918708       -24.9993
  27   2.0000      -0.899901       -24.4875
  28   2.0000      -0.876067       -23.8390
  29   2.0000      -0.852307       -23.1925
  30   2.0000      -0.849328       -23.1114
  31   2.0000      -0.814809       -22.1721
  32   2.0000      -0.784020       -21.3343
  33   2.0000      -0.772079       -21.0093
  34   2.0000      -0.711856       -19.3706
  35   2.0000      -0.704011       -19.1571
  36   2.0000      -0.684793       -18.6342
  37   2.0000      -0.660220       -17.9655
  38   2.0000      -0.632563       -17.2129
  39   2.0000      -0.624179       -16.9848
  40   2.0000      -0.595555       -16.2059
  41   2.0000      -0.572677       -15.5833
  42   2.0000      -0.563320       -15.3287
  43   2.0000      -0.559306       -15.2195
  44   2.0000      -0.530916       -14.4470
  45   2.0000      -0.522026       -14.2051
  46   2.0000      -0.513551       -13.9744
  47   2.0000      -0.511480       -13.9181
  48   2.0000      -0.502488       -13.6734
  49   2.0000      -0.493662       -13.4332
  50   2.0000      -0.489655       -13.3242
  51   2.0000      -0.478578       -13.0228
  52   2.0000      -0.476286       -12.9604
  53   2.0000      -0.472136       -12.8475
  54   2.0000      -0.456896       -12.4328
  55   2.0000      -0.452843       -12.3225
  56   2.0000      -0.445279       -12.1167
  57   2.0000      -0.441132       -12.0038
  58   2.0000      -0.436574       -11.8798
  59   2.0000      -0.431019       -11.7286
  60   2.0000      -0.424442       -11.5496
  61   2.0000      -0.411290       -11.1918
  62   2.0000      -0.403252       -10.9731
  63   2.0000      -0.352543        -9.5932
  64   2.0000      -0.334073        -9.0906
  65   2.0000      -0.330871        -9.0035
  66   2.0000      -0.283330        -7.7098
  67   0.0000       0.025700         0.6993
  68   0.0000       0.080424         2.1884
  69   0.0000       0.108123         2.9422
  70   0.0000       0.116873         3.1803
  71   0.0000       0.131940         3.5903

MULLIKEN ATOMIC CHARGES
-----------------------
   0 S :    0.119506
   1 C :   -0.136076
   2 C :   -0.076709
   3 C :    0.028605
   4 C :   -0.147001
   5 H :   -0.025495
   6 C :    0.098750
   7 H :    0.011761
   8 H :    0.053319
   9 C :   -0.146277
  10 H :    0.045558
  11 H :    0.029044
  12 C :   -0.057950
  13 H :    0.037222
  14 H :    0.043835
  15 H :    0.038436
  16 S :    0.114362
  17 C :   -0.059656
  18 C :   -0.038951
  19 C :   -0.056919
  20 C :   -0.133868
  21 H :    0.004198
  22 C :    0.127656
  23 H :    0.045126
  24 H :    0.005782
  25 C :   -0.066633
  26 H :    0.011810
  27 H :    0.022380
  28 C :   -0.107874
  29 H :    0.049273
  30 H :    0.039199
  31 H :    0.046614
  32 H :    0.053985
  33 H :    0.026986
Sum of atomic charges:    0.0000000

LOEWDIN ATOMIC CHARGES
----------------------
   0 S :    0.404848
   1 C :   -0.210652
   2 C :   -0.067275
   3 C :   -0.058074
   4 C :   -0.188670
   5 H :    0.025800
   6 C :   -0.040997
   7 H :    0.026952
   8 H :    0.047385
   9 C :   -0.066709
  10 H :    0.033792
  11 H :    0.030109
  12 C :   -0.069269
  13 H :    0.033450
  14 H :    0.031583
  15 H :    0.023486
  16 S :    0.425238
  17 C :   -0.186581
  18 C :   -0.075052
  19 C :   -0.050732
  20 C :   -0.202930
  21 H :    0.032070
  22 C :   -0.016001
  23 H :    0.036037
  24 H :    0.021324
  25 C :   -0.042109
  26 H :    0.020691
  27 H :    0.015625
  28 C :   -0.078182
  29 H :    0.028172
  30 H :    0.028383
  31 H :    0.030301
  32 H :    0.036359
  33 H :    0.021626

  Mayer bond orders larger than 0.100000
B(  0-S ,  1-C ) :   1.1383 B(  0-S ,  4-C ) :   1.1595 B(  1-C ,  2-C ) :   1.5966
B(  1-C ,  4-C ) :   0.1039 B(  1-C , 32-H ) :   0.9613 B(  2-C ,  3-C ) :   1.2798
B(  2-C ,  6-C ) :   1.0164 B(  3-C ,  4-C ) :   1.5175 B(  3-C ,  5-H ) :   0.9920
B(  4-C , 20-C ) :   1.0564 B(  6-C ,  7-H ) :   0.9381 B(  6-C ,  8-H ) :   0.9224
B(  6-C ,  9-C ) :   1.0758 B(  9-C , 10-H ) :   0.9580 B(  9-C , 11-H ) :   0.9325
B(  9-C , 12-C ) :   1.0831 B( 12-C , 13-H ) :   0.9722 B( 12-C , 14-H ) :   0.9729
B( 12-C , 15-H ) :   0.9732 B( 16-S , 17-C ) :   1.1418 B( 16-S , 20-C ) :   1.1537
B( 17-C , 18-C ) :   1.6711 B( 17-C , 33-H ) :   0.9621 B( 18-C , 19-C ) :   1.2121
B( 18-C , 21-H ) :   0.9965 B( 19-C , 20-C ) :   1.5966 B( 19-C , 22-C ) :   1.0479
B( 22-C , 23-H ) :   0.9412 B( 22-C , 24-H ) :   0.9267 B( 22-C , 25-C ) :   1.0349
B( 25-C , 26-H ) :   0.9499 B( 25-C , 27-H ) :   0.9599 B( 25-C , 28-C ) :   1.0673
B( 28-C , 29-H ) :   0.9741 B( 28-C , 30-H ) :   0.9783 B( 28-C , 31-H ) :   0.9763

Dispersion correction           -0.014876680
FINAL SINGLE POINT ENERGY     -1339.857395073592

DIPOLE MOMENT
-------------
                                X             Y             Z
Electronic contribution:     23.92096      -0.62546     -25.26539
Nuclear contribution   :    -24.55118       0.87939      25.68168
                        -----------------------------------------
Total Dipole Moment    :     -0.63022       0.25394       0.41629
                        -----------------------------------------
Magnitude (a.u.)       :      0.79684
Magnitude (Debye)      :      2.02541

Rotational constants in cm-1:     0.017073     0.010118     0.006853
Rotational constants in MHz :   511.826229   303.324808   205.460102

                             ****ORCA TERMINATED NORMALLY****
TOTAL RUN TIME: 0 days 0 hours 0 minutes 22 seconds 456 msec
