                         Program Version 4.2.1 -  RELEASE  -
|  1> ! wB97X-D3 SP def2-SVP
|  2> %pal
|  3> nprocs 24
|  4> end
|  5>
|  6> * xyz 0 1
|  7> S 	 -108.996 	 55.4044 	 -90.9389
|  8> C 	 -110.18 	 54.8883 	 -92.1286
|  9> C 	 -111.181 	 54.0987 	 -91.5844
| 10> C 	 -110.883 	 53.8838 	 -90.1904
| 11> C 	 -109.75 	 54.5061 	 -89.6903
| 12> H 	 -111.371 	 53.2613 	 -89.5062
| 13> C 	 -112.39 	 53.4467 	 -92.3047
| 14> H 	 -112.217 	 52.6037 	 -93.0546
| 15> H 	 -112.85 	 54.1655 	 -92.898
| 16> C 	 -113.357 	 52.8007 	 -91.3087
| 17> H 	 -112.813 	 51.933 	 -90.9129
| 18> H 	 -113.396 	 53.4782 	 -90.5175
| 19> C 	 -114.8 	 52.529 	 -91.7735
| 20> H 	 -115.559 	 52.0086 	 -91.1582
| 21> H 	 -115.275 	 53.4323 	 -92.1227
| 22> H 	 -114.643 	 51.7411 	 -92.4811
| 23> S 	 -108.89 	 56.1165 	 -87.6845
| 24> C 	 -108.546 	 55.4732 	 -86.071
| 25> C 	 -108.787 	 54.0986 	 -85.9927
| 26> C 	 -109.085 	 53.5251 	 -87.2857
| 27> C 	 -109.184 	 54.5105 	 -88.34
| 28> H 	 -108.757 	 53.6993 	 -85.035
| 29> C 	 -109.461 	 52.0384 	 -87.5251
| 30> H 	 -108.718 	 51.6337 	 -88.171
| 31> H 	 -110.389 	 51.9503 	 -88.0772
| 32> C 	 -109.697 	 51.2039 	 -86.2554
| 33> H 	 -110.299 	 50.3115 	 -86.594
| 34> H 	 -110.443 	 51.7379 	 -85.5967
| 35> C 	 -108.478 	 50.7523 	 -85.5619
| 36> H 	 -108.288 	 51.5337 	 -84.916
| 37> H 	 -107.64 	 50.6851 	 -86.1587
| 38> H 	 -108.606 	 49.8909 	 -84.8638
| 39> H 	 -110.053 	 55.0962 	 -93.1129
| 40> H 	 -108.273 	 55.9051 	 -85.125
| 41> *
| 42>
| 43>                          ****END OF INPUT****

CARTESIAN COORDINATES (ANGSTROEM)
---------------------------------
  S    -108.996000   55.404400  -90.938900
  C    -110.180000   54.888300  -92.128600
  C    -111.181000   54.098700  -91.584400
  C    -110.883000   53.883800  -90.190400
  C    -109.750000   54.506100  -89.690300
  H    -111.371000   53.261300  -89.506200
  C    -112.390000   53.446700  -92.304700
  H    -112.217000   52.603700  -93.054600
  H    -112.850000   54.165500  -92.898000
  C    -113.357000   52.800700  -91.308700
  H    -112.813000   51.933000  -90.912900
  H    -113.396000   53.478200  -90.517500
  C    -114.800000   52.529000  -91.773500
  H    -115.559000   52.008600  -91.158200
  H    -115.275000   53.432300  -92.122700
  H    -114.643000   51.741100  -92.481100
  S    -108.890000   56.116500  -87.684500
  C    -108.546000   55.473200  -86.071000
  C    -108.787000   54.098600  -85.992700
  C    -109.085000   53.525100  -87.285700
  C    -109.184000   54.510500  -88.340000
  H    -108.757000   53.699300  -85.035000
  C    -109.461000   52.038400  -87.525100
  H    -108.718000   51.633700  -88.171000
  H    -110.389000   51.950300  -88.077200
  C    -109.697000   51.203900  -86.255400
  H    -110.299000   50.311500  -86.594000
  H    -110.443000   51.737900  -85.596700
  C    -108.478000   50.752300  -85.561900
  H    -108.288000   51.533700  -84.916000
  H    -107.640000   50.685100  -86.158700
  H    -108.606000   49.890900  -84.863800
  H    -110.053000   55.096200  -93.112900
  H    -108.273000   55.905100  -85.125000

 Total Charge           Charge          ....    0
 Multiplicity           Mult            ....    1
 Number of Electrons    NEL             ....  134
 Basis Dimension        Dim             ....  322

ORBITAL ENERGIES
----------------

  NO   OCC          E(Eh)            E(eV)
   0   2.0000     -88.970925     -2421.0219
   1   2.0000     -88.966125     -2420.8913
   2   2.0000     -10.333786      -281.1966
   3   2.0000     -10.328674      -281.0575
   4   2.0000     -10.318807      -280.7890
   5   2.0000     -10.315921      -280.7105
   6   2.0000     -10.311468      -280.5893
   7   2.0000     -10.310662      -280.5674
   8   2.0000     -10.298061      -280.2245
   9   2.0000     -10.295266      -280.1484
  10   2.0000     -10.291450      -280.0446
  11   2.0000     -10.290972      -280.0316
  12   2.0000     -10.290396      -280.0159
  13   2.0000     -10.282663      -279.8055
  14   2.0000     -10.280823      -279.7554
  15   2.0000     -10.264365      -279.3076
  16   2.0000      -8.084510      -219.9907
  17   2.0000      -8.081588      -219.9112
  18   2.0000      -6.043140      -164.4422
  19   2.0000      -6.040008      -164.3570
  20   2.0000      -6.039042      -164.3307
  21   2.0000      -6.035892      -164.2450
  22   2.0000      -6.035331      -164.2297
  23   2.0000      -6.032496      -164.1526
  24   2.0000      -1.006448       -27.3869
  25   2.0000      -0.978783       -26.6340
  26   2.0000      -0.916036       -24.9266
  27   2.0000      -0.912735       -24.8368
  28   2.0000      -0.872637       -23.7456
  29   2.0000      -0.850542       -23.1444
  30   2.0000      -0.843636       -22.9565
  31   2.0000      -0.820612       -22.3300
  32   2.0000      -0.790089       -21.4994
  33   2.0000      -0.777971       -21.1697
  34   2.0000      -0.716629       -19.5005
  35   2.0000      -0.697432       -18.9781
  36   2.0000      -0.693739       -18.8776
  37   2.0000      -0.659706       -17.9515
  38   2.0000      -0.649759       -17.6808
  39   2.0000      -0.623689       -16.9715
  40   2.0000      -0.593496       -16.1498
  41   2.0000      -0.579384       -15.7658
  42   2.0000      -0.572549       -15.5798
  43   2.0000      -0.554894       -15.0994
  44   2.0000      -0.534104       -14.5337
  45   2.0000      -0.525293       -14.2939
  46   2.0000      -0.520338       -14.1591
  47   2.0000      -0.516343       -14.0504
  48   2.0000      -0.510950       -13.9037
  49   2.0000      -0.503359       -13.6971
  50   2.0000      -0.499976       -13.6051
  51   2.0000      -0.483460       -13.1556
  52   2.0000      -0.470568       -12.8048
  53   2.0000      -0.464847       -12.6491
  54   2.0000      -0.460575       -12.5329
  55   2.0000      -0.457765       -12.4564
  56   2.0000      -0.445389       -12.1197
  57   2.0000      -0.442182       -12.0324
  58   2.0000      -0.432150       -11.7594
  59   2.0000      -0.429475       -11.6866
  60   2.0000      -0.418879       -11.3983
  61   2.0000      -0.406340       -11.0571
  62   2.0000      -0.401952       -10.9377
  63   2.0000      -0.348138        -9.4733
  64   2.0000      -0.333671        -9.0797
  65   2.0000      -0.329707        -8.9718
  66   2.0000      -0.287835        -7.8324
  67   0.0000       0.024995         0.6802
  68   0.0000       0.066499         1.8095
  69   0.0000       0.106345         2.8938
  70   0.0000       0.116177         3.1613
  71   0.0000       0.135113         3.6766

MULLIKEN ATOMIC CHARGES
-----------------------
   0 S :    0.112215
   1 C :   -0.091235
   2 C :   -0.056295
   3 C :    0.016128
   4 C :   -0.152958
   5 H :   -0.019167
   6 C :    0.080968
   7 H :    0.043831
   8 H :    0.009291
   9 C :   -0.109989
  10 H :    0.033716
  11 H :    0.022463
  12 C :   -0.014005
  13 H :    0.035517
  14 H :    0.040169
  15 H :    0.016553
  16 S :    0.114253
  17 C :   -0.066967
  18 C :   -0.061360
  19 C :   -0.025576
  20 C :   -0.134148
  21 H :    0.003326
  22 C :    0.076337
  23 H :    0.034790
  24 H :    0.025492
  25 C :   -0.140469
  26 H :    0.029779
  27 H :    0.036059
  28 C :    0.046466
  29 H :   -0.012472
  30 H :    0.018231
  31 H :    0.037168
  32 H :    0.007989
  33 H :    0.043899
Sum of atomic charges:   -0.0000000

LOEWDIN ATOMIC CHARGES
----------------------
   0 S :    0.423353
   1 C :   -0.172089
   2 C :   -0.051983
   3 C :   -0.063263
   4 C :   -0.210433
   5 H :    0.016839
   6 C :   -0.026168
   7 H :    0.040231
   8 H :    0.019170
   9 C :   -0.042836
  10 H :    0.025881
  11 H :    0.011449
  12 C :   -0.067904
  13 H :    0.033990
  14 H :    0.027082
  15 H :    0.023814
  16 S :    0.409461
  17 C :   -0.185330
  18 C :   -0.068947
  19 C :   -0.047254
  20 C :   -0.203053
  21 H :    0.021774
  22 C :   -0.028190
  23 H :    0.031043
  24 H :    0.030638
  25 C :   -0.049135
  26 H :    0.027027
  27 H :    0.028752
  28 C :   -0.061231
  29 H :    0.015803
  30 H :    0.018932
  31 H :    0.035563
  32 H :    0.005371
  33 H :    0.031644

  Mayer bond orders larger than 0.100000
B(  0-S ,  1-C ) :   1.1557 B(  0-S ,  4-C ) :   1.1618 B(  1-C ,  2-C ) :   1.6019
B(  1-C ,  4-C ) :   0.1007 B(  1-C , 32-H ) :   0.9876 B(  2-C ,  3-C ) :   1.2469
B(  2-C ,  6-C ) :   0.9989 B(  3-C ,  4-C ) :   1.5654 B(  3-C ,  5-H ) :   0.9986
B(  4-C , 20-C ) :   1.0257 B(  6-C ,  7-H ) :   0.9389 B(  6-C ,  8-H ) :   0.9370
B(  6-C ,  9-C ) :   1.0835 B(  9-C , 10-H ) :   0.9502 B(  9-C , 11-H ) :   0.9538
B(  9-C , 12-C ) :   1.0628 B( 12-C , 13-H ) :   0.9740 B( 12-C , 14-H ) :   0.9753
B( 12-C , 15-H ) :   0.9726 B( 16-S , 17-C ) :   1.1536 B( 16-S , 20-C ) :   1.1505
B( 17-C , 18-C ) :   1.6207 B( 17-C , 20-C ) :   0.1084 B( 17-C , 33-H ) :   0.9602
B( 18-C , 19-C ) :   1.2491 B( 18-C , 21-H ) :   0.9949 B( 19-C , 20-C ) :   1.5630
B( 19-C , 22-C ) :   1.0139 B( 22-C , 23-H ) :   0.9306 B( 22-C , 24-H ) :   0.9377
B( 22-C , 25-C ) :   1.0919 B( 25-C , 26-H ) :   0.9566 B( 25-C , 27-H ) :   0.9549
B( 25-C , 28-C ) :   1.0656 B( 28-C , 29-H ) :   0.9684 B( 28-C , 30-H ) :   0.9711
B( 28-C , 31-H ) :   0.9665

Dispersion correction           -0.013584350
FINAL SINGLE POINT ENERGY     -1339.833358694824

DIPOLE MOMENT
-------------
                                X             Y             Z
Electronic contribution:     16.55457      23.89948      -2.72995
Nuclear contribution   :    -17.00301     -24.47596       2.84966
                        -----------------------------------------
Total Dipole Moment    :     -0.44844      -0.57648       0.11971
                        -----------------------------------------
Magnitude (a.u.)       :      0.74010
Magnitude (Debye)      :      1.88120

Rotational constants in cm-1:     0.017095     0.008442     0.006339
Rotational constants in MHz :   512.498616   253.079700   190.030064

                             ****ORCA TERMINATED NORMALLY****
TOTAL RUN TIME: 0 days 0 hours 0 minutes 21 seconds 315 msec
