                         Program Version 4.2.1 -  RELEASE  -
|  1> ! wB97X-D3 SP def2-SVP
|  2> %pal
|  3> nprocs 24
|  4> end
|  5>
|  6> * xyz 0 1
|  7> S 	 -39.9918 	 16.6425 	 -99.4552
|  8> C 	 -40.2042 	 15.2482 	 -100.436
|  9> C 	 -41.0155 	 14.2989 	 -99.8596
| 10> C 	 -41.4741 	 14.7973 	 -98.5689
| 11> C 	 -41.2069 	 16.1388 	 -98.3764
| 12> H 	 -42.1104 	 14.2722 	 -97.8408
| 13> C 	 -41.3616 	 12.8908 	 -100.239
| 14> H 	 -41.6442 	 12.7784 	 -101.315
| 15> H 	 -42.1992 	 12.5799 	 -99.7038
| 16> C 	 -40.3349 	 11.7831 	 -99.9194
| 17> H 	 -40.1282 	 11.955 	 -98.8679
| 18> H 	 -40.8463 	 10.8315 	 -100.043
| 19> C 	 -39.056 	 11.7886 	 -100.792
| 20> H 	 -38.7264 	 12.8349 	 -100.913
| 21> H 	 -38.2797 	 11.3055 	 -100.244
| 22> H 	 -39.119 	 11.1786 	 -101.732
| 23> S 	 -40.2066 	 17.458 	 -96.0759
| 24> C 	 -41.367 	 17.9321 	 -94.8718
| 25> C 	 -42.6631 	 17.5711 	 -95.1923
| 26> C 	 -42.7836 	 16.9617 	 -96.4476
| 27> C 	 -41.5391 	 16.8277 	 -97.1043
| 28> H 	 -43.4214 	 17.7141 	 -94.3667
| 29> C 	 -44.0855 	 16.5242 	 -96.9795
| 30> H 	 -43.6905 	 16.0813 	 -97.9596
| 31> H 	 -44.7481 	 17.3805 	 -97.226
| 32> C 	 -44.884 	 15.4924 	 -96.1169
| 33> H 	 -45.2612 	 15.9174 	 -95.1657
| 34> H 	 -44.1544 	 14.7717 	 -95.8508
| 35> C 	 -46.089 	 14.8183 	 -96.7174
| 36> H 	 -45.8071 	 14.5568 	 -97.7078
| 37> H 	 -46.8442 	 15.5852 	 -96.9037
| 38> H 	 -46.4175 	 13.912 	 -96.2176
| 39> H 	 -39.6668 	 15.0273 	 -101.38
| 40> H 	 -40.9876 	 18.3523 	 -93.9049
| 41> *
| 42>
| 43>                          ****END OF INPUT****

CARTESIAN COORDINATES (ANGSTROEM)
---------------------------------
  S    -39.991800   16.642500  -99.455200
  C    -40.204200   15.248200  -100.436000
  C    -41.015500   14.298900  -99.859600
  C    -41.474100   14.797300  -98.568900
  C    -41.206900   16.138800  -98.376400
  H    -42.110400   14.272200  -97.840800
  C    -41.361600   12.890800  -100.239000
  H    -41.644200   12.778400  -101.315000
  H    -42.199200   12.579900  -99.703800
  C    -40.334900   11.783100  -99.919400
  H    -40.128200   11.955000  -98.867900
  H    -40.846300   10.831500  -100.043000
  C    -39.056000   11.788600  -100.792000
  H    -38.726400   12.834900  -100.913000
  H    -38.279700   11.305500  -100.244000
  H    -39.119000   11.178600  -101.732000
  S    -40.206600   17.458000  -96.075900
  C    -41.367000   17.932100  -94.871800
  C    -42.663100   17.571100  -95.192300
  C    -42.783600   16.961700  -96.447600
  C    -41.539100   16.827700  -97.104300
  H    -43.421400   17.714100  -94.366700
  C    -44.085500   16.524200  -96.979500
  H    -43.690500   16.081300  -97.959600
  H    -44.748100   17.380500  -97.226000
  C    -44.884000   15.492400  -96.116900
  H    -45.261200   15.917400  -95.165700
  H    -44.154400   14.771700  -95.850800
  C    -46.089000   14.818300  -96.717400
  H    -45.807100   14.556800  -97.707800
  H    -46.844200   15.585200  -96.903700
  H    -46.417500   13.912000  -96.217600
  H    -39.666800   15.027300  -101.380000
  H    -40.987600   18.352300  -93.904900

 Total Charge           Charge          ....    0
 Multiplicity           Mult            ....    1
 Number of Electrons    NEL             ....  134
 Basis Dimension        Dim             ....  322

ORBITAL ENERGIES
----------------

  NO   OCC          E(Eh)            E(eV)
   0   2.0000     -88.969800     -2420.9913
   1   2.0000     -88.966747     -2420.9083
   2   2.0000     -10.333430      -281.1869
   3   2.0000     -10.327037      -281.0130
   4   2.0000     -10.320010      -280.8217
   5   2.0000     -10.316779      -280.7338
   6   2.0000     -10.304011      -280.3864
   7   2.0000     -10.303023      -280.3595
   8   2.0000     -10.296728      -280.1882
   9   2.0000     -10.294932      -280.1393
  10   2.0000     -10.294657      -280.1319
  11   2.0000     -10.288772      -279.9717
  12   2.0000     -10.287357      -279.9332
  13   2.0000     -10.284696      -279.8608
  14   2.0000     -10.279643      -279.7233
  15   2.0000     -10.273520      -279.5567
  16   2.0000      -8.085851      -220.0272
  17   2.0000      -8.081101      -219.8979
  18   2.0000      -6.044261      -164.4727
  19   2.0000      -6.040320      -164.3655
  20   2.0000      -6.039509      -164.3434
  21   2.0000      -6.036479      -164.2609
  22   2.0000      -6.035716      -164.2402
  23   2.0000      -6.031948      -164.1376
  24   2.0000      -1.012526       -27.5522
  25   2.0000      -0.986907       -26.8551
  26   2.0000      -0.914255       -24.8781
  27   2.0000      -0.909946       -24.7609
  28   2.0000      -0.867515       -23.6063
  29   2.0000      -0.858770       -23.3683
  30   2.0000      -0.848625       -23.0923
  31   2.0000      -0.809781       -22.0353
  32   2.0000      -0.788525       -21.4569
  33   2.0000      -0.773314       -21.0429
  34   2.0000      -0.703870       -19.1533
  35   2.0000      -0.697721       -18.9859
  36   2.0000      -0.693420       -18.8689
  37   2.0000      -0.655317       -17.8321
  38   2.0000      -0.638319       -17.3695
  39   2.0000      -0.617219       -16.7954
  40   2.0000      -0.594448       -16.1757
  41   2.0000      -0.574019       -15.6198
  42   2.0000      -0.566619       -15.4185
  43   2.0000      -0.546704       -14.8766
  44   2.0000      -0.544532       -14.8175
  45   2.0000      -0.532702       -14.4955
  46   2.0000      -0.519647       -14.1403
  47   2.0000      -0.506718       -13.7885
  48   2.0000      -0.501862       -13.6564
  49   2.0000      -0.493198       -13.4206
  50   2.0000      -0.492059       -13.3896
  51   2.0000      -0.488197       -13.2845
  52   2.0000      -0.472644       -12.8613
  53   2.0000      -0.465496       -12.6668
  54   2.0000      -0.458028       -12.4636
  55   2.0000      -0.448878       -12.2146
  56   2.0000      -0.441929       -12.0255
  57   2.0000      -0.433157       -11.7868
  58   2.0000      -0.432178       -11.7602
  59   2.0000      -0.425674       -11.5832
  60   2.0000      -0.423506       -11.5242
  61   2.0000      -0.419721       -11.4212
  62   2.0000      -0.411690       -11.2027
  63   2.0000      -0.346675        -9.4335
  64   2.0000      -0.333860        -9.0848
  65   2.0000      -0.328467        -8.9380
  66   2.0000      -0.292458        -7.9582
  67   0.0000       0.029535         0.8037
  68   0.0000       0.066390         1.8066
  69   0.0000       0.108281         2.9465
  70   0.0000       0.120202         3.2709
  71   0.0000       0.125959         3.4275

MULLIKEN ATOMIC CHARGES
-----------------------
   0 S :    0.124899
   1 C :   -0.126293
   2 C :   -0.086295
   3 C :   -0.002306
   4 C :   -0.155347
   5 H :    0.028512
   6 C :    0.081088
   7 H :    0.030006
   8 H :    0.001956
   9 C :   -0.073625
  10 H :    0.025570
  11 H :    0.031183
  12 C :   -0.046569
  13 H :    0.027086
  14 H :    0.023838
  15 H :    0.043486
  16 S :    0.099862
  17 C :   -0.126307
  18 C :   -0.043856
  19 C :   -0.030984
  20 C :   -0.148094
  21 H :    0.044116
  22 C :    0.029958
  23 H :    0.036425
  24 H :    0.044425
  25 C :   -0.089559
  26 H :    0.030110
  27 H :    0.014990
  28 C :   -0.001056
  29 H :    0.003440
  30 H :    0.025451
  31 H :    0.045823
  32 H :    0.063233
  33 H :    0.074839
Sum of atomic charges:    0.0000000

LOEWDIN ATOMIC CHARGES
----------------------
   0 S :    0.441237
   1 C :   -0.210125
   2 C :   -0.065129
   3 C :   -0.057326
   4 C :   -0.220123
   5 H :    0.032246
   6 C :   -0.033838
   7 H :    0.034226
   8 H :    0.022829
   9 C :   -0.034183
  10 H :    0.023354
  11 H :    0.024611
  12 C :   -0.073003
  13 H :    0.026051
  14 H :    0.023519
  15 H :    0.032629
  16 S :    0.388970
  17 C :   -0.191568
  18 C :   -0.081181
  19 C :   -0.062613
  20 C :   -0.184155
  21 H :    0.045244
  22 C :   -0.041656
  23 H :    0.040479
  24 H :    0.034903
  25 C :   -0.042341
  26 H :    0.024015
  27 H :    0.016080
  28 C :   -0.062350
  29 H :    0.018606
  30 H :    0.027688
  31 H :    0.031304
  32 H :    0.035667
  33 H :    0.035931

  Mayer bond orders larger than 0.100000
B(  0-S ,  1-C ) :   1.1509 B(  0-S ,  4-C ) :   1.1603 B(  1-C ,  2-C ) :   1.6051
B(  1-C , 32-H ) :   0.9581 B(  2-C ,  3-C ) :   1.2434 B(  2-C ,  6-C ) :   1.0396
B(  3-C ,  4-C ) :   1.5540 B(  3-C ,  5-H ) :   0.9851 B(  4-C , 20-C ) :   1.0292
B(  6-C ,  7-H ) :   0.9370 B(  6-C ,  8-H ) :   0.9316 B(  6-C ,  9-C ) :   1.0751
B(  9-C , 10-H ) :   0.9555 B(  9-C , 11-H ) :   0.9563 B(  9-C , 12-C ) :   1.0793
B( 12-C , 13-H ) :   0.9730 B( 12-C , 14-H ) :   0.9726 B( 12-C , 15-H ) :   0.9742
B( 16-S , 17-C ) :   1.1641 B( 16-S , 20-C ) :   1.1421 B( 17-C , 18-C ) :   1.6016
B( 17-C , 20-C ) :   0.1012 B( 17-C , 33-H ) :   0.9600 B( 18-C , 19-C ) :   1.2395
B( 18-C , 21-H ) :   0.9846 B( 19-C , 20-C ) :   1.5840 B( 19-C , 22-C ) :   1.0555
B( 22-C , 23-H ) :   0.9274 B( 22-C , 24-H ) :   0.9284 B( 22-C , 25-C ) :   1.0530
B( 25-C , 26-H ) :   0.9516 B( 25-C , 27-H ) :   0.9551 B( 25-C , 28-C ) :   1.0953
B( 28-C , 29-H ) :   0.9693 B( 28-C , 30-H ) :   0.9700 B( 28-C , 31-H ) :   0.9727

Dispersion correction           -0.014142949
FINAL SINGLE POINT ENERGY     -1339.868841333526

DIPOLE MOMENT
-------------
                                X             Y             Z
Electronic contribution:     14.95006      22.10603       4.37645
Nuclear contribution   :    -15.25776     -22.71978      -4.23896
                        -----------------------------------------
Total Dipole Moment    :     -0.30771      -0.61374       0.13749
                        -----------------------------------------
Magnitude (a.u.)       :      0.70019
Magnitude (Debye)      :      1.77975

Rotational constants in cm-1:     0.017794     0.008680     0.006555
Rotational constants in MHz :   533.435868   260.221377   196.514928

                             ****ORCA TERMINATED NORMALLY****
TOTAL RUN TIME: 0 days 0 hours 0 minutes 21 seconds 507 msec
