                         Program Version 4.2.1 -  RELEASE  -
|  1> ! wB97X-D3 SP def2-SVP
|  2> %pal
|  3> nprocs 24
|  4> end
|  5>
|  6> * xyz 0 1
|  7> S 	 -55.1643 	 7.74125 	 -31.6778
|  8> C 	 -56.1435 	 6.40434 	 -31.0819
|  9> C 	 -55.7927 	 5.3315 	 -31.8791
| 10> C 	 -54.7396 	 5.54825 	 -32.8392
| 11> C 	 -54.2475 	 6.82331 	 -32.8302
| 12> H 	 -54.2131 	 4.79562 	 -33.4945
| 13> C 	 -56.5502 	 4.03909 	 -31.7743
| 14> H 	 -57.1029 	 4.22869 	 -30.9054
| 15> H 	 -55.9339 	 3.1667 	 -31.6942
| 16> C 	 -57.5723 	 3.89204 	 -32.8875
| 17> H 	 -58.3299 	 4.66087 	 -32.7872
| 18> H 	 -57.1555 	 3.88436 	 -33.8612
| 19> C 	 -58.36 	 2.61998 	 -32.8277
| 20> H 	 -58.7718 	 2.42662 	 -31.836
| 21> H 	 -59.1732 	 2.57567 	 -33.5472
| 22> H 	 -57.8496 	 1.70534 	 -33.0543
| 23> S 	 -53.2899 	 8.71691 	 -34.6178
| 24> C 	 -51.5306 	 8.7986 	 -34.8843
| 25> C 	 -50.9232 	 7.74409 	 -34.3187
| 26> C 	 -51.7912 	 6.89136 	 -33.5882
| 27> C 	 -53.1125 	 7.33468 	 -33.5652
| 28> H 	 -49.8469 	 7.61321 	 -34.3495
| 29> C 	 -51.1881 	 5.72282 	 -32.814
| 30> H 	 -50.1176 	 5.60715 	 -33.0599
| 31> H 	 -51.5946 	 4.86613 	 -33.2567
| 32> C 	 -51.383 	 5.76846 	 -31.2797
| 33> H 	 -52.3547 	 5.58401 	 -30.8578
| 34> H 	 -51.1345 	 6.75328 	 -30.8603
| 35> C 	 -50.3959 	 4.74764 	 -30.6683
| 36> H 	 -49.3389 	 4.92799 	 -30.7866
| 37> H 	 -50.613 	 3.71917 	 -31.0412
| 38> H 	 -50.4914 	 4.64153 	 -29.5964
| 39> H 	 -56.9261 	 6.37064 	 -30.3541
| 40> H 	 -51.1057 	 9.64277 	 -35.401
| 41> *
| 42>
| 43>                          ****END OF INPUT****

CARTESIAN COORDINATES (ANGSTROEM)
---------------------------------
  S    -55.164300    7.741250  -31.677800
  C    -56.143500    6.404340  -31.081900
  C    -55.792700    5.331500  -31.879100
  C    -54.739600    5.548250  -32.839200
  C    -54.247500    6.823310  -32.830200
  H    -54.213100    4.795620  -33.494500
  C    -56.550200    4.039090  -31.774300
  H    -57.102900    4.228690  -30.905400
  H    -55.933900    3.166700  -31.694200
  C    -57.572300    3.892040  -32.887500
  H    -58.329900    4.660870  -32.787200
  H    -57.155500    3.884360  -33.861200
  C    -58.360000    2.619980  -32.827700
  H    -58.771800    2.426620  -31.836000
  H    -59.173200    2.575670  -33.547200
  H    -57.849600    1.705340  -33.054300
  S    -53.289900    8.716910  -34.617800
  C    -51.530600    8.798600  -34.884300
  C    -50.923200    7.744090  -34.318700
  C    -51.791200    6.891360  -33.588200
  C    -53.112500    7.334680  -33.565200
  H    -49.846900    7.613210  -34.349500
  C    -51.188100    5.722820  -32.814000
  H    -50.117600    5.607150  -33.059900
  H    -51.594600    4.866130  -33.256700
  C    -51.383000    5.768460  -31.279700
  H    -52.354700    5.584010  -30.857800
  H    -51.134500    6.753280  -30.860300
  C    -50.395900    4.747640  -30.668300
  H    -49.338900    4.927990  -30.786600
  H    -50.613000    3.719170  -31.041200
  H    -50.491400    4.641530  -29.596400
  H    -56.926100    6.370640  -30.354100
  H    -51.105700    9.642770  -35.401000

 Total Charge           Charge          ....    0
 Multiplicity           Mult            ....    1
 Number of Electrons    NEL             ....  134
 Basis Dimension        Dim             ....  322

ORBITAL ENERGIES
----------------

  NO   OCC          E(Eh)            E(eV)
   0   2.0000     -88.962838     -2420.8019
   1   2.0000     -88.962809     -2420.8011
   2   2.0000     -10.328065      -281.0409
   3   2.0000     -10.326829      -281.0073
   4   2.0000     -10.317158      -280.7441
   5   2.0000     -10.316843      -280.7356
   6   2.0000     -10.302957      -280.3577
   7   2.0000     -10.300565      -280.2926
   8   2.0000     -10.296222      -280.1744
   9   2.0000     -10.291131      -280.0359
  10   2.0000     -10.290997      -280.0323
  11   2.0000     -10.285953      -279.8950
  12   2.0000     -10.281388      -279.7708
  13   2.0000     -10.277386      -279.6619
  14   2.0000     -10.275013      -279.5973
  15   2.0000     -10.269554      -279.4488
  16   2.0000      -8.077556      -219.8015
  17   2.0000      -8.077532      -219.8008
  18   2.0000      -6.036162      -164.2523
  19   2.0000      -6.036050      -164.2493
  20   2.0000      -6.032074      -164.1411
  21   2.0000      -6.031823      -164.1343
  22   2.0000      -6.028342      -164.0395
  23   2.0000      -6.028292      -164.0382
  24   2.0000      -1.009412       -27.4675
  25   2.0000      -0.987579       -26.8734
  26   2.0000      -0.920491       -25.0478
  27   2.0000      -0.905392       -24.6370
  28   2.0000      -0.876854       -23.8604
  29   2.0000      -0.848367       -23.0853
  30   2.0000      -0.845373       -23.0038
  31   2.0000      -0.821959       -22.3666
  32   2.0000      -0.780909       -21.2496
  33   2.0000      -0.769680       -20.9441
  34   2.0000      -0.714798       -19.4506
  35   2.0000      -0.702159       -19.1067
  36   2.0000      -0.697022       -18.9669
  37   2.0000      -0.663214       -18.0470
  38   2.0000      -0.643797       -17.5186
  39   2.0000      -0.617558       -16.8046
  40   2.0000      -0.599712       -16.3190
  41   2.0000      -0.577006       -15.7011
  42   2.0000      -0.568911       -15.4809
  43   2.0000      -0.560178       -15.2432
  44   2.0000      -0.527732       -14.3603
  45   2.0000      -0.525400       -14.2969
  46   2.0000      -0.523946       -14.2573
  47   2.0000      -0.517567       -14.0837
  48   2.0000      -0.514276       -13.9942
  49   2.0000      -0.499586       -13.5944
  50   2.0000      -0.493260       -13.4223
  51   2.0000      -0.483361       -13.1529
  52   2.0000      -0.465767       -12.6742
  53   2.0000      -0.462677       -12.5901
  54   2.0000      -0.458765       -12.4836
  55   2.0000      -0.447348       -12.1729
  56   2.0000      -0.445734       -12.1290
  57   2.0000      -0.435346       -11.8464
  58   2.0000      -0.429232       -11.6800
  59   2.0000      -0.422994       -11.5102
  60   2.0000      -0.420985       -11.4556
  61   2.0000      -0.414491       -11.2789
  62   2.0000      -0.407529       -11.0894
  63   2.0000      -0.347736        -9.4624
  64   2.0000      -0.331084        -9.0093
  65   2.0000      -0.326460        -8.8834
  66   2.0000      -0.299926        -8.1614
  67   0.0000       0.030472         0.8292
  68   0.0000       0.070357         1.9145
  69   0.0000       0.115427         3.1409
  70   0.0000       0.128020         3.4836
  71   0.0000       0.131239         3.5712

MULLIKEN ATOMIC CHARGES
-----------------------
   0 S :    0.103721
   1 C :   -0.097154
   2 C :   -0.135598
   3 C :    0.025222
   4 C :   -0.150367
   5 H :    0.033282
   6 C :    0.127528
   7 H :   -0.014016
   8 H :    0.023285
   9 C :   -0.043680
  10 H :    0.022652
  11 H :    0.022924
  12 C :   -0.042430
  13 H :    0.014930
  14 H :    0.026177
  15 H :    0.013125
  16 S :    0.098485
  17 C :   -0.094069
  18 C :   -0.015692
  19 C :   -0.033160
  20 C :   -0.173948
  21 H :    0.020515
  22 C :    0.104777
  23 H :    0.011934
  24 H :    0.010797
  25 C :   -0.041473
  26 H :    0.041531
  27 H :    0.031391
  28 C :   -0.071148
  29 H :    0.029657
  30 H :    0.024717
  31 H :    0.022469
  32 H :    0.044648
  33 H :    0.058969
Sum of atomic charges:   -0.0000000

LOEWDIN ATOMIC CHARGES
----------------------
   0 S :    0.407662
   1 C :   -0.196205
   2 C :   -0.060933
   3 C :   -0.073953
   4 C :   -0.198776
   5 H :    0.041947
   6 C :   -0.023450
   7 H :    0.022105
   8 H :    0.026344
   9 C :   -0.033350
  10 H :    0.027230
  11 H :    0.020404
  12 C :   -0.067784
  13 H :    0.020636
  14 H :    0.026184
  15 H :    0.017902
  16 S :    0.391923
  17 C :   -0.164361
  18 C :   -0.073278
  19 C :   -0.049935
  20 C :   -0.205315
  21 H :    0.034373
  22 C :   -0.025628
  23 H :    0.033766
  24 H :    0.023440
  25 C :   -0.033011
  26 H :    0.027486
  27 H :    0.027995
  28 C :   -0.071331
  29 H :    0.020366
  30 H :    0.025513
  31 H :    0.022370
  32 H :    0.031092
  33 H :    0.028573

  Mayer bond orders larger than 0.100000
B(  0-S ,  1-C ) :   1.1228 B(  0-S ,  4-C ) :   1.1554 B(  1-C ,  2-C ) :   1.6099
B(  1-C , 32-H ) :   0.9726 B(  2-C ,  3-C ) :   1.2183 B(  2-C ,  6-C ) :   1.0414
B(  3-C ,  4-C ) :   1.5824 B(  3-C ,  5-H ) :   0.9898 B(  4-C , 20-C ) :   1.0394
B(  6-C ,  7-H ) :   0.9246 B(  6-C ,  8-H ) :   0.9411 B(  6-C ,  9-C ) :   1.0756
B(  9-C , 10-H ) :   0.9518 B(  9-C , 11-H ) :   0.9559 B(  9-C , 12-C ) :   1.0935
B( 12-C , 13-H ) :   0.9712 B( 12-C , 14-H ) :   0.9723 B( 12-C , 15-H ) :   0.9712
B( 16-S , 17-C ) :   1.1451 B( 16-S , 20-C ) :   1.1434 B( 17-C , 18-C ) :   1.6035
B( 17-C , 33-H ) :   0.9718 B( 18-C , 19-C ) :   1.2543 B( 18-C , 21-H ) :   0.9904
B( 19-C , 20-C ) :   1.5897 B( 19-C , 22-C ) :   1.0345 B( 22-C , 23-H ) :   0.9408
B( 22-C , 24-H ) :   0.9175 B( 22-C , 25-C ) :   1.0503 B( 25-C , 26-H ) :   0.9532
B( 25-C , 27-H ) :   0.9602 B( 25-C , 28-C ) :   1.0835 B( 28-C , 29-H ) :   0.9771
B( 28-C , 30-H ) :   0.9736 B( 28-C , 31-H ) :   0.9735

Dispersion correction           -0.014428924
FINAL SINGLE POINT ENERGY     -1339.876946356465

DIPOLE MOMENT
-------------
                                X             Y             Z
Electronic contribution:      1.12854      25.40124      -8.23718
Nuclear contribution   :     -0.88673     -25.98203       8.34074
                        -----------------------------------------
Total Dipole Moment    :      0.24181      -0.58079       0.10356
                        -----------------------------------------
Magnitude (a.u.)       :      0.63759
Magnitude (Debye)      :      1.62061

Rotational constants in cm-1:     0.018848     0.008253     0.006948
Rotational constants in MHz :   565.035977   247.415620   208.299267

                             ****ORCA TERMINATED NORMALLY****
TOTAL RUN TIME: 0 days 0 hours 0 minutes 21 seconds 545 msec
