                         Program Version 4.2.1 -  RELEASE  -
|  1> ! wB97X-D3 SP def2-SVP
|  2> %pal
|  3> nprocs 24
|  4> end
|  5>
|  6> * xyz 0 1
|  7> S 	 -58.2643 	 2.90639 	 -21.1205
|  8> C 	 -59.7379 	 3.77679 	 -20.882
|  9> C 	 -60.7403 	 2.93679 	 -20.4687
| 10> C 	 -60.3188 	 1.5979 	 -20.3722
| 11> C 	 -59.0051 	 1.35262 	 -20.7425
| 12> H 	 -60.9101 	 0.760385 	 -20.0905
| 13> C 	 -62.091 	 3.37465 	 -20.0197
| 14> H 	 -62.1033 	 4.5063 	 -20.2045
| 15> H 	 -62.5226 	 3.07223 	 -19.0515
| 16> C 	 -63.0163 	 2.84893 	 -21.0735
| 17> H 	 -62.7661 	 3.25434 	 -22.0066
| 18> H 	 -62.8892 	 1.79918 	 -21.2358
| 19> C 	 -64.5395 	 3.20589 	 -20.8744
| 20> H 	 -64.8087 	 2.93319 	 -19.8608
| 21> H 	 -64.6506 	 4.2949 	 -21.0302
| 22> H 	 -65.1619 	 2.70138 	 -21.6241
| 23> S 	 -57.501 	 -0.346701 	 -22.1807
| 24> C 	 -56.7576 	 -1.67329 	 -21.4157
| 25> C 	 -57.0543 	 -1.77964 	 -20.0737
| 26> C 	 -58.0403 	 -0.757732 	 -19.6817
| 27> C 	 -58.1989 	 0.178957 	 -20.6866
| 28> H 	 -56.6373 	 -2.54871 	 -19.4758
| 29> C 	 -58.5214 	 -0.779356 	 -18.2981
| 30> H 	 -59.4278 	 -0.189466 	 -18.1009
| 31> H 	 -57.6564 	 -0.418048 	 -17.6485
| 32> C 	 -59.0098 	 -2.20731 	 -17.8464
| 33> H 	 -59.3129 	 -2.2589 	 -16.827
| 34> H 	 -58.2959 	 -2.95658 	 -17.8794
| 35> C 	 -60.2745 	 -2.58858 	 -18.5778
| 36> H 	 -60.5182 	 -3.56516 	 -18.2458
| 37> H 	 -60.1207 	 -2.50367 	 -19.654
| 38> H 	 -61.084 	 -1.9511 	 -18.319
| 39> H 	 -59.7861 	 4.8269 	 -21.0064
| 40> H 	 -56.1247 	 -2.31779 	 -21.9679
| 41> *
| 42>
| 43>                          ****END OF INPUT****

CARTESIAN COORDINATES (ANGSTROEM)
---------------------------------
  S    -58.264300    2.906390  -21.120500
  C    -59.737900    3.776790  -20.882000
  C    -60.740300    2.936790  -20.468700
  C    -60.318800    1.597900  -20.372200
  C    -59.005100    1.352620  -20.742500
  H    -60.910100    0.760385  -20.090500
  C    -62.091000    3.374650  -20.019700
  H    -62.103300    4.506300  -20.204500
  H    -62.522600    3.072230  -19.051500
  C    -63.016300    2.848930  -21.073500
  H    -62.766100    3.254340  -22.006600
  H    -62.889200    1.799180  -21.235800
  C    -64.539500    3.205890  -20.874400
  H    -64.808700    2.933190  -19.860800
  H    -64.650600    4.294900  -21.030200
  H    -65.161900    2.701380  -21.624100
  S    -57.501000   -0.346701  -22.180700
  C    -56.757600   -1.673290  -21.415700
  C    -57.054300   -1.779640  -20.073700
  C    -58.040300   -0.757732  -19.681700
  C    -58.198900    0.178957  -20.686600
  H    -56.637300   -2.548710  -19.475800
  C    -58.521400   -0.779356  -18.298100
  H    -59.427800   -0.189466  -18.100900
  H    -57.656400   -0.418048  -17.648500
  C    -59.009800   -2.207310  -17.846400
  H    -59.312900   -2.258900  -16.827000
  H    -58.295900   -2.956580  -17.879400
  C    -60.274500   -2.588580  -18.577800
  H    -60.518200   -3.565160  -18.245800
  H    -60.120700   -2.503670  -19.654000
  H    -61.084000   -1.951100  -18.319000
  H    -59.786100    4.826900  -21.006400
  H    -56.124700   -2.317790  -21.967900

 Total Charge           Charge          ....    0
 Multiplicity           Mult            ....    1
 Number of Electrons    NEL             ....  134
 Basis Dimension        Dim             ....  322

ORBITAL ENERGIES
----------------

  NO   OCC          E(Eh)            E(eV)
   0   2.0000     -88.962615     -2420.7958
   1   2.0000     -88.960687     -2420.7434
   2   2.0000     -10.324909      -280.9551
   3   2.0000     -10.321165      -280.8532
   4   2.0000     -10.312725      -280.6235
   5   2.0000     -10.308835      -280.5177
   6   2.0000     -10.306423      -280.4520
   7   2.0000     -10.297067      -280.1974
   8   2.0000     -10.296636      -280.1857
   9   2.0000     -10.294564      -280.1293
  10   2.0000     -10.294066      -280.1158
  11   2.0000     -10.288773      -279.9717
  12   2.0000     -10.279218      -279.7117
  13   2.0000     -10.278177      -279.6834
  14   2.0000     -10.273115      -279.5457
  15   2.0000     -10.268401      -279.4174
  16   2.0000      -8.079056      -219.8423
  17   2.0000      -8.075914      -219.7568
  18   2.0000      -6.037423      -164.2866
  19   2.0000      -6.034325      -164.2023
  20   2.0000      -6.033359      -164.1761
  21   2.0000      -6.030280      -164.0923
  22   2.0000      -6.029822      -164.0798
  23   2.0000      -6.026826      -163.9983
  24   2.0000      -1.012697       -27.5569
  25   2.0000      -0.990100       -26.9420
  26   2.0000      -0.919831       -25.0299
  27   2.0000      -0.916964       -24.9519
  28   2.0000      -0.873834       -23.7782
  29   2.0000      -0.855877       -23.2896
  30   2.0000      -0.843504       -22.9529
  31   2.0000      -0.816179       -22.2094
  32   2.0000      -0.782741       -21.2995
  33   2.0000      -0.770356       -20.9625
  34   2.0000      -0.714042       -19.4301
  35   2.0000      -0.701045       -19.0764
  36   2.0000      -0.691521       -18.8172
  37   2.0000      -0.664018       -18.0688
  38   2.0000      -0.649405       -17.6712
  39   2.0000      -0.624739       -17.0000
  40   2.0000      -0.606525       -16.5044
  41   2.0000      -0.580391       -15.7933
  42   2.0000      -0.562724       -15.3125
  43   2.0000      -0.559826       -15.2336
  44   2.0000      -0.541484       -14.7345
  45   2.0000      -0.523912       -14.2564
  46   2.0000      -0.515621       -14.0308
  47   2.0000      -0.511457       -13.9175
  48   2.0000      -0.509052       -13.8520
  49   2.0000      -0.505103       -13.7445
  50   2.0000      -0.498107       -13.5542
  51   2.0000      -0.477233       -12.9862
  52   2.0000      -0.471328       -12.8255
  53   2.0000      -0.467224       -12.7138
  54   2.0000      -0.461574       -12.5601
  55   2.0000      -0.449476       -12.2309
  56   2.0000      -0.443381       -12.0650
  57   2.0000      -0.437198       -11.8968
  58   2.0000      -0.434404       -11.8207
  59   2.0000      -0.426157       -11.5963
  60   2.0000      -0.418389       -11.3850
  61   2.0000      -0.416495       -11.3334
  62   2.0000      -0.414534       -11.2800
  63   2.0000      -0.344628        -9.3778
  64   2.0000      -0.328940        -8.9509
  65   2.0000      -0.325155        -8.8479
  66   2.0000      -0.295067        -8.0292
  67   0.0000       0.036326         0.9885
  68   0.0000       0.071594         1.9482
  69   0.0000       0.109981         2.9927
  70   0.0000       0.119307         3.2465
  71   0.0000       0.130660         3.5555

MULLIKEN ATOMIC CHARGES
-----------------------
   0 S :    0.102131
   1 C :   -0.111378
   2 C :   -0.079653
   3 C :    0.044342
   4 C :   -0.162112
   5 H :   -0.005179
   6 C :    0.089715
   7 H :    0.024712
   8 H :    0.040403
   9 C :   -0.113417
  10 H :    0.008590
  11 H :    0.019960
  12 C :   -0.023875
  13 H :    0.024175
  14 H :    0.031216
  15 H :    0.039497
  16 S :    0.119279
  17 C :   -0.069430
  18 C :   -0.025735
  19 C :   -0.032606
  20 C :   -0.153348
  21 H :    0.012462
  22 C :    0.040368
  23 H :    0.024111
  24 H :    0.062168
  25 C :   -0.060610
  26 H :    0.013099
  27 H :    0.006867
  28 C :   -0.028420
  29 H :    0.023315
  30 H :    0.043416
  31 H :    0.016917
  32 H :    0.035616
  33 H :    0.043405
Sum of atomic charges:   -0.0000000

LOEWDIN ATOMIC CHARGES
----------------------
   0 S :    0.409924
   1 C :   -0.194528
   2 C :   -0.066381
   3 C :   -0.059493
   4 C :   -0.191202
   5 H :    0.024371
   6 C :   -0.031153
   7 H :    0.039334
   8 H :    0.032832
   9 C :   -0.041935
  10 H :    0.016531
  11 H :    0.015994
  12 C :   -0.062990
  13 H :    0.018285
  14 H :    0.025921
  15 H :    0.028098
  16 S :    0.432278
  17 C :   -0.184048
  18 C :   -0.063735
  19 C :   -0.049785
  20 C :   -0.218597
  21 H :    0.026339
  22 C :   -0.035288
  23 H :    0.031086
  24 H :    0.047275
  25 C :   -0.033923
  26 H :    0.022642
  27 H :    0.008155
  28 C :   -0.054019
  29 H :    0.023160
  30 H :    0.026283
  31 H :    0.018184
  32 H :    0.021064
  33 H :    0.019320

  Mayer bond orders larger than 0.100000
B(  0-S ,  1-C ) :   1.1512 B(  0-S ,  4-C ) :   1.1612 B(  1-C ,  2-C ) :   1.5914
B(  1-C ,  4-C ) :   0.1044 B(  1-C , 32-H ) :   0.9753 B(  2-C ,  3-C ) :   1.2430
B(  2-C ,  6-C ) :   1.0269 B(  3-C ,  4-C ) :   1.5770 B(  3-C ,  5-H ) :   1.0015
B(  4-C , 20-C ) :   1.0265 B(  6-C ,  7-H ) :   0.9363 B(  6-C ,  8-H ) :   0.9473
B(  6-C ,  9-C ) :   1.0462 B(  9-C , 10-H ) :   0.9494 B(  9-C , 11-H ) :   0.9621
B(  9-C , 12-C ) :   1.0762 B( 12-C , 13-H ) :   0.9755 B( 12-C , 14-H ) :   0.9766
B( 12-C , 15-H ) :   0.9753 B( 16-S , 17-C ) :   1.1681 B( 16-S , 20-C ) :   1.1468
B( 17-C , 18-C ) :   1.6130 B( 17-C , 33-H ) :   0.9726 B( 18-C , 19-C ) :   1.1903
B( 18-C , 21-H ) :   0.9994 B( 19-C , 20-C ) :   1.6008 B( 19-C , 22-C ) :   1.0671
B( 22-C , 23-H ) :   0.9385 B( 22-C , 24-H ) :   0.9312 B( 22-C , 25-C ) :   1.0633
B( 25-C , 26-H ) :   0.9532 B( 25-C , 27-H ) :   0.9574 B( 25-C , 28-C ) :   1.0756
B( 28-C , 29-H ) :   0.9705 B( 28-C , 30-H ) :   0.9764 B( 28-C , 31-H ) :   0.9729

Dispersion correction           -0.014295257
FINAL SINGLE POINT ENERGY     -1339.872198293677

DIPOLE MOMENT
-------------
                                X             Y             Z
Electronic contribution:     23.96939       4.70337     -12.61329
Nuclear contribution   :    -24.28341      -5.03037      13.04951
                        -----------------------------------------
Total Dipole Moment    :     -0.31401      -0.32700       0.43621
                        -----------------------------------------
Magnitude (a.u.)       :      0.62914
Magnitude (Debye)      :      1.59914

Rotational constants in cm-1:     0.019253     0.008518     0.006784
Rotational constants in MHz :   577.199392   255.366656   203.378635

                             ****ORCA TERMINATED NORMALLY****
TOTAL RUN TIME: 0 days 0 hours 0 minutes 21 seconds 944 msec
