                         Program Version 4.2.1 -  RELEASE  -
|  1> ! wB97X-D3 SP def2-SVP
|  2> %pal
|  3> nprocs 24
|  4> end
|  5>
|  6> * xyz 0 1
|  7> S 	 -132.966 	 29.1644 	 -14.2592
|  8> C 	 -131.463 	 29.0345 	 -15.2374
|  9> C 	 -131.716 	 28.4883 	 -16.5343
| 10> C 	 -133.105 	 28.1293 	 -16.6634
| 11> C 	 -133.875 	 28.2839 	 -15.4755
| 12> H 	 -133.601 	 27.7664 	 -17.537
| 13> C 	 -130.698 	 28.3139 	 -17.6256
| 14> H 	 -129.696 	 28.5597 	 -17.1694
| 15> H 	 -130.906 	 29.1977 	 -18.2398
| 16> C 	 -130.702 	 26.9549 	 -18.3493
| 17> H 	 -130.804 	 26.159 	 -17.6871
| 18> H 	 -131.597 	 26.8822 	 -18.9844
| 19> C 	 -129.481 	 26.7721 	 -19.2792
| 20> H 	 -129.687 	 26.034 	 -20.063
| 21> H 	 -129.334 	 27.5841 	 -19.8405
| 22> H 	 -128.613 	 26.6192 	 -18.7701
| 23> S 	 -136.592 	 28.5754 	 -16.1316
| 24> C 	 -137.76 	 27.4832 	 -15.3786
| 25> C 	 -137.124 	 26.5659 	 -14.5214
| 26> C 	 -135.738 	 26.8125 	 -14.4696
| 27> C 	 -135.239 	 27.8173 	 -15.3049
| 28> H 	 -137.758 	 25.9555 	 -13.9155
| 29> C 	 -134.804 	 25.8545 	 -13.6718
| 30> H 	 -133.804 	 26.226 	 -13.8717
| 31> H 	 -134.945 	 24.9296 	 -14.1485
| 32> C 	 -135.061 	 25.672 	 -12.2458
| 33> H 	 -136.1 	 25.4937 	 -12.1015
| 34> H 	 -134.878 	 26.6672 	 -11.7826
| 35> C 	 -134.266 	 24.6067 	 -11.4468
| 36> H 	 -133.279 	 25.0529 	 -11.5114
| 37> H 	 -134.167 	 23.5987 	 -11.839
| 38> H 	 -134.707 	 24.548 	 -10.4962
| 39> H 	 -130.482 	 29.5416 	 -14.9459
| 40> H 	 -138.837 	 27.6246 	 -15.3593
| 41> *
| 42>
| 43>                          ****END OF INPUT****

CARTESIAN COORDINATES (ANGSTROEM)
---------------------------------
  S    -132.966000   29.164400  -14.259200
  C    -131.463000   29.034500  -15.237400
  C    -131.716000   28.488300  -16.534300
  C    -133.105000   28.129300  -16.663400
  C    -133.875000   28.283900  -15.475500
  H    -133.601000   27.766400  -17.537000
  C    -130.698000   28.313900  -17.625600
  H    -129.696000   28.559700  -17.169400
  H    -130.906000   29.197700  -18.239800
  C    -130.702000   26.954900  -18.349300
  H    -130.804000   26.159000  -17.687100
  H    -131.597000   26.882200  -18.984400
  C    -129.481000   26.772100  -19.279200
  H    -129.687000   26.034000  -20.063000
  H    -129.334000   27.584100  -19.840500
  H    -128.613000   26.619200  -18.770100
  S    -136.592000   28.575400  -16.131600
  C    -137.760000   27.483200  -15.378600
  C    -137.124000   26.565900  -14.521400
  C    -135.738000   26.812500  -14.469600
  C    -135.239000   27.817300  -15.304900
  H    -137.758000   25.955500  -13.915500
  C    -134.804000   25.854500  -13.671800
  H    -133.804000   26.226000  -13.871700
  H    -134.945000   24.929600  -14.148500
  C    -135.061000   25.672000  -12.245800
  H    -136.100000   25.493700  -12.101500
  H    -134.878000   26.667200  -11.782600
  C    -134.266000   24.606700  -11.446800
  H    -133.279000   25.052900  -11.511400
  H    -134.167000   23.598700  -11.839000
  H    -134.707000   24.548000  -10.496200
  H    -130.482000   29.541600  -14.945900
  H    -138.837000   27.624600  -15.359300

 Total Charge           Charge          ....    0
 Multiplicity           Mult            ....    1
 Number of Electrons    NEL             ....  134
 Basis Dimension        Dim             ....  322

ORBITAL ENERGIES
----------------

  NO   OCC          E(Eh)            E(eV)
   0   2.0000     -88.971328     -2421.0329
   1   2.0000     -88.967338     -2420.9243
   2   2.0000     -10.333814      -281.1974
   3   2.0000     -10.326747      -281.0051
   4   2.0000     -10.326278      -280.9923
   5   2.0000     -10.321861      -280.8721
   6   2.0000     -10.309975      -280.5487
   7   2.0000     -10.303308      -280.3673
   8   2.0000     -10.299368      -280.2600
   9   2.0000     -10.298133      -280.2264
  10   2.0000     -10.294037      -280.1150
  11   2.0000     -10.287164      -279.9280
  12   2.0000     -10.275829      -279.6195
  13   2.0000     -10.275489      -279.6103
  14   2.0000     -10.271626      -279.5052
  15   2.0000     -10.264054      -279.2991
  16   2.0000      -8.084491      -219.9902
  17   2.0000      -8.081384      -219.9056
  18   2.0000      -6.043001      -164.4384
  19   2.0000      -6.039902      -164.3541
  20   2.0000      -6.039209      -164.3352
  21   2.0000      -6.035855      -164.2440
  22   2.0000      -6.035346      -164.2301
  23   2.0000      -6.032313      -164.1476
  24   2.0000      -0.998871       -27.1807
  25   2.0000      -0.974759       -26.5245
  26   2.0000      -0.912805       -24.8387
  27   2.0000      -0.910935       -24.7878
  28   2.0000      -0.867915       -23.6172
  29   2.0000      -0.850204       -23.1352
  30   2.0000      -0.845522       -23.0078
  31   2.0000      -0.811177       -22.0733
  32   2.0000      -0.786241       -21.3947
  33   2.0000      -0.771788       -21.0014
  34   2.0000      -0.718864       -19.5613
  35   2.0000      -0.696474       -18.9520
  36   2.0000      -0.691915       -18.8280
  37   2.0000      -0.658508       -17.9189
  38   2.0000      -0.634726       -17.2718
  39   2.0000      -0.614988       -16.7347
  40   2.0000      -0.591745       -16.1022
  41   2.0000      -0.571121       -15.5410
  42   2.0000      -0.569457       -15.4957
  43   2.0000      -0.563421       -15.3315
  44   2.0000      -0.531595       -14.4654
  45   2.0000      -0.527115       -14.3435
  46   2.0000      -0.513933       -13.9848
  47   2.0000      -0.512900       -13.9567
  48   2.0000      -0.508346       -13.8328
  49   2.0000      -0.501902       -13.6575
  50   2.0000      -0.497607       -13.5406
  51   2.0000      -0.476788       -12.9741
  52   2.0000      -0.470750       -12.8098
  53   2.0000      -0.461337       -12.5536
  54   2.0000      -0.455633       -12.3984
  55   2.0000      -0.450961       -12.2713
  56   2.0000      -0.445132       -12.1127
  57   2.0000      -0.442999       -12.0546
  58   2.0000      -0.432759       -11.7760
  59   2.0000      -0.429085       -11.6760
  60   2.0000      -0.418491       -11.3877
  61   2.0000      -0.414569       -11.2810
  62   2.0000      -0.400559       -10.8998
  63   2.0000      -0.335166        -9.1203
  64   2.0000      -0.332759        -9.0548
  65   2.0000      -0.324441        -8.8285
  66   2.0000      -0.295590        -8.0434
  67   0.0000       0.032255         0.8777
  68   0.0000       0.051794         1.4094
  69   0.0000       0.108560         2.9541
  70   0.0000       0.116798         3.1782
  71   0.0000       0.128249         3.4898

MULLIKEN ATOMIC CHARGES
-----------------------
   0 S :    0.123966
   1 C :   -0.162141
   2 C :   -0.098906
   3 C :    0.039923
   4 C :   -0.192290
   5 H :    0.008631
   6 C :    0.060764
   7 H :    0.020305
   8 H :    0.046894
   9 C :   -0.064436
  10 H :    0.024320
  11 H :    0.028687
  12 C :    0.035417
  13 H :    0.027625
  14 H :   -0.011679
  15 H :    0.016682
  16 S :    0.111803
  17 C :   -0.111361
  18 C :   -0.029444
  19 C :   -0.038351
  20 C :   -0.162956
  21 H :    0.021709
  22 C :    0.128833
  23 H :    0.019510
  24 H :    0.012418
  25 C :   -0.107570
  26 H :    0.007374
  27 H :    0.024396
  28 C :   -0.014965
  29 H :    0.032957
  30 H :    0.028339
  31 H :    0.032279
  32 H :    0.077094
  33 H :    0.064175
Sum of atomic charges:    0.0000000

LOEWDIN ATOMIC CHARGES
----------------------
   0 S :    0.396917
   1 C :   -0.209865
   2 C :   -0.058280
   3 C :   -0.055126
   4 C :   -0.198478
   5 H :    0.026372
   6 C :   -0.037618
   7 H :    0.033540
   8 H :    0.040841
   9 C :   -0.029521
  10 H :    0.018145
  11 H :    0.027491
  12 C :   -0.046653
  13 H :    0.034143
  14 H :    0.010137
  15 H :    0.014237
  16 S :    0.403330
  17 C :   -0.178731
  18 C :   -0.071390
  19 C :   -0.046522
  20 C :   -0.213436
  21 H :    0.030647
  22 C :   -0.026585
  23 H :    0.024077
  24 H :    0.024779
  25 C :   -0.045163
  26 H :    0.011382
  27 H :    0.028687
  28 C :   -0.056874
  29 H :    0.030019
  30 H :    0.023455
  31 H :    0.022939
  32 H :    0.041802
  33 H :    0.031301

  Mayer bond orders larger than 0.100000
B(  0-S ,  1-C ) :   1.1349 B(  0-S ,  4-C ) :   1.1531 B(  1-C ,  2-C ) :   1.5867
B(  1-C ,  4-C ) :   0.1071 B(  1-C , 32-H ) :   0.9556 B(  2-C ,  3-C ) :   1.2500
B(  2-C ,  6-C ) :   1.0234 B(  3-C ,  4-C ) :   1.5524 B(  3-C ,  5-H ) :   0.9937
B(  4-C , 20-C ) :   1.0485 B(  6-C ,  7-H ) :   0.9444 B(  6-C ,  8-H ) :   0.9262
B(  6-C ,  9-C ) :   1.0538 B(  9-C , 10-H ) :   0.9653 B(  9-C , 11-H ) :   0.9489
B(  9-C , 12-C ) :   1.0899 B( 12-C , 13-H ) :   0.9714 B( 12-C , 14-H ) :   0.9649
B( 12-C , 15-H ) :   0.9757 B( 16-S , 17-C ) :   1.1746 B( 16-S , 20-C ) :   1.1313
B( 17-C , 18-C ) :   1.5873 B( 17-C , 20-C ) :   0.1053 B( 17-C , 33-H ) :   0.9635
B( 18-C , 19-C ) :   1.2612 B( 18-C , 21-H ) :   0.9920 B( 19-C , 20-C ) :   1.5749
B( 19-C , 22-C ) :   1.0283 B( 22-C , 23-H ) :   0.9288 B( 22-C , 24-H ) :   0.9306
B( 22-C , 25-C ) :   1.0748 B( 25-C , 26-H ) :   0.9558 B( 25-C , 27-H ) :   0.9507
B( 25-C , 28-C ) :   1.0748 B( 28-C , 29-H ) :   0.9780 B( 28-C , 30-H ) :   0.9767
B( 28-C , 31-H ) :   0.9742

Dispersion correction           -0.013780282
FINAL SINGLE POINT ENERGY     -1339.851466786464

DIPOLE MOMENT
-------------
                                X             Y             Z
Electronic contribution:    -15.53704      16.71224       1.14731
Nuclear contribution   :     15.76031     -16.99764      -1.33146
                        -----------------------------------------
Total Dipole Moment    :      0.22327      -0.28540      -0.18416
                        -----------------------------------------
Magnitude (a.u.)       :      0.40647
Magnitude (Debye)      :      1.03317

Rotational constants in cm-1:     0.017377     0.007648     0.006652
Rotational constants in MHz :   520.947321   229.270067   199.407637

                             ****ORCA TERMINATED NORMALLY****
TOTAL RUN TIME: 0 days 0 hours 0 minutes 20 seconds 818 msec
