                         Program Version 4.2.1 -  RELEASE  -
|  1> ! wB97X-D3 SP def2-SVP
|  2> %pal
|  3> nprocs 24
|  4> end
|  5>
|  6> * xyz 0 1
|  7> S 	 -67.4038 	 11.5272 	 -67.6134
|  8> C 	 -66.3628 	 12.7113 	 -68.265
|  9> C 	 -66.857 	 13.1291 	 -69.4937
| 10> C 	 -68.0962 	 12.5081 	 -69.8087
| 11> C 	 -68.5128 	 11.6028 	 -68.9518
| 12> H 	 -68.6975 	 12.7751 	 -70.6178
| 13> C 	 -66.3806 	 14.3668 	 -70.2436
| 14> H 	 -66.1541 	 14.1698 	 -71.3361
| 15> H 	 -65.4085 	 14.6295 	 -69.8732
| 16> C 	 -67.2453 	 15.6293 	 -69.9673
| 17> H 	 -67.2384 	 15.8982 	 -68.9261
| 18> H 	 -66.7506 	 16.4066 	 -70.5994
| 19> C 	 -68.7309 	 15.5728 	 -70.359
| 20> H 	 -68.9548 	 15.1936 	 -71.3097
| 21> H 	 -69.3496 	 15.1111 	 -69.6052
| 22> H 	 -69.21 	 16.5216 	 -70.3551
| 23> S 	 -69.4988 	 9.20865 	 -68.3559
| 24> C 	 -71.0867 	 8.58471 	 -68.8102
| 25> C 	 -71.6417 	 9.51275 	 -69.6244
| 26> C 	 -70.9283 	 10.7408 	 -69.6687
| 27> C 	 -69.7248 	 10.752 	 -68.9018
| 28> H 	 -72.4964 	 9.29199 	 -70.1601
| 29> C 	 -71.4618 	 12.0135 	 -70.3618
| 30> H 	 -72.4009 	 11.8279 	 -70.949
| 31> H 	 -70.7956 	 12.3442 	 -71.2078
| 32> C 	 -71.5741 	 13.2485 	 -69.5255
| 33> H 	 -71.7114 	 14.1395 	 -70.1401
| 34> H 	 -70.6977 	 13.3793 	 -68.8965
| 35> C 	 -72.7315 	 13.1819 	 -68.432
| 36> H 	 -72.839 	 13.9576 	 -67.718
| 37> H 	 -72.6812 	 12.3578 	 -67.7232
| 38> H 	 -73.7035 	 13.0875 	 -68.9013
| 39> H 	 -65.5379 	 13.2391 	 -67.7117
| 40> H 	 -71.4128 	 7.56643 	 -68.6938
| 41> *
| 42>
| 43>                          ****END OF INPUT****

CARTESIAN COORDINATES (ANGSTROEM)
---------------------------------
  S    -67.403800   11.527200  -67.613400
  C    -66.362800   12.711300  -68.265000
  C    -66.857000   13.129100  -69.493700
  C    -68.096200   12.508100  -69.808700
  C    -68.512800   11.602800  -68.951800
  H    -68.697500   12.775100  -70.617800
  C    -66.380600   14.366800  -70.243600
  H    -66.154100   14.169800  -71.336100
  H    -65.408500   14.629500  -69.873200
  C    -67.245300   15.629300  -69.967300
  H    -67.238400   15.898200  -68.926100
  H    -66.750600   16.406600  -70.599400
  C    -68.730900   15.572800  -70.359000
  H    -68.954800   15.193600  -71.309700
  H    -69.349600   15.111100  -69.605200
  H    -69.210000   16.521600  -70.355100
  S    -69.498800    9.208650  -68.355900
  C    -71.086700    8.584710  -68.810200
  C    -71.641700    9.512750  -69.624400
  C    -70.928300   10.740800  -69.668700
  C    -69.724800   10.752000  -68.901800
  H    -72.496400    9.291990  -70.160100
  C    -71.461800   12.013500  -70.361800
  H    -72.400900   11.827900  -70.949000
  H    -70.795600   12.344200  -71.207800
  C    -71.574100   13.248500  -69.525500
  H    -71.711400   14.139500  -70.140100
  H    -70.697700   13.379300  -68.896500
  C    -72.731500   13.181900  -68.432000
  H    -72.839000   13.957600  -67.718000
  H    -72.681200   12.357800  -67.723200
  H    -73.703500   13.087500  -68.901300
  H    -65.537900   13.239100  -67.711700
  H    -71.412800    7.566430  -68.693800

 Total Charge           Charge          ....    0
 Multiplicity           Mult            ....    1
 Number of Electrons    NEL             ....  134
 Basis Dimension        Dim             ....  322

ORBITAL ENERGIES
----------------

  NO   OCC          E(Eh)            E(eV)
   0   2.0000     -88.963124     -2420.8097
   1   2.0000     -88.962364     -2420.7890
   2   2.0000     -10.328143      -281.0431
   3   2.0000     -10.326813      -281.0069
   4   2.0000     -10.316776      -280.7338
   5   2.0000     -10.315471      -280.6982
   6   2.0000     -10.307377      -280.4780
   7   2.0000     -10.299277      -280.2576
   8   2.0000     -10.298528      -280.2372
   9   2.0000     -10.296165      -280.1729
  10   2.0000     -10.292544      -280.0744
  11   2.0000     -10.289911      -280.0027
  12   2.0000     -10.287795      -279.9451
  13   2.0000     -10.282071      -279.7894
  14   2.0000     -10.268076      -279.4086
  15   2.0000     -10.267908      -279.4040
  16   2.0000      -8.079643      -219.8583
  17   2.0000      -8.078348      -219.8230
  18   2.0000      -6.038020      -164.3029
  19   2.0000      -6.036841      -164.2708
  20   2.0000      -6.033636      -164.1836
  21   2.0000      -6.032579      -164.1548
  22   2.0000      -6.030636      -164.1019
  23   2.0000      -6.029135      -164.0611
  24   2.0000      -1.021920       -27.8079
  25   2.0000      -0.997688       -27.1485
  26   2.0000      -0.910032       -24.7632
  27   2.0000      -0.905234       -24.6327
  28   2.0000      -0.879035       -23.9198
  29   2.0000      -0.851258       -23.1639
  30   2.0000      -0.839777       -22.8515
  31   2.0000      -0.825055       -22.4509
  32   2.0000      -0.787146       -21.4193
  33   2.0000      -0.775327       -21.0977
  34   2.0000      -0.710321       -19.3288
  35   2.0000      -0.699796       -19.0424
  36   2.0000      -0.688015       -18.7219
  37   2.0000      -0.670785       -18.2530
  38   2.0000      -0.644771       -17.5451
  39   2.0000      -0.629404       -17.1270
  40   2.0000      -0.598015       -16.2728
  41   2.0000      -0.580047       -15.7839
  42   2.0000      -0.553966       -15.0742
  43   2.0000      -0.548494       -14.9253
  44   2.0000      -0.541152       -14.7255
  45   2.0000      -0.532742       -14.4966
  46   2.0000      -0.518491       -14.1089
  47   2.0000      -0.513269       -13.9667
  48   2.0000      -0.507635       -13.8134
  49   2.0000      -0.503341       -13.6966
  50   2.0000      -0.487793       -13.2735
  51   2.0000      -0.484481       -13.1834
  52   2.0000      -0.476904       -12.9772
  53   2.0000      -0.470206       -12.7950
  54   2.0000      -0.461321       -12.5532
  55   2.0000      -0.449321       -12.2266
  56   2.0000      -0.441013       -12.0006
  57   2.0000      -0.436481       -11.8772
  58   2.0000      -0.430222       -11.7069
  59   2.0000      -0.426091       -11.5945
  60   2.0000      -0.417571       -11.3627
  61   2.0000      -0.407875       -11.0989
  62   2.0000      -0.403965       -10.9925
  63   2.0000      -0.365626        -9.9492
  64   2.0000      -0.333802        -9.0832
  65   2.0000      -0.323346        -8.7987
  66   2.0000      -0.290775        -7.9124
  67   0.0000       0.026342         0.7168
  68   0.0000       0.080529         2.1913
  69   0.0000       0.111614         3.0372
  70   0.0000       0.120205         3.2710
  71   0.0000       0.133388         3.6297

MULLIKEN ATOMIC CHARGES
-----------------------
   0 S :    0.098359
   1 C :   -0.123652
   2 C :   -0.100189
   3 C :    0.018050
   4 C :   -0.093764
   5 H :   -0.038776
   6 C :    0.050644
   7 H :    0.043255
   8 H :    0.006684
   9 C :   -0.054785
  10 H :    0.027092
  11 H :    0.036838
  12 C :   -0.029364
  13 H :    0.017545
  14 H :    0.020085
  15 H :    0.012844
  16 S :    0.095552
  17 C :   -0.086014
  18 C :    0.009082
  19 C :   -0.070040
  20 C :   -0.074482
  21 H :   -0.010218
  22 C :    0.031255
  23 H :    0.021305
  24 H :    0.034801
  25 C :   -0.076870
  26 H :    0.035346
  27 H :    0.063852
  28 C :   -0.053585
  29 H :    0.015659
  30 H :    0.026521
  31 H :    0.014807
  32 H :    0.073371
  33 H :    0.058793
Sum of atomic charges:    0.0000000

LOEWDIN ATOMIC CHARGES
----------------------
   0 S :    0.418298
   1 C :   -0.214997
   2 C :   -0.067146
   3 C :   -0.060260
   4 C :   -0.188975
   5 H :    0.020915
   6 C :   -0.037360
   7 H :    0.037369
   8 H :    0.025647
   9 C :   -0.030442
  10 H :    0.025719
  11 H :    0.029901
  12 C :   -0.071128
  13 H :    0.014566
  14 H :    0.026095
  15 H :    0.026276
  16 S :    0.453172
  17 C :   -0.183617
  18 C :   -0.059631
  19 C :   -0.063985
  20 C :   -0.226161
  21 H :    0.022000
  22 C :   -0.042451
  23 H :    0.032362
  24 H :    0.032660
  25 C :   -0.038050
  26 H :    0.026044
  27 H :    0.026679
  28 C :   -0.073369
  29 H :    0.018974
  30 H :    0.026787
  31 H :    0.018116
  32 H :    0.044327
  33 H :    0.031663

  Mayer bond orders larger than 0.100000
B(  0-S ,  1-C ) :   1.1528 B(  0-S ,  4-C ) :   1.1406 B(  1-C ,  2-C ) :   1.6035
B(  1-C , 32-H ) :   0.9607 B(  2-C ,  3-C ) :   1.2395 B(  2-C ,  6-C ) :   1.0367
B(  3-C ,  4-C ) :   1.6154 B(  3-C ,  5-H ) :   1.0068 B(  4-C , 20-C ) :   0.9964
B(  6-C ,  7-H ) :   0.9407 B(  6-C ,  8-H ) :   0.9357 B(  6-C ,  9-C ) :   1.0662
B(  9-C , 10-H ) :   0.9527 B(  9-C , 11-H ) :   0.9554 B(  9-C , 12-C ) :   1.0973
B( 12-C , 13-H ) :   0.9711 B( 12-C , 14-H ) :   0.9626 B( 12-C , 15-H ) :   0.9600
B( 16-S , 17-C ) :   1.1688 B( 16-S , 20-C ) :   1.1991 B( 17-C , 18-C ) :   1.5496
B( 17-C , 20-C ) :   0.1044 B( 17-C , 33-H ) :   0.9735 B( 18-C , 19-C ) :   1.3078
B( 18-C , 21-H ) :   1.0080 B( 19-C , 20-C ) :   1.5049 B( 19-C , 22-C ) :   1.0360
B( 22-C , 23-H ) :   0.9392 B( 22-C , 24-H ) :   0.9295 B( 22-C , 25-C ) :   1.0774
B( 25-C , 26-H ) :   0.9535 B( 25-C , 27-H ) :   0.9424 B( 25-C , 28-C ) :   1.0583
B( 28-C , 29-H ) :   0.9777 B( 28-C , 30-H ) :   0.9765 B( 28-C , 31-H ) :   0.9777

Dispersion correction           -0.016477874
FINAL SINGLE POINT ENERGY     -1339.858024408933

DIPOLE MOMENT
-------------
                                X             Y             Z
Electronic contribution:     10.08977     -24.68524       9.90303
Nuclear contribution   :    -10.31103      25.18540     -10.33264
                        -----------------------------------------
Total Dipole Moment    :     -0.22126       0.50016      -0.42961
                        -----------------------------------------
Magnitude (a.u.)       :      0.69547
Magnitude (Debye)      :      1.76774

Rotational constants in cm-1:     0.019709     0.010747     0.007806
Rotational constants in MHz :   590.856640   322.195600   234.015753

                             ****ORCA TERMINATED NORMALLY****
TOTAL RUN TIME: 0 days 0 hours 0 minutes 23 seconds 542 msec
