                         Program Version 4.2.1 -  RELEASE  -
|  1> ! wB97X-D3 SP def2-SVP
|  2> %pal
|  3> nprocs 24
|  4> end
|  5>
|  6> * xyz 0 1
|  7> S 	 -47.9702 	 14.4338 	 24.4394
|  8> C 	 -48.4433 	 12.7253 	 24.6245
|  9> C 	 -47.5137 	 11.9831 	 25.2952
| 10> C 	 -46.4136 	 12.81 	 25.6957
| 11> C 	 -46.4775 	 14.1441 	 25.3528
| 12> H 	 -45.4893 	 12.3679 	 26.1915
| 13> C 	 -47.4354 	 10.4795 	 25.3532
| 14> H 	 -48.3875 	 10.1058 	 25.7999
| 15> H 	 -46.5747 	 10.195 	 26.0145
| 16> C 	 -47.239 	 9.87421 	 23.9034
| 17> H 	 -48.0741 	 10.2489 	 23.2666
| 18> H 	 -46.3338 	 10.3852 	 23.3863
| 19> C 	 -47.1915 	 8.33044 	 23.7624
| 20> H 	 -46.2451 	 7.95716 	 24.1354
| 21> H 	 -47.9414 	 7.85309 	 24.4207
| 22> H 	 -47.2182 	 7.92591 	 22.7408
| 23> S 	 -45.8612 	 15.9817 	 27.1808
| 24> C 	 -44.6799 	 17.2685 	 26.8494
| 25> C 	 -44.085 	 17.0209 	 25.6971
| 26> C 	 -44.6429 	 15.8855 	 24.9721
| 27> C 	 -45.5793 	 15.2575 	 25.6987
| 28> H 	 -43.3081 	 17.7302 	 25.3858
| 29> C 	 -44.2533 	 15.5283 	 23.5757
| 30> H 	 -44.2097 	 16.43 	 22.9566
| 31> H 	 -45.0737 	 14.9491 	 23.2239
| 32> C 	 -42.9246 	 14.7386 	 23.5118
| 33> H 	 -42.6286 	 14.657 	 22.4852
| 34> H 	 -42.9646 	 13.742 	 23.9868
| 35> C 	 -41.7354 	 15.3379 	 24.1903
| 36> H 	 -40.8309 	 14.7003 	 24.2488
| 37> H 	 -41.9995 	 15.5985 	 25.2611
| 38> H 	 -41.5063 	 16.2324 	 23.5928
| 39> H 	 -49.2004 	 12.3673 	 24.0517
| 40> H 	 -44.671 	 18.1612 	 27.3939
| 41> *
| 42>
| 43>                          ****END OF INPUT****

CARTESIAN COORDINATES (ANGSTROEM)
---------------------------------
  S    -47.970200   14.433800   24.439400
  C    -48.443300   12.725300   24.624500
  C    -47.513700   11.983100   25.295200
  C    -46.413600   12.810000   25.695700
  C    -46.477500   14.144100   25.352800
  H    -45.489300   12.367900   26.191500
  C    -47.435400   10.479500   25.353200
  H    -48.387500   10.105800   25.799900
  H    -46.574700   10.195000   26.014500
  C    -47.239000    9.874210   23.903400
  H    -48.074100   10.248900   23.266600
  H    -46.333800   10.385200   23.386300
  C    -47.191500    8.330440   23.762400
  H    -46.245100    7.957160   24.135400
  H    -47.941400    7.853090   24.420700
  H    -47.218200    7.925910   22.740800
  S    -45.861200   15.981700   27.180800
  C    -44.679900   17.268500   26.849400
  C    -44.085000   17.020900   25.697100
  C    -44.642900   15.885500   24.972100
  C    -45.579300   15.257500   25.698700
  H    -43.308100   17.730200   25.385800
  C    -44.253300   15.528300   23.575700
  H    -44.209700   16.430000   22.956600
  H    -45.073700   14.949100   23.223900
  C    -42.924600   14.738600   23.511800
  H    -42.628600   14.657000   22.485200
  H    -42.964600   13.742000   23.986800
  C    -41.735400   15.337900   24.190300
  H    -40.830900   14.700300   24.248800
  H    -41.999500   15.598500   25.261100
  H    -41.506300   16.232400   23.592800
  H    -49.200400   12.367300   24.051700
  H    -44.671000   18.161200   27.393900

 Total Charge           Charge          ....    0
 Multiplicity           Mult            ....    1
 Number of Electrons    NEL             ....  134
 Basis Dimension        Dim             ....  322

ORBITAL ENERGIES
----------------

  NO   OCC          E(Eh)            E(eV)
   0   2.0000     -88.965422     -2420.8722
   1   2.0000     -88.955406     -2420.5996
   2   2.0000     -10.331989      -281.1477
   3   2.0000     -10.316418      -280.7240
   4   2.0000     -10.310002      -280.5494
   5   2.0000     -10.307961      -280.4939
   6   2.0000     -10.305851      -280.4364
   7   2.0000     -10.302790      -280.3532
   8   2.0000     -10.301657      -280.3223
   9   2.0000     -10.300427      -280.2889
  10   2.0000     -10.296577      -280.1841
  11   2.0000     -10.291010      -280.0326
  12   2.0000     -10.286780      -279.9175
  13   2.0000     -10.284218      -279.8478
  14   2.0000     -10.279933      -279.7312
  15   2.0000     -10.276411      -279.6354
  16   2.0000      -8.079330      -219.8497
  17   2.0000      -8.072090      -219.6527
  18   2.0000      -6.037920      -164.3002
  19   2.0000      -6.033950      -164.1921
  20   2.0000      -6.030621      -164.1015
  21   2.0000      -6.030059      -164.0863
  22   2.0000      -6.026314      -163.9843
  23   2.0000      -6.022680      -163.8854
  24   2.0000      -1.014749       -27.6127
  25   2.0000      -0.986480       -26.8435
  26   2.0000      -0.912371       -24.8269
  27   2.0000      -0.905960       -24.6524
  28   2.0000      -0.873065       -23.7573
  29   2.0000      -0.848030       -23.0761
  30   2.0000      -0.845228       -22.9998
  31   2.0000      -0.821667       -22.3587
  32   2.0000      -0.781885       -21.2762
  33   2.0000      -0.773233       -21.0407
  34   2.0000      -0.707626       -19.2555
  35   2.0000      -0.698884       -19.0176
  36   2.0000      -0.685671       -18.6581
  37   2.0000      -0.666221       -18.1288
  38   2.0000      -0.645089       -17.5538
  39   2.0000      -0.616426       -16.7738
  40   2.0000      -0.594459       -16.1761
  41   2.0000      -0.570500       -15.5241
  42   2.0000      -0.565491       -15.3878
  43   2.0000      -0.551656       -15.0113
  44   2.0000      -0.542994       -14.7756
  45   2.0000      -0.527546       -14.3553
  46   2.0000      -0.522511       -14.2182
  47   2.0000      -0.511426       -13.9166
  48   2.0000      -0.508131       -13.8269
  49   2.0000      -0.495514       -13.4836
  50   2.0000      -0.486057       -13.2263
  51   2.0000      -0.482951       -13.1418
  52   2.0000      -0.473450       -12.8832
  53   2.0000      -0.460701       -12.5363
  54   2.0000      -0.457566       -12.4510
  55   2.0000      -0.450856       -12.2684
  56   2.0000      -0.442970       -12.0538
  57   2.0000      -0.435737       -11.8570
  58   2.0000      -0.429209       -11.6794
  59   2.0000      -0.425614       -11.5815
  60   2.0000      -0.414515       -11.2795
  61   2.0000      -0.413414       -11.2496
  62   2.0000      -0.407760       -11.0957
  63   2.0000      -0.340618        -9.2687
  64   2.0000      -0.332523        -9.0484
  65   2.0000      -0.319496        -8.6939
  66   2.0000      -0.314520        -8.5585
  67   0.0000       0.046275         1.2592
  68   0.0000       0.060038         1.6337
  69   0.0000       0.108337         2.9480
  70   0.0000       0.127604         3.4723
  71   0.0000       0.128841         3.5059

MULLIKEN ATOMIC CHARGES
-----------------------
   0 S :    0.102583
   1 C :   -0.102901
   2 C :   -0.060737
   3 C :    0.017114
   4 C :   -0.181962
   5 H :    0.035436
   6 C :    0.057806
   7 H :    0.043792
   8 H :    0.036752
   9 C :   -0.132304
  10 H :    0.030797
  11 H :    0.045492
  12 C :   -0.029872
  13 H :    0.021234
  14 H :    0.033191
  15 H :    0.044140
  16 S :    0.098382
  17 C :   -0.082580
  18 C :   -0.030809
  19 C :   -0.074968
  20 C :   -0.154688
  21 H :    0.029060
  22 C :    0.141440
  23 H :    0.025714
  24 H :    0.014075
  25 C :   -0.054591
  26 H :    0.022928
  27 H :    0.028526
  28 C :   -0.097224
  29 H :    0.042449
  30 H :    0.051024
  31 H :    0.022137
  32 H :    0.016015
  33 H :    0.042548
Sum of atomic charges:   -0.0000000

LOEWDIN ATOMIC CHARGES
----------------------
   0 S :    0.383735
   1 C :   -0.161616
   2 C :   -0.066064
   3 C :   -0.066382
   4 C :   -0.190230
   5 H :    0.041631
   6 C :   -0.032083
   7 H :    0.036923
   8 H :    0.034003
   9 C :   -0.050421
  10 H :    0.022784
  11 H :    0.034389
  12 C :   -0.073990
  13 H :    0.022270
  14 H :    0.028545
  15 H :    0.032101
  16 S :    0.415387
  17 C :   -0.164071
  18 C :   -0.071244
  19 C :   -0.060896
  20 C :   -0.224920
  21 H :    0.037452
  22 C :   -0.024325
  23 H :    0.032929
  24 H :    0.027533
  25 C :   -0.041494
  26 H :    0.020537
  27 H :    0.027181
  28 C :   -0.074436
  29 H :    0.028921
  30 H :    0.030535
  31 H :    0.020307
  32 H :    0.003578
  33 H :    0.021432

  Mayer bond orders larger than 0.100000
B(  0-S ,  1-C ) :   1.1393 B(  0-S ,  4-C ) :   1.1362 B(  1-C ,  2-C ) :   1.6130
B(  1-C , 32-H ) :   0.9806 B(  2-C ,  3-C ) :   1.2398 B(  2-C ,  6-C ) :   1.0274
B(  3-C ,  4-C ) :   1.6207 B(  3-C ,  5-H ) :   0.9774 B(  4-C , 20-C ) :   0.9750
B(  6-C ,  7-H ) :   0.9331 B(  6-C ,  8-H ) :   0.9459 B(  6-C ,  9-C ) :   1.0476
B(  9-C , 10-H ) :   0.9589 B(  9-C , 11-H ) :   0.9578 B(  9-C , 12-C ) :   1.0706
B( 12-C , 13-H ) :   0.9747 B( 12-C , 14-H ) :   0.9734 B( 12-C , 15-H ) :   0.9750
B( 16-S , 17-C ) :   1.1289 B( 16-S , 20-C ) :   1.1581 B( 17-C , 18-C ) :   1.6604
B( 17-C , 33-H ) :   0.9754 B( 18-C , 19-C ) :   1.1806 B( 18-C , 21-H ) :   0.9877
B( 19-C , 20-C ) :   1.6620 B( 19-C , 22-C ) :   1.0429 B( 22-C , 23-H ) :   0.9329
B( 22-C , 24-H ) :   0.9151 B( 22-C , 25-C ) :   1.0738 B( 25-C , 26-H ) :   0.9566
B( 25-C , 27-H ) :   0.9528 B( 25-C , 28-C ) :   1.0883 B( 28-C , 29-H ) :   0.9725
B( 28-C , 30-H ) :   0.9635 B( 28-C , 31-H ) :   0.9748

Dispersion correction           -0.014497661
FINAL SINGLE POINT ENERGY     -1339.874440660551

DIPOLE MOMENT
-------------
                                X             Y             Z
Electronic contribution:    -12.69981      18.98748      11.92438
Nuclear contribution   :     13.00684     -19.29898     -12.28585
                        -----------------------------------------
Total Dipole Moment    :      0.30703      -0.31151      -0.36147
                        -----------------------------------------
Magnitude (a.u.)       :      0.56742
Magnitude (Debye)      :      1.44227

Rotational constants in cm-1:     0.021288     0.007800     0.006571
Rotational constants in MHz :   638.199490   233.824404   196.986944

                             ****ORCA TERMINATED NORMALLY****
TOTAL RUN TIME: 0 days 0 hours 0 minutes 21 seconds 492 msec
