                         Program Version 4.2.1 -  RELEASE  -
|  1> ! wB97X-D3 SP def2-SVP
|  2> %pal
|  3> nprocs 24
|  4> end
|  5>
|  6> * xyz 0 1
|  7> S 	 -26.4471 	 -6.7404 	 -1.25546
|  8> C 	 -26.2546 	 -8.48433 	 -0.914753
|  9> C 	 -27.4238 	 -9.13231 	 -1.18142
| 10> C 	 -28.3188 	 -8.34597 	 -1.94261
| 11> C 	 -28.0227 	 -7.00536 	 -2.04051
| 12> H 	 -29.1282 	 -8.61306 	 -2.49268
| 13> C 	 -27.5876 	 -10.6705 	 -1.01252
| 14> H 	 -27.6051 	 -10.9006 	 0.0417906
| 15> H 	 -26.7958 	 -11.2678 	 -1.51393
| 16> C 	 -28.9264 	 -11.2621 	 -1.48645
| 17> H 	 -29.8135 	 -10.627 	 -1.38517
| 18> H 	 -28.6632 	 -11.347 	 -2.54122
| 19> C 	 -29.2446 	 -12.7189 	 -1.05472
| 20> H 	 -29.4918 	 -12.7446 	 0.0142098
| 21> H 	 -30.0625 	 -13.0992 	 -1.61287
| 22> H 	 -28.3909 	 -13.3411 	 -1.19472
| 23> S 	 -27.5305 	 -5.26238 	 -4.10427
| 24> C 	 -28.8405 	 -4.396 	 -4.7924
| 25> C 	 -30.0073 	 -4.5276 	 -4.04938
| 26> C 	 -29.8611 	 -5.44815 	 -2.9453
| 27> C 	 -28.6041 	 -5.92486 	 -2.85225
| 28> H 	 -30.8927 	 -4.067 	 -4.37687
| 29> C 	 -30.9908 	 -5.8566 	 -2.00337
| 30> H 	 -31.5429 	 -4.96415 	 -1.73287
| 31> H 	 -30.6916 	 -6.31953 	 -1.07463
| 32> C 	 -32.0179 	 -6.87954 	 -2.58906
| 33> H 	 -31.5116 	 -7.75881 	 -2.94789
| 34> H 	 -32.5516 	 -6.55166 	 -3.47656
| 35> C 	 -33.0454 	 -7.42817 	 -1.57656
| 36> H 	 -33.7007 	 -6.70815 	 -1.21851
| 37> H 	 -32.5675 	 -7.73881 	 -0.654871
| 38> H 	 -33.68 	 -8.19448 	 -2.06154
| 39> H 	 -25.4627 	 -8.98652 	 -0.464002
| 40> H 	 -28.7702 	 -3.91262 	 -5.74985
| 41> *
| 42>
| 43>                          ****END OF INPUT****

CARTESIAN COORDINATES (ANGSTROEM)
---------------------------------
  S    -26.447100   -6.740400   -1.255460
  C    -26.254600   -8.484330   -0.914753
  C    -27.423800   -9.132310   -1.181420
  C    -28.318800   -8.345970   -1.942610
  C    -28.022700   -7.005360   -2.040510
  H    -29.128200   -8.613060   -2.492680
  C    -27.587600  -10.670500   -1.012520
  H    -27.605100  -10.900600    0.041791
  H    -26.795800  -11.267800   -1.513930
  C    -28.926400  -11.262100   -1.486450
  H    -29.813500  -10.627000   -1.385170
  H    -28.663200  -11.347000   -2.541220
  C    -29.244600  -12.718900   -1.054720
  H    -29.491800  -12.744600    0.014210
  H    -30.062500  -13.099200   -1.612870
  H    -28.390900  -13.341100   -1.194720
  S    -27.530500   -5.262380   -4.104270
  C    -28.840500   -4.396000   -4.792400
  C    -30.007300   -4.527600   -4.049380
  C    -29.861100   -5.448150   -2.945300
  C    -28.604100   -5.924860   -2.852250
  H    -30.892700   -4.067000   -4.376870
  C    -30.990800   -5.856600   -2.003370
  H    -31.542900   -4.964150   -1.732870
  H    -30.691600   -6.319530   -1.074630
  C    -32.017900   -6.879540   -2.589060
  H    -31.511600   -7.758810   -2.947890
  H    -32.551600   -6.551660   -3.476560
  C    -33.045400   -7.428170   -1.576560
  H    -33.700700   -6.708150   -1.218510
  H    -32.567500   -7.738810   -0.654871
  H    -33.680000   -8.194480   -2.061540
  H    -25.462700   -8.986520   -0.464002
  H    -28.770200   -3.912620   -5.749850

 Total Charge           Charge          ....    0
 Multiplicity           Mult            ....    1
 Number of Electrons    NEL             ....  134
 Basis Dimension        Dim             ....  322

ORBITAL ENERGIES
----------------

  NO   OCC          E(Eh)            E(eV)
   0   2.0000     -88.964216     -2420.8394
   1   2.0000     -88.961832     -2420.7745
   2   2.0000     -10.329713      -281.0858
   3   2.0000     -10.325439      -280.9695
   4   2.0000     -10.318002      -280.7671
   5   2.0000     -10.310654      -280.5672
   6   2.0000     -10.306285      -280.4483
   7   2.0000     -10.301674      -280.3228
   8   2.0000     -10.295915      -280.1661
   9   2.0000     -10.294998      -280.1412
  10   2.0000     -10.294945      -280.1397
  11   2.0000     -10.286331      -279.9053
  12   2.0000     -10.286313      -279.9048
  13   2.0000     -10.285517      -279.8832
  14   2.0000     -10.276909      -279.6489
  15   2.0000     -10.274937      -279.5952
  16   2.0000      -8.079504      -219.8545
  17   2.0000      -8.075654      -219.7497
  18   2.0000      -6.037944      -164.3008
  19   2.0000      -6.034263      -164.2006
  20   2.0000      -6.033946      -164.1920
  21   2.0000      -6.030295      -164.0927
  22   2.0000      -6.030258      -164.0917
  23   2.0000      -6.026345      -163.9852
  24   2.0000      -1.007005       -27.4020
  25   2.0000      -0.984012       -26.7763
  26   2.0000      -0.908325       -24.7168
  27   2.0000      -0.907171       -24.6854
  28   2.0000      -0.871075       -23.7032
  29   2.0000      -0.855077       -23.2678
  30   2.0000      -0.840563       -22.8729
  31   2.0000      -0.818748       -22.2793
  32   2.0000      -0.786425       -21.3997
  33   2.0000      -0.777581       -21.1591
  34   2.0000      -0.710659       -19.3380
  35   2.0000      -0.702712       -19.1218
  36   2.0000      -0.688269       -18.7288
  37   2.0000      -0.666022       -18.1234
  38   2.0000      -0.649860       -17.6836
  39   2.0000      -0.619817       -16.8661
  40   2.0000      -0.603302       -16.4167
  41   2.0000      -0.576409       -15.6849
  42   2.0000      -0.568042       -15.4572
  43   2.0000      -0.558502       -15.1976
  44   2.0000      -0.529510       -14.4087
  45   2.0000      -0.524855       -14.2820
  46   2.0000      -0.518339       -14.1047
  47   2.0000      -0.511408       -13.9161
  48   2.0000      -0.505888       -13.7659
  49   2.0000      -0.499332       -13.5875
  50   2.0000      -0.492888       -13.4122
  51   2.0000      -0.487943       -13.2776
  52   2.0000      -0.472615       -12.8605
  53   2.0000      -0.466444       -12.6926
  54   2.0000      -0.461357       -12.5542
  55   2.0000      -0.451553       -12.2874
  56   2.0000      -0.443238       -12.0611
  57   2.0000      -0.440583       -11.9889
  58   2.0000      -0.439048       -11.9471
  59   2.0000      -0.428188       -11.6516
  60   2.0000      -0.417367       -11.3571
  61   2.0000      -0.413879       -11.2622
  62   2.0000      -0.403778       -10.9874
  63   2.0000      -0.344934        -9.3861
  64   2.0000      -0.334620        -9.1055
  65   2.0000      -0.328590        -8.9414
  66   2.0000      -0.297238        -8.0883
  67   0.0000       0.032954         0.8967
  68   0.0000       0.063886         1.7384
  69   0.0000       0.113641         3.0923
  70   0.0000       0.126866         3.4522
  71   0.0000       0.127869         3.4795

MULLIKEN ATOMIC CHARGES
-----------------------
   0 S :    0.085685
   1 C :   -0.094884
   2 C :   -0.051042
   3 C :    0.063258
   4 C :   -0.153004
   5 H :   -0.036611
   6 C :    0.053838
   7 H :    0.025290
   8 H :    0.047383
   9 C :   -0.151318
  10 H :    0.043916
  11 H :    0.028744
  12 C :   -0.003754
  13 H :    0.031741
  14 H :    0.031681
  15 H :    0.019998
  16 S :    0.114350
  17 C :   -0.090411
  18 C :   -0.014076
  19 C :   -0.010815
  20 C :   -0.156180
  21 H :    0.000175
  22 C :    0.084890
  23 H :    0.024356
  24 H :    0.023477
  25 C :   -0.083555
  26 H :    0.018140
  27 H :    0.021338
  28 C :   -0.030297
  29 H :    0.008903
  30 H :    0.023832
  31 H :    0.041923
  32 H :    0.023333
  33 H :    0.059693
Sum of atomic charges:   -0.0000000

LOEWDIN ATOMIC CHARGES
----------------------
   0 S :    0.371232
   1 C :   -0.166964
   2 C :   -0.062256
   3 C :   -0.055490
   4 C :   -0.175981
   5 H :    0.013240
   6 C :   -0.031200
   7 H :    0.025389
   8 H :    0.036748
   9 C :   -0.051837
  10 H :    0.023067
  11 H :    0.024805
  12 C :   -0.055160
  13 H :    0.025137
  14 H :    0.024809
  15 H :    0.020689
  16 S :    0.409614
  17 C :   -0.183612
  18 C :   -0.065332
  19 C :   -0.049363
  20 C :   -0.193383
  21 H :    0.022728
  22 C :   -0.024229
  23 H :    0.031504
  24 H :    0.030362
  25 C :   -0.039036
  26 H :    0.018154
  27 H :    0.020354
  28 C :   -0.062926
  29 H :    0.013162
  30 H :    0.024233
  31 H :    0.033923
  32 H :    0.018926
  33 H :    0.028691

  Mayer bond orders larger than 0.100000
B(  0-S ,  1-C ) :   1.1283 B(  0-S ,  4-C ) :   1.1306 B(  1-C ,  2-C ) :   1.6401
B(  1-C , 32-H ) :   0.9790 B(  2-C ,  3-C ) :   1.2114 B(  2-C ,  6-C ) :   1.0018
B(  3-C ,  4-C ) :   1.6067 B(  3-C ,  5-H ) :   1.0067 B(  4-C , 20-C ) :   1.0053
B(  6-C ,  7-H ) :   0.9417 B(  6-C ,  8-H ) :   0.9492 B(  6-C ,  9-C ) :   1.0671
B(  9-C , 10-H ) :   0.9565 B(  9-C , 11-H ) :   0.9547 B(  9-C , 12-C ) :   1.0866
B( 12-C , 13-H ) :   0.9742 B( 12-C , 14-H ) :   0.9727 B( 12-C , 15-H ) :   0.9729
B( 16-S , 17-C ) :   1.1667 B( 16-S , 20-C ) :   1.1254 B( 17-C , 18-C ) :   1.6105
B( 17-C , 33-H ) :   0.9692 B( 18-C , 19-C ) :   1.2056 B( 18-C , 21-H ) :   1.0018
B( 19-C , 20-C ) :   1.6505 B( 19-C , 22-C ) :   1.0523 B( 22-C , 23-H ) :   0.9321
B( 22-C , 24-H ) :   0.9364 B( 22-C , 25-C ) :   1.0545 B( 25-C , 26-H ) :   0.9550
B( 25-C , 27-H ) :   0.9542 B( 25-C , 28-C ) :   1.0874 B( 28-C , 29-H ) :   0.9735
B( 28-C , 30-H ) :   0.9714 B( 28-C , 31-H ) :   0.9739

Dispersion correction           -0.013942538
FINAL SINGLE POINT ENERGY     -1339.866453994628

DIPOLE MOMENT
-------------
                                X             Y             Z
Electronic contribution:     22.46230      22.85583      -6.45968
Nuclear contribution   :    -23.06289     -23.33128       6.29560
                        -----------------------------------------
Total Dipole Moment    :     -0.60059      -0.47545      -0.16408
                        -----------------------------------------
Magnitude (a.u.)       :      0.78338
Magnitude (Debye)      :      1.99120

Rotational constants in cm-1:     0.016136     0.009468     0.006688
Rotational constants in MHz :   483.753064   283.831108   200.496220

                             ****ORCA TERMINATED NORMALLY****
TOTAL RUN TIME: 0 days 0 hours 0 minutes 21 seconds 508 msec
