                         Program Version 4.2.1 -  RELEASE  -
|  1> ! wB97X-D3 SP def2-SVP
|  2> %pal
|  3> nprocs 24
|  4> end
|  5>
|  6> * xyz 0 1
|  7> S 	 -132.604 	 24.3129 	 -20.0195
|  8> C 	 -134.136 	 23.7979 	 -20.7567
|  9> C 	 -135.215 	 24.0943 	 -19.8895
| 10> C 	 -134.76 	 24.7275 	 -18.7005
| 11> C 	 -133.364 	 24.8476 	 -18.5228
| 12> H 	 -135.327 	 25.1639 	 -17.8982
| 13> C 	 -136.704 	 23.9816 	 -20.2151
| 14> H 	 -136.897 	 23.1322 	 -20.7746
| 15> H 	 -136.936 	 24.8727 	 -20.845
| 16> C 	 -137.755 	 24.0618 	 -19.0131
| 17> H 	 -137.61 	 24.9278 	 -18.3723
| 18> H 	 -138.751 	 24.1336 	 -19.4964
| 19> C 	 -137.712 	 22.6897 	 -18.3309
| 20> H 	 -137.923 	 21.8855 	 -18.9671
| 21> H 	 -136.756 	 22.5728 	 -17.9372
| 22> H 	 -138.459 	 22.5135 	 -17.5017
| 23> S 	 -131.481 	 26.8132 	 -17.9789
| 24> C 	 -131.073 	 27.0911 	 -16.2613
| 25> C 	 -131.611 	 26.2206 	 -15.3972
| 26> C 	 -132.637 	 25.4416 	 -16.0893
| 27> C 	 -132.696 	 25.6085 	 -17.4738
| 28> H 	 -131.246 	 26.2665 	 -14.4179
| 29> C 	 -133.447 	 24.3389 	 -15.3793
| 30> H 	 -133.068 	 23.3696 	 -15.6611
| 31> H 	 -134.373 	 24.4148 	 -15.9001
| 32> C 	 -133.61 	 24.5138 	 -13.8208
| 33> H 	 -132.698 	 24.8543 	 -13.3181
| 34> H 	 -133.822 	 23.5218 	 -13.3529
| 35> C 	 -134.822 	 25.3356 	 -13.3716
| 36> H 	 -134.642 	 26.2502 	 -14.0052
| 37> H 	 -134.93 	 25.5251 	 -12.3177
| 38> H 	 -135.754 	 24.8614 	 -13.6465
| 39> H 	 -134.309 	 23.3915 	 -21.8115
| 40> H 	 -130.387 	 27.8771 	 -15.9529
| 41> *
| 42>
| 43>                          ****END OF INPUT****

CARTESIAN COORDINATES (ANGSTROEM)
---------------------------------
  S    -132.604000   24.312900  -20.019500
  C    -134.136000   23.797900  -20.756700
  C    -135.215000   24.094300  -19.889500
  C    -134.760000   24.727500  -18.700500
  C    -133.364000   24.847600  -18.522800
  H    -135.327000   25.163900  -17.898200
  C    -136.704000   23.981600  -20.215100
  H    -136.897000   23.132200  -20.774600
  H    -136.936000   24.872700  -20.845000
  C    -137.755000   24.061800  -19.013100
  H    -137.610000   24.927800  -18.372300
  H    -138.751000   24.133600  -19.496400
  C    -137.712000   22.689700  -18.330900
  H    -137.923000   21.885500  -18.967100
  H    -136.756000   22.572800  -17.937200
  H    -138.459000   22.513500  -17.501700
  S    -131.481000   26.813200  -17.978900
  C    -131.073000   27.091100  -16.261300
  C    -131.611000   26.220600  -15.397200
  C    -132.637000   25.441600  -16.089300
  C    -132.696000   25.608500  -17.473800
  H    -131.246000   26.266500  -14.417900
  C    -133.447000   24.338900  -15.379300
  H    -133.068000   23.369600  -15.661100
  H    -134.373000   24.414800  -15.900100
  C    -133.610000   24.513800  -13.820800
  H    -132.698000   24.854300  -13.318100
  H    -133.822000   23.521800  -13.352900
  C    -134.822000   25.335600  -13.371600
  H    -134.642000   26.250200  -14.005200
  H    -134.930000   25.525100  -12.317700
  H    -135.754000   24.861400  -13.646500
  H    -134.309000   23.391500  -21.811500
  H    -130.387000   27.877100  -15.952900

 Total Charge           Charge          ....    0
 Multiplicity           Mult            ....    1
 Number of Electrons    NEL             ....  134
 Basis Dimension        Dim             ....  322

ORBITAL ENERGIES
----------------

  NO   OCC          E(Eh)            E(eV)
   0   2.0000     -88.971276     -2421.0315
   1   2.0000     -88.963799     -2420.8280
   2   2.0000     -10.334528      -281.2168
   3   2.0000     -10.331608      -281.1374
   4   2.0000     -10.326457      -280.9972
   5   2.0000     -10.318455      -280.7794
   6   2.0000     -10.313346      -280.6404
   7   2.0000     -10.309054      -280.5236
   8   2.0000     -10.295818      -280.1635
   9   2.0000     -10.295431      -280.1529
  10   2.0000     -10.295047      -280.1425
  11   2.0000     -10.294007      -280.1142
  12   2.0000     -10.292280      -280.0672
  13   2.0000     -10.291442      -280.0444
  14   2.0000     -10.277950      -279.6772
  15   2.0000     -10.270530      -279.4753
  16   2.0000      -8.084696      -219.9958
  17   2.0000      -8.077853      -219.8095
  18   2.0000      -6.043307      -164.4467
  19   2.0000      -6.039244      -164.3362
  20   2.0000      -6.036440      -164.2599
  21   2.0000      -6.035546      -164.2356
  22   2.0000      -6.032696      -164.1580
  23   2.0000      -6.028312      -164.0387
  24   2.0000      -1.000769       -27.2323
  25   2.0000      -0.978290       -26.6206
  26   2.0000      -0.908799       -24.7297
  27   2.0000      -0.901958       -24.5435
  28   2.0000      -0.873213       -23.7613
  29   2.0000      -0.847675       -23.0664
  30   2.0000      -0.841681       -22.9033
  31   2.0000      -0.818398       -22.2697
  32   2.0000      -0.781957       -21.2781
  33   2.0000      -0.768513       -20.9123
  34   2.0000      -0.712676       -19.3929
  35   2.0000      -0.698981       -19.0202
  36   2.0000      -0.694763       -18.9055
  37   2.0000      -0.653402       -17.7800
  38   2.0000      -0.638778       -17.3820
  39   2.0000      -0.621314       -16.9068
  40   2.0000      -0.594792       -16.1851
  41   2.0000      -0.574097       -15.6220
  42   2.0000      -0.559158       -15.2155
  43   2.0000      -0.549915       -14.9639
  44   2.0000      -0.541049       -14.7227
  45   2.0000      -0.529181       -14.3997
  46   2.0000      -0.523357       -14.2413
  47   2.0000      -0.508678       -13.8418
  48   2.0000      -0.504624       -13.7315
  49   2.0000      -0.500426       -13.6173
  50   2.0000      -0.483911       -13.1679
  51   2.0000      -0.478388       -13.0176
  52   2.0000      -0.472278       -12.8513
  53   2.0000      -0.463323       -12.6077
  54   2.0000      -0.460198       -12.5226
  55   2.0000      -0.453296       -12.3348
  56   2.0000      -0.448692       -12.2095
  57   2.0000      -0.438643       -11.9361
  58   2.0000      -0.430810       -11.7229
  59   2.0000      -0.425055       -11.5663
  60   2.0000      -0.417945       -11.3729
  61   2.0000      -0.414954       -11.2915
  62   2.0000      -0.401842       -10.9347
  63   2.0000      -0.351232        -9.5575
  64   2.0000      -0.330999        -9.0069
  65   2.0000      -0.328419        -8.9367
  66   2.0000      -0.288018        -7.8374
  67   0.0000       0.023217         0.6318
  68   0.0000       0.062110         1.6901
  69   0.0000       0.108816         2.9610
  70   0.0000       0.122585         3.3357
  71   0.0000       0.128740         3.5032

MULLIKEN ATOMIC CHARGES
-----------------------
   0 S :    0.114780
   1 C :   -0.159614
   2 C :   -0.065373
   3 C :    0.004667
   4 C :   -0.154090
   5 H :    0.018520
   6 C :    0.044170
   7 H :    0.011006
   8 H :    0.054502
   9 C :   -0.077521
  10 H :    0.044014
  11 H :    0.033920
  12 C :   -0.024543
  13 H :    0.014681
  14 H :    0.020094
  15 H :    0.033262
  16 S :    0.086448
  17 C :   -0.093644
  18 C :   -0.004606
  19 C :   -0.081958
  20 C :   -0.138262
  21 H :    0.009048
  22 C :    0.114263
  23 H :    0.045096
  24 H :   -0.002271
  25 C :   -0.093901
  26 H :    0.034654
  27 H :    0.026887
  28 C :   -0.054052
  29 H :    0.037864
  30 H :    0.038530
  31 H :    0.027784
  32 H :    0.079688
  33 H :    0.055959
Sum of atomic charges:   -0.0000000

LOEWDIN ATOMIC CHARGES
----------------------
   0 S :    0.402627
   1 C :   -0.212300
   2 C :   -0.064479
   3 C :   -0.067492
   4 C :   -0.196216
   5 H :    0.026108
   6 C :   -0.025688
   7 H :    0.018703
   8 H :    0.042257
   9 C :   -0.033605
  10 H :    0.023445
  11 H :    0.029493
  12 C :   -0.062757
  13 H :    0.018398
  14 H :    0.015953
  15 H :    0.029252
  16 S :    0.366400
  17 C :   -0.155576
  18 C :   -0.071075
  19 C :   -0.044283
  20 C :   -0.194034
  21 H :    0.029956
  22 C :   -0.027322
  23 H :    0.037116
  24 H :    0.025879
  25 C :   -0.046244
  26 H :    0.021665
  27 H :    0.026025
  28 C :   -0.068164
  29 H :    0.031993
  30 H :    0.024353
  31 H :    0.021820
  32 H :    0.049024
  33 H :    0.028769

  Mayer bond orders larger than 0.100000
B(  0-S ,  1-C ) :   1.1468 B(  0-S ,  4-C ) :   1.1498 B(  1-C ,  2-C ) :   1.5754
B(  1-C ,  4-C ) :   0.1080 B(  1-C , 32-H ) :   0.9607 B(  2-C ,  3-C ) :   1.2705
B(  2-C ,  6-C ) :   1.0105 B(  3-C ,  4-C ) :   1.5445 B(  3-C ,  5-H ) :   0.9807
B(  4-C , 20-C ) :   1.0699 B(  6-C ,  7-H ) :   0.9426 B(  6-C ,  8-H ) :   0.9377
B(  6-C ,  9-C ) :   1.0824 B(  9-C , 10-H ) :   0.9540 B(  9-C , 11-H ) :   0.9557
B(  9-C , 12-C ) :   1.0684 B( 12-C , 13-H ) :   0.9730 B( 12-C , 14-H ) :   0.9788
B( 12-C , 15-H ) :   0.9739 B( 16-S , 17-C ) :   1.1393 B( 16-S , 20-C ) :   1.1064
B( 17-C , 18-C ) :   1.6726 B( 17-C , 33-H ) :   0.9592 B( 18-C , 19-C ) :   1.1784
B( 18-C , 21-H ) :   1.0002 B( 19-C , 20-C ) :   1.6305 B( 19-C , 22-C ) :   1.0192
B( 22-C , 23-H ) :   0.9305 B( 22-C , 24-H ) :   0.9328 B( 22-C , 25-C ) :   1.0566
B( 25-C , 26-H ) :   0.9585 B( 25-C , 27-H ) :   0.9566 B( 25-C , 28-C ) :   1.0734
B( 28-C , 29-H ) :   0.9795 B( 28-C , 30-H ) :   0.9750 B( 28-C , 31-H ) :   0.9748

Dispersion correction           -0.014129395
FINAL SINGLE POINT ENERGY     -1339.850551942369

DIPOLE MOMENT
-------------
                                X             Y             Z
Electronic contribution:     24.25624       8.82127     -15.92290
Nuclear contribution   :    -24.74150      -8.94559      16.27393
                        -----------------------------------------
Total Dipole Moment    :     -0.48526      -0.12433       0.35103
                        -----------------------------------------
Magnitude (a.u.)       :      0.61169
Magnitude (Debye)      :      1.55478

Rotational constants in cm-1:     0.016450     0.009748     0.006657
Rotational constants in MHz :   493.149060   292.241324   199.560587

                             ****ORCA TERMINATED NORMALLY****
TOTAL RUN TIME: 0 days 0 hours 0 minutes 21 seconds 805 msec
