                         Program Version 4.2.1 -  RELEASE  -
|  1> ! wB97X-D3 SP def2-SVP
|  2> %pal
|  3> nprocs 24
|  4> end
|  5>
|  6> * xyz 0 1
|  7> S 	 -98.0946 	 39.7209 	 -84.169
|  8> C 	 -97.3586 	 38.1428 	 -84.2456
|  9> C 	 -97.5984 	 37.5406 	 -85.4596
| 10> C 	 -98.3298 	 38.315 	 -86.3456
| 11> C 	 -98.5934 	 39.5818 	 -85.8592
| 12> H 	 -98.7034 	 38.1093 	 -87.3262
| 13> C 	 -97.1419 	 36.134 	 -85.848
| 14> H 	 -96.3217 	 35.7721 	 -85.1564
| 15> H 	 -96.7451 	 36.222 	 -86.908
| 16> C 	 -98.3146 	 35.0334 	 -85.8139
| 17> H 	 -98.7592 	 35.006 	 -84.8182
| 18> H 	 -99.1455 	 35.5055 	 -86.4016
| 19> C 	 -98.0159 	 33.706 	 -86.3645
| 20> H 	 -98.1979 	 33.7577 	 -87.4858
| 21> H 	 -97.0627 	 33.3275 	 -86.2425
| 22> H 	 -98.8396 	 33.0651 	 -86.0609
| 23> S 	 -100.625 	 41.1895 	 -85.2433
| 24> C 	 -101.52 	 42.1449 	 -86.4542
| 25> C 	 -101.008 	 41.9023 	 -87.697
| 26> C 	 -99.8324 	 41.0557 	 -87.7193
| 27> C 	 -99.5575 	 40.5001 	 -86.4475
| 28> H 	 -101.47 	 42.4639 	 -88.4956
| 29> C 	 -99.039 	 40.6855 	 -88.9692
| 30> H 	 -99.4488 	 39.7088 	 -89.2542
| 31> H 	 -97.9986 	 40.726 	 -88.6403
| 32> C 	 -99.1724 	 41.5885 	 -90.2364
| 33> H 	 -99.1042 	 42.5969 	 -89.9187
| 34> H 	 -100.155 	 41.4646 	 -90.6493
| 35> C 	 -98.3546 	 41.1639 	 -91.4904
| 36> H 	 -98.5494 	 41.7387 	 -92.4035
| 37> H 	 -98.3151 	 40.1131 	 -91.6376
| 38> H 	 -97.3636 	 41.4313 	 -91.2531
| 39> H 	 -96.9042 	 37.6468 	 -83.3957
| 40> H 	 -102.389 	 42.7207 	 -86.2202
| 41> *
| 42>
| 43>                          ****END OF INPUT****

CARTESIAN COORDINATES (ANGSTROEM)
---------------------------------
  S    -98.094600   39.720900  -84.169000
  C    -97.358600   38.142800  -84.245600
  C    -97.598400   37.540600  -85.459600
  C    -98.329800   38.315000  -86.345600
  C    -98.593400   39.581800  -85.859200
  H    -98.703400   38.109300  -87.326200
  C    -97.141900   36.134000  -85.848000
  H    -96.321700   35.772100  -85.156400
  H    -96.745100   36.222000  -86.908000
  C    -98.314600   35.033400  -85.813900
  H    -98.759200   35.006000  -84.818200
  H    -99.145500   35.505500  -86.401600
  C    -98.015900   33.706000  -86.364500
  H    -98.197900   33.757700  -87.485800
  H    -97.062700   33.327500  -86.242500
  H    -98.839600   33.065100  -86.060900
  S    -100.625000   41.189500  -85.243300
  C    -101.520000   42.144900  -86.454200
  C    -101.008000   41.902300  -87.697000
  C    -99.832400   41.055700  -87.719300
  C    -99.557500   40.500100  -86.447500
  H    -101.470000   42.463900  -88.495600
  C    -99.039000   40.685500  -88.969200
  H    -99.448800   39.708800  -89.254200
  H    -97.998600   40.726000  -88.640300
  C    -99.172400   41.588500  -90.236400
  H    -99.104200   42.596900  -89.918700
  H    -100.155000   41.464600  -90.649300
  C    -98.354600   41.163900  -91.490400
  H    -98.549400   41.738700  -92.403500
  H    -98.315100   40.113100  -91.637600
  H    -97.363600   41.431300  -91.253100
  H    -96.904200   37.646800  -83.395700
  H    -102.389000   42.720700  -86.220200

 Total Charge           Charge          ....    0
 Multiplicity           Mult            ....    1
 Number of Electrons    NEL             ....  134
 Basis Dimension        Dim             ....  322

ORBITAL ENERGIES
----------------

  NO   OCC          E(Eh)            E(eV)
   0   2.0000     -88.969154     -2420.9738
   1   2.0000     -88.960026     -2420.7254
   2   2.0000     -10.329852      -281.0896
   3   2.0000     -10.329165      -281.0709
   4   2.0000     -10.314479      -280.6712
   5   2.0000     -10.313790      -280.6525
   6   2.0000     -10.310428      -280.5610
   7   2.0000     -10.303828      -280.3814
   8   2.0000     -10.298932      -280.2482
   9   2.0000     -10.296776      -280.1895
  10   2.0000     -10.294652      -280.1317
  11   2.0000     -10.290118      -280.0083
  12   2.0000     -10.288536      -279.9653
  13   2.0000     -10.284461      -279.8544
  14   2.0000     -10.275718      -279.6165
  15   2.0000     -10.274937      -279.5952
  16   2.0000      -8.083584      -219.9655
  17   2.0000      -8.074533      -219.7192
  18   2.0000      -6.042070      -164.4131
  19   2.0000      -6.038204      -164.3079
  20   2.0000      -6.034300      -164.2017
  21   2.0000      -6.033079      -164.1684
  22   2.0000      -6.029028      -164.0582
  23   2.0000      -6.025294      -163.9566
  24   2.0000      -1.008655       -27.4469
  25   2.0000      -0.981180       -26.6993
  26   2.0000      -0.907235       -24.6871
  27   2.0000      -0.903858       -24.5952
  28   2.0000      -0.874285       -23.7905
  29   2.0000      -0.858303       -23.3556
  30   2.0000      -0.845762       -23.0143
  31   2.0000      -0.818986       -22.2857
  32   2.0000      -0.778963       -21.1967
  33   2.0000      -0.769720       -20.9452
  34   2.0000      -0.710222       -19.3261
  35   2.0000      -0.701180       -19.0801
  36   2.0000      -0.694623       -18.9016
  37   2.0000      -0.656006       -17.8508
  38   2.0000      -0.641480       -17.4556
  39   2.0000      -0.620187       -16.8761
  40   2.0000      -0.590760       -16.0754
  41   2.0000      -0.577861       -15.7244
  42   2.0000      -0.563841       -15.3429
  43   2.0000      -0.554370       -15.0852
  44   2.0000      -0.535477       -14.5711
  45   2.0000      -0.526837       -14.3360
  46   2.0000      -0.518410       -14.1067
  47   2.0000      -0.513361       -13.9693
  48   2.0000      -0.507486       -13.8094
  49   2.0000      -0.501020       -13.6334
  50   2.0000      -0.497661       -13.5420
  51   2.0000      -0.479667       -13.0524
  52   2.0000      -0.478746       -13.0273
  53   2.0000      -0.469635       -12.7794
  54   2.0000      -0.463229       -12.6051
  55   2.0000      -0.452727       -12.3193
  56   2.0000      -0.447584       -12.1794
  57   2.0000      -0.431709       -11.7474
  58   2.0000      -0.428054       -11.6479
  59   2.0000      -0.424741       -11.5578
  60   2.0000      -0.414803       -11.2874
  61   2.0000      -0.406590       -11.0639
  62   2.0000      -0.404648       -11.0110
  63   2.0000      -0.355662        -9.6780
  64   2.0000      -0.334082        -9.0908
  65   2.0000      -0.325896        -8.8681
  66   2.0000      -0.284602        -7.7444
  67   0.0000       0.022703         0.6178
  68   0.0000       0.075009         2.0411
  69   0.0000       0.104063         2.8317
  70   0.0000       0.124902         3.3988
  71   0.0000       0.138758         3.7758

MULLIKEN ATOMIC CHARGES
-----------------------
   0 S :    0.107503
   1 C :   -0.124155
   2 C :   -0.041729
   3 C :    0.012771
   4 C :   -0.128582
   5 H :    0.006008
   6 C :    0.022022
   7 H :    0.032774
   8 H :    0.040309
   9 C :   -0.110104
  10 H :    0.027387
  11 H :    0.024724
  12 C :    0.006795
  13 H :    0.025950
  14 H :    0.026714
  15 H :    0.034715
  16 S :    0.071663
  17 C :   -0.087694
  18 C :   -0.033143
  19 C :   -0.061859
  20 C :   -0.142337
  21 H :    0.022431
  22 C :    0.048095
  23 H :    0.047938
  24 H :    0.046838
  25 C :   -0.093105
  26 H :    0.027332
  27 H :    0.020799
  28 C :   -0.007073
  29 H :    0.041153
  30 H :    0.025197
  31 H :    0.008027
  32 H :    0.050112
  33 H :    0.052524
Sum of atomic charges:    0.0000000

LOEWDIN ATOMIC CHARGES
----------------------
   0 S :    0.403868
   1 C :   -0.196511
   2 C :   -0.070120
   3 C :   -0.054689
   4 C :   -0.189790
   5 H :    0.030704
   6 C :   -0.034393
   7 H :    0.030612
   8 H :    0.035247
   9 C :   -0.049656
  10 H :    0.021773
  11 H :    0.027465
  12 C :   -0.065580
  13 H :    0.035023
  14 H :    0.014674
  15 H :    0.034807
  16 S :    0.384205
  17 C :   -0.173385
  18 C :   -0.074468
  19 C :   -0.062818
  20 C :   -0.188563
  21 H :    0.033089
  22 C :   -0.032719
  23 H :    0.034953
  24 H :    0.036333
  25 C :   -0.040301
  26 H :    0.018342
  27 H :    0.019520
  28 C :   -0.058340
  29 H :    0.032937
  30 H :    0.023164
  31 H :    0.017834
  32 H :    0.030567
  33 H :    0.026217

  Mayer bond orders larger than 0.100000
B(  0-S ,  1-C ) :   1.1373 B(  0-S ,  4-C ) :   1.1508 B(  1-C ,  2-C ) :   1.5943
B(  1-C , 32-H ) :   0.9685 B(  2-C ,  3-C ) :   1.2547 B(  2-C ,  6-C ) :   1.0216
B(  3-C ,  4-C ) :   1.5477 B(  3-C ,  5-H ) :   0.9988 B(  4-C , 20-C ) :   1.0657
B(  6-C ,  7-H ) :   0.9441 B(  6-C ,  8-H ) :   0.9457 B(  6-C ,  9-C ) :   1.0482
B(  9-C , 10-H ) :   0.9583 B(  9-C , 11-H ) :   0.9576 B(  9-C , 12-C ) :   1.0834
B( 12-C , 13-H ) :   0.9709 B( 12-C , 14-H ) :   0.9769 B( 12-C , 15-H ) :   0.9665
B( 16-S , 17-C ) :   1.1358 B( 16-S , 20-C ) :   1.1417 B( 17-C , 18-C ) :   1.6277
B( 17-C , 33-H ) :   0.9697 B( 18-C , 19-C ) :   1.2209 B( 18-C , 21-H ) :   0.9896
B( 19-C , 20-C ) :   1.5865 B( 19-C , 22-C ) :   1.0294 B( 22-C , 23-H ) :   0.9300
B( 22-C , 24-H ) :   0.9387 B( 22-C , 25-C ) :   1.0846 B( 25-C , 26-H ) :   0.9621
B( 25-C , 27-H ) :   0.9502 B( 25-C , 28-C ) :   1.0706 B( 28-C , 29-H ) :   0.9748
B( 28-C , 30-H ) :   0.9727 B( 28-C , 31-H ) :   0.9735

Dispersion correction           -0.013241428
FINAL SINGLE POINT ENERGY     -1339.861034342942

DIPOLE MOMENT
-------------
                                X             Y             Z
Electronic contribution:     -5.56374      16.41943      22.85086
Nuclear contribution   :      5.50622     -16.80880     -23.41028
                        -----------------------------------------
Total Dipole Moment    :     -0.05752      -0.38937      -0.55942
                        -----------------------------------------
Magnitude (a.u.)       :      0.68401
Magnitude (Debye)      :      1.73862

Rotational constants in cm-1:     0.016310     0.008075     0.006147
Rotational constants in MHz :   488.966588   242.078118   184.278188

                             ****ORCA TERMINATED NORMALLY****
TOTAL RUN TIME: 0 days 0 hours 0 minutes 19 seconds 548 msec
