                         Program Version 4.2.1 -  RELEASE  -
|  1> ! wB97X-D3 SP def2-SVP
|  2> %pal
|  3> nprocs 24
|  4> end
|  5>
|  6> * xyz 0 1
|  7> S 	 -104.885 	 0.849825 	 -114.225
|  8> C 	 -105.57 	 2.19939 	 -115.098
|  9> C 	 -106.521 	 1.78345 	 -116.016
| 10> C 	 -106.969 	 0.498943 	 -115.766
| 11> C 	 -106.286 	 -0.111594 	 -114.775
| 12> H 	 -107.816 	 -0.0506073 	 -116.157
| 13> C 	 -107.205 	 2.67883 	 -117.041
| 14> H 	 -107.739 	 2.09307 	 -117.757
| 15> H 	 -106.42 	 3.19822 	 -117.623
| 16> C 	 -108.339 	 3.63482 	 -116.618
| 17> H 	 -107.903 	 4.42659 	 -116.071
| 18> H 	 -108.789 	 3.94856 	 -117.634
| 19> C 	 -109.457 	 3.11319 	 -115.709
| 20> H 	 -110.044 	 2.36398 	 -116.284
| 21> H 	 -109.115 	 2.53075 	 -114.863
| 22> H 	 -110.164 	 3.82569 	 -115.263
| 23> S 	 -105.428 	 -2.71165 	 -114.511
| 24> C 	 -106.417 	 -3.87954 	 -113.827
| 25> C 	 -107.668 	 -3.44541 	 -113.461
| 26> C 	 -107.837 	 -2.04619 	 -113.753
| 27> C 	 -106.679 	 -1.44984 	 -114.292
| 28> H 	 -108.169 	 -4.17013 	 -112.878
| 29> C 	 -109.029 	 -1.25583 	 -113.179
| 30> H 	 -108.837 	 -0.230663 	 -113.059
| 31> H 	 -109.22 	 -1.53864 	 -112.117
| 32> C 	 -110.412 	 -1.53354 	 -113.921
| 33> H 	 -110.299 	 -1.40312 	 -115.003
| 34> H 	 -111.197 	 -0.859851 	 -113.585
| 35> C 	 -110.953 	 -2.9464 	 -113.756
| 36> H 	 -110.251 	 -3.74269 	 -114.02
| 37> H 	 -111.918 	 -2.93795 	 -114.242
| 38> H 	 -111.185 	 -3.00416 	 -112.679
| 39> H 	 -105.32 	 3.28096 	 -115.085
| 40> H 	 -106.123 	 -4.90064 	 -113.776
| 41> *
| 42>
| 43>                          ****END OF INPUT****

CARTESIAN COORDINATES (ANGSTROEM)
---------------------------------
  S    -104.885000    0.849825  -114.225000
  C    -105.570000    2.199390  -115.098000
  C    -106.521000    1.783450  -116.016000
  C    -106.969000    0.498943  -115.766000
  C    -106.286000   -0.111594  -114.775000
  H    -107.816000   -0.050607  -116.157000
  C    -107.205000    2.678830  -117.041000
  H    -107.739000    2.093070  -117.757000
  H    -106.420000    3.198220  -117.623000
  C    -108.339000    3.634820  -116.618000
  H    -107.903000    4.426590  -116.071000
  H    -108.789000    3.948560  -117.634000
  C    -109.457000    3.113190  -115.709000
  H    -110.044000    2.363980  -116.284000
  H    -109.115000    2.530750  -114.863000
  H    -110.164000    3.825690  -115.263000
  S    -105.428000   -2.711650  -114.511000
  C    -106.417000   -3.879540  -113.827000
  C    -107.668000   -3.445410  -113.461000
  C    -107.837000   -2.046190  -113.753000
  C    -106.679000   -1.449840  -114.292000
  H    -108.169000   -4.170130  -112.878000
  C    -109.029000   -1.255830  -113.179000
  H    -108.837000   -0.230663  -113.059000
  H    -109.220000   -1.538640  -112.117000
  C    -110.412000   -1.533540  -113.921000
  H    -110.299000   -1.403120  -115.003000
  H    -111.197000   -0.859851  -113.585000
  C    -110.953000   -2.946400  -113.756000
  H    -110.251000   -3.742690  -114.020000
  H    -111.918000   -2.937950  -114.242000
  H    -111.185000   -3.004160  -112.679000
  H    -105.320000    3.280960  -115.085000
  H    -106.123000   -4.900640  -113.776000

 Total Charge           Charge          ....    0
 Multiplicity           Mult            ....    1
 Number of Electrons    NEL             ....  134
 Basis Dimension        Dim             ....  322

ORBITAL ENERGIES
----------------

  NO   OCC          E(Eh)            E(eV)
   0   2.0000     -88.972516     -2421.0652
   1   2.0000     -88.961332     -2420.7609
   2   2.0000     -10.331950      -281.1467
   3   2.0000     -10.327177      -281.0168
   4   2.0000     -10.317438      -280.7518
   5   2.0000     -10.313788      -280.6524
   6   2.0000     -10.307749      -280.4881
   7   2.0000     -10.297033      -280.1965
   8   2.0000     -10.293131      -280.0903
   9   2.0000     -10.292595      -280.0757
  10   2.0000     -10.291600      -280.0487
  11   2.0000     -10.289751      -279.9984
  12   2.0000     -10.286588      -279.9123
  13   2.0000     -10.286153      -279.9005
  14   2.0000     -10.279307      -279.7142
  15   2.0000     -10.274223      -279.5758
  16   2.0000      -8.086465      -220.0439
  17   2.0000      -8.077396      -219.7971
  18   2.0000      -6.045069      -164.4947
  19   2.0000      -6.041366      -164.3939
  20   2.0000      -6.036877      -164.2718
  21   2.0000      -6.035657      -164.2386
  22   2.0000      -6.031616      -164.1286
  23   2.0000      -6.028446      -164.0424
  24   2.0000      -1.008554       -27.4441
  25   2.0000      -0.988796       -26.9065
  26   2.0000      -0.909470       -24.7479
  27   2.0000      -0.902503       -24.5583
  28   2.0000      -0.869874       -23.6705
  29   2.0000      -0.853119       -23.2145
  30   2.0000      -0.848386       -23.0858
  31   2.0000      -0.816358       -22.2142
  32   2.0000      -0.786934       -21.4136
  33   2.0000      -0.773259       -21.0415
  34   2.0000      -0.704771       -19.1778
  35   2.0000      -0.698431       -19.0053
  36   2.0000      -0.686655       -18.6848
  37   2.0000      -0.658970       -17.9315
  38   2.0000      -0.638634       -17.3781
  39   2.0000      -0.617111       -16.7924
  40   2.0000      -0.598098       -16.2751
  41   2.0000      -0.581546       -15.8247
  42   2.0000      -0.555376       -15.1126
  43   2.0000      -0.547972       -14.9111
  44   2.0000      -0.544237       -14.8094
  45   2.0000      -0.534592       -14.5470
  46   2.0000      -0.510094       -13.8804
  47   2.0000      -0.508592       -13.8395
  48   2.0000      -0.499228       -13.5847
  49   2.0000      -0.497586       -13.5400
  50   2.0000      -0.486603       -13.2411
  51   2.0000      -0.482664       -13.1340
  52   2.0000      -0.472334       -12.8529
  53   2.0000      -0.468533       -12.7494
  54   2.0000      -0.460185       -12.5223
  55   2.0000      -0.452111       -12.3026
  56   2.0000      -0.442244       -12.0341
  57   2.0000      -0.438706       -11.9378
  58   2.0000      -0.429545       -11.6885
  59   2.0000      -0.422151       -11.4873
  60   2.0000      -0.419116       -11.4047
  61   2.0000      -0.413208       -11.2440
  62   2.0000      -0.407167       -11.0796
  63   2.0000      -0.345921        -9.4130
  64   2.0000      -0.334401        -9.0995
  65   2.0000      -0.330818        -9.0020
  66   2.0000      -0.290642        -7.9088
  67   0.0000       0.032195         0.8761
  68   0.0000       0.058052         1.5797
  69   0.0000       0.108828         2.9614
  70   0.0000       0.113567         3.0903
  71   0.0000       0.128840         3.5059

MULLIKEN ATOMIC CHARGES
-----------------------
   0 S :    0.129476
   1 C :   -0.124354
   2 C :   -0.072882
   3 C :    0.030684
   4 C :   -0.143820
   5 H :    0.016067
   6 C :    0.061798
   7 H :    0.008180
   8 H :    0.038988
   9 C :   -0.059223
  10 H :    0.019247
  11 H :    0.045856
  12 C :   -0.071478
  13 H :    0.019214
  14 H :    0.034674
  15 H :    0.043700
  16 S :    0.099970
  17 C :   -0.086698
  18 C :   -0.041186
  19 C :    0.010509
  20 C :   -0.191384
  21 H :    0.017294
  22 C :    0.054106
  23 H :    0.016975
  24 H :    0.028898
  25 C :   -0.093610
  26 H :    0.026846
  27 H :    0.029678
  28 C :   -0.051390
  29 H :    0.050602
  30 H :    0.034748
  31 H :    0.015848
  32 H :    0.055814
  33 H :    0.046853
Sum of atomic charges:   -0.0000000

LOEWDIN ATOMIC CHARGES
----------------------
   0 S :    0.393560
   1 C :   -0.197726
   2 C :   -0.070082
   3 C :   -0.054472
   4 C :   -0.189004
   5 H :    0.037982
   6 C :   -0.034975
   7 H :    0.025657
   8 H :    0.037007
   9 C :   -0.036949
  10 H :    0.013000
  11 H :    0.036810
  12 C :   -0.075714
  13 H :    0.023802
  14 H :    0.024783
  15 H :    0.031229
  16 S :    0.415641
  17 C :   -0.195949
  18 C :   -0.081330
  19 C :   -0.050690
  20 C :   -0.181181
  21 H :    0.030665
  22 C :   -0.028798
  23 H :    0.021496
  24 H :    0.034652
  25 C :   -0.040147
  26 H :    0.018424
  27 H :    0.023393
  28 C :   -0.067861
  29 H :    0.025780
  30 H :    0.027717
  31 H :    0.022737
  32 H :    0.038197
  33 H :    0.022346

  Mayer bond orders larger than 0.100000
B(  0-S ,  1-C ) :   1.1344 B(  0-S ,  4-C ) :   1.1215 B(  1-C ,  2-C ) :   1.6171
B(  1-C , 32-H ) :   0.9645 B(  2-C ,  3-C ) :   1.2101 B(  2-C ,  6-C ) :   1.0283
B(  3-C ,  4-C ) :   1.6037 B(  3-C ,  5-H ) :   1.0031 B(  4-C , 20-C ) :   1.0295
B(  6-C ,  7-H ) :   0.9434 B(  6-C ,  8-H ) :   0.9377 B(  6-C ,  9-C ) :   1.0621
B(  9-C , 10-H ) :   0.9577 B(  9-C , 11-H ) :   0.9588 B(  9-C , 12-C ) :   1.0738
B( 12-C , 13-H ) :   0.9747 B( 12-C , 14-H ) :   0.9706 B( 12-C , 15-H ) :   0.9752
B( 16-S , 17-C ) :   1.1839 B( 16-S , 20-C ) :   1.1435 B( 17-C , 18-C ) :   1.6216
B( 17-C , 33-H ) :   0.9639 B( 18-C , 19-C ) :   1.2058 B( 18-C , 21-H ) :   0.9921
B( 19-C , 20-C ) :   1.6112 B( 19-C , 22-C ) :   1.0297 B( 22-C , 23-H ) :   0.9468
B( 22-C , 24-H ) :   0.9480 B( 22-C , 25-C ) :   1.0530 B( 25-C , 26-H ) :   0.9584
B( 25-C , 27-H ) :   0.9581 B( 25-C , 28-C ) :   1.0829 B( 28-C , 29-H ) :   0.9688
B( 28-C , 30-H ) :   0.9709 B( 28-C , 31-H ) :   0.9746

Dispersion correction           -0.014982973
FINAL SINGLE POINT ENERGY     -1339.853162934277

DIPOLE MOMENT
-------------
                                X             Y             Z
Electronic contribution:     28.37165      -8.57933       3.31767
Nuclear contribution   :    -28.93328       8.75577      -3.35314
                        -----------------------------------------
Total Dipole Moment    :     -0.56162       0.17644      -0.03548
                        -----------------------------------------
Magnitude (a.u.)       :      0.58975
Magnitude (Debye)      :      1.49904

Rotational constants in cm-1:     0.017540     0.009811     0.006845
Rotational constants in MHz :   525.836590   294.136086   205.215321

                             ****ORCA TERMINATED NORMALLY****
TOTAL RUN TIME: 0 days 0 hours 0 minutes 22 seconds 160 msec
