                         Program Version 4.2.1 -  RELEASE  -
|  1> ! wB97X-D3 SP def2-SVP
|  2> %pal
|  3> nprocs 24
|  4> end
|  5>
|  6> * xyz 0 1
|  7> S 	 -124.289 	 19.6537 	 -22.4811
|  8> C 	 -123.604 	 20.6279 	 -21.1402
|  9> C 	 -123.372 	 21.9258 	 -21.5716
| 10> C 	 -123.699 	 22.1793 	 -22.9711
| 11> C 	 -124.061 	 21.0266 	 -23.6297
| 12> H 	 -123.542 	 23.101 	 -23.5363
| 13> C 	 -122.805 	 23.0209 	 -20.6638
| 14> H 	 -123.061 	 22.7376 	 -19.6312
| 15> H 	 -123.489 	 23.8491 	 -20.9655
| 16> C 	 -121.285 	 23.2507 	 -20.8206
| 17> H 	 -120.837 	 22.2778 	 -20.9384
| 18> H 	 -120.986 	 23.7698 	 -21.7081
| 19> C 	 -120.681 	 23.9911 	 -19.6455
| 20> H 	 -120.58 	 25.021 	 -19.9841
| 21> H 	 -121.338 	 23.9793 	 -18.8228
| 22> H 	 -119.772 	 23.651 	 -19.2774
| 23> S 	 -126.237 	 20.4474 	 -25.1842
| 24> C 	 -126.108 	 20.5743 	 -26.9351
| 25> C 	 -124.913 	 21.0925 	 -27.2774
| 26> C 	 -123.961 	 21.2433 	 -26.2018
| 27> C 	 -124.556 	 20.9668 	 -25.0042
| 28> H 	 -124.813 	 21.3733 	 -28.3782
| 29> C 	 -122.552 	 21.5147 	 -26.3414
| 30> H 	 -121.997 	 21.3861 	 -25.3669
| 31> H 	 -122.468 	 22.5704 	 -26.5398
| 32> C 	 -121.8 	 20.9121 	 -27.502
| 33> H 	 -120.703 	 21.1275 	 -27.5191
| 34> H 	 -122.217 	 21.2185 	 -28.4841
| 35> C 	 -121.876 	 19.4134 	 -27.4369
| 36> H 	 -121.14 	 18.9923 	 -28.0473
| 37> H 	 -122.853 	 18.9455 	 -27.7655
| 38> H 	 -121.668 	 18.868 	 -26.528
| 39> H 	 -123.476 	 20.25 	 -20.144
| 40> H 	 -126.945 	 20.1868 	 -27.5905
| 41> *
| 42>
| 43>                          ****END OF INPUT****

CARTESIAN COORDINATES (ANGSTROEM)
---------------------------------
  S    -124.289000   19.653700  -22.481100
  C    -123.604000   20.627900  -21.140200
  C    -123.372000   21.925800  -21.571600
  C    -123.699000   22.179300  -22.971100
  C    -124.061000   21.026600  -23.629700
  H    -123.542000   23.101000  -23.536300
  C    -122.805000   23.020900  -20.663800
  H    -123.061000   22.737600  -19.631200
  H    -123.489000   23.849100  -20.965500
  C    -121.285000   23.250700  -20.820600
  H    -120.837000   22.277800  -20.938400
  H    -120.986000   23.769800  -21.708100
  C    -120.681000   23.991100  -19.645500
  H    -120.580000   25.021000  -19.984100
  H    -121.338000   23.979300  -18.822800
  H    -119.772000   23.651000  -19.277400
  S    -126.237000   20.447400  -25.184200
  C    -126.108000   20.574300  -26.935100
  C    -124.913000   21.092500  -27.277400
  C    -123.961000   21.243300  -26.201800
  C    -124.556000   20.966800  -25.004200
  H    -124.813000   21.373300  -28.378200
  C    -122.552000   21.514700  -26.341400
  H    -121.997000   21.386100  -25.366900
  H    -122.468000   22.570400  -26.539800
  C    -121.800000   20.912100  -27.502000
  H    -120.703000   21.127500  -27.519100
  H    -122.217000   21.218500  -28.484100
  C    -121.876000   19.413400  -27.436900
  H    -121.140000   18.992300  -28.047300
  H    -122.853000   18.945500  -27.765500
  H    -121.668000   18.868000  -26.528000
  H    -123.476000   20.250000  -20.144000
  H    -126.945000   20.186800  -27.590500

 Total Charge           Charge          ....    0
 Multiplicity           Mult            ....    1
 Number of Electrons    NEL             ....  134
 Basis Dimension        Dim             ....  322

ORBITAL ENERGIES
----------------

  NO   OCC          E(Eh)            E(eV)
   0   2.0000     -88.963898     -2420.8307
   1   2.0000     -88.957353     -2420.6526
   2   2.0000     -10.332851      -281.1712
   3   2.0000     -10.322432      -280.8877
   4   2.0000     -10.319126      -280.7977
   5   2.0000     -10.317538      -280.7545
   6   2.0000     -10.305065      -280.4151
   7   2.0000     -10.301349      -280.3140
   8   2.0000     -10.299672      -280.2683
   9   2.0000     -10.298230      -280.2291
  10   2.0000     -10.296895      -280.1928
  11   2.0000     -10.289578      -279.9937
  12   2.0000     -10.285758      -279.8897
  13   2.0000     -10.282344      -279.7968
  14   2.0000     -10.265956      -279.3509
  15   2.0000     -10.263512      -279.2844
  16   2.0000      -8.077199      -219.7918
  17   2.0000      -8.072338      -219.6595
  18   2.0000      -6.035910      -164.2455
  19   2.0000      -6.031987      -164.1387
  20   2.0000      -6.030880      -164.1086
  21   2.0000      -6.027739      -164.0231
  22   2.0000      -6.026955      -164.0018
  23   2.0000      -6.022884      -163.8910
  24   2.0000      -1.003847       -27.3161
  25   2.0000      -0.976787       -26.5797
  26   2.0000      -0.918415       -24.9913
  27   2.0000      -0.909948       -24.7610
  28   2.0000      -0.870913       -23.6987
  29   2.0000      -0.851196       -23.1622
  30   2.0000      -0.843029       -22.9400
  31   2.0000      -0.817018       -22.2322
  32   2.0000      -0.782890       -21.3035
  33   2.0000      -0.769766       -20.9464
  34   2.0000      -0.709005       -19.2930
  35   2.0000      -0.702695       -19.1213
  36   2.0000      -0.694896       -18.9091
  37   2.0000      -0.651189       -17.7197
  38   2.0000      -0.641584       -17.4584
  39   2.0000      -0.615647       -16.7526
  40   2.0000      -0.598682       -16.2910
  41   2.0000      -0.567639       -15.4462
  42   2.0000      -0.558900       -15.2085
  43   2.0000      -0.555529       -15.1167
  44   2.0000      -0.542803       -14.7704
  45   2.0000      -0.525261       -14.2931
  46   2.0000      -0.520931       -14.1752
  47   2.0000      -0.518843       -14.1184
  48   2.0000      -0.503631       -13.7045
  49   2.0000      -0.498902       -13.5758
  50   2.0000      -0.486403       -13.2357
  51   2.0000      -0.477458       -12.9923
  52   2.0000      -0.470692       -12.8082
  53   2.0000      -0.463409       -12.6100
  54   2.0000      -0.459089       -12.4924
  55   2.0000      -0.442951       -12.0533
  56   2.0000      -0.440092       -11.9755
  57   2.0000      -0.433860       -11.8059
  58   2.0000      -0.428094       -11.6490
  59   2.0000      -0.425542       -11.5796
  60   2.0000      -0.422483       -11.4963
  61   2.0000      -0.412536       -11.2257
  62   2.0000      -0.405744       -11.0409
  63   2.0000      -0.343799        -9.3552
  64   2.0000      -0.326200        -8.8764
  65   2.0000      -0.323782        -8.8106
  66   2.0000      -0.298542        -8.1237
  67   0.0000       0.031998         0.8707
  68   0.0000       0.070416         1.9161
  69   0.0000       0.108698         2.9578
  70   0.0000       0.125886         3.4255
  71   0.0000       0.130763         3.5582

MULLIKEN ATOMIC CHARGES
-----------------------
   0 S :    0.089442
   1 C :   -0.114042
   2 C :   -0.114134
   3 C :    0.048706
   4 C :   -0.162501
   5 H :    0.029002
   6 C :    0.045924
   7 H :    0.021900
   8 H :    0.041134
   9 C :   -0.048384
  10 H :    0.024300
  11 H :    0.021573
  12 C :    0.002977
  13 H :    0.028882
  14 H :    0.009993
  15 H :    0.018497
  16 S :    0.087634
  17 C :   -0.127106
  18 C :   -0.055002
  19 C :   -0.005092
  20 C :   -0.172981
  21 H :    0.045800
  22 C :    0.077488
  23 H :    0.043148
  24 H :    0.022460
  25 C :   -0.072232
  26 H :    0.037681
  27 H :    0.031455
  28 C :   -0.052787
  29 H :    0.006280
  30 H :    0.036370
  31 H :    0.020821
  32 H :    0.047750
  33 H :    0.085042
Sum of atomic charges:    0.0000000

LOEWDIN ATOMIC CHARGES
----------------------
   0 S :    0.359510
   1 C :   -0.182762
   2 C :   -0.061031
   3 C :   -0.058106
   4 C :   -0.175217
   5 H :    0.037885
   6 C :   -0.032626
   7 H :    0.029147
   8 H :    0.036968
   9 C :   -0.038828
  10 H :    0.024197
  11 H :    0.022345
  12 C :   -0.055088
  13 H :    0.030346
  14 H :    0.017842
  15 H :    0.018049
  16 S :    0.377952
  17 C :   -0.185547
  18 C :   -0.083383
  19 C :   -0.057785
  20 C :   -0.188021
  21 H :    0.044606
  22 C :   -0.043052
  23 H :    0.042543
  24 H :    0.033625
  25 C :   -0.041419
  26 H :    0.034730
  27 H :    0.028038
  28 C :   -0.077661
  29 H :    0.015432
  30 H :    0.031060
  31 H :    0.024949
  32 H :    0.026684
  33 H :    0.044615

  Mayer bond orders larger than 0.100000
B(  0-S ,  1-C ) :   1.1092 B(  0-S ,  4-C ) :   1.1309 B(  1-C ,  2-C ) :   1.6396
B(  1-C , 32-H ) :   0.9735 B(  2-C ,  3-C ) :   1.2009 B(  2-C ,  6-C ) :   1.0191
B(  3-C ,  4-C ) :   1.6065 B(  3-C ,  5-H ) :   0.9870 B(  4-C , 20-C ) :   1.0309
B(  6-C ,  7-H ) :   0.9446 B(  6-C ,  8-H ) :   0.9390 B(  6-C ,  9-C ) :   1.0538
B(  9-C , 10-H ) :   0.9589 B(  9-C , 11-H ) :   0.9605 B(  9-C , 12-C ) :   1.0768
B( 12-C , 13-H ) :   0.9783 B( 12-C , 14-H ) :   0.9774 B( 12-C , 15-H ) :   0.9749
B( 16-S , 17-C ) :   1.1330 B( 16-S , 20-C ) :   1.1283 B( 17-C , 18-C ) :   1.6584
B( 17-C , 33-H ) :   0.9597 B( 18-C , 19-C ) :   1.1763 B( 18-C , 21-H ) :   0.9764
B( 19-C , 20-C ) :   1.6385 B( 19-C , 22-C ) :   1.0671 B( 22-C , 23-H ) :   0.9301
B( 22-C , 24-H ) :   0.9073 B( 22-C , 25-C ) :   1.0858 B( 25-C , 26-H ) :   0.9549
B( 25-C , 27-H ) :   0.9439 B( 25-C , 28-C ) :   1.0817 B( 28-C , 29-H ) :   0.9721
B( 28-C , 30-H ) :   0.9691 B( 28-C , 31-H ) :   0.9733

Dispersion correction           -0.014224079
FINAL SINGLE POINT ENERGY     -1339.865185825568

DIPOLE MOMENT
-------------
                                X             Y             Z
Electronic contribution:    -22.55202     -10.77477      -0.98458
Nuclear contribution   :     23.06993      11.22109       0.86310
                        -----------------------------------------
Total Dipole Moment    :      0.51791       0.44633      -0.12148
                        -----------------------------------------
Magnitude (a.u.)       :      0.69441
Magnitude (Debye)      :      1.76504

Rotational constants in cm-1:     0.020776     0.007752     0.006520
Rotational constants in MHz :   622.857014   232.408666   195.474720

                             ****ORCA TERMINATED NORMALLY****
TOTAL RUN TIME: 0 days 0 hours 0 minutes 20 seconds 349 msec
