                         Program Version 4.2.1 -  RELEASE  -
|  1> ! wB97X-D3 SP def2-SVP
|  2> %pal
|  3> nprocs 24
|  4> end
|  5>
|  6> * xyz 0 1
|  7> S 	 21.2242 	 -6.68118 	 -113.725
|  8> C 	 21.9336 	 -7.87202 	 -112.617
|  9> C 	 23.2576 	 -7.6436 	 -112.445
| 10> C 	 23.6526 	 -6.33563 	 -112.894
| 11> C 	 22.6131 	 -5.63409 	 -113.409
| 12> H 	 24.6176 	 -5.87478 	 -112.88
| 13> C 	 24.2431 	 -8.58585 	 -111.856
| 14> H 	 24.9782 	 -9.01813 	 -112.573
| 15> H 	 23.8158 	 -9.53752 	 -111.466
| 16> C 	 25.1045 	 -7.95796 	 -110.732
| 17> H 	 25.7308 	 -7.11726 	 -111.081
| 18> H 	 24.5229 	 -7.55307 	 -109.826
| 19> C 	 26.0975 	 -9.04678 	 -110.347
| 20> H 	 26.9738 	 -8.66766 	 -109.788
| 21> H 	 25.8539 	 -9.93788 	 -109.695
| 22> H 	 26.5427 	 -9.37662 	 -111.241
| 23> S 	 22.4162 	 -3.99142 	 -115.66
| 24> C 	 22.946 	 -2.31637 	 -115.512
| 25> C 	 23.2948 	 -2.0071 	 -114.259
| 26> C 	 23.0933 	 -3.06491 	 -113.298
| 27> C 	 22.7723 	 -4.29448 	 -113.939
| 28> H 	 23.5015 	 -0.975345 	 -114.072
| 29> C 	 23.4241 	 -2.9057 	 -111.812
| 30> H 	 24.2369 	 -2.25185 	 -111.788
| 31> H 	 23.768 	 -3.8585 	 -111.528
| 32> C 	 22.1984 	 -2.49537 	 -110.948
| 33> H 	 21.3901 	 -3.15841 	 -110.916
| 34> H 	 21.7463 	 -1.64737 	 -111.539
| 35> C 	 22.6824 	 -1.98632 	 -109.589
| 36> H 	 23.1841 	 -0.964228 	 -109.573
| 37> H 	 23.2947 	 -2.64211 	 -109.001
| 38> H 	 21.8094 	 -1.84154 	 -108.947
| 39> H 	 21.4235 	 -8.80539 	 -112.342
| 40> H 	 22.8937 	 -1.46825 	 -116.189
| 41> *
| 42>
| 43>                          ****END OF INPUT****

CARTESIAN COORDINATES (ANGSTROEM)
---------------------------------
  S     21.224200   -6.681180  -113.725000
  C     21.933600   -7.872020  -112.617000
  C     23.257600   -7.643600  -112.445000
  C     23.652600   -6.335630  -112.894000
  C     22.613100   -5.634090  -113.409000
  H     24.617600   -5.874780  -112.880000
  C     24.243100   -8.585850  -111.856000
  H     24.978200   -9.018130  -112.573000
  H     23.815800   -9.537520  -111.466000
  C     25.104500   -7.957960  -110.732000
  H     25.730800   -7.117260  -111.081000
  H     24.522900   -7.553070  -109.826000
  C     26.097500   -9.046780  -110.347000
  H     26.973800   -8.667660  -109.788000
  H     25.853900   -9.937880  -109.695000
  H     26.542700   -9.376620  -111.241000
  S     22.416200   -3.991420  -115.660000
  C     22.946000   -2.316370  -115.512000
  C     23.294800   -2.007100  -114.259000
  C     23.093300   -3.064910  -113.298000
  C     22.772300   -4.294480  -113.939000
  H     23.501500   -0.975345  -114.072000
  C     23.424100   -2.905700  -111.812000
  H     24.236900   -2.251850  -111.788000
  H     23.768000   -3.858500  -111.528000
  C     22.198400   -2.495370  -110.948000
  H     21.390100   -3.158410  -110.916000
  H     21.746300   -1.647370  -111.539000
  C     22.682400   -1.986320  -109.589000
  H     23.184100   -0.964228  -109.573000
  H     23.294700   -2.642110  -109.001000
  H     21.809400   -1.841540  -108.947000
  H     21.423500   -8.805390  -112.342000
  H     22.893700   -1.468250  -116.189000

 Total Charge           Charge          ....    0
 Multiplicity           Mult            ....    1
 Number of Electrons    NEL             ....  134
 Basis Dimension        Dim             ....  322

ORBITAL ENERGIES
----------------

  NO   OCC          E(Eh)            E(eV)
   0   2.0000     -88.964522     -2420.8477
   1   2.0000     -88.963985     -2420.8331
   2   2.0000     -10.329085      -281.0687
   3   2.0000     -10.327413      -281.0232
   4   2.0000     -10.315599      -280.7017
   5   2.0000     -10.311418      -280.5879
   6   2.0000     -10.305855      -280.4366
   7   2.0000     -10.300403      -280.2882
   8   2.0000     -10.297782      -280.2169
   9   2.0000     -10.297218      -280.2015
  10   2.0000     -10.292090      -280.0620
  11   2.0000     -10.286658      -279.9142
  12   2.0000     -10.285806      -279.8910
  13   2.0000     -10.281900      -279.7847
  14   2.0000     -10.279404      -279.7168
  15   2.0000     -10.278522      -279.6928
  16   2.0000      -8.079028      -219.8415
  17   2.0000      -8.077938      -219.8119
  18   2.0000      -6.037657      -164.2930
  19   2.0000      -6.036639      -164.2653
  20   2.0000      -6.034019      -164.1940
  21   2.0000      -6.032625      -164.1561
  22   2.0000      -6.029217      -164.0633
  23   2.0000      -6.028471      -164.0430
  24   2.0000      -1.005920       -27.3725
  25   2.0000      -0.981969       -26.7207
  26   2.0000      -0.915620       -24.9153
  27   2.0000      -0.905048       -24.6276
  28   2.0000      -0.875097       -23.8126
  29   2.0000      -0.849643       -23.1200
  30   2.0000      -0.843256       -22.9462
  31   2.0000      -0.820349       -22.3228
  32   2.0000      -0.778823       -21.1928
  33   2.0000      -0.767271       -20.8785
  34   2.0000      -0.713557       -19.4169
  35   2.0000      -0.702563       -19.1177
  36   2.0000      -0.694759       -18.9054
  37   2.0000      -0.653934       -17.7945
  38   2.0000      -0.644942       -17.5498
  39   2.0000      -0.624836       -17.0027
  40   2.0000      -0.588261       -16.0074
  41   2.0000      -0.575607       -15.6631
  42   2.0000      -0.563321       -15.3287
  43   2.0000      -0.554320       -15.0838
  44   2.0000      -0.525337       -14.2952
  45   2.0000      -0.519850       -14.1458
  46   2.0000      -0.514253       -13.9935
  47   2.0000      -0.510289       -13.8857
  48   2.0000      -0.507890       -13.8204
  49   2.0000      -0.497911       -13.5489
  50   2.0000      -0.488606       -13.2957
  51   2.0000      -0.482593       -13.1320
  52   2.0000      -0.469055       -12.7636
  53   2.0000      -0.462014       -12.5720
  54   2.0000      -0.458310       -12.4712
  55   2.0000      -0.452635       -12.3168
  56   2.0000      -0.446991       -12.1632
  57   2.0000      -0.440961       -11.9992
  58   2.0000      -0.433744       -11.8028
  59   2.0000      -0.428436       -11.6583
  60   2.0000      -0.415283       -11.3004
  61   2.0000      -0.412443       -11.2231
  62   2.0000      -0.410866       -11.1802
  63   2.0000      -0.346913        -9.4400
  64   2.0000      -0.329608        -8.9691
  65   2.0000      -0.325926        -8.8689
  66   2.0000      -0.293523        -7.9872
  67   0.0000       0.029421         0.8006
  68   0.0000       0.063524         1.7286
  69   0.0000       0.100774         2.7422
  70   0.0000       0.125940         3.4270
  71   0.0000       0.132700         3.6109

MULLIKEN ATOMIC CHARGES
-----------------------
   0 S :    0.097633
   1 C :   -0.126675
   2 C :   -0.013718
   3 C :    0.029339
   4 C :   -0.138108
   5 H :    0.018225
   6 C :    0.029257
   7 H :    0.041202
   8 H :    0.022230
   9 C :   -0.103694
  10 H :    0.039234
  11 H :    0.052685
  12 C :   -0.059539
  13 H :    0.020630
  14 H :    0.046703
  15 H :    0.008217
  16 S :    0.095050
  17 C :   -0.070775
  18 C :   -0.036900
  19 C :   -0.079542
  20 C :   -0.173602
  21 H :    0.010812
  22 C :    0.146208
  23 H :    0.007542
  24 H :   -0.003117
  25 C :   -0.051701
  26 H :    0.026549
  27 H :    0.026343
  28 C :   -0.055230
  29 H :    0.041207
  30 H :    0.026754
  31 H :    0.024429
  32 H :    0.052691
  33 H :    0.049664
Sum of atomic charges:   -0.0000000

LOEWDIN ATOMIC CHARGES
----------------------
   0 S :    0.374600
   1 C :   -0.181256
   2 C :   -0.064892
   3 C :   -0.049429
   4 C :   -0.184167
   5 H :    0.031712
   6 C :   -0.039970
   7 H :    0.039102
   8 H :    0.033820
   9 C :   -0.044871
  10 H :    0.027081
  11 H :    0.034257
  12 C :   -0.078382
  13 H :    0.025996
  14 H :    0.032436
  15 H :    0.015781
  16 S :    0.378029
  17 C :   -0.183390
  18 C :   -0.078208
  19 C :   -0.047608
  20 C :   -0.189124
  21 H :    0.028990
  22 C :   -0.019285
  23 H :    0.023106
  24 H :    0.020355
  25 C :   -0.031988
  26 H :    0.020880
  27 H :    0.031427
  28 C :   -0.074030
  29 H :    0.033883
  30 H :    0.019984
  31 H :    0.026421
  32 H :    0.032283
  33 H :    0.036459

  Mayer bond orders larger than 0.100000
B(  0-S ,  1-C ) :   1.1075 B(  0-S ,  4-C ) :   1.1221 B(  1-C ,  2-C ) :   1.6532
B(  1-C , 32-H ) :   0.9675 B(  2-C ,  3-C ) :   1.1758 B(  2-C ,  6-C ) :   1.0340
B(  3-C ,  4-C ) :   1.6114 B(  3-C ,  5-H ) :   0.9972 B(  4-C , 20-C ) :   1.0634
B(  6-C ,  7-H ) :   0.9347 B(  6-C ,  8-H ) :   0.9462 B(  6-C ,  9-C ) :   1.0527
B(  9-C , 10-H ) :   0.9492 B(  9-C , 11-H ) :   0.9580 B(  9-C , 12-C ) :   1.0750
B( 12-C , 13-H ) :   0.9711 B( 12-C , 14-H ) :   0.9760 B( 12-C , 15-H ) :   0.9692
B( 16-S , 17-C ) :   1.1268 B( 16-S , 20-C ) :   1.1201 B( 17-C , 18-C ) :   1.6770
B( 17-C , 33-H ) :   0.9574 B( 18-C , 19-C ) :   1.2170 B( 18-C , 21-H ) :   0.9844
B( 19-C , 20-C ) :   1.5989 B( 19-C , 22-C ) :   1.0355 B( 22-C , 23-H ) :   0.9412
B( 22-C , 24-H ) :   0.9211 B( 22-C , 25-C ) :   1.0498 B( 25-C , 26-H ) :   0.9594
B( 25-C , 27-H ) :   0.9576 B( 25-C , 28-C ) :   1.0763 B( 28-C , 29-H ) :   0.9755
B( 28-C , 30-H ) :   0.9753 B( 28-C , 31-H ) :   0.9729

Dispersion correction           -0.013759264
FINAL SINGLE POINT ENERGY     -1339.853492650324

DIPOLE MOMENT
-------------
                                X             Y             Z
Electronic contribution:    -14.55450       0.90986     -25.87119
Nuclear contribution   :     15.03745      -0.88645      26.38250
                        -----------------------------------------
Total Dipole Moment    :      0.48295       0.02341       0.51131
                        -----------------------------------------
Magnitude (a.u.)       :      0.70372
Magnitude (Debye)      :      1.78871

Rotational constants in cm-1:     0.016366     0.008772     0.006908
Rotational constants in MHz :   490.640349   262.968914   207.083233

                             ****ORCA TERMINATED NORMALLY****
TOTAL RUN TIME: 0 days 0 hours 0 minutes 21 seconds 496 msec
