                         Program Version 4.2.1 -  RELEASE  -
|  1> ! wB97X-D3 SP def2-SVP
|  2> %pal
|  3> nprocs 24
|  4> end
|  5>
|  6> * xyz 0 1
|  7> S 	 -93.458 	 -30.0774 	 -65.9015
|  8> C 	 -94.5265 	 -31.3673 	 -66.507
|  9> C 	 -95.5117 	 -31.7218 	 -65.5503
| 10> C 	 -95.3225 	 -31.0613 	 -64.3107
| 11> C 	 -94.2351 	 -30.2031 	 -64.2601
| 12> H 	 -95.9718 	 -31.2202 	 -63.3951
| 13> C 	 -96.5249 	 -32.7322 	 -65.8481
| 14> H 	 -96.8627 	 -33.0444 	 -64.9028
| 15> H 	 -95.9759 	 -33.5351 	 -66.1943
| 16> C 	 -97.7081 	 -32.2673 	 -66.7346
| 17> H 	 -97.2896 	 -31.6195 	 -67.5446
| 18> H 	 -98.1975 	 -33.1101 	 -67.3116
| 19> C 	 -98.793 	 -31.5107 	 -66.043
| 20> H 	 -99.1029 	 -31.9409 	 -65.064
| 21> H 	 -98.3893 	 -30.5469 	 -65.8097
| 22> H 	 -99.6259 	 -31.249 	 -66.6519
| 23> S 	 -92.0414 	 -29.1776 	 -62.8837
| 24> C 	 -92.2807 	 -28.4036 	 -61.3478
| 25> C 	 -93.6155 	 -28.2363 	 -61.0681
| 26> C 	 -94.4711 	 -28.7891 	 -62.089
| 27> C 	 -93.8305 	 -29.4074 	 -63.1387
| 28> H 	 -93.8876 	 -27.7291 	 -60.0931
| 29> C 	 -95.9775 	 -28.6254 	 -61.9953
| 30> H 	 -96.4576 	 -29.147 	 -62.822
| 31> H 	 -96.1209 	 -27.551 	 -62.1795
| 32> C 	 -96.5776 	 -28.9604 	 -60.6019
| 33> H 	 -96.122 	 -28.2958 	 -59.8811
| 34> H 	 -96.1729 	 -29.9466 	 -60.2258
| 35> C 	 -98.0527 	 -28.9372 	 -60.4955
| 36> H 	 -98.4926 	 -29.8758 	 -60.9298
| 37> H 	 -98.5518 	 -28.064 	 -60.9239
| 38> H 	 -98.2585 	 -29.012 	 -59.499
| 39> H 	 -94.4974 	 -31.7545 	 -67.5428
| 40> H 	 -91.5066 	 -28.0425 	 -60.6953
| 41> *
| 42>
| 43>                          ****END OF INPUT****

CARTESIAN COORDINATES (ANGSTROEM)
---------------------------------
  S    -93.458000  -30.077400  -65.901500
  C    -94.526500  -31.367300  -66.507000
  C    -95.511700  -31.721800  -65.550300
  C    -95.322500  -31.061300  -64.310700
  C    -94.235100  -30.203100  -64.260100
  H    -95.971800  -31.220200  -63.395100
  C    -96.524900  -32.732200  -65.848100
  H    -96.862700  -33.044400  -64.902800
  H    -95.975900  -33.535100  -66.194300
  C    -97.708100  -32.267300  -66.734600
  H    -97.289600  -31.619500  -67.544600
  H    -98.197500  -33.110100  -67.311600
  C    -98.793000  -31.510700  -66.043000
  H    -99.102900  -31.940900  -65.064000
  H    -98.389300  -30.546900  -65.809700
  H    -99.625900  -31.249000  -66.651900
  S    -92.041400  -29.177600  -62.883700
  C    -92.280700  -28.403600  -61.347800
  C    -93.615500  -28.236300  -61.068100
  C    -94.471100  -28.789100  -62.089000
  C    -93.830500  -29.407400  -63.138700
  H    -93.887600  -27.729100  -60.093100
  C    -95.977500  -28.625400  -61.995300
  H    -96.457600  -29.147000  -62.822000
  H    -96.120900  -27.551000  -62.179500
  C    -96.577600  -28.960400  -60.601900
  H    -96.122000  -28.295800  -59.881100
  H    -96.172900  -29.946600  -60.225800
  C    -98.052700  -28.937200  -60.495500
  H    -98.492600  -29.875800  -60.929800
  H    -98.551800  -28.064000  -60.923900
  H    -98.258500  -29.012000  -59.499000
  H    -94.497400  -31.754500  -67.542800
  H    -91.506600  -28.042500  -60.695300

 Total Charge           Charge          ....    0
 Multiplicity           Mult            ....    1
 Number of Electrons    NEL             ....  134
 Basis Dimension        Dim             ....  322

ORBITAL ENERGIES
----------------

  NO   OCC          E(Eh)            E(eV)
   0   2.0000     -88.970057     -2420.9983
   1   2.0000     -88.960659     -2420.7426
   2   2.0000     -10.336054      -281.2583
   3   2.0000     -10.329506      -281.0801
   4   2.0000     -10.320244      -280.8281
   5   2.0000     -10.317720      -280.7594
   6   2.0000     -10.307100      -280.4704
   7   2.0000     -10.301159      -280.3088
   8   2.0000     -10.300863      -280.3007
   9   2.0000     -10.298808      -280.2448
  10   2.0000     -10.292682      -280.0781
  11   2.0000     -10.291166      -280.0369
  12   2.0000     -10.288346      -279.9601
  13   2.0000     -10.280330      -279.7420
  14   2.0000     -10.273762      -279.5633
  15   2.0000     -10.273031      -279.5434
  16   2.0000      -8.082871      -219.9461
  17   2.0000      -8.074971      -219.7311
  18   2.0000      -6.041539      -164.3986
  19   2.0000      -6.037724      -164.2948
  20   2.0000      -6.033583      -164.1821
  21   2.0000      -6.033504      -164.1800
  22   2.0000      -6.029597      -164.0737
  23   2.0000      -6.025576      -163.9643
  24   2.0000      -0.999586       -27.2001
  25   2.0000      -0.977693       -26.6044
  26   2.0000      -0.917143       -24.9567
  27   2.0000      -0.911097       -24.7922
  28   2.0000      -0.871515       -23.7151
  29   2.0000      -0.856771       -23.3139
  30   2.0000      -0.847174       -23.0528
  31   2.0000      -0.817591       -22.2478
  32   2.0000      -0.784754       -21.3542
  33   2.0000      -0.770488       -20.9660
  34   2.0000      -0.706972       -19.2377
  35   2.0000      -0.704924       -19.1820
  36   2.0000      -0.698725       -19.0133
  37   2.0000      -0.654875       -17.8201
  38   2.0000      -0.634689       -17.2708
  39   2.0000      -0.615769       -16.7559
  40   2.0000      -0.594412       -16.1748
  41   2.0000      -0.571795       -15.5593
  42   2.0000      -0.563241       -15.3266
  43   2.0000      -0.560251       -15.2452
  44   2.0000      -0.540581       -14.7100
  45   2.0000      -0.535524       -14.5724
  46   2.0000      -0.516893       -14.0654
  47   2.0000      -0.510634       -13.8951
  48   2.0000      -0.506934       -13.7944
  49   2.0000      -0.496052       -13.4983
  50   2.0000      -0.490594       -13.3497
  51   2.0000      -0.480776       -13.0826
  52   2.0000      -0.478022       -13.0076
  53   2.0000      -0.469994       -12.7892
  54   2.0000      -0.457196       -12.4409
  55   2.0000      -0.448999       -12.2179
  56   2.0000      -0.448422       -12.2022
  57   2.0000      -0.435181       -11.8419
  58   2.0000      -0.434391       -11.8204
  59   2.0000      -0.427943       -11.6449
  60   2.0000      -0.415759       -11.3134
  61   2.0000      -0.410138       -11.1604
  62   2.0000      -0.406936       -11.0733
  63   2.0000      -0.354911        -9.6576
  64   2.0000      -0.332749        -9.0546
  65   2.0000      -0.327562        -8.9134
  66   2.0000      -0.282531        -7.6881
  67   0.0000       0.018633         0.5070
  68   0.0000       0.068974         1.8769
  69   0.0000       0.100834         2.7438
  70   0.0000       0.118896         3.2353
  71   0.0000       0.128894         3.5074

MULLIKEN ATOMIC CHARGES
-----------------------
   0 S :    0.105433
   1 C :   -0.134410
   2 C :   -0.134083
   3 C :   -0.005149
   4 C :   -0.126635
   5 H :    0.044024
   6 C :    0.150507
   7 H :   -0.008852
   8 H :    0.016254
   9 C :   -0.087313
  10 H :    0.028903
  11 H :    0.034477
  12 C :   -0.024406
  13 H :    0.030119
  14 H :    0.016463
  15 H :    0.030153
  16 S :    0.080014
  17 C :   -0.075630
  18 C :   -0.069234
  19 C :   -0.043442
  20 C :   -0.140571
  21 H :    0.047005
  22 C :    0.078113
  23 H :    0.014266
  24 H :    0.038166
  25 C :   -0.125685
  26 H :    0.020077
  27 H :    0.029312
  28 C :    0.018779
  29 H :    0.029923
  30 H :    0.034610
  31 H :    0.009002
  32 H :    0.064489
  33 H :    0.055319
Sum of atomic charges:    0.0000000

LOEWDIN ATOMIC CHARGES
----------------------
   0 S :    0.370864
   1 C :   -0.193785
   2 C :   -0.061640
   3 C :   -0.070012
   4 C :   -0.171973
   5 H :    0.044172
   6 C :   -0.027106
   7 H :    0.023463
   8 H :    0.030362
   9 C :   -0.042455
  10 H :    0.027698
  11 H :    0.026990
  12 C :   -0.067529
  13 H :    0.027117
  14 H :    0.023575
  15 H :    0.025694
  16 S :    0.372466
  17 C :   -0.176724
  18 C :   -0.087392
  19 C :   -0.051103
  20 C :   -0.180049
  21 H :    0.043804
  22 C :   -0.031680
  23 H :    0.024275
  24 H :    0.038396
  25 C :   -0.047472
  26 H :    0.018192
  27 H :    0.029594
  28 C :   -0.059461
  29 H :    0.031930
  30 H :    0.028037
  31 H :    0.016905
  32 H :    0.034208
  33 H :    0.030637

  Mayer bond orders larger than 0.100000
B(  0-S ,  1-C ) :   1.1318 B(  0-S ,  4-C ) :   1.1295 B(  1-C ,  2-C ) :   1.5835
B(  1-C ,  4-C ) :   0.1087 B(  1-C , 32-H ) :   0.9635 B(  2-C ,  3-C ) :   1.2663
B(  2-C ,  6-C ) :   1.0201 B(  3-C ,  4-C ) :   1.5623 B(  3-C ,  5-H ) :   0.9741
B(  4-C , 20-C ) :   1.0922 B(  6-C ,  7-H ) :   0.9340 B(  6-C ,  8-H ) :   0.9282
B(  6-C ,  9-C ) :   1.0492 B(  9-C , 10-H ) :   0.9578 B(  9-C , 11-H ) :   0.9580
B(  9-C , 12-C ) :   1.0856 B( 12-C , 13-H ) :   0.9734 B( 12-C , 14-H ) :   0.9709
B( 12-C , 15-H ) :   0.9692 B( 16-S , 17-C ) :   1.1582 B( 16-S , 20-C ) :   1.0905
B( 17-C , 18-C ) :   1.6337 B( 17-C , 33-H ) :   0.9643 B( 18-C , 19-C ) :   1.2073
B( 18-C , 21-H ) :   0.9798 B( 19-C , 20-C ) :   1.6190 B( 19-C , 22-C ) :   1.0394
B( 22-C , 23-H ) :   0.9435 B( 22-C , 24-H ) :   0.9236 B( 22-C , 25-C ) :   1.0518
B( 25-C , 26-H ) :   0.9479 B( 25-C , 27-H ) :   0.9558 B( 25-C , 28-C ) :   1.1021
B( 28-C , 29-H ) :   0.9694 B( 28-C , 30-H ) :   0.9706 B( 28-C , 31-H ) :   0.9660

Dispersion correction           -0.013999520
FINAL SINGLE POINT ENERGY     -1339.872117822829

DIPOLE MOMENT
-------------
                                X             Y             Z
Electronic contribution:     30.52926       4.73452      -5.50896
Nuclear contribution   :    -31.23615      -4.78015       5.85815
                        -----------------------------------------
Total Dipole Moment    :     -0.70689      -0.04563       0.34918
                        -----------------------------------------
Magnitude (a.u.)       :      0.78975
Magnitude (Debye)      :      2.00739

Rotational constants in cm-1:     0.016679     0.009566     0.006369
Rotational constants in MHz :   500.019627   286.776315   190.936891

                             ****ORCA TERMINATED NORMALLY****
TOTAL RUN TIME: 0 days 0 hours 0 minutes 20 seconds 445 msec
