                         Program Version 4.2.1 -  RELEASE  -
|  1> ! wB97X-D3 SP def2-SVP
|  2> %pal
|  3> nprocs 24
|  4> end
|  5>
|  6> * xyz 0 1
|  7> S 	 -106.127 	 22.7561 	 -120.609
|  8> C 	 -107.175 	 21.5055 	 -119.883
|  9> C 	 -107.456 	 20.4624 	 -120.76
| 10> C 	 -106.522 	 20.5406 	 -121.861
| 11> C 	 -105.675 	 21.6452 	 -121.828
| 12> H 	 -106.469 	 19.8069 	 -122.696
| 13> C 	 -108.429 	 19.3123 	 -120.582
| 14> H 	 -108.819 	 18.9865 	 -121.55
| 15> H 	 -109.25 	 19.6386 	 -120
| 16> C 	 -107.909 	 17.9634 	 -119.947
| 17> H 	 -107.271 	 18.2433 	 -119.03
| 18> H 	 -108.685 	 17.3438 	 -119.697
| 19> C 	 -106.944 	 17.2389 	 -120.929
| 20> H 	 -106.431 	 16.4535 	 -120.418
| 21> H 	 -107.403 	 16.8851 	 -121.867
| 22> H 	 -106.176 	 17.8457 	 -121.352
| 23> S 	 -102.917 	 21.6144 	 -121.903
| 24> C 	 -102.293 	 21.4727 	 -123.541
| 25> C 	 -103.165 	 21.5882 	 -124.58
| 26> C 	 -104.474 	 21.6498 	 -124.086
| 27> C 	 -104.493 	 21.708 	 -122.696
| 28> H 	 -102.883 	 21.589 	 -125.598
| 29> C 	 -105.697 	 21.6659 	 -124.985
| 30> H 	 -105.676 	 22.5452 	 -125.693
| 31> H 	 -106.579 	 21.8526 	 -124.445
| 32> C 	 -105.834 	 20.4389 	 -125.911
| 33> H 	 -105.692 	 19.534 	 -125.396
| 34> H 	 -105.084 	 20.518 	 -126.645
| 35> C 	 -107.2 	 20.5114 	 -126.643
| 36> H 	 -107.301 	 21.3429 	 -127.302
| 37> H 	 -107.992 	 20.6447 	 -125.896
| 38> H 	 -107.447 	 19.6146 	 -127.095
| 39> H 	 -107.734 	 21.7087 	 -118.989
| 40> H 	 -101.229 	 21.545 	 -123.759
| 41> *
| 42>
| 43>                          ****END OF INPUT****

CARTESIAN COORDINATES (ANGSTROEM)
---------------------------------
  S    -106.127000   22.756100  -120.609000
  C    -107.175000   21.505500  -119.883000
  C    -107.456000   20.462400  -120.760000
  C    -106.522000   20.540600  -121.861000
  C    -105.675000   21.645200  -121.828000
  H    -106.469000   19.806900  -122.696000
  C    -108.429000   19.312300  -120.582000
  H    -108.819000   18.986500  -121.550000
  H    -109.250000   19.638600  -120.000000
  C    -107.909000   17.963400  -119.947000
  H    -107.271000   18.243300  -119.030000
  H    -108.685000   17.343800  -119.697000
  C    -106.944000   17.238900  -120.929000
  H    -106.431000   16.453500  -120.418000
  H    -107.403000   16.885100  -121.867000
  H    -106.176000   17.845700  -121.352000
  S    -102.917000   21.614400  -121.903000
  C    -102.293000   21.472700  -123.541000
  C    -103.165000   21.588200  -124.580000
  C    -104.474000   21.649800  -124.086000
  C    -104.493000   21.708000  -122.696000
  H    -102.883000   21.589000  -125.598000
  C    -105.697000   21.665900  -124.985000
  H    -105.676000   22.545200  -125.693000
  H    -106.579000   21.852600  -124.445000
  C    -105.834000   20.438900  -125.911000
  H    -105.692000   19.534000  -125.396000
  H    -105.084000   20.518000  -126.645000
  C    -107.200000   20.511400  -126.643000
  H    -107.301000   21.342900  -127.302000
  H    -107.992000   20.644700  -125.896000
  H    -107.447000   19.614600  -127.095000
  H    -107.734000   21.708700  -118.989000
  H    -101.229000   21.545000  -123.759000

 Total Charge           Charge          ....    0
 Multiplicity           Mult            ....    1
 Number of Electrons    NEL             ....  134
 Basis Dimension        Dim             ....  322

ORBITAL ENERGIES
----------------

  NO   OCC          E(Eh)            E(eV)
   0   2.0000     -88.969876     -2420.9934
   1   2.0000     -88.966966     -2420.9142
   2   2.0000     -10.323331      -280.9121
   3   2.0000     -10.322071      -280.8778
   4   2.0000     -10.314570      -280.6737
   5   2.0000     -10.313081      -280.6332
   6   2.0000     -10.305638      -280.4307
   7   2.0000     -10.298714      -280.2423
   8   2.0000     -10.294155      -280.1182
   9   2.0000     -10.293411      -280.0980
  10   2.0000     -10.291454      -280.0447
  11   2.0000     -10.288498      -279.9643
  12   2.0000     -10.286851      -279.9194
  13   2.0000     -10.281341      -279.7695
  14   2.0000     -10.272039      -279.5164
  15   2.0000     -10.271365      -279.4981
  16   2.0000      -8.084240      -219.9834
  17   2.0000      -8.081831      -219.9178
  18   2.0000      -6.042571      -164.4267
  19   2.0000      -6.040277      -164.3643
  20   2.0000      -6.039221      -164.3356
  21   2.0000      -6.036561      -164.2632
  22   2.0000      -6.034780      -164.2147
  23   2.0000      -6.032427      -164.1507
  24   2.0000      -1.005907       -27.3721
  25   2.0000      -0.983030       -26.7496
  26   2.0000      -0.910714       -24.7818
  27   2.0000      -0.906987       -24.6804
  28   2.0000      -0.865543       -23.5526
  29   2.0000      -0.855007       -23.2659
  30   2.0000      -0.843600       -22.9555
  31   2.0000      -0.808879       -22.0107
  32   2.0000      -0.786001       -21.3882
  33   2.0000      -0.771232       -20.9863
  34   2.0000      -0.710459       -19.3326
  35   2.0000      -0.706075       -19.2133
  36   2.0000      -0.693542       -18.8722
  37   2.0000      -0.661725       -18.0065
  38   2.0000      -0.638033       -17.3617
  39   2.0000      -0.613181       -16.6855
  40   2.0000      -0.599984       -16.3264
  41   2.0000      -0.571247       -15.5444
  42   2.0000      -0.568626       -15.4731
  43   2.0000      -0.545894       -14.8545
  44   2.0000      -0.540368       -14.7042
  45   2.0000      -0.523149       -14.2356
  46   2.0000      -0.521060       -14.1788
  47   2.0000      -0.512908       -13.9569
  48   2.0000      -0.502937       -13.6856
  49   2.0000      -0.489194       -13.3117
  50   2.0000      -0.479713       -13.0536
  51   2.0000      -0.473207       -12.8766
  52   2.0000      -0.468319       -12.7436
  53   2.0000      -0.464462       -12.6386
  54   2.0000      -0.462521       -12.5858
  55   2.0000      -0.454337       -12.3632
  56   2.0000      -0.442145       -12.0314
  57   2.0000      -0.438804       -11.9405
  58   2.0000      -0.436107       -11.8671
  59   2.0000      -0.431338       -11.7373
  60   2.0000      -0.425981       -11.5915
  61   2.0000      -0.425003       -11.5649
  62   2.0000      -0.418715       -11.3938
  63   2.0000      -0.342131        -9.3098
  64   2.0000      -0.328730        -8.9452
  65   2.0000      -0.327941        -8.9237
  66   2.0000      -0.291502        -7.9322
  67   0.0000       0.033526         0.9123
  68   0.0000       0.065066         1.7705
  69   0.0000       0.099716         2.7134
  70   0.0000       0.110068         2.9951
  71   0.0000       0.126703         3.4478

MULLIKEN ATOMIC CHARGES
-----------------------
   0 S :    0.116164
   1 C :   -0.136274
   2 C :   -0.064083
   3 C :    0.011478
   4 C :   -0.175259
   5 H :    0.024520
   6 C :    0.075670
   7 H :    0.020409
   8 H :    0.014901
   9 C :   -0.044948
  10 H :    0.042949
  11 H :    0.024003
  12 C :   -0.059436
  13 H :    0.030562
  14 H :    0.020430
  15 H :    0.022040
  16 S :    0.126581
  17 C :   -0.080933
  18 C :   -0.020328
  19 C :   -0.002646
  20 C :   -0.168862
  21 H :    0.003907
  22 C :    0.052574
  23 H :    0.029299
  24 H :    0.008930
  25 C :   -0.053541
  26 H :    0.022480
  27 H :    0.017582
  28 C :   -0.007200
  29 H :    0.025780
  30 H :    0.015816
  31 H :    0.017840
  32 H :    0.040833
  33 H :    0.048764
Sum of atomic charges:    0.0000000

LOEWDIN ATOMIC CHARGES
----------------------
   0 S :    0.403836
   1 C :   -0.183296
   2 C :   -0.056971
   3 C :   -0.063030
   4 C :   -0.215748
   5 H :    0.032090
   6 C :   -0.028388
   7 H :    0.031262
   8 H :    0.023915
   9 C :   -0.024005
  10 H :    0.035267
  11 H :    0.011929
  12 C :   -0.071163
  13 H :    0.023619
  14 H :    0.023554
  15 H :    0.021748
  16 S :    0.400373
  17 C :   -0.175216
  18 C :   -0.061882
  19 C :   -0.051257
  20 C :   -0.193301
  21 H :    0.028850
  22 C :   -0.029615
  23 H :    0.037767
  24 H :    0.018010
  25 C :   -0.025737
  26 H :    0.015738
  27 H :    0.016459
  28 C :   -0.053278
  29 H :    0.022700
  30 H :    0.026181
  31 H :    0.016153
  32 H :    0.019614
  33 H :    0.023820

  Mayer bond orders larger than 0.100000
B(  0-S ,  1-C ) :   1.1330 B(  0-S ,  4-C ) :   1.1576 B(  1-C ,  2-C ) :   1.6026
B(  1-C , 32-H ) :   0.9696 B(  2-C ,  3-C ) :   1.2297 B(  2-C ,  6-C ) :   1.0414
B(  3-C ,  4-C ) :   1.5719 B(  3-C ,  5-H ) :   0.9811 B(  4-C , 20-C ) :   1.0240
B(  6-C ,  7-H ) :   0.9401 B(  6-C ,  8-H ) :   0.9365 B(  6-C ,  9-C ) :   1.0650
B(  9-C , 10-H ) :   0.9570 B(  9-C , 11-H ) :   0.9583 B(  9-C , 12-C ) :   1.0725
B( 12-C , 13-H ) :   0.9740 B( 12-C , 14-H ) :   0.9738 B( 12-C , 15-H ) :   0.9729
B( 16-S , 17-C ) :   1.1460 B( 16-S , 20-C ) :   1.1336 B( 17-C , 18-C ) :   1.6394
B( 17-C , 33-H ) :   0.9571 B( 18-C , 19-C ) :   1.2212 B( 18-C , 21-H ) :   0.9988
B( 19-C , 20-C ) :   1.6213 B( 19-C , 22-C ) :   1.0471 B( 22-C , 23-H ) :   0.9343
B( 22-C , 24-H ) :   0.9362 B( 22-C , 25-C ) :   1.0508 B( 25-C , 26-H ) :   0.9611
B( 25-C , 27-H ) :   0.9518 B( 25-C , 28-C ) :   1.0873 B( 28-C , 29-H ) :   0.9743
B( 28-C , 30-H ) :   0.9743 B( 28-C , 31-H ) :   0.9738

Dispersion correction           -0.014747384
FINAL SINGLE POINT ENERGY     -1339.861974157574

DIPOLE MOMENT
-------------
                                X             Y             Z
Electronic contribution:     15.52996      18.77609      13.21659
Nuclear contribution   :    -15.85667     -19.15747     -13.64153
                        -----------------------------------------
Total Dipole Moment    :     -0.32670      -0.38138      -0.42493
                        -----------------------------------------
Magnitude (a.u.)       :      0.65784
Magnitude (Debye)      :      1.67210

Rotational constants in cm-1:     0.015491     0.009837     0.007819
Rotational constants in MHz :   464.421009   294.907256   234.415214

                             ****ORCA TERMINATED NORMALLY****
TOTAL RUN TIME: 0 days 0 hours 0 minutes 22 seconds 178 msec
