                         Program Version 4.2.1 -  RELEASE  -
|  1> ! wB97X-D3 SP def2-SVP
|  2> %pal
|  3> nprocs 24
|  4> end
|  5>
|  6> * xyz 0 1
|  7> S 	 46.5448 	 -33.7903 	 -119.647
|  8> C 	 47.5762 	 -32.7624 	 -120.56
|  9> C 	 46.8836 	 -31.741 	 -121.212
| 10> C 	 45.4578 	 -31.905 	 -120.946
| 11> C 	 45.1125 	 -33.0075 	 -120.163
| 12> H 	 44.6638 	 -31.2068 	 -121.281
| 13> C 	 47.5491 	 -30.7028 	 -122.159
| 14> H 	 48.5647 	 -30.5021 	 -121.906
| 15> H 	 47.0252 	 -29.7245 	 -122.13
| 16> C 	 47.6439 	 -31.13 	 -123.584
| 17> H 	 48.5408 	 -30.6718 	 -123.984
| 18> H 	 47.607 	 -32.2262 	 -123.493
| 19> C 	 46.4474 	 -30.6651 	 -124.351
| 20> H 	 46.6913 	 -30.8614 	 -125.373
| 21> H 	 45.5227 	 -31.2541 	 -124.216
| 22> H 	 46.3125 	 -29.5582 	 -124.191
| 23> S 	 43.5179 	 -33.7916 	 -117.978
| 24> C 	 41.8559 	 -34.1625 	 -118.272
| 25> C 	 41.5263 	 -33.7797 	 -119.536
| 26> C 	 42.5616 	 -33.19 	 -120.361
| 27> C 	 43.7986 	 -33.3012 	 -119.709
| 28> H 	 40.4701 	 -33.9719 	 -119.847
| 29> C 	 42.2381 	 -32.8633 	 -121.782
| 30> H 	 42.3344 	 -31.8137 	 -121.924
| 31> H 	 41.1932 	 -33.0393 	 -121.92
| 32> C 	 43.0861 	 -33.5812 	 -122.913
| 33> H 	 43.1521 	 -34.6344 	 -122.77
| 34> H 	 44.1775 	 -33.4153 	 -122.837
| 35> C 	 42.6881 	 -33.1503 	 -124.269
| 36> H 	 43.0865 	 -33.7981 	 -125.125
| 37> H 	 42.9007 	 -32.04 	 -124.476
| 38> H 	 41.5508 	 -33.0313 	 -124.308
| 39> H 	 48.6128 	 -33.0506 	 -120.838
| 40> H 	 41.0782 	 -34.55 	 -117.619
| 41> *
| 42>
| 43>                          ****END OF INPUT****

CARTESIAN COORDINATES (ANGSTROEM)
---------------------------------
  S     46.544800  -33.790300  -119.647000
  C     47.576200  -32.762400  -120.560000
  C     46.883600  -31.741000  -121.212000
  C     45.457800  -31.905000  -120.946000
  C     45.112500  -33.007500  -120.163000
  H     44.663800  -31.206800  -121.281000
  C     47.549100  -30.702800  -122.159000
  H     48.564700  -30.502100  -121.906000
  H     47.025200  -29.724500  -122.130000
  C     47.643900  -31.130000  -123.584000
  H     48.540800  -30.671800  -123.984000
  H     47.607000  -32.226200  -123.493000
  C     46.447400  -30.665100  -124.351000
  H     46.691300  -30.861400  -125.373000
  H     45.522700  -31.254100  -124.216000
  H     46.312500  -29.558200  -124.191000
  S     43.517900  -33.791600  -117.978000
  C     41.855900  -34.162500  -118.272000
  C     41.526300  -33.779700  -119.536000
  C     42.561600  -33.190000  -120.361000
  C     43.798600  -33.301200  -119.709000
  H     40.470100  -33.971900  -119.847000
  C     42.238100  -32.863300  -121.782000
  H     42.334400  -31.813700  -121.924000
  H     41.193200  -33.039300  -121.920000
  C     43.086100  -33.581200  -122.913000
  H     43.152100  -34.634400  -122.770000
  H     44.177500  -33.415300  -122.837000
  C     42.688100  -33.150300  -124.269000
  H     43.086500  -33.798100  -125.125000
  H     42.900700  -32.040000  -124.476000
  H     41.550800  -33.031300  -124.308000
  H     48.612800  -33.050600  -120.838000
  H     41.078200  -34.550000  -117.619000

 Total Charge           Charge          ....    0
 Multiplicity           Mult            ....    1
 Number of Electrons    NEL             ....  134
 Basis Dimension        Dim             ....  322

ORBITAL ENERGIES
----------------

  NO   OCC          E(Eh)            E(eV)
   0   2.0000     -88.969037     -2420.9706
   1   2.0000     -88.964831     -2420.8561
   2   2.0000     -10.334098      -281.2051
   3   2.0000     -10.327905      -281.0366
   4   2.0000     -10.317521      -280.7540
   5   2.0000     -10.313242      -280.6376
   6   2.0000     -10.310714      -280.5688
   7   2.0000     -10.307268      -280.4750
   8   2.0000     -10.301417      -280.3158
   9   2.0000     -10.293503      -280.1004
  10   2.0000     -10.292905      -280.0842
  11   2.0000     -10.292025      -280.0603
  12   2.0000     -10.289282      -279.9856
  13   2.0000     -10.283674      -279.8330
  14   2.0000     -10.280376      -279.7433
  15   2.0000     -10.276802      -279.6460
  16   2.0000      -8.084788      -219.9983
  17   2.0000      -8.078894      -219.8379
  18   2.0000      -6.043240      -164.4449
  19   2.0000      -6.038954      -164.3283
  20   2.0000      -6.037624      -164.2921
  21   2.0000      -6.035734      -164.2407
  22   2.0000      -6.033537      -164.1809
  23   2.0000      -6.029402      -164.0684
  24   2.0000      -1.009821       -27.4786
  25   2.0000      -0.983849       -26.7719
  26   2.0000      -0.924535       -25.1579
  27   2.0000      -0.910649       -24.7800
  28   2.0000      -0.875770       -23.8309
  29   2.0000      -0.854692       -23.2574
  30   2.0000      -0.844670       -22.9847
  31   2.0000      -0.811821       -22.0908
  32   2.0000      -0.785318       -21.3696
  33   2.0000      -0.772942       -21.0328
  34   2.0000      -0.710278       -19.3277
  35   2.0000      -0.696833       -18.9618
  36   2.0000      -0.691815       -18.8252
  37   2.0000      -0.658920       -17.9301
  38   2.0000      -0.636530       -17.3209
  39   2.0000      -0.617811       -16.8115
  40   2.0000      -0.598935       -16.2978
  41   2.0000      -0.582164       -15.8415
  42   2.0000      -0.557887       -15.1809
  43   2.0000      -0.554699       -15.0941
  44   2.0000      -0.543591       -14.7919
  45   2.0000      -0.528998       -14.3948
  46   2.0000      -0.517019       -14.0688
  47   2.0000      -0.511337       -13.9142
  48   2.0000      -0.504253       -13.7214
  49   2.0000      -0.502607       -13.6766
  50   2.0000      -0.497450       -13.5363
  51   2.0000      -0.477051       -12.9812
  52   2.0000      -0.475676       -12.9438
  53   2.0000      -0.466414       -12.6918
  54   2.0000      -0.457654       -12.4534
  55   2.0000      -0.451297       -12.2804
  56   2.0000      -0.439083       -11.9481
  57   2.0000      -0.434359       -11.8195
  58   2.0000      -0.429501       -11.6873
  59   2.0000      -0.425663       -11.5829
  60   2.0000      -0.420543       -11.4436
  61   2.0000      -0.416681       -11.3385
  62   2.0000      -0.399397       -10.8681
  63   2.0000      -0.357599        -9.7308
  64   2.0000      -0.331727        -9.0268
  65   2.0000      -0.328061        -8.9270
  66   2.0000      -0.285276        -7.7628
  67   0.0000       0.019908         0.5417
  68   0.0000       0.073814         2.0086
  69   0.0000       0.113603         3.0913
  70   0.0000       0.121954         3.3185
  71   0.0000       0.124213         3.3800

MULLIKEN ATOMIC CHARGES
-----------------------
   0 S :    0.127896
   1 C :   -0.127998
   2 C :   -0.107680
   3 C :    0.001873
   4 C :   -0.159154
   5 H :    0.023187
   6 C :    0.080098
   7 H :    0.010936
   8 H :    0.021556
   9 C :   -0.061356
  10 H :    0.029591
  11 H :    0.033918
  12 C :   -0.062361
  13 H :    0.022613
  14 H :    0.040391
  15 H :    0.035760
  16 S :    0.099427
  17 C :   -0.078781
  18 C :   -0.074913
  19 C :   -0.018180
  20 C :   -0.145054
  21 H :    0.028428
  22 C :    0.087624
  23 H :    0.020877
  24 H :    0.009802
  25 C :   -0.044080
  26 H :    0.021554
  27 H :    0.033420
  28 C :   -0.094838
  29 H :    0.060840
  30 H :    0.034477
  31 H :    0.023765
  32 H :    0.068496
  33 H :    0.057864
Sum of atomic charges:    0.0000000

LOEWDIN ATOMIC CHARGES
----------------------
   0 S :    0.441265
   1 C :   -0.215250
   2 C :   -0.059481
   3 C :   -0.063907
   4 C :   -0.217073
   5 H :    0.034099
   6 C :   -0.031476
   7 H :    0.026366
   8 H :    0.029906
   9 C :   -0.044200
  10 H :    0.025988
  11 H :    0.031231
  12 C :   -0.070045
  13 H :    0.022362
  14 H :    0.029344
  15 H :    0.028412
  16 S :    0.380324
  17 C :   -0.199800
  18 C :   -0.079778
  19 C :   -0.054641
  20 C :   -0.170160
  21 H :    0.034669
  22 C :   -0.024349
  23 H :    0.027907
  24 H :    0.028876
  25 C :   -0.050167
  26 H :    0.023571
  27 H :    0.029799
  28 C :   -0.084178
  29 H :    0.039058
  30 H :    0.028881
  31 H :    0.026511
  32 H :    0.037015
  33 H :    0.038922

  Mayer bond orders larger than 0.100000
B(  0-S ,  1-C ) :   1.1602 B(  0-S ,  4-C ) :   1.1599 B(  1-C ,  2-C ) :   1.5849
B(  1-C , 32-H ) :   0.9581 B(  2-C ,  3-C ) :   1.2681 B(  2-C ,  6-C ) :   1.0377
B(  3-C ,  4-C ) :   1.5205 B(  3-C ,  5-H ) :   0.9874 B(  4-C , 20-C ) :   1.1122
B(  6-C ,  7-H ) :   0.9401 B(  6-C ,  8-H ) :   0.9411 B(  6-C ,  9-C ) :   1.0602
B(  9-C , 10-H ) :   0.9547 B(  9-C , 11-H ) :   0.9479 B(  9-C , 12-C ) :   1.1036
B( 12-C , 13-H ) :   0.9694 B( 12-C , 14-H ) :   0.9699 B( 12-C , 15-H ) :   0.9718
B( 16-S , 17-C ) :   1.1265 B( 16-S , 20-C ) :   1.1205 B( 17-C , 18-C ) :   1.6570
B( 17-C , 33-H ) :   0.9623 B( 18-C , 19-C ) :   1.2257 B( 18-C , 21-H ) :   0.9755
B( 19-C , 20-C ) :   1.5761 B( 19-C , 22-C ) :   1.0596 B( 22-C , 23-H ) :   0.9185
B( 22-C , 24-H ) :   0.9307 B( 22-C , 25-C ) :   1.0469 B( 25-C , 26-H ) :   0.9512
B( 25-C , 27-H ) :   0.9427 B( 25-C , 28-C ) :   1.0873 B( 28-C , 29-H ) :   0.9693
B( 28-C , 30-H ) :   0.9651 B( 28-C , 31-H ) :   0.9689

Dispersion correction           -0.015428084
FINAL SINGLE POINT ENERGY     -1339.860173677510

DIPOLE MOMENT
-------------
                                X             Y             Z
Electronic contribution:      1.22089     -11.08610      30.47943
Nuclear contribution   :     -1.30844      11.31626     -31.17768
                        -----------------------------------------
Total Dipole Moment    :     -0.08755       0.23016      -0.69825
                        -----------------------------------------
Magnitude (a.u.)       :      0.74040
Magnitude (Debye)      :      1.88195

Rotational constants in cm-1:     0.018996     0.009976     0.007084
Rotational constants in MHz :   569.471424   299.066223   212.364706

                             ****ORCA TERMINATED NORMALLY****
TOTAL RUN TIME: 0 days 0 hours 0 minutes 21 seconds 675 msec
