                         Program Version 4.2.1 -  RELEASE  -
|  1> ! wB97X-D3 SP def2-SVP
|  2> %pal
|  3> nprocs 24
|  4> end
|  5>
|  6> * xyz 0 1
|  7> S 	 -2.26538 	 -24.8232 	 -118.252
|  8> C 	 -0.684793 	 -25.6255 	 -118.556
|  9> C 	 0.279131 	 -25.2233 	 -117.647
| 10> C 	 -0.283916 	 -24.5779 	 -116.486
| 11> C 	 -1.61478 	 -24.3904 	 -116.613
| 12> H 	 0.218937 	 -24.2231 	 -115.595
| 13> C 	 1.79494 	 -25.5777 	 -117.735
| 14> H 	 2.01467 	 -25.912 	 -118.763
| 15> H 	 1.98301 	 -26.4944 	 -117.236
| 16> C 	 2.78244 	 -24.5917 	 -117.153
| 17> H 	 2.53501 	 -24.2824 	 -116.119
| 18> H 	 3.7083 	 -25.0899 	 -116.981
| 19> C 	 2.91654 	 -23.2549 	 -117.96
| 20> H 	 3.61157 	 -22.4422 	 -117.52
| 21> H 	 3.37009 	 -23.4181 	 -118.99
| 22> H 	 1.91377 	 -22.8451 	 -118.139
| 23> S 	 -3.97051 	 -24.9895 	 -115.224
| 24> C 	 -4.43655 	 -24.066 	 -113.799
| 25> C 	 -3.45733 	 -23.1353 	 -113.487
| 26> C 	 -2.43672 	 -23.084 	 -114.475
| 27> C 	 -2.56339 	 -23.948 	 -115.53
| 28> H 	 -3.5416 	 -22.5575 	 -112.635
| 29> C 	 -1.32417 	 -22.0898 	 -114.168
| 30> H 	 -1.75173 	 -21.0922 	 -113.959
| 31> H 	 -0.759562 	 -22.075 	 -115.055
| 32> C 	 -0.403019 	 -22.5287 	 -113.002
| 33> H 	 -0.121686 	 -23.5514 	 -113.125
| 34> H 	 -0.830049 	 -22.4098 	 -111.963
| 35> C 	 0.89582 	 -21.6957 	 -112.932
| 36> H 	 1.59553 	 -21.9669 	 -113.724
| 37> H 	 1.48764 	 -21.9713 	 -112.008
| 38> H 	 0.659808 	 -20.6313 	 -112.929
| 39> H 	 -0.5158 	 -26.2173 	 -119.446
| 40> H 	 -5.18595 	 -24.2082 	 -113.106
| 41> *
| 42>
| 43>                          ****END OF INPUT****

CARTESIAN COORDINATES (ANGSTROEM)
---------------------------------
  S     -2.265380  -24.823200  -118.252000
  C     -0.684793  -25.625500  -118.556000
  C      0.279131  -25.223300  -117.647000
  C     -0.283916  -24.577900  -116.486000
  C     -1.614780  -24.390400  -116.613000
  H      0.218937  -24.223100  -115.595000
  C      1.794940  -25.577700  -117.735000
  H      2.014670  -25.912000  -118.763000
  H      1.983010  -26.494400  -117.236000
  C      2.782440  -24.591700  -117.153000
  H      2.535010  -24.282400  -116.119000
  H      3.708300  -25.089900  -116.981000
  C      2.916540  -23.254900  -117.960000
  H      3.611570  -22.442200  -117.520000
  H      3.370090  -23.418100  -118.990000
  H      1.913770  -22.845100  -118.139000
  S     -3.970510  -24.989500  -115.224000
  C     -4.436550  -24.066000  -113.799000
  C     -3.457330  -23.135300  -113.487000
  C     -2.436720  -23.084000  -114.475000
  C     -2.563390  -23.948000  -115.530000
  H     -3.541600  -22.557500  -112.635000
  C     -1.324170  -22.089800  -114.168000
  H     -1.751730  -21.092200  -113.959000
  H     -0.759562  -22.075000  -115.055000
  C     -0.403019  -22.528700  -113.002000
  H     -0.121686  -23.551400  -113.125000
  H     -0.830049  -22.409800  -111.963000
  C      0.895820  -21.695700  -112.932000
  H      1.595530  -21.966900  -113.724000
  H      1.487640  -21.971300  -112.008000
  H      0.659808  -20.631300  -112.929000
  H     -0.515800  -26.217300  -119.446000
  H     -5.185950  -24.208200  -113.106000

 Total Charge           Charge          ....    0
 Multiplicity           Mult            ....    1
 Number of Electrons    NEL             ....  134
 Basis Dimension        Dim             ....  322

ORBITAL ENERGIES
----------------

  NO   OCC          E(Eh)            E(eV)
   0   2.0000     -88.967076     -2420.9172
   1   2.0000     -88.964595     -2420.8497
   2   2.0000     -10.337790      -281.3056
   3   2.0000     -10.329966      -281.0927
   4   2.0000     -10.319698      -280.8133
   5   2.0000     -10.312801      -280.6256
   6   2.0000     -10.310499      -280.5629
   7   2.0000     -10.299559      -280.2652
   8   2.0000     -10.297988      -280.2225
   9   2.0000     -10.296104      -280.1712
  10   2.0000     -10.293509      -280.1006
  11   2.0000     -10.291971      -280.0588
  12   2.0000     -10.290787      -280.0265
  13   2.0000     -10.290390      -280.0157
  14   2.0000     -10.285151      -279.8732
  15   2.0000     -10.283990      -279.8416
  16   2.0000      -8.080293      -219.8759
  17   2.0000      -8.078554      -219.8286
  18   2.0000      -6.038913      -164.3272
  19   2.0000      -6.037234      -164.2815
  20   2.0000      -6.035431      -164.2324
  21   2.0000      -6.033134      -164.1699
  22   2.0000      -6.030597      -164.1009
  23   2.0000      -6.029182      -164.0624
  24   2.0000      -1.000853       -27.2346
  25   2.0000      -0.979645       -26.6575
  26   2.0000      -0.908991       -24.7349
  27   2.0000      -0.907338       -24.6899
  28   2.0000      -0.865795       -23.5595
  29   2.0000      -0.850073       -23.1317
  30   2.0000      -0.840718       -22.8771
  31   2.0000      -0.818235       -22.2653
  32   2.0000      -0.780683       -21.2435
  33   2.0000      -0.771474       -20.9929
  34   2.0000      -0.708101       -19.2684
  35   2.0000      -0.697494       -18.9798
  36   2.0000      -0.694820       -18.9070
  37   2.0000      -0.666163       -18.1272
  38   2.0000      -0.645357       -17.5610
  39   2.0000      -0.625314       -17.0157
  40   2.0000      -0.591551       -16.0969
  41   2.0000      -0.572772       -15.5859
  42   2.0000      -0.567186       -15.4339
  43   2.0000      -0.551335       -15.0026
  44   2.0000      -0.532502       -14.4901
  45   2.0000      -0.525905       -14.3106
  46   2.0000      -0.523321       -14.2403
  47   2.0000      -0.507962       -13.8224
  48   2.0000      -0.505106       -13.7446
  49   2.0000      -0.496377       -13.5071
  50   2.0000      -0.487911       -13.2767
  51   2.0000      -0.476139       -12.9564
  52   2.0000      -0.469768       -12.7830
  53   2.0000      -0.465080       -12.6555
  54   2.0000      -0.458459       -12.4753
  55   2.0000      -0.452177       -12.3044
  56   2.0000      -0.439858       -11.9691
  57   2.0000      -0.437768       -11.9123
  58   2.0000      -0.433705       -11.8017
  59   2.0000      -0.430562       -11.7162
  60   2.0000      -0.422821       -11.5055
  61   2.0000      -0.415123       -11.2961
  62   2.0000      -0.410956       -11.1827
  63   2.0000      -0.349755        -9.5173
  64   2.0000      -0.330121        -8.9830
  65   2.0000      -0.327774        -8.9192
  66   2.0000      -0.295406        -8.0384
  67   0.0000       0.026339         0.7167
  68   0.0000       0.069800         1.8994
  69   0.0000       0.092247         2.5102
  70   0.0000       0.113568         3.0903
  71   0.0000       0.118783         3.2323

MULLIKEN ATOMIC CHARGES
-----------------------
   0 S :    0.095549
   1 C :   -0.136087
   2 C :   -0.065998
   3 C :    0.030282
   4 C :   -0.144349
   5 H :    0.005484
   6 C :    0.085539
   7 H :    0.015874
   8 H :    0.029400
   9 C :   -0.058602
  10 H :    0.026432
  11 H :    0.020488
  12 C :   -0.102519
  13 H :    0.049642
  14 H :    0.034904
  15 H :    0.048170
  16 S :    0.097622
  17 C :   -0.040205
  18 C :   -0.019298
  19 C :   -0.068214
  20 C :   -0.113529
  21 H :   -0.008989
  22 C :    0.091857
  23 H :    0.036995
  24 H :    0.002667
  25 C :   -0.094550
  26 H :    0.028485
  27 H :    0.039840
  28 C :   -0.069991
  29 H :    0.029965
  30 H :    0.038870
  31 H :    0.039466
  32 H :    0.050229
  33 H :    0.024571
Sum of atomic charges:    0.0000000

LOEWDIN ATOMIC CHARGES
----------------------
   0 S :    0.349400
   1 C :   -0.175880
   2 C :   -0.055275
   3 C :   -0.061818
   4 C :   -0.157252
   5 H :    0.033296
   6 C :   -0.031167
   7 H :    0.032603
   8 H :    0.032307
   9 C :   -0.043731
  10 H :    0.026025
  11 H :    0.023285
  12 C :   -0.081147
  13 H :    0.034209
  14 H :    0.027721
  15 H :    0.027535
  16 S :    0.395131
  17 C :   -0.164571
  18 C :   -0.058737
  19 C :   -0.058910
  20 C :   -0.195974
  21 H :    0.018904
  22 C :   -0.026327
  23 H :    0.035367
  24 H :    0.018964
  25 C :   -0.041868
  26 H :    0.018245
  27 H :    0.030029
  28 C :   -0.070410
  29 H :    0.020552
  30 H :    0.032315
  31 H :    0.024650
  32 H :    0.025937
  33 H :    0.016591

  Mayer bond orders larger than 0.100000
B(  0-S ,  1-C ) :   1.1084 B(  0-S ,  4-C ) :   1.1240 B(  1-C ,  2-C ) :   1.6575
B(  1-C , 32-H ) :   0.9699 B(  2-C ,  3-C ) :   1.1706 B(  2-C ,  6-C ) :   1.0110
B(  3-C ,  4-C ) :   1.6523 B(  3-C ,  5-H ) :   0.9868 B(  4-C , 20-C ) :   1.0024
B(  6-C ,  7-H ) :   0.9404 B(  6-C ,  8-H ) :   0.9346 B(  6-C ,  9-C ) :   1.0824
B(  9-C , 10-H ) :   0.9497 B(  9-C , 11-H ) :   0.9517 B(  9-C , 12-C ) :   1.0587
B( 12-C , 13-H ) :   0.9766 B( 12-C , 14-H ) :   0.9757 B( 12-C , 15-H ) :   0.9768
B( 16-S , 17-C ) :   1.1512 B( 16-S , 20-C ) :   1.1196 B( 17-C , 18-C ) :   1.6131
B( 17-C , 33-H ) :   0.9719 B( 18-C , 19-C ) :   1.2335 B( 18-C , 21-H ) :   1.0036
B( 19-C , 20-C ) :   1.6253 B( 19-C , 22-C ) :   1.0493 B( 22-C , 23-H ) :   0.9333
B( 22-C , 24-H ) :   0.9347 B( 22-C , 25-C ) :   1.0594 B( 25-C , 26-H ) :   0.9551
B( 25-C , 27-H ) :   0.9541 B( 25-C , 28-C ) :   1.0878 B( 28-C , 29-H ) :   0.9758
B( 28-C , 30-H ) :   0.9745 B( 28-C , 31-H ) :   0.9735

Dispersion correction           -0.014637447
FINAL SINGLE POINT ENERGY     -1339.864356389920

DIPOLE MOMENT
-------------
                                X             Y             Z
Electronic contribution:    -28.84361     -11.32189      -8.48580
Nuclear contribution   :     29.55185      11.41026       8.94496
                        -----------------------------------------
Total Dipole Moment    :      0.70824       0.08837       0.45916
                        -----------------------------------------
Magnitude (a.u.)       :      0.84867
Magnitude (Debye)      :      2.15715

Rotational constants in cm-1:     0.016416     0.010309     0.006796
Rotational constants in MHz :   492.139958   309.063340   203.727685

                             ****ORCA TERMINATED NORMALLY****
TOTAL RUN TIME: 0 days 0 hours 0 minutes 22 seconds 90 msec
