                         Program Version 4.2.1 -  RELEASE  -
|  1> ! wB97X-D3 SP def2-SVP
|  2> %pal
|  3> nprocs 24
|  4> end
|  5>
|  6> * xyz 0 1
|  7> S 	 -56.275 	 12.2543 	 21.3861
|  8> C 	 -55.8627 	 10.8202 	 20.4037
|  9> C 	 -54.589 	 10.9574 	 19.8808
| 10> C 	 -53.8308 	 12.0584 	 20.4424
| 11> C 	 -54.5701 	 12.7643 	 21.3554
| 12> H 	 -52.8105 	 12.2973 	 20.2076
| 13> C 	 -54.046 	 10.0743 	 18.7443
| 14> H 	 -54.6026 	 9.18021 	 18.6641
| 15> H 	 -53.0287 	 9.74675 	 19.136
| 16> C 	 -53.8413 	 10.8025 	 17.3974
| 17> H 	 -53.1623 	 10.1722 	 16.8
| 18> H 	 -54.7916 	 10.628 	 16.8335
| 19> C 	 -53.3667 	 12.2658 	 17.3935
| 20> H 	 -53.1245 	 12.4532 	 16.3308
| 21> H 	 -54.2287 	 12.8299 	 17.6236
| 22> H 	 -52.4328 	 12.384 	 18.0466
| 23> S 	 -55.521 	 14.9452 	 22.686
| 24> C 	 -54.4086 	 15.9357 	 23.5246
| 25> C 	 -53.0729 	 15.5993 	 23.3533
| 26> C 	 -52.9712 	 14.4713 	 22.5278
| 27> C 	 -54.1878 	 13.9232 	 22.1256
| 28> H 	 -52.3507 	 16.2794 	 23.8029
| 29> C 	 -51.5742 	 13.9743 	 22.0884
| 30> H 	 -51.5947 	 12.8215 	 22.1196
| 31> H 	 -50.8658 	 14.244 	 22.9207
| 32> C 	 -51.0811 	 14.6038 	 20.7782
| 33> H 	 -51.0457 	 15.7635 	 20.829
| 34> H 	 -51.7829 	 14.4807 	 19.9989
| 35> C 	 -49.6564 	 14.0452 	 20.3913
| 36> H 	 -49.5999 	 12.9637 	 20.5229
| 37> H 	 -48.875 	 14.5479 	 21.0073
| 38> H 	 -49.4852 	 14.3016 	 19.3237
| 39> H 	 -56.5987 	 10.1217 	 20.0905
| 40> H 	 -54.6483 	 16.9132 	 23.9841
| 41> *
| 42>
| 43>                          ****END OF INPUT****

CARTESIAN COORDINATES (ANGSTROEM)
---------------------------------
  S    -56.275000   12.254300   21.386100
  C    -55.862700   10.820200   20.403700
  C    -54.589000   10.957400   19.880800
  C    -53.830800   12.058400   20.442400
  C    -54.570100   12.764300   21.355400
  H    -52.810500   12.297300   20.207600
  C    -54.046000   10.074300   18.744300
  H    -54.602600    9.180210   18.664100
  H    -53.028700    9.746750   19.136000
  C    -53.841300   10.802500   17.397400
  H    -53.162300   10.172200   16.800000
  H    -54.791600   10.628000   16.833500
  C    -53.366700   12.265800   17.393500
  H    -53.124500   12.453200   16.330800
  H    -54.228700   12.829900   17.623600
  H    -52.432800   12.384000   18.046600
  S    -55.521000   14.945200   22.686000
  C    -54.408600   15.935700   23.524600
  C    -53.072900   15.599300   23.353300
  C    -52.971200   14.471300   22.527800
  C    -54.187800   13.923200   22.125600
  H    -52.350700   16.279400   23.802900
  C    -51.574200   13.974300   22.088400
  H    -51.594700   12.821500   22.119600
  H    -50.865800   14.244000   22.920700
  C    -51.081100   14.603800   20.778200
  H    -51.045700   15.763500   20.829000
  H    -51.782900   14.480700   19.998900
  C    -49.656400   14.045200   20.391300
  H    -49.599900   12.963700   20.522900
  H    -48.875000   14.547900   21.007300
  H    -49.485200   14.301600   19.323700
  H    -56.598700   10.121700   20.090500
  H    -54.648300   16.913200   23.984100

 Total Charge           Charge          ....    0
 Multiplicity           Mult            ....    1
 Number of Electrons    NEL             ....  134
 Basis Dimension        Dim             ....  322

ORBITAL ENERGIES
----------------

  NO   OCC          E(Eh)            E(eV)
   0   2.0000     -88.968120     -2420.9456
   1   2.0000     -88.962299     -2420.7872
   2   2.0000     -10.332174      -281.1528
   3   2.0000     -10.326932      -281.0101
   4   2.0000     -10.315610      -280.7020
   5   2.0000     -10.312111      -280.6068
   6   2.0000     -10.305477      -280.4263
   7   2.0000     -10.304331      -280.3951
   8   2.0000     -10.303939      -280.3844
   9   2.0000     -10.296562      -280.1837
  10   2.0000     -10.293788      -280.1082
  11   2.0000     -10.293333      -280.0958
  12   2.0000     -10.292766      -280.0804
  13   2.0000     -10.290639      -280.0225
  14   2.0000     -10.288870      -279.9744
  15   2.0000     -10.285333      -279.8781
  16   2.0000      -8.083259      -219.9567
  17   2.0000      -8.076348      -219.7686
  18   2.0000      -6.041592      -164.4001
  19   2.0000      -6.037804      -164.2970
  20   2.0000      -6.035099      -164.2234
  21   2.0000      -6.034104      -164.1963
  22   2.0000      -6.031289      -164.1197
  23   2.0000      -6.026573      -163.9914
  24   2.0000      -1.008094       -27.4316
  25   2.0000      -0.980457       -26.6796
  26   2.0000      -0.907533       -24.6952
  27   2.0000      -0.904080       -24.6013
  28   2.0000      -0.869117       -23.6499
  29   2.0000      -0.852826       -23.2066
  30   2.0000      -0.838447       -22.8153
  31   2.0000      -0.816157       -22.2088
  32   2.0000      -0.783276       -21.3140
  33   2.0000      -0.769579       -20.9413
  34   2.0000      -0.707183       -19.2434
  35   2.0000      -0.695677       -18.9303
  36   2.0000      -0.693575       -18.8731
  37   2.0000      -0.662540       -18.0286
  38   2.0000      -0.637359       -17.3434
  39   2.0000      -0.619417       -16.8552
  40   2.0000      -0.589566       -16.0429
  41   2.0000      -0.564337       -15.3564
  42   2.0000      -0.560025       -15.2391
  43   2.0000      -0.548786       -14.9332
  44   2.0000      -0.540901       -14.7187
  45   2.0000      -0.525608       -14.3025
  46   2.0000      -0.517511       -14.0822
  47   2.0000      -0.509426       -13.8622
  48   2.0000      -0.504756       -13.7351
  49   2.0000      -0.499101       -13.5812
  50   2.0000      -0.489638       -13.3237
  51   2.0000      -0.477733       -12.9998
  52   2.0000      -0.469657       -12.7800
  53   2.0000      -0.464609       -12.6426
  54   2.0000      -0.457508       -12.4494
  55   2.0000      -0.455211       -12.3869
  56   2.0000      -0.449177       -12.2227
  57   2.0000      -0.439551       -11.9608
  58   2.0000      -0.434003       -11.8098
  59   2.0000      -0.423783       -11.5317
  60   2.0000      -0.415434       -11.3045
  61   2.0000      -0.412278       -11.2187
  62   2.0000      -0.403244       -10.9728
  63   2.0000      -0.360625        -9.8131
  64   2.0000      -0.339070        -9.2266
  65   2.0000      -0.324391        -8.8271
  66   2.0000      -0.278307        -7.5731
  67   0.0000       0.018670         0.5081
  68   0.0000       0.073933         2.0118
  69   0.0000       0.096103         2.6151
  70   0.0000       0.118133         3.2146
  71   0.0000       0.125080         3.4036

MULLIKEN ATOMIC CHARGES
-----------------------
   0 S :    0.068798
   1 C :   -0.102666
   2 C :   -0.097789
   3 C :   -0.003804
   4 C :   -0.077759
   5 H :   -0.011165
   6 C :    0.080947
   7 H :    0.010649
   8 H :    0.028516
   9 C :   -0.117388
  10 H :    0.024869
  11 H :    0.028538
  12 C :   -0.029892
  13 H :    0.038442
  14 H :    0.052673
  15 H :    0.051080
  16 S :    0.104445
  17 C :   -0.093183
  18 C :   -0.048399
  19 C :   -0.046405
  20 C :   -0.118859
  21 H :    0.024873
  22 C :   -0.000048
  23 H :    0.050619
  24 H :    0.028804
  25 C :   -0.075530
  26 H :    0.039108
  27 H :    0.019811
  28 C :   -0.052641
  29 H :    0.036009
  30 H :    0.045190
  31 H :    0.041643
  32 H :    0.038560
  33 H :    0.061953
Sum of atomic charges:   -0.0000000

LOEWDIN ATOMIC CHARGES
----------------------
   0 S :    0.358012
   1 C :   -0.184930
   2 C :   -0.054726
   3 C :   -0.067452
   4 C :   -0.164611
   5 H :    0.025086
   6 C :   -0.033257
   7 H :    0.023032
   8 H :    0.032987
   9 C :   -0.049076
  10 H :    0.022124
  11 H :    0.027249
  12 C :   -0.063500
  13 H :    0.033387
  14 H :    0.027101
  15 H :    0.034461
  16 S :    0.414269
  17 C :   -0.197489
  18 C :   -0.077077
  19 C :   -0.056695
  20 C :   -0.191461
  21 H :    0.038524
  22 C :   -0.042236
  23 H :    0.037332
  24 H :    0.033223
  25 C :   -0.046571
  26 H :    0.036964
  27 H :    0.013232
  28 C :   -0.067504
  29 H :    0.023194
  30 H :    0.030787
  31 H :    0.030419
  32 H :    0.021228
  33 H :    0.033975

  Mayer bond orders larger than 0.100000
B(  0-S ,  1-C ) :   1.0977 B(  0-S ,  4-C ) :   1.1248 B(  1-C ,  2-C ) :   1.6479
B(  1-C , 32-H ) :   0.9744 B(  2-C ,  3-C ) :   1.1905 B(  2-C ,  6-C ) :   1.0236
B(  3-C ,  4-C ) :   1.5890 B(  3-C ,  5-H ) :   0.9938 B(  4-C , 20-C ) :   1.1024
B(  6-C ,  7-H ) :   0.9443 B(  6-C ,  8-H ) :   0.9388 B(  6-C ,  9-C ) :   1.0587
B(  9-C , 10-H ) :   0.9562 B(  9-C , 11-H ) :   0.9550 B(  9-C , 12-C ) :   1.0851
B( 12-C , 13-H ) :   0.9677 B( 12-C , 14-H ) :   0.9669 B( 12-C , 15-H ) :   0.9678
B( 16-S , 17-C ) :   1.1782 B( 16-S , 20-C ) :   1.1285 B( 17-C , 18-C ) :   1.6010
B( 17-C , 33-H ) :   0.9572 B( 18-C , 19-C ) :   1.2591 B( 18-C , 21-H ) :   0.9937
B( 19-C , 20-C ) :   1.5758 B( 19-C , 22-C ) :   1.0332 B( 22-C , 23-H ) :   0.9368
B( 22-C , 24-H ) :   0.9380 B( 22-C , 25-C ) :   1.0523 B( 25-C , 26-H ) :   0.9505
B( 25-C , 27-H ) :   0.9589 B( 25-C , 28-C ) :   1.0663 B( 28-C , 29-H ) :   0.9772
B( 28-C , 30-H ) :   0.9774 B( 28-C , 31-H ) :   0.9755

Dispersion correction           -0.015240951
FINAL SINGLE POINT ENERGY     -1339.874186870422

DIPOLE MOMENT
-------------
                                X             Y             Z
Electronic contribution:    -23.94805       4.58787      18.34606
Nuclear contribution   :     24.54821      -4.48663     -18.82221
                        -----------------------------------------
Total Dipole Moment    :      0.60016       0.10124      -0.47615
                        -----------------------------------------
Magnitude (a.u.)       :      0.77277
Magnitude (Debye)      :      1.96421

Rotational constants in cm-1:     0.016761     0.011000     0.007250
Rotational constants in MHz :   502.483541   329.766705   217.345934

                             ****ORCA TERMINATED NORMALLY****
TOTAL RUN TIME: 0 days 0 hours 0 minutes 21 seconds 508 msec
