                         Program Version 4.2.1 -  RELEASE  -
|  1> ! wB97X-D3 SP def2-SVP
|  2> %pal
|  3> nprocs 24
|  4> end
|  5>
|  6> * xyz 0 1
|  7> S 	 -95.5814 	 -26.7293 	 -64.619
|  8> C 	 -96.2172 	 -25.1741 	 -65.0735
|  9> C 	 -95.6467 	 -24.1192 	 -64.3604
| 10> C 	 -94.6103 	 -24.6197 	 -63.5337
| 11> C 	 -94.5099 	 -25.9926 	 -63.4624
| 12> H 	 -94.0018 	 -24.0457 	 -63.0276
| 13> C 	 -95.9357 	 -22.6261 	 -64.4692
| 14> H 	 -95.6998 	 -22.2524 	 -65.5336
| 15> H 	 -95.1695 	 -22.1113 	 -63.8326
| 16> C 	 -97.33 	 -22.0886 	 -63.9981
| 17> H 	 -97.6305 	 -21.2373 	 -64.5874
| 18> H 	 -97.9272 	 -22.8752 	 -64.4012
| 19> C 	 -97.4907 	 -21.7328 	 -62.5285
| 20> H 	 -96.8536 	 -20.7891 	 -62.4402
| 21> H 	 -98.4652 	 -21.2974 	 -62.3374
| 22> H 	 -97.1581 	 -22.4769 	 -61.861
| 23> S 	 -92.2068 	 -27.501 	 -63.2532
| 24> C 	 -91.8537 	 -28.1485 	 -61.6413
| 25> C 	 -92.7677 	 -27.7686 	 -60.7036
| 26> C 	 -93.7425 	 -26.8755 	 -61.2389
| 27> C 	 -93.6331 	 -26.7492 	 -62.6109
| 28> H 	 -92.6444 	 -28.2413 	 -59.7362
| 29> C 	 -94.9861 	 -26.3977 	 -60.5185
| 30> H 	 -95.896 	 -27.051 	 -60.6161
| 31> H 	 -95.2242 	 -25.4553 	 -60.8869
| 32> C 	 -94.7628 	 -26.2358 	 -58.9739
| 33> H 	 -93.8741 	 -25.7155 	 -58.7393
| 34> H 	 -94.4019 	 -27.1111 	 -58.4206
| 35> C 	 -95.9571 	 -25.6112 	 -58.3438
| 36> H 	 -96.9195 	 -25.8098 	 -58.8149
| 37> H 	 -95.9629 	 -24.5113 	 -58.1676
| 38> H 	 -96.0299 	 -26.1956 	 -57.3804
| 39> H 	 -96.8855 	 -25.1081 	 -65.8991
| 40> H 	 -91.1343 	 -28.9347 	 -61.4569
| 41> *
| 42>
| 43>                          ****END OF INPUT****

CARTESIAN COORDINATES (ANGSTROEM)
---------------------------------
  S    -95.581400  -26.729300  -64.619000
  C    -96.217200  -25.174100  -65.073500
  C    -95.646700  -24.119200  -64.360400
  C    -94.610300  -24.619700  -63.533700
  C    -94.509900  -25.992600  -63.462400
  H    -94.001800  -24.045700  -63.027600
  C    -95.935700  -22.626100  -64.469200
  H    -95.699800  -22.252400  -65.533600
  H    -95.169500  -22.111300  -63.832600
  C    -97.330000  -22.088600  -63.998100
  H    -97.630500  -21.237300  -64.587400
  H    -97.927200  -22.875200  -64.401200
  C    -97.490700  -21.732800  -62.528500
  H    -96.853600  -20.789100  -62.440200
  H    -98.465200  -21.297400  -62.337400
  H    -97.158100  -22.476900  -61.861000
  S    -92.206800  -27.501000  -63.253200
  C    -91.853700  -28.148500  -61.641300
  C    -92.767700  -27.768600  -60.703600
  C    -93.742500  -26.875500  -61.238900
  C    -93.633100  -26.749200  -62.610900
  H    -92.644400  -28.241300  -59.736200
  C    -94.986100  -26.397700  -60.518500
  H    -95.896000  -27.051000  -60.616100
  H    -95.224200  -25.455300  -60.886900
  C    -94.762800  -26.235800  -58.973900
  H    -93.874100  -25.715500  -58.739300
  H    -94.401900  -27.111100  -58.420600
  C    -95.957100  -25.611200  -58.343800
  H    -96.919500  -25.809800  -58.814900
  H    -95.962900  -24.511300  -58.167600
  H    -96.029900  -26.195600  -57.380400
  H    -96.885500  -25.108100  -65.899100
  H    -91.134300  -28.934700  -61.456900

 Total Charge           Charge          ....    0
 Multiplicity           Mult            ....    1
 Number of Electrons    NEL             ....  134
 Basis Dimension        Dim             ....  322

ORBITAL ENERGIES
----------------

  NO   OCC          E(Eh)            E(eV)
   0   2.0000     -88.966447     -2420.9001
   1   2.0000     -88.964508     -2420.8473
   2   2.0000     -10.321860      -280.8721
   3   2.0000     -10.319189      -280.7994
   4   2.0000     -10.314412      -280.6694
   5   2.0000     -10.313579      -280.6468
   6   2.0000     -10.303021      -280.3595
   7   2.0000     -10.302213      -280.3375
   8   2.0000     -10.300732      -280.2972
   9   2.0000     -10.293192      -280.0920
  10   2.0000     -10.287761      -279.9442
  11   2.0000     -10.284131      -279.8454
  12   2.0000     -10.281976      -279.7868
  13   2.0000     -10.280851      -279.7562
  14   2.0000     -10.278539      -279.6933
  15   2.0000     -10.278014      -279.6790
  16   2.0000      -8.081531      -219.9096
  17   2.0000      -8.079343      -219.8501
  18   2.0000      -6.039865      -164.3531
  19   2.0000      -6.037750      -164.2955
  20   2.0000      -6.035886      -164.2448
  21   2.0000      -6.033906      -164.1909
  22   2.0000      -6.032587      -164.1550
  23   2.0000      -6.030138      -164.0884
  24   2.0000      -1.009170       -27.4609
  25   2.0000      -0.985157       -26.8075
  26   2.0000      -0.908225       -24.7141
  27   2.0000      -0.907676       -24.6991
  28   2.0000      -0.872530       -23.7428
  29   2.0000      -0.855079       -23.2679
  30   2.0000      -0.850377       -23.1399
  31   2.0000      -0.816294       -22.2125
  32   2.0000      -0.782416       -21.2906
  33   2.0000      -0.766475       -20.8568
  34   2.0000      -0.708482       -19.2788
  35   2.0000      -0.705913       -19.2089
  36   2.0000      -0.700124       -19.0514
  37   2.0000      -0.657640       -17.8953
  38   2.0000      -0.649306       -17.6685
  39   2.0000      -0.615939       -16.7606
  40   2.0000      -0.597680       -16.2637
  41   2.0000      -0.573829       -15.6147
  42   2.0000      -0.562520       -15.3069
  43   2.0000      -0.558101       -15.1867
  44   2.0000      -0.538222       -14.6458
  45   2.0000      -0.526015       -14.3136
  46   2.0000      -0.509135       -13.8543
  47   2.0000      -0.508388       -13.8339
  48   2.0000      -0.504603       -13.7309
  49   2.0000      -0.495617       -13.4864
  50   2.0000      -0.489500       -13.3200
  51   2.0000      -0.483833       -13.1658
  52   2.0000      -0.476717       -12.9721
  53   2.0000      -0.471197       -12.8219
  54   2.0000      -0.458684       -12.4814
  55   2.0000      -0.454116       -12.3571
  56   2.0000      -0.449726       -12.2377
  57   2.0000      -0.439794       -11.9674
  58   2.0000      -0.433191       -11.7877
  59   2.0000      -0.427559       -11.6345
  60   2.0000      -0.409248       -11.1362
  61   2.0000      -0.405764       -11.0414
  62   2.0000      -0.400884       -10.9086
  63   2.0000      -0.339523        -9.2389
  64   2.0000      -0.331955        -9.0330
  65   2.0000      -0.323132        -8.7929
  66   2.0000      -0.302753        -8.2383
  67   0.0000       0.036430         0.9913
  68   0.0000       0.061016         1.6603
  69   0.0000       0.119975         3.2647
  70   0.0000       0.122770         3.3407
  71   0.0000       0.124740         3.3944

MULLIKEN ATOMIC CHARGES
-----------------------
   0 S :    0.120694
   1 C :   -0.126458
   2 C :   -0.058378
   3 C :    0.110887
   4 C :   -0.199630
   5 H :   -0.061900
   6 C :   -0.000694
   7 H :    0.054515
   8 H :    0.016592
   9 C :   -0.043836
  10 H :    0.018891
  11 H :    0.012393
  12 C :   -0.028930
  13 H :    0.027180
  14 H :    0.036466
  15 H :    0.043805
  16 S :    0.114133
  17 C :   -0.093734
  18 C :   -0.047400
  19 C :   -0.020770
  20 C :   -0.152665
  21 H :    0.024399
  22 C :    0.114037
  23 H :    0.054072
  24 H :    0.005625
  25 C :   -0.085733
  26 H :    0.003155
  27 H :    0.016458
  28 C :   -0.051090
  29 H :    0.025867
  30 H :    0.048135
  31 H :    0.030464
  32 H :    0.040732
  33 H :    0.052716
Sum of atomic charges:    0.0000000

LOEWDIN ATOMIC CHARGES
----------------------
   0 S :    0.421263
   1 C :   -0.191272
   2 C :   -0.066002
   3 C :   -0.037467
   4 C :   -0.201136
   5 H :    0.002386
   6 C :   -0.039047
   7 H :    0.044001
   8 H :    0.027269
   9 C :   -0.044267
  10 H :    0.024148
  11 H :    0.016182
  12 C :   -0.060326
  13 H :    0.035043
  14 H :    0.029823
  15 H :    0.020391
  16 S :    0.400235
  17 C :   -0.175343
  18 C :   -0.071079
  19 C :   -0.054282
  20 C :   -0.207797
  21 H :    0.036229
  22 C :   -0.020537
  23 H :    0.040976
  24 H :    0.020846
  25 C :   -0.055069
  26 H :    0.020356
  27 H :    0.022679
  28 C :   -0.075022
  29 H :    0.023323
  30 H :    0.030400
  31 H :    0.037227
  32 H :    0.018484
  33 H :    0.027388

  Mayer bond orders larger than 0.100000
B(  0-S ,  1-C ) :   1.1657 B(  0-S ,  4-C ) :   1.1561 B(  1-C ,  2-C ) :   1.5668
B(  1-C ,  4-C ) :   0.1011 B(  1-C , 32-H ) :   0.9750 B(  2-C ,  3-C ) :   1.2701
B(  2-C ,  6-C ) :   1.0176 B(  3-C ,  4-C ) :   1.5664 B(  3-C ,  5-H ) :   1.0156
B(  4-C , 20-C ) :   1.0235 B(  6-C ,  7-H ) :   0.9412 B(  6-C ,  8-H ) :   0.9471
B(  6-C ,  9-C ) :   1.0486 B(  9-C , 10-H ) :   0.9546 B(  9-C , 11-H ) :   0.9589
B(  9-C , 12-C ) :   1.0807 B( 12-C , 13-H ) :   0.9696 B( 12-C , 14-H ) :   0.9710
B( 12-C , 15-H ) :   0.9800 B( 16-S , 17-C ) :   1.1417 B( 16-S , 20-C ) :   1.1490
B( 17-C , 18-C ) :   1.6529 B( 17-C , 33-H ) :   0.9609 B( 18-C , 19-C ) :   1.2043
B( 18-C , 21-H ) :   0.9908 B( 19-C , 20-C ) :   1.6119 B( 19-C , 22-C ) :   1.0526
B( 22-C , 23-H ) :   0.9357 B( 22-C , 24-H ) :   0.9185 B( 22-C , 25-C ) :   1.0593
B( 25-C , 26-H ) :   0.9480 B( 25-C , 27-H ) :   0.9575 B( 25-C , 28-C ) :   1.0695
B( 28-C , 29-H ) :   0.9743 B( 28-C , 30-H ) :   0.9754 B( 28-C , 31-H ) :   0.9748

Dispersion correction           -0.014045208
FINAL SINGLE POINT ENERGY     -1339.850471299799

DIPOLE MOMENT
-------------
                                X             Y             Z
Electronic contribution:     15.39446     -19.87555     -17.75458
Nuclear contribution   :    -15.61811      20.22175      18.08779
                        -----------------------------------------
Total Dipole Moment    :     -0.22365       0.34620       0.33321
                        -----------------------------------------
Magnitude (a.u.)       :      0.53000
Magnitude (Debye)      :      1.34716

Rotational constants in cm-1:     0.016853     0.009375     0.006747
Rotational constants in MHz :   505.235203   281.056769   202.276004

                             ****ORCA TERMINATED NORMALLY****
TOTAL RUN TIME: 0 days 0 hours 0 minutes 21 seconds 576 msec
