                         Program Version 4.2.1 -  RELEASE  -
|  1> ! wB97X-D3 SP def2-SVP
|  2> %pal
|  3> nprocs 24
|  4> end
|  5>
|  6> * xyz 0 1
|  7> S 	 -41.1625 	 10.6476 	 29.3107
|  8> C 	 -42.8653 	 10.1634 	 29.3235
|  9> C 	 -43.3739 	 9.92978 	 28.0855
| 10> C 	 -42.373 	 10.1201 	 27.04
| 11> C 	 -41.1057 	 10.4202 	 27.5791
| 12> H 	 -42.5762 	 9.99896 	 26.0124
| 13> C 	 -44.8389 	 9.62622 	 27.8205
| 14> H 	 -45.004 	 8.61337 	 28.3219
| 15> H 	 -45.1019 	 9.45382 	 26.8027
| 16> C 	 -45.8779 	 10.669 	 28.4186
| 17> H 	 -46.9023 	 10.2189 	 28.4171
| 18> H 	 -45.6304 	 10.8148 	 29.4418
| 19> C 	 -45.8623 	 12.0208 	 27.6598
| 20> H 	 -45.956 	 12.0079 	 26.5817
| 21> H 	 -46.6299 	 12.7809 	 27.918
| 22> H 	 -44.9385 	 12.5415 	 27.9796
| 23> S 	 -39.0594 	 8.76463 	 26.7964
| 24> C 	 -37.747 	 9.34055 	 25.7683
| 25> C 	 -37.966 	 10.6991 	 25.4912
| 26> C 	 -39.1357 	 11.2697 	 26.1023
| 27> C 	 -39.8208 	 10.3557 	 26.9181
| 28> H 	 -37.4057 	 11.1103 	 24.7748
| 29> C 	 -39.575 	 12.6793 	 25.8339
| 30> H 	 -38.6298 	 13.3443 	 26.0264
| 31> H 	 -40.3217 	 12.9817 	 26.6122
| 32> C 	 -40.0956 	 13.0779 	 24.4793
| 33> H 	 -39.4667 	 13.0611 	 23.5633
| 34> H 	 -40.4623 	 14.1573 	 24.5764
| 35> C 	 -41.3638 	 12.2884 	 24.2793
| 36> H 	 -41.8126 	 12.8274 	 23.4521
| 37> H 	 -42.0837 	 12.3038 	 25.0836
| 38> H 	 -41.1215 	 11.2392 	 24.0257
| 39> H 	 -43.3939 	 10.1966 	 30.2096
| 40> H 	 -36.9809 	 8.70064 	 25.2662
| 41> *
| 42>
| 43>                          ****END OF INPUT****

CARTESIAN COORDINATES (ANGSTROEM)
---------------------------------
  S    -41.162500   10.647600   29.310700
  C    -42.865300   10.163400   29.323500
  C    -43.373900    9.929780   28.085500
  C    -42.373000   10.120100   27.040000
  C    -41.105700   10.420200   27.579100
  H    -42.576200    9.998960   26.012400
  C    -44.838900    9.626220   27.820500
  H    -45.004000    8.613370   28.321900
  H    -45.101900    9.453820   26.802700
  C    -45.877900   10.669000   28.418600
  H    -46.902300   10.218900   28.417100
  H    -45.630400   10.814800   29.441800
  C    -45.862300   12.020800   27.659800
  H    -45.956000   12.007900   26.581700
  H    -46.629900   12.780900   27.918000
  H    -44.938500   12.541500   27.979600
  S    -39.059400    8.764630   26.796400
  C    -37.747000    9.340550   25.768300
  C    -37.966000   10.699100   25.491200
  C    -39.135700   11.269700   26.102300
  C    -39.820800   10.355700   26.918100
  H    -37.405700   11.110300   24.774800
  C    -39.575000   12.679300   25.833900
  H    -38.629800   13.344300   26.026400
  H    -40.321700   12.981700   26.612200
  C    -40.095600   13.077900   24.479300
  H    -39.466700   13.061100   23.563300
  H    -40.462300   14.157300   24.576400
  C    -41.363800   12.288400   24.279300
  H    -41.812600   12.827400   23.452100
  H    -42.083700   12.303800   25.083600
  H    -41.121500   11.239200   24.025700
  H    -43.393900   10.196600   30.209600
  H    -36.980900    8.700640   25.266200

 Total Charge           Charge          ....    0
 Multiplicity           Mult            ....    1
 Number of Electrons    NEL             ....  134
 Basis Dimension        Dim             ....  322

ORBITAL ENERGIES
----------------

  NO   OCC          E(Eh)            E(eV)
   0   2.0000     -88.966173     -2420.8926
   1   2.0000     -88.962811     -2420.8012
   2   2.0000     -10.331560      -281.1360
   3   2.0000     -10.325615      -280.9743
   4   2.0000     -10.324462      -280.9429
   5   2.0000     -10.309293      -280.5301
   6   2.0000     -10.305434      -280.4251
   7   2.0000     -10.304545      -280.4009
   8   2.0000     -10.300098      -280.2799
   9   2.0000     -10.300058      -280.2788
  10   2.0000     -10.296333      -280.1775
  11   2.0000     -10.295807      -280.1631
  12   2.0000     -10.290412      -280.0164
  13   2.0000     -10.287066      -279.9253
  14   2.0000     -10.281330      -279.7692
  15   2.0000     -10.269278      -279.4413
  16   2.0000      -8.080831      -219.8906
  17   2.0000      -8.076998      -219.7863
  18   2.0000      -6.039258      -164.3366
  19   2.0000      -6.035548      -164.2356
  20   2.0000      -6.035405      -164.2317
  21   2.0000      -6.031628      -164.1289
  22   2.0000      -6.031468      -164.1246
  23   2.0000      -6.027831      -164.0256
  24   2.0000      -1.001488       -27.2519
  25   2.0000      -0.978136       -26.6164
  26   2.0000      -0.913871       -24.8677
  27   2.0000      -0.905790       -24.6478
  28   2.0000      -0.866256       -23.5720
  29   2.0000      -0.846731       -23.0407
  30   2.0000      -0.844711       -22.9858
  31   2.0000      -0.812475       -22.1086
  32   2.0000      -0.781344       -21.2614
  33   2.0000      -0.768576       -20.9140
  34   2.0000      -0.708340       -19.2749
  35   2.0000      -0.704959       -19.1829
  36   2.0000      -0.688163       -18.7259
  37   2.0000      -0.658023       -17.9057
  38   2.0000      -0.649514       -17.6742
  39   2.0000      -0.612297       -16.6614
  40   2.0000      -0.594229       -16.1698
  41   2.0000      -0.577306       -15.7093
  42   2.0000      -0.553654       -15.0657
  43   2.0000      -0.546326       -14.8663
  44   2.0000      -0.543441       -14.7878
  45   2.0000      -0.534263       -14.5380
  46   2.0000      -0.520841       -14.1728
  47   2.0000      -0.515217       -14.0198
  48   2.0000      -0.499888       -13.6026
  49   2.0000      -0.495844       -13.4926
  50   2.0000      -0.490473       -13.3465
  51   2.0000      -0.476206       -12.9582
  52   2.0000      -0.467199       -12.7131
  53   2.0000      -0.463522       -12.6131
  54   2.0000      -0.459694       -12.5089
  55   2.0000      -0.447898       -12.1879
  56   2.0000      -0.443411       -12.0658
  57   2.0000      -0.435530       -11.8514
  58   2.0000      -0.429036       -11.6747
  59   2.0000      -0.426874       -11.6158
  60   2.0000      -0.416443       -11.3320
  61   2.0000      -0.412483       -11.2242
  62   2.0000      -0.403704       -10.9853
  63   2.0000      -0.335461        -9.1284
  64   2.0000      -0.323646        -8.8068
  65   2.0000      -0.316352        -8.6084
  66   2.0000      -0.312549        -8.5049
  67   0.0000       0.041095         1.1183
  68   0.0000       0.047117         1.2821
  69   0.0000       0.110964         3.0195
  70   0.0000       0.116708         3.1758
  71   0.0000       0.124616         3.3910

MULLIKEN ATOMIC CHARGES
-----------------------
   0 S :    0.117254
   1 C :   -0.110696
   2 C :   -0.079191
   3 C :    0.087581
   4 C :   -0.202004
   5 H :   -0.002612
   6 C :    0.044361
   7 H :    0.050990
   8 H :    0.015672
   9 C :   -0.056962
  10 H :    0.037401
  11 H :    0.021140
  12 C :   -0.076874
  13 H :    0.032029
  14 H :    0.033083
  15 H :    0.041582
  16 S :    0.108994
  17 C :   -0.118297
  18 C :    0.016262
  19 C :   -0.011137
  20 C :   -0.158678
  21 H :   -0.031199
  22 C :    0.018158
  23 H :    0.040649
  24 H :    0.041056
  25 C :   -0.084108
  26 H :    0.043289
  27 H :    0.036592
  28 C :   -0.054033
  29 H :    0.021121
  30 H :    0.027948
  31 H :    0.047357
  32 H :    0.021906
  33 H :    0.081365
Sum of atomic charges:   -0.0000000

LOEWDIN ATOMIC CHARGES
----------------------
   0 S :    0.405582
   1 C :   -0.174915
   2 C :   -0.062708
   3 C :   -0.041995
   4 C :   -0.202233
   5 H :    0.024249
   6 C :   -0.031996
   7 H :    0.045200
   8 H :    0.022178
   9 C :   -0.033986
  10 H :    0.027566
  11 H :    0.016581
  12 C :   -0.079110
  13 H :    0.022474
  14 H :    0.029949
  15 H :    0.031859
  16 S :    0.400793
  17 C :   -0.185534
  18 C :   -0.060202
  19 C :   -0.053241
  20 C :   -0.208580
  21 H :    0.007274
  22 C :   -0.045590
  23 H :    0.038816
  24 H :    0.038181
  25 C :   -0.049650
  26 H :    0.028459
  27 H :    0.034682
  28 C :   -0.066827
  29 H :    0.023735
  30 H :    0.020520
  31 H :    0.026408
  32 H :    0.009185
  33 H :    0.042875

  Mayer bond orders larger than 0.100000
B(  0-S ,  1-C ) :   1.1357 B(  0-S ,  4-C ) :   1.1615 B(  1-C ,  2-C ) :   1.6192
B(  1-C , 32-H ) :   0.9808 B(  2-C ,  3-C ) :   1.2262 B(  2-C ,  6-C ) :   1.0136
B(  3-C ,  4-C ) :   1.5708 B(  3-C ,  5-H ) :   1.0023 B(  4-C , 20-C ) :   1.0105
B(  6-C ,  7-H ) :   0.9385 B(  6-C ,  8-H ) :   0.9507 B(  6-C ,  9-C ) :   1.0658
B(  9-C , 10-H ) :   0.9592 B(  9-C , 11-H ) :   0.9605 B(  9-C , 12-C ) :   1.0617
B( 12-C , 13-H ) :   0.9788 B( 12-C , 14-H ) :   0.9751 B( 12-C , 15-H ) :   0.9761
B( 16-S , 17-C ) :   1.1623 B( 16-S , 20-C ) :   1.1447 B( 17-C , 18-C ) :   1.5923
B( 17-C , 20-C ) :   0.1002 B( 17-C , 33-H ) :   0.9623 B( 18-C , 19-C ) :   1.2419
B( 18-C , 21-H ) :   1.0086 B( 19-C , 20-C ) :   1.5757 B( 19-C , 22-C ) :   1.0532
B( 22-C , 23-H ) :   0.9304 B( 22-C , 24-H ) :   0.9332 B( 22-C , 25-C ) :   1.0796
B( 25-C , 26-H ) :   0.9552 B( 25-C , 27-H ) :   0.9524 B( 25-C , 28-C ) :   1.0690
B( 28-C , 29-H ) :   0.9711 B( 28-C , 30-H ) :   0.9715 B( 28-C , 31-H ) :   0.9722

Dispersion correction           -0.015577776
FINAL SINGLE POINT ENERGY     -1339.864469578617

DIPOLE MOMENT
-------------
                                X             Y             Z
Electronic contribution:     19.96531     -13.76573      11.07803
Nuclear contribution   :    -20.41937      14.00230     -11.53517
                        -----------------------------------------
Total Dipole Moment    :     -0.45406       0.23657      -0.45714
                        -----------------------------------------
Magnitude (a.u.)       :      0.68638
Magnitude (Debye)      :      1.74463

Rotational constants in cm-1:     0.021086     0.008784     0.007199
Rotational constants in MHz :   632.131864   263.325531   215.815099

                             ****ORCA TERMINATED NORMALLY****
TOTAL RUN TIME: 0 days 0 hours 0 minutes 22 seconds 339 msec
