                         Program Version 4.2.1 -  RELEASE  -
|  1> ! wB97X-D3 SP def2-SVP
|  2> %pal
|  3> nprocs 24
|  4> end
|  5>
|  6> * xyz 0 1
|  7> S 	 -109.871 	 30.5836 	 -17.445
|  8> C 	 -110.168 	 28.9038 	 -17.5643
|  9> C 	 -109.083 	 28.1508 	 -18.0809
| 10> C 	 -107.972 	 29.0177 	 -18.3279
| 11> C 	 -108.229 	 30.3648 	 -18.1285
| 12> H 	 -107.006 	 28.6934 	 -18.6948
| 13> C 	 -109.107 	 26.6532 	 -18.2764
| 14> H 	 -110.002 	 26.1853 	 -17.719
| 15> H 	 -108.176 	 26.1877 	 -17.8215
| 16> C 	 -109.183 	 26.2601 	 -19.7625
| 17> H 	 -110.135 	 26.607 	 -20.1165
| 18> H 	 -108.426 	 26.7319 	 -20.4054
| 19> C 	 -109.133 	 24.7639 	 -19.9036
| 20> H 	 -109.958 	 24.3758 	 -19.2611
| 21> H 	 -109.279 	 24.4511 	 -20.9565
| 22> H 	 -108.146 	 24.4631 	 -19.6397
| 23> S 	 -107.135 	 32.7263 	 -17.0917
| 24> C 	 -105.903 	 33.5057 	 -18.0624
| 25> C 	 -105.814 	 32.9499 	 -19.3119
| 26> C 	 -106.51 	 31.7067 	 -19.4728
| 27> C 	 -107.242 	 31.4399 	 -18.3247
| 28> H 	 -105.244 	 33.5162 	 -20.0294
| 29> C 	 -106.43 	 30.8303 	 -20.798
| 30> H 	 -107.213 	 31.1732 	 -21.3406
| 31> H 	 -106.688 	 29.7757 	 -20.6157
| 32> C 	 -105.11 	 31.0062 	 -21.4984
| 33> H 	 -104.363 	 30.6427 	 -20.8086
| 34> H 	 -104.943 	 32.0856 	 -21.8227
| 35> C 	 -104.968 	 29.9537 	 -22.6447
| 36> H 	 -105.764 	 30.1662 	 -23.3692
| 37> H 	 -105.046 	 28.8897 	 -22.416
| 38> H 	 -104.046 	 30.0997 	 -23.2504
| 39> H 	 -111.223 	 28.5888 	 -17.3647
| 40> H 	 -105.249 	 34.3406 	 -17.8888
| 41> *
| 42>
| 43>                          ****END OF INPUT****

CARTESIAN COORDINATES (ANGSTROEM)
---------------------------------
  S    -109.871000   30.583600  -17.445000
  C    -110.168000   28.903800  -17.564300
  C    -109.083000   28.150800  -18.080900
  C    -107.972000   29.017700  -18.327900
  C    -108.229000   30.364800  -18.128500
  H    -107.006000   28.693400  -18.694800
  C    -109.107000   26.653200  -18.276400
  H    -110.002000   26.185300  -17.719000
  H    -108.176000   26.187700  -17.821500
  C    -109.183000   26.260100  -19.762500
  H    -110.135000   26.607000  -20.116500
  H    -108.426000   26.731900  -20.405400
  C    -109.133000   24.763900  -19.903600
  H    -109.958000   24.375800  -19.261100
  H    -109.279000   24.451100  -20.956500
  H    -108.146000   24.463100  -19.639700
  S    -107.135000   32.726300  -17.091700
  C    -105.903000   33.505700  -18.062400
  C    -105.814000   32.949900  -19.311900
  C    -106.510000   31.706700  -19.472800
  C    -107.242000   31.439900  -18.324700
  H    -105.244000   33.516200  -20.029400
  C    -106.430000   30.830300  -20.798000
  H    -107.213000   31.173200  -21.340600
  H    -106.688000   29.775700  -20.615700
  C    -105.110000   31.006200  -21.498400
  H    -104.363000   30.642700  -20.808600
  H    -104.943000   32.085600  -21.822700
  C    -104.968000   29.953700  -22.644700
  H    -105.764000   30.166200  -23.369200
  H    -105.046000   28.889700  -22.416000
  H    -104.046000   30.099700  -23.250400
  H    -111.223000   28.588800  -17.364700
  H    -105.249000   34.340600  -17.888800

 Total Charge           Charge          ....    0
 Multiplicity           Mult            ....    1
 Number of Electrons    NEL             ....  134
 Basis Dimension        Dim             ....  322

ORBITAL ENERGIES
----------------

  NO   OCC          E(Eh)            E(eV)
   0   2.0000     -88.968029     -2420.9431
   1   2.0000     -88.967304     -2420.9234
   2   2.0000     -10.330694      -281.1125
   3   2.0000     -10.328509      -281.0530
   4   2.0000     -10.316648      -280.7303
   5   2.0000     -10.312894      -280.6281
   6   2.0000     -10.308297      -280.5030
   7   2.0000     -10.305414      -280.4246
   8   2.0000     -10.303730      -280.3787
   9   2.0000     -10.294456      -280.1264
  10   2.0000     -10.294410      -280.1251
  11   2.0000     -10.290810      -280.0272
  12   2.0000     -10.290769      -280.0261
  13   2.0000     -10.284075      -279.8439
  14   2.0000     -10.282403      -279.7984
  15   2.0000     -10.278160      -279.6830
  16   2.0000      -8.082012      -219.9227
  17   2.0000      -8.081909      -219.9199
  18   2.0000      -6.040520      -164.3709
  19   2.0000      -6.040446      -164.3689
  20   2.0000      -6.036724      -164.2676
  21   2.0000      -6.036509      -164.2618
  22   2.0000      -6.032882      -164.1631
  23   2.0000      -6.032447      -164.1512
  24   2.0000      -1.000891       -27.2356
  25   2.0000      -0.980345       -26.6765
  26   2.0000      -0.913815       -24.8662
  27   2.0000      -0.911105       -24.7924
  28   2.0000      -0.867585       -23.6082
  29   2.0000      -0.853827       -23.2338
  30   2.0000      -0.844011       -22.9667
  31   2.0000      -0.812551       -22.1106
  32   2.0000      -0.783198       -21.3119
  33   2.0000      -0.764649       -20.8072
  34   2.0000      -0.704375       -19.1670
  35   2.0000      -0.698551       -19.0085
  36   2.0000      -0.690342       -18.7852
  37   2.0000      -0.653587       -17.7850
  38   2.0000      -0.638984       -17.3876
  39   2.0000      -0.621140       -16.9021
  40   2.0000      -0.592369       -16.1192
  41   2.0000      -0.574963       -15.6455
  42   2.0000      -0.571180       -15.5426
  43   2.0000      -0.562123       -15.2961
  44   2.0000      -0.526084       -14.3155
  45   2.0000      -0.521406       -14.1882
  46   2.0000      -0.513393       -13.9701
  47   2.0000      -0.507127       -13.7996
  48   2.0000      -0.499899       -13.6030
  49   2.0000      -0.495187       -13.4747
  50   2.0000      -0.491122       -13.3641
  51   2.0000      -0.479978       -13.0609
  52   2.0000      -0.471960       -12.8427
  53   2.0000      -0.463378       -12.6092
  54   2.0000      -0.458612       -12.4795
  55   2.0000      -0.451835       -12.2950
  56   2.0000      -0.443401       -12.0656
  57   2.0000      -0.436381       -11.8745
  58   2.0000      -0.434440       -11.8217
  59   2.0000      -0.429055       -11.6752
  60   2.0000      -0.425792       -11.5864
  61   2.0000      -0.420675       -11.4472
  62   2.0000      -0.410602       -11.1730
  63   2.0000      -0.351903        -9.5758
  64   2.0000      -0.332562        -9.0495
  65   2.0000      -0.328589        -8.9414
  66   2.0000      -0.283030        -7.7016
  67   0.0000       0.030734         0.8363
  68   0.0000       0.067679         1.8416
  69   0.0000       0.109647         2.9836
  70   0.0000       0.120716         3.2849
  71   0.0000       0.126450         3.4409

MULLIKEN ATOMIC CHARGES
-----------------------
   0 S :    0.112400
   1 C :   -0.157185
   2 C :   -0.045201
   3 C :    0.011746
   4 C :   -0.146891
   5 H :    0.015675
   6 C :    0.001088
   7 H :    0.038711
   8 H :    0.040455
   9 C :   -0.078176
  10 H :    0.016882
  11 H :    0.029442
  12 C :   -0.022066
  13 H :    0.035740
  14 H :    0.035770
  15 H :    0.022897
  16 S :    0.111228
  17 C :   -0.072507
  18 C :   -0.066223
  19 C :   -0.038683
  20 C :   -0.169702
  21 H :    0.014280
  22 C :    0.142822
  23 H :    0.010220
  24 H :    0.014299
  25 C :   -0.101190
  26 H :    0.037974
  27 H :    0.057317
  28 C :   -0.064703
  29 H :    0.020719
  30 H :    0.040761
  31 H :    0.037401
  32 H :    0.069396
  33 H :    0.045303
Sum of atomic charges:    0.0000000

LOEWDIN ATOMIC CHARGES
----------------------
   0 S :    0.404197
   1 C :   -0.218101
   2 C :   -0.064852
   3 C :   -0.061566
   4 C :   -0.182492
   5 H :    0.029460
   6 C :   -0.038683
   7 H :    0.039036
   8 H :    0.034983
   9 C :   -0.044090
  10 H :    0.019281
  11 H :    0.022366
  12 C :   -0.061843
  13 H :    0.030485
  14 H :    0.028406
  15 H :    0.018706
  16 S :    0.387756
  17 C :   -0.186489
  18 C :   -0.073913
  19 C :   -0.045044
  20 C :   -0.189237
  21 H :    0.028107
  22 C :   -0.018228
  23 H :    0.019912
  24 H :    0.031913
  25 C :   -0.043241
  26 H :    0.027641
  27 H :    0.035610
  28 C :   -0.073290
  29 H :    0.022239
  30 H :    0.026322
  31 H :    0.029519
  32 H :    0.033353
  33 H :    0.031776

  Mayer bond orders larger than 0.100000
B(  0-S ,  1-C ) :   1.1623 B(  0-S ,  4-C ) :   1.1432 B(  1-C ,  2-C ) :   1.5733
B(  1-C , 32-H ) :   0.9615 B(  2-C ,  3-C ) :   1.2573 B(  2-C ,  6-C ) :   1.0283
B(  3-C ,  4-C ) :   1.5701 B(  3-C ,  5-H ) :   0.9880 B(  4-C , 20-C ) :   1.0533
B(  6-C ,  7-H ) :   0.9431 B(  6-C ,  8-H ) :   0.9441 B(  6-C ,  9-C ) :   1.0522
B(  9-C , 10-H ) :   0.9516 B(  9-C , 11-H ) :   0.9581 B(  9-C , 12-C ) :   1.0880
B( 12-C , 13-H ) :   0.9706 B( 12-C , 14-H ) :   0.9731 B( 12-C , 15-H ) :   0.9751
B( 16-S , 17-C ) :   1.1320 B( 16-S , 20-C ) :   1.1236 B( 17-C , 18-C ) :   1.6621
B( 17-C , 33-H ) :   0.9629 B( 18-C , 19-C ) :   1.2211 B( 18-C , 21-H ) :   0.9836
B( 19-C , 20-C ) :   1.6252 B( 19-C , 22-C ) :   1.0035 B( 22-C , 23-H ) :   0.9151
B( 22-C , 24-H ) :   0.9389 B( 22-C , 25-C ) :   1.0693 B( 25-C , 26-H ) :   0.9620
B( 25-C , 27-H ) :   0.9452 B( 25-C , 28-C ) :   1.0757 B( 28-C , 29-H ) :   0.9740
B( 28-C , 30-H ) :   0.9763 B( 28-C , 31-H ) :   0.9743

Dispersion correction           -0.013532868
FINAL SINGLE POINT ENERGY     -1339.870419960003

DIPOLE MOMENT
-------------
                                X             Y             Z
Electronic contribution:     -7.60021      23.30221      22.28176
Nuclear contribution   :      7.82339     -23.64318     -22.93898
                        -----------------------------------------
Total Dipole Moment    :      0.22318      -0.34097      -0.65722
                        -----------------------------------------
Magnitude (a.u.)       :      0.77331
Magnitude (Debye)      :      1.96559

Rotational constants in cm-1:     0.016215     0.009110     0.006122
Rotational constants in MHz :   486.113165   273.107353   183.531684

                             ****ORCA TERMINATED NORMALLY****
TOTAL RUN TIME: 0 days 0 hours 0 minutes 20 seconds 70 msec
