                         Program Version 4.2.1 -  RELEASE  -
|  1> ! wB97X-D3 SP def2-SVP
|  2> %pal
|  3> nprocs 24
|  4> end
|  5>
|  6> * xyz 0 1
|  7> S 	 -68.0404 	 -53.9168 	 -83.4619
|  8> C 	 -68.3698 	 -55.1147 	 -84.7629
|  9> C 	 -68.9491 	 -56.2276 	 -84.2328
| 10> C 	 -69.1882 	 -56.1057 	 -82.7734
| 11> C 	 -68.7265 	 -54.9528 	 -82.1957
| 12> H 	 -69.6079 	 -56.9048 	 -82.1033
| 13> C 	 -69.4409 	 -57.4001 	 -85.0434
| 14> H 	 -69.0253 	 -57.3753 	 -86.0635
| 15> H 	 -70.5489 	 -57.2267 	 -85.088
| 16> C 	 -69.2409 	 -58.7914 	 -84.3843
| 17> H 	 -68.205 	 -59.1384 	 -84.6855
| 18> H 	 -69.501 	 -58.7197 	 -83.3737
| 19> C 	 -70.182 	 -59.7796 	 -85.009
| 20> H 	 -70.274 	 -59.7524 	 -86.1601
| 21> H 	 -69.967 	 -60.8224 	 -84.7675
| 22> H 	 -71.2251 	 -59.6242 	 -84.6677
| 23> S 	 -69.7135 	 -53.0233 	 -80.5205
| 24> C 	 -69.8093 	 -53.3233 	 -78.8315
| 25> C 	 -69.397 	 -54.6325 	 -78.551
| 26> C 	 -68.8158 	 -55.2906 	 -79.6568
| 27> C 	 -68.8687 	 -54.5599 	 -80.8438
| 28> H 	 -69.5073 	 -54.9708 	 -77.5313
| 29> C 	 -68.2444 	 -56.7202 	 -79.4818
| 30> H 	 -68.3899 	 -57.2881 	 -80.3994
| 31> H 	 -68.7648 	 -57.2832 	 -78.6627
| 32> C 	 -66.7533 	 -56.815 	 -79.1717
| 33> H 	 -66.2522 	 -56.5432 	 -79.9853
| 34> H 	 -66.4226 	 -57.8097 	 -79.0043
| 35> C 	 -66.2004 	 -55.9559 	 -77.9929
| 36> H 	 -66.1698 	 -54.923 	 -78.3944
| 37> H 	 -65.1942 	 -56.2523 	 -77.6555
| 38> H 	 -66.8538 	 -55.9596 	 -77.1176
| 39> H 	 -68.0475 	 -55.0453 	 -85.8302
| 40> H 	 -70.3885 	 -52.6818 	 -78.238
| 41> *
| 42>
| 43>                          ****END OF INPUT****

CARTESIAN COORDINATES (ANGSTROEM)
---------------------------------
  S    -68.040400  -53.916800  -83.461900
  C    -68.369800  -55.114700  -84.762900
  C    -68.949100  -56.227600  -84.232800
  C    -69.188200  -56.105700  -82.773400
  C    -68.726500  -54.952800  -82.195700
  H    -69.607900  -56.904800  -82.103300
  C    -69.440900  -57.400100  -85.043400
  H    -69.025300  -57.375300  -86.063500
  H    -70.548900  -57.226700  -85.088000
  C    -69.240900  -58.791400  -84.384300
  H    -68.205000  -59.138400  -84.685500
  H    -69.501000  -58.719700  -83.373700
  C    -70.182000  -59.779600  -85.009000
  H    -70.274000  -59.752400  -86.160100
  H    -69.967000  -60.822400  -84.767500
  H    -71.225100  -59.624200  -84.667700
  S    -69.713500  -53.023300  -80.520500
  C    -69.809300  -53.323300  -78.831500
  C    -69.397000  -54.632500  -78.551000
  C    -68.815800  -55.290600  -79.656800
  C    -68.868700  -54.559900  -80.843800
  H    -69.507300  -54.970800  -77.531300
  C    -68.244400  -56.720200  -79.481800
  H    -68.389900  -57.288100  -80.399400
  H    -68.764800  -57.283200  -78.662700
  C    -66.753300  -56.815000  -79.171700
  H    -66.252200  -56.543200  -79.985300
  H    -66.422600  -57.809700  -79.004300
  C    -66.200400  -55.955900  -77.992900
  H    -66.169800  -54.923000  -78.394400
  H    -65.194200  -56.252300  -77.655500
  H    -66.853800  -55.959600  -77.117600
  H    -68.047500  -55.045300  -85.830200
  H    -70.388500  -52.681800  -78.238000

 Total Charge           Charge          ....    0
 Multiplicity           Mult            ....    1
 Number of Electrons    NEL             ....  134
 Basis Dimension        Dim             ....  322

ORBITAL ENERGIES
----------------

  NO   OCC          E(Eh)            E(eV)
   0   2.0000     -88.966289     -2420.8958
   1   2.0000     -88.962554     -2420.7942
   2   2.0000     -10.331487      -281.1341
   3   2.0000     -10.329962      -281.0926
   4   2.0000     -10.319069      -280.7961
   5   2.0000     -10.316923      -280.7377
   6   2.0000     -10.310505      -280.5631
   7   2.0000     -10.305378      -280.4236
   8   2.0000     -10.301603      -280.3209
   9   2.0000     -10.298298      -280.2309
  10   2.0000     -10.297571      -280.2111
  11   2.0000     -10.297155      -280.1998
  12   2.0000     -10.290802      -280.0270
  13   2.0000     -10.284624      -279.8589
  14   2.0000     -10.275818      -279.6192
  15   2.0000     -10.269889      -279.4579
  16   2.0000      -8.081314      -219.9037
  17   2.0000      -8.076359      -219.7689
  18   2.0000      -6.039641      -164.3470
  19   2.0000      -6.035679      -164.2392
  20   2.0000      -6.035267      -164.2280
  21   2.0000      -6.032321      -164.1478
  22   2.0000      -6.030986      -164.1115
  23   2.0000      -6.026738      -163.9959
  24   2.0000      -1.007075       -27.4039
  25   2.0000      -0.980242       -26.6738
  26   2.0000      -0.916247       -24.9323
  27   2.0000      -0.907832       -24.7034
  28   2.0000      -0.878000       -23.8916
  29   2.0000      -0.849458       -23.1149
  30   2.0000      -0.839534       -22.8449
  31   2.0000      -0.812938       -22.1212
  32   2.0000      -0.783546       -21.3214
  33   2.0000      -0.770365       -20.9627
  34   2.0000      -0.715444       -19.4682
  35   2.0000      -0.697683       -18.9849
  36   2.0000      -0.691696       -18.8220
  37   2.0000      -0.665986       -18.1224
  38   2.0000      -0.637431       -17.3454
  39   2.0000      -0.618952       -16.8425
  40   2.0000      -0.594968       -16.1899
  41   2.0000      -0.574499       -15.6329
  42   2.0000      -0.566239       -15.4081
  43   2.0000      -0.558484       -15.1971
  44   2.0000      -0.543959       -14.8019
  45   2.0000      -0.522747       -14.2247
  46   2.0000      -0.518497       -14.1090
  47   2.0000      -0.509520       -13.8648
  48   2.0000      -0.503808       -13.7093
  49   2.0000      -0.502835       -13.6828
  50   2.0000      -0.485241       -13.2041
  51   2.0000      -0.479683       -13.0528
  52   2.0000      -0.476728       -12.9724
  53   2.0000      -0.465682       -12.6719
  54   2.0000      -0.456527       -12.4227
  55   2.0000      -0.450411       -12.2563
  56   2.0000      -0.442247       -12.0341
  57   2.0000      -0.434734       -11.8297
  58   2.0000      -0.430017       -11.7014
  59   2.0000      -0.424468       -11.5504
  60   2.0000      -0.420950       -11.4546
  61   2.0000      -0.412225       -11.2172
  62   2.0000      -0.410733       -11.1766
  63   2.0000      -0.353086        -9.6079
  64   2.0000      -0.334826        -9.1111
  65   2.0000      -0.324150        -8.8206
  66   2.0000      -0.292931        -7.9711
  67   0.0000       0.023193         0.6311
  68   0.0000       0.068816         1.8726
  69   0.0000       0.108755         2.9594
  70   0.0000       0.115408         3.1404
  71   0.0000       0.126162         3.4330

MULLIKEN ATOMIC CHARGES
-----------------------
   0 S :    0.086671
   1 C :   -0.143435
   2 C :   -0.063451
   3 C :   -0.002687
   4 C :   -0.146761
   5 H :    0.039749
   6 C :    0.014033
   7 H :    0.028094
   8 H :    0.049854
   9 C :   -0.028600
  10 H :    0.049110
  11 H :    0.022991
  12 C :   -0.099578
  13 H :    0.037124
  14 H :    0.034376
  15 H :    0.028664
  16 S :    0.103058
  17 C :   -0.078083
  18 C :   -0.048052
  19 C :   -0.034510
  20 C :   -0.131151
  21 H :    0.023516
  22 C :    0.065340
  23 H :    0.015315
  24 H :    0.032938
  25 C :   -0.006229
  26 H :   -0.002909
  27 H :    0.013655
  28 C :   -0.084780
  29 H :    0.048315
  30 H :    0.037688
  31 H :    0.024173
  32 H :    0.066672
  33 H :    0.048892
Sum of atomic charges:    0.0000000

LOEWDIN ATOMIC CHARGES
----------------------
   0 S :    0.363839
   1 C :   -0.191857
   2 C :   -0.064620
   3 C :   -0.070926
   4 C :   -0.187182
   5 H :    0.035907
   6 C :   -0.033453
   7 H :    0.031082
   8 H :    0.040985
   9 C :   -0.037574
  10 H :    0.037231
  11 H :    0.017831
  12 C :   -0.077462
  13 H :    0.031033
  14 H :    0.023575
  15 H :    0.023786
  16 S :    0.418746
  17 C :   -0.182225
  18 C :   -0.069427
  19 C :   -0.050831
  20 C :   -0.194933
  21 H :    0.031772
  22 C :   -0.026074
  23 H :    0.027728
  24 H :    0.034596
  25 C :   -0.030147
  26 H :    0.007337
  27 H :    0.020270
  28 C :   -0.068080
  29 H :    0.031783
  30 H :    0.027490
  31 H :    0.018644
  32 H :    0.042362
  33 H :    0.018794

  Mayer bond orders larger than 0.100000
B(  0-S ,  1-C ) :   1.0988 B(  0-S ,  4-C ) :   1.1193 B(  1-C ,  2-C ) :   1.6693
B(  1-C , 32-H ) :   0.9618 B(  2-C ,  3-C ) :   1.1801 B(  2-C ,  6-C ) :   1.0230
B(  3-C ,  4-C ) :   1.6330 B(  3-C ,  5-H ) :   0.9697 B(  4-C , 20-C ) :   1.0656
B(  6-C ,  7-H ) :   0.9426 B(  6-C ,  8-H ) :   0.9443 B(  6-C ,  9-C ) :   1.0608
B(  9-C , 10-H ) :   0.9550 B(  9-C , 11-H ) :   0.9527 B(  9-C , 12-C ) :   1.0864
B( 12-C , 13-H ) :   0.9729 B( 12-C , 14-H ) :   0.9733 B( 12-C , 15-H ) :   0.9732
B( 16-S , 17-C ) :   1.1879 B( 16-S , 20-C ) :   1.1463 B( 17-C , 18-C ) :   1.5595
B( 17-C , 20-C ) :   0.1095 B( 17-C , 33-H ) :   0.9746 B( 18-C , 19-C ) :   1.2697
B( 18-C , 21-H ) :   0.9965 B( 19-C , 20-C ) :   1.5572 B( 19-C , 22-C ) :   1.0291
B( 22-C , 23-H ) :   0.9317 B( 22-C , 24-H ) :   0.9424 B( 22-C , 25-C ) :   1.0815
B( 25-C , 26-H ) :   0.9520 B( 25-C , 27-H ) :   0.9544 B( 25-C , 28-C ) :   1.0746
B( 28-C , 29-H ) :   0.9747 B( 28-C , 30-H ) :   0.9758 B( 28-C , 31-H ) :   0.9786

Dispersion correction           -0.014136114
FINAL SINGLE POINT ENERGY     -1339.869307397298

DIPOLE MOMENT
-------------
                                X             Y             Z
Electronic contribution:     -3.25725      26.63511      -1.23469
Nuclear contribution   :      3.04758     -27.38901       1.32925
                        -----------------------------------------
Total Dipole Moment    :     -0.20967      -0.75390       0.09457
                        -----------------------------------------
Magnitude (a.u.)       :      0.78821
Magnitude (Debye)      :      2.00347

Rotational constants in cm-1:     0.018315     0.008398     0.006890
Rotational constants in MHz :   549.072108   251.770034   206.556102

                             ****ORCA TERMINATED NORMALLY****
TOTAL RUN TIME: 0 days 0 hours 0 minutes 20 seconds 438 msec
