                         Program Version 4.2.1 -  RELEASE  -
|  1> ! wB97X-D3 SP def2-SVP
|  2> %pal
|  3> nprocs 24
|  4> end
|  5>
|  6> * xyz 0 1
|  7> S 	 -67.5471 	 8.22094 	 -75.0482
|  8> C 	 -68.8192 	 9.03313 	 -74.1335
|  9> C 	 -68.9734 	 8.50899 	 -72.8325
| 10> C 	 -67.9826 	 7.41673 	 -72.6737
| 11> C 	 -67.2353 	 7.03306 	 -73.7706
| 12> H 	 -67.9504 	 6.80353 	 -71.7815
| 13> C 	 -70.0386 	 8.83333 	 -71.7802
| 14> H 	 -70.0533 	 9.89683 	 -71.5603
| 15> H 	 -69.7364 	 8.39197 	 -70.865
| 16> C 	 -71.4417 	 8.38511 	 -72.0202
| 17> H 	 -71.5705 	 7.38347 	 -71.9793
| 18> H 	 -71.9965 	 8.74557 	 -71.1509
| 19> C 	 -72.1638 	 8.79012 	 -73.3149
| 20> H 	 -71.6571 	 8.19694 	 -74.0517
| 21> H 	 -73.1796 	 8.53725 	 -73.3359
| 22> H 	 -71.8755 	 9.81805 	 -73.5527
| 23> S 	 -64.6816 	 6.55804 	 -74.6226
| 24> C 	 -63.9993 	 4.8835 	 -74.5078
| 25> C 	 -64.9629 	 4.03794 	 -74.0166
| 26> C 	 -66.2027 	 4.6698 	 -73.7168
| 27> C 	 -66.2429 	 5.99643 	 -74.0021
| 28> H 	 -64.665 	 3.00206 	 -73.9196
| 29> C 	 -67.2962 	 3.8473 	 -73.129
| 30> H 	 -67.6729 	 4.37257 	 -72.2406
| 31> H 	 -66.9338 	 2.89163 	 -72.7648
| 32> C 	 -68.4839 	 3.60146 	 -74.0873
| 33> H 	 -67.9973 	 3.23026 	 -74.9707
| 34> H 	 -69.0063 	 4.52912 	 -74.3706
| 35> C 	 -69.4809 	 2.66084 	 -73.4133
| 36> H 	 -69.6556 	 2.72629 	 -72.3146
| 37> H 	 -69.1472 	 1.58985 	 -73.5856
| 38> H 	 -70.399 	 2.80075 	 -74.0075
| 39> H 	 -69.4578 	 9.82354 	 -74.5272
| 40> H 	 -62.9299 	 4.6383 	 -74.6639
| 41> *
| 42>
| 43>                          ****END OF INPUT****

CARTESIAN COORDINATES (ANGSTROEM)
---------------------------------
  S    -67.547100    8.220940  -75.048200
  C    -68.819200    9.033130  -74.133500
  C    -68.973400    8.508990  -72.832500
  C    -67.982600    7.416730  -72.673700
  C    -67.235300    7.033060  -73.770600
  H    -67.950400    6.803530  -71.781500
  C    -70.038600    8.833330  -71.780200
  H    -70.053300    9.896830  -71.560300
  H    -69.736400    8.391970  -70.865000
  C    -71.441700    8.385110  -72.020200
  H    -71.570500    7.383470  -71.979300
  H    -71.996500    8.745570  -71.150900
  C    -72.163800    8.790120  -73.314900
  H    -71.657100    8.196940  -74.051700
  H    -73.179600    8.537250  -73.335900
  H    -71.875500    9.818050  -73.552700
  S    -64.681600    6.558040  -74.622600
  C    -63.999300    4.883500  -74.507800
  C    -64.962900    4.037940  -74.016600
  C    -66.202700    4.669800  -73.716800
  C    -66.242900    5.996430  -74.002100
  H    -64.665000    3.002060  -73.919600
  C    -67.296200    3.847300  -73.129000
  H    -67.672900    4.372570  -72.240600
  H    -66.933800    2.891630  -72.764800
  C    -68.483900    3.601460  -74.087300
  H    -67.997300    3.230260  -74.970700
  H    -69.006300    4.529120  -74.370600
  C    -69.480900    2.660840  -73.413300
  H    -69.655600    2.726290  -72.314600
  H    -69.147200    1.589850  -73.585600
  H    -70.399000    2.800750  -74.007500
  H    -69.457800    9.823540  -74.527200
  H    -62.929900    4.638300  -74.663900

 Total Charge           Charge          ....    0
 Multiplicity           Mult            ....    1
 Number of Electrons    NEL             ....  134
 Basis Dimension        Dim             ....  322

ORBITAL ENERGIES
----------------

  NO   OCC          E(Eh)            E(eV)
   0   2.0000     -88.964829     -2420.8561
   1   2.0000     -88.963391     -2420.8170
   2   2.0000     -10.333843      -281.1982
   3   2.0000     -10.328545      -281.0540
   4   2.0000     -10.324810      -280.9524
   5   2.0000     -10.321353      -280.8583
   6   2.0000     -10.311714      -280.5960
   7   2.0000     -10.300511      -280.2911
   8   2.0000     -10.300016      -280.2777
   9   2.0000     -10.295311      -280.1497
  10   2.0000     -10.293062      -280.0884
  11   2.0000     -10.287621      -279.9404
  12   2.0000     -10.284918      -279.8669
  13   2.0000     -10.283694      -279.8335
  14   2.0000     -10.275231      -279.6033
  15   2.0000     -10.271337      -279.4973
  16   2.0000      -8.079013      -219.8411
  17   2.0000      -8.077171      -219.7910
  18   2.0000      -6.037658      -164.2930
  19   2.0000      -6.035887      -164.2448
  20   2.0000      -6.033508      -164.1801
  21   2.0000      -6.031837      -164.1346
  22   2.0000      -6.029727      -164.0772
  23   2.0000      -6.027717      -164.0225
  24   2.0000      -1.003253       -27.2999
  25   2.0000      -0.977289       -26.5934
  26   2.0000      -0.919039       -25.0083
  27   2.0000      -0.909258       -24.7422
  28   2.0000      -0.870656       -23.6918
  29   2.0000      -0.849091       -23.1049
  30   2.0000      -0.841962       -22.9110
  31   2.0000      -0.815069       -22.1792
  32   2.0000      -0.790502       -21.5106
  33   2.0000      -0.770780       -20.9740
  34   2.0000      -0.709557       -19.3080
  35   2.0000      -0.701187       -19.0803
  36   2.0000      -0.691260       -18.8101
  37   2.0000      -0.665664       -18.1136
  38   2.0000      -0.641291       -17.4504
  39   2.0000      -0.617880       -16.8134
  40   2.0000      -0.595420       -16.2022
  41   2.0000      -0.573236       -15.5985
  42   2.0000      -0.565604       -15.3909
  43   2.0000      -0.558862       -15.2074
  44   2.0000      -0.544238       -14.8095
  45   2.0000      -0.527414       -14.3517
  46   2.0000      -0.522052       -14.2058
  47   2.0000      -0.514209       -13.9923
  48   2.0000      -0.501578       -13.6486
  49   2.0000      -0.498813       -13.5734
  50   2.0000      -0.490501       -13.3472
  51   2.0000      -0.480024       -13.0621
  52   2.0000      -0.478021       -13.0076
  53   2.0000      -0.464196       -12.6314
  54   2.0000      -0.459696       -12.5090
  55   2.0000      -0.451184       -12.2774
  56   2.0000      -0.442515       -12.0414
  57   2.0000      -0.433858       -11.8059
  58   2.0000      -0.428783       -11.6678
  59   2.0000      -0.420784       -11.4501
  60   2.0000      -0.417306       -11.3555
  61   2.0000      -0.413847       -11.2613
  62   2.0000      -0.410311       -11.1651
  63   2.0000      -0.351028        -9.5520
  64   2.0000      -0.329696        -8.9715
  65   2.0000      -0.327483        -8.9113
  66   2.0000      -0.294068        -8.0020
  67   0.0000       0.028461         0.7745
  68   0.0000       0.062647         1.7047
  69   0.0000       0.103286         2.8106
  70   0.0000       0.120069         3.2672
  71   0.0000       0.125741         3.4216

MULLIKEN ATOMIC CHARGES
-----------------------
   0 S :    0.095791
   1 C :   -0.121994
   2 C :   -0.117822
   3 C :    0.034717
   4 C :   -0.157177
   5 H :    0.007312
   6 C :    0.104735
   7 H :    0.031938
   8 H :    0.007491
   9 C :   -0.051363
  10 H :   -0.002286
  11 H :    0.020829
  12 C :   -0.025628
  13 H :    0.027373
  14 H :    0.034915
  15 H :    0.021214
  16 S :    0.084223
  17 C :   -0.110635
  18 C :   -0.037665
  19 C :   -0.022442
  20 C :   -0.123139
  21 H :    0.022184
  22 C :    0.066334
  23 H :    0.017943
  24 H :    0.010222
  25 C :   -0.071581
  26 H :    0.028796
  27 H :    0.044081
  28 C :   -0.069714
  29 H :    0.046248
  30 H :    0.035335
  31 H :    0.040463
  32 H :    0.055120
  33 H :    0.074182
Sum of atomic charges:    0.0000000

LOEWDIN ATOMIC CHARGES
----------------------
   0 S :    0.388730
   1 C :   -0.191377
   2 C :   -0.059999
   3 C :   -0.063412
   4 C :   -0.188485
   5 H :    0.024772
   6 C :   -0.027352
   7 H :    0.034845
   8 H :    0.031090
   9 C :   -0.033893
  10 H :    0.008456
  11 H :    0.025506
  12 C :   -0.055786
  13 H :    0.024933
  14 H :    0.022404
  15 H :    0.021218
  16 S :    0.368749
  17 C :   -0.165662
  18 C :   -0.071146
  19 C :   -0.059832
  20 C :   -0.189551
  21 H :    0.034628
  22 C :   -0.030861
  23 H :    0.028158
  24 H :    0.026307
  25 C :   -0.036347
  26 H :    0.024143
  27 H :    0.027463
  28 C :   -0.076512
  29 H :    0.029950
  30 H :    0.030506
  31 H :    0.030482
  32 H :    0.029007
  33 H :    0.038868

  Mayer bond orders larger than 0.100000
B(  0-S ,  1-C ) :   1.1448 B(  0-S ,  4-C ) :   1.1242 B(  1-C ,  2-C ) :   1.6137
B(  1-C , 32-H ) :   0.9660 B(  2-C ,  3-C ) :   1.2264 B(  2-C ,  6-C ) :   1.0212
B(  3-C ,  4-C ) :   1.6119 B(  3-C ,  5-H ) :   0.9864 B(  4-C , 20-C ) :   1.0318
B(  6-C ,  7-H ) :   0.9357 B(  6-C ,  8-H ) :   0.9290 B(  6-C ,  9-C ) :   1.0898
B(  9-C , 10-H ) :   0.9533 B(  9-C , 11-H ) :   0.9478 B(  9-C , 12-C ) :   1.0805
B( 12-C , 13-H ) :   0.9706 B( 12-C , 14-H ) :   0.9717 B( 12-C , 15-H ) :   0.9763
B( 16-S , 17-C ) :   1.1332 B( 16-S , 20-C ) :   1.1208 B( 17-C , 18-C ) :   1.6349
B( 17-C , 33-H ) :   0.9631 B( 18-C , 19-C ) :   1.2072 B( 18-C , 21-H ) :   0.9934
B( 19-C , 20-C ) :   1.6312 B( 19-C , 22-C ) :   1.0548 B( 22-C , 23-H ) :   0.9223
B( 22-C , 24-H ) :   0.9374 B( 22-C , 25-C ) :   1.0612 B( 25-C , 26-H ) :   0.9546
B( 25-C , 27-H ) :   0.9605 B( 25-C , 28-C ) :   1.0710 B( 28-C , 29-H ) :   0.9743
B( 28-C , 30-H ) :   0.9745 B( 28-C , 31-H ) :   0.9759

Dispersion correction           -0.014426526
FINAL SINGLE POINT ENERGY     -1339.869501408151

DIPOLE MOMENT
-------------
                                X             Y             Z
Electronic contribution:     25.78449       9.11268     -10.45381
Nuclear contribution   :    -26.21518      -9.59422      10.94336
                        -----------------------------------------
Total Dipole Moment    :     -0.43069      -0.48154       0.48955
                        -----------------------------------------
Magnitude (a.u.)       :      0.81058
Magnitude (Debye)      :      2.06033

Rotational constants in cm-1:     0.019363     0.008929     0.006774
Rotational constants in MHz :   580.497444   267.673974   203.088909

                             ****ORCA TERMINATED NORMALLY****
TOTAL RUN TIME: 0 days 0 hours 0 minutes 21 seconds 936 msec
