                         Program Version 4.2.1 -  RELEASE  -
|  1> ! wB97X-D3 SP def2-SVP
|  2> %pal
|  3> nprocs 24
|  4> end
|  5>
|  6> * xyz 0 1
|  7> S 	 -127.109 	 58.1455 	 -57.5502
|  8> C 	 -126.373 	 58.2951 	 -59.0976
|  9> C 	 -127.351 	 58.4438 	 -60.1006
| 10> C 	 -128.637 	 58.4837 	 -59.5464
| 11> C 	 -128.721 	 58.4378 	 -58.1813
| 12> H 	 -129.548 	 58.6508 	 -60.0914
| 13> C 	 -127.028 	 58.502 	 -61.5708
| 14> H 	 -125.951 	 58.2499 	 -61.6553
| 15> H 	 -127.119 	 59.6222 	 -61.8091
| 16> C 	 -128.006 	 57.7865 	 -62.5131
| 17> H 	 -128.111 	 56.7661 	 -62.1324
| 18> H 	 -128.92 	 58.3065 	 -62.2419
| 19> C 	 -127.585 	 57.8754 	 -63.9767
| 20> H 	 -127.946 	 57.0896 	 -64.6385
| 21> H 	 -127.958 	 58.7957 	 -64.4366
| 22> H 	 -126.493 	 57.9239 	 -64.1308
| 23> S 	 -130.827 	 56.8926 	 -57.5048
| 24> C 	 -132.097 	 57.5009 	 -56.5075
| 25> C 	 -131.995 	 58.8448 	 -56.305
| 26> C 	 -130.711 	 59.3392 	 -56.7052
| 27> C 	 -129.914 	 58.3875 	 -57.3884
| 28> H 	 -132.693 	 59.3203 	 -55.61
| 29> C 	 -130.431 	 60.7741 	 -56.3125
| 30> H 	 -129.309 	 60.9357 	 -56.3589
| 31> H 	 -130.661 	 60.8263 	 -55.2847
| 32> C 	 -131.235 	 61.8834 	 -57.073
| 33> H 	 -132.367 	 61.6873 	 -57.0108
| 34> H 	 -131.001 	 61.9024 	 -58.1789
| 35> C 	 -130.875 	 63.2522 	 -56.5549
| 36> H 	 -131.649 	 63.9462 	 -56.7849
| 37> H 	 -129.949 	 63.6948 	 -56.9544
| 38> H 	 -130.705 	 63.3431 	 -55.4645
| 39> H 	 -125.29 	 58.442 	 -59.1958
| 40> H 	 -132.984 	 56.8934 	 -56.1688
| 41> *
| 42>
| 43>                          ****END OF INPUT****

CARTESIAN COORDINATES (ANGSTROEM)
---------------------------------
  S    -127.109000   58.145500  -57.550200
  C    -126.373000   58.295100  -59.097600
  C    -127.351000   58.443800  -60.100600
  C    -128.637000   58.483700  -59.546400
  C    -128.721000   58.437800  -58.181300
  H    -129.548000   58.650800  -60.091400
  C    -127.028000   58.502000  -61.570800
  H    -125.951000   58.249900  -61.655300
  H    -127.119000   59.622200  -61.809100
  C    -128.006000   57.786500  -62.513100
  H    -128.111000   56.766100  -62.132400
  H    -128.920000   58.306500  -62.241900
  C    -127.585000   57.875400  -63.976700
  H    -127.946000   57.089600  -64.638500
  H    -127.958000   58.795700  -64.436600
  H    -126.493000   57.923900  -64.130800
  S    -130.827000   56.892600  -57.504800
  C    -132.097000   57.500900  -56.507500
  C    -131.995000   58.844800  -56.305000
  C    -130.711000   59.339200  -56.705200
  C    -129.914000   58.387500  -57.388400
  H    -132.693000   59.320300  -55.610000
  C    -130.431000   60.774100  -56.312500
  H    -129.309000   60.935700  -56.358900
  H    -130.661000   60.826300  -55.284700
  C    -131.235000   61.883400  -57.073000
  H    -132.367000   61.687300  -57.010800
  H    -131.001000   61.902400  -58.178900
  C    -130.875000   63.252200  -56.554900
  H    -131.649000   63.946200  -56.784900
  H    -129.949000   63.694800  -56.954400
  H    -130.705000   63.343100  -55.464500
  H    -125.290000   58.442000  -59.195800
  H    -132.984000   56.893400  -56.168800

 Total Charge           Charge          ....    0
 Multiplicity           Mult            ....    1
 Number of Electrons    NEL             ....  134
 Basis Dimension        Dim             ....  322

ORBITAL ENERGIES
----------------

  NO   OCC          E(Eh)            E(eV)
   0   2.0000     -88.962370     -2420.7892
   1   2.0000     -88.962208     -2420.7847
   2   2.0000     -10.325928      -280.9828
   3   2.0000     -10.323640      -280.9205
   4   2.0000     -10.318504      -280.7808
   5   2.0000     -10.313652      -280.6487
   6   2.0000     -10.307776      -280.4888
   7   2.0000     -10.299098      -280.2527
   8   2.0000     -10.298844      -280.2458
   9   2.0000     -10.296449      -280.1806
  10   2.0000     -10.292349      -280.0690
  11   2.0000     -10.290269      -280.0125
  12   2.0000     -10.289307      -279.9863
  13   2.0000     -10.287869      -279.9472
  14   2.0000     -10.282009      -279.7877
  15   2.0000     -10.275364      -279.6069
  16   2.0000      -8.077672      -219.8046
  17   2.0000      -8.077408      -219.7975
  18   2.0000      -6.036099      -164.2506
  19   2.0000      -6.035748      -164.2410
  20   2.0000      -6.032042      -164.1402
  21   2.0000      -6.031710      -164.1312
  22   2.0000      -6.028521      -164.0444
  23   2.0000      -6.028467      -164.0429
  24   2.0000      -1.008309       -27.4375
  25   2.0000      -0.986719       -26.8500
  26   2.0000      -0.912461       -24.8293
  27   2.0000      -0.905194       -24.6316
  28   2.0000      -0.873438       -23.7675
  29   2.0000      -0.851023       -23.1575
  30   2.0000      -0.848184       -23.0803
  31   2.0000      -0.814604       -22.1665
  32   2.0000      -0.780770       -21.2458
  33   2.0000      -0.766278       -20.8515
  34   2.0000      -0.713017       -19.4022
  35   2.0000      -0.696965       -18.9654
  36   2.0000      -0.685695       -18.6587
  37   2.0000      -0.657779       -17.8991
  38   2.0000      -0.642518       -17.4838
  39   2.0000      -0.621005       -16.8984
  40   2.0000      -0.593330       -16.1453
  41   2.0000      -0.568144       -15.4600
  42   2.0000      -0.562455       -15.3052
  43   2.0000      -0.553019       -15.0484
  44   2.0000      -0.525836       -14.3087
  45   2.0000      -0.521043       -14.1783
  46   2.0000      -0.517800       -14.0900
  47   2.0000      -0.509028       -13.8514
  48   2.0000      -0.507629       -13.8133
  49   2.0000      -0.498756       -13.5718
  50   2.0000      -0.494276       -13.4499
  51   2.0000      -0.474137       -12.9019
  52   2.0000      -0.473755       -12.8915
  53   2.0000      -0.469496       -12.7756
  54   2.0000      -0.454344       -12.3633
  55   2.0000      -0.451819       -12.2946
  56   2.0000      -0.444491       -12.0952
  57   2.0000      -0.435265       -11.8442
  58   2.0000      -0.430124       -11.7043
  59   2.0000      -0.423370       -11.5205
  60   2.0000      -0.418190       -11.3795
  61   2.0000      -0.414656       -11.2834
  62   2.0000      -0.412572       -11.2267
  63   2.0000      -0.337074        -9.1723
  64   2.0000      -0.329947        -8.9783
  65   2.0000      -0.317191        -8.6312
  66   2.0000      -0.304564        -8.2876
  67   0.0000       0.043915         1.1950
  68   0.0000       0.052474         1.4279
  69   0.0000       0.116315         3.1651
  70   0.0000       0.120704         3.2845
  71   0.0000       0.134365         3.6563

MULLIKEN ATOMIC CHARGES
-----------------------
   0 S :    0.114184
   1 C :   -0.140349
   2 C :   -0.077371
   3 C :    0.019354
   4 C :   -0.169783
   5 H :    0.009725
   6 C :    0.027214
   7 H :    0.022992
   8 H :    0.044643
   9 C :   -0.072861
  10 H :    0.039604
  11 H :    0.034780
  12 C :   -0.033452
  13 H :    0.037988
  14 H :    0.027770
  15 H :    0.033291
  16 S :    0.113573
  17 C :   -0.110015
  18 C :   -0.041190
  19 C :   -0.023703
  20 C :   -0.170630
  21 H :    0.031677
  22 C :    0.059814
  23 H :    0.033646
  24 H :    0.018146
  25 C :   -0.101595
  26 H :    0.044665
  27 H :    0.045580
  28 C :   -0.041577
  29 H :    0.026133
  30 H :    0.033800
  31 H :    0.024143
  32 H :    0.062986
  33 H :    0.076817
Sum of atomic charges:   -0.0000000

LOEWDIN ATOMIC CHARGES
----------------------
   0 S :    0.420202
   1 C :   -0.211506
   2 C :   -0.068525
   3 C :   -0.064340
   4 C :   -0.207566
   5 H :    0.029284
   6 C :   -0.038011
   7 H :    0.027256
   8 H :    0.039598
   9 C :   -0.042537
  10 H :    0.026927
  11 H :    0.026065
  12 C :   -0.069013
  13 H :    0.028997
  14 H :    0.028762
  15 H :    0.029551
  16 S :    0.418554
  17 C :   -0.191347
  18 C :   -0.085321
  19 C :   -0.044209
  20 C :   -0.212822
  21 H :    0.035649
  22 C :   -0.034741
  23 H :    0.036582
  24 H :    0.025160
  25 C :   -0.045146
  26 H :    0.031369
  27 H :    0.034336
  28 C :   -0.074242
  29 H :    0.023209
  30 H :    0.028760
  31 H :    0.025578
  32 H :    0.032199
  33 H :    0.041286

  Mayer bond orders larger than 0.100000
B(  0-S ,  1-C ) :   1.1722 B(  0-S ,  4-C ) :   1.1604 B(  1-C ,  2-C ) :   1.5600
B(  1-C ,  4-C ) :   0.1093 B(  1-C , 32-H ) :   0.9654 B(  2-C ,  3-C ) :   1.2697
B(  2-C ,  6-C ) :   1.0219 B(  3-C ,  4-C ) :   1.5700 B(  3-C ,  5-H ) :   0.9972
B(  4-C , 20-C ) :   1.0264 B(  6-C ,  7-H ) :   0.9419 B(  6-C ,  8-H ) :   0.9358
B(  6-C ,  9-C ) :   1.0496 B(  9-C , 10-H ) :   0.9654 B(  9-C , 11-H ) :   0.9507
B(  9-C , 12-C ) :   1.0711 B( 12-C , 13-H ) :   0.9760 B( 12-C , 14-H ) :   0.9728
B( 12-C , 15-H ) :   0.9769 B( 16-S , 17-C ) :   1.1764 B( 16-S , 20-C ) :   1.1366
B( 17-C , 18-C ) :   1.6138 B( 17-C , 33-H ) :   0.9565 B( 18-C , 19-C ) :   1.2478
B( 18-C , 21-H ) :   0.9811 B( 19-C , 20-C ) :   1.5835 B( 19-C , 22-C ) :   1.0467
B( 22-C , 23-H ) :   0.9409 B( 22-C , 24-H ) :   0.9320 B( 22-C , 25-C ) :   1.0557
B( 25-C , 26-H ) :   0.9571 B( 25-C , 27-H ) :   0.9540 B( 25-C , 28-C ) :   1.0778
B( 28-C , 29-H ) :   0.9724 B( 28-C , 30-H ) :   0.9746 B( 28-C , 31-H ) :   0.9733

Dispersion correction           -0.013343423
FINAL SINGLE POINT ENERGY     -1339.877885097553

DIPOLE MOMENT
-------------
                                X             Y             Z
Electronic contribution:      1.69785     -17.08802      14.88130
Nuclear contribution   :     -1.92873      17.54023     -15.14526
                        -----------------------------------------
Total Dipole Moment    :     -0.23088       0.45221      -0.26395
                        -----------------------------------------
Magnitude (a.u.)       :      0.57225
Magnitude (Debye)      :      1.45455

Rotational constants in cm-1:     0.017576     0.007401     0.006789
Rotational constants in MHz :   526.929793   221.889393   203.543760

                             ****ORCA TERMINATED NORMALLY****
TOTAL RUN TIME: 0 days 0 hours 0 minutes 20 seconds 790 msec
