                         Program Version 4.2.1 -  RELEASE  -
|  1> ! wB97X-D3 SP def2-SVP
|  2> %pal
|  3> nprocs 24
|  4> end
|  5>
|  6> * xyz 0 1
|  7> S 	 -112.933 	 36.1931 	 -116.535
|  8> C 	 -113.108 	 34.5777 	 -117.099
|  9> C 	 -113.475 	 33.718 	 -116.117
| 10> C 	 -113.657 	 34.3884 	 -114.833
| 11> C 	 -113.509 	 35.73 	 -114.964
| 12> H 	 -113.91 	 33.8638 	 -113.885
| 13> C 	 -113.54 	 32.2298 	 -116.337
| 14> H 	 -113.469 	 32.0283 	 -117.381
| 15> H 	 -114.471 	 31.8997 	 -116.005
| 16> C 	 -112.36 	 31.5022 	 -115.689
| 17> H 	 -111.517 	 31.5675 	 -116.341
| 18> H 	 -112.054 	 31.9321 	 -114.735
| 19> C 	 -112.702 	 30.0508 	 -115.369
| 20> H 	 -113.519 	 30.1416 	 -114.625
| 21> H 	 -113.201 	 29.3933 	 -116.117
| 22> H 	 -111.833 	 29.5356 	 -114.881
| 23> S 	 -112.389 	 37.4804 	 -113.232
| 24> C 	 -113.204 	 38.0993 	 -111.857
| 25> C 	 -114.523 	 37.6507 	 -111.845
| 26> C 	 -114.838 	 36.6872 	 -112.913
| 27> C 	 -113.727 	 36.5264 	 -113.755
| 28> H 	 -115.209 	 38.028 	 -111.06
| 29> C 	 -116.111 	 35.9061 	 -112.992
| 30> H 	 -116.68 	 35.9627 	 -112.045
| 31> H 	 -115.874 	 34.8939 	 -112.966
| 32> C 	 -116.987 	 36.2102 	 -114.188
| 33> H 	 -116.48 	 35.9233 	 -115.108
| 34> H 	 -117.159 	 37.2279 	 -114.479
| 35> C 	 -118.355 	 35.4312 	 -114.221
| 36> H 	 -118.698 	 35.6065 	 -115.252
| 37> H 	 -119.156 	 35.9612 	 -113.672
| 38> H 	 -118.376 	 34.3714 	 -113.976
| 39> H 	 -112.973 	 34.2606 	 -118.121
| 40> H 	 -112.862 	 38.8982 	 -111.225
| 41> *
| 42>
| 43>                          ****END OF INPUT****

CARTESIAN COORDINATES (ANGSTROEM)
---------------------------------
  S    -112.933000   36.193100  -116.535000
  C    -113.108000   34.577700  -117.099000
  C    -113.475000   33.718000  -116.117000
  C    -113.657000   34.388400  -114.833000
  C    -113.509000   35.730000  -114.964000
  H    -113.910000   33.863800  -113.885000
  C    -113.540000   32.229800  -116.337000
  H    -113.469000   32.028300  -117.381000
  H    -114.471000   31.899700  -116.005000
  C    -112.360000   31.502200  -115.689000
  H    -111.517000   31.567500  -116.341000
  H    -112.054000   31.932100  -114.735000
  C    -112.702000   30.050800  -115.369000
  H    -113.519000   30.141600  -114.625000
  H    -113.201000   29.393300  -116.117000
  H    -111.833000   29.535600  -114.881000
  S    -112.389000   37.480400  -113.232000
  C    -113.204000   38.099300  -111.857000
  C    -114.523000   37.650700  -111.845000
  C    -114.838000   36.687200  -112.913000
  C    -113.727000   36.526400  -113.755000
  H    -115.209000   38.028000  -111.060000
  C    -116.111000   35.906100  -112.992000
  H    -116.680000   35.962700  -112.045000
  H    -115.874000   34.893900  -112.966000
  C    -116.987000   36.210200  -114.188000
  H    -116.480000   35.923300  -115.108000
  H    -117.159000   37.227900  -114.479000
  C    -118.355000   35.431200  -114.221000
  H    -118.698000   35.606500  -115.252000
  H    -119.156000   35.961200  -113.672000
  H    -118.376000   34.371400  -113.976000
  H    -112.973000   34.260600  -118.121000
  H    -112.862000   38.898200  -111.225000

 Total Charge           Charge          ....    0
 Multiplicity           Mult            ....    1
 Number of Electrons    NEL             ....  134
 Basis Dimension        Dim             ....  322

ORBITAL ENERGIES
----------------

  NO   OCC          E(Eh)            E(eV)
   0   2.0000     -88.969094     -2420.9721
   1   2.0000     -88.961632     -2420.7691
   2   2.0000     -10.326493      -280.9982
   3   2.0000     -10.324818      -280.9526
   4   2.0000     -10.311537      -280.5912
   5   2.0000     -10.308014      -280.4953
   6   2.0000     -10.306632      -280.4577
   7   2.0000     -10.298159      -280.2272
   8   2.0000     -10.296890      -280.1926
   9   2.0000     -10.295845      -280.1642
  10   2.0000     -10.285648      -279.8867
  11   2.0000     -10.284350      -279.8514
  12   2.0000     -10.283987      -279.8415
  13   2.0000     -10.283745      -279.8349
  14   2.0000     -10.281361      -279.7701
  15   2.0000     -10.279166      -279.7103
  16   2.0000      -8.084417      -219.9882
  17   2.0000      -8.077493      -219.7997
  18   2.0000      -6.043069      -164.4403
  19   2.0000      -6.038906      -164.3270
  20   2.0000      -6.035893      -164.2450
  21   2.0000      -6.034937      -164.2190
  22   2.0000      -6.031674      -164.1302
  23   2.0000      -6.028482      -164.0433
  24   2.0000      -1.012110       -27.5409
  25   2.0000      -0.987356       -26.8673
  26   2.0000      -0.917471       -24.9657
  27   2.0000      -0.908311       -24.7164
  28   2.0000      -0.872934       -23.7537
  29   2.0000      -0.851064       -23.1586
  30   2.0000      -0.843904       -22.9638
  31   2.0000      -0.815156       -22.1815
  32   2.0000      -0.781447       -21.2643
  33   2.0000      -0.771324       -20.9888
  34   2.0000      -0.709065       -19.2946
  35   2.0000      -0.701836       -19.0979
  36   2.0000      -0.694149       -18.8888
  37   2.0000      -0.660259       -17.9666
  38   2.0000      -0.641079       -17.4447
  39   2.0000      -0.622787       -16.9469
  40   2.0000      -0.596835       -16.2407
  41   2.0000      -0.570027       -15.5112
  42   2.0000      -0.562696       -15.3117
  43   2.0000      -0.549520       -14.9532
  44   2.0000      -0.531977       -14.4758
  45   2.0000      -0.527643       -14.3579
  46   2.0000      -0.516301       -14.0493
  47   2.0000      -0.510916       -13.9027
  48   2.0000      -0.503414       -13.6986
  49   2.0000      -0.501329       -13.6418
  50   2.0000      -0.499471       -13.5913
  51   2.0000      -0.479935       -13.0597
  52   2.0000      -0.469863       -12.7856
  53   2.0000      -0.461892       -12.5687
  54   2.0000      -0.457067       -12.4374
  55   2.0000      -0.455318       -12.3898
  56   2.0000      -0.449941       -12.2435
  57   2.0000      -0.440988       -11.9999
  58   2.0000      -0.437786       -11.9128
  59   2.0000      -0.421423       -11.4675
  60   2.0000      -0.418953       -11.4003
  61   2.0000      -0.416013       -11.3203
  62   2.0000      -0.400867       -10.9081
  63   2.0000      -0.345852        -9.4111
  64   2.0000      -0.328708        -8.9446
  65   2.0000      -0.325540        -8.8584
  66   2.0000      -0.298466        -8.1217
  67   0.0000       0.038506         1.0478
  68   0.0000       0.075112         2.0439
  69   0.0000       0.119290         3.2460
  70   0.0000       0.123398         3.3578
  71   0.0000       0.133850         3.6423

MULLIKEN ATOMIC CHARGES
-----------------------
   0 S :    0.128243
   1 C :   -0.122341
   2 C :   -0.099557
   3 C :   -0.007611
   4 C :   -0.115597
   5 H :    0.039715
   6 C :    0.133640
   7 H :    0.005526
   8 H :    0.005739
   9 C :   -0.051228
  10 H :    0.022111
  11 H :    0.031572
  12 C :   -0.086591
  13 H :    0.021293
  14 H :    0.037769
  15 H :    0.047814
  16 S :    0.110187
  17 C :   -0.088102
  18 C :   -0.065182
  19 C :   -0.033684
  20 C :   -0.193790
  21 H :    0.032189
  22 C :    0.137365
  23 H :    0.012708
  24 H :   -0.004052
  25 C :   -0.080921
  26 H :    0.029250
  27 H :    0.019518
  28 C :   -0.061435
  29 H :    0.025835
  30 H :    0.030878
  31 H :    0.040412
  32 H :    0.041342
  33 H :    0.056986
Sum of atomic charges:   -0.0000000

LOEWDIN ATOMIC CHARGES
----------------------
   0 S :    0.416651
   1 C :   -0.205958
   2 C :   -0.060185
   3 C :   -0.059039
   4 C :   -0.205640
   5 H :    0.039753
   6 C :   -0.019868
   7 H :    0.028247
   8 H :    0.018805
   9 C :   -0.033760
  10 H :    0.019452
  11 H :    0.026258
  12 C :   -0.076606
  13 H :    0.024328
  14 H :    0.026051
  15 H :    0.031967
  16 S :    0.430234
  17 C :   -0.207222
  18 C :   -0.074010
  19 C :   -0.053394
  20 C :   -0.200908
  21 H :    0.035705
  22 C :   -0.034488
  23 H :    0.033931
  24 H :    0.022664
  25 C :   -0.040763
  26 H :    0.026982
  27 H :    0.025271
  28 C :   -0.071096
  29 H :    0.030241
  30 H :    0.024776
  31 H :    0.023614
  32 H :    0.028328
  33 H :    0.029675

  Mayer bond orders larger than 0.100000
B(  0-S ,  1-C ) :   1.1189 B(  0-S ,  4-C ) :   1.1406 B(  1-C ,  2-C ) :   1.6539
B(  1-C , 32-H ) :   0.9636 B(  2-C ,  3-C ) :   1.2076 B(  2-C ,  6-C ) :   1.0358
B(  3-C ,  4-C ) :   1.5830 B(  3-C ,  5-H ) :   0.9890 B(  4-C , 20-C ) :   1.0310
B(  6-C ,  7-H ) :   0.9315 B(  6-C ,  8-H ) :   0.9383 B(  6-C ,  9-C ) :   1.0533
B(  9-C , 10-H ) :   0.9554 B(  9-C , 11-H ) :   0.9636 B(  9-C , 12-C ) :   1.0668
B( 12-C , 13-H ) :   0.9778 B( 12-C , 14-H ) :   0.9755 B( 12-C , 15-H ) :   0.9731
B( 16-S , 17-C ) :   1.1604 B( 16-S , 20-C ) :   1.1674 B( 17-C , 18-C ) :   1.6058
B( 17-C , 33-H ) :   0.9682 B( 18-C , 19-C ) :   1.2442 B( 18-C , 21-H ) :   0.9834
B( 19-C , 20-C ) :   1.5781 B( 19-C , 22-C ) :   1.0482 B( 22-C , 23-H ) :   0.9305
B( 22-C , 24-H ) :   0.9202 B( 22-C , 25-C ) :   1.0523 B( 25-C , 26-H ) :   0.9547
B( 25-C , 27-H ) :   0.9559 B( 25-C , 28-C ) :   1.0795 B( 28-C , 29-H ) :   0.9744
B( 28-C , 30-H ) :   0.9765 B( 28-C , 31-H ) :   0.9770

Dispersion correction           -0.014310946
FINAL SINGLE POINT ENERGY     -1339.875448951853

DIPOLE MOMENT
-------------
                                X             Y             Z
Electronic contribution:     15.63242      22.61146      -0.20808
Nuclear contribution   :    -15.98160     -23.08517       0.25130
                        -----------------------------------------
Total Dipole Moment    :     -0.34917      -0.47371       0.04323
                        -----------------------------------------
Magnitude (a.u.)       :      0.59008
Magnitude (Debye)      :      1.49986

Rotational constants in cm-1:     0.016865     0.008713     0.007360
Rotational constants in MHz :   505.612378   261.201456   220.659654

                             ****ORCA TERMINATED NORMALLY****
TOTAL RUN TIME: 0 days 0 hours 0 minutes 20 seconds 574 msec
