                         Program Version 4.2.1 -  RELEASE  -
|  1> ! wB97X-D3 SP def2-SVP
|  2> %pal
|  3> nprocs 24
|  4> end
|  5>
|  6> * xyz 0 1
|  7> S 	 -69.979 	 -46.7541 	 -90.4341
|  8> C 	 -69.7161 	 -45.6731 	 -91.7732
|  9> C 	 -68.4404 	 -45.6333 	 -92.2198
| 10> C 	 -67.554 	 -46.4384 	 -91.3245
| 11> C 	 -68.2308 	 -46.9825 	 -90.2493
| 12> H 	 -66.4789 	 -46.3861 	 -91.4301
| 13> C 	 -67.891 	 -44.7783 	 -93.3381
| 14> H 	 -68.6905 	 -44.7939 	 -94.0782
| 15> H 	 -66.9854 	 -45.3004 	 -93.7103
| 16> C 	 -67.4886 	 -43.3629 	 -93.0064
| 17> H 	 -67.4257 	 -42.8466 	 -93.973
| 18> H 	 -68.2518 	 -42.8211 	 -92.4211
| 19> C 	 -66.1604 	 -43.2423 	 -92.2675
| 20> H 	 -66.1694 	 -43.676 	 -91.2543
| 21> H 	 -65.2855 	 -43.6377 	 -92.8475
| 22> H 	 -65.769 	 -42.2049 	 -92.0677
| 23> S 	 -67.4205 	 -46.7269 	 -87.5529
| 24> C 	 -66.7021 	 -48.0461 	 -86.7443
| 25> C 	 -66.5966 	 -49.1617 	 -87.5686
| 26> C 	 -67.172 	 -48.9495 	 -88.9068
| 27> C 	 -67.6269 	 -47.6627 	 -89.083
| 28> H 	 -66.0813 	 -50.0826 	 -87.1991
| 29> C 	 -67.1868 	 -50.0584 	 -89.9329
| 30> H 	 -66.2713 	 -50.6827 	 -89.9617
| 31> H 	 -67.1979 	 -49.5803 	 -90.853
| 32> C 	 -68.4665 	 -50.9051 	 -89.9729
| 33> H 	 -68.6486 	 -51.5996 	 -90.774
| 34> H 	 -69.2721 	 -50.1949 	 -90.0781
| 35> C 	 -68.6922 	 -51.6308 	 -88.6289
| 36> H 	 -67.7415 	 -52.1366 	 -88.2987
| 37> H 	 -69.4811 	 -52.3871 	 -88.6213
| 38> H 	 -68.8903 	 -50.866 	 -87.8913
| 39> H 	 -70.4945 	 -45.0522 	 -92.2679
| 40> H 	 -66.3417 	 -48.0223 	 -85.792
| 41> *
| 42>
| 43>                          ****END OF INPUT****

CARTESIAN COORDINATES (ANGSTROEM)
---------------------------------
  S    -69.979000  -46.754100  -90.434100
  C    -69.716100  -45.673100  -91.773200
  C    -68.440400  -45.633300  -92.219800
  C    -67.554000  -46.438400  -91.324500
  C    -68.230800  -46.982500  -90.249300
  H    -66.478900  -46.386100  -91.430100
  C    -67.891000  -44.778300  -93.338100
  H    -68.690500  -44.793900  -94.078200
  H    -66.985400  -45.300400  -93.710300
  C    -67.488600  -43.362900  -93.006400
  H    -67.425700  -42.846600  -93.973000
  H    -68.251800  -42.821100  -92.421100
  C    -66.160400  -43.242300  -92.267500
  H    -66.169400  -43.676000  -91.254300
  H    -65.285500  -43.637700  -92.847500
  H    -65.769000  -42.204900  -92.067700
  S    -67.420500  -46.726900  -87.552900
  C    -66.702100  -48.046100  -86.744300
  C    -66.596600  -49.161700  -87.568600
  C    -67.172000  -48.949500  -88.906800
  C    -67.626900  -47.662700  -89.083000
  H    -66.081300  -50.082600  -87.199100
  C    -67.186800  -50.058400  -89.932900
  H    -66.271300  -50.682700  -89.961700
  H    -67.197900  -49.580300  -90.853000
  C    -68.466500  -50.905100  -89.972900
  H    -68.648600  -51.599600  -90.774000
  H    -69.272100  -50.194900  -90.078100
  C    -68.692200  -51.630800  -88.628900
  H    -67.741500  -52.136600  -88.298700
  H    -69.481100  -52.387100  -88.621300
  H    -68.890300  -50.866000  -87.891300
  H    -70.494500  -45.052200  -92.267900
  H    -66.341700  -48.022300  -85.792000

 Total Charge           Charge          ....    0
 Multiplicity           Mult            ....    1
 Number of Electrons    NEL             ....  134
 Basis Dimension        Dim             ....  322

ORBITAL ENERGIES
----------------

  NO   OCC          E(Eh)            E(eV)
   0   2.0000     -88.966674     -2420.9063
   1   2.0000     -88.964084     -2420.8358
   2   2.0000     -10.334507      -281.2162
   3   2.0000     -10.331298      -281.1289
   4   2.0000     -10.314227      -280.6644
   5   2.0000     -10.312155      -280.6080
   6   2.0000     -10.309683      -280.5407
   7   2.0000     -10.301483      -280.3176
   8   2.0000     -10.300818      -280.2995
   9   2.0000     -10.299248      -280.2568
  10   2.0000     -10.295840      -280.1640
  11   2.0000     -10.291133      -280.0360
  12   2.0000     -10.285738      -279.8892
  13   2.0000     -10.285263      -279.8762
  14   2.0000     -10.279015      -279.7062
  15   2.0000     -10.271301      -279.4963
  16   2.0000      -8.081200      -219.9006
  17   2.0000      -8.078952      -219.8395
  18   2.0000      -6.039836      -164.3523
  19   2.0000      -6.037536      -164.2897
  20   2.0000      -6.035866      -164.2443
  21   2.0000      -6.033369      -164.1763
  22   2.0000      -6.031693      -164.1307
  23   2.0000      -6.029689      -164.0762
  24   2.0000      -1.001143       -27.2425
  25   2.0000      -0.981956       -26.7204
  26   2.0000      -0.915678       -24.9169
  27   2.0000      -0.909530       -24.7496
  28   2.0000      -0.868257       -23.6265
  29   2.0000      -0.844354       -22.9760
  30   2.0000      -0.839822       -22.8527
  31   2.0000      -0.813148       -22.1269
  32   2.0000      -0.783757       -21.3271
  33   2.0000      -0.774724       -21.0813
  34   2.0000      -0.706159       -19.2156
  35   2.0000      -0.702389       -19.1130
  36   2.0000      -0.690211       -18.7816
  37   2.0000      -0.660257       -17.9665
  38   2.0000      -0.637110       -17.3366
  39   2.0000      -0.613205       -16.6862
  40   2.0000      -0.593496       -16.1499
  41   2.0000      -0.575546       -15.6614
  42   2.0000      -0.554615       -15.0918
  43   2.0000      -0.552949       -15.0465
  44   2.0000      -0.547860       -14.9080
  45   2.0000      -0.539721       -14.6865
  46   2.0000      -0.512883       -13.9563
  47   2.0000      -0.506928       -13.7942
  48   2.0000      -0.501952       -13.6588
  49   2.0000      -0.491339       -13.3700
  50   2.0000      -0.485127       -13.2010
  51   2.0000      -0.475297       -12.9335
  52   2.0000      -0.472920       -12.8688
  53   2.0000      -0.465847       -12.6763
  54   2.0000      -0.458047       -12.4641
  55   2.0000      -0.443166       -12.0592
  56   2.0000      -0.441916       -12.0251
  57   2.0000      -0.440099       -11.9757
  58   2.0000      -0.427900       -11.6438
  59   2.0000      -0.424939       -11.5632
  60   2.0000      -0.417281       -11.3548
  61   2.0000      -0.414635       -11.2828
  62   2.0000      -0.411284       -11.1916
  63   2.0000      -0.333693        -9.0802
  64   2.0000      -0.330708        -8.9990
  65   2.0000      -0.321386        -8.7454
  66   2.0000      -0.315823        -8.5940
  67   0.0000       0.042451         1.1552
  68   0.0000       0.056022         1.5244
  69   0.0000       0.105071         2.8591
  70   0.0000       0.121563         3.3079
  71   0.0000       0.126563         3.4439

MULLIKEN ATOMIC CHARGES
-----------------------
   0 S :    0.119470
   1 C :   -0.132399
   2 C :   -0.116606
   3 C :    0.067246
   4 C :   -0.181888
   5 H :    0.018097
   6 C :    0.063624
   7 H :    0.028106
   8 H :    0.027607
   9 C :   -0.029456
  10 H :    0.033306
  11 H :    0.032143
  12 C :   -0.105846
  13 H :    0.048782
  14 H :    0.030813
  15 H :    0.035326
  16 S :    0.109757
  17 C :   -0.050427
  18 C :   -0.058152
  19 C :   -0.040019
  20 C :   -0.180111
  21 H :    0.037762
  22 C :    0.118114
  23 H :    0.035851
  24 H :   -0.000239
  25 C :   -0.052673
  26 H :    0.028076
  27 H :    0.013677
  28 C :   -0.078644
  29 H :    0.022967
  30 H :    0.035010
  31 H :    0.042100
  32 H :    0.054169
  33 H :    0.024458
Sum of atomic charges:   -0.0000000

LOEWDIN ATOMIC CHARGES
----------------------
   0 S :    0.393515
   1 C :   -0.200935
   2 C :   -0.068053
   3 C :   -0.048085
   4 C :   -0.193710
   5 H :    0.030512
   6 C :   -0.033437
   7 H :    0.032950
   8 H :    0.036032
   9 C :   -0.042659
  10 H :    0.029187
  11 H :    0.028287
  12 C :   -0.082589
  13 H :    0.028952
  14 H :    0.026677
  15 H :    0.032085
  16 S :    0.402483
  17 C :   -0.179872
  18 C :   -0.077925
  19 C :   -0.044570
  20 C :   -0.190989
  21 H :    0.037932
  22 C :   -0.027926
  23 H :    0.033854
  24 H :    0.024057
  25 C :   -0.035393
  26 H :    0.022016
  27 H :    0.020654
  28 C :   -0.071257
  29 H :    0.022772
  30 H :    0.022786
  31 H :    0.024220
  32 H :    0.036185
  33 H :    0.012245

  Mayer bond orders larger than 0.100000
B(  0-S ,  1-C ) :   1.1233 B(  0-S ,  4-C ) :   1.1283 B(  1-C ,  2-C ) :   1.6792
B(  1-C , 32-H ) :   0.9559 B(  2-C ,  3-C ) :   1.1913 B(  2-C ,  6-C ) :   1.0256
B(  3-C ,  4-C ) :   1.6273 B(  3-C ,  5-H ) :   0.9888 B(  4-C , 20-C ) :   1.0124
B(  6-C ,  7-H ) :   0.9349 B(  6-C ,  8-H ) :   0.9367 B(  6-C ,  9-C ) :   1.0749
B(  9-C , 10-H ) :   0.9514 B(  9-C , 11-H ) :   0.9529 B(  9-C , 12-C ) :   1.0787
B( 12-C , 13-H ) :   0.9731 B( 12-C , 14-H ) :   0.9729 B( 12-C , 15-H ) :   0.9719
B( 16-S , 17-C ) :   1.1650 B( 16-S , 20-C ) :   1.1263 B( 17-C , 18-C ) :   1.6181
B( 17-C , 33-H ) :   0.9769 B( 18-C , 19-C ) :   1.2076 B( 18-C , 21-H ) :   0.9830
B( 19-C , 20-C ) :   1.6388 B( 19-C , 22-C ) :   1.0392 B( 22-C , 23-H ) :   0.9445
B( 22-C , 24-H ) :   0.9143 B( 22-C , 25-C ) :   1.0683 B( 25-C , 26-H ) :   0.9622
B( 25-C , 27-H ) :   0.9521 B( 25-C , 28-C ) :   1.0738 B( 28-C , 29-H ) :   0.9759
B( 28-C , 30-H ) :   0.9760 B( 28-C , 31-H ) :   0.9728

Dispersion correction           -0.015113862
FINAL SINGLE POINT ENERGY     -1339.883465443911

DIPOLE MOMENT
-------------
                                X             Y             Z
Electronic contribution:     -6.84571       3.04011      11.72118
Nuclear contribution   :      7.18519      -2.93910     -12.11405
                        -----------------------------------------
Total Dipole Moment    :      0.33948       0.10101      -0.39287
                        -----------------------------------------
Magnitude (a.u.)       :      0.52896
Magnitude (Debye)      :      1.34451

Rotational constants in cm-1:     0.022113     0.007973     0.007017
Rotational constants in MHz :   662.938998   239.024763   210.361344

                             ****ORCA TERMINATED NORMALLY****
TOTAL RUN TIME: 0 days 0 hours 0 minutes 21 seconds 532 msec
