                         Program Version 4.2.1 -  RELEASE  -
|  1> ! wB97X-D3 SP def2-SVP
|  2> %pal
|  3> nprocs 24
|  4> end
|  5>
|  6> * xyz 0 1
|  7> S 	 -63.7109 	 12.65 	 -102.182
|  8> C 	 -62.6036 	 13.899 	 -101.729
|  9> C 	 -61.3067 	 13.4576 	 -101.71
| 10> C 	 -61.2399 	 12.0667 	 -101.863
| 11> C 	 -62.4326 	 11.4511 	 -102.167
| 12> H 	 -60.364 	 11.4526 	 -101.804
| 13> C 	 -60.0352 	 14.254 	 -101.479
| 14> H 	 -59.3785 	 13.7457 	 -100.831
| 15> H 	 -60.3195 	 15.0444 	 -100.768
| 16> C 	 -59.3307 	 14.918 	 -102.71
| 17> H 	 -59.9734 	 15.5251 	 -103.242
| 18> H 	 -58.5551 	 15.6377 	 -102.324
| 19> C 	 -58.6617 	 13.8379 	 -103.645
| 20> H 	 -57.8933 	 13.2247 	 -103.131
| 21> H 	 -59.4034 	 13.1395 	 -103.992
| 22> H 	 -58.2869 	 14.4016 	 -104.527
| 23> S 	 -63.8768 	 9.26564 	 -101.492
| 24> C 	 -63.311 	 7.66436 	 -101.815
| 25> C 	 -62.2208 	 7.61504 	 -102.727
| 26> C 	 -61.7593 	 8.97251 	 -102.996
| 27> C 	 -62.5593 	 10.0064 	 -102.393
| 28> H 	 -61.6901 	 6.68049 	 -102.847
| 29> C 	 -60.4876 	 9.10222 	 -103.783
| 30> H 	 -60.2875 	 10.1624 	 -103.943
| 31> H 	 -60.7762 	 8.58131 	 -104.69
| 32> C 	 -59.3133 	 8.54807 	 -103.079
| 33> H 	 -58.4603 	 8.63425 	 -103.764
| 34> H 	 -59.3954 	 7.44889 	 -102.927
| 35> C 	 -58.9923 	 9.21204 	 -101.779
| 36> H 	 -58.8724 	 10.301 	 -101.921
| 37> H 	 -58.0777 	 8.76078 	 -101.328
| 38> H 	 -59.7675 	 8.86092 	 -101.089
| 39> H 	 -62.8543 	 14.9652 	 -101.55
| 40> H 	 -63.7526 	 6.75486 	 -101.404
| 41> *
| 42>
| 43>                          ****END OF INPUT****

CARTESIAN COORDINATES (ANGSTROEM)
---------------------------------
  S    -63.710900   12.650000  -102.182000
  C    -62.603600   13.899000  -101.729000
  C    -61.306700   13.457600  -101.710000
  C    -61.239900   12.066700  -101.863000
  C    -62.432600   11.451100  -102.167000
  H    -60.364000   11.452600  -101.804000
  C    -60.035200   14.254000  -101.479000
  H    -59.378500   13.745700  -100.831000
  H    -60.319500   15.044400  -100.768000
  C    -59.330700   14.918000  -102.710000
  H    -59.973400   15.525100  -103.242000
  H    -58.555100   15.637700  -102.324000
  C    -58.661700   13.837900  -103.645000
  H    -57.893300   13.224700  -103.131000
  H    -59.403400   13.139500  -103.992000
  H    -58.286900   14.401600  -104.527000
  S    -63.876800    9.265640  -101.492000
  C    -63.311000    7.664360  -101.815000
  C    -62.220800    7.615040  -102.727000
  C    -61.759300    8.972510  -102.996000
  C    -62.559300   10.006400  -102.393000
  H    -61.690100    6.680490  -102.847000
  C    -60.487600    9.102220  -103.783000
  H    -60.287500   10.162400  -103.943000
  H    -60.776200    8.581310  -104.690000
  C    -59.313300    8.548070  -103.079000
  H    -58.460300    8.634250  -103.764000
  H    -59.395400    7.448890  -102.927000
  C    -58.992300    9.212040  -101.779000
  H    -58.872400   10.301000  -101.921000
  H    -58.077700    8.760780  -101.328000
  H    -59.767500    8.860920  -101.089000
  H    -62.854300   14.965200  -101.550000
  H    -63.752600    6.754860  -101.404000

 Total Charge           Charge          ....    0
 Multiplicity           Mult            ....    1
 Number of Electrons    NEL             ....  134
 Basis Dimension        Dim             ....  322

ORBITAL ENERGIES
----------------

  NO   OCC          E(Eh)            E(eV)
   0   2.0000     -88.968869     -2420.9660
   1   2.0000     -88.966087     -2420.8903
   2   2.0000     -10.332496      -281.1615
   3   2.0000     -10.328149      -281.0432
   4   2.0000     -10.322934      -280.9013
   5   2.0000     -10.313491      -280.6444
   6   2.0000     -10.312600      -280.6201
   7   2.0000     -10.300293      -280.2852
   8   2.0000     -10.295072      -280.1431
   9   2.0000     -10.291264      -280.0395
  10   2.0000     -10.289463      -279.9905
  11   2.0000     -10.286389      -279.9069
  12   2.0000     -10.284212      -279.8476
  13   2.0000     -10.282961      -279.8136
  14   2.0000     -10.282849      -279.8106
  15   2.0000     -10.282067      -279.7893
  16   2.0000      -8.083611      -219.9662
  17   2.0000      -8.080986      -219.8948
  18   2.0000      -6.042216      -164.4171
  19   2.0000      -6.039430      -164.3412
  20   2.0000      -6.038081      -164.3045
  21   2.0000      -6.035288      -164.2285
  22   2.0000      -6.034315      -164.2020
  23   2.0000      -6.031994      -164.1389
  24   2.0000      -1.006661       -27.3926
  25   2.0000      -0.982768       -26.7425
  26   2.0000      -0.925446       -25.1827
  27   2.0000      -0.904558       -24.6143
  28   2.0000      -0.866248       -23.5718
  29   2.0000      -0.850744       -23.1499
  30   2.0000      -0.846379       -23.0312
  31   2.0000      -0.812315       -22.1042
  32   2.0000      -0.784106       -21.3366
  33   2.0000      -0.772656       -21.0250
  34   2.0000      -0.707694       -19.2573
  35   2.0000      -0.706486       -19.2245
  36   2.0000      -0.687944       -18.7199
  37   2.0000      -0.658655       -17.9229
  38   2.0000      -0.639274       -17.3955
  39   2.0000      -0.619922       -16.8689
  40   2.0000      -0.596184       -16.2230
  41   2.0000      -0.573129       -15.5956
  42   2.0000      -0.566154       -15.4058
  43   2.0000      -0.546284       -14.8651
  44   2.0000      -0.542862       -14.7720
  45   2.0000      -0.538193       -14.6450
  46   2.0000      -0.519053       -14.1241
  47   2.0000      -0.511013       -13.9054
  48   2.0000      -0.500912       -13.6305
  49   2.0000      -0.492957       -13.4140
  50   2.0000      -0.490747       -13.3539
  51   2.0000      -0.479223       -13.0403
  52   2.0000      -0.472491       -12.8571
  53   2.0000      -0.466559       -12.6957
  54   2.0000      -0.461112       -12.5475
  55   2.0000      -0.449707       -12.2372
  56   2.0000      -0.444879       -12.1058
  57   2.0000      -0.441601       -12.0166
  58   2.0000      -0.437803       -11.9132
  59   2.0000      -0.422721       -11.5028
  60   2.0000      -0.418044       -11.3756
  61   2.0000      -0.415761       -11.3134
  62   2.0000      -0.406230       -11.0541
  63   2.0000      -0.348872        -9.4933
  64   2.0000      -0.332923        -9.0593
  65   2.0000      -0.327598        -8.9144
  66   2.0000      -0.286456        -7.7949
  67   0.0000       0.029334         0.7982
  68   0.0000       0.068662         1.8684
  69   0.0000       0.112636         3.0650
  70   0.0000       0.116047         3.1578
  71   0.0000       0.126242         3.4352

MULLIKEN ATOMIC CHARGES
-----------------------
   0 S :    0.124275
   1 C :   -0.134992
   2 C :   -0.067448
   3 C :    0.052062
   4 C :   -0.125168
   5 H :   -0.073864
   6 C :    0.063665
   7 H :    0.011542
   8 H :    0.011037
   9 C :   -0.029223
  10 H :    0.010853
  11 H :    0.035192
  12 C :   -0.077473
  13 H :    0.037701
  14 H :    0.039371
  15 H :    0.044090
  16 S :    0.106860
  17 C :   -0.105424
  18 C :   -0.044845
  19 C :   -0.102695
  20 C :   -0.141443
  21 H :    0.034516
  22 C :    0.108091
  23 H :    0.015568
  24 H :    0.040137
  25 C :   -0.098866
  26 H :    0.026610
  27 H :    0.022874
  28 C :   -0.052991
  29 H :    0.066751
  30 H :    0.034259
  31 H :    0.048723
  32 H :    0.055674
  33 H :    0.064582
Sum of atomic charges:   -0.0000000

LOEWDIN ATOMIC CHARGES
----------------------
   0 S :    0.413167
   1 C :   -0.206529
   2 C :   -0.069206
   3 C :   -0.063737
   4 C :   -0.199974
   5 H :    0.020773
   6 C :   -0.034687
   7 H :    0.023969
   8 H :    0.032936
   9 C :   -0.027477
  10 H :    0.012204
  11 H :    0.030656
  12 C :   -0.069690
  13 H :    0.026387
  14 H :    0.021626
  15 H :    0.031661
  16 S :    0.417695
  17 C :   -0.186979
  18 C :   -0.080732
  19 C :   -0.047113
  20 C :   -0.204042
  21 H :    0.033466
  22 C :   -0.035372
  23 H :    0.028582
  24 H :    0.039722
  25 C :   -0.048628
  26 H :    0.023252
  27 H :    0.022784
  28 C :   -0.066442
  29 H :    0.026905
  30 H :    0.033082
  31 H :    0.034550
  32 H :    0.037141
  33 H :    0.030051

  Mayer bond orders larger than 0.100000
B(  0-S ,  1-C ) :   1.1426 B(  0-S ,  4-C ) :   1.1454 B(  1-C ,  2-C ) :   1.6063
B(  1-C , 32-H ) :   0.9594 B(  2-C ,  3-C ) :   1.2540 B(  2-C ,  6-C ) :   1.0158
B(  3-C ,  4-C ) :   1.5638 B(  3-C ,  5-H ) :   0.9944 B(  4-C , 20-C ) :   1.0444
B(  6-C ,  7-H ) :   0.9445 B(  6-C ,  8-H ) :   0.9317 B(  6-C ,  9-C ) :   1.0672
B(  9-C , 10-H ) :   0.9569 B(  9-C , 11-H ) :   0.9558 B(  9-C , 12-C ) :   1.0696
B( 12-C , 13-H ) :   0.9773 B( 12-C , 14-H ) :   0.9774 B( 12-C , 15-H ) :   0.9741
B( 16-S , 17-C ) :   1.1925 B( 16-S , 20-C ) :   1.1362 B( 17-C , 18-C ) :   1.5880
B( 17-C , 33-H ) :   0.9634 B( 18-C , 19-C ) :   1.2427 B( 18-C , 21-H ) :   0.9862
B( 19-C , 20-C ) :   1.5666 B( 19-C , 22-C ) :   1.0326 B( 22-C , 23-H ) :   0.9345
B( 22-C , 24-H ) :   0.9260 B( 22-C , 25-C ) :   1.0853 B( 25-C , 26-H ) :   0.9513
B( 25-C , 27-H ) :   0.9489 B( 25-C , 28-C ) :   1.0872 B( 28-C , 29-H ) :   0.9518
B( 28-C , 30-H ) :   0.9623 B( 28-C , 31-H ) :   0.9666

Dispersion correction           -0.016001438
FINAL SINGLE POINT ENERGY     -1339.872700129634

DIPOLE MOMENT
-------------
                                X             Y             Z
Electronic contribution:    -28.98146      -4.10995       4.76520
Nuclear contribution   :     29.72054       4.00495      -4.74527
                        -----------------------------------------
Total Dipole Moment    :      0.73909      -0.10500       0.01993
                        -----------------------------------------
Magnitude (a.u.)       :      0.74678
Magnitude (Debye)      :      1.89815

Rotational constants in cm-1:     0.019019     0.010332     0.007273
Rotational constants in MHz :   570.174958   309.747641   218.032576

                             ****ORCA TERMINATED NORMALLY****
TOTAL RUN TIME: 0 days 0 hours 0 minutes 23 seconds 335 msec
