                         Program Version 4.2.1 -  RELEASE  -
|  1> ! wB97X-D3 SP def2-SVP
|  2> %pal
|  3> nprocs 24
|  4> end
|  5>
|  6> * xyz 0 1
|  7> S 	 -44.7129 	 10.3013 	 29.6393
|  8> C 	 -45.1116 	 11.1996 	 28.2583
|  9> C 	 -46.272 	 10.7005 	 27.6653
| 10> C 	 -46.8612 	 9.70086 	 28.4999
| 11> C 	 -46.2165 	 9.36378 	 29.6748
| 12> H 	 -47.7914 	 9.2228 	 28.1919
| 13> C 	 -46.955 	 11.3392 	 26.4561
| 14> H 	 -46.7115 	 12.3635 	 26.3381
| 15> H 	 -48.0306 	 11.2407 	 26.5145
| 16> C 	 -46.6021 	 10.6733 	 25.0941
| 17> H 	 -47.0973 	 9.68628 	 24.9535
| 18> H 	 -46.8756 	 11.2782 	 24.2494
| 19> C 	 -45.0682 	 10.4259 	 25.0069
| 20> H 	 -44.8165 	 9.6122 	 25.6934
| 21> H 	 -44.7731 	 10.1615 	 24.02
| 22> H 	 -44.5541 	 11.3579 	 25.3092
| 23> S 	 -45.4357 	 6.97642 	 30.7518
| 24> C 	 -46.4732 	 6.03873 	 31.7786
| 25> C 	 -47.7355 	 6.69153 	 31.7531
| 26> C 	 -47.8346 	 7.9083 	 31.1034
| 27> C 	 -46.568 	 8.32113 	 30.6348
| 28> H 	 -48.5124 	 6.20851 	 32.3492
| 29> C 	 -49.1358 	 8.57582 	 30.9522
| 30> H 	 -49.9137 	 7.89058 	 31.2629
| 31> H 	 -49.2828 	 8.71972 	 29.9285
| 32> C 	 -49.326 	 9.84025 	 31.7991
| 33> H 	 -50.2611 	 10.2951 	 31.5957
| 34> H 	 -48.5658 	 10.6129 	 31.5957
| 35> C 	 -49.6416 	 9.53247 	 33.2753
| 36> H 	 -50.5839 	 8.96711 	 33.4311
| 37> H 	 -49.6804 	 10.4971 	 33.8714
| 38> H 	 -48.823 	 8.90073 	 33.5543
| 39> H 	 -44.4422 	 11.8601 	 27.7469
| 40> H 	 -46.161 	 5.04002 	 32.2046
| 41> *
| 42>
| 43>                          ****END OF INPUT****

CARTESIAN COORDINATES (ANGSTROEM)
---------------------------------
  S    -44.712900   10.301300   29.639300
  C    -45.111600   11.199600   28.258300
  C    -46.272000   10.700500   27.665300
  C    -46.861200    9.700860   28.499900
  C    -46.216500    9.363780   29.674800
  H    -47.791400    9.222800   28.191900
  C    -46.955000   11.339200   26.456100
  H    -46.711500   12.363500   26.338100
  H    -48.030600   11.240700   26.514500
  C    -46.602100   10.673300   25.094100
  H    -47.097300    9.686280   24.953500
  H    -46.875600   11.278200   24.249400
  C    -45.068200   10.425900   25.006900
  H    -44.816500    9.612200   25.693400
  H    -44.773100   10.161500   24.020000
  H    -44.554100   11.357900   25.309200
  S    -45.435700    6.976420   30.751800
  C    -46.473200    6.038730   31.778600
  C    -47.735500    6.691530   31.753100
  C    -47.834600    7.908300   31.103400
  C    -46.568000    8.321130   30.634800
  H    -48.512400    6.208510   32.349200
  C    -49.135800    8.575820   30.952200
  H    -49.913700    7.890580   31.262900
  H    -49.282800    8.719720   29.928500
  C    -49.326000    9.840250   31.799100
  H    -50.261100   10.295100   31.595700
  H    -48.565800   10.612900   31.595700
  C    -49.641600    9.532470   33.275300
  H    -50.583900    8.967110   33.431100
  H    -49.680400   10.497100   33.871400
  H    -48.823000    8.900730   33.554300
  H    -44.442200   11.860100   27.746900
  H    -46.161000    5.040020   32.204600

 Total Charge           Charge          ....    0
 Multiplicity           Mult            ....    1
 Number of Electrons    NEL             ....  134
 Basis Dimension        Dim             ....  322

ORBITAL ENERGIES
----------------

  NO   OCC          E(Eh)            E(eV)
   0   2.0000     -88.966634     -2420.9052
   1   2.0000     -88.965624     -2420.8777
   2   2.0000     -10.332289      -281.1559
   3   2.0000     -10.331217      -281.1267
   4   2.0000     -10.326514      -280.9987
   5   2.0000     -10.312755      -280.6243
   6   2.0000     -10.302706      -280.3509
   7   2.0000     -10.302190      -280.3368
   8   2.0000     -10.295652      -280.1589
   9   2.0000     -10.294863      -280.1375
  10   2.0000     -10.291925      -280.0575
  11   2.0000     -10.286085      -279.8986
  12   2.0000     -10.285359      -279.8789
  13   2.0000     -10.280549      -279.7480
  14   2.0000     -10.279238      -279.7123
  15   2.0000     -10.272902      -279.5399
  16   2.0000      -8.081314      -219.9037
  17   2.0000      -8.080876      -219.8918
  18   2.0000      -6.039655      -164.3474
  19   2.0000      -6.039308      -164.3379
  20   2.0000      -6.035630      -164.2379
  21   2.0000      -6.035093      -164.2232
  22   2.0000      -6.032442      -164.1511
  23   2.0000      -6.031873      -164.1356
  24   2.0000      -1.009523       -27.4705
  25   2.0000      -0.989567       -26.9275
  26   2.0000      -0.916878       -24.9495
  27   2.0000      -0.909023       -24.7358
  28   2.0000      -0.869128       -23.6502
  29   2.0000      -0.854362       -23.2484
  30   2.0000      -0.842980       -22.9387
  31   2.0000      -0.809142       -22.0179
  32   2.0000      -0.784737       -21.3538
  33   2.0000      -0.775656       -21.1067
  34   2.0000      -0.708616       -19.2824
  35   2.0000      -0.694170       -18.8893
  36   2.0000      -0.688663       -18.7395
  37   2.0000      -0.662454       -18.0263
  38   2.0000      -0.640668       -17.4335
  39   2.0000      -0.623955       -16.9787
  40   2.0000      -0.596347       -16.2274
  41   2.0000      -0.569967       -15.5096
  42   2.0000      -0.560112       -15.2414
  43   2.0000      -0.555049       -15.1036
  44   2.0000      -0.552973       -15.0472
  45   2.0000      -0.543293       -14.7837
  46   2.0000      -0.516985       -14.0679
  47   2.0000      -0.509997       -13.8777
  48   2.0000      -0.505760       -13.7624
  49   2.0000      -0.492801       -13.4098
  50   2.0000      -0.488500       -13.2928
  51   2.0000      -0.481764       -13.1095
  52   2.0000      -0.472491       -12.8571
  53   2.0000      -0.467986       -12.7345
  54   2.0000      -0.463578       -12.6146
  55   2.0000      -0.449744       -12.2382
  56   2.0000      -0.438589       -11.9346
  57   2.0000      -0.436990       -11.8911
  58   2.0000      -0.428356       -11.6562
  59   2.0000      -0.423890       -11.5346
  60   2.0000      -0.421074       -11.4580
  61   2.0000      -0.413770       -11.2592
  62   2.0000      -0.399324       -10.8662
  63   2.0000      -0.349489        -9.5101
  64   2.0000      -0.332439        -9.0461
  65   2.0000      -0.326211        -8.8767
  66   2.0000      -0.291796        -7.9402
  67   0.0000       0.021871         0.5951
  68   0.0000       0.063621         1.7312
  69   0.0000       0.110749         3.0136
  70   0.0000       0.123390         3.3576
  71   0.0000       0.135799         3.6953

MULLIKEN ATOMIC CHARGES
-----------------------
   0 S :    0.113346
   1 C :   -0.099212
   2 C :   -0.119803
   3 C :    0.025913
   4 C :   -0.154441
   5 H :    0.009651
   6 C :    0.085335
   7 H :    0.023331
   8 H :    0.027280
   9 C :   -0.100565
  10 H :    0.032365
  11 H :    0.028084
  12 C :   -0.057298
  13 H :    0.053148
  14 H :    0.026444
  15 H :    0.019512
  16 S :    0.104731
  17 C :   -0.125879
  18 C :   -0.061520
  19 C :   -0.036020
  20 C :   -0.133325
  21 H :    0.022553
  22 C :    0.121861
  23 H :    0.004377
  24 H :    0.011720
  25 C :   -0.061976
  26 H :    0.013396
  27 H :    0.049505
  28 C :   -0.077946
  29 H :    0.035136
  30 H :    0.051309
  31 H :    0.028422
  32 H :    0.051181
  33 H :    0.089386
Sum of atomic charges:   -0.0000000

LOEWDIN ATOMIC CHARGES
----------------------
   0 S :    0.425932
   1 C :   -0.203194
   2 C :   -0.069174
   3 C :   -0.061367
   4 C :   -0.204344
   5 H :    0.027384
   6 C :   -0.025407
   7 H :    0.027196
   8 H :    0.031139
   9 C :   -0.039529
  10 H :    0.023266
  11 H :    0.018681
  12 C :   -0.063814
  13 H :    0.028922
  14 H :    0.017626
  15 H :    0.020327
  16 S :    0.424604
  17 C :   -0.204937
  18 C :   -0.078098
  19 C :   -0.055892
  20 C :   -0.198451
  21 H :    0.030125
  22 C :   -0.024459
  23 H :    0.032947
  24 H :    0.024592
  25 C :   -0.038961
  26 H :    0.019073
  27 H :    0.030330
  28 C :   -0.066742
  29 H :    0.026093
  30 H :    0.036066
  31 H :    0.018054
  32 H :    0.026063
  33 H :    0.045950

  Mayer bond orders larger than 0.100000
B(  0-S ,  1-C ) :   1.1816 B(  0-S ,  4-C ) :   1.1461 B(  1-C ,  2-C ) :   1.5553
B(  1-C ,  4-C ) :   0.1004 B(  1-C , 32-H ) :   0.9659 B(  2-C ,  3-C ) :   1.2979
B(  2-C ,  6-C ) :   1.0273 B(  3-C ,  4-C ) :   1.5384 B(  3-C ,  5-H ) :   0.9870
B(  4-C , 20-C ) :   1.0447 B(  6-C ,  7-H ) :   0.9465 B(  6-C ,  8-H ) :   0.9479
B(  6-C ,  9-C ) :   1.0641 B(  9-C , 10-H ) :   0.9583 B(  9-C , 11-H ) :   0.9616
B(  9-C , 12-C ) :   1.0823 B( 12-C , 13-H ) :   0.9694 B( 12-C , 14-H ) :   0.9747
B( 12-C , 15-H ) :   0.9763 B( 16-S , 17-C ) :   1.1883 B( 16-S , 20-C ) :   1.1821
B( 17-C , 18-C ) :   1.5176 B( 17-C , 20-C ) :   0.1239 B( 17-C , 33-H ) :   0.9649
B( 18-C , 19-C ) :   1.3137 B( 18-C , 21-H ) :   0.9878 B( 19-C , 20-C ) :   1.4972
B( 19-C , 22-C ) :   1.0480 B( 22-C , 23-H ) :   0.9252 B( 22-C , 24-H ) :   0.9187
B( 22-C , 25-C ) :   1.0816 B( 25-C , 26-H ) :   0.9548 B( 25-C , 27-H ) :   0.9609
B( 25-C , 28-C ) :   1.0547 B( 28-C , 29-H ) :   0.9742 B( 28-C , 30-H ) :   0.9731
B( 28-C , 31-H ) :   0.9826

Dispersion correction           -0.014703717
FINAL SINGLE POINT ENERGY     -1339.865944942619

DIPOLE MOMENT
-------------
                                X             Y             Z
Electronic contribution:     15.82155      -8.50655       8.94513
Nuclear contribution   :    -16.42285       8.46818      -9.32008
                        -----------------------------------------
Total Dipole Moment    :     -0.60129      -0.03837      -0.37496
                        -----------------------------------------
Magnitude (a.u.)       :      0.70966
Magnitude (Debye)      :      1.80382

Rotational constants in cm-1:     0.021114     0.008092     0.007000
Rotational constants in MHz :   632.991736   242.577450   209.854272

                             ****ORCA TERMINATED NORMALLY****
TOTAL RUN TIME: 0 days 0 hours 0 minutes 22 seconds 953 msec
