                         Program Version 4.2.1 -  RELEASE  -
|  1> ! wB97X-D3 SP def2-SVP
|  2> %pal
|  3> nprocs 24
|  4> end
|  5>
|  6> * xyz 0 1
|  7> S 	 -55.2113 	 -48.9376 	 -79.9958
|  8> C 	 -55.6623 	 -47.2611 	 -79.8968
|  9> C 	 -55.0831 	 -46.6878 	 -78.7382
| 10> C 	 -54.2915 	 -47.6702 	 -78.0136
| 11> C 	 -54.4293 	 -48.9155 	 -78.4936
| 12> H 	 -53.6469 	 -47.4804 	 -77.1418
| 13> C 	 -55.1012 	 -45.2258 	 -78.3879
| 14> H 	 -55.3887 	 -45.2087 	 -77.3539
| 15> H 	 -55.8714 	 -44.6119 	 -78.9308
| 16> C 	 -53.7917 	 -44.5597 	 -78.7534
| 17> H 	 -53.8697 	 -44.4185 	 -79.9059
| 18> H 	 -53.8658 	 -43.5426 	 -78.3199
| 19> C 	 -52.5016 	 -45.1592 	 -78.1861
| 20> H 	 -51.7562 	 -44.3968 	 -78.3124
| 21> H 	 -52.4625 	 -45.22 	 -77.1073
| 22> H 	 -52.1353 	 -46.0897 	 -78.6804
| 23> S 	 -52.0289 	 -50.3622 	 -78.6421
| 24> C 	 -51.8575 	 -51.7257 	 -77.6361
| 25> C 	 -52.829 	 -51.787 	 -76.6896
| 26> C 	 -53.894 	 -50.889 	 -76.9752
| 27> C 	 -53.6721 	 -50.0369 	 -78.0448
| 28> H 	 -52.8001 	 -52.5504 	 -75.9708
| 29> C 	 -55.1212 	 -50.8811 	 -76.1931
| 30> H 	 -55.4957 	 -51.9224 	 -76.068
| 31> H 	 -56.0034 	 -50.4981 	 -76.7405
| 32> C 	 -54.9975 	 -50.2993 	 -74.7895
| 33> H 	 -54.5777 	 -49.3677 	 -75.0512
| 34> H 	 -54.4076 	 -50.938 	 -74.1335
| 35> C 	 -56.3455 	 -49.9424 	 -74.1824
| 36> H 	 -56.1412 	 -49.4879 	 -73.237
| 37> H 	 -56.9657 	 -50.8512 	 -74.0714
| 38> H 	 -56.7227 	 -49.1171 	 -74.8079
| 39> H 	 -56.267 	 -46.7162 	 -80.5689
| 40> H 	 -50.949 	 -52.3298 	 -77.5189
| 41> *
| 42>
| 43>                          ****END OF INPUT****

CARTESIAN COORDINATES (ANGSTROEM)
---------------------------------
  S    -55.211300  -48.937600  -79.995800
  C    -55.662300  -47.261100  -79.896800
  C    -55.083100  -46.687800  -78.738200
  C    -54.291500  -47.670200  -78.013600
  C    -54.429300  -48.915500  -78.493600
  H    -53.646900  -47.480400  -77.141800
  C    -55.101200  -45.225800  -78.387900
  H    -55.388700  -45.208700  -77.353900
  H    -55.871400  -44.611900  -78.930800
  C    -53.791700  -44.559700  -78.753400
  H    -53.869700  -44.418500  -79.905900
  H    -53.865800  -43.542600  -78.319900
  C    -52.501600  -45.159200  -78.186100
  H    -51.756200  -44.396800  -78.312400
  H    -52.462500  -45.220000  -77.107300
  H    -52.135300  -46.089700  -78.680400
  S    -52.028900  -50.362200  -78.642100
  C    -51.857500  -51.725700  -77.636100
  C    -52.829000  -51.787000  -76.689600
  C    -53.894000  -50.889000  -76.975200
  C    -53.672100  -50.036900  -78.044800
  H    -52.800100  -52.550400  -75.970800
  C    -55.121200  -50.881100  -76.193100
  H    -55.495700  -51.922400  -76.068000
  H    -56.003400  -50.498100  -76.740500
  C    -54.997500  -50.299300  -74.789500
  H    -54.577700  -49.367700  -75.051200
  H    -54.407600  -50.938000  -74.133500
  C    -56.345500  -49.942400  -74.182400
  H    -56.141200  -49.487900  -73.237000
  H    -56.965700  -50.851200  -74.071400
  H    -56.722700  -49.117100  -74.807900
  H    -56.267000  -46.716200  -80.568900
  H    -50.949000  -52.329800  -77.518900

 Total Charge           Charge          ....    0
 Multiplicity           Mult            ....    1
 Number of Electrons    NEL             ....  134
 Basis Dimension        Dim             ....  322

ORBITAL ENERGIES
----------------

  NO   OCC          E(Eh)            E(eV)
   0   2.0000     -88.962974     -2420.8056
   1   2.0000     -88.960663     -2420.7427
   2   2.0000     -10.318930      -280.7924
   3   2.0000     -10.316321      -280.7214
   4   2.0000     -10.312872      -280.6275
   5   2.0000     -10.311603      -280.5930
   6   2.0000     -10.303373      -280.3690
   7   2.0000     -10.296253      -280.1753
   8   2.0000     -10.295232      -280.1475
   9   2.0000     -10.292708      -280.0788
  10   2.0000     -10.290396      -280.0159
  11   2.0000     -10.283534      -279.8292
  12   2.0000     -10.280090      -279.7355
  13   2.0000     -10.278585      -279.6945
  14   2.0000     -10.276360      -279.6340
  15   2.0000     -10.275175      -279.6017
  16   2.0000      -8.078940      -219.8391
  17   2.0000      -8.076010      -219.7594
  18   2.0000      -6.037361      -164.2850
  19   2.0000      -6.034440      -164.2055
  20   2.0000      -6.033250      -164.1731
  21   2.0000      -6.030470      -164.0974
  22   2.0000      -6.029726      -164.0772
  23   2.0000      -6.026778      -163.9970
  24   2.0000      -1.014276       -27.5999
  25   2.0000      -0.989870       -26.9357
  26   2.0000      -0.916713       -24.9450
  27   2.0000      -0.915705       -24.9176
  28   2.0000      -0.873763       -23.7763
  29   2.0000      -0.852878       -23.2080
  30   2.0000      -0.843467       -22.9519
  31   2.0000      -0.818867       -22.2825
  32   2.0000      -0.788571       -21.4581
  33   2.0000      -0.769740       -20.9457
  34   2.0000      -0.703010       -19.1299
  35   2.0000      -0.698463       -19.0062
  36   2.0000      -0.690842       -18.7988
  37   2.0000      -0.657166       -17.8824
  38   2.0000      -0.644509       -17.5380
  39   2.0000      -0.616033       -16.7631
  40   2.0000      -0.599587       -16.3156
  41   2.0000      -0.578999       -15.7554
  42   2.0000      -0.573078       -15.5942
  43   2.0000      -0.555452       -15.1146
  44   2.0000      -0.533552       -14.5187
  45   2.0000      -0.524059       -14.2604
  46   2.0000      -0.522356       -14.2140
  47   2.0000      -0.513797       -13.9811
  48   2.0000      -0.509888       -13.8748
  49   2.0000      -0.497842       -13.5470
  50   2.0000      -0.494676       -13.4608
  51   2.0000      -0.478684       -13.0257
  52   2.0000      -0.474398       -12.9090
  53   2.0000      -0.467230       -12.7140
  54   2.0000      -0.459834       -12.5127
  55   2.0000      -0.446755       -12.1568
  56   2.0000      -0.438849       -11.9417
  57   2.0000      -0.432646       -11.7729
  58   2.0000      -0.427048       -11.6206
  59   2.0000      -0.424032       -11.5385
  60   2.0000      -0.419285       -11.4093
  61   2.0000      -0.409584       -11.1453
  62   2.0000      -0.407280       -11.0827
  63   2.0000      -0.335395        -9.1266
  64   2.0000      -0.323289        -8.7972
  65   2.0000      -0.318969        -8.6796
  66   2.0000      -0.312573        -8.5056
  67   0.0000       0.047343         1.2883
  68   0.0000       0.058009         1.5785
  69   0.0000       0.114109         3.1051
  70   0.0000       0.126720         3.4482
  71   0.0000       0.131911         3.5895

MULLIKEN ATOMIC CHARGES
-----------------------
   0 S :    0.121753
   1 C :   -0.096646
   2 C :   -0.112879
   3 C :    0.012250
   4 C :   -0.166306
   5 H :    0.029227
   6 C :    0.071396
   7 H :    0.024937
   8 H :    0.024731
   9 C :   -0.105741
  10 H :    0.046215
  11 H :    0.030623
  12 C :   -0.040866
  13 H :    0.020915
  14 H :    0.026103
  15 H :    0.064013
  16 S :    0.108416
  17 C :   -0.085946
  18 C :   -0.013863
  19 C :   -0.006601
  20 C :   -0.153790
  21 H :   -0.003152
  22 C :    0.023454
  23 H :    0.013213
  24 H :    0.024749
  25 C :   -0.063556
  26 H :    0.008658
  27 H :    0.034270
  28 C :   -0.032768
  29 H :    0.025154
  30 H :    0.040813
  31 H :    0.037049
  32 H :    0.031061
  33 H :    0.063113
Sum of atomic charges:   -0.0000000

LOEWDIN ATOMIC CHARGES
----------------------
   0 S :    0.437249
   1 C :   -0.198210
   2 C :   -0.057121
   3 C :   -0.058509
   4 C :   -0.224356
   5 H :    0.036838
   6 C :   -0.043168
   7 H :    0.025460
   8 H :    0.035805
   9 C :   -0.045626
  10 H :    0.037581
  11 H :    0.027216
  12 C :   -0.074800
  13 H :    0.027542
  14 H :    0.026246
  15 H :    0.034838
  16 S :    0.406076
  17 C :   -0.192874
  18 C :   -0.069221
  19 C :   -0.050708
  20 C :   -0.200686
  21 H :    0.023185
  22 C :   -0.045882
  23 H :    0.028913
  24 H :    0.033334
  25 C :   -0.035455
  26 H :    0.018077
  27 H :    0.021740
  28 C :   -0.060576
  29 H :    0.022129
  30 H :    0.026935
  31 H :    0.031968
  32 H :    0.020037
  33 H :    0.036024

  Mayer bond orders larger than 0.100000
B(  0-S ,  1-C ) :   1.1481 B(  0-S ,  4-C ) :   1.1601 B(  1-C ,  2-C ) :   1.5929
B(  1-C , 32-H ) :   0.9781 B(  2-C ,  3-C ) :   1.2277 B(  2-C ,  6-C ) :   1.0292
B(  3-C ,  4-C ) :   1.5927 B(  3-C ,  5-H ) :   0.9870 B(  4-C , 20-C ) :   1.0179
B(  6-C ,  7-H ) :   0.9351 B(  6-C ,  8-H ) :   0.9428 B(  6-C ,  9-C ) :   1.0736
B(  9-C , 10-H ) :   0.9529 B(  9-C , 11-H ) :   0.9520 B(  9-C , 12-C ) :   1.0899
B( 12-C , 13-H ) :   0.9657 B( 12-C , 14-H ) :   0.9660 B( 12-C , 15-H ) :   0.9654
B( 16-S , 17-C ) :   1.1734 B( 16-S , 20-C ) :   1.1195 B( 17-C , 18-C ) :   1.6148
B( 17-C , 33-H ) :   0.9583 B( 18-C , 19-C ) :   1.2356 B( 18-C , 21-H ) :   0.9996
B( 19-C , 20-C ) :   1.6025 B( 19-C , 22-C ) :   1.0764 B( 22-C , 23-H ) :   0.9205
B( 22-C , 24-H ) :   0.9321 B( 22-C , 25-C ) :   1.0512 B( 25-C , 26-H ) :   0.9552
B( 25-C , 27-H ) :   0.9536 B( 25-C , 28-C ) :   1.0965 B( 28-C , 29-H ) :   0.9720
B( 28-C , 30-H ) :   0.9732 B( 28-C , 31-H ) :   0.9750

Dispersion correction           -0.015090709
FINAL SINGLE POINT ENERGY     -1339.865580849974

DIPOLE MOMENT
-------------
                                X             Y             Z
Electronic contribution:      5.17998     -13.44754     -17.04650
Nuclear contribution   :     -5.14863      13.85228      17.57155
                        -----------------------------------------
Total Dipole Moment    :      0.03135       0.40474       0.52505
                        -----------------------------------------
Magnitude (a.u.)       :      0.66368
Magnitude (Debye)      :      1.68695

Rotational constants in cm-1:     0.017487     0.009455     0.008126
Rotational constants in MHz :   524.256767   283.465608   243.596763

                             ****ORCA TERMINATED NORMALLY****
TOTAL RUN TIME: 0 days 0 hours 0 minutes 21 seconds 208 msec
