                         Program Version 4.2.1 -  RELEASE  -
|  1> ! wB97X-D3 SP def2-SVP
|  2> %pal
|  3> nprocs 24
|  4> end
|  5>
|  6> * xyz 0 1
|  7> S 	 -128.458 	 63.8414 	 -56.4943
|  8> C 	 -126.886 	 64.6882 	 -56.6358
|  9> C 	 -125.785 	 63.8257 	 -56.6467
| 10> C 	 -126.25 	 62.4581 	 -56.472
| 11> C 	 -127.591 	 62.3261 	 -56.1953
| 12> H 	 -125.656 	 61.6174 	 -56.42
| 13> C 	 -124.359 	 64.231 	 -56.6497
| 14> H 	 -123.788 	 63.4132 	 -56.2472
| 15> H 	 -124.138 	 65.0469 	 -55.9679
| 16> C 	 -123.701 	 64.5976 	 -58.0432
| 17> H 	 -123.352 	 63.5847 	 -58.3834
| 18> H 	 -124.414 	 65.0077 	 -58.7139
| 19> C 	 -122.463 	 65.5833 	 -58.0117
| 20> H 	 -122.234 	 65.9595 	 -58.993
| 21> H 	 -122.619 	 66.4413 	 -57.4645
| 22> H 	 -121.583 	 65.0145 	 -57.6933
| 23> S 	 -129.661 	 60.7677 	 -57.1239
| 24> C 	 -129.946 	 59.2781 	 -56.3671
| 25> C 	 -128.98 	 58.9132 	 -55.4482
| 26> C 	 -128.045 	 59.9957 	 -55.2647
| 27> C 	 -128.308 	 61.0794 	 -56.0424
| 28> H 	 -129.129 	 58.0687 	 -54.7992
| 29> C 	 -126.993 	 59.8242 	 -54.2573
| 30> H 	 -127.481 	 59.287 	 -53.5222
| 31> H 	 -126.722 	 60.7477 	 -53.6489
| 32> C 	 -125.659 	 59.1943 	 -54.6981
| 33> H 	 -125.357 	 59.8247 	 -55.4995
| 34> H 	 -125.863 	 58.2126 	 -55.113
| 35> C 	 -124.519 	 59.0386 	 -53.6402
| 36> H 	 -124.53 	 59.9988 	 -53.1306
| 37> H 	 -123.513 	 58.767 	 -53.9085
| 38> H 	 -124.763 	 58.432 	 -52.7947
| 39> H 	 -126.72 	 65.7372 	 -56.6313
| 40> H 	 -130.704 	 58.6606 	 -56.6487
| 41> *
| 42>
| 43>                          ****END OF INPUT****

CARTESIAN COORDINATES (ANGSTROEM)
---------------------------------
  S    -128.458000   63.841400  -56.494300
  C    -126.886000   64.688200  -56.635800
  C    -125.785000   63.825700  -56.646700
  C    -126.250000   62.458100  -56.472000
  C    -127.591000   62.326100  -56.195300
  H    -125.656000   61.617400  -56.420000
  C    -124.359000   64.231000  -56.649700
  H    -123.788000   63.413200  -56.247200
  H    -124.138000   65.046900  -55.967900
  C    -123.701000   64.597600  -58.043200
  H    -123.352000   63.584700  -58.383400
  H    -124.414000   65.007700  -58.713900
  C    -122.463000   65.583300  -58.011700
  H    -122.234000   65.959500  -58.993000
  H    -122.619000   66.441300  -57.464500
  H    -121.583000   65.014500  -57.693300
  S    -129.661000   60.767700  -57.123900
  C    -129.946000   59.278100  -56.367100
  C    -128.980000   58.913200  -55.448200
  C    -128.045000   59.995700  -55.264700
  C    -128.308000   61.079400  -56.042400
  H    -129.129000   58.068700  -54.799200
  C    -126.993000   59.824200  -54.257300
  H    -127.481000   59.287000  -53.522200
  H    -126.722000   60.747700  -53.648900
  C    -125.659000   59.194300  -54.698100
  H    -125.357000   59.824700  -55.499500
  H    -125.863000   58.212600  -55.113000
  C    -124.519000   59.038600  -53.640200
  H    -124.530000   59.998800  -53.130600
  H    -123.513000   58.767000  -53.908500
  H    -124.763000   58.432000  -52.794700
  H    -126.720000   65.737200  -56.631300
  H    -130.704000   58.660600  -56.648700

 Total Charge           Charge          ....    0
 Multiplicity           Mult            ....    1
 Number of Electrons    NEL             ....  134
 Basis Dimension        Dim             ....  322

ORBITAL ENERGIES
----------------

  NO   OCC          E(Eh)            E(eV)
   0   2.0000     -88.968811     -2420.9644
   1   2.0000     -88.965210     -2420.8664
   2   2.0000     -10.328432      -281.0509
   3   2.0000     -10.321954      -280.8747
   4   2.0000     -10.316173      -280.7173
   5   2.0000     -10.307312      -280.4762
   6   2.0000     -10.305265      -280.4205
   7   2.0000     -10.298935      -280.2483
   8   2.0000     -10.292271      -280.0669
   9   2.0000     -10.291900      -280.0568
  10   2.0000     -10.291877      -280.0562
  11   2.0000     -10.291287      -280.0402
  12   2.0000     -10.287671      -279.9417
  13   2.0000     -10.285326      -279.8780
  14   2.0000     -10.277583      -279.6672
  15   2.0000     -10.276029      -279.6250
  16   2.0000      -8.082376      -219.9326
  17   2.0000      -8.081079      -219.8973
  18   2.0000      -6.041058      -164.3855
  19   2.0000      -6.039448      -164.3417
  20   2.0000      -6.037209      -164.2808
  21   2.0000      -6.035477      -164.2337
  22   2.0000      -6.032873      -164.1628
  23   2.0000      -6.031875      -164.1357
  24   2.0000      -1.010521       -27.4977
  25   2.0000      -0.981610       -26.7110
  26   2.0000      -0.913874       -24.8678
  27   2.0000      -0.906743       -24.6737
  28   2.0000      -0.868297       -23.6276
  29   2.0000      -0.855914       -23.2906
  30   2.0000      -0.846325       -23.0297
  31   2.0000      -0.816106       -22.2074
  32   2.0000      -0.788193       -21.4478
  33   2.0000      -0.777566       -21.1586
  34   2.0000      -0.714656       -19.4468
  35   2.0000      -0.704956       -19.1828
  36   2.0000      -0.699958       -19.0468
  37   2.0000      -0.671719       -18.2784
  38   2.0000      -0.643991       -17.5239
  39   2.0000      -0.619807       -16.8658
  40   2.0000      -0.602654       -16.3991
  41   2.0000      -0.574727       -15.6391
  42   2.0000      -0.562936       -15.3183
  43   2.0000      -0.553538       -15.0625
  44   2.0000      -0.526892       -14.3374
  45   2.0000      -0.526584       -14.3291
  46   2.0000      -0.519014       -14.1231
  47   2.0000      -0.513884       -13.9835
  48   2.0000      -0.509545       -13.8654
  49   2.0000      -0.505551       -13.7567
  50   2.0000      -0.497524       -13.5383
  51   2.0000      -0.478467       -13.0198
  52   2.0000      -0.469280       -12.7698
  53   2.0000      -0.468264       -12.7421
  54   2.0000      -0.459999       -12.5172
  55   2.0000      -0.449810       -12.2399
  56   2.0000      -0.446191       -12.1415
  57   2.0000      -0.439774       -11.9669
  58   2.0000      -0.432393       -11.7660
  59   2.0000      -0.428205       -11.6521
  60   2.0000      -0.426857       -11.6154
  61   2.0000      -0.416634       -11.3372
  62   2.0000      -0.410605       -11.1731
  63   2.0000      -0.349395        -9.5075
  64   2.0000      -0.332639        -9.0516
  65   2.0000      -0.328551        -8.9403
  66   2.0000      -0.291235        -7.9249
  67   0.0000       0.028686         0.7806
  68   0.0000       0.067200         1.8286
  69   0.0000       0.104082         2.8322
  70   0.0000       0.115519         3.1434
  71   0.0000       0.131812         3.5868

MULLIKEN ATOMIC CHARGES
-----------------------
   0 S :    0.099763
   1 C :   -0.091289
   2 C :   -0.074217
   3 C :    0.071286
   4 C :   -0.140613
   5 H :   -0.042426
   6 C :    0.056852
   7 H :    0.016894
   8 H :    0.027542
   9 C :   -0.095712
  10 H :    0.038403
  11 H :    0.033456
  12 C :   -0.025728
  13 H :    0.025305
  14 H :    0.019116
  15 H :    0.035341
  16 S :    0.113171
  17 C :   -0.051087
  18 C :   -0.028863
  19 C :   -0.054990
  20 C :   -0.133182
  21 H :    0.024124
  22 C :    0.051211
  23 H :   -0.005697
  24 H :    0.027960
  25 C :   -0.030397
  26 H :    0.011724
  27 H :    0.020775
  28 C :   -0.020943
  29 H :    0.011070
  30 H :    0.042391
  31 H :    0.016675
  32 H :    0.032194
  33 H :    0.019892
Sum of atomic charges:    0.0000000

LOEWDIN ATOMIC CHARGES
----------------------
   0 S :    0.377644
   1 C :   -0.174059
   2 C :   -0.055673
   3 C :   -0.045013
   4 C :   -0.181347
   5 H :    0.012972
   6 C :   -0.037689
   7 H :    0.029273
   8 H :    0.031227
   9 C :   -0.032448
  10 H :    0.030157
  11 H :    0.016749
  12 C :   -0.059769
  13 H :    0.027333
  14 H :    0.012415
  15 H :    0.028566
  16 S :    0.421634
  17 C :   -0.177553
  18 C :   -0.067595
  19 C :   -0.056478
  20 C :   -0.194970
  21 H :    0.032507
  22 C :   -0.037544
  23 H :    0.018844
  24 H :    0.037119
  25 C :   -0.029892
  26 H :    0.016058
  27 H :    0.020934
  28 C :   -0.068771
  29 H :    0.025709
  30 H :    0.027660
  31 H :    0.023076
  32 H :    0.020970
  33 H :    0.007954

  Mayer bond orders larger than 0.100000
B(  0-S ,  1-C ) :   1.1240 B(  0-S ,  4-C ) :   1.1226 B(  1-C ,  2-C ) :   1.6282
B(  1-C , 32-H ) :   0.9681 B(  2-C ,  3-C ) :   1.2159 B(  2-C ,  6-C ) :   1.0369
B(  3-C ,  4-C ) :   1.5980 B(  3-C ,  5-H ) :   0.9999 B(  4-C , 20-C ) :   1.0446
B(  6-C ,  7-H ) :   0.9423 B(  6-C ,  8-H ) :   0.9465 B(  6-C ,  9-C ) :   1.0299
B(  9-C , 10-H ) :   0.9643 B(  9-C , 11-H ) :   0.9706 B(  9-C , 12-C ) :   1.0760
B( 12-C , 13-H ) :   0.9749 B( 12-C , 14-H ) :   0.9770 B( 12-C , 15-H ) :   0.9791
B( 16-S , 17-C ) :   1.1715 B( 16-S , 20-C ) :   1.1242 B( 17-C , 18-C ) :   1.6133
B( 17-C , 33-H ) :   0.9754 B( 18-C , 19-C ) :   1.2275 B( 18-C , 21-H ) :   0.9885
B( 19-C , 20-C ) :   1.6342 B( 19-C , 22-C ) :   1.0629 B( 22-C , 23-H ) :   0.9203
B( 22-C , 24-H ) :   0.9273 B( 22-C , 25-C ) :   1.0548 B( 25-C , 26-H ) :   0.9575
B( 25-C , 27-H ) :   0.9497 B( 25-C , 28-C ) :   1.0695 B( 28-C , 29-H ) :   0.9698
B( 28-C , 30-H ) :   0.9782 B( 28-C , 31-H ) :   0.9741

Dispersion correction           -0.013821817
FINAL SINGLE POINT ENERGY     -1339.854664605860

DIPOLE MOMENT
-------------
                                X             Y             Z
Electronic contribution:    -30.63206       0.67814      -5.70398
Nuclear contribution   :     31.22279      -0.83168       5.94062
                        -----------------------------------------
Total Dipole Moment    :      0.59073      -0.15355       0.23663
                        -----------------------------------------
Magnitude (a.u.)       :      0.65462
Magnitude (Debye)      :      1.66392

Rotational constants in cm-1:     0.017984     0.008327     0.006181
Rotational constants in MHz :   539.138515   249.638769   185.312418

                             ****ORCA TERMINATED NORMALLY****
TOTAL RUN TIME: 0 days 0 hours 0 minutes 20 seconds 219 msec
