                         Program Version 4.2.1 -  RELEASE  -
|  1> ! wB97X-D3 SP def2-SVP
|  2> %pal
|  3> nprocs 24
|  4> end
|  5>
|  6> * xyz 0 1
|  7> S 	 34.2667 	 -24.2455 	 -119.489
|  8> C 	 35.5 	 -23.8513 	 -118.393
|  9> C 	 36.3037 	 -25.0139 	 -118.104
| 10> C 	 35.7613 	 -26.2097 	 -118.72
| 11> C 	 34.645 	 -26.0165 	 -119.499
| 12> H 	 35.9795 	 -27.2812 	 -118.593
| 13> C 	 37.6292 	 -25.0868 	 -117.32
| 14> H 	 37.872 	 -24.0744 	 -116.878
| 15> H 	 38.2864 	 -25.2268 	 -118.214
| 16> C 	 37.7194 	 -26.2778 	 -116.28
| 17> H 	 37.5925 	 -27.2697 	 -116.633
| 18> H 	 38.7378 	 -26.209 	 -115.806
| 19> C 	 36.6452 	 -26.2336 	 -115.212
| 20> H 	 35.731 	 -26.4619 	 -115.719
| 21> H 	 36.8901 	 -26.9625 	 -114.491
| 22> H 	 36.5371 	 -25.207 	 -114.931
| 23> S 	 33.0589 	 -26.4689 	 -121.715
| 24> C 	 32.4089 	 -28.131 	 -122.009
| 25> C 	 32.8921 	 -29.0156 	 -121.026
| 26> C 	 33.7352 	 -28.4019 	 -120.073
| 27> C 	 33.9221 	 -27.0204 	 -120.284
| 28> H 	 32.6163 	 -30.0801 	 -121.022
| 29> C 	 34.2183 	 -29.2233 	 -118.871
| 30> H 	 33.1985 	 -29.5563 	 -118.559
| 31> H 	 34.4854 	 -28.5939 	 -118.075
| 32> C 	 34.9675 	 -30.5492 	 -119.017
| 33> H 	 34.5271 	 -31.1224 	 -119.806
| 34> H 	 34.9817 	 -31.0569 	 -118.046
| 35> C 	 36.4352 	 -30.3636 	 -119.271
| 36> H 	 36.9283 	 -31.3636 	 -119.351
| 37> H 	 36.9291 	 -29.7797 	 -118.419
| 38> H 	 36.6723 	 -29.6802 	 -120.177
| 39> H 	 35.7342 	 -22.826 	 -118.035
| 40> H 	 31.6367 	 -28.4758 	 -122.69
| 41> *
| 42>
| 43>                          ****END OF INPUT****

CARTESIAN COORDINATES (ANGSTROEM)
---------------------------------
  S     34.266700  -24.245500  -119.489000
  C     35.500000  -23.851300  -118.393000
  C     36.303700  -25.013900  -118.104000
  C     35.761300  -26.209700  -118.720000
  C     34.645000  -26.016500  -119.499000
  H     35.979500  -27.281200  -118.593000
  C     37.629200  -25.086800  -117.320000
  H     37.872000  -24.074400  -116.878000
  H     38.286400  -25.226800  -118.214000
  C     37.719400  -26.277800  -116.280000
  H     37.592500  -27.269700  -116.633000
  H     38.737800  -26.209000  -115.806000
  C     36.645200  -26.233600  -115.212000
  H     35.731000  -26.461900  -115.719000
  H     36.890100  -26.962500  -114.491000
  H     36.537100  -25.207000  -114.931000
  S     33.058900  -26.468900  -121.715000
  C     32.408900  -28.131000  -122.009000
  C     32.892100  -29.015600  -121.026000
  C     33.735200  -28.401900  -120.073000
  C     33.922100  -27.020400  -120.284000
  H     32.616300  -30.080100  -121.022000
  C     34.218300  -29.223300  -118.871000
  H     33.198500  -29.556300  -118.559000
  H     34.485400  -28.593900  -118.075000
  C     34.967500  -30.549200  -119.017000
  H     34.527100  -31.122400  -119.806000
  H     34.981700  -31.056900  -118.046000
  C     36.435200  -30.363600  -119.271000
  H     36.928300  -31.363600  -119.351000
  H     36.929100  -29.779700  -118.419000
  H     36.672300  -29.680200  -120.177000
  H     35.734200  -22.826000  -118.035000
  H     31.636700  -28.475800  -122.690000

 Total Charge           Charge          ....    0
 Multiplicity           Mult            ....    1
 Number of Electrons    NEL             ....  134
 Basis Dimension        Dim             ....  322

ORBITAL ENERGIES
----------------

  NO   OCC          E(Eh)            E(eV)
   0   2.0000     -88.971666     -2421.0421
   1   2.0000     -88.966742     -2420.9081
   2   2.0000     -10.335144      -281.2336
   3   2.0000     -10.335003      -281.2297
   4   2.0000     -10.326319      -280.9934
   5   2.0000     -10.321876      -280.8725
   6   2.0000     -10.313401      -280.6419
   7   2.0000     -10.309953      -280.5481
   8   2.0000     -10.306443      -280.4526
   9   2.0000     -10.300185      -280.2823
  10   2.0000     -10.296648      -280.1860
  11   2.0000     -10.294143      -280.1179
  12   2.0000     -10.292055      -280.0611
  13   2.0000     -10.290568      -280.0206
  14   2.0000     -10.289543      -279.9927
  15   2.0000     -10.266205      -279.3576
  16   2.0000      -8.084881      -220.0008
  17   2.0000      -8.081208      -219.9008
  18   2.0000      -6.043594      -164.4546
  19   2.0000      -6.039824      -164.3520
  20   2.0000      -6.039593      -164.3457
  21   2.0000      -6.035635      -164.2380
  22   2.0000      -6.035519      -164.2348
  23   2.0000      -6.031982      -164.1386
  24   2.0000      -1.000794       -27.2330
  25   2.0000      -0.978160       -26.6171
  26   2.0000      -0.915806       -24.9204
  27   2.0000      -0.906979       -24.6801
  28   2.0000      -0.871284       -23.7089
  29   2.0000      -0.856049       -23.2943
  30   2.0000      -0.846569       -23.0363
  31   2.0000      -0.815618       -22.1941
  32   2.0000      -0.780301       -21.2331
  33   2.0000      -0.766369       -20.8539
  34   2.0000      -0.706055       -19.2127
  35   2.0000      -0.696230       -18.9454
  36   2.0000      -0.693179       -18.8624
  37   2.0000      -0.659174       -17.9370
  38   2.0000      -0.641025       -17.4432
  39   2.0000      -0.617634       -16.8067
  40   2.0000      -0.597928       -16.2705
  41   2.0000      -0.566598       -15.4179
  42   2.0000      -0.557626       -15.1738
  43   2.0000      -0.555431       -15.1140
  44   2.0000      -0.542657       -14.7665
  45   2.0000      -0.533883       -14.5277
  46   2.0000      -0.528201       -14.3731
  47   2.0000      -0.511434       -13.9168
  48   2.0000      -0.506440       -13.7809
  49   2.0000      -0.498267       -13.5585
  50   2.0000      -0.491431       -13.3725
  51   2.0000      -0.481623       -13.1056
  52   2.0000      -0.469713       -12.7815
  53   2.0000      -0.463167       -12.6034
  54   2.0000      -0.455626       -12.3982
  55   2.0000      -0.447075       -12.1655
  56   2.0000      -0.443010       -12.0549
  57   2.0000      -0.440326       -11.9819
  58   2.0000      -0.433350       -11.7920
  59   2.0000      -0.426994       -11.6191
  60   2.0000      -0.420385       -11.4393
  61   2.0000      -0.412692       -11.2299
  62   2.0000      -0.406649       -11.0655
  63   2.0000      -0.361856        -9.8466
  64   2.0000      -0.334481        -9.1017
  65   2.0000      -0.321580        -8.7506
  66   2.0000      -0.279743        -7.6122
  67   0.0000       0.018240         0.4963
  68   0.0000       0.076252         2.0749
  69   0.0000       0.099725         2.7136
  70   0.0000       0.112449         3.0599
  71   0.0000       0.117098         3.1864

MULLIKEN ATOMIC CHARGES
-----------------------
   0 S :    0.107341
   1 C :   -0.121789
   2 C :   -0.123474
   3 C :    0.011434
   4 C :   -0.139081
   5 H :    0.000300
   6 C :    0.037088
   7 H :    0.036088
   8 H :    0.061215
   9 C :   -0.101975
  10 H :    0.023335
  11 H :    0.038375
  12 C :   -0.000192
  13 H :    0.024906
  14 H :    0.035287
  15 H :    0.019502
  16 S :    0.102786
  17 C :   -0.090067
  18 C :   -0.061480
  19 C :   -0.035311
  20 C :   -0.134482
  21 H :    0.032654
  22 C :    0.024225
  23 H :    0.035945
  24 H :    0.007662
  25 C :   -0.000125
  26 H :    0.026339
  27 H :    0.036701
  28 C :   -0.122403
  29 H :    0.049132
  30 H :    0.035296
  31 H :    0.053333
  32 H :    0.069108
  33 H :    0.062327
Sum of atomic charges:    0.0000000

LOEWDIN ATOMIC CHARGES
----------------------
   0 S :    0.399456
   1 C :   -0.228743
   2 C :   -0.065295
   3 C :   -0.074481
   4 C :   -0.175911
   5 H :    0.034120
   6 C :   -0.038989
   7 H :    0.035020
   8 H :    0.045866
   9 C :   -0.042235
  10 H :    0.016703
  11 H :    0.028199
  12 C :   -0.052997
  13 H :    0.022963
  14 H :    0.023412
  15 H :    0.021564
  16 S :    0.386983
  17 C :   -0.175116
  18 C :   -0.071293
  19 C :   -0.059628
  20 C :   -0.193556
  21 H :    0.036141
  22 C :   -0.037730
  23 H :    0.046445
  24 H :    0.019948
  25 C :   -0.037868
  26 H :    0.022611
  27 H :    0.035106
  28 C :   -0.083938
  29 H :    0.030098
  30 H :    0.025556
  31 H :    0.033272
  32 H :    0.039945
  33 H :    0.034373

  Mayer bond orders larger than 0.100000
B(  0-S ,  1-C ) :   1.1560 B(  0-S ,  4-C ) :   1.1288 B(  1-C ,  2-C ) :   1.5745
B(  1-C , 32-H ) :   0.9646 B(  2-C ,  3-C ) :   1.2303 B(  2-C ,  6-C ) :   1.0044
B(  3-C ,  4-C ) :   1.5907 B(  3-C ,  5-H ) :   0.9803 B(  4-C , 20-C ) :   1.0812
B(  6-C ,  7-H ) :   0.9475 B(  6-C ,  8-H ) :   0.9426 B(  6-C ,  9-C ) :   1.0566
B(  9-C , 10-H ) :   0.9594 B(  9-C , 11-H ) :   0.9589 B(  9-C , 12-C ) :   1.0723
B( 12-C , 13-H ) :   0.9703 B( 12-C , 14-H ) :   0.9735 B( 12-C , 15-H ) :   0.9761
B( 16-S , 17-C ) :   1.1381 B( 16-S , 20-C ) :   1.1285 B( 17-C , 18-C ) :   1.6106
B( 17-C , 20-C ) :   0.1031 B( 17-C , 33-H ) :   0.9656 B( 18-C , 19-C ) :   1.2683
B( 18-C , 21-H ) :   0.9785 B( 19-C , 20-C ) :   1.5622 B( 19-C , 22-C ) :   1.0168
B( 22-C , 23-H ) :   0.9273 B( 22-C , 24-H ) :   0.9360 B( 22-C , 25-C ) :   1.0783
B( 25-C , 26-H ) :   0.9492 B( 25-C , 27-H ) :   0.9466 B( 25-C , 28-C ) :   1.0864
B( 28-C , 29-H ) :   0.9710 B( 28-C , 30-H ) :   0.9684 B( 28-C , 31-H ) :   0.9720

Dispersion correction           -0.014986963
FINAL SINGLE POINT ENERGY     -1339.853212047125

DIPOLE MOMENT
-------------
                                X             Y             Z
Electronic contribution:    -16.71034      17.06771     -19.41206
Nuclear contribution   :     16.94211     -17.68856      19.85545
                        -----------------------------------------
Total Dipole Moment    :      0.23177      -0.62085       0.44339
                        -----------------------------------------
Magnitude (a.u.)       :      0.79735
Magnitude (Debye)      :      2.02670

Rotational constants in cm-1:     0.017070     0.010428     0.006941
Rotational constants in MHz :   511.756271   312.620112   208.092621

                             ****ORCA TERMINATED NORMALLY****
TOTAL RUN TIME: 0 days 0 hours 0 minutes 21 seconds 293 msec
