                         Program Version 4.2.1 -  RELEASE  -
|  1> ! wB97X-D3 SP def2-SVP
|  2> %pal
|  3> nprocs 24
|  4> end
|  5>
|  6> * xyz 0 1
|  7> S 	 -52.3412 	 10.8347 	 -103.746
|  8> C 	 -52.9124 	 9.21165 	 -104.19
|  9> C 	 -53.5246 	 9.21972 	 -105.394
| 10> C 	 -53.4397 	 10.5413 	 -106.024
| 11> C 	 -52.8588 	 11.4974 	 -105.255
| 12> H 	 -53.8873 	 10.7356 	 -107.003
| 13> C 	 -54.183 	 8.05805 	 -106.153
| 14> H 	 -53.4085 	 7.28495 	 -106.313
| 15> H 	 -54.3539 	 8.38045 	 -107.191
| 16> C 	 -55.4702 	 7.60069 	 -105.525
| 17> H 	 -55.2532 	 7.20829 	 -104.442
| 18> H 	 -56.2329 	 8.36243 	 -105.372
| 19> C 	 -56.1001 	 6.42238 	 -106.198
| 20> H 	 -55.4133 	 5.66079 	 -106.202
| 21> H 	 -57.0176 	 6.08368 	 -105.774
| 22> H 	 -56.3054 	 6.56968 	 -107.285
| 23> S 	 -52.6205 	 13.9798 	 -104.13
| 24> C 	 -52.1878 	 15.4326 	 -105.084
| 25> C 	 -52.1848 	 15.1201 	 -106.438
| 26> C 	 -52.3713 	 13.681 	 -106.702
| 27> C 	 -52.6153 	 12.9255 	 -105.507
| 28> H 	 -51.9188 	 15.8224 	 -107.231
| 29> C 	 -52.3729 	 13.0517 	 -108.06
| 30> H 	 -52.5142 	 12.0191 	 -107.936
| 31> H 	 -51.332 	 13.138 	 -108.417
| 32> C 	 -53.416 	 13.6415 	 -109.04
| 33> H 	 -53.1898 	 13.1794 	 -110.016
| 34> H 	 -53.3893 	 14.7161 	 -109.216
| 35> C 	 -54.8202 	 13.1973 	 -108.649
| 36> H 	 -54.937 	 13.1853 	 -107.515
| 37> H 	 -55.1159 	 12.1603 	 -108.91
| 38> H 	 -55.5567 	 13.8734 	 -109.059
| 39> H 	 -52.9569 	 8.39471 	 -103.502
| 40> H 	 -52.0376 	 16.4479 	 -104.837
| 41> *
| 42>
| 43>                          ****END OF INPUT****

CARTESIAN COORDINATES (ANGSTROEM)
---------------------------------
  S    -52.341200   10.834700  -103.746000
  C    -52.912400    9.211650  -104.190000
  C    -53.524600    9.219720  -105.394000
  C    -53.439700   10.541300  -106.024000
  C    -52.858800   11.497400  -105.255000
  H    -53.887300   10.735600  -107.003000
  C    -54.183000    8.058050  -106.153000
  H    -53.408500    7.284950  -106.313000
  H    -54.353900    8.380450  -107.191000
  C    -55.470200    7.600690  -105.525000
  H    -55.253200    7.208290  -104.442000
  H    -56.232900    8.362430  -105.372000
  C    -56.100100    6.422380  -106.198000
  H    -55.413300    5.660790  -106.202000
  H    -57.017600    6.083680  -105.774000
  H    -56.305400    6.569680  -107.285000
  S    -52.620500   13.979800  -104.130000
  C    -52.187800   15.432600  -105.084000
  C    -52.184800   15.120100  -106.438000
  C    -52.371300   13.681000  -106.702000
  C    -52.615300   12.925500  -105.507000
  H    -51.918800   15.822400  -107.231000
  C    -52.372900   13.051700  -108.060000
  H    -52.514200   12.019100  -107.936000
  H    -51.332000   13.138000  -108.417000
  C    -53.416000   13.641500  -109.040000
  H    -53.189800   13.179400  -110.016000
  H    -53.389300   14.716100  -109.216000
  C    -54.820200   13.197300  -108.649000
  H    -54.937000   13.185300  -107.515000
  H    -55.115900   12.160300  -108.910000
  H    -55.556700   13.873400  -109.059000
  H    -52.956900    8.394710  -103.502000
  H    -52.037600   16.447900  -104.837000

 Total Charge           Charge          ....    0
 Multiplicity           Mult            ....    1
 Number of Electrons    NEL             ....  134
 Basis Dimension        Dim             ....  322

ORBITAL ENERGIES
----------------

  NO   OCC          E(Eh)            E(eV)
   0   2.0000     -88.968446     -2420.9545
   1   2.0000     -88.963686     -2420.8250
   2   2.0000     -10.332518      -281.1621
   3   2.0000     -10.331709      -281.1401
   4   2.0000     -10.321029      -280.8495
   5   2.0000     -10.312427      -280.6154
   6   2.0000     -10.309097      -280.5248
   7   2.0000     -10.303155      -280.3631
   8   2.0000     -10.301356      -280.3142
   9   2.0000     -10.299519      -280.2642
  10   2.0000     -10.294812      -280.1361
  11   2.0000     -10.293257      -280.0938
  12   2.0000     -10.291079      -280.0345
  13   2.0000     -10.287811      -279.9456
  14   2.0000     -10.280287      -279.7408
  15   2.0000     -10.269413      -279.4449
  16   2.0000      -8.082351      -219.9320
  17   2.0000      -8.078795      -219.8352
  18   2.0000      -6.041140      -164.3878
  19   2.0000      -6.037558      -164.2903
  20   2.0000      -6.036849      -164.2710
  21   2.0000      -6.033230      -164.1725
  22   2.0000      -6.032972      -164.1655
  23   2.0000      -6.029266      -164.0647
  24   2.0000      -1.006980       -27.4013
  25   2.0000      -0.978823       -26.6351
  26   2.0000      -0.918344       -24.9894
  27   2.0000      -0.910547       -24.7773
  28   2.0000      -0.874012       -23.7831
  29   2.0000      -0.848549       -23.0902
  30   2.0000      -0.841711       -22.9041
  31   2.0000      -0.819998       -22.3133
  32   2.0000      -0.785412       -21.3721
  33   2.0000      -0.770223       -20.9588
  34   2.0000      -0.707270       -19.2458
  35   2.0000      -0.704343       -19.1661
  36   2.0000      -0.697646       -18.9839
  37   2.0000      -0.656925       -17.8758
  38   2.0000      -0.640524       -17.4296
  39   2.0000      -0.623139       -16.9565
  40   2.0000      -0.594105       -16.1664
  41   2.0000      -0.569729       -15.5031
  42   2.0000      -0.562549       -15.3077
  43   2.0000      -0.555418       -15.1137
  44   2.0000      -0.538884       -14.6638
  45   2.0000      -0.532417       -14.4878
  46   2.0000      -0.524063       -14.2605
  47   2.0000      -0.519494       -14.1362
  48   2.0000      -0.505318       -13.7504
  49   2.0000      -0.498807       -13.5732
  50   2.0000      -0.491418       -13.3722
  51   2.0000      -0.474295       -12.9062
  52   2.0000      -0.469083       -12.7644
  53   2.0000      -0.466309       -12.6889
  54   2.0000      -0.459447       -12.5022
  55   2.0000      -0.452436       -12.3114
  56   2.0000      -0.447511       -12.1774
  57   2.0000      -0.438169       -11.9232
  58   2.0000      -0.435618       -11.8538
  59   2.0000      -0.430891       -11.7252
  60   2.0000      -0.418218       -11.3803
  61   2.0000      -0.407926       -11.1002
  62   2.0000      -0.405030       -11.0214
  63   2.0000      -0.359134        -9.7725
  64   2.0000      -0.331703        -9.0261
  65   2.0000      -0.326839        -8.8937
  66   2.0000      -0.288919        -7.8619
  67   0.0000       0.024323         0.6619
  68   0.0000       0.080728         2.1967
  69   0.0000       0.099548         2.7088
  70   0.0000       0.116043         3.1577
  71   0.0000       0.132746         3.6122

MULLIKEN ATOMIC CHARGES
-----------------------
   0 S :    0.091972
   1 C :   -0.116433
   2 C :   -0.077039
   3 C :   -0.015844
   4 C :   -0.094493
   5 H :    0.008357
   6 C :    0.067194
   7 H :    0.041549
   8 H :    0.014020
   9 C :   -0.104654
  10 H :    0.033133
  11 H :    0.037445
  12 C :    0.011442
  13 H :    0.000635
  14 H :    0.029090
  15 H :    0.017921
  16 S :    0.097826
  17 C :   -0.058495
  18 C :   -0.038903
  19 C :   -0.092159
  20 C :   -0.125751
  21 H :    0.029211
  22 C :    0.083535
  23 H :   -0.004455
  24 H :    0.036044
  25 C :   -0.051875
  26 H :    0.030846
  27 H :    0.035798
  28 C :   -0.087922
  29 H :    0.049135
  30 H :    0.035589
  31 H :    0.034309
  32 H :    0.039454
  33 H :    0.043518
Sum of atomic charges:   -0.0000000

LOEWDIN ATOMIC CHARGES
----------------------
   0 S :    0.396246
   1 C :   -0.182317
   2 C :   -0.055529
   3 C :   -0.075345
   4 C :   -0.190893
   5 H :    0.028209
   6 C :   -0.033300
   7 H :    0.037942
   8 H :    0.029533
   9 C :   -0.045685
  10 H :    0.032459
  11 H :    0.026582
  12 C :   -0.060742
  13 H :    0.012114
  14 H :    0.024367
  15 H :    0.025811
  16 S :    0.398596
  17 C :   -0.174321
  18 C :   -0.067176
  19 C :   -0.053346
  20 C :   -0.206148
  21 H :    0.033443
  22 C :   -0.033509
  23 H :    0.022288
  24 H :    0.037392
  25 C :   -0.038527
  26 H :    0.028600
  27 H :    0.024303
  28 C :   -0.075491
  29 H :    0.033654
  30 H :    0.023983
  31 H :    0.025036
  32 H :    0.024002
  33 H :    0.027769

  Mayer bond orders larger than 0.100000
B(  0-S ,  1-C ) :   1.1104 B(  0-S ,  4-C ) :   1.1440 B(  1-C ,  2-C ) :   1.6630
B(  1-C , 32-H ) :   0.9701 B(  2-C ,  3-C ) :   1.2219 B(  2-C ,  6-C ) :   1.0067
B(  3-C ,  4-C ) :   1.5983 B(  3-C ,  5-H ) :   0.9823 B(  4-C , 20-C ) :   1.0409
B(  6-C ,  7-H ) :   0.9405 B(  6-C ,  8-H ) :   0.9391 B(  6-C ,  9-C ) :   1.0600
B(  9-C , 10-H ) :   0.9534 B(  9-C , 11-H ) :   0.9575 B(  9-C , 12-C ) :   1.0893
B( 12-C , 13-H ) :   0.9695 B( 12-C , 14-H ) :   0.9719 B( 12-C , 15-H ) :   0.9683
B( 16-S , 17-C ) :   1.1320 B( 16-S , 20-C ) :   1.1376 B( 17-C , 18-C ) :   1.6250
B( 17-C , 33-H ) :   0.9710 B( 18-C , 19-C ) :   1.2415 B( 18-C , 21-H ) :   0.9796
B( 19-C , 20-C ) :   1.5620 B( 19-C , 22-C ) :   1.0557 B( 22-C , 23-H ) :   0.9349
B( 22-C , 24-H ) :   0.9225 B( 22-C , 25-C ) :   1.0634 B( 25-C , 26-H ) :   0.9531
B( 25-C , 27-H ) :   0.9632 B( 25-C , 28-C ) :   1.0641 B( 28-C , 29-H ) :   0.9770
B( 28-C , 30-H ) :   0.9714 B( 28-C , 31-H ) :   0.9727

Dispersion correction           -0.014437283
FINAL SINGLE POINT ENERGY     -1339.878535079220

DIPOLE MOMENT
-------------
                                X             Y             Z
Electronic contribution:     14.93692      14.61131      20.77180
Nuclear contribution   :    -15.17771     -14.82509     -21.45951
                        -----------------------------------------
Total Dipole Moment    :     -0.24079      -0.21378      -0.68771
                        -----------------------------------------
Magnitude (a.u.)       :      0.75936
Magnitude (Debye)      :      1.93014

Rotational constants in cm-1:     0.020652     0.008282     0.006348
Rotational constants in MHz :   619.137672   248.298720   190.313390

                             ****ORCA TERMINATED NORMALLY****
TOTAL RUN TIME: 0 days 0 hours 0 minutes 21 seconds 707 msec
