                         Program Version 4.2.1 -  RELEASE  -
|  1> ! wB97X-D3 SP def2-SVP
|  2> %pal
|  3> nprocs 24
|  4> end
|  5>
|  6> * xyz 0 1
|  7> S 	 -59.4402 	 16.4711 	 -93.0395
|  8> C 	 -58.1905 	 17.6346 	 -92.4039
|  9> C 	 -57.5436 	 17.1754 	 -91.3165
| 10> C 	 -57.9833 	 15.8347 	 -90.9644
| 11> C 	 -58.942 	 15.2966 	 -91.7757
| 12> H 	 -57.5477 	 15.2732 	 -90.1778
| 13> C 	 -56.5018 	 17.8817 	 -90.5253
| 14> H 	 -56.3005 	 17.1746 	 -89.7158
| 15> H 	 -56.8699 	 18.8503 	 -90.0214
| 16> C 	 -55.1924 	 18.2402 	 -91.224
| 17> H 	 -55.3359 	 18.9905 	 -92.0687
| 18> H 	 -54.501 	 18.6587 	 -90.5147
| 19> C 	 -54.4225 	 17.0771 	 -91.8649
| 20> H 	 -54.9658 	 16.6171 	 -92.6836
| 21> H 	 -53.5602 	 17.3941 	 -92.3242
| 22> H 	 -54.1567 	 16.372 	 -91.073
| 23> S 	 -61.3652 	 13.8958 	 -91.6576
| 24> C 	 -61.3335 	 12.1348 	 -91.4864
| 25> C 	 -60.0316 	 11.6001 	 -91.407
| 26> C 	 -59.0964 	 12.6903 	 -91.4507
| 27> C 	 -59.5983 	 13.9839 	 -91.692
| 28> H 	 -59.7912 	 10.5507 	 -91.3032
| 29> C 	 -57.6615 	 12.292 	 -91.5672
| 30> H 	 -57.4285 	 11.5337 	 -90.9064
| 31> H 	 -57.0313 	 13.1659 	 -91.2186
| 32> C 	 -57.2809 	 11.9541 	 -92.9423
| 33> H 	 -57.3414 	 12.9026 	 -93.4943
| 34> H 	 -58.0071 	 11.2945 	 -93.2996
| 35> C 	 -55.8965 	 11.4341 	 -93.1486
| 36> H 	 -55.07 	 12.1261 	 -92.7344
| 37> H 	 -55.8319 	 11.307 	 -94.1754
| 38> H 	 -55.5947 	 10.4933 	 -92.7056
| 39> H 	 -58.1899 	 18.6265 	 -92.7734
| 40> H 	 -62.16 	 11.5316 	 -91.5062
| 41> *
| 42>
| 43>                          ****END OF INPUT****

CARTESIAN COORDINATES (ANGSTROEM)
---------------------------------
  S    -59.440200   16.471100  -93.039500
  C    -58.190500   17.634600  -92.403900
  C    -57.543600   17.175400  -91.316500
  C    -57.983300   15.834700  -90.964400
  C    -58.942000   15.296600  -91.775700
  H    -57.547700   15.273200  -90.177800
  C    -56.501800   17.881700  -90.525300
  H    -56.300500   17.174600  -89.715800
  H    -56.869900   18.850300  -90.021400
  C    -55.192400   18.240200  -91.224000
  H    -55.335900   18.990500  -92.068700
  H    -54.501000   18.658700  -90.514700
  C    -54.422500   17.077100  -91.864900
  H    -54.965800   16.617100  -92.683600
  H    -53.560200   17.394100  -92.324200
  H    -54.156700   16.372000  -91.073000
  S    -61.365200   13.895800  -91.657600
  C    -61.333500   12.134800  -91.486400
  C    -60.031600   11.600100  -91.407000
  C    -59.096400   12.690300  -91.450700
  C    -59.598300   13.983900  -91.692000
  H    -59.791200   10.550700  -91.303200
  C    -57.661500   12.292000  -91.567200
  H    -57.428500   11.533700  -90.906400
  H    -57.031300   13.165900  -91.218600
  C    -57.280900   11.954100  -92.942300
  H    -57.341400   12.902600  -93.494300
  H    -58.007100   11.294500  -93.299600
  C    -55.896500   11.434100  -93.148600
  H    -55.070000   12.126100  -92.734400
  H    -55.831900   11.307000  -94.175400
  H    -55.594700   10.493300  -92.705600
  H    -58.189900   18.626500  -92.773400
  H    -62.160000   11.531600  -91.506200

 Total Charge           Charge          ....    0
 Multiplicity           Mult            ....    1
 Number of Electrons    NEL             ....  134
 Basis Dimension        Dim             ....  322

ORBITAL ENERGIES
----------------

  NO   OCC          E(Eh)            E(eV)
   0   2.0000     -88.968594     -2420.9585
   1   2.0000     -88.963823     -2420.8287
   2   2.0000     -10.336322      -281.2656
   3   2.0000     -10.331642      -281.1383
   4   2.0000     -10.319610      -280.8109
   5   2.0000     -10.314608      -280.6747
   6   2.0000     -10.303443      -280.3709
   7   2.0000     -10.301263      -280.3116
   8   2.0000     -10.300158      -280.2816
   9   2.0000     -10.299215      -280.2559
  10   2.0000     -10.294823      -280.1364
  11   2.0000     -10.290910      -280.0299
  12   2.0000     -10.275303      -279.6052
  13   2.0000     -10.272441      -279.5273
  14   2.0000     -10.270841      -279.4838
  15   2.0000     -10.267912      -279.4041
  16   2.0000      -8.082515      -219.9364
  17   2.0000      -8.077293      -219.7943
  18   2.0000      -6.041108      -164.3869
  19   2.0000      -6.037083      -164.2774
  20   2.0000      -6.036005      -164.2481
  21   2.0000      -6.033297      -164.1744
  22   2.0000      -6.032170      -164.1437
  23   2.0000      -6.027726      -164.0228
  24   2.0000      -0.999490       -27.1975
  25   2.0000      -0.978824       -26.6352
  26   2.0000      -0.921382       -25.0721
  27   2.0000      -0.912693       -24.8357
  28   2.0000      -0.868611       -23.6361
  29   2.0000      -0.852308       -23.1925
  30   2.0000      -0.844186       -22.9715
  31   2.0000      -0.817063       -22.2334
  32   2.0000      -0.786031       -21.3890
  33   2.0000      -0.774268       -21.0689
  34   2.0000      -0.708597       -19.2819
  35   2.0000      -0.702798       -19.1241
  36   2.0000      -0.692866       -18.8538
  37   2.0000      -0.669311       -18.2129
  38   2.0000      -0.642957       -17.4957
  39   2.0000      -0.615014       -16.7354
  40   2.0000      -0.598148       -16.2764
  41   2.0000      -0.576294       -15.6818
  42   2.0000      -0.570357       -15.5202
  43   2.0000      -0.551690       -15.0122
  44   2.0000      -0.546394       -14.8681
  45   2.0000      -0.535028       -14.5588
  46   2.0000      -0.519578       -14.1384
  47   2.0000      -0.512783       -13.9535
  48   2.0000      -0.509694       -13.8695
  49   2.0000      -0.500901       -13.6302
  50   2.0000      -0.492331       -13.3970
  51   2.0000      -0.472511       -12.8577
  52   2.0000      -0.468573       -12.7505
  53   2.0000      -0.465043       -12.6545
  54   2.0000      -0.454616       -12.3707
  55   2.0000      -0.445934       -12.1345
  56   2.0000      -0.443086       -12.0570
  57   2.0000      -0.438655       -11.9364
  58   2.0000      -0.433754       -11.8031
  59   2.0000      -0.420872       -11.4525
  60   2.0000      -0.418308       -11.3827
  61   2.0000      -0.415009       -11.2930
  62   2.0000      -0.407879       -11.0990
  63   2.0000      -0.347878        -9.4663
  64   2.0000      -0.332008        -9.0344
  65   2.0000      -0.331198        -9.0124
  66   2.0000      -0.293695        -7.9918
  67   0.0000       0.024803         0.6749
  68   0.0000       0.065552         1.7838
  69   0.0000       0.101222         2.7544
  70   0.0000       0.117850         3.2069
  71   0.0000       0.124778         3.3954

MULLIKEN ATOMIC CHARGES
-----------------------
   0 S :    0.075835
   1 C :   -0.124753
   2 C :   -0.069997
   3 C :    0.045450
   4 C :   -0.139801
   5 H :    0.005088
   6 C :    0.068006
   7 H :    0.012429
   8 H :    0.055980
   9 C :   -0.095462
  10 H :    0.035784
  11 H :    0.029622
  12 C :   -0.026030
  13 H :    0.038217
  14 H :    0.010961
  15 H :    0.025172
  16 S :    0.105425
  17 C :   -0.051373
  18 C :   -0.032645
  19 C :   -0.062954
  20 C :   -0.129750
  21 H :    0.030098
  22 C :    0.075284
  23 H :   -0.007012
  24 H :    0.006381
  25 C :   -0.036155
  26 H :    0.031384
  27 H :    0.004644
  28 C :   -0.018772
  29 H :    0.032982
  30 H :    0.022670
  31 H :    0.017784
  32 H :    0.039801
  33 H :    0.025708
Sum of atomic charges:   -0.0000000

LOEWDIN ATOMIC CHARGES
----------------------
   0 S :    0.346553
   1 C :   -0.156748
   2 C :   -0.064662
   3 C :   -0.054663
   4 C :   -0.170400
   5 H :    0.025052
   6 C :   -0.038556
   7 H :    0.029377
   8 H :    0.046309
   9 C :   -0.041754
  10 H :    0.028160
  11 H :    0.023364
  12 C :   -0.061013
  13 H :    0.027168
  14 H :    0.014896
  15 H :    0.024020
  16 S :    0.398402
  17 C :   -0.157038
  18 C :   -0.064330
  19 C :   -0.048991
  20 C :   -0.202800
  21 H :    0.036086
  22 C :   -0.036205
  23 H :    0.013991
  24 H :    0.029521
  25 C :   -0.037258
  26 H :    0.035242
  27 H :    0.016119
  28 C :   -0.063161
  29 H :    0.034412
  30 H :    0.020540
  31 H :    0.019521
  32 H :    0.019774
  33 H :    0.009075

  Mayer bond orders larger than 0.100000
B(  0-S ,  1-C ) :   1.1044 B(  0-S ,  4-C ) :   1.1215 B(  1-C ,  2-C ) :   1.6591
B(  1-C , 32-H ) :   0.9751 B(  2-C ,  3-C ) :   1.1965 B(  2-C ,  6-C ) :   1.0177
B(  3-C ,  4-C ) :   1.6296 B(  3-C ,  5-H ) :   0.9900 B(  4-C , 20-C ) :   1.0336
B(  6-C ,  7-H ) :   0.9357 B(  6-C ,  8-H ) :   0.9344 B(  6-C ,  9-C ) :   1.0777
B(  9-C , 10-H ) :   0.9554 B(  9-C , 11-H ) :   0.9557 B(  9-C , 12-C ) :   1.0839
B( 12-C , 13-H ) :   0.9718 B( 12-C , 14-H ) :   0.9709 B( 12-C , 15-H ) :   0.9756
B( 16-S , 17-C ) :   1.1697 B( 16-S , 20-C ) :   1.1232 B( 17-C , 18-C ) :   1.5798
B( 17-C , 20-C ) :   0.1026 B( 17-C , 33-H ) :   0.9762 B( 18-C , 19-C ) :   1.2485
B( 18-C , 21-H ) :   0.9906 B( 19-C , 20-C ) :   1.5820 B( 19-C , 22-C ) :   1.0727
B( 22-C , 23-H ) :   0.9228 B( 22-C , 24-H ) :   0.9217 B( 22-C , 25-C ) :   1.0818
B( 25-C , 26-H ) :   0.9453 B( 25-C , 27-H ) :   0.9487 B( 25-C , 28-C ) :   1.0914
B( 28-C , 29-H ) :   0.9697 B( 28-C , 30-H ) :   0.9709 B( 28-C , 31-H ) :   0.9714

Dispersion correction           -0.014406852
FINAL SINGLE POINT ENERGY     -1339.865013698621

DIPOLE MOMENT
-------------
                                X             Y             Z
Electronic contribution:    -29.18551       2.97538      -0.75576
Nuclear contribution   :     29.78159      -3.16330       0.98247
                        -----------------------------------------
Total Dipole Moment    :      0.59608      -0.18792       0.22670
                        -----------------------------------------
Magnitude (a.u.)       :      0.66485
Magnitude (Debye)      :      1.68992

Rotational constants in cm-1:     0.018507     0.009119     0.006868
Rotational constants in MHz :   554.814677   273.374387   205.912241

                             ****ORCA TERMINATED NORMALLY****
TOTAL RUN TIME: 0 days 0 hours 0 minutes 21 seconds 987 msec
