                         Program Version 4.2.1 -  RELEASE  -
|  1> ! wB97X-D3 SP def2-SVP
|  2> %pal
|  3> nprocs 24
|  4> end
|  5>
|  6> * xyz 0 1
|  7> S 	 -144.672 	 31.2964 	 -12.0693
|  8> C 	 -143.098 	 31.049 	 -12.8988
|  9> C 	 -143.231 	 29.979 	 -13.7867
| 10> C 	 -144.515 	 29.3025 	 -13.7109
| 11> C 	 -145.377 	 29.8286 	 -12.7634
| 12> H 	 -144.835 	 28.4511 	 -14.2265
| 13> C 	 -142.191 	 29.6456 	 -14.8029
| 14> H 	 -141.304 	 30.2443 	 -14.4142
| 15> H 	 -142.476 	 30.0988 	 -15.791
| 16> C 	 -141.714 	 28.1668 	 -14.8599
| 17> H 	 -141.269 	 27.8342 	 -13.9133
| 18> H 	 -142.644 	 27.6001 	 -14.9227
| 19> C 	 -140.806 	 27.8154 	 -16.0156
| 20> H 	 -141.193 	 28.1242 	 -16.9959
| 21> H 	 -139.734 	 27.9892 	 -15.823
| 22> H 	 -140.913 	 26.774 	 -16.0954
| 23> S 	 -147.886 	 30.7225 	 -12.4726
| 24> C 	 -149.343 	 29.6988 	 -12.5515
| 25> C 	 -148.902 	 28.457 	 -12.8792
| 26> C 	 -147.467 	 28.2454 	 -12.7646
| 27> C 	 -146.794 	 29.4278 	 -12.6672
| 28> H 	 -149.582 	 27.6147 	 -12.9476
| 29> C 	 -146.84 	 26.8656 	 -12.8667
| 30> H 	 -147.415 	 26.1682 	 -12.1971
| 31> H 	 -145.842 	 27.0249 	 -12.5879
| 32> C 	 -146.772 	 26.2315 	 -14.2668
| 33> H 	 -146.169 	 25.3636 	 -14.308
| 34> H 	 -146.26 	 26.9479 	 -15.0047
| 35> C 	 -148.132 	 25.7516 	 -14.8109
| 36> H 	 -149.005 	 26.3769 	 -14.8512
| 37> H 	 -148.597 	 25.1226 	 -14.0334
| 38> H 	 -147.903 	 25.1705 	 -15.7223
| 39> H 	 -142.269 	 31.7394 	 -12.6267
| 40> H 	 -150.415 	 29.9334 	 -12.561
| 41> *
| 42>
| 43>                          ****END OF INPUT****

CARTESIAN COORDINATES (ANGSTROEM)
---------------------------------
  S    -144.672000   31.296400  -12.069300
  C    -143.098000   31.049000  -12.898800
  C    -143.231000   29.979000  -13.786700
  C    -144.515000   29.302500  -13.710900
  C    -145.377000   29.828600  -12.763400
  H    -144.835000   28.451100  -14.226500
  C    -142.191000   29.645600  -14.802900
  H    -141.304000   30.244300  -14.414200
  H    -142.476000   30.098800  -15.791000
  C    -141.714000   28.166800  -14.859900
  H    -141.269000   27.834200  -13.913300
  H    -142.644000   27.600100  -14.922700
  C    -140.806000   27.815400  -16.015600
  H    -141.193000   28.124200  -16.995900
  H    -139.734000   27.989200  -15.823000
  H    -140.913000   26.774000  -16.095400
  S    -147.886000   30.722500  -12.472600
  C    -149.343000   29.698800  -12.551500
  C    -148.902000   28.457000  -12.879200
  C    -147.467000   28.245400  -12.764600
  C    -146.794000   29.427800  -12.667200
  H    -149.582000   27.614700  -12.947600
  C    -146.840000   26.865600  -12.866700
  H    -147.415000   26.168200  -12.197100
  H    -145.842000   27.024900  -12.587900
  C    -146.772000   26.231500  -14.266800
  H    -146.169000   25.363600  -14.308000
  H    -146.260000   26.947900  -15.004700
  C    -148.132000   25.751600  -14.810900
  H    -149.005000   26.376900  -14.851200
  H    -148.597000   25.122600  -14.033400
  H    -147.903000   25.170500  -15.722300
  H    -142.269000   31.739400  -12.626700
  H    -150.415000   29.933400  -12.561000

 Total Charge           Charge          ....    0
 Multiplicity           Mult            ....    1
 Number of Electrons    NEL             ....  134
 Basis Dimension        Dim             ....  322

ORBITAL ENERGIES
----------------

  NO   OCC          E(Eh)            E(eV)
   0   2.0000     -88.965597     -2420.8770
   1   2.0000     -88.961460     -2420.7644
   2   2.0000     -10.336712      -281.2762
   3   2.0000     -10.327277      -281.0195
   4   2.0000     -10.326895      -281.0091
   5   2.0000     -10.319161      -280.7986
   6   2.0000     -10.309441      -280.5342
   7   2.0000     -10.300848      -280.3003
   8   2.0000     -10.297870      -280.2193
   9   2.0000     -10.295402      -280.1521
  10   2.0000     -10.293935      -280.1122
  11   2.0000     -10.292920      -280.0846
  12   2.0000     -10.292862      -280.0830
  13   2.0000     -10.289986      -280.0048
  14   2.0000     -10.280171      -279.7377
  15   2.0000     -10.277501      -279.6650
  16   2.0000      -8.079447      -219.8529
  17   2.0000      -8.076788      -219.7806
  18   2.0000      -6.038159      -164.3067
  19   2.0000      -6.035546      -164.2356
  20   2.0000      -6.034026      -164.1942
  21   2.0000      -6.031133      -164.1155
  22   2.0000      -6.030076      -164.0867
  23   2.0000      -6.027275      -164.0105
  24   2.0000      -1.009861       -27.4797
  25   2.0000      -0.981590       -26.7104
  26   2.0000      -0.911744       -24.8098
  27   2.0000      -0.909909       -24.7599
  28   2.0000      -0.874795       -23.8044
  29   2.0000      -0.851759       -23.1775
  30   2.0000      -0.843291       -22.9471
  31   2.0000      -0.823637       -22.4123
  32   2.0000      -0.781695       -21.2710
  33   2.0000      -0.773091       -21.0369
  34   2.0000      -0.710814       -19.3422
  35   2.0000      -0.701089       -19.0776
  36   2.0000      -0.692220       -18.8363
  37   2.0000      -0.665408       -18.1067
  38   2.0000      -0.645007       -17.5515
  39   2.0000      -0.619842       -16.8668
  40   2.0000      -0.587632       -15.9903
  41   2.0000      -0.570380       -15.5208
  42   2.0000      -0.561558       -15.2808
  43   2.0000      -0.555596       -15.1185
  44   2.0000      -0.552341       -15.0300
  45   2.0000      -0.525325       -14.2948
  46   2.0000      -0.521856       -14.2004
  47   2.0000      -0.517599       -14.0846
  48   2.0000      -0.506963       -13.7952
  49   2.0000      -0.502738       -13.6802
  50   2.0000      -0.497021       -13.5246
  51   2.0000      -0.480496       -13.0750
  52   2.0000      -0.469861       -12.7856
  53   2.0000      -0.466707       -12.6997
  54   2.0000      -0.464890       -12.6503
  55   2.0000      -0.449448       -12.2301
  56   2.0000      -0.445613       -12.1257
  57   2.0000      -0.436830       -11.8867
  58   2.0000      -0.427816       -11.6415
  59   2.0000      -0.425715       -11.5843
  60   2.0000      -0.414751       -11.2859
  61   2.0000      -0.409110       -11.1324
  62   2.0000      -0.402946       -10.9647
  63   2.0000      -0.359509        -9.7827
  64   2.0000      -0.330419        -8.9912
  65   2.0000      -0.324273        -8.8239
  66   2.0000      -0.293366        -7.9829
  67   0.0000       0.024568         0.6685
  68   0.0000       0.078717         2.1420
  69   0.0000       0.100670         2.7394
  70   0.0000       0.120619         3.2822
  71   0.0000       0.129483         3.5234

MULLIKEN ATOMIC CHARGES
-----------------------
   0 S :    0.085274
   1 C :   -0.152315
   2 C :   -0.056473
   3 C :    0.048575
   4 C :   -0.107876
   5 H :   -0.036204
   6 C :    0.033937
   7 H :    0.023065
   8 H :    0.057418
   9 C :   -0.100856
  10 H :    0.032183
  11 H :    0.018668
  12 C :   -0.005133
  13 H :    0.027166
  14 H :    0.047984
  15 H :    0.012049
  16 S :    0.084967
  17 C :   -0.083055
  18 C :   -0.028944
  19 C :   -0.102397
  20 C :   -0.114681
  21 H :    0.016344
  22 C :    0.078672
  23 H :    0.038730
  24 H :    0.011308
  25 C :   -0.071232
  26 H :    0.025164
  27 H :    0.047000
  28 C :   -0.063374
  29 H :    0.030027
  30 H :    0.008540
  31 H :    0.048126
  32 H :    0.079659
  33 H :    0.067685
Sum of atomic charges:    0.0000000

LOEWDIN ATOMIC CHARGES
----------------------
   0 S :    0.372685
   1 C :   -0.185202
   2 C :   -0.061839
   3 C :   -0.056569
   4 C :   -0.180704
   5 H :    0.016842
   6 C :   -0.043455
   7 H :    0.035061
   8 H :    0.040536
   9 C :   -0.043497
  10 H :    0.029844
  11 H :    0.018831
  12 C :   -0.066491
  13 H :    0.029020
  14 H :    0.031778
  15 H :    0.024073
  16 S :    0.406114
  17 C :   -0.183235
  18 C :   -0.070910
  19 C :   -0.068436
  20 C :   -0.196454
  21 H :    0.025661
  22 C :   -0.029177
  23 H :    0.037374
  24 H :    0.023174
  25 C :   -0.038871
  26 H :    0.021212
  27 H :    0.027555
  28 C :   -0.078463
  29 H :    0.021481
  30 H :    0.025436
  31 H :    0.033421
  32 H :    0.040784
  33 H :    0.042420

  Mayer bond orders larger than 0.100000
B(  0-S ,  1-C ) :   1.1205 B(  0-S ,  4-C ) :   1.1453 B(  1-C ,  2-C ) :   1.5970
B(  1-C , 32-H ) :   0.9685 B(  2-C ,  3-C ) :   1.2169 B(  2-C ,  6-C ) :   1.0334
B(  3-C ,  4-C ) :   1.5688 B(  3-C ,  5-H ) :   0.9987 B(  4-C , 20-C ) :   1.0329
B(  6-C ,  7-H ) :   0.9413 B(  6-C ,  8-H ) :   0.9388 B(  6-C ,  9-C ) :   1.0516
B(  9-C , 10-H ) :   0.9520 B(  9-C , 11-H ) :   0.9609 B(  9-C , 12-C ) :   1.0939
B( 12-C , 13-H ) :   0.9691 B( 12-C , 14-H ) :   0.9748 B( 12-C , 15-H ) :   0.9666
B( 16-S , 17-C ) :   1.1249 B( 16-S , 20-C ) :   1.1398 B( 17-C , 18-C ) :   1.6476
B( 17-C , 33-H ) :   0.9649 B( 18-C , 19-C ) :   1.2265 B( 18-C , 21-H ) :   0.9718
B( 19-C , 20-C ) :   1.6237 B( 19-C , 22-C ) :   1.0554 B( 22-C , 23-H ) :   0.9348
B( 22-C , 24-H ) :   0.9225 B( 22-C , 25-C ) :   1.0804 B( 25-C , 26-H ) :   0.9525
B( 25-C , 27-H ) :   0.9431 B( 25-C , 28-C ) :   1.0732 B( 28-C , 29-H ) :   0.9709
B( 28-C , 30-H ) :   0.9680 B( 28-C , 31-H ) :   0.9729

Dispersion correction           -0.014140719
FINAL SINGLE POINT ENERGY     -1339.857885074380

DIPOLE MOMENT
-------------
                                X             Y             Z
Electronic contribution:    -11.42610      24.03605      16.74372
Nuclear contribution   :     11.66156     -24.69455     -17.17824
                        -----------------------------------------
Total Dipole Moment    :      0.23546      -0.65850      -0.43451
                        -----------------------------------------
Magnitude (a.u.)       :      0.82333
Magnitude (Debye)      :      2.09273

Rotational constants in cm-1:     0.017483     0.009313     0.006360
Rotational constants in MHz :   524.130109   279.188465   190.673806

                             ****ORCA TERMINATED NORMALLY****
TOTAL RUN TIME: 0 days 0 hours 0 minutes 20 seconds 649 msec
