                         Program Version 4.2.1 -  RELEASE  -
|  1> ! wB97X-D3 SP def2-SVP
|  2> %pal
|  3> nprocs 24
|  4> end
|  5>
|  6> * xyz 0 1
|  7> S 	 32.4668 	 -32.2606 	 -133.814
|  8> C 	 34.1598 	 -31.8634 	 -133.836
|  9> C 	 34.8358 	 -32.1924 	 -132.686
| 10> C 	 33.9736 	 -32.9338 	 -131.803
| 11> C 	 32.6017 	 -32.9591 	 -132.203
| 12> H 	 34.2888 	 -33.366 	 -130.852
| 13> C 	 36.3518 	 -31.9921 	 -132.401
| 14> H 	 36.404 	 -31.5689 	 -131.432
| 15> H 	 36.8645 	 -31.3473 	 -133.102
| 16> C 	 37.1851 	 -33.2 	 -132.128
| 17> H 	 38.012 	 -32.8054 	 -131.541
| 18> H 	 36.6353 	 -33.7204 	 -131.309
| 19> C 	 37.6239 	 -34.0525 	 -133.238
| 20> H 	 38.0867 	 -34.9286 	 -132.918
| 21> H 	 36.8107 	 -34.4549 	 -133.815
| 22> H 	 38.2081 	 -33.5418 	 -133.904
| 23> S 	 31.3354 	 -35.3988 	 -131.853
| 24> C 	 30.0233 	 -35.5166 	 -130.765
| 25> C 	 29.7294 	 -34.3209 	 -130.166
| 26> C 	 30.6603 	 -33.3329 	 -130.458
| 27> C 	 31.4777 	 -33.6212 	 -131.565
| 28> H 	 28.9058 	 -34.3545 	 -129.517
| 29> C 	 30.5916 	 -32.0309 	 -129.689
| 30> H 	 31.5616 	 -31.8635 	 -129.119
| 31> H 	 29.8531 	 -32.0901 	 -128.875
| 32> C 	 30.3529 	 -30.8616 	 -130.541
| 33> H 	 29.3577 	 -30.8583 	 -130.946
| 34> H 	 30.9803 	 -30.7601 	 -131.417
| 35> C 	 30.367 	 -29.497 	 -129.749
| 36> H 	 30.4018 	 -28.6337 	 -130.398
| 37> H 	 31.3523 	 -29.42 	 -129.213
| 38> H 	 29.4068 	 -29.4236 	 -129.17
| 39> H 	 34.5704 	 -31.0937 	 -134.497
| 40> H 	 29.3746 	 -36.3908 	 -130.618
| 41> *
| 42>
| 43>                          ****END OF INPUT****

CARTESIAN COORDINATES (ANGSTROEM)
---------------------------------
  S     32.466800  -32.260600  -133.814000
  C     34.159800  -31.863400  -133.836000
  C     34.835800  -32.192400  -132.686000
  C     33.973600  -32.933800  -131.803000
  C     32.601700  -32.959100  -132.203000
  H     34.288800  -33.366000  -130.852000
  C     36.351800  -31.992100  -132.401000
  H     36.404000  -31.568900  -131.432000
  H     36.864500  -31.347300  -133.102000
  C     37.185100  -33.200000  -132.128000
  H     38.012000  -32.805400  -131.541000
  H     36.635300  -33.720400  -131.309000
  C     37.623900  -34.052500  -133.238000
  H     38.086700  -34.928600  -132.918000
  H     36.810700  -34.454900  -133.815000
  H     38.208100  -33.541800  -133.904000
  S     31.335400  -35.398800  -131.853000
  C     30.023300  -35.516600  -130.765000
  C     29.729400  -34.320900  -130.166000
  C     30.660300  -33.332900  -130.458000
  C     31.477700  -33.621200  -131.565000
  H     28.905800  -34.354500  -129.517000
  C     30.591600  -32.030900  -129.689000
  H     31.561600  -31.863500  -129.119000
  H     29.853100  -32.090100  -128.875000
  C     30.352900  -30.861600  -130.541000
  H     29.357700  -30.858300  -130.946000
  H     30.980300  -30.760100  -131.417000
  C     30.367000  -29.497000  -129.749000
  H     30.401800  -28.633700  -130.398000
  H     31.352300  -29.420000  -129.213000
  H     29.406800  -29.423600  -129.170000
  H     34.570400  -31.093700  -134.497000
  H     29.374600  -36.390800  -130.618000

 Total Charge           Charge          ....    0
 Multiplicity           Mult            ....    1
 Number of Electrons    NEL             ....  134
 Basis Dimension        Dim             ....  322

ORBITAL ENERGIES
----------------

  NO   OCC          E(Eh)            E(eV)
   0   2.0000     -88.967517     -2420.9292
   1   2.0000     -88.962857     -2420.8024
   2   2.0000     -10.334297      -281.2105
   3   2.0000     -10.327851      -281.0351
   4   2.0000     -10.313567      -280.6464
   5   2.0000     -10.312419      -280.6152
   6   2.0000     -10.305370      -280.4234
   7   2.0000     -10.304359      -280.3959
   8   2.0000     -10.302337      -280.3408
   9   2.0000     -10.291182      -280.0373
  10   2.0000     -10.289591      -279.9940
  11   2.0000     -10.282740      -279.8076
  12   2.0000     -10.281886      -279.7843
  13   2.0000     -10.280299      -279.7412
  14   2.0000     -10.274269      -279.5771
  15   2.0000     -10.258197      -279.1397
  16   2.0000      -8.081898      -219.9196
  17   2.0000      -8.077623      -219.8033
  18   2.0000      -6.040339      -164.3660
  19   2.0000      -6.036387      -164.2584
  20   2.0000      -6.035997      -164.2478
  21   2.0000      -6.032813      -164.1612
  22   2.0000      -6.032085      -164.1414
  23   2.0000      -6.028549      -164.0452
  24   2.0000      -1.003984       -27.3198
  25   2.0000      -0.984426       -26.7876
  26   2.0000      -0.922273       -25.0963
  27   2.0000      -0.911597       -24.8058
  28   2.0000      -0.871136       -23.7048
  29   2.0000      -0.848467       -23.0880
  30   2.0000      -0.846909       -23.0456
  31   2.0000      -0.810656       -22.0591
  32   2.0000      -0.795543       -21.6478
  33   2.0000      -0.772155       -21.0114
  34   2.0000      -0.711979       -19.3739
  35   2.0000      -0.694100       -18.8874
  36   2.0000      -0.686769       -18.6879
  37   2.0000      -0.656329       -17.8596
  38   2.0000      -0.637255       -17.3406
  39   2.0000      -0.622052       -16.9269
  40   2.0000      -0.598605       -16.2889
  41   2.0000      -0.574198       -15.6247
  42   2.0000      -0.563449       -15.3322
  43   2.0000      -0.562503       -15.3065
  44   2.0000      -0.543176       -14.7806
  45   2.0000      -0.524758       -14.2794
  46   2.0000      -0.519155       -14.1269
  47   2.0000      -0.509871       -13.8743
  48   2.0000      -0.501751       -13.6533
  49   2.0000      -0.494566       -13.4578
  50   2.0000      -0.489982       -13.3331
  51   2.0000      -0.487553       -13.2670
  52   2.0000      -0.475258       -12.9324
  53   2.0000      -0.465843       -12.6762
  54   2.0000      -0.460502       -12.5309
  55   2.0000      -0.444175       -12.0866
  56   2.0000      -0.438377       -11.9288
  57   2.0000      -0.436204       -11.8697
  58   2.0000      -0.431580       -11.7439
  59   2.0000      -0.428590       -11.6625
  60   2.0000      -0.416828       -11.3425
  61   2.0000      -0.408364       -11.1121
  62   2.0000      -0.405801       -11.0424
  63   2.0000      -0.336235        -9.1494
  64   2.0000      -0.328365        -8.9353
  65   2.0000      -0.315696        -8.5905
  66   2.0000      -0.310887        -8.4597
  67   0.0000       0.040739         1.1086
  68   0.0000       0.043808         1.1921
  69   0.0000       0.111967         3.0468
  70   0.0000       0.123645         3.3646
  71   0.0000       0.128272         3.4905

MULLIKEN ATOMIC CHARGES
-----------------------
   0 S :    0.118877
   1 C :   -0.125190
   2 C :   -0.088101
   3 C :    0.031790
   4 C :   -0.195325
   5 H :    0.019953
   6 C :    0.102775
   7 H :    0.012839
   8 H :    0.014267
   9 C :   -0.107608
  10 H :    0.016158
  11 H :    0.013159
  12 C :    0.063985
  13 H :    0.014097
  14 H :    0.019577
  15 H :    0.004265
  16 S :    0.110049
  17 C :   -0.093141
  18 C :   -0.029561
  19 C :    0.008465
  20 C :   -0.162365
  21 H :   -0.001479
  22 C :    0.085965
  23 H :    0.032860
  24 H :    0.013405
  25 C :   -0.079998
  26 H :    0.016803
  27 H :    0.031912
  28 C :   -0.074005
  29 H :    0.025270
  30 H :    0.035451
  31 H :    0.045091
  32 H :    0.059331
  33 H :    0.060427
Sum of atomic charges:   -0.0000000

LOEWDIN ATOMIC CHARGES
----------------------
   0 S :    0.414514
   1 C :   -0.207857
   2 C :   -0.063629
   3 C :   -0.053145
   4 C :   -0.204875
   5 H :    0.029657
   6 C :   -0.024388
   7 H :    0.032531
   8 H :    0.024989
   9 C :   -0.044726
  10 H :    0.025456
  11 H :    0.024954
  12 C :   -0.054275
  13 H :    0.023815
  14 H :    0.030843
  15 H :    0.015233
  16 S :    0.409038
  17 C :   -0.190069
  18 C :   -0.078944
  19 C :   -0.038263
  20 C :   -0.202926
  21 H :    0.025865
  22 C :   -0.034537
  23 H :    0.038691
  24 H :    0.030156
  25 C :   -0.045676
  26 H :    0.022039
  27 H :    0.020790
  28 C :   -0.071187
  29 H :    0.021679
  30 H :    0.027616
  31 H :    0.030274
  32 H :    0.031722
  33 H :    0.034633

  Mayer bond orders larger than 0.100000
B(  0-S ,  1-C ) :   1.1515 B(  0-S ,  4-C ) :   1.1542 B(  1-C ,  2-C ) :   1.6234
B(  1-C ,  4-C ) :   0.1002 B(  1-C , 32-H ) :   0.9534 B(  2-C ,  3-C ) :   1.2383
B(  2-C ,  6-C ) :   1.0227 B(  3-C ,  4-C ) :   1.5721 B(  3-C ,  5-H ) :   0.9879
B(  4-C , 20-C ) :   1.0245 B(  6-C ,  7-H ) :   0.9256 B(  6-C ,  8-H ) :   0.9483
B(  6-C ,  9-C ) :   1.0879 B(  9-C , 10-H ) :   0.9481 B(  9-C , 11-H ) :   0.9463
B(  9-C , 12-C ) :   1.0869 B( 12-C , 13-H ) :   0.9636 B( 12-C , 14-H ) :   0.9665
B( 12-C , 15-H ) :   0.9670 B( 16-S , 17-C ) :   1.1884 B( 16-S , 20-C ) :   1.1293
B( 17-C , 18-C ) :   1.6000 B( 17-C , 20-C ) :   0.1101 B( 17-C , 33-H ) :   0.9580
B( 18-C , 19-C ) :   1.2514 B( 18-C , 21-H ) :   1.0014 B( 19-C , 20-C ) :   1.5645
B( 19-C , 22-C ) :   1.0420 B( 22-C , 23-H ) :   0.9216 B( 22-C , 24-H ) :   0.9365
B( 22-C , 25-C ) :   1.0759 B( 25-C , 26-H ) :   0.9503 B( 25-C , 27-H ) :   0.9538
B( 25-C , 28-C ) :   1.0801 B( 28-C , 29-H ) :   0.9752 B( 28-C , 30-H ) :   0.9749
B( 28-C , 31-H ) :   0.9778

Dispersion correction           -0.014186752
FINAL SINGLE POINT ENERGY     -1339.855782327466

DIPOLE MOMENT
-------------
                                X             Y             Z
Electronic contribution:    -12.36284     -12.16322      -9.35510
Nuclear contribution   :     12.62460      12.34180       9.80001
                        -----------------------------------------
Total Dipole Moment    :      0.26177       0.17858       0.44490
                        -----------------------------------------
Magnitude (a.u.)       :      0.54622
Magnitude (Debye)      :      1.38838

Rotational constants in cm-1:     0.018486     0.008471     0.007035
Rotational constants in MHz :   554.201885   253.948791   210.909621

                             ****ORCA TERMINATED NORMALLY****
TOTAL RUN TIME: 0 days 0 hours 0 minutes 21 seconds 447 msec
