                         Program Version 4.2.1 -  RELEASE  -
|  1> ! wB97X-D3 SP def2-SVP
|  2> %pal
|  3> nprocs 24
|  4> end
|  5>
|  6> * xyz 0 1
|  7> S 	 -132.244 	 64.847 	 -59.6495
|  8> C 	 -132.887 	 66.3728 	 -59.4177
|  9> C 	 -132.497 	 67.2019 	 -60.4972
| 10> C 	 -131.923 	 66.5061 	 -61.5813
| 11> C 	 -131.763 	 65.1794 	 -61.2812
| 12> H 	 -131.645 	 67.0058 	 -62.5071
| 13> C 	 -132.721 	 68.6547 	 -60.6476
| 14> H 	 -133.658 	 68.9105 	 -60.0322
| 15> H 	 -133.058 	 68.8955 	 -61.686
| 16> C 	 -131.554 	 69.654 	 -60.3439
| 17> H 	 -130.758 	 69.4951 	 -61.158
| 18> H 	 -131.922 	 70.6314 	 -60.5316
| 19> C 	 -131.04 	 69.8418 	 -58.8257
| 20> H 	 -130.152 	 70.3533 	 -58.7278
| 21> H 	 -131.776 	 70.3791 	 -58.2806
| 22> H 	 -130.859 	 68.9421 	 -58.4027
| 23> S 	 -132.438 	 63.324 	 -63.1411
| 24> C 	 -131.351 	 61.9989 	 -63.4836
| 25> C 	 -130.14 	 62.1948 	 -62.8161
| 26> C 	 -130.088 	 63.3868 	 -62.0581
| 27> C 	 -131.3 	 64.0884 	 -62.0994
| 28> H 	 -129.347 	 61.4386 	 -62.9054
| 29> C 	 -129.006 	 63.7925 	 -61.1117
| 30> H 	 -128.742 	 62.881 	 -60.6068
| 31> H 	 -129.393 	 64.4549 	 -60.2978
| 32> C 	 -127.812 	 64.4565 	 -61.8297
| 33> H 	 -128.217 	 65.442 	 -62.1164
| 34> H 	 -127.476 	 63.913 	 -62.7685
| 35> C 	 -126.675 	 64.7539 	 -60.9434
| 36> H 	 -125.77 	 64.6189 	 -61.4507
| 37> H 	 -126.47 	 63.9986 	 -60.1809
| 38> H 	 -126.828 	 65.6538 	 -60.3937
| 39> H 	 -133.399 	 66.6809 	 -58.4856
| 40> H 	 -131.456 	 61.323 	 -64.3056
| 41> *
| 42>
| 43>                          ****END OF INPUT****

CARTESIAN COORDINATES (ANGSTROEM)
---------------------------------
  S    -132.244000   64.847000  -59.649500
  C    -132.887000   66.372800  -59.417700
  C    -132.497000   67.201900  -60.497200
  C    -131.923000   66.506100  -61.581300
  C    -131.763000   65.179400  -61.281200
  H    -131.645000   67.005800  -62.507100
  C    -132.721000   68.654700  -60.647600
  H    -133.658000   68.910500  -60.032200
  H    -133.058000   68.895500  -61.686000
  C    -131.554000   69.654000  -60.343900
  H    -130.758000   69.495100  -61.158000
  H    -131.922000   70.631400  -60.531600
  C    -131.040000   69.841800  -58.825700
  H    -130.152000   70.353300  -58.727800
  H    -131.776000   70.379100  -58.280600
  H    -130.859000   68.942100  -58.402700
  S    -132.438000   63.324000  -63.141100
  C    -131.351000   61.998900  -63.483600
  C    -130.140000   62.194800  -62.816100
  C    -130.088000   63.386800  -62.058100
  C    -131.300000   64.088400  -62.099400
  H    -129.347000   61.438600  -62.905400
  C    -129.006000   63.792500  -61.111700
  H    -128.742000   62.881000  -60.606800
  H    -129.393000   64.454900  -60.297800
  C    -127.812000   64.456500  -61.829700
  H    -128.217000   65.442000  -62.116400
  H    -127.476000   63.913000  -62.768500
  C    -126.675000   64.753900  -60.943400
  H    -125.770000   64.618900  -61.450700
  H    -126.470000   63.998600  -60.180900
  H    -126.828000   65.653800  -60.393700
  H    -133.399000   66.680900  -58.485600
  H    -131.456000   61.323000  -64.305600

 Total Charge           Charge          ....    0
 Multiplicity           Mult            ....    1
 Number of Electrons    NEL             ....  134
 Basis Dimension        Dim             ....  322

ORBITAL ENERGIES
----------------

  NO   OCC          E(Eh)            E(eV)
   0   2.0000     -88.965817     -2420.8830
   1   2.0000     -88.962894     -2420.8034
   2   2.0000     -10.322666      -280.8940
   3   2.0000     -10.317800      -280.7616
   4   2.0000     -10.315403      -280.6964
   5   2.0000     -10.314611      -280.6748
   6   2.0000     -10.297898      -280.2200
   7   2.0000     -10.297457      -280.2080
   8   2.0000     -10.297083      -280.1979
   9   2.0000     -10.296072      -280.1704
  10   2.0000     -10.295218      -280.1471
  11   2.0000     -10.291957      -280.0584
  12   2.0000     -10.285676      -279.8875
  13   2.0000     -10.284332      -279.8509
  14   2.0000     -10.265705      -279.3440
  15   2.0000     -10.262943      -279.2689
  16   2.0000      -8.082088      -219.9248
  17   2.0000      -8.078097      -219.8162
  18   2.0000      -6.040298      -164.3649
  19   2.0000      -6.036454      -164.2603
  20   2.0000      -6.036224      -164.2540
  21   2.0000      -6.033209      -164.1720
  22   2.0000      -6.032364      -164.1490
  23   2.0000      -6.029167      -164.0620
  24   2.0000      -1.015289       -27.6274
  25   2.0000      -0.989250       -26.9189
  26   2.0000      -0.911833       -24.8122
  27   2.0000      -0.903402       -24.5828
  28   2.0000      -0.870170       -23.6785
  29   2.0000      -0.856147       -23.2969
  30   2.0000      -0.852493       -23.1975
  31   2.0000      -0.815072       -22.1792
  32   2.0000      -0.785000       -21.3609
  33   2.0000      -0.769434       -20.9374
  34   2.0000      -0.708618       -19.2825
  35   2.0000      -0.697927       -18.9916
  36   2.0000      -0.690650       -18.7935
  37   2.0000      -0.659739       -17.9524
  38   2.0000      -0.645311       -17.5598
  39   2.0000      -0.617867       -16.8130
  40   2.0000      -0.594538       -16.1782
  41   2.0000      -0.568419       -15.4675
  42   2.0000      -0.565160       -15.3788
  43   2.0000      -0.548532       -14.9263
  44   2.0000      -0.539476       -14.6799
  45   2.0000      -0.529279       -14.4024
  46   2.0000      -0.517278       -14.0758
  47   2.0000      -0.509441       -13.8626
  48   2.0000      -0.506572       -13.7845
  49   2.0000      -0.501542       -13.6476
  50   2.0000      -0.496058       -13.4984
  51   2.0000      -0.479510       -13.0481
  52   2.0000      -0.476246       -12.9593
  53   2.0000      -0.464934       -12.6515
  54   2.0000      -0.461902       -12.5690
  55   2.0000      -0.446962       -12.1624
  56   2.0000      -0.446023       -12.1369
  57   2.0000      -0.437918       -11.9164
  58   2.0000      -0.430725       -11.7206
  59   2.0000      -0.416949       -11.3457
  60   2.0000      -0.414244       -11.2721
  61   2.0000      -0.412664       -11.2291
  62   2.0000      -0.408784       -11.1236
  63   2.0000      -0.339505        -9.2384
  64   2.0000      -0.332380        -9.0445
  65   2.0000      -0.316339        -8.6080
  66   2.0000      -0.302938        -8.2434
  67   0.0000       0.045544         1.2393
  68   0.0000       0.052041         1.4161
  69   0.0000       0.114132         3.1057
  70   0.0000       0.122608         3.3363
  71   0.0000       0.134555         3.6614

MULLIKEN ATOMIC CHARGES
-----------------------
   0 S :    0.141608
   1 C :   -0.130580
   2 C :   -0.073021
   3 C :    0.042672
   4 C :   -0.176772
   5 H :    0.017722
   6 C :   -0.001101
   7 H :    0.026019
   8 H :    0.031722
   9 C :   -0.084694
  10 H :    0.035293
  11 H :    0.022724
  12 C :    0.020365
  13 H :    0.015274
  14 H :    0.022436
  15 H :    0.008154
  16 S :    0.122064
  17 C :   -0.093220
  18 C :   -0.058696
  19 C :   -0.005378
  20 C :   -0.176752
  21 H :    0.025484
  22 C :    0.066247
  23 H :    0.016059
  24 H :    0.029483
  25 C :   -0.109955
  26 H :    0.028029
  27 H :    0.041277
  28 C :    0.027311
  29 H :    0.014072
  30 H :    0.003194
  31 H :    0.031119
  32 H :    0.064952
  33 H :    0.056889
Sum of atomic charges:   -0.0000000

LOEWDIN ATOMIC CHARGES
----------------------
   0 S :    0.458867
   1 C :   -0.227065
   2 C :   -0.075210
   3 C :   -0.053998
   4 C :   -0.207233
   5 H :    0.037361
   6 C :   -0.046504
   7 H :    0.034210
   8 H :    0.035356
   9 C :   -0.038518
  10 H :    0.028711
  11 H :    0.018819
  12 C :   -0.046754
  13 H :    0.020020
  14 H :    0.024258
  15 H :    0.009775
  16 S :    0.427882
  17 C :   -0.191009
  18 C :   -0.071439
  19 C :   -0.056502
  20 C :   -0.219822
  21 H :    0.033939
  22 C :   -0.034253
  23 H :    0.024664
  24 H :    0.029996
  25 C :   -0.044717
  26 H :    0.029794
  27 H :    0.030222
  28 C :   -0.068395
  29 H :    0.024070
  30 H :    0.024457
  31 H :    0.025808
  32 H :    0.036641
  33 H :    0.026569

  Mayer bond orders larger than 0.100000
B(  0-S ,  1-C ) :   1.1792 B(  0-S ,  4-C ) :   1.1784 B(  1-C ,  2-C ) :   1.5360
B(  1-C ,  4-C ) :   0.1014 B(  1-C , 32-H ) :   0.9695 B(  2-C ,  3-C ) :   1.2766
B(  2-C ,  6-C ) :   1.0369 B(  3-C ,  4-C ) :   1.5417 B(  3-C ,  5-H ) :   1.0023
B(  4-C , 20-C ) :   0.9989 B(  6-C ,  7-H ) :   0.9426 B(  6-C ,  8-H ) :   0.9416
B(  6-C ,  9-C ) :   1.0687 B(  9-C , 10-H ) :   0.9575 B(  9-C , 11-H ) :   0.9587
B(  9-C , 12-C ) :   1.0569 B( 12-C , 13-H ) :   0.9734 B( 12-C , 14-H ) :   0.9770
B( 12-C , 15-H ) :   0.9800 B( 16-S , 17-C ) :   1.1691 B( 16-S , 20-C ) :   1.1724
B( 17-C , 18-C ) :   1.5788 B( 17-C , 20-C ) :   0.1104 B( 17-C , 33-H ) :   0.9678
B( 18-C , 19-C ) :   1.2761 B( 18-C , 21-H ) :   0.9861 B( 19-C , 20-C ) :   1.5533
B( 19-C , 22-C ) :   1.0425 B( 22-C , 23-H ) :   0.9319 B( 22-C , 24-H ) :   0.9283
B( 22-C , 25-C ) :   1.0579 B( 25-C , 26-H ) :   0.9525 B( 25-C , 27-H ) :   0.9646
B( 25-C , 28-C ) :   1.0890 B( 28-C , 29-H ) :   0.9672 B( 28-C , 30-H ) :   0.9648
B( 28-C , 31-H ) :   0.9719

Dispersion correction           -0.014280225
FINAL SINGLE POINT ENERGY     -1339.858454136675

DIPOLE MOMENT
-------------
                                X             Y             Z
Electronic contribution:    -17.74643     -18.91123      -6.76275
Nuclear contribution   :     18.10029      19.24560       6.84955
                        -----------------------------------------
Total Dipole Moment    :      0.35386       0.33437       0.08680
                        -----------------------------------------
Magnitude (a.u.)       :      0.49453
Magnitude (Debye)      :      1.25699

Rotational constants in cm-1:     0.018606     0.008847     0.006971
Rotational constants in MHz :   557.805697   265.221334   208.997597

                             ****ORCA TERMINATED NORMALLY****
TOTAL RUN TIME: 0 days 0 hours 0 minutes 21 seconds 374 msec
