                         Program Version 4.2.1 -  RELEASE  -
|  1> ! wB97X-D3 SP def2-SVP
|  2> %pal
|  3> nprocs 24
|  4> end
|  5>
|  6> * xyz 0 1
|  7> S 	 -43.7215 	 -1.54324 	 -11.0108
|  8> C 	 -43.8575 	 -1.24745 	 -9.22314
|  9> C 	 -45.2476 	 -1.21721 	 -8.8787
| 10> C 	 -46.0627 	 -1.73925 	 -9.94469
| 11> C 	 -45.3893 	 -2.02859 	 -11.1171
| 12> H 	 -47.1702 	 -1.8555 	 -9.81597
| 13> C 	 -45.8399 	 -0.763931 	 -7.56455
| 14> H 	 -44.979 	 -0.578073 	 -6.84442
| 15> H 	 -46.3271 	 -1.64951 	 -7.11319
| 16> C 	 -46.7464 	 0.461668 	 -7.56133
| 17> H 	 -46.2049 	 1.36826 	 -7.82462
| 18> H 	 -47.4461 	 0.358696 	 -8.40113
| 19> C 	 -47.4935 	 0.740647 	 -6.21565
| 20> H 	 -47.7962 	 1.78213 	 -6.18313
| 21> H 	 -48.3215 	 0.139847 	 -5.98115
| 22> H 	 -46.7925 	 0.682931 	 -5.38962
| 23> S 	 -45.6228 	 -1.8396 	 -13.8246
| 24> C 	 -46.9495 	 -2.66529 	 -14.6087
| 25> C 	 -47.6232 	 -3.54691 	 -13.7845
| 26> C 	 -47.1227 	 -3.49904 	 -12.4281
| 27> C 	 -46.012 	 -2.60208 	 -12.3105
| 28> H 	 -48.3882 	 -4.18691 	 -14.2022
| 29> C 	 -47.7685 	 -4.20406 	 -11.2529
| 30> H 	 -48.7475 	 -4.62058 	 -11.606
| 31> H 	 -48.0362 	 -3.57723 	 -10.3476
| 32> C 	 -46.955 	 -5.34315 	 -10.7346
| 33> H 	 -45.9066 	 -5.05161 	 -10.5626
| 34> H 	 -47.0028 	 -6.0835 	 -11.5512
| 35> C 	 -47.4996 	 -6.08099 	 -9.48025
| 36> H 	 -48.5636 	 -6.04356 	 -9.35887
| 37> H 	 -46.898 	 -5.64462 	 -8.61561
| 38> H 	 -47.2329 	 -7.06793 	 -9.57202
| 39> H 	 -43.0108 	 -0.917489 	 -8.58893
| 40> H 	 -47.247 	 -2.48242 	 -15.6182
| 41> *
| 42>
| 43>                          ****END OF INPUT****

CARTESIAN COORDINATES (ANGSTROEM)
---------------------------------
  S    -43.721500   -1.543240  -11.010800
  C    -43.857500   -1.247450   -9.223140
  C    -45.247600   -1.217210   -8.878700
  C    -46.062700   -1.739250   -9.944690
  C    -45.389300   -2.028590  -11.117100
  H    -47.170200   -1.855500   -9.815970
  C    -45.839900   -0.763931   -7.564550
  H    -44.979000   -0.578073   -6.844420
  H    -46.327100   -1.649510   -7.113190
  C    -46.746400    0.461668   -7.561330
  H    -46.204900    1.368260   -7.824620
  H    -47.446100    0.358696   -8.401130
  C    -47.493500    0.740647   -6.215650
  H    -47.796200    1.782130   -6.183130
  H    -48.321500    0.139847   -5.981150
  H    -46.792500    0.682931   -5.389620
  S    -45.622800   -1.839600  -13.824600
  C    -46.949500   -2.665290  -14.608700
  C    -47.623200   -3.546910  -13.784500
  C    -47.122700   -3.499040  -12.428100
  C    -46.012000   -2.602080  -12.310500
  H    -48.388200   -4.186910  -14.202200
  C    -47.768500   -4.204060  -11.252900
  H    -48.747500   -4.620580  -11.606000
  H    -48.036200   -3.577230  -10.347600
  C    -46.955000   -5.343150  -10.734600
  H    -45.906600   -5.051610  -10.562600
  H    -47.002800   -6.083500  -11.551200
  C    -47.499600   -6.080990   -9.480250
  H    -48.563600   -6.043560   -9.358870
  H    -46.898000   -5.644620   -8.615610
  H    -47.232900   -7.067930   -9.572020
  H    -43.010800   -0.917489   -8.588930
  H    -47.247000   -2.482420  -15.618200

 Total Charge           Charge          ....    0
 Multiplicity           Mult            ....    1
 Number of Electrons    NEL             ....  134
 Basis Dimension        Dim             ....  322

ORBITAL ENERGIES
----------------

  NO   OCC          E(Eh)            E(eV)
   0   2.0000     -88.969915     -2420.9945
   1   2.0000     -88.968218     -2420.9483
   2   2.0000     -10.332513      -281.1620
   3   2.0000     -10.330971      -281.1200
   4   2.0000     -10.326369      -280.9948
   5   2.0000     -10.317047      -280.7411
   6   2.0000     -10.312027      -280.6045
   7   2.0000     -10.310271      -280.5567
   8   2.0000     -10.299724      -280.2698
   9   2.0000     -10.299113      -280.2531
  10   2.0000     -10.296340      -280.1776
  11   2.0000     -10.295124      -280.1446
  12   2.0000     -10.291444      -280.0444
  13   2.0000     -10.279718      -279.7253
  14   2.0000     -10.277509      -279.6652
  15   2.0000     -10.272424      -279.5269
  16   2.0000      -8.084776      -219.9979
  17   2.0000      -8.081964      -219.9214
  18   2.0000      -6.043206      -164.4440
  19   2.0000      -6.040656      -164.3746
  20   2.0000      -6.039225      -164.3357
  21   2.0000      -6.036749      -164.2683
  22   2.0000      -6.035672      -164.2390
  23   2.0000      -6.032459      -164.1516
  24   2.0000      -1.003156       -27.2973
  25   2.0000      -0.976960       -26.5844
  26   2.0000      -0.911062       -24.7913
  27   2.0000      -0.908724       -24.7276
  28   2.0000      -0.866647       -23.5827
  29   2.0000      -0.849831       -23.1251
  30   2.0000      -0.843545       -22.9540
  31   2.0000      -0.811394       -22.0791
  32   2.0000      -0.784066       -21.3355
  33   2.0000      -0.770955       -20.9788
  34   2.0000      -0.708612       -19.2823
  35   2.0000      -0.699447       -19.0329
  36   2.0000      -0.682844       -18.5811
  37   2.0000      -0.662257       -18.0209
  38   2.0000      -0.633515       -17.2388
  39   2.0000      -0.621977       -16.9249
  40   2.0000      -0.597226       -16.2513
  41   2.0000      -0.567904       -15.4535
  42   2.0000      -0.563176       -15.3248
  43   2.0000      -0.555425       -15.1139
  44   2.0000      -0.525670       -14.3042
  45   2.0000      -0.520799       -14.1717
  46   2.0000      -0.517758       -14.0889
  47   2.0000      -0.511444       -13.9171
  48   2.0000      -0.502499       -13.6737
  49   2.0000      -0.496991       -13.5238
  50   2.0000      -0.493992       -13.4422
  51   2.0000      -0.486597       -13.2410
  52   2.0000      -0.465951       -12.6792
  53   2.0000      -0.465032       -12.6542
  54   2.0000      -0.456547       -12.4233
  55   2.0000      -0.452051       -12.3009
  56   2.0000      -0.447210       -12.1692
  57   2.0000      -0.439753       -11.9663
  58   2.0000      -0.437019       -11.8919
  59   2.0000      -0.424394       -11.5483
  60   2.0000      -0.419751       -11.4220
  61   2.0000      -0.413275       -11.2458
  62   2.0000      -0.401163       -10.9162
  63   2.0000      -0.352069        -9.5803
  64   2.0000      -0.333567        -9.0768
  65   2.0000      -0.327062        -8.8998
  66   2.0000      -0.282827        -7.6961
  67   0.0000       0.020937         0.5697
  68   0.0000       0.066851         1.8191
  69   0.0000       0.096858         2.6356
  70   0.0000       0.113255         3.0818
  71   0.0000       0.132887         3.6160

MULLIKEN ATOMIC CHARGES
-----------------------
   0 S :    0.096477
   1 C :   -0.141568
   2 C :   -0.080704
   3 C :   -0.021310
   4 C :   -0.113754
   5 H :    0.036648
   6 C :    0.029096
   7 H :    0.022133
   8 H :    0.038837
   9 C :   -0.065977
  10 H :    0.030163
  11 H :    0.026633
  12 C :   -0.026657
  13 H :    0.029149
  14 H :    0.031429
  15 H :    0.020522
  16 S :    0.110428
  17 C :   -0.092863
  18 C :   -0.022568
  19 C :   -0.038073
  20 C :   -0.128960
  21 H :    0.023198
  22 C :    0.038159
  23 H :    0.016871
  24 H :    0.035866
  25 C :   -0.116971
  26 H :    0.049202
  27 H :    0.020040
  28 C :   -0.007929
  29 H :    0.025506
  30 H :    0.043039
  31 H :    0.016143
  32 H :    0.068024
  33 H :    0.049772
Sum of atomic charges:   -0.0000000

LOEWDIN ATOMIC CHARGES
----------------------
   0 S :    0.380615
   1 C :   -0.191773
   2 C :   -0.056114
   3 C :   -0.075333
   4 C :   -0.196724
   5 H :    0.037532
   6 C :   -0.044273
   7 H :    0.033670
   8 H :    0.034770
   9 C :   -0.039948
  10 H :    0.028118
  11 H :    0.023347
  12 C :   -0.059400
  13 H :    0.029924
  14 H :    0.018248
  15 H :    0.024772
  16 S :    0.417160
  17 C :   -0.182767
  18 C :   -0.066199
  19 C :   -0.048671
  20 C :   -0.199190
  21 H :    0.035123
  22 C :   -0.043424
  23 H :    0.031025
  24 H :    0.030574
  25 C :   -0.044625
  26 H :    0.028667
  27 H :    0.021644
  28 C :   -0.060839
  29 H :    0.020835
  30 H :    0.037795
  31 H :    0.015883
  32 H :    0.035309
  33 H :    0.024267

  Mayer bond orders larger than 0.100000
B(  0-S ,  1-C ) :   1.1186 B(  0-S ,  4-C ) :   1.1461 B(  1-C ,  2-C ) :   1.5933
B(  1-C ,  4-C ) :   0.1029 B(  1-C , 32-H ) :   0.9654 B(  2-C ,  3-C ) :   1.2438
B(  2-C ,  6-C ) :   1.0335 B(  3-C ,  4-C ) :   1.5644 B(  3-C ,  5-H ) :   0.9786
B(  4-C , 20-C ) :   1.0445 B(  6-C ,  7-H ) :   0.9365 B(  6-C ,  8-H ) :   0.9432
B(  6-C ,  9-C ) :   1.0568 B(  9-C , 10-H ) :   0.9540 B(  9-C , 11-H ) :   0.9584
B(  9-C , 12-C ) :   1.0767 B( 12-C , 13-H ) :   0.9750 B( 12-C , 14-H ) :   0.9787
B( 12-C , 15-H ) :   0.9741 B( 16-S , 17-C ) :   1.1642 B( 16-S , 20-C ) :   1.1510
B( 17-C , 18-C ) :   1.6051 B( 17-C , 33-H ) :   0.9686 B( 18-C , 19-C ) :   1.2536
B( 18-C , 21-H ) :   0.9912 B( 19-C , 20-C ) :   1.5629 B( 19-C , 22-C ) :   1.0400
B( 22-C , 23-H ) :   0.9274 B( 22-C , 24-H ) :   0.9402 B( 22-C , 25-C ) :   1.0630
B( 25-C , 26-H ) :   0.9632 B( 25-C , 27-H ) :   0.9573 B( 25-C , 28-C ) :   1.0724
B( 28-C , 29-H ) :   0.9743 B( 28-C , 30-H ) :   0.9761 B( 28-C , 31-H ) :   0.9759

Dispersion correction           -0.014041805
FINAL SINGLE POINT ENERGY     -1339.871105182554

DIPOLE MOMENT
-------------
                                X             Y             Z
Electronic contribution:     15.63788       4.88750     -25.10245
Nuclear contribution   :    -16.22733      -4.92345      25.49263
                        -----------------------------------------
Total Dipole Moment    :     -0.58945      -0.03594       0.39019
                        -----------------------------------------
Magnitude (a.u.)       :      0.70780
Magnitude (Debye)      :      1.79910

Rotational constants in cm-1:     0.016712     0.008673     0.007098
Rotational constants in MHz :   501.006556   260.019213   212.799865

                             ****ORCA TERMINATED NORMALLY****
TOTAL RUN TIME: 0 days 0 hours 0 minutes 20 seconds 283 msec
