                         Program Version 4.2.1 -  RELEASE  -
|  1> ! wB97X-D3 SP def2-SVP
|  2> %pal
|  3> nprocs 24
|  4> end
|  5>
|  6> * xyz 0 1
|  7> S 	 -136.778 	 32.7813 	 -18.8813
|  8> C 	 -136.186 	 31.803 	 -20.0627
|  9> C 	 -135.713 	 30.6166 	 -19.5361
| 10> C 	 -135.666 	 30.5926 	 -18.0816
| 11> C 	 -136.278 	 31.7029 	 -17.5883
| 12> H 	 -135.359 	 29.8627 	 -17.3727
| 13> C 	 -134.926 	 29.5119 	 -20.3348
| 14> H 	 -135.153 	 28.535 	 -19.8534
| 15> H 	 -133.802 	 29.6481 	 -20.1781
| 16> C 	 -135.286 	 29.4578 	 -21.7905
| 17> H 	 -136.326 	 29.4344 	 -21.8673
| 18> H 	 -134.948 	 30.4025 	 -22.2113
| 19> C 	 -134.719 	 28.2505 	 -22.5338
| 20> H 	 -135.367 	 27.8918 	 -23.3241
| 21> H 	 -133.73 	 28.3041 	 -22.8336
| 22> H 	 -134.737 	 27.3627 	 -21.8452
| 23> S 	 -138.161 	 31.8887 	 -15.5192
| 24> C 	 -137.679 	 32.4824 	 -13.8969
| 25> C 	 -136.382 	 32.9137 	 -13.9605
| 26> C 	 -135.722 	 32.6823 	 -15.2465
| 27> C 	 -136.529 	 32.0955 	 -16.2385
| 28> H 	 -135.968 	 33.271 	 -13.0484
| 29> C 	 -134.201 	 32.9618 	 -15.4617
| 30> H 	 -133.993 	 34.0179 	 -15.222
| 31> H 	 -134.121 	 32.9593 	 -16.4796
| 32> C 	 -133.195 	 32.1189 	 -14.7082
| 33> H 	 -133.191 	 31.1015 	 -15.1514
| 34> H 	 -133.568 	 32.0967 	 -13.6853
| 35> C 	 -131.736 	 32.6481 	 -14.7868
| 36> H 	 -131.827 	 33.7583 	 -14.8644
| 37> H 	 -131.305 	 32.3192 	 -15.7506
| 38> H 	 -131.183 	 32.3705 	 -13.9091
| 39> H 	 -136.426 	 31.9374 	 -21.1056
| 40> H 	 -138.257 	 32.405 	 -13.0337
| 41> *
| 42>
| 43>                          ****END OF INPUT****

CARTESIAN COORDINATES (ANGSTROEM)
---------------------------------
  S    -136.778000   32.781300  -18.881300
  C    -136.186000   31.803000  -20.062700
  C    -135.713000   30.616600  -19.536100
  C    -135.666000   30.592600  -18.081600
  C    -136.278000   31.702900  -17.588300
  H    -135.359000   29.862700  -17.372700
  C    -134.926000   29.511900  -20.334800
  H    -135.153000   28.535000  -19.853400
  H    -133.802000   29.648100  -20.178100
  C    -135.286000   29.457800  -21.790500
  H    -136.326000   29.434400  -21.867300
  H    -134.948000   30.402500  -22.211300
  C    -134.719000   28.250500  -22.533800
  H    -135.367000   27.891800  -23.324100
  H    -133.730000   28.304100  -22.833600
  H    -134.737000   27.362700  -21.845200
  S    -138.161000   31.888700  -15.519200
  C    -137.679000   32.482400  -13.896900
  C    -136.382000   32.913700  -13.960500
  C    -135.722000   32.682300  -15.246500
  C    -136.529000   32.095500  -16.238500
  H    -135.968000   33.271000  -13.048400
  C    -134.201000   32.961800  -15.461700
  H    -133.993000   34.017900  -15.222000
  H    -134.121000   32.959300  -16.479600
  C    -133.195000   32.118900  -14.708200
  H    -133.191000   31.101500  -15.151400
  H    -133.568000   32.096700  -13.685300
  C    -131.736000   32.648100  -14.786800
  H    -131.827000   33.758300  -14.864400
  H    -131.305000   32.319200  -15.750600
  H    -131.183000   32.370500  -13.909100
  H    -136.426000   31.937400  -21.105600
  H    -138.257000   32.405000  -13.033700

 Total Charge           Charge          ....    0
 Multiplicity           Mult            ....    1
 Number of Electrons    NEL             ....  134
 Basis Dimension        Dim             ....  322

ORBITAL ENERGIES
----------------

  NO   OCC          E(Eh)            E(eV)
   0   2.0000     -88.963031     -2420.8071
   1   2.0000     -88.959401     -2420.7084
   2   2.0000     -10.330189      -281.0987
   3   2.0000     -10.325318      -280.9662
   4   2.0000     -10.318955      -280.7930
   5   2.0000     -10.312404      -280.6148
   6   2.0000     -10.309056      -280.5237
   7   2.0000     -10.305512      -280.4272
   8   2.0000     -10.298036      -280.2238
   9   2.0000     -10.296815      -280.1906
  10   2.0000     -10.295456      -280.1536
  11   2.0000     -10.286021      -279.8969
  12   2.0000     -10.282405      -279.7985
  13   2.0000     -10.282186      -279.7925
  14   2.0000     -10.279508      -279.7196
  15   2.0000     -10.274843      -279.5927
  16   2.0000      -8.080177      -219.8728
  17   2.0000      -8.073120      -219.6808
  18   2.0000      -6.038506      -164.3161
  19   2.0000      -6.034194      -164.1988
  20   2.0000      -6.031864      -164.1354
  21   2.0000      -6.031087      -164.1142
  22   2.0000      -6.027669      -164.0212
  23   2.0000      -6.023768      -163.9151
  24   2.0000      -1.013584       -27.5810
  25   2.0000      -0.979064       -26.6417
  26   2.0000      -0.912760       -24.8375
  27   2.0000      -0.905155       -24.6305
  28   2.0000      -0.879895       -23.9432
  29   2.0000      -0.853657       -23.2292
  30   2.0000      -0.838630       -22.8203
  31   2.0000      -0.819140       -22.2899
  32   2.0000      -0.780432       -21.2366
  33   2.0000      -0.767739       -20.8913
  34   2.0000      -0.711407       -19.3584
  35   2.0000      -0.701182       -19.0801
  36   2.0000      -0.696396       -18.9499
  37   2.0000      -0.660645       -17.9771
  38   2.0000      -0.653961       -17.7952
  39   2.0000      -0.608789       -16.5660
  40   2.0000      -0.592504       -16.1228
  41   2.0000      -0.573947       -15.6179
  42   2.0000      -0.573614       -15.6088
  43   2.0000      -0.565702       -15.3935
  44   2.0000      -0.534141       -14.5347
  45   2.0000      -0.522179       -14.2092
  46   2.0000      -0.520283       -14.1576
  47   2.0000      -0.514831       -14.0093
  48   2.0000      -0.510413       -13.8890
  49   2.0000      -0.503081       -13.6895
  50   2.0000      -0.491985       -13.3876
  51   2.0000      -0.479831       -13.0569
  52   2.0000      -0.471157       -12.8208
  53   2.0000      -0.467198       -12.7131
  54   2.0000      -0.459906       -12.5147
  55   2.0000      -0.447386       -12.1740
  56   2.0000      -0.443087       -12.0570
  57   2.0000      -0.433273       -11.7900
  58   2.0000      -0.430915       -11.7258
  59   2.0000      -0.421002       -11.4560
  60   2.0000      -0.418088       -11.3768
  61   2.0000      -0.415801       -11.3145
  62   2.0000      -0.407186       -11.0801
  63   2.0000      -0.344399        -9.3716
  64   2.0000      -0.327903        -8.9227
  65   2.0000      -0.321505        -8.7486
  66   2.0000      -0.309335        -8.4174
  67   0.0000       0.044203         1.2028
  68   0.0000       0.052976         1.4415
  69   0.0000       0.113658         3.0928
  70   0.0000       0.123517         3.3611
  71   0.0000       0.128341         3.4923

MULLIKEN ATOMIC CHARGES
-----------------------
   0 S :    0.134920
   1 C :   -0.111319
   2 C :   -0.102358
   3 C :    0.069385
   4 C :   -0.199506
   5 H :    0.009806
   6 C :    0.010230
   7 H :    0.023127
   8 H :    0.053017
   9 C :   -0.062611
  10 H :    0.016815
  11 H :    0.030413
  12 C :   -0.008576
  13 H :    0.030216
  14 H :    0.023515
  15 H :    0.013196
  16 S :    0.079543
  17 C :   -0.075457
  18 C :   -0.015762
  19 C :   -0.034141
  20 C :   -0.164042
  21 H :    0.012531
  22 C :    0.096521
  23 H :    0.014819
  24 H :   -0.003307
  25 C :   -0.070819
  26 H :    0.031889
  27 H :    0.025736
  28 C :   -0.046872
  29 H :    0.026446
  30 H :    0.041847
  31 H :    0.045457
  32 H :    0.062036
  33 H :    0.043304
Sum of atomic charges:    0.0000000

LOEWDIN ATOMIC CHARGES
----------------------
   0 S :    0.452125
   1 C :   -0.230952
   2 C :   -0.066606
   3 C :   -0.044526
   4 C :   -0.200335
   5 H :    0.034421
   6 C :   -0.035744
   7 H :    0.026296
   8 H :    0.038318
   9 C :   -0.045131
  10 H :    0.018454
  11 H :    0.024184
  12 C :   -0.059273
  13 H :    0.028451
  14 H :    0.015374
  15 H :    0.029613
  16 S :    0.361583
  17 C :   -0.153428
  18 C :   -0.071391
  19 C :   -0.042409
  20 C :   -0.197291
  21 H :    0.027275
  22 C :   -0.031032
  23 H :    0.030267
  24 H :    0.013286
  25 C :   -0.041447
  26 H :    0.026503
  27 H :    0.021929
  28 C :   -0.063988
  29 H :    0.026360
  30 H :    0.030585
  31 H :    0.026313
  32 H :    0.031172
  33 H :    0.021041

  Mayer bond orders larger than 0.100000
B(  0-S ,  1-C ) :   1.1696 B(  0-S ,  4-C ) :   1.1545 B(  1-C ,  2-C ) :   1.6043
B(  1-C , 32-H ) :   0.9606 B(  2-C ,  3-C ) :   1.2137 B(  2-C ,  6-C ) :   1.0138
B(  3-C ,  4-C ) :   1.6075 B(  3-C ,  5-H ) :   1.0030 B(  4-C , 20-C ) :   1.0346
B(  6-C ,  7-H ) :   0.9398 B(  6-C ,  8-H ) :   0.9449 B(  6-C ,  9-C ) :   1.0829
B(  9-C , 10-H ) :   0.9574 B(  9-C , 11-H ) :   0.9436 B(  9-C , 12-C ) :   1.0834
B( 12-C , 13-H ) :   0.9744 B( 12-C , 14-H ) :   0.9753 B( 12-C , 15-H ) :   0.9712
B( 16-S , 17-C ) :   1.1404 B( 16-S , 20-C ) :   1.1154 B( 17-C , 18-C ) :   1.6353
B( 17-C , 33-H ) :   0.9752 B( 18-C , 19-C ) :   1.2017 B( 18-C , 21-H ) :   0.9944
B( 19-C , 20-C ) :   1.6181 B( 19-C , 22-C ) :   1.0419 B( 22-C , 23-H ) :   0.9292
B( 22-C , 24-H ) :   0.9250 B( 22-C , 25-C ) :   1.0665 B( 25-C , 26-H ) :   0.9537
B( 25-C , 27-H ) :   0.9588 B( 25-C , 28-C ) :   1.0717 B( 28-C , 29-H ) :   0.9767
B( 28-C , 30-H ) :   0.9773 B( 28-C , 31-H ) :   0.9755

Dispersion correction           -0.013544942
FINAL SINGLE POINT ENERGY     -1339.863769285214

DIPOLE MOMENT
-------------
                                X             Y             Z
Electronic contribution:    -23.02155      10.56029       7.83295
Nuclear contribution   :     23.53682     -10.82264      -7.79614
                        -----------------------------------------
Total Dipole Moment    :      0.51527      -0.26235       0.03681
                        -----------------------------------------
Magnitude (a.u.)       :      0.57938
Magnitude (Debye)      :      1.47266

Rotational constants in cm-1:     0.019365     0.007393     0.006009
Rotational constants in MHz :   580.557525   221.650284   180.144640

                             ****ORCA TERMINATED NORMALLY****
TOTAL RUN TIME: 0 days 0 hours 0 minutes 20 seconds 895 msec
