                         Program Version 4.2.1 -  RELEASE  -
|  1> ! wB97X-D3 SP def2-SVP
|  2> %pal
|  3> nprocs 24
|  4> end
|  5>
|  6> * xyz 0 1
|  7> S 	 -45.2668 	 23.4421 	 29.6168
|  8> C 	 -44.1667 	 22.2051 	 29.0566
|  9> C 	 -43.5346 	 21.5622 	 30.1215
| 10> C 	 -43.9773 	 22.1061 	 31.3855
| 11> C 	 -44.9356 	 23.1685 	 31.3079
| 12> H 	 -43.7314 	 21.7238 	 32.3898
| 13> C 	 -42.546 	 20.4244 	 29.9922
| 14> H 	 -42.7614 	 20.1738 	 28.9584
| 15> H 	 -42.8884 	 19.4917 	 30.4812
| 16> C 	 -41.0759 	 20.7564 	 30.239
| 17> H 	 -40.831 	 21.557 	 29.4892
| 18> H 	 -41.0625 	 21.0811 	 31.2737
| 19> C 	 -40.1127 	 19.6364 	 29.9293
| 20> H 	 -40.1726 	 19.4439 	 28.9061
| 21> H 	 -39.0029 	 19.8086 	 30.0103
| 22> H 	 -40.4196 	 18.7057 	 30.5054
| 23> S 	 -46.1743 	 23.1214 	 33.8579
| 24> C 	 -46.5357 	 24.6397 	 34.6486
| 25> C 	 -46.2355 	 25.6657 	 33.8326
| 26> C 	 -45.6261 	 25.335 	 32.5766
| 27> C 	 -45.5007 	 23.9613 	 32.4109
| 28> H 	 -46.3166 	 26.6671 	 34.1348
| 29> C 	 -45.0371 	 26.4087 	 31.6567
| 30> H 	 -45.8292 	 27.0841 	 31.2197
| 31> H 	 -44.6274 	 25.7998 	 30.8574
| 32> C 	 -43.8266 	 27.1948 	 32.1884
| 33> H 	 -44.1789 	 28.0935 	 32.6857
| 34> H 	 -43.3383 	 27.5018 	 31.2141
| 35> C 	 -42.9727 	 26.3834 	 33.1639
| 36> H 	 -42.5353 	 25.5002 	 32.6441
| 37> H 	 -43.5305 	 25.8666 	 33.9292
| 38> H 	 -42.1038 	 27.0065 	 33.5335
| 39> H 	 -43.8725 	 21.9139 	 27.9838
| 40> H 	 -46.7436 	 24.711 	 35.7106
| 41> *
| 42>
| 43>                          ****END OF INPUT****

CARTESIAN COORDINATES (ANGSTROEM)
---------------------------------
  S    -45.266800   23.442100   29.616800
  C    -44.166700   22.205100   29.056600
  C    -43.534600   21.562200   30.121500
  C    -43.977300   22.106100   31.385500
  C    -44.935600   23.168500   31.307900
  H    -43.731400   21.723800   32.389800
  C    -42.546000   20.424400   29.992200
  H    -42.761400   20.173800   28.958400
  H    -42.888400   19.491700   30.481200
  C    -41.075900   20.756400   30.239000
  H    -40.831000   21.557000   29.489200
  H    -41.062500   21.081100   31.273700
  C    -40.112700   19.636400   29.929300
  H    -40.172600   19.443900   28.906100
  H    -39.002900   19.808600   30.010300
  H    -40.419600   18.705700   30.505400
  S    -46.174300   23.121400   33.857900
  C    -46.535700   24.639700   34.648600
  C    -46.235500   25.665700   33.832600
  C    -45.626100   25.335000   32.576600
  C    -45.500700   23.961300   32.410900
  H    -46.316600   26.667100   34.134800
  C    -45.037100   26.408700   31.656700
  H    -45.829200   27.084100   31.219700
  H    -44.627400   25.799800   30.857400
  C    -43.826600   27.194800   32.188400
  H    -44.178900   28.093500   32.685700
  H    -43.338300   27.501800   31.214100
  C    -42.972700   26.383400   33.163900
  H    -42.535300   25.500200   32.644100
  H    -43.530500   25.866600   33.929200
  H    -42.103800   27.006500   33.533500
  H    -43.872500   21.913900   27.983800
  H    -46.743600   24.711000   35.710600

 Total Charge           Charge          ....    0
 Multiplicity           Mult            ....    1
 Number of Electrons    NEL             ....  134
 Basis Dimension        Dim             ....  322

ORBITAL ENERGIES
----------------

  NO   OCC          E(Eh)            E(eV)
   0   2.0000     -88.973563     -2421.0937
   1   2.0000     -88.964406     -2420.8446
   2   2.0000     -10.337970      -281.3105
   3   2.0000     -10.335573      -281.2452
   4   2.0000     -10.325778      -280.9787
   5   2.0000     -10.317558      -280.7550
   6   2.0000     -10.307056      -280.4692
   7   2.0000     -10.304486      -280.3993
   8   2.0000     -10.302646      -280.3492
   9   2.0000     -10.293768      -280.1077
  10   2.0000     -10.291552      -280.0474
  11   2.0000     -10.291123      -280.0357
  12   2.0000     -10.288971      -279.9771
  13   2.0000     -10.287717      -279.9430
  14   2.0000     -10.282132      -279.7910
  15   2.0000     -10.277178      -279.6562
  16   2.0000      -8.087406      -220.0695
  17   2.0000      -8.078543      -219.8283
  18   2.0000      -6.046028      -164.5208
  19   2.0000      -6.041766      -164.4048
  20   2.0000      -6.038331      -164.3114
  21   2.0000      -6.037210      -164.2808
  22   2.0000      -6.033156      -164.1705
  23   2.0000      -6.029143      -164.0613
  24   2.0000      -1.002598       -27.2821
  25   2.0000      -0.983613       -26.7655
  26   2.0000      -0.916510       -24.9395
  27   2.0000      -0.906794       -24.6751
  28   2.0000      -0.871406       -23.7122
  29   2.0000      -0.849037       -23.1035
  30   2.0000      -0.840396       -22.8683
  31   2.0000      -0.812627       -22.1127
  32   2.0000      -0.782872       -21.3030
  33   2.0000      -0.774029       -21.0624
  34   2.0000      -0.710260       -19.3272
  35   2.0000      -0.697098       -18.9690
  36   2.0000      -0.688988       -18.7483
  37   2.0000      -0.662159       -18.0183
  38   2.0000      -0.632634       -17.2149
  39   2.0000      -0.612846       -16.6764
  40   2.0000      -0.594197       -16.1689
  41   2.0000      -0.578543       -15.7430
  42   2.0000      -0.562969       -15.3192
  43   2.0000      -0.552771       -15.0417
  44   2.0000      -0.542048       -14.7499
  45   2.0000      -0.520947       -14.1757
  46   2.0000      -0.515921       -14.0389
  47   2.0000      -0.511432       -13.9168
  48   2.0000      -0.507393       -13.8069
  49   2.0000      -0.500721       -13.6253
  50   2.0000      -0.493058       -13.4168
  51   2.0000      -0.476875       -12.9764
  52   2.0000      -0.469509       -12.7760
  53   2.0000      -0.461587       -12.5604
  54   2.0000      -0.452940       -12.3251
  55   2.0000      -0.446974       -12.1628
  56   2.0000      -0.445151       -12.1132
  57   2.0000      -0.431723       -11.7478
  58   2.0000      -0.429797       -11.6954
  59   2.0000      -0.421507       -11.4698
  60   2.0000      -0.418838       -11.3972
  61   2.0000      -0.416312       -11.3284
  62   2.0000      -0.404227       -10.9996
  63   2.0000      -0.349169        -9.5014
  64   2.0000      -0.332317        -9.0428
  65   2.0000      -0.331149        -9.0110
  66   2.0000      -0.295472        -8.0402
  67   0.0000       0.022922         0.6237
  68   0.0000       0.075069         2.0427
  69   0.0000       0.107136         2.9153
  70   0.0000       0.118328         3.2199
  71   0.0000       0.124654         3.3920

MULLIKEN ATOMIC CHARGES
-----------------------
   0 S :    0.131757
   1 C :   -0.142986
   2 C :   -0.117387
   3 C :    0.028767
   4 C :   -0.172937
   5 H :    0.020949
   6 C :    0.052995
   7 H :   -0.007030
   8 H :    0.035675
   9 C :   -0.047156
  10 H :    0.035355
  11 H :    0.036131
  12 C :   -0.043836
  13 H :    0.010682
  14 H :    0.046107
  15 H :    0.036751
  16 S :    0.088633
  17 C :   -0.086862
  18 C :    0.007876
  19 C :   -0.095456
  20 C :   -0.146569
  21 H :   -0.003369
  22 C :    0.065365
  23 H :    0.051696
  24 H :    0.012122
  25 C :   -0.084878
  26 H :    0.027213
  27 H :    0.046481
  28 C :   -0.049231
  29 H :    0.025596
  30 H :    0.043253
  31 H :    0.048733
  32 H :    0.077852
  33 H :    0.067707
Sum of atomic charges:   -0.0000000

LOEWDIN ATOMIC CHARGES
----------------------
   0 S :    0.431709
   1 C :   -0.217067
   2 C :   -0.067372
   3 C :   -0.063060
   4 C :   -0.204420
   5 H :    0.030293
   6 C :   -0.039193
   7 H :    0.024839
   8 H :    0.033847
   9 C :   -0.040225
  10 H :    0.034163
  11 H :    0.024072
  12 C :   -0.072679
  13 H :    0.016180
  14 H :    0.035593
  15 H :    0.030763
  16 S :    0.377962
  17 C :   -0.178740
  18 C :   -0.067302
  19 C :   -0.059189
  20 C :   -0.182995
  21 H :    0.022857
  22 C :   -0.040622
  23 H :    0.040061
  24 H :    0.017967
  25 C :   -0.044120
  26 H :    0.017180
  27 H :    0.036788
  28 C :   -0.074318
  29 H :    0.030544
  30 H :    0.027611
  31 H :    0.033839
  32 H :    0.049928
  33 H :    0.035104

  Mayer bond orders larger than 0.100000
B(  0-S ,  1-C ) :   1.1540 B(  0-S ,  4-C ) :   1.1553 B(  1-C ,  2-C ) :   1.5981
B(  1-C , 32-H ) :   0.9482 B(  2-C ,  3-C ) :   1.2638 B(  2-C ,  6-C ) :   1.0216
B(  3-C ,  4-C ) :   1.5370 B(  3-C ,  5-H ) :   0.9861 B(  4-C , 20-C ) :   1.0446
B(  6-C ,  7-H ) :   0.9323 B(  6-C ,  8-H ) :   0.9379 B(  6-C ,  9-C ) :   1.0505
B(  9-C , 10-H ) :   0.9533 B(  9-C , 11-H ) :   0.9591 B(  9-C , 12-C ) :   1.0811
B( 12-C , 13-H ) :   0.9720 B( 12-C , 14-H ) :   0.9736 B( 12-C , 15-H ) :   0.9721
B( 16-S , 17-C ) :   1.1378 B( 16-S , 20-C ) :   1.1245 B( 17-C , 18-C ) :   1.6163
B( 17-C , 33-H ) :   0.9660 B( 18-C , 19-C ) :   1.2304 B( 18-C , 21-H ) :   0.9976
B( 19-C , 20-C ) :   1.6012 B( 19-C , 22-C ) :   1.0445 B( 22-C , 23-H ) :   0.9363
B( 22-C , 24-H ) :   0.9251 B( 22-C , 25-C ) :   1.0567 B( 25-C , 26-H ) :   0.9548
B( 25-C , 27-H ) :   0.9603 B( 25-C , 28-C ) :   1.0847 B( 28-C , 29-H ) :   0.9717
B( 28-C , 30-H ) :   0.9610 B( 28-C , 31-H ) :   0.9730

Dispersion correction           -0.014777173
FINAL SINGLE POINT ENERGY     -1339.873638055669

DIPOLE MOMENT
-------------
                                X             Y             Z
Electronic contribution:    -22.80074       0.23785       3.14385
Nuclear contribution   :     23.29582      -0.16546      -3.18912
                        -----------------------------------------
Total Dipole Moment    :      0.49508       0.07239      -0.04528
                        -----------------------------------------
Magnitude (a.u.)       :      0.50239
Magnitude (Debye)      :      1.27697

Rotational constants in cm-1:     0.020831     0.007393     0.007084
Rotational constants in MHz :   624.490463   221.651504   212.359369

                             ****ORCA TERMINATED NORMALLY****
TOTAL RUN TIME: 0 days 0 hours 0 minutes 21 seconds 530 msec
