                         Program Version 4.2.1 -  RELEASE  -
|  1> ! wB97X-D3 SP def2-SVP
|  2> %pal
|  3> nprocs 24
|  4> end
|  5>
|  6> * xyz 0 1
|  7> S 	 -89.1542 	 -39.2161 	 -61.7262
|  8> C 	 -90.0869 	 -39.1019 	 -63.237
|  9> C 	 -91.3848 	 -38.6668 	 -63.0045
| 10> C 	 -91.6588 	 -38.4542 	 -61.5775
| 11> C 	 -90.5805 	 -38.7592 	 -60.7915
| 12> H 	 -92.6033 	 -38.1563 	 -61.1689
| 13> C 	 -92.4807 	 -38.4193 	 -64.0491
| 14> H 	 -92.2199 	 -38.9702 	 -64.9558
| 15> H 	 -92.5014 	 -37.3578 	 -64.3729
| 16> C 	 -93.8433 	 -38.9247 	 -63.5465
| 17> H 	 -93.7579 	 -39.9514 	 -63.1192
| 18> H 	 -94.1519 	 -38.2869 	 -62.7131
| 19> C 	 -94.9038 	 -38.9693 	 -64.6362
| 20> H 	 -95.8692 	 -39.4376 	 -64.317
| 21> H 	 -95.1147 	 -38.0551 	 -65.1516
| 22> H 	 -94.5881 	 -39.6127 	 -65.4118
| 23> S 	 -90.1757 	 -39.7923 	 -58.3188
| 24> C 	 -90.1626 	 -38.7044 	 -56.9779
| 25> C 	 -90.7623 	 -37.4699 	 -57.2533
| 26> C 	 -90.9396 	 -37.3215 	 -58.6903
| 27> C 	 -90.5146 	 -38.4693 	 -59.3928
| 28> H 	 -91.0038 	 -36.7078 	 -56.5639
| 29> C 	 -91.3573 	 -35.9783 	 -59.2523
| 30> H 	 -91.347 	 -35.9546 	 -60.3599
| 31> H 	 -90.6722 	 -35.2614 	 -58.9517
| 32> C 	 -92.755 	 -35.5754 	 -58.8013
| 33> H 	 -93.0853 	 -34.8062 	 -59.4356
| 34> H 	 -92.9253 	 -35.1742 	 -57.7697
| 35> C 	 -93.7515 	 -36.6428 	 -58.9963
| 36> H 	 -93.4996 	 -37.6138 	 -58.6314
| 37> H 	 -94.0264 	 -36.8295 	 -59.9941
| 38> H 	 -94.6196 	 -36.2761 	 -58.5571
| 39> H 	 -89.7429 	 -39.3148 	 -64.1888
| 40> H 	 -89.7441 	 -38.9101 	 -55.9933
| 41> *
| 42>
| 43>                          ****END OF INPUT****

CARTESIAN COORDINATES (ANGSTROEM)
---------------------------------
  S    -89.154200  -39.216100  -61.726200
  C    -90.086900  -39.101900  -63.237000
  C    -91.384800  -38.666800  -63.004500
  C    -91.658800  -38.454200  -61.577500
  C    -90.580500  -38.759200  -60.791500
  H    -92.603300  -38.156300  -61.168900
  C    -92.480700  -38.419300  -64.049100
  H    -92.219900  -38.970200  -64.955800
  H    -92.501400  -37.357800  -64.372900
  C    -93.843300  -38.924700  -63.546500
  H    -93.757900  -39.951400  -63.119200
  H    -94.151900  -38.286900  -62.713100
  C    -94.903800  -38.969300  -64.636200
  H    -95.869200  -39.437600  -64.317000
  H    -95.114700  -38.055100  -65.151600
  H    -94.588100  -39.612700  -65.411800
  S    -90.175700  -39.792300  -58.318800
  C    -90.162600  -38.704400  -56.977900
  C    -90.762300  -37.469900  -57.253300
  C    -90.939600  -37.321500  -58.690300
  C    -90.514600  -38.469300  -59.392800
  H    -91.003800  -36.707800  -56.563900
  C    -91.357300  -35.978300  -59.252300
  H    -91.347000  -35.954600  -60.359900
  H    -90.672200  -35.261400  -58.951700
  C    -92.755000  -35.575400  -58.801300
  H    -93.085300  -34.806200  -59.435600
  H    -92.925300  -35.174200  -57.769700
  C    -93.751500  -36.642800  -58.996300
  H    -93.499600  -37.613800  -58.631400
  H    -94.026400  -36.829500  -59.994100
  H    -94.619600  -36.276100  -58.557100
  H    -89.742900  -39.314800  -64.188800
  H    -89.744100  -38.910100  -55.993300

 Total Charge           Charge          ....    0
 Multiplicity           Mult            ....    1
 Number of Electrons    NEL             ....  134
 Basis Dimension        Dim             ....  322

ORBITAL ENERGIES
----------------

  NO   OCC          E(Eh)            E(eV)
   0   2.0000     -88.964971     -2420.8599
   1   2.0000     -88.964474     -2420.8464
   2   2.0000     -10.323411      -280.9143
   3   2.0000     -10.319863      -280.8178
   4   2.0000     -10.317858      -280.7632
   5   2.0000     -10.312182      -280.6087
   6   2.0000     -10.305222      -280.4193
   7   2.0000     -10.304689      -280.4049
   8   2.0000     -10.296917      -280.1934
   9   2.0000     -10.294304      -280.1222
  10   2.0000     -10.292436      -280.0714
  11   2.0000     -10.291324      -280.0412
  12   2.0000     -10.285761      -279.8898
  13   2.0000     -10.279961      -279.7320
  14   2.0000     -10.275639      -279.6143
  15   2.0000     -10.258053      -279.1358
  16   2.0000      -8.079969      -219.8671
  17   2.0000      -8.079012      -219.8411
  18   2.0000      -6.038405      -164.3134
  19   2.0000      -6.037700      -164.2942
  20   2.0000      -6.034536      -164.2081
  21   2.0000      -6.033726      -164.1860
  22   2.0000      -6.030610      -164.1012
  23   2.0000      -6.029515      -164.0714
  24   2.0000      -1.003920       -27.3181
  25   2.0000      -0.977485       -26.5987
  26   2.0000      -0.921349       -25.0712
  27   2.0000      -0.910822       -24.7847
  28   2.0000      -0.869974       -23.6732
  29   2.0000      -0.854058       -23.2401
  30   2.0000      -0.843375       -22.9494
  31   2.0000      -0.812894       -22.1200
  32   2.0000      -0.786740       -21.4083
  33   2.0000      -0.773492       -21.0478
  34   2.0000      -0.713536       -19.4163
  35   2.0000      -0.698917       -19.0185
  36   2.0000      -0.689982       -18.7754
  37   2.0000      -0.661410       -17.9979
  38   2.0000      -0.642045       -17.4709
  39   2.0000      -0.620385       -16.8815
  40   2.0000      -0.597187       -16.2503
  41   2.0000      -0.568463       -15.4687
  42   2.0000      -0.567167       -15.4334
  43   2.0000      -0.559239       -15.2177
  44   2.0000      -0.550087       -14.9686
  45   2.0000      -0.524929       -14.2840
  46   2.0000      -0.516914       -14.0660
  47   2.0000      -0.509052       -13.8520
  48   2.0000      -0.505625       -13.7587
  49   2.0000      -0.502918       -13.6851
  50   2.0000      -0.495832       -13.4923
  51   2.0000      -0.475262       -12.9325
  52   2.0000      -0.468843       -12.7579
  53   2.0000      -0.460262       -12.5244
  54   2.0000      -0.458363       -12.4727
  55   2.0000      -0.453283       -12.3345
  56   2.0000      -0.449142       -12.2218
  57   2.0000      -0.436827       -11.8867
  58   2.0000      -0.435516       -11.8510
  59   2.0000      -0.428077       -11.6486
  60   2.0000      -0.422455       -11.4956
  61   2.0000      -0.417050       -11.3485
  62   2.0000      -0.411747       -11.2042
  63   2.0000      -0.337526        -9.1845
  64   2.0000      -0.328725        -8.9451
  65   2.0000      -0.326242        -8.8775
  66   2.0000      -0.293776        -7.9940
  67   0.0000       0.029507         0.8029
  68   0.0000       0.071977         1.9586
  69   0.0000       0.107141         2.9155
  70   0.0000       0.115763         3.1501
  71   0.0000       0.127078         3.4580

MULLIKEN ATOMIC CHARGES
-----------------------
   0 S :    0.106801
   1 C :   -0.085314
   2 C :   -0.096885
   3 C :    0.035049
   4 C :   -0.125720
   5 H :   -0.020927
   6 C :    0.075492
   7 H :    0.011944
   8 H :    0.048324
   9 C :   -0.122818
  10 H :    0.045797
  11 H :    0.038999
  12 C :   -0.014827
  13 H :    0.036222
  14 H :    0.022347
  15 H :    0.011082
  16 S :    0.121535
  17 C :   -0.084787
  18 C :   -0.015945
  19 C :   -0.072525
  20 C :   -0.174182
  21 H :    0.007213
  22 C :    0.120945
  23 H :    0.029420
  24 H :    0.018705
  25 C :   -0.085036
  26 H :    0.011487
  27 H :    0.034321
  28 C :   -0.000793
  29 H :    0.038784
  30 H :    0.007780
  31 H :    0.005359
  32 H :    0.012312
  33 H :    0.059841
Sum of atomic charges:   -0.0000000

LOEWDIN ATOMIC CHARGES
----------------------
   0 S :    0.385836
   1 C :   -0.178977
   2 C :   -0.054920
   3 C :   -0.054240
   4 C :   -0.193767
   5 H :    0.024193
   6 C :   -0.033161
   7 H :    0.026623
   8 H :    0.037042
   9 C :   -0.044524
  10 H :    0.034484
  11 H :    0.020687
  12 C :   -0.066922
  13 H :    0.033015
  14 H :    0.021012
  15 H :    0.019282
  16 S :    0.419747
  17 C :   -0.187504
  18 C :   -0.061434
  19 C :   -0.044697
  20 C :   -0.215051
  21 H :    0.024831
  22 C :   -0.025864
  23 H :    0.036694
  24 H :    0.024111
  25 C :   -0.040700
  26 H :    0.022514
  27 H :    0.027422
  28 C :   -0.056748
  29 H :    0.023059
  30 H :    0.014176
  31 H :    0.021712
  32 H :    0.012753
  33 H :    0.029318

  Mayer bond orders larger than 0.100000
B(  0-S ,  1-C ) :   1.1154 B(  0-S ,  4-C ) :   1.1340 B(  1-C ,  2-C ) :   1.6512
B(  1-C , 32-H ) :   0.9767 B(  2-C ,  3-C ) :   1.1942 B(  2-C ,  6-C ) :   1.0200
B(  3-C ,  4-C ) :   1.5989 B(  3-C ,  5-H ) :   0.9961 B(  4-C , 20-C ) :   1.0341
B(  6-C ,  7-H ) :   0.9437 B(  6-C ,  8-H ) :   0.9331 B(  6-C ,  9-C ) :   1.0615
B(  9-C , 10-H ) :   0.9586 B(  9-C , 11-H ) :   0.9479 B(  9-C , 12-C ) :   1.0897
B( 12-C , 13-H ) :   0.9729 B( 12-C , 14-H ) :   0.9726 B( 12-C , 15-H ) :   0.9701
B( 16-S , 17-C ) :   1.1631 B( 16-S , 20-C ) :   1.1444 B( 17-C , 18-C ) :   1.5937
B( 17-C , 33-H ) :   0.9684 B( 18-C , 19-C ) :   1.2314 B( 18-C , 21-H ) :   0.9983
B( 19-C , 20-C ) :   1.5845 B( 19-C , 22-C ) :   1.0477 B( 22-C , 23-H ) :   0.9327
B( 22-C , 24-H ) :   0.9334 B( 22-C , 25-C ) :   1.0722 B( 25-C , 26-H ) :   0.9484
B( 25-C , 27-H ) :   0.9576 B( 25-C , 28-C ) :   1.0943 B( 28-C , 29-H ) :   0.9645
B( 28-C , 30-H ) :   0.9640 B( 28-C , 31-H ) :   0.9606

Dispersion correction           -0.015423332
FINAL SINGLE POINT ENERGY     -1339.869966151949

DIPOLE MOMENT
-------------
                                X             Y             Z
Electronic contribution:     25.36625     -11.98558      10.34070
Nuclear contribution   :    -25.94012      12.50526     -10.51304
                        -----------------------------------------
Total Dipole Moment    :     -0.57387       0.51968      -0.17233
                        -----------------------------------------
Magnitude (a.u.)       :      0.79316
Magnitude (Debye)      :      2.01604

Rotational constants in cm-1:     0.018431     0.009494     0.007248
Rotational constants in MHz :   552.536356   284.614371   217.290343

                             ****ORCA TERMINATED NORMALLY****
TOTAL RUN TIME: 0 days 0 hours 0 minutes 22 seconds 810 msec
