                         Program Version 4.2.1 -  RELEASE  -
|  1> ! wB97X-D3 SP def2-SVP
|  2> %pal
|  3> nprocs 24
|  4> end
|  5>
|  6> * xyz 0 1
|  7> S 	 -99.5729 	 46.6298 	 -85.4935
|  8> C 	 -99.2823 	 44.9329 	 -85.4753
|  9> C 	 -100.041 	 44.2134 	 -86.3644
| 10> C 	 -100.978 	 45.1193 	 -86.9527
| 11> C 	 -100.993 	 46.4201 	 -86.47
| 12> H 	 -101.769 	 44.812 	 -87.5645
| 13> C 	 -100.195 	 42.7046 	 -86.4545
| 14> H 	 -99.427 	 42.324 	 -87.1533
| 15> H 	 -101.118 	 42.533 	 -87.0395
| 16> C 	 -100.239 	 41.8988 	 -85.0705
| 17> H 	 -100.344 	 40.8342 	 -85.2904
| 18> H 	 -99.2463 	 42.0203 	 -84.6622
| 19> C 	 -101.275 	 42.4594 	 -84.0333
| 20> H 	 -101.128 	 43.5401 	 -83.8918
| 21> H 	 -102.234 	 42.1719 	 -84.1963
| 22> H 	 -101.111 	 42.0598 	 -83.0337
| 23> S 	 -101.16 	 49.084 	 -87.3427
| 24> C 	 -102.773 	 49.6325 	 -87.7563
| 25> C 	 -103.821 	 48.8339 	 -87.3493
| 26> C 	 -103.268 	 47.5201 	 -86.9755
| 27> C 	 -101.871 	 47.5019 	 -86.9003
| 28> H 	 -104.831 	 49.1183 	 -87.6316
| 29> C 	 -104.126 	 46.3441 	 -86.7223
| 30> H 	 -103.978 	 45.6746 	 -87.5345
| 31> H 	 -105.162 	 46.7092 	 -86.9798
| 32> C 	 -104.07 	 45.7068 	 -85.2032
| 33> H 	 -104.223 	 46.5818 	 -84.546
| 34> H 	 -103.034 	 45.4105 	 -85.0146
| 35> C 	 -105.007 	 44.6213 	 -84.8851
| 36> H 	 -106.05 	 44.9382 	 -84.8128
| 37> H 	 -104.71 	 44.1354 	 -83.9452
| 38> H 	 -104.89 	 43.8673 	 -85.7325
| 39> H 	 -98.5211 	 44.3908 	 -84.9388
| 40> H 	 -102.969 	 50.5536 	 -88.3071
| 41> *
| 42>
| 43>                          ****END OF INPUT****

CARTESIAN COORDINATES (ANGSTROEM)
---------------------------------
  S    -99.572900   46.629800  -85.493500
  C    -99.282300   44.932900  -85.475300
  C    -100.041000   44.213400  -86.364400
  C    -100.978000   45.119300  -86.952700
  C    -100.993000   46.420100  -86.470000
  H    -101.769000   44.812000  -87.564500
  C    -100.195000   42.704600  -86.454500
  H    -99.427000   42.324000  -87.153300
  H    -101.118000   42.533000  -87.039500
  C    -100.239000   41.898800  -85.070500
  H    -100.344000   40.834200  -85.290400
  H    -99.246300   42.020300  -84.662200
  C    -101.275000   42.459400  -84.033300
  H    -101.128000   43.540100  -83.891800
  H    -102.234000   42.171900  -84.196300
  H    -101.111000   42.059800  -83.033700
  S    -101.160000   49.084000  -87.342700
  C    -102.773000   49.632500  -87.756300
  C    -103.821000   48.833900  -87.349300
  C    -103.268000   47.520100  -86.975500
  C    -101.871000   47.501900  -86.900300
  H    -104.831000   49.118300  -87.631600
  C    -104.126000   46.344100  -86.722300
  H    -103.978000   45.674600  -87.534500
  H    -105.162000   46.709200  -86.979800
  C    -104.070000   45.706800  -85.203200
  H    -104.223000   46.581800  -84.546000
  H    -103.034000   45.410500  -85.014600
  C    -105.007000   44.621300  -84.885100
  H    -106.050000   44.938200  -84.812800
  H    -104.710000   44.135400  -83.945200
  H    -104.890000   43.867300  -85.732500
  H    -98.521100   44.390800  -84.938800
  H    -102.969000   50.553600  -88.307100

 Total Charge           Charge          ....    0
 Multiplicity           Mult            ....    1
 Number of Electrons    NEL             ....  134
 Basis Dimension        Dim             ....  322

ORBITAL ENERGIES
----------------

  NO   OCC          E(Eh)            E(eV)
   0   2.0000     -88.967661     -2420.9331
   1   2.0000     -88.967476     -2420.9281
   2   2.0000     -10.328148      -281.0432
   3   2.0000     -10.326639      -281.0021
   4   2.0000     -10.319777      -280.8154
   5   2.0000     -10.308170      -280.4996
   6   2.0000     -10.307736      -280.4878
   7   2.0000     -10.301111      -280.3075
   8   2.0000     -10.299688      -280.2688
   9   2.0000     -10.298327      -280.2317
  10   2.0000     -10.297196      -280.2009
  11   2.0000     -10.293674      -280.1051
  12   2.0000     -10.287533      -279.9380
  13   2.0000     -10.285589      -279.8851
  14   2.0000     -10.280501      -279.7467
  15   2.0000     -10.273506      -279.5563
  16   2.0000      -8.082708      -219.9417
  17   2.0000      -8.081811      -219.9173
  18   2.0000      -6.041184      -164.3890
  19   2.0000      -6.040346      -164.3662
  20   2.0000      -6.037195      -164.2804
  21   2.0000      -6.036632      -164.2651
  22   2.0000      -6.033432      -164.1780
  23   2.0000      -6.032362      -164.1489
  24   2.0000      -1.006849       -27.3978
  25   2.0000      -0.981989       -26.7213
  26   2.0000      -0.903962       -24.5981
  27   2.0000      -0.901423       -24.5290
  28   2.0000      -0.865568       -23.5533
  29   2.0000      -0.857227       -23.3263
  30   2.0000      -0.847078       -23.0502
  31   2.0000      -0.813706       -22.1421
  32   2.0000      -0.786260       -21.3952
  33   2.0000      -0.768773       -20.9194
  34   2.0000      -0.712431       -19.3862
  35   2.0000      -0.703658       -19.1475
  36   2.0000      -0.687362       -18.7041
  37   2.0000      -0.661764       -18.0075
  38   2.0000      -0.636865       -17.3300
  39   2.0000      -0.610850       -16.6221
  40   2.0000      -0.586949       -15.9717
  41   2.0000      -0.575656       -15.6644
  42   2.0000      -0.558673       -15.2023
  43   2.0000      -0.543849       -14.7989
  44   2.0000      -0.543707       -14.7950
  45   2.0000      -0.524526       -14.2731
  46   2.0000      -0.513219       -13.9654
  47   2.0000      -0.511470       -13.9178
  48   2.0000      -0.497353       -13.5337
  49   2.0000      -0.495978       -13.4962
  50   2.0000      -0.489401       -13.3173
  51   2.0000      -0.481589       -13.1047
  52   2.0000      -0.469375       -12.7724
  53   2.0000      -0.463838       -12.6217
  54   2.0000      -0.461748       -12.5648
  55   2.0000      -0.453869       -12.3504
  56   2.0000      -0.445560       -12.1243
  57   2.0000      -0.441906       -12.0249
  58   2.0000      -0.431832       -11.7507
  59   2.0000      -0.425262       -11.5720
  60   2.0000      -0.417182       -11.3521
  61   2.0000      -0.415357       -11.3024
  62   2.0000      -0.408524       -11.1165
  63   2.0000      -0.350040        -9.5251
  64   2.0000      -0.331546        -9.0218
  65   2.0000      -0.328297        -8.9334
  66   2.0000      -0.284581        -7.7438
  67   0.0000       0.030417         0.8277
  68   0.0000       0.062684         1.7057
  69   0.0000       0.105332         2.8662
  70   0.0000       0.116488         3.1698
  71   0.0000       0.128375         3.4933

MULLIKEN ATOMIC CHARGES
-----------------------
   0 S :    0.122149
   1 C :   -0.113814
   2 C :   -0.094527
   3 C :    0.033658
   4 C :   -0.164016
   5 H :   -0.021046
   6 C :    0.052621
   7 H :    0.043145
   8 H :    0.020894
   9 C :   -0.073066
  10 H :    0.038073
  11 H :    0.025259
  12 C :   -0.024163
  13 H :    0.054143
  14 H :    0.014747
  15 H :    0.020390
  16 S :    0.105854
  17 C :   -0.102244
  18 C :   -0.008936
  19 C :   -0.086694
  20 C :   -0.127408
  21 H :    0.030752
  22 C :    0.049526
  23 H :    0.026076
  24 H :    0.008188
  25 C :   -0.078568
  26 H :    0.031165
  27 H :    0.048351
  28 C :   -0.035139
  29 H :    0.036969
  30 H :    0.041101
  31 H :    0.032272
  32 H :    0.034839
  33 H :    0.059448
Sum of atomic charges:   -0.0000000

LOEWDIN ATOMIC CHARGES
----------------------
   0 S :    0.421028
   1 C :   -0.205556
   2 C :   -0.069152
   3 C :   -0.057476
   4 C :   -0.199860
   5 H :    0.015191
   6 C :   -0.035399
   7 H :    0.036952
   8 H :    0.029541
   9 C :   -0.030874
  10 H :    0.027467
  11 H :    0.019907
  12 C :   -0.061042
  13 H :    0.033249
  14 H :    0.009932
  15 H :    0.029651
  16 S :    0.380184
  17 C :   -0.172814
  18 C :   -0.072133
  19 C :   -0.049221
  20 C :   -0.189081
  21 H :    0.036229
  22 C :   -0.041961
  23 H :    0.024359
  24 H :    0.032661
  25 C :   -0.038277
  26 H :    0.026915
  27 H :    0.026818
  28 C :   -0.070358
  29 H :    0.025158
  30 H :    0.031515
  31 H :    0.032109
  32 H :    0.025063
  33 H :    0.029273

  Mayer bond orders larger than 0.100000
B(  0-S ,  1-C ) :   1.1501 B(  0-S ,  4-C ) :   1.1366 B(  1-C ,  2-C ) :   1.6101
B(  1-C , 32-H ) :   0.9619 B(  2-C ,  3-C ) :   1.2585 B(  2-C ,  6-C ) :   1.0140
B(  3-C ,  4-C ) :   1.5665 B(  3-C ,  5-H ) :   0.9950 B(  4-C , 20-C ) :   1.0751
B(  6-C ,  7-H ) :   0.9327 B(  6-C ,  8-H ) :   0.9488 B(  6-C ,  9-C ) :   1.0599
B(  9-C , 10-H ) :   0.9590 B(  9-C , 11-H ) :   0.9577 B(  9-C , 12-C ) :   1.0718
B( 12-C , 13-H ) :   0.9690 B( 12-C , 14-H ) :   0.9790 B( 12-C , 15-H ) :   0.9693
B( 16-S , 17-C ) :   1.1525 B( 16-S , 20-C ) :   1.1045 B( 17-C , 18-C ) :   1.6560
B( 17-C , 33-H ) :   0.9603 B( 18-C , 19-C ) :   1.2045 B( 18-C , 21-H ) :   0.9799
B( 19-C , 20-C ) :   1.6220 B( 19-C , 22-C ) :   1.0566 B( 22-C , 23-H ) :   0.9257
B( 22-C , 24-H ) :   0.9290 B( 22-C , 25-C ) :   1.0260 B( 25-C , 26-H ) :   0.9538
B( 25-C , 27-H ) :   0.9545 B( 25-C , 28-C ) :   1.0976 B( 28-C , 29-H ) :   0.9728
B( 28-C , 30-H ) :   0.9676 B( 28-C , 31-H ) :   0.9703

Dispersion correction           -0.016149392
FINAL SINGLE POINT ENERGY     -1339.860961910560

DIPOLE MOMENT
-------------
                                X             Y             Z
Electronic contribution:     14.31749      25.54879      -8.95008
Nuclear contribution   :    -14.79511     -26.10683       8.91841
                        -----------------------------------------
Total Dipole Moment    :     -0.47762      -0.55804      -0.03167
                        -----------------------------------------
Magnitude (a.u.)       :      0.73521
Magnitude (Debye)      :      1.86876

Rotational constants in cm-1:     0.020396     0.009797     0.007317
Rotational constants in MHz :   611.468899   293.705942   219.366464

                             ****ORCA TERMINATED NORMALLY****
TOTAL RUN TIME: 0 days 0 hours 0 minutes 23 seconds 131 msec
