                         Program Version 4.2.1 -  RELEASE  -
|  1> ! wB97X-D3 SP def2-SVP
|  2> %pal
|  3> nprocs 24
|  4> end
|  5>
|  6> * xyz 0 1
|  7> S 	 -64.949 	 20.0253 	 -118.007
|  8> C 	 -63.327 	 20.1492 	 -118.668
|  9> C 	 -62.4086 	 20.6315 	 -117.75
| 10> C 	 -63.0216 	 20.8864 	 -116.483
| 11> C 	 -64.3912 	 20.786 	 -116.48
| 12> H 	 -62.5151 	 21.0993 	 -115.582
| 13> C 	 -60.9376 	 20.7121 	 -118.029
| 14> H 	 -60.7537 	 21.4074 	 -118.788
| 15> H 	 -60.5681 	 19.6878 	 -118.369
| 16> C 	 -59.9991 	 21.1609 	 -116.808
| 17> H 	 -60.4104 	 22.0404 	 -116.23
| 18> H 	 -59.8507 	 20.3144 	 -116.052
| 19> C 	 -58.4967 	 21.6344 	 -117.238
| 20> H 	 -58.0264 	 20.9741 	 -117.905
| 21> H 	 -58.443 	 22.5609 	 -117.738
| 22> H 	 -57.8833 	 21.6281 	 -116.386
| 23> S 	 -66.1162 	 19.4542 	 -114.928
| 24> C 	 -66.6833 	 20.1723 	 -113.403
| 25> C 	 -66.248 	 21.4575 	 -113.228
| 26> C 	 -65.3507 	 21.8091 	 -114.326
| 27> C 	 -65.1758 	 20.8864 	 -115.307
| 28> H 	 -66.5164 	 22.0053 	 -112.295
| 29> C 	 -64.5711 	 23.1165 	 -114.345
| 30> H 	 -63.7155 	 22.9832 	 -114.964
| 31> H 	 -64.1526 	 23.208 	 -113.31
| 32> C 	 -65.3941 	 24.4165 	 -114.741
| 33> H 	 -66.1754 	 24.359 	 -113.982
| 34> H 	 -65.806 	 24.2376 	 -115.794
| 35> C 	 -64.3773 	 25.6492 	 -114.777
| 36> H 	 -63.393 	 25.3595 	 -115.197
| 37> H 	 -64.0482 	 25.9443 	 -113.795
| 38> H 	 -64.7635 	 26.6437 	 -115.129
| 39> H 	 -63.0546 	 19.9492 	 -119.669
| 40> H 	 -67.4019 	 19.7658 	 -112.791
| 41> *
| 42>
| 43>                          ****END OF INPUT****

CARTESIAN COORDINATES (ANGSTROEM)
---------------------------------
  S    -64.949000   20.025300  -118.007000
  C    -63.327000   20.149200  -118.668000
  C    -62.408600   20.631500  -117.750000
  C    -63.021600   20.886400  -116.483000
  C    -64.391200   20.786000  -116.480000
  H    -62.515100   21.099300  -115.582000
  C    -60.937600   20.712100  -118.029000
  H    -60.753700   21.407400  -118.788000
  H    -60.568100   19.687800  -118.369000
  C    -59.999100   21.160900  -116.808000
  H    -60.410400   22.040400  -116.230000
  H    -59.850700   20.314400  -116.052000
  C    -58.496700   21.634400  -117.238000
  H    -58.026400   20.974100  -117.905000
  H    -58.443000   22.560900  -117.738000
  H    -57.883300   21.628100  -116.386000
  S    -66.116200   19.454200  -114.928000
  C    -66.683300   20.172300  -113.403000
  C    -66.248000   21.457500  -113.228000
  C    -65.350700   21.809100  -114.326000
  C    -65.175800   20.886400  -115.307000
  H    -66.516400   22.005300  -112.295000
  C    -64.571100   23.116500  -114.345000
  H    -63.715500   22.983200  -114.964000
  H    -64.152600   23.208000  -113.310000
  C    -65.394100   24.416500  -114.741000
  H    -66.175400   24.359000  -113.982000
  H    -65.806000   24.237600  -115.794000
  C    -64.377300   25.649200  -114.777000
  H    -63.393000   25.359500  -115.197000
  H    -64.048200   25.944300  -113.795000
  H    -64.763500   26.643700  -115.129000
  H    -63.054600   19.949200  -119.669000
  H    -67.401900   19.765800  -112.791000

 Total Charge           Charge          ....    0
 Multiplicity           Mult            ....    1
 Number of Electrons    NEL             ....  134
 Basis Dimension        Dim             ....  322

ORBITAL ENERGIES
----------------

  NO   OCC          E(Eh)            E(eV)
   0   2.0000     -88.970487     -2421.0100
   1   2.0000     -88.959607     -2420.7140
   2   2.0000     -10.329130      -281.0699
   3   2.0000     -10.320631      -280.8386
   4   2.0000     -10.312900      -280.6283
   5   2.0000     -10.312492      -280.6172
   6   2.0000     -10.310015      -280.5498
   7   2.0000     -10.302484      -280.3448
   8   2.0000     -10.302374      -280.3418
   9   2.0000     -10.300661      -280.2952
  10   2.0000     -10.300256      -280.2842
  11   2.0000     -10.299926      -280.2752
  12   2.0000     -10.292231      -280.0658
  13   2.0000     -10.287703      -279.9426
  14   2.0000     -10.286255      -279.9032
  15   2.0000     -10.274663      -279.5878
  16   2.0000      -8.084137      -219.9805
  17   2.0000      -8.074345      -219.7141
  18   2.0000      -6.042804      -164.4331
  19   2.0000      -6.038874      -164.3261
  20   2.0000      -6.034715      -164.2130
  21   2.0000      -6.032994      -164.1661
  22   2.0000      -6.028904      -164.0548
  23   2.0000      -6.024884      -163.9454
  24   2.0000      -1.007917       -27.4268
  25   2.0000      -0.980954       -26.6931
  26   2.0000      -0.902321       -24.5534
  27   2.0000      -0.895397       -24.3650
  28   2.0000      -0.874004       -23.7829
  29   2.0000      -0.846507       -23.0346
  30   2.0000      -0.837315       -22.7845
  31   2.0000      -0.821021       -22.3411
  32   2.0000      -0.781458       -21.2646
  33   2.0000      -0.767643       -20.8886
  34   2.0000      -0.718634       -19.5550
  35   2.0000      -0.699641       -19.0382
  36   2.0000      -0.696207       -18.9448
  37   2.0000      -0.662962       -18.0401
  38   2.0000      -0.644339       -17.5334
  39   2.0000      -0.622951       -16.9514
  40   2.0000      -0.589522       -16.0417
  41   2.0000      -0.566907       -15.4263
  42   2.0000      -0.562055       -15.2943
  43   2.0000      -0.552642       -15.0382
  44   2.0000      -0.525362       -14.2958
  45   2.0000      -0.517959       -14.0944
  46   2.0000      -0.513825       -13.9819
  47   2.0000      -0.507974       -13.8227
  48   2.0000      -0.505248       -13.7485
  49   2.0000      -0.503206       -13.6929
  50   2.0000      -0.495775       -13.4907
  51   2.0000      -0.481715       -13.1081
  52   2.0000      -0.466946       -12.7062
  53   2.0000      -0.460750       -12.5376
  54   2.0000      -0.453866       -12.3503
  55   2.0000      -0.451201       -12.2778
  56   2.0000      -0.444795       -12.1035
  57   2.0000      -0.434172       -11.8144
  58   2.0000      -0.430758       -11.7215
  59   2.0000      -0.426608       -11.6086
  60   2.0000      -0.422453       -11.4955
  61   2.0000      -0.421350       -11.4655
  62   2.0000      -0.408089       -11.1047
  63   2.0000      -0.353138        -9.6094
  64   2.0000      -0.330851        -9.0029
  65   2.0000      -0.326315        -8.8795
  66   2.0000      -0.291225        -7.9246
  67   0.0000       0.027221         0.7407
  68   0.0000       0.066633         1.8132
  69   0.0000       0.106127         2.8879
  70   0.0000       0.122316         3.3284
  71   0.0000       0.133480         3.6322

MULLIKEN ATOMIC CHARGES
-----------------------
   0 S :    0.113124
   1 C :   -0.107125
   2 C :   -0.070154
   3 C :    0.019872
   4 C :   -0.123453
   5 H :    0.016997
   6 C :    0.078011
   7 H :    0.028361
   8 H :    0.054692
   9 C :   -0.172417
  10 H :    0.051163
  11 H :    0.052329
  12 C :   -0.009435
  13 H :    0.012579
  14 H :    0.028570
  15 H :    0.023889
  16 S :    0.079704
  17 C :   -0.054903
  18 C :   -0.043038
  19 C :   -0.063230
  20 C :   -0.135738
  21 H :    0.043404
  22 C :    0.023003
  23 H :   -0.004013
  24 H :    0.029234
  25 C :   -0.063243
  26 H :    0.035623
  27 H :    0.056120
  28 C :   -0.048173
  29 H :    0.033715
  30 H :    0.010479
  31 H :    0.047564
  32 H :    0.030500
  33 H :    0.025990
Sum of atomic charges:    0.0000000

LOEWDIN ATOMIC CHARGES
----------------------
   0 S :    0.389072
   1 C :   -0.184296
   2 C :   -0.063858
   3 C :   -0.048555
   4 C :   -0.183084
   5 H :    0.026172
   6 C :   -0.033333
   7 H :    0.025622
   8 H :    0.045158
   9 C :   -0.045428
  10 H :    0.027237
  11 H :    0.030651
  12 C :   -0.058472
  13 H :    0.017802
  14 H :    0.020010
  15 H :    0.022632
  16 S :    0.380114
  17 C :   -0.157318
  18 C :   -0.073865
  19 C :   -0.059750
  20 C :   -0.192694
  21 H :    0.044293
  22 C :   -0.035879
  23 H :    0.014565
  24 H :    0.031632
  25 C :   -0.035413
  26 H :    0.023241
  27 H :    0.036434
  28 C :   -0.079900
  29 H :    0.031217
  30 H :    0.020847
  31 H :    0.032554
  32 H :    0.020679
  33 H :    0.011910

  Mayer bond orders larger than 0.100000
B(  0-S ,  1-C ) :   1.1327 B(  0-S ,  4-C ) :   1.1231 B(  1-C ,  2-C ) :   1.6210
B(  1-C , 32-H ) :   0.9752 B(  2-C ,  3-C ) :   1.2476 B(  2-C ,  6-C ) :   1.0112
B(  3-C ,  4-C ) :   1.5652 B(  3-C ,  5-H ) :   0.9861 B(  4-C , 20-C ) :   1.0663
B(  6-C ,  7-H ) :   0.9395 B(  6-C ,  8-H ) :   0.9402 B(  6-C ,  9-C ) :   1.0645
B(  9-C , 10-H ) :   0.9566 B(  9-C , 11-H ) :   0.9596 B(  9-C , 12-C ) :   1.0684
B( 12-C , 13-H ) :   0.9765 B( 12-C , 14-H ) :   0.9786 B( 12-C , 15-H ) :   0.9761
B( 16-S , 17-C ) :   1.1396 B( 16-S , 20-C ) :   1.1021 B( 17-C , 18-C ) :   1.6582
B( 17-C , 33-H ) :   0.9716 B( 18-C , 19-C ) :   1.1860 B( 18-C , 21-H ) :   0.9849
B( 19-C , 20-C ) :   1.6619 B( 19-C , 22-C ) :   1.0432 B( 22-C , 23-H ) :   0.9347
B( 22-C , 24-H ) :   0.9389 B( 22-C , 25-C ) :   1.0407 B( 25-C , 26-H ) :   0.9638
B( 25-C , 27-H ) :   0.9599 B( 25-C , 28-C ) :   1.0541 B( 28-C , 29-H ) :   0.9743
B( 28-C , 30-H ) :   0.9728 B( 28-C , 31-H ) :   0.9768

Dispersion correction           -0.013641728
FINAL SINGLE POINT ENERGY     -1339.851762229407

DIPOLE MOMENT
-------------
                                X             Y             Z
Electronic contribution:    -22.85887     -20.30990      -3.37092
Nuclear contribution   :     23.50318      20.63858       3.59324
                        -----------------------------------------
Total Dipole Moment    :      0.64430       0.32868       0.22232
                        -----------------------------------------
Magnitude (a.u.)       :      0.75669
Magnitude (Debye)      :      1.92336

Rotational constants in cm-1:     0.015764     0.008892     0.006804
Rotational constants in MHz :   472.607289   266.576593   203.975377

                             ****ORCA TERMINATED NORMALLY****
TOTAL RUN TIME: 0 days 0 hours 0 minutes 20 seconds 62 msec
