                         Program Version 4.2.1 -  RELEASE  -
|  1> ! wB97X-D3 SP def2-SVP
|  2> %pal
|  3> nprocs 24
|  4> end
|  5>
|  6> * xyz 0 1
|  7> S 	 -119.701 	 58.8278 	 -35.7632
|  8> C 	 -121.233 	 58.1135 	 -36.1636
|  9> C 	 -122.267 	 59.0307 	 -36.1051
| 10> C 	 -121.858 	 60.3172 	 -35.573
| 11> C 	 -120.476 	 60.3362 	 -35.3174
| 12> H 	 -122.419 	 61.2469 	 -35.5738
| 13> C 	 -123.772 	 58.7158 	 -36.3796
| 14> H 	 -124.223 	 58.432 	 -35.4192
| 15> H 	 -123.735 	 57.8443 	 -37.0381
| 16> C 	 -124.528 	 59.7856 	 -37.0628
| 17> H 	 -125.546 	 59.3923 	 -37.2497
| 18> H 	 -124.589 	 60.6827 	 -36.3786
| 19> C 	 -123.985 	 60.2634 	 -38.3616
| 20> H 	 -123.833 	 59.5024 	 -39.1266
| 21> H 	 -124.639 	 61.0145 	 -38.7884
| 22> H 	 -123.009 	 60.7094 	 -38.2212
| 23> S 	 -118.261 	 62.0044 	 -35.7196
| 24> C 	 -118.037 	 63.2142 	 -34.5567
| 25> C 	 -118.869 	 63.2206 	 -33.5145
| 26> C 	 -119.836 	 62.1716 	 -33.6473
| 27> C 	 -119.686 	 61.4345 	 -34.8003
| 28> H 	 -118.726 	 63.8949 	 -32.6452
| 29> C 	 -120.95 	 61.9645 	 -32.6969
| 30> H 	 -120.497 	 61.9483 	 -31.63
| 31> H 	 -121.374 	 60.9276 	 -32.8344
| 32> C 	 -122.088 	 63.1101 	 -32.8381
| 33> H 	 -122.407 	 63.0274 	 -33.8068
| 34> H 	 -121.525 	 64.0882 	 -32.7958
| 35> C 	 -123.253 	 62.894 	 -31.8927
| 36> H 	 -123.88 	 63.8123 	 -31.9553
| 37> H 	 -122.944 	 62.9862 	 -30.9138
| 38> H 	 -123.8 	 61.9511 	 -32.0689
| 39> H 	 -121.454 	 57.1677 	 -36.618
| 40> H 	 -117.258 	 63.9264 	 -34.7426
| 41> *
| 42>
| 43>                          ****END OF INPUT****

CARTESIAN COORDINATES (ANGSTROEM)
---------------------------------
  S    -119.701000   58.827800  -35.763200
  C    -121.233000   58.113500  -36.163600
  C    -122.267000   59.030700  -36.105100
  C    -121.858000   60.317200  -35.573000
  C    -120.476000   60.336200  -35.317400
  H    -122.419000   61.246900  -35.573800
  C    -123.772000   58.715800  -36.379600
  H    -124.223000   58.432000  -35.419200
  H    -123.735000   57.844300  -37.038100
  C    -124.528000   59.785600  -37.062800
  H    -125.546000   59.392300  -37.249700
  H    -124.589000   60.682700  -36.378600
  C    -123.985000   60.263400  -38.361600
  H    -123.833000   59.502400  -39.126600
  H    -124.639000   61.014500  -38.788400
  H    -123.009000   60.709400  -38.221200
  S    -118.261000   62.004400  -35.719600
  C    -118.037000   63.214200  -34.556700
  C    -118.869000   63.220600  -33.514500
  C    -119.836000   62.171600  -33.647300
  C    -119.686000   61.434500  -34.800300
  H    -118.726000   63.894900  -32.645200
  C    -120.950000   61.964500  -32.696900
  H    -120.497000   61.948300  -31.630000
  H    -121.374000   60.927600  -32.834400
  C    -122.088000   63.110100  -32.838100
  H    -122.407000   63.027400  -33.806800
  H    -121.525000   64.088200  -32.795800
  C    -123.253000   62.894000  -31.892700
  H    -123.880000   63.812300  -31.955300
  H    -122.944000   62.986200  -30.913800
  H    -123.800000   61.951100  -32.068900
  H    -121.454000   57.167700  -36.618000
  H    -117.258000   63.926400  -34.742600

 Total Charge           Charge          ....    0
 Multiplicity           Mult            ....    1
 Number of Electrons    NEL             ....  134
 Basis Dimension        Dim             ....  322

ORBITAL ENERGIES
----------------

  NO   OCC          E(Eh)            E(eV)
   0   2.0000     -88.967970     -2420.9415
   1   2.0000     -88.961642     -2420.7693
   2   2.0000     -10.330497      -281.1071
   3   2.0000     -10.321694      -280.8676
   4   2.0000     -10.309888      -280.5463
   5   2.0000     -10.309342      -280.5315
   6   2.0000     -10.302291      -280.3396
   7   2.0000     -10.299429      -280.2617
   8   2.0000     -10.297397      -280.2064
   9   2.0000     -10.296771      -280.1894
  10   2.0000     -10.292187      -280.0646
  11   2.0000     -10.291738      -280.0524
  12   2.0000     -10.288516      -279.9647
  13   2.0000     -10.286645      -279.9138
  14   2.0000     -10.276912      -279.6490
  15   2.0000     -10.270316      -279.4695
  16   2.0000      -8.082586      -219.9384
  17   2.0000      -8.077607      -219.8029
  18   2.0000      -6.041121      -164.3873
  19   2.0000      -6.037122      -164.2784
  20   2.0000      -6.035935      -164.2461
  21   2.0000      -6.033326      -164.1751
  22   2.0000      -6.032120      -164.1423
  23   2.0000      -6.028313      -164.0387
  24   2.0000      -1.008816       -27.4513
  25   2.0000      -0.985471       -26.8160
  26   2.0000      -0.919292       -25.0152
  27   2.0000      -0.905063       -24.6280
  28   2.0000      -0.871853       -23.7243
  29   2.0000      -0.856470       -23.3057
  30   2.0000      -0.843189       -22.9443
  31   2.0000      -0.815386       -22.1878
  32   2.0000      -0.786468       -21.4009
  33   2.0000      -0.770511       -20.9667
  34   2.0000      -0.709186       -19.2979
  35   2.0000      -0.699636       -19.0381
  36   2.0000      -0.687840       -18.7171
  37   2.0000      -0.658022       -17.9057
  38   2.0000      -0.635217       -17.2851
  39   2.0000      -0.619553       -16.8589
  40   2.0000      -0.597015       -16.2456
  41   2.0000      -0.566717       -15.4212
  42   2.0000      -0.560179       -15.2433
  43   2.0000      -0.558578       -15.1997
  44   2.0000      -0.543416       -14.7871
  45   2.0000      -0.523166       -14.2361
  46   2.0000      -0.516680       -14.0596
  47   2.0000      -0.513886       -13.9835
  48   2.0000      -0.503871       -13.7110
  49   2.0000      -0.496506       -13.5106
  50   2.0000      -0.489820       -13.3287
  51   2.0000      -0.479983       -13.0610
  52   2.0000      -0.469072       -12.7641
  53   2.0000      -0.463086       -12.6012
  54   2.0000      -0.459441       -12.5020
  55   2.0000      -0.455500       -12.3948
  56   2.0000      -0.446274       -12.1437
  57   2.0000      -0.442800       -12.0492
  58   2.0000      -0.433530       -11.7970
  59   2.0000      -0.423700       -11.5295
  60   2.0000      -0.421729       -11.4758
  61   2.0000      -0.414291       -11.2734
  62   2.0000      -0.408475       -11.1152
  63   2.0000      -0.345929        -9.4132
  64   2.0000      -0.330811        -9.0018
  65   2.0000      -0.329525        -8.9668
  66   2.0000      -0.292440        -7.9577
  67   0.0000       0.034421         0.9366
  68   0.0000       0.070395         1.9155
  69   0.0000       0.114967         3.1284
  70   0.0000       0.121951         3.3184
  71   0.0000       0.129230         3.5165

MULLIKEN ATOMIC CHARGES
-----------------------
   0 S :    0.122364
   1 C :   -0.097851
   2 C :   -0.141127
   3 C :    0.016154
   4 C :   -0.166845
   5 H :    0.029369
   6 C :    0.102360
   7 H :    0.050842
   8 H :    0.008380
   9 C :   -0.102190
  10 H :    0.034088
  11 H :    0.033671
  12 C :   -0.037650
  13 H :    0.023964
  14 H :    0.032045
  15 H :    0.032898
  16 S :    0.103156
  17 C :   -0.073377
  18 C :   -0.031200
  19 C :   -0.022720
  20 C :   -0.166250
  21 H :    0.033708
  22 C :   -0.014440
  23 H :    0.036366
  24 H :    0.043686
  25 C :   -0.062191
  26 H :   -0.000026
  27 H :    0.034699
  28 C :    0.006608
  29 H :    0.030600
  30 H :    0.008226
  31 H :    0.049382
  32 H :    0.035328
  33 H :    0.047972
Sum of atomic charges:    0.0000000

LOEWDIN ATOMIC CHARGES
----------------------
   0 S :    0.413356
   1 C :   -0.210897
   2 C :   -0.060954
   3 C :   -0.069799
   4 C :   -0.186204
   5 H :    0.031815
   6 C :   -0.029825
   7 H :    0.037641
   8 H :    0.026095
   9 C :   -0.053143
  10 H :    0.030517
  11 H :    0.027602
  12 C :   -0.064910
  13 H :    0.023961
  14 H :    0.027765
  15 H :    0.025545
  16 S :    0.400409
  17 C :   -0.182351
  18 C :   -0.081563
  19 C :   -0.052796
  20 C :   -0.198785
  21 H :    0.041871
  22 C :   -0.043641
  23 H :    0.035196
  24 H :    0.033767
  25 C :   -0.029969
  26 H :    0.006722
  27 H :    0.031325
  28 C :   -0.062484
  29 H :    0.034941
  30 H :    0.014309
  31 H :    0.034419
  32 H :    0.027052
  33 H :    0.023013

  Mayer bond orders larger than 0.100000
B(  0-S ,  1-C ) :   1.1278 B(  0-S ,  4-C ) :   1.1603 B(  1-C ,  2-C ) :   1.6471
B(  1-C , 32-H ) :   0.9611 B(  2-C ,  3-C ) :   1.2181 B(  2-C ,  6-C ) :   1.0011
B(  3-C ,  4-C ) :   1.5728 B(  3-C ,  5-H ) :   0.9865 B(  4-C , 20-C ) :   1.0458
B(  6-C ,  7-H ) :   0.9415 B(  6-C ,  8-H ) :   0.9341 B(  6-C ,  9-C ) :   1.0903
B(  9-C , 10-H ) :   0.9493 B(  9-C , 11-H ) :   0.9447 B(  9-C , 12-C ) :   1.0931
B( 12-C , 13-H ) :   0.9717 B( 12-C , 14-H ) :   0.9709 B( 12-C , 15-H ) :   0.9666
B( 16-S , 17-C ) :   1.1688 B( 16-S , 20-C ) :   1.1126 B( 17-C , 18-C ) :   1.6285
B( 17-C , 33-H ) :   0.9637 B( 18-C , 19-C ) :   1.2049 B( 18-C , 21-H ) :   0.9902
B( 19-C , 20-C ) :   1.6271 B( 19-C , 22-C ) :   1.0681 B( 22-C , 23-H ) :   0.9333
B( 22-C , 24-H ) :   0.9314 B( 22-C , 25-C ) :   1.0379 B( 25-C , 26-H ) :   0.9542
B( 25-C , 27-H ) :   0.9568 B( 25-C , 28-C ) :   1.0840 B( 28-C , 29-H ) :   0.9681
B( 28-C , 30-H ) :   0.9713 B( 28-C , 31-H ) :   0.9716

Dispersion correction           -0.014805741
FINAL SINGLE POINT ENERGY     -1339.883024897962

DIPOLE MOMENT
-------------
                                X             Y             Z
Electronic contribution:     27.01687      -5.75591      -4.10862
Nuclear contribution   :    -27.54605       6.05277       4.26696
                        -----------------------------------------
Total Dipole Moment    :     -0.52918       0.29686       0.15834
                        -----------------------------------------
Magnitude (a.u.)       :      0.62708
Magnitude (Debye)      :      1.59392

Rotational constants in cm-1:     0.016729     0.009815     0.007394
Rotational constants in MHz :   501.525217   294.256523   221.662515

                             ****ORCA TERMINATED NORMALLY****
TOTAL RUN TIME: 0 days 0 hours 0 minutes 22 seconds 216 msec
