                         Program Version 4.2.1 -  RELEASE  -
|  1> ! wB97X-D3 SP def2-SVP
|  2> %pal
|  3> nprocs 24
|  4> end
|  5>
|  6> * xyz 0 1
|  7> S 	 -103.375 	 22.1663 	 -123.415
|  8> C 	 -103.295 	 23.2549 	 -122.049
|  9> C 	 -102.186 	 22.9704 	 -121.265
| 10> C 	 -101.425 	 21.9079 	 -121.763
| 11> C 	 -101.962 	 21.2854 	 -122.854
| 12> H 	 -100.632 	 21.4832 	 -121.268
| 13> C 	 -101.777 	 23.7337 	 -120.009
| 14> H 	 -101.248 	 24.6626 	 -120.225
| 15> H 	 -101.046 	 23.0659 	 -119.53
| 16> C 	 -103.014 	 24.08 	 -119.087
| 17> H 	 -103.762 	 24.7313 	 -119.579
| 18> H 	 -103.591 	 23.175 	 -118.802
| 19> C 	 -102.598 	 24.7867 	 -117.742
| 20> H 	 -102.029 	 25.7011 	 -117.792
| 21> H 	 -103.444 	 25.0888 	 -117.089
| 22> H 	 -101.799 	 24.2496 	 -117.21
| 23> S 	 -99.8657 	 19.4552 	 -123.038
| 24> C 	 -99.9185 	 18.0302 	 -124.012
| 25> C 	 -101.098 	 18.1003 	 -124.69
| 26> C 	 -102.026 	 19.1462 	 -124.437
| 27> C 	 -101.462 	 20.0561 	 -123.523
| 28> H 	 -101.338 	 17.1899 	 -125.308
| 29> C 	 -103.4 	 19.2616 	 -125.035
| 30> H 	 -103.372 	 18.5852 	 -125.887
| 31> H 	 -103.581 	 20.2373 	 -125.481
| 32> C 	 -104.624 	 18.7541 	 -124.234
| 33> H 	 -104.399 	 19.0238 	 -123.184
| 34> H 	 -104.712 	 17.6424 	 -124.119
| 35> C 	 -105.882 	 19.4745 	 -124.618
| 36> H 	 -106.041 	 19.3152 	 -125.625
| 37> H 	 -105.936 	 20.5218 	 -124.573
| 38> H 	 -106.762 	 19.1133 	 -124.114
| 39> H 	 -103.937 	 24.1491 	 -121.962
| 40> H 	 -99.232 	 17.1446 	 -124.046
| 41> *
| 42>
| 43>                          ****END OF INPUT****

CARTESIAN COORDINATES (ANGSTROEM)
---------------------------------
  S    -103.375000   22.166300  -123.415000
  C    -103.295000   23.254900  -122.049000
  C    -102.186000   22.970400  -121.265000
  C    -101.425000   21.907900  -121.763000
  C    -101.962000   21.285400  -122.854000
  H    -100.632000   21.483200  -121.268000
  C    -101.777000   23.733700  -120.009000
  H    -101.248000   24.662600  -120.225000
  H    -101.046000   23.065900  -119.530000
  C    -103.014000   24.080000  -119.087000
  H    -103.762000   24.731300  -119.579000
  H    -103.591000   23.175000  -118.802000
  C    -102.598000   24.786700  -117.742000
  H    -102.029000   25.701100  -117.792000
  H    -103.444000   25.088800  -117.089000
  H    -101.799000   24.249600  -117.210000
  S    -99.865700   19.455200  -123.038000
  C    -99.918500   18.030200  -124.012000
  C    -101.098000   18.100300  -124.690000
  C    -102.026000   19.146200  -124.437000
  C    -101.462000   20.056100  -123.523000
  H    -101.338000   17.189900  -125.308000
  C    -103.400000   19.261600  -125.035000
  H    -103.372000   18.585200  -125.887000
  H    -103.581000   20.237300  -125.481000
  C    -104.624000   18.754100  -124.234000
  H    -104.399000   19.023800  -123.184000
  H    -104.712000   17.642400  -124.119000
  C    -105.882000   19.474500  -124.618000
  H    -106.041000   19.315200  -125.625000
  H    -105.936000   20.521800  -124.573000
  H    -106.762000   19.113300  -124.114000
  H    -103.937000   24.149100  -121.962000
  H    -99.232000   17.144600  -124.046000

 Total Charge           Charge          ....    0
 Multiplicity           Mult            ....    1
 Number of Electrons    NEL             ....  134
 Basis Dimension        Dim             ....  322

ORBITAL ENERGIES
----------------

  NO   OCC          E(Eh)            E(eV)
   0   2.0000     -88.970371     -2421.0069
   1   2.0000     -88.964743     -2420.8537
   2   2.0000     -10.336131      -281.2604
   3   2.0000     -10.335114      -281.2328
   4   2.0000     -10.319808      -280.8162
   5   2.0000     -10.316449      -280.7248
   6   2.0000     -10.306293      -280.4485
   7   2.0000     -10.300802      -280.2991
   8   2.0000     -10.300169      -280.2818
   9   2.0000     -10.300143      -280.2811
  10   2.0000     -10.294389      -280.1246
  11   2.0000     -10.291387      -280.0429
  12   2.0000     -10.286844      -279.9192
  13   2.0000     -10.285123      -279.8724
  14   2.0000     -10.281396      -279.7710
  15   2.0000     -10.261016      -279.2164
  16   2.0000      -8.084254      -219.9837
  17   2.0000      -8.079308      -219.8491
  18   2.0000      -6.042807      -164.4331
  19   2.0000      -6.038777      -164.3235
  20   2.0000      -6.037940      -164.3007
  21   2.0000      -6.035142      -164.2246
  22   2.0000      -6.033674      -164.1846
  23   2.0000      -6.030110      -164.0876
  24   2.0000      -1.009577       -27.4720
  25   2.0000      -0.989473       -26.9249
  26   2.0000      -0.911195       -24.7949
  27   2.0000      -0.902728       -24.5645
  28   2.0000      -0.867373       -23.6024
  29   2.0000      -0.856505       -23.3067
  30   2.0000      -0.848959       -23.1014
  31   2.0000      -0.812938       -22.1212
  32   2.0000      -0.784576       -21.3494
  33   2.0000      -0.772188       -21.0123
  34   2.0000      -0.713362       -19.4116
  35   2.0000      -0.706455       -19.2236
  36   2.0000      -0.693778       -18.8787
  37   2.0000      -0.664478       -18.0814
  38   2.0000      -0.640385       -17.4258
  39   2.0000      -0.616345       -16.7716
  40   2.0000      -0.597199       -16.2506
  41   2.0000      -0.568723       -15.4757
  42   2.0000      -0.556660       -15.1475
  43   2.0000      -0.552993       -15.0477
  44   2.0000      -0.528121       -14.3709
  45   2.0000      -0.524788       -14.2802
  46   2.0000      -0.522564       -14.2197
  47   2.0000      -0.515318       -14.0225
  48   2.0000      -0.503781       -13.7086
  49   2.0000      -0.498645       -13.5688
  50   2.0000      -0.497439       -13.5360
  51   2.0000      -0.483864       -13.1666
  52   2.0000      -0.476174       -12.9574
  53   2.0000      -0.462458       -12.5841
  54   2.0000      -0.459186       -12.4951
  55   2.0000      -0.452565       -12.3149
  56   2.0000      -0.447462       -12.1760
  57   2.0000      -0.435180       -11.8418
  58   2.0000      -0.433860       -11.8059
  59   2.0000      -0.425801       -11.5866
  60   2.0000      -0.416557       -11.3351
  61   2.0000      -0.414471       -11.2783
  62   2.0000      -0.394020       -10.7218
  63   2.0000      -0.364104        -9.9078
  64   2.0000      -0.336336        -9.1522
  65   2.0000      -0.330215        -8.9856
  66   2.0000      -0.283932        -7.7262
  67   0.0000       0.016361         0.4452
  68   0.0000       0.087406         2.3784
  69   0.0000       0.114633         3.1193
  70   0.0000       0.123177         3.3518
  71   0.0000       0.130926         3.5627

MULLIKEN ATOMIC CHARGES
-----------------------
   0 S :    0.100602
   1 C :   -0.139071
   2 C :   -0.072142
   3 C :    0.015149
   4 C :   -0.099006
   5 H :   -0.017026
   6 C :    0.076533
   7 H :    0.046855
   8 H :    0.024837
   9 C :   -0.099272
  10 H :    0.037433
  11 H :    0.046594
  12 C :   -0.064712
  13 H :    0.012041
  14 H :    0.045051
  15 H :    0.023579
  16 S :    0.075378
  17 C :   -0.096616
  18 C :   -0.060655
  19 C :   -0.059241
  20 C :   -0.114843
  21 H :    0.027864
  22 C :    0.046820
  23 H :    0.014892
  24 H :    0.039370
  25 C :   -0.063901
  26 H :    0.023777
  27 H :    0.037631
  28 C :    0.012343
  29 H :   -0.001937
  30 H :    0.014643
  31 H :    0.023200
  32 H :    0.062795
  33 H :    0.081034
Sum of atomic charges:    0.0000000

LOEWDIN ATOMIC CHARGES
----------------------
   0 S :    0.418617
   1 C :   -0.203739
   2 C :   -0.061883
   3 C :   -0.065774
   4 C :   -0.176449
   5 H :    0.013526
   6 C :   -0.026331
   7 H :    0.034878
   8 H :    0.031648
   9 C :   -0.039112
  10 H :    0.024700
  11 H :    0.031266
  12 C :   -0.085042
  13 H :    0.020825
  14 H :    0.032021
  15 H :    0.026722
  16 S :    0.406148
  17 C :   -0.208249
  18 C :   -0.083268
  19 C :   -0.067436
  20 C :   -0.175973
  21 H :    0.035048
  22 C :   -0.040853
  23 H :    0.033779
  24 H :    0.027764
  25 C :   -0.043142
  26 H :    0.022002
  27 H :    0.031762
  28 C :   -0.059546
  29 H :    0.014516
  30 H :    0.018280
  31 H :    0.027857
  32 H :    0.034083
  33 H :    0.051355

  Mayer bond orders larger than 0.100000
B(  0-S ,  1-C ) :   1.1380 B(  0-S ,  4-C ) :   1.1506 B(  1-C ,  2-C ) :   1.5891
B(  1-C , 32-H ) :   0.9659 B(  2-C ,  3-C ) :   1.2836 B(  2-C ,  6-C ) :   1.0134
B(  3-C ,  4-C ) :   1.5515 B(  3-C ,  5-H ) :   0.9966 B(  4-C , 20-C ) :   1.0687
B(  6-C ,  7-H ) :   0.9374 B(  6-C ,  8-H ) :   0.9461 B(  6-C ,  9-C ) :   1.0530
B(  9-C , 10-H ) :   0.9560 B(  9-C , 11-H ) :   0.9620 B(  9-C , 12-C ) :   1.0714
B( 12-C , 13-H ) :   0.9719 B( 12-C , 14-H ) :   0.9762 B( 12-C , 15-H ) :   0.9735
B( 16-S , 17-C ) :   1.1418 B( 16-S , 20-C ) :   1.1557 B( 17-C , 18-C ) :   1.6088
B( 17-C , 33-H ) :   0.9608 B( 18-C , 19-C ) :   1.2796 B( 18-C , 21-H ) :   0.9721
B( 19-C , 20-C ) :   1.5323 B( 19-C , 22-C ) :   1.0493 B( 22-C , 23-H ) :   0.9141
B( 22-C , 24-H ) :   0.9436 B( 22-C , 25-C ) :   1.0389 B( 25-C , 26-H ) :   0.9616
B( 25-C , 27-H ) :   0.9537 B( 25-C , 28-C ) :   1.0793 B( 28-C , 29-H ) :   0.9675
B( 28-C , 30-H ) :   0.9722 B( 28-C , 31-H ) :   0.9681

Dispersion correction           -0.014014670
FINAL SINGLE POINT ENERGY     -1339.870209699751

DIPOLE MOMENT
-------------
                                X             Y             Z
Electronic contribution:     14.25828      -6.32775     -11.26122
Nuclear contribution   :    -14.43410       6.30957      11.44258
                        -----------------------------------------
Total Dipole Moment    :     -0.17582      -0.01818       0.18136
                        -----------------------------------------
Magnitude (a.u.)       :      0.25324
Magnitude (Debye)      :      0.64370

Rotational constants in cm-1:     0.020480     0.007921     0.006135
Rotational constants in MHz :   613.974191   237.453261   183.915041

                             ****ORCA TERMINATED NORMALLY****
TOTAL RUN TIME: 0 days 0 hours 0 minutes 22 seconds 54 msec
