                         Program Version 4.2.1 -  RELEASE  -
|  1> ! wB97X-D3 SP def2-SVP
|  2> %pal
|  3> nprocs 24
|  4> end
|  5>
|  6> * xyz 0 1
|  7> S 	 -89.0708 	 -47.3958 	 -78.1525
|  8> C 	 -88.8203 	 -47.017 	 -76.5005
|  9> C 	 -88.9142 	 -48.1803 	 -75.6903
| 10> C 	 -89.2829 	 -49.3233 	 -76.4952
| 11> C 	 -89.2797 	 -49.0973 	 -77.8462
| 12> H 	 -89.279 	 -50.2993 	 -76.0674
| 13> C 	 -88.7976 	 -48.2133 	 -74.1881
| 14> H 	 -89.3709 	 -49.1208 	 -73.849
| 15> H 	 -89.3528 	 -47.3596 	 -73.8325
| 16> C 	 -87.3633 	 -48.2184 	 -73.5824
| 17> H 	 -87.4019 	 -48.2439 	 -72.438
| 18> H 	 -86.961 	 -49.1578 	 -74.03
| 19> C 	 -86.4856 	 -47.1161 	 -74.0015
| 20> H 	 -86.8544 	 -46.2183 	 -73.4855
| 21> H 	 -85.4923 	 -47.2281 	 -73.6231
| 22> H 	 -86.4023 	 -47.0955 	 -75.116
| 23> S 	 -91.1388 	 -50.1421 	 -79.6426
| 24> C 	 -90.7857 	 -51.6168 	 -80.5885
| 25> C 	 -89.4785 	 -51.9994 	 -80.3841
| 26> C 	 -88.7879 	 -51.1408 	 -79.3986
| 27> C 	 -89.5203 	 -50.0587 	 -78.9467
| 28> H 	 -89.1381 	 -52.8994 	 -80.9213
| 29> C 	 -87.3285 	 -51.395 	 -78.9851
| 30> H 	 -87.1752 	 -52.3432 	 -78.4608
| 31> H 	 -87.1788 	 -50.6284 	 -78.1413
| 32> C 	 -86.346 	 -51.1095 	 -80.0389
| 33> H 	 -86.1349 	 -51.8849 	 -80.8281
| 34> H 	 -85.3965 	 -51.2495 	 -79.5249
| 35> C 	 -86.3978 	 -49.7524 	 -80.6803
| 36> H 	 -85.5112 	 -49.5741 	 -81.294
| 37> H 	 -86.5186 	 -48.9964 	 -79.8753
| 38> H 	 -87.3258 	 -49.5712 	 -81.261
| 39> H 	 -88.6126 	 -46.0428 	 -76.2249
| 40> H 	 -91.4457 	 -52.043 	 -81.346
| 41> *
| 42>
| 43>                          ****END OF INPUT****

CARTESIAN COORDINATES (ANGSTROEM)
---------------------------------
  S    -89.070800  -47.395800  -78.152500
  C    -88.820300  -47.017000  -76.500500
  C    -88.914200  -48.180300  -75.690300
  C    -89.282900  -49.323300  -76.495200
  C    -89.279700  -49.097300  -77.846200
  H    -89.279000  -50.299300  -76.067400
  C    -88.797600  -48.213300  -74.188100
  H    -89.370900  -49.120800  -73.849000
  H    -89.352800  -47.359600  -73.832500
  C    -87.363300  -48.218400  -73.582400
  H    -87.401900  -48.243900  -72.438000
  H    -86.961000  -49.157800  -74.030000
  C    -86.485600  -47.116100  -74.001500
  H    -86.854400  -46.218300  -73.485500
  H    -85.492300  -47.228100  -73.623100
  H    -86.402300  -47.095500  -75.116000
  S    -91.138800  -50.142100  -79.642600
  C    -90.785700  -51.616800  -80.588500
  C    -89.478500  -51.999400  -80.384100
  C    -88.787900  -51.140800  -79.398600
  C    -89.520300  -50.058700  -78.946700
  H    -89.138100  -52.899400  -80.921300
  C    -87.328500  -51.395000  -78.985100
  H    -87.175200  -52.343200  -78.460800
  H    -87.178800  -50.628400  -78.141300
  C    -86.346000  -51.109500  -80.038900
  H    -86.134900  -51.884900  -80.828100
  H    -85.396500  -51.249500  -79.524900
  C    -86.397800  -49.752400  -80.680300
  H    -85.511200  -49.574100  -81.294000
  H    -86.518600  -48.996400  -79.875300
  H    -87.325800  -49.571200  -81.261000
  H    -88.612600  -46.042800  -76.224900
  H    -91.445700  -52.043000  -81.346000

 Total Charge           Charge          ....    0
 Multiplicity           Mult            ....    1
 Number of Electrons    NEL             ....  134
 Basis Dimension        Dim             ....  322

ORBITAL ENERGIES
----------------

  NO   OCC          E(Eh)            E(eV)
   0   2.0000     -88.968105     -2420.9452
   1   2.0000     -88.960152     -2420.7288
   2   2.0000     -10.332144      -281.1519
   3   2.0000     -10.329942      -281.0920
   4   2.0000     -10.322617      -280.8927
   5   2.0000     -10.314830      -280.6808
   6   2.0000     -10.309241      -280.5287
   7   2.0000     -10.307458      -280.4802
   8   2.0000     -10.300886      -280.3014
   9   2.0000     -10.296104      -280.1712
  10   2.0000     -10.295145      -280.1451
  11   2.0000     -10.292973      -280.0860
  12   2.0000     -10.292779      -280.0807
  13   2.0000     -10.279878      -279.7297
  14   2.0000     -10.274925      -279.5949
  15   2.0000     -10.273009      -279.5428
  16   2.0000      -8.083550      -219.9646
  17   2.0000      -8.074410      -219.7159
  18   2.0000      -6.041864      -164.4075
  19   2.0000      -6.037738      -164.2952
  20   2.0000      -6.034686      -164.2122
  21   2.0000      -6.033091      -164.1688
  22   2.0000      -6.028937      -164.0557
  23   2.0000      -6.025037      -163.9496
  24   2.0000      -1.005933       -27.3728
  25   2.0000      -0.980601       -26.6835
  26   2.0000      -0.914874       -24.8950
  27   2.0000      -0.912505       -24.8305
  28   2.0000      -0.869801       -23.6685
  29   2.0000      -0.855303       -23.2740
  30   2.0000      -0.836647       -22.7663
  31   2.0000      -0.818884       -22.2830
  32   2.0000      -0.783059       -21.3081
  33   2.0000      -0.773061       -21.0361
  34   2.0000      -0.703632       -19.1468
  35   2.0000      -0.690186       -18.7809
  36   2.0000      -0.689353       -18.7583
  37   2.0000      -0.652784       -17.7632
  38   2.0000      -0.649699       -17.6792
  39   2.0000      -0.620744       -16.8913
  40   2.0000      -0.589349       -16.0370
  41   2.0000      -0.577305       -15.7093
  42   2.0000      -0.561705       -15.2848
  43   2.0000      -0.554763       -15.0959
  44   2.0000      -0.547167       -14.8892
  45   2.0000      -0.532137       -14.4802
  46   2.0000      -0.515715       -14.0333
  47   2.0000      -0.514687       -14.0053
  48   2.0000      -0.504288       -13.7224
  49   2.0000      -0.498252       -13.5581
  50   2.0000      -0.492126       -13.3914
  51   2.0000      -0.477720       -12.9994
  52   2.0000      -0.468804       -12.7568
  53   2.0000      -0.463845       -12.6219
  54   2.0000      -0.452699       -12.3186
  55   2.0000      -0.445911       -12.1339
  56   2.0000      -0.445305       -12.1174
  57   2.0000      -0.438175       -11.9233
  58   2.0000      -0.434904       -11.8343
  59   2.0000      -0.420592       -11.4449
  60   2.0000      -0.414529       -11.2799
  61   2.0000      -0.410482       -11.1698
  62   2.0000      -0.388598       -10.5743
  63   2.0000      -0.341976        -9.3056
  64   2.0000      -0.329839        -8.9754
  65   2.0000      -0.322431        -8.7738
  66   2.0000      -0.310122        -8.4389
  67   0.0000       0.040300         1.0966
  68   0.0000       0.056662         1.5419
  69   0.0000       0.112740         3.0678
  70   0.0000       0.123030         3.3478
  71   0.0000       0.126800         3.4504

MULLIKEN ATOMIC CHARGES
-----------------------
   0 S :    0.124784
   1 C :   -0.092259
   2 C :   -0.141397
   3 C :    0.083635
   4 C :   -0.194719
   5 H :    0.008844
   6 C :    0.059807
   7 H :    0.034333
   8 H :    0.025981
   9 C :   -0.085876
  10 H :    0.046356
  11 H :    0.022897
  12 C :   -0.040852
  13 H :    0.023795
  14 H :    0.027143
  15 H :    0.051172
  16 S :    0.087084
  17 C :   -0.104646
  18 C :   -0.026402
  19 C :   -0.061167
  20 C :   -0.131171
  21 H :    0.035437
  22 C :    0.052723
  23 H :    0.035140
  24 H :    0.033576
  25 C :   -0.067998
  26 H :    0.023593
  27 H :    0.015128
  28 C :   -0.046108
  29 H :    0.041216
  30 H :    0.017305
  31 H :    0.045509
  32 H :    0.028326
  33 H :    0.068810
Sum of atomic charges:    0.0000000

LOEWDIN ATOMIC CHARGES
----------------------
   0 S :    0.436990
   1 C :   -0.191676
   2 C :   -0.063353
   3 C :   -0.053243
   4 C :   -0.207401
   5 H :    0.029190
   6 C :   -0.038458
   7 H :    0.037975
   8 H :    0.026854
   9 C :   -0.046763
  10 H :    0.033172
  11 H :    0.024424
  12 C :   -0.072560
  13 H :    0.025716
  14 H :    0.024444
  15 H :    0.033369
  16 S :    0.377825
  17 C :   -0.171324
  18 C :   -0.075550
  19 C :   -0.052152
  20 C :   -0.204157
  21 H :    0.039012
  22 C :   -0.038549
  23 H :    0.033201
  24 H :    0.039148
  25 C :   -0.059647
  26 H :    0.025516
  27 H :    0.026681
  28 C :   -0.067753
  29 H :    0.029005
  30 H :    0.023650
  31 H :    0.030226
  32 H :    0.011324
  33 H :    0.034866

  Mayer bond orders larger than 0.100000
B(  0-S ,  1-C ) :   1.1764 B(  0-S ,  4-C ) :   1.1722 B(  1-C ,  2-C ) :   1.5478
B(  1-C ,  4-C ) :   0.1003 B(  1-C , 32-H ) :   0.9842 B(  2-C ,  3-C ) :   1.2780
B(  2-C ,  6-C ) :   1.0161 B(  3-C ,  4-C ) :   1.5662 B(  3-C ,  5-H ) :   0.9927
B(  4-C , 20-C ) :   0.9866 B(  6-C ,  7-H ) :   0.9450 B(  6-C ,  8-H ) :   0.9420
B(  6-C ,  9-C ) :   1.0534 B(  9-C , 10-H ) :   0.9547 B(  9-C , 11-H ) :   0.9519
B(  9-C , 12-C ) :   1.1028 B( 12-C , 13-H ) :   0.9711 B( 12-C , 14-H ) :   0.9671
B( 12-C , 15-H ) :   0.9632 B( 16-S , 17-C ) :   1.1427 B( 16-S , 20-C ) :   1.1275
B( 17-C , 18-C ) :   1.6456 B( 17-C , 33-H ) :   0.9642 B( 18-C , 19-C ) :   1.1890
B( 18-C , 21-H ) :   0.9893 B( 19-C , 20-C ) :   1.6424 B( 19-C , 22-C ) :   1.0366
B( 22-C , 23-H ) :   0.9358 B( 22-C , 24-H ) :   0.9301 B( 22-C , 25-C ) :   1.0874
B( 25-C , 26-H ) :   0.9458 B( 25-C , 27-H ) :   0.9441 B( 25-C , 28-C ) :   1.0802
B( 28-C , 29-H ) :   0.9713 B( 28-C , 30-H ) :   0.9700 B( 28-C , 31-H ) :   0.9678

Dispersion correction           -0.015368496
FINAL SINGLE POINT ENERGY     -1339.878596032170

DIPOLE MOMENT
-------------
                                X             Y             Z
Electronic contribution:    -20.60210       1.00083     -11.69564
Nuclear contribution   :     21.05608      -1.28443      12.05547
                        -----------------------------------------
Total Dipole Moment    :      0.45398      -0.28360       0.35983
                        -----------------------------------------
Magnitude (a.u.)       :      0.64499
Magnitude (Debye)      :      1.63943

Rotational constants in cm-1:     0.021937     0.008194     0.007226
Rotational constants in MHz :   657.659541   245.651373   216.639473

                             ****ORCA TERMINATED NORMALLY****
TOTAL RUN TIME: 0 days 0 hours 0 minutes 22 seconds 106 msec
