                         Program Version 4.2.1 -  RELEASE  -
|  1> ! wB97X-D3 SP def2-SVP
|  2> %pal
|  3> nprocs 24
|  4> end
|  5>
|  6> * xyz 0 1
|  7> S 	 -91.215 	 -26.3453 	 -67.6193
|  8> C 	 -92.9345 	 -26.6819 	 -67.9946
|  9> C 	 -93.5846 	 -27.5032 	 -67.123
| 10> C 	 -92.6106 	 -27.9665 	 -66.1405
| 11> C 	 -91.3584 	 -27.3334 	 -66.2099
| 12> H 	 -92.7934 	 -28.7117 	 -65.4176
| 13> C 	 -95.0256 	 -27.9664 	 -67.0747
| 14> H 	 -95.0655 	 -28.7107 	 -66.3149
| 15> H 	 -95.4316 	 -28.5159 	 -67.9607
| 16> C 	 -96.065 	 -26.8375 	 -66.9067
| 17> H 	 -95.8356 	 -26.0149 	 -67.6628
| 18> H 	 -97.0373 	 -27.3683 	 -67.107
| 19> C 	 -95.9941 	 -26.1952 	 -65.4864
| 20> H 	 -96.6805 	 -25.3639 	 -65.2945
| 21> H 	 -96.2032 	 -26.8311 	 -64.5866
| 22> H 	 -95.0373 	 -25.6981 	 -65.2987
| 23> S 	 -89.1376 	 -28.9208 	 -66.0088
| 24> C 	 -88.1862 	 -28.7639 	 -64.6107
| 25> C 	 -88.5279 	 -27.7178 	 -63.8068
| 26> C 	 -89.6702 	 -27.0181 	 -64.3078
| 27> C 	 -90.2239 	 -27.69 	 -65.3532
| 28> H 	 -87.9905 	 -27.4364 	 -62.8844
| 29> C 	 -90.267 	 -25.7504 	 -63.6821
| 30> H 	 -90.8032 	 -25.9074 	 -62.7649
| 31> H 	 -91.0935 	 -25.4234 	 -64.2961
| 32> C 	 -89.1184 	 -24.7571 	 -63.5458
| 33> H 	 -88.6336 	 -24.4035 	 -64.4593
| 34> H 	 -88.2042 	 -25.0892 	 -63.0007
| 35> C 	 -89.7007 	 -23.482 	 -62.797
| 36> H 	 -89.0812 	 -22.6009 	 -62.9594
| 37> H 	 -89.7112 	 -23.4839 	 -61.6577
| 38> H 	 -90.6967 	 -23.3157 	 -63.2638
| 39> H 	 -93.4007 	 -26.2742 	 -68.9268
| 40> H 	 -87.4004 	 -29.365 	 -64.3135
| 41> *
| 42>
| 43>                          ****END OF INPUT****

CARTESIAN COORDINATES (ANGSTROEM)
---------------------------------
  S    -91.215000  -26.345300  -67.619300
  C    -92.934500  -26.681900  -67.994600
  C    -93.584600  -27.503200  -67.123000
  C    -92.610600  -27.966500  -66.140500
  C    -91.358400  -27.333400  -66.209900
  H    -92.793400  -28.711700  -65.417600
  C    -95.025600  -27.966400  -67.074700
  H    -95.065500  -28.710700  -66.314900
  H    -95.431600  -28.515900  -67.960700
  C    -96.065000  -26.837500  -66.906700
  H    -95.835600  -26.014900  -67.662800
  H    -97.037300  -27.368300  -67.107000
  C    -95.994100  -26.195200  -65.486400
  H    -96.680500  -25.363900  -65.294500
  H    -96.203200  -26.831100  -64.586600
  H    -95.037300  -25.698100  -65.298700
  S    -89.137600  -28.920800  -66.008800
  C    -88.186200  -28.763900  -64.610700
  C    -88.527900  -27.717800  -63.806800
  C    -89.670200  -27.018100  -64.307800
  C    -90.223900  -27.690000  -65.353200
  H    -87.990500  -27.436400  -62.884400
  C    -90.267000  -25.750400  -63.682100
  H    -90.803200  -25.907400  -62.764900
  H    -91.093500  -25.423400  -64.296100
  C    -89.118400  -24.757100  -63.545800
  H    -88.633600  -24.403500  -64.459300
  H    -88.204200  -25.089200  -63.000700
  C    -89.700700  -23.482000  -62.797000
  H    -89.081200  -22.600900  -62.959400
  H    -89.711200  -23.483900  -61.657700
  H    -90.696700  -23.315700  -63.263800
  H    -93.400700  -26.274200  -68.926800
  H    -87.400400  -29.365000  -64.313500

 Total Charge           Charge          ....    0
 Multiplicity           Mult            ....    1
 Number of Electrons    NEL             ....  134
 Basis Dimension        Dim             ....  322

ORBITAL ENERGIES
----------------

  NO   OCC          E(Eh)            E(eV)
   0   2.0000     -88.967807     -2420.9371
   1   2.0000     -88.961683     -2420.7705
   2   2.0000     -10.324193      -280.9356
   3   2.0000     -10.318160      -280.7714
   4   2.0000     -10.316756      -280.7332
   5   2.0000     -10.304566      -280.4015
   6   2.0000     -10.303277      -280.3664
   7   2.0000     -10.302896      -280.3561
   8   2.0000     -10.297947      -280.2214
   9   2.0000     -10.295506      -280.1550
  10   2.0000     -10.292631      -280.0767
  11   2.0000     -10.291910      -280.0571
  12   2.0000     -10.290891      -280.0294
  13   2.0000     -10.288913      -279.9756
  14   2.0000     -10.283759      -279.8353
  15   2.0000     -10.280164      -279.7375
  16   2.0000      -8.082205      -219.9280
  17   2.0000      -8.077418      -219.7977
  18   2.0000      -6.040696      -164.3757
  19   2.0000      -6.036871      -164.2716
  20   2.0000      -6.035777      -164.2418
  21   2.0000      -6.032889      -164.1633
  22   2.0000      -6.032031      -164.1399
  23   2.0000      -6.028034      -164.0311
  24   2.0000      -1.007422       -27.4133
  25   2.0000      -0.982991       -26.7485
  26   2.0000      -0.910094       -24.7649
  27   2.0000      -0.907473       -24.6936
  28   2.0000      -0.863810       -23.5055
  29   2.0000      -0.844472       -22.9793
  30   2.0000      -0.841917       -22.9097
  31   2.0000      -0.806278       -21.9399
  32   2.0000      -0.784658       -21.3516
  33   2.0000      -0.771685       -20.9986
  34   2.0000      -0.705223       -19.1901
  35   2.0000      -0.704337       -19.1660
  36   2.0000      -0.694219       -18.8907
  37   2.0000      -0.654314       -17.8048
  38   2.0000      -0.639618       -17.4049
  39   2.0000      -0.610643       -16.6164
  40   2.0000      -0.601781       -16.3753
  41   2.0000      -0.573768       -15.6130
  42   2.0000      -0.550684       -14.9849
  43   2.0000      -0.541661       -14.7393
  44   2.0000      -0.536134       -14.5890
  45   2.0000      -0.529218       -14.4008
  46   2.0000      -0.513850       -13.9826
  47   2.0000      -0.508526       -13.8377
  48   2.0000      -0.504634       -13.7318
  49   2.0000      -0.490854       -13.3568
  50   2.0000      -0.483841       -13.1660
  51   2.0000      -0.473167       -12.8755
  52   2.0000      -0.463863       -12.6224
  53   2.0000      -0.460992       -12.5442
  54   2.0000      -0.455726       -12.4009
  55   2.0000      -0.450331       -12.2541
  56   2.0000      -0.444306       -12.0902
  57   2.0000      -0.443710       -12.0740
  58   2.0000      -0.430324       -11.7097
  59   2.0000      -0.425422       -11.5763
  60   2.0000      -0.420897       -11.4532
  61   2.0000      -0.417924       -11.3723
  62   2.0000      -0.407586       -11.0910
  63   2.0000      -0.334963        -9.1148
  64   2.0000      -0.326667        -8.8891
  65   2.0000      -0.316601        -8.6152
  66   2.0000      -0.313511        -8.5311
  67   0.0000       0.047904         1.3035
  68   0.0000       0.055678         1.5151
  69   0.0000       0.112189         3.0528
  70   0.0000       0.117385         3.1942
  71   0.0000       0.123491         3.3604

MULLIKEN ATOMIC CHARGES
-----------------------
   0 S :    0.122467
   1 C :   -0.167505
   2 C :   -0.042103
   3 C :    0.031647
   4 C :   -0.184002
   5 H :   -0.001468
   6 C :    0.075951
   7 H :    0.009205
   8 H :    0.040830
   9 C :   -0.084435
  10 H :    0.051085
  11 H :    0.043723
  12 C :   -0.081129
  13 H :    0.026250
  14 H :    0.033920
  15 H :    0.038581
  16 S :    0.119507
  17 C :   -0.040216
  18 C :   -0.051348
  19 C :   -0.029336
  20 C :   -0.190361
  21 H :    0.026370
  22 C :    0.128369
  23 H :    0.032392
  24 H :    0.024196
  25 C :   -0.117917
  26 H :    0.036962
  27 H :    0.035739
  28 C :   -0.076444
  29 H :    0.024140
  30 H :    0.045822
  31 H :    0.038651
  32 H :    0.059295
  33 H :    0.021162
Sum of atomic charges:    0.0000000

LOEWDIN ATOMIC CHARGES
----------------------
   0 S :    0.398026
   1 C :   -0.186407
   2 C :   -0.064107
   3 C :   -0.048243
   4 C :   -0.214293
   5 H :    0.022022
   6 C :   -0.034963
   7 H :    0.024458
   8 H :    0.038854
   9 C :   -0.038339
  10 H :    0.035665
  11 H :    0.030757
  12 C :   -0.085305
  13 H :    0.024408
  14 H :    0.028812
  15 H :    0.028489
  16 S :    0.414329
  17 C :   -0.184853
  18 C :   -0.075206
  19 C :   -0.047797
  20 C :   -0.202246
  21 H :    0.034765
  22 C :   -0.025376
  23 H :    0.033221
  24 H :    0.031575
  25 C :   -0.042592
  26 H :    0.029047
  27 H :    0.026886
  28 C :   -0.078414
  29 H :    0.020985
  30 H :    0.031246
  31 H :    0.028086
  32 H :    0.031530
  33 H :    0.014978

  Mayer bond orders larger than 0.100000
B(  0-S ,  1-C ) :   1.1327 B(  0-S ,  4-C ) :   1.1454 B(  1-C ,  2-C ) :   1.6396
B(  1-C , 32-H ) :   0.9571 B(  2-C ,  3-C ) :   1.2147 B(  2-C ,  6-C ) :   1.0140
B(  3-C ,  4-C ) :   1.5975 B(  3-C ,  5-H ) :   0.9956 B(  4-C , 20-C ) :   1.0186
B(  6-C ,  7-H ) :   0.9400 B(  6-C ,  8-H ) :   0.9422 B(  6-C ,  9-C ) :   1.0605
B(  9-C , 10-H ) :   0.9576 B(  9-C , 11-H ) :   0.9589 B(  9-C , 12-C ) :   1.0624
B( 12-C , 13-H ) :   0.9755 B( 12-C , 14-H ) :   0.9767 B( 12-C , 15-H ) :   0.9749
B( 16-S , 17-C ) :   1.1581 B( 16-S , 20-C ) :   1.1335 B( 17-C , 18-C ) :   1.6346
B( 17-C , 33-H ) :   0.9687 B( 18-C , 19-C ) :   1.2158 B( 18-C , 21-H ) :   0.9852
B( 19-C , 20-C ) :   1.6428 B( 19-C , 22-C ) :   1.0364 B( 22-C , 23-H ) :   0.9413
B( 22-C , 24-H ) :   0.9225 B( 22-C , 25-C ) :   1.0380 B( 25-C , 26-H ) :   0.9585
B( 25-C , 27-H ) :   0.9613 B( 25-C , 28-C ) :   1.0679 B( 28-C , 29-H ) :   0.9758
B( 28-C , 30-H ) :   0.9772 B( 28-C , 31-H ) :   0.9741

Dispersion correction           -0.014173824
FINAL SINGLE POINT ENERGY     -1339.864384563655

DIPOLE MOMENT
-------------
                                X             Y             Z
Electronic contribution:     15.93559     -14.23642     -13.27659
Nuclear contribution   :    -16.22346      14.35784      13.58312
                        -----------------------------------------
Total Dipole Moment    :     -0.28787       0.12143       0.30653
                        -----------------------------------------
Magnitude (a.u.)       :      0.43769
Magnitude (Debye)      :      1.11253

Rotational constants in cm-1:     0.018513     0.008430     0.006843
Rotational constants in MHz :   554.991115   252.726385   205.162142

                             ****ORCA TERMINATED NORMALLY****
TOTAL RUN TIME: 0 days 0 hours 0 minutes 21 seconds 305 msec
