                         Program Version 4.2.1 -  RELEASE  -
|  1> ! wB97X-D3 SP def2-SVP
|  2> %pal
|  3> nprocs 24
|  4> end
|  5>
|  6> * xyz 0 1
|  7> S 	 -70.8374 	 9.48008 	 -71.7814
|  8> C 	 -72.3918 	 9.87606 	 -72.7064
|  9> C 	 -72.2996 	 9.21087 	 -73.8735
| 10> C 	 -71.0454 	 8.45621 	 -74.1123
| 11> C 	 -70.245 	 8.42026 	 -73.0295
| 12> H 	 -70.8192 	 7.92765 	 -75.0379
| 13> C 	 -73.4821 	 9.28115 	 -74.8941
| 14> H 	 -73.9048 	 10.2792 	 -75.1614
| 15> H 	 -74.2584 	 8.78827 	 -74.3491
| 16> C 	 -73.2005 	 8.60413 	 -76.2542
| 17> H 	 -72.437 	 7.85246 	 -76.1217
| 18> H 	 -74.0308 	 8.00001 	 -76.5647
| 19> C 	 -72.652 	 9.46077 	 -77.4205
| 20> H 	 -73.5203 	 9.9934 	 -77.7926
| 21> H 	 -72.0382 	 10.2288 	 -77.0083
| 22> H 	 -72.178 	 8.9302 	 -78.2485
| 23> S 	 -67.4675 	 8.89073 	 -72.7898
| 24> C 	 -66.3416 	 7.53611 	 -72.803
| 25> C 	 -67.0352 	 6.33194 	 -72.8829
| 26> C 	 -68.4921 	 6.52319 	 -72.9735
| 27> C 	 -68.9262 	 7.80611 	 -72.9186
| 28> H 	 -66.5451 	 5.36539 	 -73.0209
| 29> C 	 -69.475 	 5.35225 	 -73.0493
| 30> H 	 -68.9426 	 4.4359 	 -73.3862
| 31> H 	 -70.2365 	 5.59347 	 -73.7598
| 32> C 	 -70.2413 	 4.89304 	 -71.7647
| 33> H 	 -70.7559 	 5.77594 	 -71.4141
| 34> H 	 -69.4854 	 4.68818 	 -71.0187
| 35> C 	 -71.2628 	 3.78956 	 -71.8713
| 36> H 	 -72.084 	 3.98151 	 -72.4773
| 37> H 	 -71.6869 	 3.46958 	 -70.9078
| 38> H 	 -70.7532 	 2.95821 	 -72.2266
| 39> H 	 -73.2675 	 10.4402 	 -72.4078
| 40> H 	 -65.29 	 7.59158 	 -72.5315
| 41> *
| 42>
| 43>                          ****END OF INPUT****

CARTESIAN COORDINATES (ANGSTROEM)
---------------------------------
  S    -70.837400    9.480080  -71.781400
  C    -72.391800    9.876060  -72.706400
  C    -72.299600    9.210870  -73.873500
  C    -71.045400    8.456210  -74.112300
  C    -70.245000    8.420260  -73.029500
  H    -70.819200    7.927650  -75.037900
  C    -73.482100    9.281150  -74.894100
  H    -73.904800   10.279200  -75.161400
  H    -74.258400    8.788270  -74.349100
  C    -73.200500    8.604130  -76.254200
  H    -72.437000    7.852460  -76.121700
  H    -74.030800    8.000010  -76.564700
  C    -72.652000    9.460770  -77.420500
  H    -73.520300    9.993400  -77.792600
  H    -72.038200   10.228800  -77.008300
  H    -72.178000    8.930200  -78.248500
  S    -67.467500    8.890730  -72.789800
  C    -66.341600    7.536110  -72.803000
  C    -67.035200    6.331940  -72.882900
  C    -68.492100    6.523190  -72.973500
  C    -68.926200    7.806110  -72.918600
  H    -66.545100    5.365390  -73.020900
  C    -69.475000    5.352250  -73.049300
  H    -68.942600    4.435900  -73.386200
  H    -70.236500    5.593470  -73.759800
  C    -70.241300    4.893040  -71.764700
  H    -70.755900    5.775940  -71.414100
  H    -69.485400    4.688180  -71.018700
  C    -71.262800    3.789560  -71.871300
  H    -72.084000    3.981510  -72.477300
  H    -71.686900    3.469580  -70.907800
  H    -70.753200    2.958210  -72.226600
  H    -73.267500   10.440200  -72.407800
  H    -65.290000    7.591580  -72.531500

 Total Charge           Charge          ....    0
 Multiplicity           Mult            ....    1
 Number of Electrons    NEL             ....  134
 Basis Dimension        Dim             ....  322

ORBITAL ENERGIES
----------------

  NO   OCC          E(Eh)            E(eV)
   0   2.0000     -88.963875     -2420.8301
   1   2.0000     -88.963376     -2420.8165
   2   2.0000     -10.333618      -281.1920
   3   2.0000     -10.331341      -281.1301
   4   2.0000     -10.324789      -280.9518
   5   2.0000     -10.320237      -280.8279
   6   2.0000     -10.309215      -280.5280
   7   2.0000     -10.308928      -280.5202
   8   2.0000     -10.302660      -280.3496
   9   2.0000     -10.300813      -280.2994
  10   2.0000     -10.299704      -280.2692
  11   2.0000     -10.291125      -280.0357
  12   2.0000     -10.283474      -279.8276
  13   2.0000     -10.278276      -279.6861
  14   2.0000     -10.276671      -279.6424
  15   2.0000     -10.266372      -279.3622
  16   2.0000      -8.077536      -219.8009
  17   2.0000      -8.077084      -219.7886
  18   2.0000      -6.036440      -164.2599
  19   2.0000      -6.035870      -164.2444
  20   2.0000      -6.032171      -164.1437
  21   2.0000      -6.031675      -164.1302
  22   2.0000      -6.027906      -164.0277
  23   2.0000      -6.027650      -164.0207
  24   2.0000      -1.002505       -27.2795
  25   2.0000      -0.977107       -26.5884
  26   2.0000      -0.909425       -24.7467
  27   2.0000      -0.903766       -24.5927
  28   2.0000      -0.873563       -23.7709
  29   2.0000      -0.850397       -23.1405
  30   2.0000      -0.834622       -22.7112
  31   2.0000      -0.820501       -22.3270
  32   2.0000      -0.784957       -21.3598
  33   2.0000      -0.777386       -21.1537
  34   2.0000      -0.714974       -19.4554
  35   2.0000      -0.696818       -18.9614
  36   2.0000      -0.691162       -18.8075
  37   2.0000      -0.662854       -18.0372
  38   2.0000      -0.641132       -17.4461
  39   2.0000      -0.622452       -16.9378
  40   2.0000      -0.591785       -16.1033
  41   2.0000      -0.570968       -15.5368
  42   2.0000      -0.567607       -15.4454
  43   2.0000      -0.557000       -15.1567
  44   2.0000      -0.530905       -14.4467
  45   2.0000      -0.523725       -14.2513
  46   2.0000      -0.517062       -14.0700
  47   2.0000      -0.512947       -13.9580
  48   2.0000      -0.507861       -13.8196
  49   2.0000      -0.505589       -13.7578
  50   2.0000      -0.490796       -13.3552
  51   2.0000      -0.484961       -13.1965
  52   2.0000      -0.481107       -13.0916
  53   2.0000      -0.464788       -12.6475
  54   2.0000      -0.458547       -12.4777
  55   2.0000      -0.451225       -12.2784
  56   2.0000      -0.446583       -12.1521
  57   2.0000      -0.439316       -11.9544
  58   2.0000      -0.424370       -11.5477
  59   2.0000      -0.419924       -11.4267
  60   2.0000      -0.418593       -11.3905
  61   2.0000      -0.406812       -11.0699
  62   2.0000      -0.400606       -10.9010
  63   2.0000      -0.343954        -9.3595
  64   2.0000      -0.330724        -8.9995
  65   2.0000      -0.325530        -8.8581
  66   2.0000      -0.309838        -8.4311
  67   0.0000       0.031057         0.8451
  68   0.0000       0.059990         1.6324
  69   0.0000       0.107094         2.9142
  70   0.0000       0.115158         3.1336
  71   0.0000       0.126771         3.4496

MULLIKEN ATOMIC CHARGES
-----------------------
   0 S :    0.088884
   1 C :   -0.119652
   2 C :   -0.096194
   3 C :    0.049191
   4 C :   -0.147966
   5 H :    0.027190
   6 C :    0.052915
   7 H :    0.041239
   8 H :    0.036273
   9 C :   -0.082974
  10 H :    0.003941
  11 H :    0.020711
  12 C :   -0.038100
  13 H :    0.024309
  14 H :    0.030125
  15 H :    0.048015
  16 S :    0.089178
  17 C :   -0.091513
  18 C :   -0.031752
  19 C :   -0.047361
  20 C :   -0.143816
  21 H :    0.030917
  22 C :    0.064923
  23 H :    0.014518
  24 H :    0.011451
  25 C :   -0.068018
  26 H :    0.021125
  27 H :    0.020869
  28 C :    0.011935
  29 H :    0.017556
  30 H :    0.030989
  31 H :    0.005743
  32 H :    0.051656
  33 H :    0.073692
Sum of atomic charges:    0.0000000

LOEWDIN ATOMIC CHARGES
----------------------
   0 S :    0.366344
   1 C :   -0.167795
   2 C :   -0.057021
   3 C :   -0.064489
   4 C :   -0.189279
   5 H :    0.034534
   6 C :   -0.031856
   7 H :    0.035373
   8 H :    0.033488
   9 C :   -0.047498
  10 H :    0.016253
  11 H :    0.021552
  12 C :   -0.062579
  13 H :    0.023621
  14 H :    0.023650
  15 H :    0.031016
  16 S :    0.369118
  17 C :   -0.177344
  18 C :   -0.073077
  19 C :   -0.052306
  20 C :   -0.176888
  21 H :    0.034417
  22 C :   -0.031683
  23 H :    0.027251
  24 H :    0.023621
  25 C :   -0.037833
  26 H :    0.020175
  27 H :    0.021674
  28 C :   -0.054273
  29 H :    0.017485
  30 H :    0.034798
  31 H :    0.015655
  32 H :    0.037111
  33 H :    0.036788

  Mayer bond orders larger than 0.100000
B(  0-S ,  1-C ) :   1.0819 B(  0-S ,  4-C ) :   1.1338 B(  1-C ,  2-C ) :   1.6943
B(  1-C , 32-H ) :   0.9748 B(  2-C ,  3-C ) :   1.1806 B(  2-C ,  6-C ) :   0.9891
B(  3-C ,  4-C ) :   1.6312 B(  3-C ,  5-H ) :   0.9849 B(  4-C , 20-C ) :   1.0094
B(  6-C ,  7-H ) :   0.9546 B(  6-C ,  8-H ) :   0.9397 B(  6-C ,  9-C ) :   1.0676
B(  9-C , 10-H ) :   0.9571 B(  9-C , 11-H ) :   0.9544 B(  9-C , 12-C ) :   1.0713
B( 12-C , 13-H ) :   0.9754 B( 12-C , 14-H ) :   0.9759 B( 12-C , 15-H ) :   0.9770
B( 16-S , 17-C ) :   1.1523 B( 16-S , 20-C ) :   1.1009 B( 17-C , 18-C ) :   1.6285
B( 17-C , 33-H ) :   0.9615 B( 18-C , 19-C ) :   1.2165 B( 18-C , 21-H ) :   0.9840
B( 19-C , 20-C ) :   1.6591 B( 19-C , 22-C ) :   1.0552 B( 22-C , 23-H ) :   0.9336
B( 22-C , 24-H ) :   0.9279 B( 22-C , 25-C ) :   1.0648 B( 25-C , 26-H ) :   0.9543
B( 25-C , 27-H ) :   0.9540 B( 25-C , 28-C ) :   1.0893 B( 28-C , 29-H ) :   0.9734
B( 28-C , 30-H ) :   0.9690 B( 28-C , 31-H ) :   0.9723

Dispersion correction           -0.014108137
FINAL SINGLE POINT ENERGY     -1339.860362503448

DIPOLE MOMENT
-------------
                                X             Y             Z
Electronic contribution:     16.90859      14.88753      12.74300
Nuclear contribution   :    -17.33086     -15.37031     -13.13204
                        -----------------------------------------
Total Dipole Moment    :     -0.42227      -0.48278      -0.38904
                        -----------------------------------------
Magnitude (a.u.)       :      0.75016
Magnitude (Debye)      :      1.90676

Rotational constants in cm-1:     0.016238     0.008759     0.007577
Rotational constants in MHz :   486.807197   262.592226   227.152112

                             ****ORCA TERMINATED NORMALLY****
TOTAL RUN TIME: 0 days 0 hours 0 minutes 20 seconds 288 msec
