                         Program Version 4.2.1 -  RELEASE  -
|  1> ! wB97X-D3 SP def2-SVP
|  2> %pal
|  3> nprocs 24
|  4> end
|  5>
|  6> * xyz 0 1
|  7> S 	 -44.836 	 -5.00472 	 -17.6883
|  8> C 	 -46.2014 	 -4.57751 	 -16.6874
|  9> C 	 -45.8578 	 -3.96605 	 -15.5312
| 10> C 	 -44.4399 	 -3.82153 	 -15.3927
| 11> C 	 -43.781 	 -4.3685 	 -16.4391
| 12> H 	 -43.9757 	 -3.32342 	 -14.6186
| 13> C 	 -46.8035 	 -3.72537 	 -14.4106
| 14> H 	 -46.4041 	 -3.884 	 -13.4275
| 15> H 	 -47.5775 	 -4.48516 	 -14.591
| 16> C 	 -47.6455 	 -2.42987 	 -14.4539
| 17> H 	 -48.1224 	 -2.34238 	 -15.4223
| 18> H 	 -48.478 	 -2.48573 	 -13.7572
| 19> C 	 -46.7755 	 -1.17339 	 -14.3221
| 20> H 	 -46.1838 	 -1.32456 	 -13.4133
| 21> H 	 -46.073 	 -0.927163 	 -15.1083
| 22> H 	 -47.3852 	 -0.277824 	 -14.2655
| 23> S 	 -41.5405 	 -5.69783 	 -17.2498
| 24> C 	 -39.9405 	 -4.87742 	 -17.2016
| 25> C 	 -40.1254 	 -3.56823 	 -16.8439
| 26> C 	 -41.4375 	 -3.24011 	 -16.5286
| 27> C 	 -42.3546 	 -4.28054 	 -16.6885
| 28> H 	 -39.2953 	 -2.85722 	 -16.729
| 29> C 	 -41.6509 	 -1.79051 	 -16.2474
| 30> H 	 -41.17 	 -1.60052 	 -15.2966
| 31> H 	 -42.646 	 -1.64611 	 -15.8348
| 32> C 	 -41.2905 	 -0.749623 	 -17.3385
| 33> H 	 -40.3597 	 -0.862283 	 -17.8204
| 34> H 	 -41.2815 	 0.224801 	 -16.7929
| 35> C 	 -42.2697 	 -0.693398 	 -18.4627
| 36> H 	 -42.0245 	 -1.4049 	 -19.242
| 37> H 	 -42.2833 	 0.290076 	 -18.9333
| 38> H 	 -43.2932 	 -0.883588 	 -18.2146
| 39> H 	 -47.173 	 -4.88056 	 -16.8538
| 40> H 	 -38.9852 	 -5.35702 	 -17.31
| 41> *
| 42>
| 43>                          ****END OF INPUT****

CARTESIAN COORDINATES (ANGSTROEM)
---------------------------------
  S    -44.836000   -5.004720  -17.688300
  C    -46.201400   -4.577510  -16.687400
  C    -45.857800   -3.966050  -15.531200
  C    -44.439900   -3.821530  -15.392700
  C    -43.781000   -4.368500  -16.439100
  H    -43.975700   -3.323420  -14.618600
  C    -46.803500   -3.725370  -14.410600
  H    -46.404100   -3.884000  -13.427500
  H    -47.577500   -4.485160  -14.591000
  C    -47.645500   -2.429870  -14.453900
  H    -48.122400   -2.342380  -15.422300
  H    -48.478000   -2.485730  -13.757200
  C    -46.775500   -1.173390  -14.322100
  H    -46.183800   -1.324560  -13.413300
  H    -46.073000   -0.927163  -15.108300
  H    -47.385200   -0.277824  -14.265500
  S    -41.540500   -5.697830  -17.249800
  C    -39.940500   -4.877420  -17.201600
  C    -40.125400   -3.568230  -16.843900
  C    -41.437500   -3.240110  -16.528600
  C    -42.354600   -4.280540  -16.688500
  H    -39.295300   -2.857220  -16.729000
  C    -41.650900   -1.790510  -16.247400
  H    -41.170000   -1.600520  -15.296600
  H    -42.646000   -1.646110  -15.834800
  C    -41.290500   -0.749623  -17.338500
  H    -40.359700   -0.862283  -17.820400
  H    -41.281500    0.224801  -16.792900
  C    -42.269700   -0.693398  -18.462700
  H    -42.024500   -1.404900  -19.242000
  H    -42.283300    0.290076  -18.933300
  H    -43.293200   -0.883588  -18.214600
  H    -47.173000   -4.880560  -16.853800
  H    -38.985200   -5.357020  -17.310000

 Total Charge           Charge          ....    0
 Multiplicity           Mult            ....    1
 Number of Electrons    NEL             ....  134
 Basis Dimension        Dim             ....  322

ORBITAL ENERGIES
----------------

  NO   OCC          E(Eh)            E(eV)
   0   2.0000     -88.966574     -2420.9036
   1   2.0000     -88.963811     -2420.8284
   2   2.0000     -10.325766      -280.9784
   3   2.0000     -10.324344      -280.9397
   4   2.0000     -10.318151      -280.7712
   5   2.0000     -10.303425      -280.3704
   6   2.0000     -10.294825      -280.1364
   7   2.0000     -10.294213      -280.1198
   8   2.0000     -10.288669      -279.9689
   9   2.0000     -10.288549      -279.9657
  10   2.0000     -10.286498      -279.9098
  11   2.0000     -10.286242      -279.9029
  12   2.0000     -10.285367      -279.8791
  13   2.0000     -10.285330      -279.8780
  14   2.0000     -10.274844      -279.5927
  15   2.0000     -10.265046      -279.3261
  16   2.0000      -8.081496      -219.9087
  17   2.0000      -8.078323      -219.8223
  18   2.0000      -6.040100      -164.3595
  19   2.0000      -6.036938      -164.2734
  20   2.0000      -6.036146      -164.2519
  21   2.0000      -6.032769      -164.1600
  22   2.0000      -6.031977      -164.1384
  23   2.0000      -6.029079      -164.0596
  24   2.0000      -1.011209       -27.5164
  25   2.0000      -0.987993       -26.8847
  26   2.0000      -0.915689       -24.9172
  27   2.0000      -0.909699       -24.7542
  28   2.0000      -0.872418       -23.7397
  29   2.0000      -0.855334       -23.2748
  30   2.0000      -0.848643       -23.0927
  31   2.0000      -0.820335       -22.3225
  32   2.0000      -0.783677       -21.3249
  33   2.0000      -0.772604       -21.0236
  34   2.0000      -0.708999       -19.2928
  35   2.0000      -0.705686       -19.2027
  36   2.0000      -0.698539       -19.0082
  37   2.0000      -0.664177       -18.0732
  38   2.0000      -0.646660       -17.5965
  39   2.0000      -0.621067       -16.9001
  40   2.0000      -0.602251       -16.3881
  41   2.0000      -0.577801       -15.7228
  42   2.0000      -0.552150       -15.0248
  43   2.0000      -0.547605       -14.9011
  44   2.0000      -0.542630       -14.7657
  45   2.0000      -0.538175       -14.6445
  46   2.0000      -0.522744       -14.2246
  47   2.0000      -0.514069       -13.9885
  48   2.0000      -0.503028       -13.6881
  49   2.0000      -0.501174       -13.6376
  50   2.0000      -0.494676       -13.4608
  51   2.0000      -0.476682       -12.9712
  52   2.0000      -0.475916       -12.9503
  53   2.0000      -0.467524       -12.7220
  54   2.0000      -0.455472       -12.3940
  55   2.0000      -0.447370       -12.1736
  56   2.0000      -0.438027       -11.9193
  57   2.0000      -0.436344       -11.8735
  58   2.0000      -0.433458       -11.7950
  59   2.0000      -0.429789       -11.6951
  60   2.0000      -0.421094       -11.4585
  61   2.0000      -0.413164       -11.2428
  62   2.0000      -0.410853       -11.1799
  63   2.0000      -0.351459        -9.5637
  64   2.0000      -0.333280        -9.0690
  65   2.0000      -0.328578        -8.9411
  66   2.0000      -0.289928        -7.8893
  67   0.0000       0.030567         0.8318
  68   0.0000       0.073106         1.9893
  69   0.0000       0.107916         2.9365
  70   0.0000       0.120362         3.2752
  71   0.0000       0.131864         3.5882

MULLIKEN ATOMIC CHARGES
-----------------------
   0 S :    0.111942
   1 C :   -0.075930
   2 C :   -0.068801
   3 C :    0.037636
   4 C :   -0.111881
   5 H :   -0.021864
   6 C :    0.044061
   7 H :    0.029906
   8 H :    0.020315
   9 C :   -0.051861
  10 H :    0.016360
  11 H :    0.031902
  12 C :   -0.059246
  13 H :    0.021182
  14 H :    0.038160
  15 H :    0.031271
  16 S :    0.090176
  17 C :   -0.087968
  18 C :   -0.038876
  19 C :   -0.044996
  20 C :   -0.147531
  21 H :    0.028146
  22 C :    0.077532
  23 H :    0.015818
  24 H :   -0.009140
  25 C :   -0.036525
  26 H :    0.022060
  27 H :    0.030970
  28 C :   -0.037986
  29 H :    0.034354
  30 H :    0.026902
  31 H :    0.020848
  32 H :    0.007856
  33 H :    0.055210
Sum of atomic charges:   -0.0000000

LOEWDIN ATOMIC CHARGES
----------------------
   0 S :    0.400841
   1 C :   -0.181395
   2 C :   -0.059047
   3 C :   -0.050961
   4 C :   -0.181127
   5 H :    0.018729
   6 C :   -0.031073
   7 H :    0.026950
   8 H :    0.036929
   9 C :   -0.036592
  10 H :    0.021120
  11 H :    0.024383
  12 C :   -0.070898
  13 H :    0.021445
  14 H :    0.025806
  15 H :    0.025496
  16 S :    0.394440
  17 C :   -0.168335
  18 C :   -0.068244
  19 C :   -0.068090
  20 C :   -0.205147
  21 H :    0.036798
  22 C :   -0.039045
  23 H :    0.032533
  24 H :    0.026302
  25 C :   -0.033927
  26 H :    0.019918
  27 H :    0.031444
  28 C :   -0.064837
  29 H :    0.027511
  30 H :    0.027947
  31 H :    0.021111
  32 H :    0.010387
  33 H :    0.028629

  Mayer bond orders larger than 0.100000
B(  0-S ,  1-C ) :   1.1177 B(  0-S ,  4-C ) :   1.1411 B(  1-C ,  2-C ) :   1.6610
B(  1-C , 32-H ) :   0.9660 B(  2-C ,  3-C ) :   1.1957 B(  2-C ,  6-C ) :   1.0140
B(  3-C ,  4-C ) :   1.5998 B(  3-C ,  5-H ) :   1.0188 B(  4-C , 20-C ) :   1.0213
B(  6-C ,  7-H ) :   0.9537 B(  6-C ,  8-H ) :   0.9363 B(  6-C ,  9-C ) :   1.0769
B(  9-C , 10-H ) :   0.9528 B(  9-C , 11-H ) :   0.9574 B(  9-C , 12-C ) :   1.0717
B( 12-C , 13-H ) :   0.9776 B( 12-C , 14-H ) :   0.9748 B( 12-C , 15-H ) :   0.9738
B( 16-S , 17-C ) :   1.1433 B( 16-S , 20-C ) :   1.1440 B( 17-C , 18-C ) :   1.5856
B( 17-C , 20-C ) :   0.1054 B( 17-C , 33-H ) :   0.9724 B( 18-C , 19-C ) :   1.2714
B( 18-C , 21-H ) :   0.9860 B( 19-C , 20-C ) :   1.5647 B( 19-C , 22-C ) :   1.0498
B( 22-C , 23-H ) :   0.9192 B( 22-C , 24-H ) :   0.9218 B( 22-C , 25-C ) :   1.0687
B( 25-C , 26-H ) :   0.9589 B( 25-C , 27-H ) :   0.9528 B( 25-C , 28-C ) :   1.0760
B( 28-C , 29-H ) :   0.9757 B( 28-C , 30-H ) :   0.9717 B( 28-C , 31-H ) :   0.9762

Dispersion correction           -0.014813480
FINAL SINGLE POINT ENERGY     -1339.874054697319

DIPOLE MOMENT
-------------
                                X             Y             Z
Electronic contribution:      8.49099     -24.63728      -8.40865
Nuclear contribution   :     -8.54428      25.18985       8.79344
                        -----------------------------------------
Total Dipole Moment    :     -0.05329       0.55257       0.38479
                        -----------------------------------------
Magnitude (a.u.)       :      0.67545
Magnitude (Debye)      :      1.71687

Rotational constants in cm-1:     0.019541     0.009173     0.007281
Rotational constants in MHz :   585.810532   275.012288   218.265892

                             ****ORCA TERMINATED NORMALLY****
TOTAL RUN TIME: 0 days 0 hours 0 minutes 22 seconds 354 msec
