                         Program Version 4.2.1 -  RELEASE  -
|  1> ! wB97X-D3 SP def2-SVP
|  2> %pal
|  3> nprocs 24
|  4> end
|  5>
|  6> * xyz 0 1
|  7> S 	 30.3674 	 -30.274 	 -109.821
|  8> C 	 31.4335 	 -30.2686 	 -108.406
|  9> C 	 32.5832 	 -30.8921 	 -108.688
| 10> C 	 32.5987 	 -31.4302 	 -109.969
| 11> C 	 31.4707 	 -31.2848 	 -110.69
| 12> H 	 33.3631 	 -32.1089 	 -110.247
| 13> C 	 33.7181 	 -31.108 	 -107.727
| 14> H 	 34.4556 	 -31.6927 	 -108.182
| 15> H 	 33.4133 	 -31.6662 	 -106.864
| 16> C 	 34.3193 	 -29.7612 	 -107.23
| 17> H 	 33.5093 	 -29.0518 	 -107.18
| 18> H 	 34.6778 	 -29.819 	 -106.186
| 19> C 	 35.4513 	 -29.2244 	 -108.043
| 20> H 	 36.2925 	 -29.8469 	 -108.177
| 21> H 	 35.1454 	 -28.9945 	 -109.035
| 22> H 	 35.9073 	 -28.2541 	 -107.732
| 23> S 	 29.9132 	 -31.209 	 -112.988
| 24> C 	 30.0864 	 -32.402 	 -114.239
| 25> C 	 30.961 	 -33.3627 	 -113.895
| 26> C 	 31.6274 	 -33.0863 	 -112.646
| 27> C 	 31.1337 	 -31.9291 	 -111.966
| 28> H 	 31.1911 	 -34.1618 	 -114.628
| 29> C 	 32.7414 	 -33.987 	 -112.153
| 30> H 	 32.5203 	 -35.0011 	 -112.534
| 31> H 	 32.5168 	 -33.9994 	 -111.077
| 32> C 	 34.2232 	 -33.6768 	 -112.367
| 33> H 	 34.5038 	 -32.6941 	 -112.053
| 34> H 	 34.4079 	 -33.6685 	 -113.439
| 35> C 	 35.1973 	 -34.5543 	 -111.597
| 36> H 	 35.1189 	 -34.4273 	 -110.526
| 37> H 	 36.2023 	 -34.182 	 -111.852
| 38> H 	 35.0278 	 -35.6272 	 -111.938
| 39> H 	 31.2461 	 -29.6869 	 -107.545
| 40> H 	 29.6295 	 -32.3007 	 -115.19
| 41> *
| 42>
| 43>                          ****END OF INPUT****

CARTESIAN COORDINATES (ANGSTROEM)
---------------------------------
  S     30.367400  -30.274000  -109.821000
  C     31.433500  -30.268600  -108.406000
  C     32.583200  -30.892100  -108.688000
  C     32.598700  -31.430200  -109.969000
  C     31.470700  -31.284800  -110.690000
  H     33.363100  -32.108900  -110.247000
  C     33.718100  -31.108000  -107.727000
  H     34.455600  -31.692700  -108.182000
  H     33.413300  -31.666200  -106.864000
  C     34.319300  -29.761200  -107.230000
  H     33.509300  -29.051800  -107.180000
  H     34.677800  -29.819000  -106.186000
  C     35.451300  -29.224400  -108.043000
  H     36.292500  -29.846900  -108.177000
  H     35.145400  -28.994500  -109.035000
  H     35.907300  -28.254100  -107.732000
  S     29.913200  -31.209000  -112.988000
  C     30.086400  -32.402000  -114.239000
  C     30.961000  -33.362700  -113.895000
  C     31.627400  -33.086300  -112.646000
  C     31.133700  -31.929100  -111.966000
  H     31.191100  -34.161800  -114.628000
  C     32.741400  -33.987000  -112.153000
  H     32.520300  -35.001100  -112.534000
  H     32.516800  -33.999400  -111.077000
  C     34.223200  -33.676800  -112.367000
  H     34.503800  -32.694100  -112.053000
  H     34.407900  -33.668500  -113.439000
  C     35.197300  -34.554300  -111.597000
  H     35.118900  -34.427300  -110.526000
  H     36.202300  -34.182000  -111.852000
  H     35.027800  -35.627200  -111.938000
  H     31.246100  -29.686900  -107.545000
  H     29.629500  -32.300700  -115.190000

 Total Charge           Charge          ....    0
 Multiplicity           Mult            ....    1
 Number of Electrons    NEL             ....  134
 Basis Dimension        Dim             ....  322

ORBITAL ENERGIES
----------------

  NO   OCC          E(Eh)            E(eV)
   0   2.0000     -88.965104     -2420.8636
   1   2.0000     -88.963700     -2420.8254
   2   2.0000     -10.333950      -281.2011
   3   2.0000     -10.330223      -281.0997
   4   2.0000     -10.313022      -280.6316
   5   2.0000     -10.310585      -280.5653
   6   2.0000     -10.308282      -280.5026
   7   2.0000     -10.295296      -280.1492
   8   2.0000     -10.292483      -280.0727
   9   2.0000     -10.291325      -280.0412
  10   2.0000     -10.287158      -279.9278
  11   2.0000     -10.286763      -279.9170
  12   2.0000     -10.286413      -279.9075
  13   2.0000     -10.284849      -279.8650
  14   2.0000     -10.282100      -279.7902
  15   2.0000     -10.269686      -279.4524
  16   2.0000      -8.080134      -219.8716
  17   2.0000      -8.078973      -219.8400
  18   2.0000      -6.038720      -164.3219
  19   2.0000      -6.037527      -164.2895
  20   2.0000      -6.034670      -164.2117
  21   2.0000      -6.033273      -164.1737
  22   2.0000      -6.030728      -164.1045
  23   2.0000      -6.029807      -164.0794
  24   2.0000      -1.014811       -27.6144
  25   2.0000      -0.991483       -26.9796
  26   2.0000      -0.917680       -24.9714
  27   2.0000      -0.911431       -24.8013
  28   2.0000      -0.874485       -23.7960
  29   2.0000      -0.856213       -23.2987
  30   2.0000      -0.849390       -23.1131
  31   2.0000      -0.823562       -22.4103
  32   2.0000      -0.788388       -21.4531
  33   2.0000      -0.773298       -21.0425
  34   2.0000      -0.715949       -19.4820
  35   2.0000      -0.706137       -19.2150
  36   2.0000      -0.694561       -18.9000
  37   2.0000      -0.664823       -18.0908
  38   2.0000      -0.640938       -17.4408
  39   2.0000      -0.627803       -17.0834
  40   2.0000      -0.596786       -16.2394
  41   2.0000      -0.580528       -15.7970
  42   2.0000      -0.571239       -15.5442
  43   2.0000      -0.554956       -15.1011
  44   2.0000      -0.541332       -14.7304
  45   2.0000      -0.526033       -14.3141
  46   2.0000      -0.517209       -14.0740
  47   2.0000      -0.514506       -14.0004
  48   2.0000      -0.509779       -13.8718
  49   2.0000      -0.506523       -13.7832
  50   2.0000      -0.492094       -13.3906
  51   2.0000      -0.485748       -13.2179
  52   2.0000      -0.482604       -13.1323
  53   2.0000      -0.470595       -12.8056
  54   2.0000      -0.458045       -12.4640
  55   2.0000      -0.454475       -12.3669
  56   2.0000      -0.441489       -12.0135
  57   2.0000      -0.439100       -11.9485
  58   2.0000      -0.429563       -11.6890
  59   2.0000      -0.426293       -11.6000
  60   2.0000      -0.422974       -11.5097
  61   2.0000      -0.415319       -11.3014
  62   2.0000      -0.410542       -11.1714
  63   2.0000      -0.363690        -9.8965
  64   2.0000      -0.336594        -9.1592
  65   2.0000      -0.328303        -8.9336
  66   2.0000      -0.286940        -7.8080
  67   0.0000       0.021522         0.5856
  68   0.0000       0.083644         2.2761
  69   0.0000       0.102882         2.7996
  70   0.0000       0.125138         3.4052
  71   0.0000       0.127412         3.4671

MULLIKEN ATOMIC CHARGES
-----------------------
   0 S :    0.097798
   1 C :   -0.125013
   2 C :   -0.074111
   3 C :    0.004940
   4 C :   -0.074380
   5 H :   -0.037966
   6 C :    0.127770
   7 H :   -0.004388
   8 H :    0.033478
   9 C :   -0.068214
  10 H :    0.018384
  11 H :    0.024634
  12 C :   -0.027471
  13 H :    0.014740
  14 H :    0.012581
  15 H :    0.029136
  16 S :    0.089442
  17 C :   -0.076062
  18 C :   -0.026624
  19 C :   -0.066746
  20 C :   -0.119593
  21 H :    0.032738
  22 C :    0.027064
  23 H :    0.019628
  24 H :    0.027260
  25 C :   -0.037231
  26 H :    0.015067
  27 H :    0.021657
  28 C :   -0.056740
  29 H :    0.033132
  30 H :    0.037682
  31 H :    0.044754
  32 H :    0.034234
  33 H :    0.048420
Sum of atomic charges:   -0.0000000

LOEWDIN ATOMIC CHARGES
----------------------
   0 S :    0.398856
   1 C :   -0.175956
   2 C :   -0.065063
   3 C :   -0.071138
   4 C :   -0.184538
   5 H :    0.022618
   6 C :   -0.016802
   7 H :    0.019032
   8 H :    0.035514
   9 C :   -0.036960
  10 H :    0.020751
  11 H :    0.024809
  12 C :   -0.068622
  13 H :    0.017373
  14 H :    0.020846
  15 H :    0.032273
  16 S :    0.406074
  17 C :   -0.178167
  18 C :   -0.078815
  19 C :   -0.053288
  20 C :   -0.195605
  21 H :    0.041207
  22 C :   -0.042945
  23 H :    0.031754
  24 H :    0.031598
  25 C :   -0.044483
  26 H :    0.017578
  27 H :    0.024556
  28 C :   -0.062363
  29 H :    0.021644
  30 H :    0.031247
  31 H :    0.031719
  32 H :    0.019808
  33 H :    0.025490

  Mayer bond orders larger than 0.100000
B(  0-S ,  1-C ) :   1.1240 B(  0-S ,  4-C ) :   1.1457 B(  1-C ,  2-C ) :   1.6214
B(  1-C , 32-H ) :   0.9713 B(  2-C ,  3-C ) :   1.2632 B(  2-C ,  6-C ) :   1.0184
B(  3-C ,  4-C ) :   1.5617 B(  3-C ,  5-H ) :   0.9991 B(  4-C , 20-C ) :   1.0640
B(  6-C ,  7-H ) :   0.9417 B(  6-C ,  8-H ) :   0.9354 B(  6-C ,  9-C ) :   1.0556
B(  9-C , 10-H ) :   0.9610 B(  9-C , 11-H ) :   0.9552 B(  9-C , 12-C ) :   1.0874
B( 12-C , 13-H ) :   0.9733 B( 12-C , 14-H ) :   0.9713 B( 12-C , 15-H ) :   0.9703
B( 16-S , 17-C ) :   1.1592 B( 16-S , 20-C ) :   1.1395 B( 17-C , 18-C ) :   1.6089
B( 17-C , 33-H ) :   0.9695 B( 18-C , 19-C ) :   1.2547 B( 18-C , 21-H ) :   0.9860
B( 19-C , 20-C ) :   1.5579 B( 19-C , 22-C ) :   1.0400 B( 22-C , 23-H ) :   0.9311
B( 22-C , 24-H ) :   0.9326 B( 22-C , 25-C ) :   1.0646 B( 25-C , 26-H ) :   0.9487
B( 25-C , 27-H ) :   0.9483 B( 25-C , 28-C ) :   1.0825 B( 28-C , 29-H ) :   0.9743
B( 28-C , 30-H ) :   0.9719 B( 28-C , 31-H ) :   0.9751

Dispersion correction           -0.014187964
FINAL SINGLE POINT ENERGY     -1339.879064842006

DIPOLE MOMENT
-------------
                                X             Y             Z
Electronic contribution:    -28.61027       7.03141     -10.03500
Nuclear contribution   :     29.25302      -7.35919      10.07869
                        -----------------------------------------
Total Dipole Moment    :      0.64275      -0.32779       0.04369
                        -----------------------------------------
Magnitude (a.u.)       :      0.72283
Magnitude (Debye)      :      1.83728

Rotational constants in cm-1:     0.018110     0.009375     0.006639
Rotational constants in MHz :   542.915206   281.056053   199.028779

                             ****ORCA TERMINATED NORMALLY****
TOTAL RUN TIME: 0 days 0 hours 0 minutes 22 seconds 111 msec
