                         Program Version 4.2.1 -  RELEASE  -
|  1> ! wB97X-D3 SP def2-SVP
|  2> %pal
|  3> nprocs 24
|  4> end
|  5>
|  6> * xyz 0 1
|  7> S 	 -99.7156 	 38.0074 	 -89.3192
|  8> C 	 -99.5597 	 36.4551 	 -88.4816
|  9> C 	 -99.9999 	 36.5966 	 -87.1809
| 10> C 	 -100.831 	 37.786 	 -87.0411
| 11> C 	 -100.873 	 38.5188 	 -88.1952
| 12> H 	 -101.417 	 38.1357 	 -86.171
| 13> C 	 -99.7189 	 35.6077 	 -86.0297
| 14> H 	 -99.7948 	 34.5901 	 -86.3724
| 15> H 	 -100.612 	 35.7621 	 -85.4741
| 16> C 	 -98.4116 	 35.7076 	 -85.237
| 17> H 	 -98.27 	 36.7624 	 -84.9779
| 18> H 	 -98.5217 	 35.0463 	 -84.3841
| 19> C 	 -97.1754 	 35.4723 	 -86.0845
| 20> H 	 -96.9824 	 34.3862 	 -86.3093
| 21> H 	 -97.1078 	 36.0616 	 -87.0402
| 22> H 	 -96.334 	 35.741 	 -85.4889
| 23> S 	 -100.423 	 41.1486 	 -88.9693
| 24> C 	 -101.747 	 42.3453 	 -88.6956
| 25> C 	 -102.922 	 41.6617 	 -88.3336
| 26> C 	 -102.749 	 40.2949 	 -88.0002
| 27> C 	 -101.449 	 39.8591 	 -88.2606
| 28> H 	 -103.75 	 42.3091 	 -88.2598
| 29> C 	 -103.887 	 39.3949 	 -87.5536
| 30> H 	 -103.772 	 38.3206 	 -87.839
| 31> H 	 -104.755 	 39.7176 	 -88.1688
| 32> C 	 -104.217 	 39.5194 	 -86.0759
| 33> H 	 -104.44 	 40.5418 	 -85.9245
| 34> H 	 -103.292 	 39.3857 	 -85.6174
| 35> C 	 -105.463 	 38.6965 	 -85.4712
| 36> H 	 -106.395 	 38.9833 	 -85.9352
| 37> H 	 -105.502 	 38.7831 	 -84.4365
| 38> H 	 -105.399 	 37.6557 	 -85.6895
| 39> H 	 -99.1159 	 35.5306 	 -88.9162
| 40> H 	 -101.64 	 43.373 	 -88.9922
| 41> *
| 42>
| 43>                          ****END OF INPUT****

CARTESIAN COORDINATES (ANGSTROEM)
---------------------------------
  S    -99.715600   38.007400  -89.319200
  C    -99.559700   36.455100  -88.481600
  C    -99.999900   36.596600  -87.180900
  C    -100.831000   37.786000  -87.041100
  C    -100.873000   38.518800  -88.195200
  H    -101.417000   38.135700  -86.171000
  C    -99.718900   35.607700  -86.029700
  H    -99.794800   34.590100  -86.372400
  H    -100.612000   35.762100  -85.474100
  C    -98.411600   35.707600  -85.237000
  H    -98.270000   36.762400  -84.977900
  H    -98.521700   35.046300  -84.384100
  C    -97.175400   35.472300  -86.084500
  H    -96.982400   34.386200  -86.309300
  H    -97.107800   36.061600  -87.040200
  H    -96.334000   35.741000  -85.488900
  S    -100.423000   41.148600  -88.969300
  C    -101.747000   42.345300  -88.695600
  C    -102.922000   41.661700  -88.333600
  C    -102.749000   40.294900  -88.000200
  C    -101.449000   39.859100  -88.260600
  H    -103.750000   42.309100  -88.259800
  C    -103.887000   39.394900  -87.553600
  H    -103.772000   38.320600  -87.839000
  H    -104.755000   39.717600  -88.168800
  C    -104.217000   39.519400  -86.075900
  H    -104.440000   40.541800  -85.924500
  H    -103.292000   39.385700  -85.617400
  C    -105.463000   38.696500  -85.471200
  H    -106.395000   38.983300  -85.935200
  H    -105.502000   38.783100  -84.436500
  H    -105.399000   37.655700  -85.689500
  H    -99.115900   35.530600  -88.916200
  H    -101.640000   43.373000  -88.992200

 Total Charge           Charge          ....    0
 Multiplicity           Mult            ....    1
 Number of Electrons    NEL             ....  134
 Basis Dimension        Dim             ....  322

ORBITAL ENERGIES
----------------

  NO   OCC          E(Eh)            E(eV)
   0   2.0000     -88.964925     -2420.8587
   1   2.0000     -88.964761     -2420.8542
   2   2.0000     -10.331563      -281.1361
   3   2.0000     -10.323501      -280.9168
   4   2.0000     -10.322111      -280.8789
   5   2.0000     -10.318081      -280.7693
   6   2.0000     -10.307126      -280.4712
   7   2.0000     -10.305938      -280.4388
   8   2.0000     -10.297347      -280.2051
   9   2.0000     -10.296832      -280.1910
  10   2.0000     -10.293703      -280.1059
  11   2.0000     -10.288571      -279.9663
  12   2.0000     -10.287500      -279.9371
  13   2.0000     -10.281280      -279.7679
  14   2.0000     -10.278468      -279.6913
  15   2.0000     -10.277027      -279.6521
  16   2.0000      -8.080608      -219.8845
  17   2.0000      -8.078296      -219.8216
  18   2.0000      -6.039178      -164.3344
  19   2.0000      -6.036897      -164.2723
  20   2.0000      -6.035261      -164.2278
  21   2.0000      -6.033109      -164.1692
  22   2.0000      -6.030914      -164.1095
  23   2.0000      -6.028940      -164.0558
  24   2.0000      -1.010289       -27.4914
  25   2.0000      -0.978360       -26.6225
  26   2.0000      -0.913104       -24.8468
  27   2.0000      -0.904925       -24.6243
  28   2.0000      -0.868243       -23.6261
  29   2.0000      -0.849626       -23.1195
  30   2.0000      -0.842284       -22.9197
  31   2.0000      -0.812146       -22.0996
  32   2.0000      -0.786811       -21.4102
  33   2.0000      -0.778379       -21.1808
  34   2.0000      -0.709789       -19.3144
  35   2.0000      -0.698673       -19.0119
  36   2.0000      -0.695101       -18.9147
  37   2.0000      -0.662501       -18.0276
  38   2.0000      -0.639166       -17.3926
  39   2.0000      -0.616391       -16.7729
  40   2.0000      -0.594357       -16.1733
  41   2.0000      -0.571357       -15.5474
  42   2.0000      -0.562555       -15.3079
  43   2.0000      -0.548593       -14.9280
  44   2.0000      -0.544310       -14.8114
  45   2.0000      -0.525160       -14.2903
  46   2.0000      -0.517173       -14.0730
  47   2.0000      -0.512893       -13.9565
  48   2.0000      -0.505268       -13.7490
  49   2.0000      -0.496691       -13.5157
  50   2.0000      -0.488806       -13.3011
  51   2.0000      -0.483854       -13.1663
  52   2.0000      -0.467305       -12.7160
  53   2.0000      -0.465617       -12.6701
  54   2.0000      -0.458750       -12.4832
  55   2.0000      -0.448350       -12.2002
  56   2.0000      -0.443400       -12.0655
  57   2.0000      -0.440240       -11.9795
  58   2.0000      -0.436811       -11.8862
  59   2.0000      -0.423404       -11.5214
  60   2.0000      -0.420679       -11.4472
  61   2.0000      -0.415352       -11.3023
  62   2.0000      -0.410201       -11.1621
  63   2.0000      -0.350139        -9.5278
  64   2.0000      -0.333128        -9.0649
  65   2.0000      -0.326578        -8.8866
  66   2.0000      -0.285537        -7.7699
  67   0.0000       0.024954         0.6790
  68   0.0000       0.058311         1.5867
  69   0.0000       0.097965         2.6658
  70   0.0000       0.118315         3.2195
  71   0.0000       0.133729         3.6390

MULLIKEN ATOMIC CHARGES
-----------------------
   0 S :    0.096261
   1 C :   -0.135194
   2 C :   -0.104211
   3 C :   -0.007776
   4 C :   -0.102969
   5 H :    0.025562
   6 C :    0.087765
   7 H :    0.013734
   8 H :    0.010839
   9 C :   -0.032117
  10 H :    0.030126
  11 H :    0.041702
  12 C :   -0.084174
  13 H :    0.026832
  14 H :    0.054101
  15 H :    0.026494
  16 S :    0.076524
  17 C :   -0.112971
  18 C :   -0.015073
  19 C :   -0.029972
  20 C :   -0.149033
  21 H :    0.009161
  22 C :    0.032443
  23 H :    0.038468
  24 H :    0.023283
  25 C :   -0.039081
  26 H :    0.010967
  27 H :    0.002984
  28 C :    0.002419
  29 H :    0.026803
  30 H :    0.028814
  31 H :    0.018597
  32 H :    0.067642
  33 H :    0.061052
Sum of atomic charges:    0.0000000

LOEWDIN ATOMIC CHARGES
----------------------
   0 S :    0.410998
   1 C :   -0.193882
   2 C :   -0.056415
   3 C :   -0.068102
   4 C :   -0.207957
   5 H :    0.036406
   6 C :   -0.033131
   7 H :    0.027050
   8 H :    0.024789
   9 C :   -0.036011
  10 H :    0.029543
  11 H :    0.029935
  12 C :   -0.074110
  13 H :    0.023992
  14 H :    0.034477
  15 H :    0.022496
  16 S :    0.355650
  17 C :   -0.168229
  18 C :   -0.058796
  19 C :   -0.063210
  20 C :   -0.168709
  21 H :    0.026422
  22 C :   -0.035482
  23 H :    0.032262
  24 H :    0.031752
  25 C :   -0.032516
  26 H :    0.019542
  27 H :    0.010895
  28 C :   -0.051952
  29 H :    0.026631
  30 H :    0.020169
  31 H :    0.021104
  32 H :    0.038111
  33 H :    0.026277

  Mayer bond orders larger than 0.100000
B(  0-S ,  1-C ) :   1.1213 B(  0-S ,  4-C ) :   1.1515 B(  1-C ,  2-C ) :   1.6124
B(  1-C , 32-H ) :   0.9696 B(  2-C ,  3-C ) :   1.2231 B(  2-C ,  6-C ) :   1.0091
B(  3-C ,  4-C ) :   1.5611 B(  3-C ,  5-H ) :   0.9918 B(  4-C , 20-C ) :   1.0495
B(  6-C ,  7-H ) :   0.9407 B(  6-C ,  8-H ) :   0.9397 B(  6-C ,  9-C ) :   1.0674
B(  9-C , 10-H ) :   0.9552 B(  9-C , 11-H ) :   0.9530 B(  9-C , 12-C ) :   1.0804
B( 12-C , 13-H ) :   0.9731 B( 12-C , 14-H ) :   0.9687 B( 12-C , 15-H ) :   0.9737
B( 16-S , 17-C ) :   1.1311 B( 16-S , 20-C ) :   1.1325 B( 17-C , 18-C ) :   1.6210
B( 17-C , 20-C ) :   0.1058 B( 17-C , 33-H ) :   0.9706 B( 18-C , 19-C ) :   1.2214
B( 18-C , 21-H ) :   0.9959 B( 19-C , 20-C ) :   1.6007 B( 19-C , 22-C ) :   1.0456
B( 22-C , 23-H ) :   0.9360 B( 22-C , 24-H ) :   0.9346 B( 22-C , 25-C ) :   1.0526
B( 25-C , 26-H ) :   0.9527 B( 25-C , 27-H ) :   0.9552 B( 25-C , 28-C ) :   1.0662
B( 28-C , 29-H ) :   0.9755 B( 28-C , 30-H ) :   0.9773 B( 28-C , 31-H ) :   0.9772

Dispersion correction           -0.014262429
FINAL SINGLE POINT ENERGY     -1339.852946413628

DIPOLE MOMENT
-------------
                                X             Y             Z
Electronic contribution:      7.64651      13.95665     -19.71599
Nuclear contribution   :     -7.94709     -14.20305      20.20260
                        -----------------------------------------
Total Dipole Moment    :     -0.30058      -0.24641       0.48661
                        -----------------------------------------
Magnitude (a.u.)       :      0.62278
Magnitude (Debye)      :      1.58298

Rotational constants in cm-1:     0.018064     0.008726     0.006536
Rotational constants in MHz :   541.548463   261.603812   195.958345

                             ****ORCA TERMINATED NORMALLY****
TOTAL RUN TIME: 0 days 0 hours 0 minutes 20 seconds 204 msec
