                         Program Version 4.2.1 -  RELEASE  -
|  1> ! wB97X-D3 SP def2-SVP
|  2> %pal
|  3> nprocs 24
|  4> end
|  5>
|  6> * xyz 0 1
|  7> S 	 -93.4887 	 -7.9084 	 -119.71
|  8> C 	 -94.2271 	 -7.77548 	 -121.285
|  9> C 	 -94.4754 	 -6.46106 	 -121.55
| 10> C 	 -94.0759 	 -5.54652 	 -120.558
| 11> C 	 -93.3761 	 -6.1503 	 -119.544
| 12> H 	 -94.2228 	 -4.49228 	 -120.602
| 13> C 	 -95.2286 	 -6.02516 	 -122.806
| 14> H 	 -95.0131 	 -6.82794 	 -123.572
| 15> H 	 -94.7455 	 -5.11834 	 -123.154
| 16> C 	 -96.6912 	 -5.7136 	 -122.629
| 17> H 	 -96.924 	 -4.99399 	 -121.872
| 18> H 	 -97.0674 	 -5.30034 	 -123.561
| 19> C 	 -97.5332 	 -6.93079 	 -122.347
| 20> H 	 -97.4002 	 -7.69086 	 -123.171
| 21> H 	 -97.3198 	 -7.46917 	 -121.494
| 22> H 	 -98.6164 	 -6.71573 	 -122.361
| 23> S 	 -91.665 	 -4.36274 	 -118.699
| 24> C 	 -91.9079 	 -3.57631 	 -117.128
| 25> C 	 -92.7748 	 -4.30529 	 -116.301
| 26> C 	 -93.298 	 -5.47439 	 -117.035
| 27> C 	 -92.931 	 -5.43678 	 -118.346
| 28> H 	 -93.0088 	 -3.87341 	 -115.338
| 29> C 	 -94.1741 	 -6.54 	 -116.444
| 30> H 	 -94.9572 	 -6.79131 	 -117.208
| 31> H 	 -94.7274 	 -6.05292 	 -115.591
| 32> C 	 -93.5891 	 -7.92298 	 -115.994
| 33> H 	 -93.2314 	 -8.34644 	 -116.908
| 34> H 	 -94.3975 	 -8.5624 	 -115.661
| 35> C 	 -92.5014 	 -7.77275 	 -114.866
| 36> H 	 -91.7387 	 -6.98529 	 -115.155
| 37> H 	 -91.96 	 -8.71333 	 -114.64
| 38> H 	 -93.0646 	 -7.3691 	 -113.997
| 39> H 	 -94.7446 	 -8.58573 	 -121.796
| 40> H 	 -91.219 	 -2.77446 	 -116.756
| 41> *
| 42>
| 43>                          ****END OF INPUT****

CARTESIAN COORDINATES (ANGSTROEM)
---------------------------------
  S    -93.488700   -7.908400  -119.710000
  C    -94.227100   -7.775480  -121.285000
  C    -94.475400   -6.461060  -121.550000
  C    -94.075900   -5.546520  -120.558000
  C    -93.376100   -6.150300  -119.544000
  H    -94.222800   -4.492280  -120.602000
  C    -95.228600   -6.025160  -122.806000
  H    -95.013100   -6.827940  -123.572000
  H    -94.745500   -5.118340  -123.154000
  C    -96.691200   -5.713600  -122.629000
  H    -96.924000   -4.993990  -121.872000
  H    -97.067400   -5.300340  -123.561000
  C    -97.533200   -6.930790  -122.347000
  H    -97.400200   -7.690860  -123.171000
  H    -97.319800   -7.469170  -121.494000
  H    -98.616400   -6.715730  -122.361000
  S    -91.665000   -4.362740  -118.699000
  C    -91.907900   -3.576310  -117.128000
  C    -92.774800   -4.305290  -116.301000
  C    -93.298000   -5.474390  -117.035000
  C    -92.931000   -5.436780  -118.346000
  H    -93.008800   -3.873410  -115.338000
  C    -94.174100   -6.540000  -116.444000
  H    -94.957200   -6.791310  -117.208000
  H    -94.727400   -6.052920  -115.591000
  C    -93.589100   -7.922980  -115.994000
  H    -93.231400   -8.346440  -116.908000
  H    -94.397500   -8.562400  -115.661000
  C    -92.501400   -7.772750  -114.866000
  H    -91.738700   -6.985290  -115.155000
  H    -91.960000   -8.713330  -114.640000
  H    -93.064600   -7.369100  -113.997000
  H    -94.744600   -8.585730  -121.796000
  H    -91.219000   -2.774460  -116.756000

 Total Charge           Charge          ....    0
 Multiplicity           Mult            ....    1
 Number of Electrons    NEL             ....  134
 Basis Dimension        Dim             ....  322

ORBITAL ENERGIES
----------------

  NO   OCC          E(Eh)            E(eV)
   0   2.0000     -88.967148     -2420.9192
   1   2.0000     -88.964011     -2420.8338
   2   2.0000     -10.331101      -281.1236
   3   2.0000     -10.321708      -280.8679
   4   2.0000     -10.320481      -280.8346
   5   2.0000     -10.312113      -280.6069
   6   2.0000     -10.306460      -280.4530
   7   2.0000     -10.303774      -280.3799
   8   2.0000     -10.295922      -280.1663
   9   2.0000     -10.294809      -280.1360
  10   2.0000     -10.293004      -280.0869
  11   2.0000     -10.291641      -280.0498
  12   2.0000     -10.286192      -279.9015
  13   2.0000     -10.284210      -279.8476
  14   2.0000     -10.282908      -279.8122
  15   2.0000     -10.272535      -279.5299
  16   2.0000      -8.081169      -219.8998
  17   2.0000      -8.079596      -219.8570
  18   2.0000      -6.039685      -164.3482
  19   2.0000      -6.037968      -164.3015
  20   2.0000      -6.035817      -164.2429
  21   2.0000      -6.034150      -164.1976
  22   2.0000      -6.031925      -164.1370
  23   2.0000      -6.030260      -164.0917
  24   2.0000      -1.012336       -27.5471
  25   2.0000      -0.987573       -26.8732
  26   2.0000      -0.915670       -24.9167
  27   2.0000      -0.900050       -24.4916
  28   2.0000      -0.872217       -23.7342
  29   2.0000      -0.850706       -23.1489
  30   2.0000      -0.841984       -22.9115
  31   2.0000      -0.816733       -22.2244
  32   2.0000      -0.781040       -21.2532
  33   2.0000      -0.768443       -20.9104
  34   2.0000      -0.710629       -19.3372
  35   2.0000      -0.697357       -18.9761
  36   2.0000      -0.689471       -18.7615
  37   2.0000      -0.664675       -18.0867
  38   2.0000      -0.641838       -17.4653
  39   2.0000      -0.618601       -16.8330
  40   2.0000      -0.582680       -15.8555
  41   2.0000      -0.569950       -15.5091
  42   2.0000      -0.552387       -15.0312
  43   2.0000      -0.548221       -14.9179
  44   2.0000      -0.545314       -14.8387
  45   2.0000      -0.541630       -14.7385
  46   2.0000      -0.522464       -14.2170
  47   2.0000      -0.514741       -14.0068
  48   2.0000      -0.503488       -13.7006
  49   2.0000      -0.493556       -13.4303
  50   2.0000      -0.481248       -13.0954
  51   2.0000      -0.473276       -12.8785
  52   2.0000      -0.471436       -12.8284
  53   2.0000      -0.465693       -12.6722
  54   2.0000      -0.460080       -12.5194
  55   2.0000      -0.444590       -12.0979
  56   2.0000      -0.441847       -12.0233
  57   2.0000      -0.435347       -11.8464
  58   2.0000      -0.430043       -11.7021
  59   2.0000      -0.426130       -11.5956
  60   2.0000      -0.422471       -11.4960
  61   2.0000      -0.418553       -11.3894
  62   2.0000      -0.408840       -11.1251
  63   2.0000      -0.343141        -9.3373
  64   2.0000      -0.334352        -9.0982
  65   2.0000      -0.323799        -8.8110
  66   2.0000      -0.300288        -8.1712
  67   0.0000       0.031084         0.8458
  68   0.0000       0.067209         1.8289
  69   0.0000       0.103058         2.8043
  70   0.0000       0.115160         3.1337
  71   0.0000       0.127166         3.4604

MULLIKEN ATOMIC CHARGES
-----------------------
   0 S :    0.090780
   1 C :   -0.108346
   2 C :   -0.100650
   3 C :    0.045603
   4 C :   -0.131138
   5 H :    0.009920
   6 C :    0.050150
   7 H :    0.033758
   8 H :    0.023060
   9 C :   -0.017305
  10 H :    0.025453
  11 H :    0.025233
  12 C :   -0.064515
  13 H :    0.014284
  14 H :    0.022359
  15 H :    0.034770
  16 S :    0.116114
  17 C :   -0.123290
  18 C :   -0.040744
  19 C :   -0.009137
  20 C :   -0.187554
  21 H :    0.028513
  22 C :   -0.009274
  23 H :    0.041573
  24 H :    0.023385
  25 C :   -0.021548
  26 H :    0.015734
  27 H :    0.033677
  28 C :   -0.088733
  29 H :    0.050946
  30 H :    0.049509
  31 H :    0.033184
  32 H :    0.059637
  33 H :    0.074592
Sum of atomic charges:    0.0000000

LOEWDIN ATOMIC CHARGES
----------------------
   0 S :    0.405084
   1 C :   -0.203517
   2 C :   -0.067154
   3 C :   -0.053654
   4 C :   -0.190603
   5 H :    0.030207
   6 C :   -0.030662
   7 H :    0.036574
   8 H :    0.029658
   9 C :   -0.039086
  10 H :    0.023604
  11 H :    0.027544
  12 C :   -0.065880
  13 H :    0.025250
  14 H :    0.010457
  15 H :    0.029629
  16 S :    0.422489
  17 C :   -0.192630
  18 C :   -0.065323
  19 C :   -0.060869
  20 C :   -0.208310
  21 H :    0.034676
  22 C :   -0.044948
  23 H :    0.036109
  24 H :    0.029335
  25 C :   -0.034010
  26 H :    0.006849
  27 H :    0.025942
  28 C :   -0.075643
  29 H :    0.033059
  30 H :    0.028794
  31 H :    0.027042
  32 H :    0.033898
  33 H :    0.036089

  Mayer bond orders larger than 0.100000
B(  0-S ,  1-C ) :   1.1293 B(  0-S ,  4-C ) :   1.1441 B(  1-C ,  2-C ) :   1.6192
B(  1-C , 32-H ) :   0.9612 B(  2-C ,  3-C ) :   1.2573 B(  2-C ,  6-C ) :   1.0156
B(  3-C ,  4-C ) :   1.5628 B(  3-C ,  5-H ) :   0.9983 B(  4-C , 20-C ) :   1.0032
B(  6-C ,  7-H ) :   0.9471 B(  6-C ,  8-H ) :   0.9347 B(  6-C ,  9-C ) :   1.0810
B(  9-C , 10-H ) :   0.9526 B(  9-C , 11-H ) :   0.9504 B(  9-C , 12-C ) :   1.0788
B( 12-C , 13-H ) :   0.9724 B( 12-C , 14-H ) :   0.9772 B( 12-C , 15-H ) :   0.9723
B( 16-S , 17-C ) :   1.1403 B( 16-S , 20-C ) :   1.1628 B( 17-C , 18-C ) :   1.6353
B( 17-C , 33-H ) :   0.9602 B( 18-C , 19-C ) :   1.1844 B( 18-C , 21-H ) :   0.9941
B( 19-C , 20-C ) :   1.6204 B( 19-C , 22-C ) :   1.0515 B( 22-C , 23-H ) :   0.9299
B( 22-C , 24-H ) :   0.9368 B( 22-C , 25-C ) :   1.0674 B( 25-C , 26-H ) :   0.9511
B( 25-C , 27-H ) :   0.9546 B( 25-C , 28-C ) :   1.0620 B( 28-C , 29-H ) :   0.9772
B( 28-C , 30-H ) :   0.9758 B( 28-C , 31-H ) :   0.9761

Dispersion correction           -0.015170653
FINAL SINGLE POINT ENERGY     -1339.876070035751

DIPOLE MOMENT
-------------
                                X             Y             Z
Electronic contribution:     15.84517       5.78815      -0.82192
Nuclear contribution   :    -16.33948      -5.63169       0.83691
                        -----------------------------------------
Total Dipole Moment    :     -0.49431       0.15646       0.01498
                        -----------------------------------------
Magnitude (a.u.)       :      0.51869
Magnitude (Debye)      :      1.31841

Rotational constants in cm-1:     0.022166     0.008291     0.007064
Rotational constants in MHz :   664.518609   248.563133   211.762866

                             ****ORCA TERMINATED NORMALLY****
TOTAL RUN TIME: 0 days 0 hours 0 minutes 22 seconds 852 msec
