                         Program Version 4.2.1 -  RELEASE  -
|  1> ! wB97X-D3 SP def2-SVP
|  2> %pal
|  3> nprocs 24
|  4> end
|  5>
|  6> * xyz 0 1
|  7> S 	 37.9156 	 -8.48511 	 -114.411
|  8> C 	 39.5505 	 -8.97133 	 -114.514
|  9> C 	 40.4569 	 -7.97801 	 -114.186
| 10> C 	 39.8031 	 -6.74223 	 -113.815
| 11> C 	 38.4687 	 -6.78973 	 -114.048
| 12> H 	 40.208 	 -5.7832 	 -113.439
| 13> C 	 42.0193 	 -8.07037 	 -114.3
| 14> H 	 42.5189 	 -7.12804 	 -114.064
| 15> H 	 42.2092 	 -8.27604 	 -115.369
| 16> C 	 42.655 	 -9.22958 	 -113.518
| 17> H 	 42.4063 	 -9.21872 	 -112.482
| 18> H 	 42.2902 	 -10.2329 	 -113.962
| 19> C 	 44.134 	 -9.2488 	 -113.571
| 20> H 	 44.4542 	 -10.0915 	 -112.898
| 21> H 	 44.524 	 -9.44395 	 -114.574
| 22> H 	 44.5192 	 -8.34415 	 -112.986
| 23> S 	 36.708 	 -5.13711 	 -115.355
| 24> C 	 35.7572 	 -4.04121 	 -114.325
| 25> C 	 36.0942 	 -4.12683 	 -113.012
| 26> C 	 37.0113 	 -5.1545 	 -112.764
| 27> C 	 37.4543 	 -5.75867 	 -113.893
| 28> H 	 35.6518 	 -3.33288 	 -112.311
| 29> C 	 37.4798 	 -5.43564 	 -111.36
| 30> H 	 37.3797 	 -4.44977 	 -110.843
| 31> H 	 38.5409 	 -5.64375 	 -111.476
| 32> C 	 36.8444 	 -6.64834 	 -110.714
| 33> H 	 37.4908 	 -7.00075 	 -109.876
| 34> H 	 36.7339 	 -7.39225 	 -111.473
| 35> C 	 35.5321 	 -6.1874 	 -110
| 36> H 	 35.7772 	 -5.37557 	 -109.273
| 37> H 	 35.1724 	 -7.07472 	 -109.41
| 38> H 	 34.761 	 -5.95855 	 -110.725
| 39> H 	 39.8515 	 -10.004 	 -114.656
| 40> H 	 35.0434 	 -3.38977 	 -114.777
| 41> *
| 42>
| 43>                          ****END OF INPUT****

CARTESIAN COORDINATES (ANGSTROEM)
---------------------------------
  S     37.915600   -8.485110  -114.411000
  C     39.550500   -8.971330  -114.514000
  C     40.456900   -7.978010  -114.186000
  C     39.803100   -6.742230  -113.815000
  C     38.468700   -6.789730  -114.048000
  H     40.208000   -5.783200  -113.439000
  C     42.019300   -8.070370  -114.300000
  H     42.518900   -7.128040  -114.064000
  H     42.209200   -8.276040  -115.369000
  C     42.655000   -9.229580  -113.518000
  H     42.406300   -9.218720  -112.482000
  H     42.290200  -10.232900  -113.962000
  C     44.134000   -9.248800  -113.571000
  H     44.454200  -10.091500  -112.898000
  H     44.524000   -9.443950  -114.574000
  H     44.519200   -8.344150  -112.986000
  S     36.708000   -5.137110  -115.355000
  C     35.757200   -4.041210  -114.325000
  C     36.094200   -4.126830  -113.012000
  C     37.011300   -5.154500  -112.764000
  C     37.454300   -5.758670  -113.893000
  H     35.651800   -3.332880  -112.311000
  C     37.479800   -5.435640  -111.360000
  H     37.379700   -4.449770  -110.843000
  H     38.540900   -5.643750  -111.476000
  C     36.844400   -6.648340  -110.714000
  H     37.490800   -7.000750  -109.876000
  H     36.733900   -7.392250  -111.473000
  C     35.532100   -6.187400  -110.000000
  H     35.777200   -5.375570  -109.273000
  H     35.172400   -7.074720  -109.410000
  H     34.761000   -5.958550  -110.725000
  H     39.851500  -10.004000  -114.656000
  H     35.043400   -3.389770  -114.777000

 Total Charge           Charge          ....    0
 Multiplicity           Mult            ....    1
 Number of Electrons    NEL             ....  134
 Basis Dimension        Dim             ....  322

ORBITAL ENERGIES
----------------

  NO   OCC          E(Eh)            E(eV)
   0   2.0000     -88.964038     -2420.8345
   1   2.0000     -88.962437     -2420.7910
   2   2.0000     -10.326926      -281.0099
   3   2.0000     -10.317883      -280.7639
   4   2.0000     -10.314249      -280.6650
   5   2.0000     -10.311382      -280.5870
   6   2.0000     -10.305745      -280.4336
   7   2.0000     -10.298779      -280.2440
   8   2.0000     -10.297160      -280.2000
   9   2.0000     -10.294506      -280.1278
  10   2.0000     -10.294070      -280.1159
  11   2.0000     -10.286848      -279.9194
  12   2.0000     -10.285174      -279.8738
  13   2.0000     -10.284874      -279.8657
  14   2.0000     -10.283232      -279.8210
  15   2.0000     -10.280116      -279.7362
  16   2.0000      -8.078550      -219.8285
  17   2.0000      -8.077120      -219.7896
  18   2.0000      -6.036987      -164.2748
  19   2.0000      -6.035501      -164.2343
  20   2.0000      -6.033255      -164.1732
  21   2.0000      -6.031793      -164.1334
  22   2.0000      -6.029229      -164.0636
  23   2.0000      -6.027862      -164.0265
  24   2.0000      -1.007186       -27.4069
  25   2.0000      -0.983938       -26.7743
  26   2.0000      -0.911144       -24.7935
  27   2.0000      -0.908864       -24.7314
  28   2.0000      -0.871275       -23.7086
  29   2.0000      -0.851605       -23.1733
  30   2.0000      -0.845476       -23.0066
  31   2.0000      -0.815084       -22.1796
  32   2.0000      -0.777947       -21.1690
  33   2.0000      -0.765239       -20.8232
  34   2.0000      -0.704778       -19.1780
  35   2.0000      -0.691388       -18.8136
  36   2.0000      -0.684214       -18.6184
  37   2.0000      -0.660885       -17.9836
  38   2.0000      -0.645403       -17.5623
  39   2.0000      -0.611876       -16.6500
  40   2.0000      -0.593093       -16.1389
  41   2.0000      -0.574048       -15.6206
  42   2.0000      -0.560548       -15.2533
  43   2.0000      -0.551119       -14.9967
  44   2.0000      -0.544361       -14.8128
  45   2.0000      -0.522535       -14.2189
  46   2.0000      -0.515091       -14.0163
  47   2.0000      -0.510640       -13.8952
  48   2.0000      -0.500443       -13.6177
  49   2.0000      -0.492197       -13.3934
  50   2.0000      -0.482534       -13.1304
  51   2.0000      -0.478455       -13.0194
  52   2.0000      -0.475071       -12.9273
  53   2.0000      -0.464875       -12.6499
  54   2.0000      -0.461234       -12.5508
  55   2.0000      -0.446808       -12.1583
  56   2.0000      -0.445192       -12.1143
  57   2.0000      -0.434933       -11.8351
  58   2.0000      -0.428229       -11.6527
  59   2.0000      -0.423130       -11.5140
  60   2.0000      -0.417981       -11.3738
  61   2.0000      -0.412542       -11.2258
  62   2.0000      -0.407483       -11.0882
  63   2.0000      -0.342893        -9.3306
  64   2.0000      -0.333429        -9.0731
  65   2.0000      -0.322351        -8.7716
  66   2.0000      -0.300151        -8.1675
  67   0.0000       0.040870         1.1121
  68   0.0000       0.058034         1.5792
  69   0.0000       0.109175         2.9708
  70   0.0000       0.112930         3.0730
  71   0.0000       0.128237         3.4895

MULLIKEN ATOMIC CHARGES
-----------------------
   0 S :    0.106419
   1 C :   -0.112788
   2 C :   -0.077872
   3 C :    0.049010
   4 C :   -0.195265
   5 H :    0.032788
   6 C :    0.071016
   7 H :    0.019342
   8 H :    0.040628
   9 C :   -0.107066
  10 H :    0.024922
  11 H :    0.030792
  12 C :   -0.059810
  13 H :    0.034860
  14 H :    0.041341
  15 H :    0.039129
  16 S :    0.104972
  17 C :   -0.097303
  18 C :   -0.056899
  19 C :   -0.032750
  20 C :   -0.189654
  21 H :    0.050552
  22 C :    0.090049
  23 H :    0.024378
  24 H :    0.010158
  25 C :   -0.040403
  26 H :    0.034725
  27 H :    0.029062
  28 C :   -0.077510
  29 H :    0.038994
  30 H :    0.036680
  31 H :    0.042661
  32 H :    0.049485
  33 H :    0.045355
Sum of atomic charges:    0.0000000

LOEWDIN ATOMIC CHARGES
----------------------
   0 S :    0.389000
   1 C :   -0.207405
   2 C :   -0.062626
   3 C :   -0.058160
   4 C :   -0.173458
   5 H :    0.042226
   6 C :   -0.031298
   7 H :    0.026888
   8 H :    0.037754
   9 C :   -0.051455
  10 H :    0.019770
  11 H :    0.027496
  12 C :   -0.072856
  13 H :    0.032655
  14 H :    0.024787
  15 H :    0.032703
  16 S :    0.388437
  17 C :   -0.163828
  18 C :   -0.083514
  19 C :   -0.059702
  20 C :   -0.208701
  21 H :    0.049966
  22 C :   -0.033434
  23 H :    0.031833
  24 H :    0.028499
  25 C :   -0.033073
  26 H :    0.029136
  27 H :    0.020513
  28 C :   -0.069458
  29 H :    0.028781
  30 H :    0.028224
  31 H :    0.022930
  32 H :    0.027064
  33 H :    0.020304

  Mayer bond orders larger than 0.100000
B(  0-S ,  1-C ) :   1.1411 B(  0-S ,  4-C ) :   1.1262 B(  1-C ,  2-C ) :   1.6397
B(  1-C , 32-H ) :   0.9650 B(  2-C ,  3-C ) :   1.2023 B(  2-C ,  6-C ) :   1.0052
B(  3-C ,  4-C ) :   1.6465 B(  3-C ,  5-H ) :   0.9838 B(  4-C , 20-C ) :   1.0082
B(  6-C ,  7-H ) :   0.9505 B(  6-C ,  8-H ) :   0.9404 B(  6-C ,  9-C ) :   1.0601
B(  9-C , 10-H ) :   0.9587 B(  9-C , 11-H ) :   0.9490 B(  9-C , 12-C ) :   1.1038
B( 12-C , 13-H ) :   0.9709 B( 12-C , 14-H ) :   0.9720 B( 12-C , 15-H ) :   0.9685
B( 16-S , 17-C ) :   1.1491 B( 16-S , 20-C ) :   1.1379 B( 17-C , 18-C ) :   1.6316
B( 17-C , 33-H ) :   0.9708 B( 18-C , 19-C ) :   1.2228 B( 18-C , 21-H ) :   0.9759
B( 19-C , 20-C ) :   1.6340 B( 19-C , 22-C ) :   1.0305 B( 22-C , 23-H ) :   0.9377
B( 22-C , 24-H ) :   0.9178 B( 22-C , 25-C ) :   1.0664 B( 25-C , 26-H ) :   0.9556
B( 25-C , 27-H ) :   0.9532 B( 25-C , 28-C ) :   1.0749 B( 28-C , 29-H ) :   0.9756
B( 28-C , 30-H ) :   0.9760 B( 28-C , 31-H ) :   0.9773

Dispersion correction           -0.014402502
FINAL SINGLE POINT ENERGY     -1339.875580206121

DIPOLE MOMENT
-------------
                                X             Y             Z
Electronic contribution:    -15.72056       5.71402     -17.61767
Nuclear contribution   :     16.14018      -5.60799      18.04103
                        -----------------------------------------
Total Dipole Moment    :      0.41962       0.10603       0.42336
                        -----------------------------------------
Magnitude (a.u.)       :      0.60544
Magnitude (Debye)      :      1.53890

Rotational constants in cm-1:     0.022096     0.007357     0.006475
Rotational constants in MHz :   662.414697   220.543195   194.118066

                             ****ORCA TERMINATED NORMALLY****
TOTAL RUN TIME: 0 days 0 hours 0 minutes 21 seconds 455 msec
