                         Program Version 4.2.1 -  RELEASE  -
|  1> ! wB97X-D3 SP def2-SVP
|  2> %pal
|  3> nprocs 24
|  4> end
|  5>
|  6> * xyz 0 1
|  7> S 	 -43.7511 	 10.1074 	 30.0655
|  8> C 	 -45.488 	 10.307 	 29.9669
|  9> C 	 -45.9981 	 10.4164 	 28.6775
| 10> C 	 -44.9211 	 10.3592 	 27.7158
| 11> C 	 -43.6808 	 10.4692 	 28.3326
| 12> H 	 -45.0754 	 10.4253 	 26.6446
| 13> C 	 -47.4297 	 10.5546 	 28.3718
| 14> H 	 -47.9789 	 10.0674 	 29.1681
| 15> H 	 -47.5779 	 9.81064 	 27.528
| 16> C 	 -47.9991 	 11.9742 	 28.1295
| 17> H 	 -49.0083 	 12.0736 	 28.4905
| 18> H 	 -47.3669 	 12.694 	 28.7162
| 19> C 	 -47.9637 	 12.3149 	 26.668
| 20> H 	 -48.7412 	 13.0765 	 26.4981
| 21> H 	 -47.0688 	 12.7728 	 26.3299
| 22> H 	 -48.2228 	 11.416 	 26.0636
| 23> S 	 -41.3069 	 9.1295 	 28.0638
| 24> C 	 -40.3219 	 9.54075 	 26.7174
| 25> C 	 -40.7653 	 10.6073 	 25.9506
| 26> C 	 -42.0071 	 11.0559 	 26.4522
| 27> C 	 -42.4279 	 10.3571 	 27.5587
| 28> H 	 -40.2059 	 11.0546 	 25.0524
| 29> C 	 -42.7523 	 12.1409 	 25.7267
| 30> H 	 -42.2731 	 13.0278 	 25.9201
| 31> H 	 -43.8526 	 12.3042 	 26.1121
| 32> C 	 -42.7764 	 11.9385 	 24.1305
| 33> H 	 -41.7315 	 11.782 	 23.7751
| 34> H 	 -42.991 	 12.8757 	 23.7399
| 35> C 	 -43.8042 	 10.8799 	 23.7162
| 36> H 	 -43.7394 	 10.7882 	 22.6307
| 37> H 	 -44.8482 	 11.2678 	 23.8156
| 38> H 	 -43.6422 	 9.83947 	 24.0829
| 39> H 	 -46.0837 	 10.4289 	 30.8291
| 40> H 	 -39.3769 	 8.97073 	 26.3974
| 41> *
| 42>
| 43>                          ****END OF INPUT****

CARTESIAN COORDINATES (ANGSTROEM)
---------------------------------
  S    -43.751100   10.107400   30.065500
  C    -45.488000   10.307000   29.966900
  C    -45.998100   10.416400   28.677500
  C    -44.921100   10.359200   27.715800
  C    -43.680800   10.469200   28.332600
  H    -45.075400   10.425300   26.644600
  C    -47.429700   10.554600   28.371800
  H    -47.978900   10.067400   29.168100
  H    -47.577900    9.810640   27.528000
  C    -47.999100   11.974200   28.129500
  H    -49.008300   12.073600   28.490500
  H    -47.366900   12.694000   28.716200
  C    -47.963700   12.314900   26.668000
  H    -48.741200   13.076500   26.498100
  H    -47.068800   12.772800   26.329900
  H    -48.222800   11.416000   26.063600
  S    -41.306900    9.129500   28.063800
  C    -40.321900    9.540750   26.717400
  C    -40.765300   10.607300   25.950600
  C    -42.007100   11.055900   26.452200
  C    -42.427900   10.357100   27.558700
  H    -40.205900   11.054600   25.052400
  C    -42.752300   12.140900   25.726700
  H    -42.273100   13.027800   25.920100
  H    -43.852600   12.304200   26.112100
  C    -42.776400   11.938500   24.130500
  H    -41.731500   11.782000   23.775100
  H    -42.991000   12.875700   23.739900
  C    -43.804200   10.879900   23.716200
  H    -43.739400   10.788200   22.630700
  H    -44.848200   11.267800   23.815600
  H    -43.642200    9.839470   24.082900
  H    -46.083700   10.428900   30.829100
  H    -39.376900    8.970730   26.397400

 Total Charge           Charge          ....    0
 Multiplicity           Mult            ....    1
 Number of Electrons    NEL             ....  134
 Basis Dimension        Dim             ....  322

ORBITAL ENERGIES
----------------

  NO   OCC          E(Eh)            E(eV)
   0   2.0000     -88.967132     -2420.9187
   1   2.0000     -88.966586     -2420.9039
   2   2.0000     -10.328483      -281.0523
   3   2.0000     -10.318550      -280.7820
   4   2.0000     -10.317737      -280.7599
   5   2.0000     -10.307148      -280.4718
   6   2.0000     -10.297719      -280.2152
   7   2.0000     -10.296066      -280.1702
   8   2.0000     -10.295082      -280.1434
   9   2.0000     -10.293016      -280.0872
  10   2.0000     -10.291491      -280.0457
  11   2.0000     -10.290742      -280.0253
  12   2.0000     -10.290621      -280.0220
  13   2.0000     -10.288794      -279.9723
  14   2.0000     -10.285017      -279.8695
  15   2.0000     -10.276085      -279.6265
  16   2.0000      -8.082095      -219.9250
  17   2.0000      -8.081515      -219.9092
  18   2.0000      -6.040427      -164.3684
  19   2.0000      -6.040010      -164.3570
  20   2.0000      -6.036705      -164.2671
  21   2.0000      -6.036399      -164.2588
  22   2.0000      -6.032793      -164.1606
  23   2.0000      -6.032016      -164.1395
  24   2.0000      -1.007326       -27.4107
  25   2.0000      -0.982814       -26.7437
  26   2.0000      -0.914299       -24.8793
  27   2.0000      -0.904227       -24.6053
  28   2.0000      -0.865179       -23.5427
  29   2.0000      -0.853153       -23.2155
  30   2.0000      -0.847713       -23.0674
  31   2.0000      -0.810795       -22.0628
  32   2.0000      -0.781578       -21.2678
  33   2.0000      -0.766632       -20.8611
  34   2.0000      -0.706778       -19.2324
  35   2.0000      -0.702749       -19.1228
  36   2.0000      -0.688149       -18.7255
  37   2.0000      -0.656115       -17.8538
  38   2.0000      -0.635535       -17.2938
  39   2.0000      -0.615149       -16.7391
  40   2.0000      -0.593179       -16.1412
  41   2.0000      -0.568566       -15.4715
  42   2.0000      -0.554958       -15.1012
  43   2.0000      -0.550260       -14.9733
  44   2.0000      -0.537840       -14.6354
  45   2.0000      -0.534425       -14.5424
  46   2.0000      -0.513652       -13.9772
  47   2.0000      -0.506111       -13.7720
  48   2.0000      -0.497029       -13.5249
  49   2.0000      -0.489575       -13.3220
  50   2.0000      -0.486505       -13.2385
  51   2.0000      -0.478700       -13.0261
  52   2.0000      -0.468328       -12.7439
  53   2.0000      -0.461040       -12.5455
  54   2.0000      -0.458764       -12.4836
  55   2.0000      -0.456874       -12.4322
  56   2.0000      -0.446570       -12.1518
  57   2.0000      -0.436939       -11.8897
  58   2.0000      -0.433679       -11.8010
  59   2.0000      -0.425360       -11.5746
  60   2.0000      -0.422074       -11.4852
  61   2.0000      -0.414445       -11.2776
  62   2.0000      -0.413365       -11.2482
  63   2.0000      -0.347172        -9.4470
  64   2.0000      -0.333096        -9.0640
  65   2.0000      -0.326369        -8.8810
  66   2.0000      -0.281776        -7.6675
  67   0.0000       0.032083         0.8730
  68   0.0000       0.070350         1.9143
  69   0.0000       0.100533         2.7357
  70   0.0000       0.122548         3.3347
  71   0.0000       0.126867         3.4522

MULLIKEN ATOMIC CHARGES
-----------------------
   0 S :    0.098442
   1 C :   -0.097871
   2 C :   -0.099077
   3 C :    0.023434
   4 C :   -0.130628
   5 H :    0.016920
   6 C :    0.028791
   7 H :    0.014518
   8 H :    0.036780
   9 C :   -0.039187
  10 H :    0.029260
  11 H :    0.040289
  12 C :   -0.050298
  13 H :    0.027491
  14 H :    0.032689
  15 H :    0.033623
  16 S :    0.123374
  17 C :   -0.120858
  18 C :   -0.067838
  19 C :   -0.034874
  20 C :   -0.157813
  21 H :    0.052552
  22 C :    0.046348
  23 H :    0.012275
  24 H :    0.036393
  25 C :   -0.057654
  26 H :    0.024976
  27 H :    0.007434
  28 C :   -0.058798
  29 H :    0.025142
  30 H :    0.038751
  31 H :    0.060739
  32 H :    0.029193
  33 H :    0.075484
Sum of atomic charges:    0.0000000

LOEWDIN ATOMIC CHARGES
----------------------
   0 S :    0.386591
   1 C :   -0.189601
   2 C :   -0.061638
   3 C :   -0.056210
   4 C :   -0.180513
   5 H :    0.030320
   6 C :   -0.042970
   7 H :    0.029959
   8 H :    0.039225
   9 C :   -0.038619
  10 H :    0.023702
  11 H :    0.034288
  12 C :   -0.067098
  13 H :    0.028616
  14 H :    0.019145
  15 H :    0.027974
  16 S :    0.420987
  17 C :   -0.208018
  18 C :   -0.082785
  19 C :   -0.065568
  20 C :   -0.203789
  21 H :    0.047476
  22 C :   -0.029634
  23 H :    0.018193
  24 H :    0.038745
  25 C :   -0.031740
  26 H :    0.023480
  27 H :    0.014533
  28 C :   -0.076304
  29 H :    0.026904
  30 H :    0.031638
  31 H :    0.035306
  32 H :    0.015329
  33 H :    0.042072

  Mayer bond orders larger than 0.100000
B(  0-S ,  1-C ) :   1.1268 B(  0-S ,  4-C ) :   1.1437 B(  1-C ,  2-C ) :   1.6210
B(  1-C , 32-H ) :   0.9684 B(  2-C ,  3-C ) :   1.2279 B(  2-C ,  6-C ) :   1.0396
B(  3-C ,  4-C ) :   1.5687 B(  3-C ,  5-H ) :   0.9871 B(  4-C , 20-C ) :   1.0298
B(  6-C ,  7-H ) :   0.9331 B(  6-C ,  8-H ) :   0.9433 B(  6-C ,  9-C ) :   1.0429
B(  9-C , 10-H ) :   0.9599 B(  9-C , 11-H ) :   0.9545 B(  9-C , 12-C ) :   1.0810
B( 12-C , 13-H ) :   0.9725 B( 12-C , 14-H ) :   0.9766 B( 12-C , 15-H ) :   0.9764
B( 16-S , 17-C ) :   1.1671 B( 16-S , 20-C ) :   1.1341 B( 17-C , 18-C ) :   1.6139
B( 17-C , 33-H ) :   0.9529 B( 18-C , 19-C ) :   1.2476 B( 18-C , 21-H ) :   0.9743
B( 19-C , 20-C ) :   1.6248 B( 19-C , 22-C ) :   1.0349 B( 22-C , 23-H ) :   0.9236
B( 22-C , 24-H ) :   0.9407 B( 22-C , 25-C ) :   1.0744 B( 25-C , 26-H ) :   0.9543
B( 25-C , 27-H ) :   0.9512 B( 25-C , 28-C ) :   1.0764 B( 28-C , 29-H ) :   0.9695
B( 28-C , 30-H ) :   0.9695 B( 28-C , 31-H ) :   0.9733

Dispersion correction           -0.015079322
FINAL SINGLE POINT ENERGY     -1339.863248804301

DIPOLE MOMENT
-------------
                                X             Y             Z
Electronic contribution:     19.59947     -12.38772      20.88135
Nuclear contribution   :    -20.01908      12.71915     -21.47393
                        -----------------------------------------
Total Dipole Moment    :     -0.41961       0.33143      -0.59258
                        -----------------------------------------
Magnitude (a.u.)       :      0.79817
Magnitude (Debye)      :      2.02877

Rotational constants in cm-1:     0.017699     0.010380     0.006982
Rotational constants in MHz :   530.593853   311.186871   209.322026

                             ****ORCA TERMINATED NORMALLY****
TOTAL RUN TIME: 0 days 0 hours 0 minutes 22 seconds 496 msec
