                         Program Version 4.2.1 -  RELEASE  -
|  1> ! wB97X-D3 SP def2-SVP
|  2> %pal
|  3> nprocs 24
|  4> end
|  5>
|  6> * xyz 0 1
|  7> S 	 -81.3424 	 -1.77634 	 -59.8403
|  8> C 	 -79.7391 	 -1.04985 	 -59.4362
|  9> C 	 -78.7613 	 -2.04578 	 -59.2478
| 10> C 	 -79.3009 	 -3.36642 	 -59.4121
| 11> C 	 -80.658 	 -3.35835 	 -59.7626
| 12> H 	 -78.7148 	 -4.2336 	 -59.4059
| 13> C 	 -77.2199 	 -1.9067 	 -59.044
| 14> H 	 -76.751 	 -1.02323 	 -59.5541
| 15> H 	 -76.7645 	 -2.74931 	 -59.5873
| 16> C 	 -76.7649 	 -1.87612 	 -57.5772
| 17> H 	 -77.1514 	 -0.863058 	 -57.2835
| 18> H 	 -77.2009 	 -2.67704 	 -57.0084
| 19> C 	 -75.2573 	 -2.05739 	 -57.387
| 20> H 	 -74.7317 	 -1.22619 	 -57.8236
| 21> H 	 -74.8722 	 -2.26699 	 -56.3418
| 22> H 	 -74.9331 	 -2.90824 	 -57.9598
| 23> S 	 -81.7413 	 -5.77281 	 -58.8432
| 24> C 	 -82.4962 	 -6.87609 	 -60.0291
| 25> C 	 -82.2913 	 -6.41684 	 -61.2972
| 26> C 	 -81.6377 	 -5.13586 	 -61.2997
| 27> C 	 -81.352 	 -4.61344 	 -60.0608
| 28> H 	 -82.6443 	 -6.99328 	 -62.1494
| 29> C 	 -81.4668 	 -4.38248 	 -62.5819
| 30> H 	 -80.8596 	 -5.12817 	 -63.1295
| 31> H 	 -80.713 	 -3.50957 	 -62.5238
| 32> C 	 -82.8061 	 -3.95343 	 -63.348
| 33> H 	 -83.4914 	 -4.79683 	 -63.4886
| 34> H 	 -82.5316 	 -3.43589 	 -64.3104
| 35> C 	 -83.6528 	 -2.97319 	 -62.6626
| 36> H 	 -84.3272 	 -3.32021 	 -61.9502
| 37> H 	 -84.2754 	 -2.38466 	 -63.3765
| 38> H 	 -83.1367 	 -2.28287 	 -62.0374
| 39> H 	 -79.3921 	 -0.0801074 	 -59.2212
| 40> H 	 -83.1905 	 -7.67203 	 -59.8424
| 41> *
| 42>
| 43>                          ****END OF INPUT****

CARTESIAN COORDINATES (ANGSTROEM)
---------------------------------
  S    -81.342400   -1.776340  -59.840300
  C    -79.739100   -1.049850  -59.436200
  C    -78.761300   -2.045780  -59.247800
  C    -79.300900   -3.366420  -59.412100
  C    -80.658000   -3.358350  -59.762600
  H    -78.714800   -4.233600  -59.405900
  C    -77.219900   -1.906700  -59.044000
  H    -76.751000   -1.023230  -59.554100
  H    -76.764500   -2.749310  -59.587300
  C    -76.764900   -1.876120  -57.577200
  H    -77.151400   -0.863058  -57.283500
  H    -77.200900   -2.677040  -57.008400
  C    -75.257300   -2.057390  -57.387000
  H    -74.731700   -1.226190  -57.823600
  H    -74.872200   -2.266990  -56.341800
  H    -74.933100   -2.908240  -57.959800
  S    -81.741300   -5.772810  -58.843200
  C    -82.496200   -6.876090  -60.029100
  C    -82.291300   -6.416840  -61.297200
  C    -81.637700   -5.135860  -61.299700
  C    -81.352000   -4.613440  -60.060800
  H    -82.644300   -6.993280  -62.149400
  C    -81.466800   -4.382480  -62.581900
  H    -80.859600   -5.128170  -63.129500
  H    -80.713000   -3.509570  -62.523800
  C    -82.806100   -3.953430  -63.348000
  H    -83.491400   -4.796830  -63.488600
  H    -82.531600   -3.435890  -64.310400
  C    -83.652800   -2.973190  -62.662600
  H    -84.327200   -3.320210  -61.950200
  H    -84.275400   -2.384660  -63.376500
  H    -83.136700   -2.282870  -62.037400
  H    -79.392100   -0.080107  -59.221200
  H    -83.190500   -7.672030  -59.842400

 Total Charge           Charge          ....    0
 Multiplicity           Mult            ....    1
 Number of Electrons    NEL             ....  134
 Basis Dimension        Dim             ....  322

ORBITAL ENERGIES
----------------

  NO   OCC          E(Eh)            E(eV)
   0   2.0000     -88.979596     -2421.2579
   1   2.0000     -88.963615     -2420.8230
   2   2.0000     -10.331833      -281.1435
   3   2.0000     -10.322181      -280.8808
   4   2.0000     -10.318428      -280.7787
   5   2.0000     -10.317702      -280.7589
   6   2.0000     -10.307608      -280.4843
   7   2.0000     -10.301802      -280.3263
   8   2.0000     -10.299203      -280.2556
   9   2.0000     -10.296703      -280.1875
  10   2.0000     -10.294820      -280.1363
  11   2.0000     -10.291975      -280.0589
  12   2.0000     -10.290139      -280.0089
  13   2.0000     -10.289577      -279.9936
  14   2.0000     -10.280536      -279.7476
  15   2.0000     -10.259585      -279.1775
  16   2.0000      -8.092340      -220.2038
  17   2.0000      -8.078223      -219.8196
  18   2.0000      -6.051090      -164.6585
  19   2.0000      -6.047052      -164.5487
  20   2.0000      -6.043022      -164.4390
  21   2.0000      -6.036871      -164.2716
  22   2.0000      -6.032725      -164.1588
  23   2.0000      -6.028845      -164.0532
  24   2.0000      -1.005826       -27.3699
  25   2.0000      -0.980864       -26.6907
  26   2.0000      -0.910250       -24.7692
  27   2.0000      -0.903229       -24.5781
  28   2.0000      -0.870433       -23.6857
  29   2.0000      -0.852563       -23.1994
  30   2.0000      -0.850493       -23.1431
  31   2.0000      -0.814241       -22.1566
  32   2.0000      -0.782365       -21.2892
  33   2.0000      -0.767739       -20.8912
  34   2.0000      -0.708400       -19.2766
  35   2.0000      -0.697695       -18.9852
  36   2.0000      -0.693255       -18.8644
  37   2.0000      -0.660332       -17.9686
  38   2.0000      -0.638013       -17.3612
  39   2.0000      -0.618769       -16.8376
  40   2.0000      -0.591905       -16.1066
  41   2.0000      -0.572563       -15.5802
  42   2.0000      -0.567455       -15.4412
  43   2.0000      -0.547655       -14.9025
  44   2.0000      -0.543172       -14.7805
  45   2.0000      -0.523414       -14.2428
  46   2.0000      -0.519052       -14.1241
  47   2.0000      -0.508916       -13.8483
  48   2.0000      -0.504609       -13.7311
  49   2.0000      -0.496065       -13.4986
  50   2.0000      -0.490266       -13.3408
  51   2.0000      -0.478739       -13.0271
  52   2.0000      -0.466407       -12.6916
  53   2.0000      -0.463415       -12.6102
  54   2.0000      -0.456005       -12.4085
  55   2.0000      -0.454815       -12.3761
  56   2.0000      -0.441695       -12.0191
  57   2.0000      -0.433885       -11.8066
  58   2.0000      -0.429132       -11.6773
  59   2.0000      -0.425600       -11.5812
  60   2.0000      -0.418600       -11.3907
  61   2.0000      -0.410714       -11.1761
  62   2.0000      -0.405757       -11.0412
  63   2.0000      -0.338851        -9.2206
  64   2.0000      -0.336067        -9.1448
  65   2.0000      -0.323972        -8.8157
  66   2.0000      -0.302179        -8.2227
  67   0.0000       0.040220         1.0944
  68   0.0000       0.054157         1.4737
  69   0.0000       0.100321         2.7299
  70   0.0000       0.116212         3.1623
  71   0.0000       0.129652         3.5280

MULLIKEN ATOMIC CHARGES
-----------------------
   0 S :    0.141878
   1 C :   -0.086090
   2 C :   -0.080831
   3 C :    0.049175
   4 C :   -0.170386
   5 H :   -0.001054
   6 C :    0.001200
   7 H :    0.034638
   8 H :    0.023552
   9 C :   -0.059113
  10 H :    0.035053
  11 H :    0.031910
  12 C :   -0.044040
  13 H :    0.023101
  14 H :    0.050738
  15 H :    0.017629
  16 S :    0.103109
  17 C :   -0.092070
  18 C :   -0.032101
  19 C :   -0.030488
  20 C :   -0.154896
  21 H :    0.028477
  22 C :    0.018806
  23 H :    0.030873
  24 H :    0.047516
  25 C :   -0.054283
  26 H :    0.032139
  27 H :    0.043679
  28 C :   -0.026150
  29 H :    0.011504
  30 H :    0.030723
  31 H :   -0.001245
  32 H :    0.021034
  33 H :    0.056013
Sum of atomic charges:    0.0000000

LOEWDIN ATOMIC CHARGES
----------------------
   0 S :    0.426109
   1 C :   -0.191095
   2 C :   -0.051541
   3 C :   -0.051779
   4 C :   -0.199781
   5 H :    0.022931
   6 C :   -0.035802
   7 H :    0.032687
   8 H :    0.026831
   9 C :   -0.041831
  10 H :    0.029121
  11 H :    0.022890
  12 C :   -0.070429
  13 H :    0.020893
  14 H :    0.036069
  15 H :    0.022007
  16 S :    0.396534
  17 C :   -0.171030
  18 C :   -0.068195
  19 C :   -0.064339
  20 C :   -0.213435
  21 H :    0.036020
  22 C :   -0.045412
  23 H :    0.035350
  24 H :    0.039366
  25 C :   -0.041333
  26 H :    0.026616
  27 H :    0.035306
  28 C :   -0.074196
  29 H :    0.016318
  30 H :    0.033164
  31 H :    0.008981
  32 H :    0.022152
  33 H :    0.030852

  Mayer bond orders larger than 0.100000
B(  0-S ,  1-C ) :   1.1221 B(  0-S ,  4-C ) :   1.1591 B(  1-C ,  2-C ) :   1.6292
B(  1-C , 32-H ) :   0.9673 B(  2-C ,  3-C ) :   1.2465 B(  2-C ,  6-C ) :   1.0103
B(  3-C ,  4-C ) :   1.5710 B(  3-C ,  5-H ) :   0.9970 B(  4-C , 20-C ) :   1.0148
B(  6-C ,  7-H ) :   0.9510 B(  6-C ,  8-H ) :   0.9470 B(  6-C ,  9-C ) :   1.0488
B(  9-C , 10-H ) :   0.9585 B(  9-C , 11-H ) :   0.9600 B(  9-C , 12-C ) :   1.0757
B( 12-C , 13-H ) :   0.9737 B( 12-C , 14-H ) :   0.9760 B( 12-C , 15-H ) :   0.9713
B( 16-S , 17-C ) :   1.1442 B( 16-S , 20-C ) :   1.1254 B( 17-C , 18-C ) :   1.6342
B( 17-C , 33-H ) :   0.9660 B( 18-C , 19-C ) :   1.2205 B( 18-C , 21-H ) :   0.9890
B( 19-C , 20-C ) :   1.6115 B( 19-C , 22-C ) :   1.0433 B( 22-C , 23-H ) :   0.9318
B( 22-C , 24-H ) :   0.9372 B( 22-C , 25-C ) :   1.0597 B( 25-C , 26-H ) :   0.9584
B( 25-C , 27-H ) :   0.9588 B( 25-C , 28-C ) :   1.0735 B( 28-C , 29-H ) :   0.9695
B( 28-C , 30-H ) :   0.9703 B( 28-C , 31-H ) :   0.9659

Dispersion correction           -0.014918686
FINAL SINGLE POINT ENERGY     -1339.855615449693

DIPOLE MOMENT
-------------
                                X             Y             Z
Electronic contribution:    -12.92018      -6.82263       6.10328
Nuclear contribution   :     13.24036       6.75868      -6.42266
                        -----------------------------------------
Total Dipole Moment    :      0.32017      -0.06395      -0.31939
                        -----------------------------------------
Magnitude (a.u.)       :      0.45673
Magnitude (Debye)      :      1.16093

Rotational constants in cm-1:     0.022263     0.007681     0.006522
Rotational constants in MHz :   667.439445   230.279422   195.522974

                             ****ORCA TERMINATED NORMALLY****
TOTAL RUN TIME: 0 days 0 hours 0 minutes 20 seconds 370 msec
