                         Program Version 4.2.1 -  RELEASE  -
|  1> ! wB97X-D3 SP def2-SVP
|  2> %pal
|  3> nprocs 24
|  4> end
|  5>
|  6> * xyz 0 1
|  7> S 	 -43.2539 	 -53.1088 	 -71.1901
|  8> C 	 -41.6136 	 -52.4914 	 -71.6133
|  9> C 	 -41.0111 	 -53.199 	 -72.6035
| 10> C 	 -41.8424 	 -54.3408 	 -72.9809
| 11> C 	 -43.1138 	 -54.4334 	 -72.337
| 12> H 	 -41.6439 	 -55.2033 	 -73.6831
| 13> C 	 -39.6017 	 -52.8218 	 -73.2326
| 14> H 	 -39.4316 	 -51.7439 	 -73.1111
| 15> H 	 -39.8078 	 -52.9926 	 -74.2628
| 16> C 	 -38.3479 	 -53.5969 	 -72.727
| 17> H 	 -38.4264 	 -54.6717 	 -73.0109
| 18> H 	 -37.5426 	 -53.2793 	 -73.3252
| 19> C 	 -37.8428 	 -53.5396 	 -71.2975
| 20> H 	 -37.805 	 -52.5166 	 -70.932
| 21> H 	 -38.519 	 -54.0077 	 -70.5585
| 22> H 	 -36.8387 	 -53.9574 	 -71.224
| 23> S 	 -45.2474 	 -54.8331 	 -73.9791
| 24> C 	 -46.124 	 -56.3084 	 -73.7736
| 25> C 	 -45.7416 	 -57.0299 	 -72.6556
| 26> C 	 -44.5811 	 -56.4845 	 -72.0847
| 27> C 	 -44.1471 	 -55.3554 	 -72.71
| 28> H 	 -46.2562 	 -57.9976 	 -72.3891
| 29> C 	 -43.8455 	 -57.3221 	 -71.0803
| 30> H 	 -44.5823 	 -57.8155 	 -70.3849
| 31> H 	 -43.2276 	 -56.5776 	 -70.5427
| 32> C 	 -42.9028 	 -58.4093 	 -71.6662
| 33> H 	 -42.1979 	 -58.0138 	 -72.387
| 34> H 	 -43.474 	 -59.1079 	 -72.328
| 35> C 	 -42.0906 	 -59.0847 	 -70.6055
| 36> H 	 -41.6486 	 -60.019 	 -70.9499
| 37> H 	 -42.6597 	 -59.5306 	 -69.7719
| 38> H 	 -41.2721 	 -58.475 	 -70.2523
| 39> H 	 -41.2489 	 -51.5924 	 -71.0773
| 40> H 	 -46.8954 	 -56.5659 	 -74.4549
| 41> *
| 42>
| 43>                          ****END OF INPUT****

CARTESIAN COORDINATES (ANGSTROEM)
---------------------------------
  S    -43.253900  -53.108800  -71.190100
  C    -41.613600  -52.491400  -71.613300
  C    -41.011100  -53.199000  -72.603500
  C    -41.842400  -54.340800  -72.980900
  C    -43.113800  -54.433400  -72.337000
  H    -41.643900  -55.203300  -73.683100
  C    -39.601700  -52.821800  -73.232600
  H    -39.431600  -51.743900  -73.111100
  H    -39.807800  -52.992600  -74.262800
  C    -38.347900  -53.596900  -72.727000
  H    -38.426400  -54.671700  -73.010900
  H    -37.542600  -53.279300  -73.325200
  C    -37.842800  -53.539600  -71.297500
  H    -37.805000  -52.516600  -70.932000
  H    -38.519000  -54.007700  -70.558500
  H    -36.838700  -53.957400  -71.224000
  S    -45.247400  -54.833100  -73.979100
  C    -46.124000  -56.308400  -73.773600
  C    -45.741600  -57.029900  -72.655600
  C    -44.581100  -56.484500  -72.084700
  C    -44.147100  -55.355400  -72.710000
  H    -46.256200  -57.997600  -72.389100
  C    -43.845500  -57.322100  -71.080300
  H    -44.582300  -57.815500  -70.384900
  H    -43.227600  -56.577600  -70.542700
  C    -42.902800  -58.409300  -71.666200
  H    -42.197900  -58.013800  -72.387000
  H    -43.474000  -59.107900  -72.328000
  C    -42.090600  -59.084700  -70.605500
  H    -41.648600  -60.019000  -70.949900
  H    -42.659700  -59.530600  -69.771900
  H    -41.272100  -58.475000  -70.252300
  H    -41.248900  -51.592400  -71.077300
  H    -46.895400  -56.565900  -74.454900

 Total Charge           Charge          ....    0
 Multiplicity           Mult            ....    1
 Number of Electrons    NEL             ....  134
 Basis Dimension        Dim             ....  322

ORBITAL ENERGIES
----------------

  NO   OCC          E(Eh)            E(eV)
   0   2.0000     -88.964513     -2420.8475
   1   2.0000     -88.962570     -2420.7946
   2   2.0000     -10.328110      -281.0422
   3   2.0000     -10.319030      -280.7951
   4   2.0000     -10.318096      -280.7697
   5   2.0000     -10.314128      -280.6617
   6   2.0000     -10.309150      -280.5262
   7   2.0000     -10.303989      -280.3858
   8   2.0000     -10.302211      -280.3374
   9   2.0000     -10.295983      -280.1679
  10   2.0000     -10.293674      -280.1051
  11   2.0000     -10.293461      -280.0993
  12   2.0000     -10.287578      -279.9392
  13   2.0000     -10.286980      -279.9230
  14   2.0000     -10.278699      -279.6976
  15   2.0000     -10.274271      -279.5771
  16   2.0000      -8.079866      -219.8643
  17   2.0000      -8.076418      -219.7705
  18   2.0000      -6.038121      -164.3056
  19   2.0000      -6.034965      -164.2197
  20   2.0000      -6.034450      -164.2057
  21   2.0000      -6.030985      -164.1115
  22   2.0000      -6.030688      -164.1034
  23   2.0000      -6.027251      -164.0098
  24   2.0000      -1.006753       -27.3951
  25   2.0000      -0.976437       -26.5702
  26   2.0000      -0.908389       -24.7185
  27   2.0000      -0.903715       -24.5913
  28   2.0000      -0.869737       -23.6667
  29   2.0000      -0.856791       -23.3145
  30   2.0000      -0.839646       -22.8479
  31   2.0000      -0.805284       -21.9129
  32   2.0000      -0.786545       -21.4030
  33   2.0000      -0.773043       -21.0356
  34   2.0000      -0.705324       -19.1928
  35   2.0000      -0.699096       -19.0234
  36   2.0000      -0.692212       -18.8361
  37   2.0000      -0.663853       -18.0644
  38   2.0000      -0.637698       -17.3526
  39   2.0000      -0.605792       -16.4844
  40   2.0000      -0.593440       -16.1483
  41   2.0000      -0.563715       -15.3395
  42   2.0000      -0.559201       -15.2166
  43   2.0000      -0.548504       -14.9256
  44   2.0000      -0.539079       -14.6691
  45   2.0000      -0.520568       -14.1654
  46   2.0000      -0.518637       -14.1128
  47   2.0000      -0.513964       -13.9857
  48   2.0000      -0.504964       -13.7408
  49   2.0000      -0.494014       -13.4428
  50   2.0000      -0.479009       -13.0345
  51   2.0000      -0.478322       -13.0158
  52   2.0000      -0.475646       -12.9430
  53   2.0000      -0.466441       -12.6925
  54   2.0000      -0.458429       -12.4745
  55   2.0000      -0.447523       -12.1777
  56   2.0000      -0.446626       -12.1533
  57   2.0000      -0.435219       -11.8429
  58   2.0000      -0.426973       -11.6185
  59   2.0000      -0.424996       -11.5647
  60   2.0000      -0.417606       -11.3636
  61   2.0000      -0.414731       -11.2854
  62   2.0000      -0.409064       -11.1312
  63   2.0000      -0.335967        -9.1421
  64   2.0000      -0.327994        -8.9252
  65   2.0000      -0.314730        -8.5642
  66   2.0000      -0.313459        -8.5296
  67   0.0000       0.042806         1.1648
  68   0.0000       0.052612         1.4317
  69   0.0000       0.112755         3.0682
  70   0.0000       0.120857         3.2887
  71   0.0000       0.124300         3.3824

MULLIKEN ATOMIC CHARGES
-----------------------
   0 S :    0.103223
   1 C :   -0.161614
   2 C :   -0.056104
   3 C :   -0.004435
   4 C :   -0.182650
   5 H :    0.036077
   6 C :    0.092281
   7 H :    0.027589
   8 H :    0.028648
   9 C :   -0.065535
  10 H :    0.026537
  11 H :    0.018529
  12 C :   -0.045496
  13 H :    0.016225
  14 H :    0.040210
  15 H :    0.040264
  16 S :    0.123320
  17 C :   -0.090219
  18 C :   -0.044298
  19 C :   -0.005372
  20 C :   -0.200203
  21 H :    0.040701
  22 C :    0.048702
  23 H :    0.035204
  24 H :    0.031009
  25 C :   -0.052278
  26 H :    0.019749
  27 H :    0.021920
  28 C :   -0.036665
  29 H :    0.019017
  30 H :    0.024015
  31 H :    0.041406
  32 H :    0.064996
  33 H :    0.045249
Sum of atomic charges:   -0.0000000

LOEWDIN ATOMIC CHARGES
----------------------
   0 S :    0.374515
   1 C :   -0.180024
   2 C :   -0.068979
   3 C :   -0.067972
   4 C :   -0.206707
   5 H :    0.038762
   6 C :   -0.018268
   7 H :    0.031526
   8 H :    0.031949
   9 C :   -0.045553
  10 H :    0.027825
  11 H :    0.020633
  12 C :   -0.067286
  13 H :    0.021240
  14 H :    0.028737
  15 H :    0.031441
  16 S :    0.417479
  17 C :   -0.175536
  18 C :   -0.077631
  19 C :   -0.055673
  20 C :   -0.210784
  21 H :    0.043091
  22 C :   -0.031075
  23 H :    0.036157
  24 H :    0.032388
  25 C :   -0.042892
  26 H :    0.025001
  27 H :    0.024964
  28 C :   -0.070944
  29 H :    0.027778
  30 H :    0.026592
  31 H :    0.027617
  32 H :    0.033046
  33 H :    0.018583

  Mayer bond orders larger than 0.100000
B(  0-S ,  1-C ) :   1.1336 B(  0-S ,  4-C ) :   1.1291 B(  1-C ,  2-C ) :   1.6352
B(  1-C , 32-H ) :   0.9651 B(  2-C ,  3-C ) :   1.2070 B(  2-C ,  6-C ) :   0.9964
B(  3-C ,  4-C ) :   1.5987 B(  3-C ,  5-H ) :   0.9801 B(  4-C , 20-C ) :   1.0573
B(  6-C ,  7-H ) :   0.9472 B(  6-C ,  8-H ) :   0.9381 B(  6-C ,  9-C ) :   1.0756
B(  9-C , 10-H ) :   0.9539 B(  9-C , 11-H ) :   0.9520 B(  9-C , 12-C ) :   1.0828
B( 12-C , 13-H ) :   0.9725 B( 12-C , 14-H ) :   0.9742 B( 12-C , 15-H ) :   0.9714
B( 16-S , 17-C ) :   1.1780 B( 16-S , 20-C ) :   1.1355 B( 17-C , 18-C ) :   1.5940
B( 17-C , 20-C ) :   0.1006 B( 17-C , 33-H ) :   0.9714 B( 18-C , 19-C ) :   1.2412
B( 18-C , 21-H ) :   0.9845 B( 19-C , 20-C ) :   1.6058 B( 19-C , 22-C ) :   1.0563
B( 22-C , 23-H ) :   0.9329 B( 22-C , 24-H ) :   0.9251 B( 22-C , 25-C ) :   1.0645
B( 25-C , 26-H ) :   0.9491 B( 25-C , 27-H ) :   0.9534 B( 25-C , 28-C ) :   1.0910
B( 28-C , 29-H ) :   0.9674 B( 28-C , 30-H ) :   0.9714 B( 28-C , 31-H ) :   0.9752

Dispersion correction           -0.014157285
FINAL SINGLE POINT ENERGY     -1339.875518055961

DIPOLE MOMENT
-------------
                                X             Y             Z
Electronic contribution:    -24.14163      12.81257      -6.56929
Nuclear contribution   :     24.60796     -13.17347       6.45030
                        -----------------------------------------
Total Dipole Moment    :      0.46633      -0.36091      -0.11899
                        -----------------------------------------
Magnitude (a.u.)       :      0.60156
Magnitude (Debye)      :      1.52905

Rotational constants in cm-1:     0.017988     0.008495     0.006737
Rotational constants in MHz :   539.252569   254.678048   201.977081

                             ****ORCA TERMINATED NORMALLY****
TOTAL RUN TIME: 0 days 0 hours 0 minutes 21 seconds 78 msec
