                         Program Version 4.2.1 -  RELEASE  -
|  1> ! wB97X-D3 SP def2-SVP
|  2> %pal
|  3> nprocs 24
|  4> end
|  5>
|  6> * xyz 0 1
|  7> S 	 32.6057 	 -32.6691 	 -109.654
|  8> C 	 32.3237 	 -32.5678 	 -107.958
|  9> C 	 33.4505 	 -32.0173 	 -107.286
| 10> C 	 34.4658 	 -31.5457 	 -108.194
| 11> C 	 34.1919 	 -31.9234 	 -109.49
| 12> H 	 35.3379 	 -31.0375 	 -107.886
| 13> C 	 33.6913 	 -31.8993 	 -105.777
| 14> H 	 32.8469 	 -31.9002 	 -105.089
| 15> H 	 34.2077 	 -30.9572 	 -105.554
| 16> C 	 34.5742 	 -33.1676 	 -105.352
| 17> H 	 35.4333 	 -33.0399 	 -105.996
| 18> H 	 34.8797 	 -33.0757 	 -104.3
| 19> C 	 33.9811 	 -34.5864 	 -105.543
| 20> H 	 33.2211 	 -34.8409 	 -104.83
| 21> H 	 33.5788 	 -34.6215 	 -106.571
| 22> H 	 34.8623 	 -35.269 	 -105.504
| 23> S 	 34.2321 	 -30.6455 	 -111.829
| 24> C 	 35.6415 	 -30.7048 	 -112.87
| 25> C 	 36.5918 	 -31.4455 	 -112.264
| 26> C 	 36.3222 	 -31.9794 	 -110.988
| 27> C 	 34.9988 	 -31.6615 	 -110.646
| 28> H 	 37.5649 	 -31.5714 	 -112.845
| 29> C 	 37.3064 	 -32.6232 	 -110.051
| 30> H 	 37.759 	 -33.5227 	 -110.422
| 31> H 	 36.7239 	 -33.0111 	 -109.207
| 32> C 	 38.392 	 -31.6687 	 -109.507
| 33> H 	 37.9647 	 -30.8563 	 -109.068
| 34> H 	 39.0269 	 -31.3691 	 -110.364
| 35> C 	 39.0774 	 -32.3307 	 -108.368
| 36> H 	 39.6348 	 -33.1803 	 -108.781
| 37> H 	 38.4552 	 -32.7274 	 -107.58
| 38> H 	 39.787 	 -31.6184 	 -107.837
| 39> H 	 31.5124 	 -33.0106 	 -107.354
| 40> H 	 35.8574 	 -30.3793 	 -113.857
| 41> *
| 42>
| 43>                          ****END OF INPUT****

CARTESIAN COORDINATES (ANGSTROEM)
---------------------------------
  S     32.605700  -32.669100  -109.654000
  C     32.323700  -32.567800  -107.958000
  C     33.450500  -32.017300  -107.286000
  C     34.465800  -31.545700  -108.194000
  C     34.191900  -31.923400  -109.490000
  H     35.337900  -31.037500  -107.886000
  C     33.691300  -31.899300  -105.777000
  H     32.846900  -31.900200  -105.089000
  H     34.207700  -30.957200  -105.554000
  C     34.574200  -33.167600  -105.352000
  H     35.433300  -33.039900  -105.996000
  H     34.879700  -33.075700  -104.300000
  C     33.981100  -34.586400  -105.543000
  H     33.221100  -34.840900  -104.830000
  H     33.578800  -34.621500  -106.571000
  H     34.862300  -35.269000  -105.504000
  S     34.232100  -30.645500  -111.829000
  C     35.641500  -30.704800  -112.870000
  C     36.591800  -31.445500  -112.264000
  C     36.322200  -31.979400  -110.988000
  C     34.998800  -31.661500  -110.646000
  H     37.564900  -31.571400  -112.845000
  C     37.306400  -32.623200  -110.051000
  H     37.759000  -33.522700  -110.422000
  H     36.723900  -33.011100  -109.207000
  C     38.392000  -31.668700  -109.507000
  H     37.964700  -30.856300  -109.068000
  H     39.026900  -31.369100  -110.364000
  C     39.077400  -32.330700  -108.368000
  H     39.634800  -33.180300  -108.781000
  H     38.455200  -32.727400  -107.580000
  H     39.787000  -31.618400  -107.837000
  H     31.512400  -33.010600  -107.354000
  H     35.857400  -30.379300  -113.857000

 Total Charge           Charge          ....    0
 Multiplicity           Mult            ....    1
 Number of Electrons    NEL             ....  134
 Basis Dimension        Dim             ....  322

ORBITAL ENERGIES
----------------

  NO   OCC          E(Eh)            E(eV)
   0   2.0000     -88.971896     -2421.0484
   1   2.0000     -88.965337     -2420.8699
   2   2.0000     -10.328974      -281.0657
   3   2.0000     -10.324038      -280.9314
   4   2.0000     -10.318533      -280.7816
   5   2.0000     -10.308774      -280.5160
   6   2.0000     -10.307695      -280.4866
   7   2.0000     -10.302617      -280.3485
   8   2.0000     -10.298003      -280.2229
   9   2.0000     -10.295189      -280.1463
  10   2.0000     -10.290596      -280.0213
  11   2.0000     -10.289528      -279.9923
  12   2.0000     -10.288772      -279.9717
  13   2.0000     -10.279980      -279.7325
  14   2.0000     -10.279704      -279.7250
  15   2.0000     -10.279523      -279.7200
  16   2.0000      -8.086490      -220.0446
  17   2.0000      -8.080046      -219.8692
  18   2.0000      -6.045006      -164.4930
  19   2.0000      -6.040949      -164.3826
  20   2.0000      -6.038650      -164.3200
  21   2.0000      -6.037302      -164.2833
  22   2.0000      -6.034432      -164.2052
  23   2.0000      -6.030815      -164.1068
  24   2.0000      -1.011246       -27.5174
  25   2.0000      -0.985441       -26.8152
  26   2.0000      -0.918358       -24.9898
  27   2.0000      -0.904415       -24.6104
  28   2.0000      -0.872020       -23.7289
  29   2.0000      -0.855521       -23.2799
  30   2.0000      -0.847187       -23.0531
  31   2.0000      -0.813792       -22.1444
  32   2.0000      -0.781334       -21.2612
  33   2.0000      -0.770141       -20.9566
  34   2.0000      -0.708758       -19.2863
  35   2.0000      -0.703485       -19.1428
  36   2.0000      -0.689343       -18.7580
  37   2.0000      -0.655946       -17.8492
  38   2.0000      -0.640672       -17.4336
  39   2.0000      -0.626370       -17.0444
  40   2.0000      -0.598258       -16.2794
  41   2.0000      -0.575537       -15.6612
  42   2.0000      -0.569757       -15.5039
  43   2.0000      -0.545169       -14.8348
  44   2.0000      -0.537958       -14.6386
  45   2.0000      -0.525714       -14.3054
  46   2.0000      -0.517229       -14.0745
  47   2.0000      -0.512711       -13.9516
  48   2.0000      -0.510380       -13.8881
  49   2.0000      -0.498556       -13.5664
  50   2.0000      -0.493823       -13.4376
  51   2.0000      -0.483051       -13.1445
  52   2.0000      -0.471566       -12.8320
  53   2.0000      -0.465247       -12.6600
  54   2.0000      -0.458689       -12.4816
  55   2.0000      -0.446354       -12.1459
  56   2.0000      -0.439440       -11.9578
  57   2.0000      -0.436681       -11.8827
  58   2.0000      -0.434107       -11.8126
  59   2.0000      -0.429877       -11.6976
  60   2.0000      -0.424887       -11.5618
  61   2.0000      -0.416510       -11.3338
  62   2.0000      -0.408850       -11.1254
  63   2.0000      -0.348157        -9.4738
  64   2.0000      -0.330320        -8.9885
  65   2.0000      -0.327780        -8.9194
  66   2.0000      -0.294517        -8.0142
  67   0.0000       0.031874         0.8673
  68   0.0000       0.066625         1.8130
  69   0.0000       0.115245         3.1360
  70   0.0000       0.118912         3.2358
  71   0.0000       0.126881         3.4526

MULLIKEN ATOMIC CHARGES
-----------------------
   0 S :    0.134489
   1 C :   -0.112530
   2 C :   -0.126111
   3 C :    0.060670
   4 C :   -0.159214
   5 H :    0.001215
   6 C :    0.057415
   7 H :    0.022334
   8 H :    0.032886
   9 C :   -0.106619
  10 H :    0.020469
  11 H :    0.034006
  12 C :   -0.052548
  13 H :    0.037747
  14 H :    0.042172
  15 H :    0.043903
  16 S :    0.113653
  17 C :   -0.059181
  18 C :   -0.092333
  19 C :    0.021896
  20 C :   -0.184965
  21 H :    0.033785
  22 C :    0.049070
  23 H :    0.018609
  24 H :    0.013072
  25 C :   -0.014539
  26 H :    0.002069
  27 H :    0.040737
  28 C :   -0.065515
  29 H :    0.025300
  30 H :    0.029752
  31 H :    0.041260
  32 H :    0.060583
  33 H :    0.036464
Sum of atomic charges:   -0.0000000

LOEWDIN ATOMIC CHARGES
----------------------
   0 S :    0.424518
   1 C :   -0.221812
   2 C :   -0.057767
   3 C :   -0.051511
   4 C :   -0.196669
   5 H :    0.026335
   6 C :   -0.035185
   7 H :    0.024350
   8 H :    0.032387
   9 C :   -0.039297
  10 H :    0.016594
  11 H :    0.021383
  12 C :   -0.067605
  13 H :    0.020582
  14 H :    0.028521
  15 H :    0.035479
  16 S :    0.414505
  17 C :   -0.192992
  18 C :   -0.081136
  19 C :   -0.056836
  20 C :   -0.200207
  21 H :    0.039116
  22 C :   -0.030410
  23 H :    0.026710
  24 H :    0.030197
  25 C :   -0.031696
  26 H :    0.010485
  27 H :    0.031145
  28 C :   -0.066182
  29 H :    0.024246
  30 H :    0.023099
  31 H :    0.032283
  32 H :    0.037275
  33 H :    0.030093

  Mayer bond orders larger than 0.100000
B(  0-S ,  1-C ) :   1.1403 B(  0-S ,  4-C ) :   1.1580 B(  1-C ,  2-C ) :   1.5953
B(  1-C , 32-H ) :   0.9616 B(  2-C ,  3-C ) :   1.2429 B(  2-C ,  6-C ) :   1.0327
B(  3-C ,  4-C ) :   1.5518 B(  3-C ,  5-H ) :   0.9991 B(  4-C , 20-C ) :   1.0313
B(  6-C ,  7-H ) :   0.9503 B(  6-C ,  8-H ) :   0.9459 B(  6-C ,  9-C ) :   1.0465
B(  9-C , 10-H ) :   0.9612 B(  9-C , 11-H ) :   0.9586 B(  9-C , 12-C ) :   1.0757
B( 12-C , 13-H ) :   0.9772 B( 12-C , 14-H ) :   0.9710 B( 12-C , 15-H ) :   0.9718
B( 16-S , 17-C ) :   1.1255 B( 16-S , 20-C ) :   1.1655 B( 17-C , 18-C ) :   1.6497
B( 17-C , 20-C ) :   0.1019 B( 17-C , 33-H ) :   0.9659 B( 18-C , 19-C ) :   1.2365
B( 18-C , 21-H ) :   0.9718 B( 19-C , 20-C ) :   1.5717 B( 19-C , 22-C ) :   1.0572
B( 22-C , 23-H ) :   0.9278 B( 22-C , 24-H ) :   0.9289 B( 22-C , 25-C ) :   1.0632
B( 25-C , 26-H ) :   0.9494 B( 25-C , 27-H ) :   0.9515 B( 25-C , 28-C ) :   1.0891
B( 28-C , 29-H ) :   0.9721 B( 28-C , 30-H ) :   0.9725 B( 28-C , 31-H ) :   0.9728

Dispersion correction           -0.015068899
FINAL SINGLE POINT ENERGY     -1339.873730058036

DIPOLE MOMENT
-------------
                                X             Y             Z
Electronic contribution:    -18.56507       8.37543     -22.27845
Nuclear contribution   :     19.09884      -8.47862      22.72725
                        -----------------------------------------
Total Dipole Moment    :      0.53376      -0.10319       0.44880
                        -----------------------------------------
Magnitude (a.u.)       :      0.70496
Magnitude (Debye)      :      1.79187

Rotational constants in cm-1:     0.017847     0.010206     0.007113
Rotational constants in MHz :   535.046762   305.978471   213.245147

                             ****ORCA TERMINATED NORMALLY****
TOTAL RUN TIME: 0 days 0 hours 0 minutes 21 seconds 192 msec
