                         Program Version 4.2.1 -  RELEASE  -
|  1> ! wB97X-D3 SP def2-SVP
|  2> %pal
|  3> nprocs 24
|  4> end
|  5>
|  6> * xyz 0 1
|  7> S 	 -82.6324 	 -4.82848 	 7.0083
|  8> C 	 -83.045 	 -4.69913 	 5.28262
|  9> C 	 -82.1953 	 -5.48798 	 4.5014
| 10> C 	 -81.3465 	 -6.21714 	 5.3506
| 11> C 	 -81.3153 	 -5.98364 	 6.67881
| 12> H 	 -80.5364 	 -6.78273 	 4.8312
| 13> C 	 -82.4164 	 -5.87056 	 2.99476
| 14> H 	 -83.4153 	 -6.3212 	 2.92115
| 15> H 	 -81.7109 	 -6.5453 	 2.61275
| 16> C 	 -82.2159 	 -4.642 	 2.08839
| 17> H 	 -82.2888 	 -4.9748 	 1.05755
| 18> H 	 -83.1318 	 -4.05747 	 2.28944
| 19> C 	 -80.9091 	 -3.83652 	 2.051
| 20> H 	 -80.7959 	 -3.23462 	 1.15075
| 21> H 	 -80.612 	 -3.24252 	 2.92256
| 22> H 	 -80.1771 	 -4.62116 	 1.95637
| 23> S 	 -81.202 	 -7.6076 	 8.98476
| 24> C 	 -79.9177 	 -7.45152 	 10.0894
| 25> C 	 -78.9905 	 -6.54842 	 9.60505
| 26> C 	 -79.2642 	 -5.95616 	 8.30859
| 27> C 	 -80.5016 	 -6.4177 	 7.80544
| 28> H 	 -78.0899 	 -6.26506 	 10.1317
| 29> C 	 -78.3268 	 -5.15914 	 7.44914
| 30> H 	 -77.5041 	 -4.69692 	 8.01627
| 31> H 	 -78.9132 	 -4.30033 	 7.0749
| 32> C 	 -77.7276 	 -5.92439 	 6.26955
| 33> H 	 -78.4681 	 -6.61288 	 5.98056
| 34> H 	 -76.8735 	 -6.57026 	 6.59459
| 35> C 	 -77.2015 	 -5.097 	 5.12215
| 36> H 	 -76.3701 	 -4.46696 	 5.45559
| 37> H 	 -77.9461 	 -4.55752 	 4.64811
| 38> H 	 -76.7741 	 -5.88097 	 4.43706
| 39> H 	 -83.8083 	 -4.11742 	 4.83787
| 40> H 	 -79.9013 	 -7.73207 	 11.1094
| 41> *
| 42>
| 43>                          ****END OF INPUT****

CARTESIAN COORDINATES (ANGSTROEM)
---------------------------------
  S    -82.632400   -4.828480    7.008300
  C    -83.045000   -4.699130    5.282620
  C    -82.195300   -5.487980    4.501400
  C    -81.346500   -6.217140    5.350600
  C    -81.315300   -5.983640    6.678810
  H    -80.536400   -6.782730    4.831200
  C    -82.416400   -5.870560    2.994760
  H    -83.415300   -6.321200    2.921150
  H    -81.710900   -6.545300    2.612750
  C    -82.215900   -4.642000    2.088390
  H    -82.288800   -4.974800    1.057550
  H    -83.131800   -4.057470    2.289440
  C    -80.909100   -3.836520    2.051000
  H    -80.795900   -3.234620    1.150750
  H    -80.612000   -3.242520    2.922560
  H    -80.177100   -4.621160    1.956370
  S    -81.202000   -7.607600    8.984760
  C    -79.917700   -7.451520   10.089400
  C    -78.990500   -6.548420    9.605050
  C    -79.264200   -5.956160    8.308590
  C    -80.501600   -6.417700    7.805440
  H    -78.089900   -6.265060   10.131700
  C    -78.326800   -5.159140    7.449140
  H    -77.504100   -4.696920    8.016270
  H    -78.913200   -4.300330    7.074900
  C    -77.727600   -5.924390    6.269550
  H    -78.468100   -6.612880    5.980560
  H    -76.873500   -6.570260    6.594590
  C    -77.201500   -5.097000    5.122150
  H    -76.370100   -4.466960    5.455590
  H    -77.946100   -4.557520    4.648110
  H    -76.774100   -5.880970    4.437060
  H    -83.808300   -4.117420    4.837870
  H    -79.901300   -7.732070   11.109400

 Total Charge           Charge          ....    0
 Multiplicity           Mult            ....    1
 Number of Electrons    NEL             ....  134
 Basis Dimension        Dim             ....  322

ORBITAL ENERGIES
----------------

  NO   OCC          E(Eh)            E(eV)
   0   2.0000     -88.965761     -2420.8814
   1   2.0000     -88.964388     -2420.8441
   2   2.0000     -10.332369      -281.1581
   3   2.0000     -10.330812      -281.1157
   4   2.0000     -10.318995      -280.7941
   5   2.0000     -10.314606      -280.6747
   6   2.0000     -10.309169      -280.5268
   7   2.0000     -10.302014      -280.3321
   8   2.0000     -10.298329      -280.2318
   9   2.0000     -10.294028      -280.1147
  10   2.0000     -10.293644      -280.1043
  11   2.0000     -10.291041      -280.0335
  12   2.0000     -10.289316      -279.9865
  13   2.0000     -10.280922      -279.7581
  14   2.0000     -10.279713      -279.7252
  15   2.0000     -10.275242      -279.6036
  16   2.0000      -8.079541      -219.8555
  17   2.0000      -8.078964      -219.8398
  18   2.0000      -6.038110      -164.3053
  19   2.0000      -6.037435      -164.2870
  20   2.0000      -6.034095      -164.1961
  21   2.0000      -6.033307      -164.1746
  22   2.0000      -6.030324      -164.0935
  23   2.0000      -6.029942      -164.0831
  24   2.0000      -1.002479       -27.2788
  25   2.0000      -0.981898       -26.7188
  26   2.0000      -0.913617       -24.8608
  27   2.0000      -0.910684       -24.7810
  28   2.0000      -0.868459       -23.6320
  29   2.0000      -0.851774       -23.1779
  30   2.0000      -0.842617       -22.9288
  31   2.0000      -0.814397       -22.1609
  32   2.0000      -0.790014       -21.4974
  33   2.0000      -0.775623       -21.1058
  34   2.0000      -0.708246       -19.2724
  35   2.0000      -0.698954       -19.0195
  36   2.0000      -0.693368       -18.8675
  37   2.0000      -0.659107       -17.9352
  38   2.0000      -0.640971       -17.4417
  39   2.0000      -0.616389       -16.7728
  40   2.0000      -0.596071       -16.2199
  41   2.0000      -0.579680       -15.7739
  42   2.0000      -0.568752       -15.4765
  43   2.0000      -0.556418       -15.1409
  44   2.0000      -0.543649       -14.7935
  45   2.0000      -0.523234       -14.2379
  46   2.0000      -0.519922       -14.1478
  47   2.0000      -0.514684       -14.0053
  48   2.0000      -0.506381       -13.7793
  49   2.0000      -0.501217       -13.6388
  50   2.0000      -0.489163       -13.3108
  51   2.0000      -0.481115       -13.0918
  52   2.0000      -0.472215       -12.8496
  53   2.0000      -0.463799       -12.6206
  54   2.0000      -0.459145       -12.4940
  55   2.0000      -0.451200       -12.2778
  56   2.0000      -0.444566       -12.0973
  57   2.0000      -0.433132       -11.7861
  58   2.0000      -0.432318       -11.7640
  59   2.0000      -0.421474       -11.4689
  60   2.0000      -0.415540       -11.3074
  61   2.0000      -0.412208       -11.2168
  62   2.0000      -0.407457       -11.0875
  63   2.0000      -0.337253        -9.1771
  64   2.0000      -0.327249        -8.9049
  65   2.0000      -0.322898        -8.7865
  66   2.0000      -0.310628        -8.4526
  67   0.0000       0.033201         0.9034
  68   0.0000       0.048563         1.3215
  69   0.0000       0.113738         3.0950
  70   0.0000       0.117661         3.2017
  71   0.0000       0.127906         3.4805

MULLIKEN ATOMIC CHARGES
-----------------------
   0 S :    0.111732
   1 C :   -0.102463
   2 C :   -0.114005
   3 C :    0.033856
   4 C :   -0.154148
   5 H :    0.023356
   6 C :    0.081506
   7 H :    0.055345
   8 H :    0.006194
   9 C :   -0.107151
  10 H :    0.024537
  11 H :    0.023481
  12 C :   -0.035200
  13 H :    0.040996
  14 H :    0.048114
  15 H :    0.011897
  16 S :    0.111269
  17 C :   -0.060225
  18 C :   -0.048318
  19 C :   -0.017832
  20 C :   -0.200686
  21 H :    0.013443
  22 C :    0.077055
  23 H :    0.016761
  24 H :    0.032507
  25 C :   -0.071446
  26 H :    0.005358
  27 H :    0.026040
  28 C :   -0.021909
  29 H :    0.034573
  30 H :    0.025876
  31 H :    0.037622
  32 H :    0.035757
  33 H :    0.056108
Sum of atomic charges:   -0.0000000

LOEWDIN ATOMIC CHARGES
----------------------
   0 S :    0.391906
   1 C :   -0.172130
   2 C :   -0.071053
   3 C :   -0.067689
   4 C :   -0.194417
   5 H :    0.033724
   6 C :   -0.018485
   7 H :    0.041839
   8 H :    0.018607
   9 C :   -0.046932
  10 H :    0.024756
  11 H :    0.017710
  12 C :   -0.065940
  13 H :    0.031650
  14 H :    0.027051
  15 H :    0.023384
  16 S :    0.407314
  17 C :   -0.197706
  18 C :   -0.076153
  19 C :   -0.041484
  20 C :   -0.195411
  21 H :    0.027256
  22 C :   -0.037716
  23 H :    0.028847
  24 H :    0.037224
  25 C :   -0.039970
  26 H :    0.012285
  27 H :    0.028926
  28 C :   -0.055791
  29 H :    0.027355
  30 H :    0.012749
  31 H :    0.037351
  32 H :    0.020337
  33 H :    0.030605

  Mayer bond orders larger than 0.100000
B(  0-S ,  1-C ) :   1.1602 B(  0-S ,  4-C ) :   1.1216 B(  1-C ,  2-C ) :   1.5909
B(  1-C ,  4-C ) :   0.1061 B(  1-C , 32-H ) :   0.9691 B(  2-C ,  3-C ) :   1.2772
B(  2-C ,  6-C ) :   1.0061 B(  3-C ,  4-C ) :   1.6079 B(  3-C ,  5-H ) :   0.9760
B(  4-C , 20-C ) :   1.0294 B(  6-C ,  7-H ) :   0.9493 B(  6-C ,  8-H ) :   0.9438
B(  6-C ,  9-C ) :   1.0714 B(  9-C , 10-H ) :   0.9580 B(  9-C , 11-H ) :   0.9590
B(  9-C , 12-C ) :   1.0641 B( 12-C , 13-H ) :   0.9754 B( 12-C , 14-H ) :   0.9744
B( 12-C , 15-H ) :   0.9705 B( 16-S , 17-C ) :   1.1704 B( 16-S , 20-C ) :   1.1395
B( 17-C , 18-C ) :   1.5837 B( 17-C , 33-H ) :   0.9672 B( 18-C , 19-C ) :   1.2721
B( 18-C , 21-H ) :   0.9843 B( 19-C , 20-C ) :   1.5576 B( 19-C , 22-C ) :   1.0608
B( 22-C , 23-H ) :   0.9300 B( 22-C , 24-H ) :   0.9230 B( 22-C , 25-C ) :   1.0596
B( 25-C , 26-H ) :   0.9568 B( 25-C , 27-H ) :   0.9490 B( 25-C , 28-C ) :   1.0884
B( 28-C , 29-H ) :   0.9730 B( 28-C , 30-H ) :   0.9755 B( 28-C , 31-H ) :   0.9715

Dispersion correction           -0.015053112
FINAL SINGLE POINT ENERGY     -1339.862202537696

DIPOLE MOMENT
-------------
                                X             Y             Z
Electronic contribution:    -14.66356      -8.35236      25.25318
Nuclear contribution   :     15.04539       8.48424     -25.77806
                        -----------------------------------------
Total Dipole Moment    :      0.38183       0.13187      -0.52488
                        -----------------------------------------
Magnitude (a.u.)       :      0.66233
Magnitude (Debye)      :      1.68352

Rotational constants in cm-1:     0.020363     0.009033     0.006958
Rotational constants in MHz :   610.480682   270.803006   208.606317

                             ****ORCA TERMINATED NORMALLY****
TOTAL RUN TIME: 0 days 0 hours 0 minutes 22 seconds 294 msec
