                         Program Version 4.2.1 -  RELEASE  -
|  1> ! wB97X-D3 SP def2-SVP
|  2> %pal
|  3> nprocs 24
|  4> end
|  5>
|  6> * xyz 0 1
|  7> S 	 -94.2919 	 -9.69871 	 -118.982
|  8> C 	 -95.434 	 -8.64448 	 -119.853
|  9> C 	 -96.575 	 -8.48411 	 -119.117
| 10> C 	 -96.5568 	 -9.26309 	 -117.936
| 11> C 	 -95.4311 	 -10.1026 	 -117.768
| 12> H 	 -97.222 	 -9.15632 	 -117.053
| 13> C 	 -97.5382 	 -7.40191 	 -119.346
| 14> H 	 -98.4942 	 -7.79786 	 -119.606
| 15> H 	 -97.1565 	 -6.88027 	 -120.251
| 16> C 	 -97.7859 	 -6.36043 	 -118.231
| 17> H 	 -97.9273 	 -6.7703 	 -117.22
| 18> H 	 -96.8533 	 -5.71846 	 -118.137
| 19> C 	 -98.9678 	 -5.4602 	 -118.68
| 20> H 	 -98.7542 	 -4.81128 	 -119.509
| 21> H 	 -99.9027 	 -6.03574 	 -118.871
| 22> H 	 -99.1596 	 -4.84709 	 -117.846
| 23> S 	 -94.1252 	 -10.7527 	 -115.29
| 24> C 	 -94.2416 	 -12.3616 	 -114.669
| 25> C 	 -95.0183 	 -13.1555 	 -115.534
| 26> C 	 -95.4544 	 -12.4551 	 -116.701
| 27> C 	 -95.1145 	 -11.147 	 -116.75
| 28> H 	 -95.123 	 -14.2375 	 -115.278
| 29> C 	 -96.2844 	 -13.2464 	 -117.703
| 30> H 	 -96.945 	 -12.5163 	 -118.087
| 31> H 	 -96.8315 	 -13.9846 	 -117.142
| 32> C 	 -95.4769 	 -13.7775 	 -118.853
| 33> H 	 -94.9593 	 -12.8878 	 -119.207
| 34> H 	 -96.0676 	 -14.1478 	 -119.664
| 35> C 	 -94.3777 	 -14.7358 	 -118.527
| 36> H 	 -94.6801 	 -15.8162 	 -118.268
| 37> H 	 -93.8394 	 -14.3329 	 -117.66
| 38> H 	 -93.7089 	 -14.8388 	 -119.379
| 39> H 	 -95.1906 	 -7.93986 	 -120.635
| 40> H 	 -93.7519 	 -12.743 	 -113.738
| 41> *
| 42>
| 43>                          ****END OF INPUT****

CARTESIAN COORDINATES (ANGSTROEM)
---------------------------------
  S    -94.291900   -9.698710  -118.982000
  C    -95.434000   -8.644480  -119.853000
  C    -96.575000   -8.484110  -119.117000
  C    -96.556800   -9.263090  -117.936000
  C    -95.431100  -10.102600  -117.768000
  H    -97.222000   -9.156320  -117.053000
  C    -97.538200   -7.401910  -119.346000
  H    -98.494200   -7.797860  -119.606000
  H    -97.156500   -6.880270  -120.251000
  C    -97.785900   -6.360430  -118.231000
  H    -97.927300   -6.770300  -117.220000
  H    -96.853300   -5.718460  -118.137000
  C    -98.967800   -5.460200  -118.680000
  H    -98.754200   -4.811280  -119.509000
  H    -99.902700   -6.035740  -118.871000
  H    -99.159600   -4.847090  -117.846000
  S    -94.125200  -10.752700  -115.290000
  C    -94.241600  -12.361600  -114.669000
  C    -95.018300  -13.155500  -115.534000
  C    -95.454400  -12.455100  -116.701000
  C    -95.114500  -11.147000  -116.750000
  H    -95.123000  -14.237500  -115.278000
  C    -96.284400  -13.246400  -117.703000
  H    -96.945000  -12.516300  -118.087000
  H    -96.831500  -13.984600  -117.142000
  C    -95.476900  -13.777500  -118.853000
  H    -94.959300  -12.887800  -119.207000
  H    -96.067600  -14.147800  -119.664000
  C    -94.377700  -14.735800  -118.527000
  H    -94.680100  -15.816200  -118.268000
  H    -93.839400  -14.332900  -117.660000
  H    -93.708900  -14.838800  -119.379000
  H    -95.190600   -7.939860  -120.635000
  H    -93.751900  -12.743000  -113.738000

 Total Charge           Charge          ....    0
 Multiplicity           Mult            ....    1
 Number of Electrons    NEL             ....  134
 Basis Dimension        Dim             ....  322

ORBITAL ENERGIES
----------------

  NO   OCC          E(Eh)            E(eV)
   0   2.0000     -88.967529     -2420.9295
   1   2.0000     -88.965672     -2420.8790
   2   2.0000     -10.335097      -281.2323
   3   2.0000     -10.331078      -281.1229
   4   2.0000     -10.325163      -280.9620
   5   2.0000     -10.315052      -280.6868
   6   2.0000     -10.301719      -280.3240
   7   2.0000     -10.299155      -280.2542
   8   2.0000     -10.297797      -280.2173
   9   2.0000     -10.297531      -280.2101
  10   2.0000     -10.297200      -280.2011
  11   2.0000     -10.289723      -279.9976
  12   2.0000     -10.279954      -279.7318
  13   2.0000     -10.279083      -279.7081
  14   2.0000     -10.272865      -279.5389
  15   2.0000     -10.272719      -279.5349
  16   2.0000      -8.082037      -219.9234
  17   2.0000      -8.079958      -219.8668
  18   2.0000      -6.040484      -164.3699
  19   2.0000      -6.038516      -164.3164
  20   2.0000      -6.036462      -164.2605
  21   2.0000      -6.034443      -164.2055
  22   2.0000      -6.032953      -164.1650
  23   2.0000      -6.030766      -164.1055
  24   2.0000      -1.006201       -27.3801
  25   2.0000      -0.986848       -26.8535
  26   2.0000      -0.916538       -24.9403
  27   2.0000      -0.914386       -24.8817
  28   2.0000      -0.869539       -23.6614
  29   2.0000      -0.848857       -23.0986
  30   2.0000      -0.841415       -22.8961
  31   2.0000      -0.812692       -22.1145
  32   2.0000      -0.785133       -21.3646
  33   2.0000      -0.775604       -21.1053
  34   2.0000      -0.711371       -19.3574
  35   2.0000      -0.697807       -18.9883
  36   2.0000      -0.684951       -18.6385
  37   2.0000      -0.659846       -17.9553
  38   2.0000      -0.640256       -17.4223
  39   2.0000      -0.616528       -16.7766
  40   2.0000      -0.590618       -16.0715
  41   2.0000      -0.576620       -15.6906
  42   2.0000      -0.562157       -15.2971
  43   2.0000      -0.554084       -15.0774
  44   2.0000      -0.550768       -14.9872
  45   2.0000      -0.525874       -14.3098
  46   2.0000      -0.514727       -14.0064
  47   2.0000      -0.512816       -13.9544
  48   2.0000      -0.502320       -13.6688
  49   2.0000      -0.499581       -13.5943
  50   2.0000      -0.485392       -13.2082
  51   2.0000      -0.477180       -12.9847
  52   2.0000      -0.471938       -12.8421
  53   2.0000      -0.469251       -12.7690
  54   2.0000      -0.461894       -12.5688
  55   2.0000      -0.446719       -12.1558
  56   2.0000      -0.442516       -12.0415
  57   2.0000      -0.439611       -11.9624
  58   2.0000      -0.426620       -11.6089
  59   2.0000      -0.424889       -11.5618
  60   2.0000      -0.419057       -11.4031
  61   2.0000      -0.416241       -11.3265
  62   2.0000      -0.405226       -11.0268
  63   2.0000      -0.334831        -9.1112
  64   2.0000      -0.327761        -8.9188
  65   2.0000      -0.322927        -8.7873
  66   2.0000      -0.315139        -8.5754
  67   0.0000       0.038931         1.0594
  68   0.0000       0.050286         1.3683
  69   0.0000       0.108579         2.9546
  70   0.0000       0.123784         3.3683
  71   0.0000       0.130326         3.5464

MULLIKEN ATOMIC CHARGES
-----------------------
   0 S :    0.115421
   1 C :   -0.114289
   2 C :   -0.072989
   3 C :    0.033321
   4 C :   -0.199689
   5 H :    0.029785
   6 C :    0.075464
   7 H :    0.021249
   8 H :    0.014137
   9 C :   -0.113255
  10 H :    0.041294
  11 H :    0.039278
  12 C :   -0.035614
  13 H :    0.036234
  14 H :    0.038003
  15 H :    0.022283
  16 S :    0.105000
  17 C :   -0.113945
  18 C :   -0.064136
  19 C :   -0.061195
  20 C :   -0.176942
  21 H :    0.040923
  22 C :    0.155068
  23 H :    0.013608
  24 H :    0.016286
  25 C :   -0.036586
  26 H :    0.014210
  27 H :    0.025385
  28 C :   -0.077962
  29 H :    0.029062
  30 H :    0.038125
  31 H :    0.034725
  32 H :    0.048233
  33 H :    0.079508
Sum of atomic charges:   -0.0000000

LOEWDIN ATOMIC CHARGES
----------------------
   0 S :    0.420781
   1 C :   -0.189651
   2 C :   -0.071640
   3 C :   -0.065349
   4 C :   -0.208469
   5 H :    0.036588
   6 C :   -0.034494
   7 H :    0.026239
   8 H :    0.033760
   9 C :   -0.037889
  10 H :    0.024379
  11 H :    0.031929
  12 C :   -0.061455
  13 H :    0.024868
  14 H :    0.029694
  15 H :    0.021451
  16 S :    0.391603
  17 C :   -0.193981
  18 C :   -0.087142
  19 C :   -0.050494
  20 C :   -0.199473
  21 H :    0.039545
  22 C :   -0.018824
  23 H :    0.029287
  24 H :    0.024965
  25 C :   -0.040909
  26 H :    0.026206
  27 H :    0.021044
  28 C :   -0.072617
  29 H :    0.025254
  30 H :    0.026629
  31 H :    0.026201
  32 H :    0.028941
  33 H :    0.043026

  Mayer bond orders larger than 0.100000
B(  0-S ,  1-C ) :   1.1429 B(  0-S ,  4-C ) :   1.1833 B(  1-C ,  2-C ) :   1.6005
B(  1-C ,  4-C ) :   0.1052 B(  1-C , 32-H ) :   0.9622 B(  2-C ,  3-C ) :   1.2537
B(  2-C ,  6-C ) :   1.0359 B(  3-C ,  4-C ) :   1.5634 B(  3-C ,  5-H ) :   0.9887
B(  4-C , 20-C ) :   0.9916 B(  6-C ,  7-H ) :   0.9284 B(  6-C ,  8-H ) :   0.9401
B(  6-C ,  9-C ) :   1.0599 B(  9-C , 10-H ) :   0.9575 B(  9-C , 11-H ) :   0.9538
B(  9-C , 12-C ) :   1.0788 B( 12-C , 13-H ) :   0.9765 B( 12-C , 14-H ) :   0.9751
B( 12-C , 15-H ) :   0.9726 B( 16-S , 17-C ) :   1.1751 B( 16-S , 20-C ) :   1.1191
B( 17-C , 18-C ) :   1.5967 B( 17-C , 33-H ) :   0.9595 B( 18-C , 19-C ) :   1.2328
B( 18-C , 21-H ) :   0.9841 B( 19-C , 20-C ) :   1.6436 B( 19-C , 22-C ) :   1.0187
B( 22-C , 23-H ) :   0.9176 B( 22-C , 24-H ) :   0.9374 B( 22-C , 25-C ) :   1.0815
B( 25-C , 26-H ) :   0.9441 B( 25-C , 27-H ) :   0.9545 B( 25-C , 28-C ) :   1.0874
B( 28-C , 29-H ) :   0.9732 B( 28-C , 30-H ) :   0.9681 B( 28-C , 31-H ) :   0.9720

Dispersion correction           -0.014561555
FINAL SINGLE POINT ENERGY     -1339.874863029328

DIPOLE MOMENT
-------------
                                X             Y             Z
Electronic contribution:     14.64773      -1.36833       8.75228
Nuclear contribution   :    -15.07335       1.55533      -8.74644
                        -----------------------------------------
Total Dipole Moment    :     -0.42562       0.18700       0.00584
                        -----------------------------------------
Magnitude (a.u.)       :      0.46492
Magnitude (Debye)      :      1.18174

Rotational constants in cm-1:     0.022913     0.007355     0.006604
Rotational constants in MHz :   686.909472   220.503325   197.971330

                             ****ORCA TERMINATED NORMALLY****
TOTAL RUN TIME: 0 days 0 hours 0 minutes 21 seconds 571 msec
