                         Program Version 4.2.1 -  RELEASE  -
|  1> ! wB97X-D3 SP def2-SVP
|  2> %pal
|  3> nprocs 24
|  4> end
|  5>
|  6> * xyz 0 1
|  7> S 	 -127.049 	 64.7399 	 -55.4423
|  8> C 	 -127.076 	 66.2934 	 -54.7474
|  9> C 	 -127.479 	 67.2596 	 -55.5687
| 10> C 	 -127.477 	 66.8257 	 -56.9541
| 11> C 	 -127.365 	 65.4418 	 -57.0686
| 12> H 	 -127.758 	 67.4935 	 -57.7314
| 13> C 	 -127.725 	 68.688 	 -55.2067
| 14> H 	 -127.262 	 69.3356 	 -56.0203
| 15> H 	 -127.19 	 69.0303 	 -54.3074
| 16> C 	 -129.17 	 69.0767 	 -55.0065
| 17> H 	 -129.689 	 68.4988 	 -54.2316
| 18> H 	 -129.247 	 70.1808 	 -54.6967
| 19> C 	 -130.053 	 68.9696 	 -56.3064
| 20> H 	 -130.004 	 69.8315 	 -56.9581
| 21> H 	 -129.996 	 67.9893 	 -56.8013
| 22> H 	 -131.04 	 69.09 	 -55.8966
| 23> S 	 -127.904 	 63.0214 	 -58.1263
| 24> C 	 -128.162 	 62.8473 	 -59.849
| 25> C 	 -127.716 	 63.9099 	 -60.5721
| 26> C 	 -127.217 	 64.9681 	 -59.6834
| 27> C 	 -127.45 	 64.6954 	 -58.3119
| 28> H 	 -127.845 	 63.8311 	 -61.6578
| 29> C 	 -126.592 	 66.2458 	 -60.2377
| 30> H 	 -125.731 	 65.854 	 -60.8062
| 31> H 	 -126.153 	 66.7195 	 -59.3326
| 32> C 	 -127.469 	 67.0711 	 -61.1453
| 33> H 	 -128.462 	 66.7858 	 -61.0025
| 34> H 	 -127.223 	 66.9476 	 -62.1641
| 35> C 	 -127.202 	 68.5044 	 -60.8192
| 36> H 	 -127.504 	 68.6334 	 -59.725
| 37> H 	 -127.769 	 69.0535 	 -61.5899
| 38> H 	 -126.146 	 68.7045 	 -61.0485
| 39> H 	 -127.253 	 66.3766 	 -53.6896
| 40> H 	 -128.625 	 61.9496 	 -60.3364
| 41> *
| 42>
| 43>                          ****END OF INPUT****

CARTESIAN COORDINATES (ANGSTROEM)
---------------------------------
  S    -127.049000   64.739900  -55.442300
  C    -127.076000   66.293400  -54.747400
  C    -127.479000   67.259600  -55.568700
  C    -127.477000   66.825700  -56.954100
  C    -127.365000   65.441800  -57.068600
  H    -127.758000   67.493500  -57.731400
  C    -127.725000   68.688000  -55.206700
  H    -127.262000   69.335600  -56.020300
  H    -127.190000   69.030300  -54.307400
  C    -129.170000   69.076700  -55.006500
  H    -129.689000   68.498800  -54.231600
  H    -129.247000   70.180800  -54.696700
  C    -130.053000   68.969600  -56.306400
  H    -130.004000   69.831500  -56.958100
  H    -129.996000   67.989300  -56.801300
  H    -131.040000   69.090000  -55.896600
  S    -127.904000   63.021400  -58.126300
  C    -128.162000   62.847300  -59.849000
  C    -127.716000   63.909900  -60.572100
  C    -127.217000   64.968100  -59.683400
  C    -127.450000   64.695400  -58.311900
  H    -127.845000   63.831100  -61.657800
  C    -126.592000   66.245800  -60.237700
  H    -125.731000   65.854000  -60.806200
  H    -126.153000   66.719500  -59.332600
  C    -127.469000   67.071100  -61.145300
  H    -128.462000   66.785800  -61.002500
  H    -127.223000   66.947600  -62.164100
  C    -127.202000   68.504400  -60.819200
  H    -127.504000   68.633400  -59.725000
  H    -127.769000   69.053500  -61.589900
  H    -126.146000   68.704500  -61.048500
  H    -127.253000   66.376600  -53.689600
  H    -128.625000   61.949600  -60.336400

 Total Charge           Charge          ....    0
 Multiplicity           Mult            ....    1
 Number of Electrons    NEL             ....  134
 Basis Dimension        Dim             ....  322

ORBITAL ENERGIES
----------------

  NO   OCC          E(Eh)            E(eV)
   0   2.0000     -88.966411     -2420.8991
   1   2.0000     -88.961008     -2420.7521
   2   2.0000     -10.338191      -281.3165
   3   2.0000     -10.329857      -281.0897
   4   2.0000     -10.318953      -280.7930
   5   2.0000     -10.312142      -280.6077
   6   2.0000     -10.303002      -280.3589
   7   2.0000     -10.297767      -280.2165
   8   2.0000     -10.295694      -280.1601
   9   2.0000     -10.294720      -280.1336
  10   2.0000     -10.294467      -280.1267
  11   2.0000     -10.294173      -280.1187
  12   2.0000     -10.288565      -279.9661
  13   2.0000     -10.284530      -279.8563
  14   2.0000     -10.274842      -279.5927
  15   2.0000     -10.273286      -279.5503
  16   2.0000      -8.081469      -219.9079
  17   2.0000      -8.076409      -219.7702
  18   2.0000      -6.040227      -164.3629
  19   2.0000      -6.036064      -164.2497
  20   2.0000      -6.034995      -164.2206
  21   2.0000      -6.031812      -164.1340
  22   2.0000      -6.031000      -164.1119
  23   2.0000      -6.026888      -163.9999
  24   2.0000      -1.007612       -27.4185
  25   2.0000      -0.986038       -26.8315
  26   2.0000      -0.921049       -25.0630
  27   2.0000      -0.910695       -24.7813
  28   2.0000      -0.874464       -23.7954
  29   2.0000      -0.853014       -23.2117
  30   2.0000      -0.843776       -22.9603
  31   2.0000      -0.819361       -22.2959
  32   2.0000      -0.782322       -21.2881
  33   2.0000      -0.766783       -20.8652
  34   2.0000      -0.708242       -19.2723
  35   2.0000      -0.697906       -18.9910
  36   2.0000      -0.692989       -18.8572
  37   2.0000      -0.658478       -17.9181
  38   2.0000      -0.636459       -17.3189
  39   2.0000      -0.619955       -16.8698
  40   2.0000      -0.592314       -16.1177
  41   2.0000      -0.581296       -15.8179
  42   2.0000      -0.573785       -15.6135
  43   2.0000      -0.546549       -14.8724
  44   2.0000      -0.541855       -14.7446
  45   2.0000      -0.529659       -14.4128
  46   2.0000      -0.517458       -14.0808
  47   2.0000      -0.512958       -13.9583
  48   2.0000      -0.503319       -13.6960
  49   2.0000      -0.500578       -13.6214
  50   2.0000      -0.488013       -13.2795
  51   2.0000      -0.478333       -13.0161
  52   2.0000      -0.473275       -12.8785
  53   2.0000      -0.464156       -12.6303
  54   2.0000      -0.458939       -12.4884
  55   2.0000      -0.451361       -12.2821
  56   2.0000      -0.444434       -12.0937
  57   2.0000      -0.437834       -11.9141
  58   2.0000      -0.433119       -11.7858
  59   2.0000      -0.419608       -11.4181
  60   2.0000      -0.415396       -11.3035
  61   2.0000      -0.412551       -11.2261
  62   2.0000      -0.408715       -11.1217
  63   2.0000      -0.365124        -9.9355
  64   2.0000      -0.334046        -9.0899
  65   2.0000      -0.323045        -8.7905
  66   2.0000      -0.283720        -7.7204
  67   0.0000       0.020960         0.5704
  68   0.0000       0.077868         2.1189
  69   0.0000       0.101643         2.7659
  70   0.0000       0.111471         3.0333
  71   0.0000       0.121305         3.3009

MULLIKEN ATOMIC CHARGES
-----------------------
   0 S :    0.101900
   1 C :   -0.088673
   2 C :   -0.090506
   3 C :    0.007367
   4 C :   -0.091295
   5 H :   -0.014374
   6 C :    0.045327
   7 H :    0.034845
   8 H :    0.027985
   9 C :   -0.101504
  10 H :    0.033975
  11 H :    0.038575
  12 C :   -0.067937
  13 H :    0.031279
  14 H :    0.058123
  15 H :    0.019861
  16 S :    0.081758
  17 C :   -0.103867
  18 C :   -0.035182
  19 C :   -0.086162
  20 C :   -0.141948
  21 H :    0.031677
  22 C :    0.033173
  23 H :    0.035398
  24 H :    0.034350
  25 C :   -0.000175
  26 H :    0.023508
  27 H :    0.013250
  28 C :   -0.078066
  29 H :    0.055663
  30 H :    0.031827
  31 H :    0.038056
  32 H :    0.050023
  33 H :    0.071769
Sum of atomic charges:    0.0000000

LOEWDIN ATOMIC CHARGES
----------------------
   0 S :    0.396055
   1 C :   -0.207788
   2 C :   -0.064498
   3 C :   -0.060488
   4 C :   -0.171715
   5 H :    0.020426
   6 C :   -0.044148
   7 H :    0.039154
   8 H :    0.032793
   9 C :   -0.042748
  10 H :    0.023432
  11 H :    0.033187
  12 C :   -0.074867
  13 H :    0.022928
  14 H :    0.028976
  15 H :    0.026207
  16 S :    0.391299
  17 C :   -0.184729
  18 C :   -0.080317
  19 C :   -0.048842
  20 C :   -0.199716
  21 H :    0.039899
  22 C :   -0.039835
  23 H :    0.039538
  24 H :    0.033549
  25 C :   -0.039135
  26 H :    0.016532
  27 H :    0.020928
  28 C :   -0.059931
  29 H :    0.032244
  30 H :    0.026094
  31 H :    0.027917
  32 H :    0.027975
  33 H :    0.039625

  Mayer bond orders larger than 0.100000
B(  0-S ,  1-C ) :   1.1246 B(  0-S ,  4-C ) :   1.1301 B(  1-C ,  2-C ) :   1.6832
B(  1-C , 32-H ) :   0.9454 B(  2-C ,  3-C ) :   1.2204 B(  2-C ,  6-C ) :   1.0192
B(  3-C ,  4-C ) :   1.5685 B(  3-C ,  5-H ) :   0.9928 B(  4-C , 20-C ) :   1.0977
B(  6-C ,  7-H ) :   0.9427 B(  6-C ,  8-H ) :   0.9440 B(  6-C ,  9-C ) :   1.0710
B(  9-C , 10-H ) :   0.9603 B(  9-C , 11-H ) :   0.9535 B(  9-C , 12-C ) :   1.0749
B( 12-C , 13-H ) :   0.9768 B( 12-C , 14-H ) :   0.9704 B( 12-C , 15-H ) :   0.9724
B( 16-S , 17-C ) :   1.1455 B( 16-S , 20-C ) :   1.1192 B( 17-C , 18-C ) :   1.6590
B( 17-C , 33-H ) :   0.9584 B( 18-C , 19-C ) :   1.1866 B( 18-C , 21-H ) :   0.9900
B( 19-C , 20-C ) :   1.5871 B( 19-C , 22-C ) :   1.0472 B( 22-C , 23-H ) :   0.9190
B( 22-C , 24-H ) :   0.9481 B( 22-C , 25-C ) :   1.0390 B( 25-C , 26-H ) :   0.9647
B( 25-C , 27-H ) :   0.9398 B( 25-C , 28-C ) :   1.0921 B( 28-C , 29-H ) :   0.9764
B( 28-C , 30-H ) :   0.9718 B( 28-C , 31-H ) :   0.9713

Dispersion correction           -0.014682686
FINAL SINGLE POINT ENERGY     -1339.857652307526

DIPOLE MOMENT
-------------
                                X             Y             Z
Electronic contribution:      5.92297     -27.85209       8.76000
Nuclear contribution   :     -6.17222      28.40698      -9.20946
                        -----------------------------------------
Total Dipole Moment    :     -0.24925       0.55488      -0.44946
                        -----------------------------------------
Magnitude (a.u.)       :      0.75633
Magnitude (Debye)      :      1.92244

Rotational constants in cm-1:     0.016778     0.010279     0.007229
Rotational constants in MHz :   502.993109   308.144494   216.712209

                             ****ORCA TERMINATED NORMALLY****
TOTAL RUN TIME: 0 days 0 hours 0 minutes 22 seconds 381 msec
