                         Program Version 4.2.1 -  RELEASE  -
|  1> ! wB97X-D3 SP def2-SVP
|  2> %pal
|  3> nprocs 24
|  4> end
|  5>
|  6> * xyz 0 1
|  7> S 	 -63.7159 	 5.01057 	 -75.4602
|  8> C 	 -63.6577 	 6.23104 	 -74.238
|  9> C 	 -64.4663 	 7.31198 	 -74.6228
| 10> C 	 -65.2165 	 7.06635 	 -75.8174
| 11> C 	 -64.9524 	 5.89112 	 -76.4585
| 12> H 	 -65.8613 	 7.73645 	 -76.204
| 13> C 	 -64.6837 	 8.57944 	 -73.8594
| 14> H 	 -64.4161 	 8.36296 	 -72.8536
| 15> H 	 -65.723 	 8.78895 	 -73.7965
| 16> C 	 -63.9505 	 9.87633 	 -74.5045
| 17> H 	 -64.2037 	 10.7676 	 -73.905
| 18> H 	 -62.8683 	 9.76434 	 -74.3016
| 19> C 	 -64.1519 	 10.1336 	 -76.014
| 20> H 	 -63.5009 	 10.9365 	 -76.3914
| 21> H 	 -64.1037 	 9.2712 	 -76.7455
| 22> H 	 -65.1799 	 10.4984 	 -76.1738
| 23> S 	 -64.2543 	 4.53836 	 -78.6369
| 24> C 	 -65.2815 	 4.63029 	 -80.1021
| 25> C 	 -66.474 	 5.27324 	 -79.8682
| 26> C 	 -66.546 	 5.87619 	 -78.5516
| 27> C 	 -65.432 	 5.51501 	 -77.8007
| 28> H 	 -67.1514 	 5.33385 	 -80.6572
| 29> C 	 -67.744 	 6.70137 	 -78.0575
| 30> H 	 -68.3223 	 7.0465 	 -78.8957
| 31> H 	 -67.3625 	 7.64765 	 -77.5479
| 32> C 	 -68.7725 	 6.09447 	 -77.013
| 33> H 	 -69.6267 	 6.6936 	 -77.0342
| 34> H 	 -68.5759 	 6.26162 	 -75.9789
| 35> C 	 -69.0964 	 4.60722 	 -77.2761
| 36> H 	 -69.3223 	 4.30125 	 -78.2972
| 37> H 	 -69.8563 	 4.23364 	 -76.6332
| 38> H 	 -68.1073 	 4.10745 	 -77.0798
| 39> H 	 -63.0903 	 6.18127 	 -73.3165
| 40> H 	 -65.0886 	 4.26531 	 -81.0925
| 41> *
| 42>
| 43>                          ****END OF INPUT****

CARTESIAN COORDINATES (ANGSTROEM)
---------------------------------
  S    -63.715900    5.010570  -75.460200
  C    -63.657700    6.231040  -74.238000
  C    -64.466300    7.311980  -74.622800
  C    -65.216500    7.066350  -75.817400
  C    -64.952400    5.891120  -76.458500
  H    -65.861300    7.736450  -76.204000
  C    -64.683700    8.579440  -73.859400
  H    -64.416100    8.362960  -72.853600
  H    -65.723000    8.788950  -73.796500
  C    -63.950500    9.876330  -74.504500
  H    -64.203700   10.767600  -73.905000
  H    -62.868300    9.764340  -74.301600
  C    -64.151900   10.133600  -76.014000
  H    -63.500900   10.936500  -76.391400
  H    -64.103700    9.271200  -76.745500
  H    -65.179900   10.498400  -76.173800
  S    -64.254300    4.538360  -78.636900
  C    -65.281500    4.630290  -80.102100
  C    -66.474000    5.273240  -79.868200
  C    -66.546000    5.876190  -78.551600
  C    -65.432000    5.515010  -77.800700
  H    -67.151400    5.333850  -80.657200
  C    -67.744000    6.701370  -78.057500
  H    -68.322300    7.046500  -78.895700
  H    -67.362500    7.647650  -77.547900
  C    -68.772500    6.094470  -77.013000
  H    -69.626700    6.693600  -77.034200
  H    -68.575900    6.261620  -75.978900
  C    -69.096400    4.607220  -77.276100
  H    -69.322300    4.301250  -78.297200
  H    -69.856300    4.233640  -76.633200
  H    -68.107300    4.107450  -77.079800
  H    -63.090300    6.181270  -73.316500
  H    -65.088600    4.265310  -81.092500

 Total Charge           Charge          ....    0
 Multiplicity           Mult            ....    1
 Number of Electrons    NEL             ....  134
 Basis Dimension        Dim             ....  322

ORBITAL ENERGIES
----------------

  NO   OCC          E(Eh)            E(eV)
   0   2.0000     -88.969537     -2420.9842
   1   2.0000     -88.966623     -2420.9049
   2   2.0000     -10.334243      -281.2091
   3   2.0000     -10.333374      -281.1854
   4   2.0000     -10.317376      -280.7501
   5   2.0000     -10.317187      -280.7449
   6   2.0000     -10.311627      -280.5936
   7   2.0000     -10.303921      -280.3840
   8   2.0000     -10.299866      -280.2736
   9   2.0000     -10.297775      -280.2167
  10   2.0000     -10.294433      -280.1258
  11   2.0000     -10.290187      -280.0102
  12   2.0000     -10.284955      -279.8678
  13   2.0000     -10.282865      -279.8110
  14   2.0000     -10.282206      -279.7930
  15   2.0000     -10.272862      -279.5388
  16   2.0000      -8.083698      -219.9686
  17   2.0000      -8.080417      -219.8793
  18   2.0000      -6.042313      -164.4197
  19   2.0000      -6.039208      -164.3352
  20   2.0000      -6.038426      -164.3139
  21   2.0000      -6.034921      -164.2186
  22   2.0000      -6.034234      -164.1999
  23   2.0000      -6.031080      -164.1140
  24   2.0000      -1.003946       -27.3188
  25   2.0000      -0.980351       -26.6767
  26   2.0000      -0.902019       -24.5452
  27   2.0000      -0.899442       -24.4751
  28   2.0000      -0.871504       -23.7148
  29   2.0000      -0.850492       -23.1431
  30   2.0000      -0.840322       -22.8663
  31   2.0000      -0.820074       -22.3154
  32   2.0000      -0.781516       -21.2661
  33   2.0000      -0.770453       -20.9651
  34   2.0000      -0.713527       -19.4161
  35   2.0000      -0.701574       -19.0908
  36   2.0000      -0.694265       -18.8919
  37   2.0000      -0.669585       -18.2203
  38   2.0000      -0.644877       -17.5480
  39   2.0000      -0.623026       -16.9534
  40   2.0000      -0.586189       -15.9510
  41   2.0000      -0.567078       -15.4310
  42   2.0000      -0.551320       -15.0022
  43   2.0000      -0.547891       -14.9089
  44   2.0000      -0.538084       -14.6420
  45   2.0000      -0.535579       -14.5738
  46   2.0000      -0.514281       -13.9943
  47   2.0000      -0.511132       -13.9086
  48   2.0000      -0.503427       -13.6989
  49   2.0000      -0.494677       -13.4608
  50   2.0000      -0.485209       -13.2032
  51   2.0000      -0.481609       -13.1052
  52   2.0000      -0.473782       -12.8923
  53   2.0000      -0.466410       -12.6917
  54   2.0000      -0.460568       -12.5327
  55   2.0000      -0.447825       -12.1859
  56   2.0000      -0.442839       -12.0503
  57   2.0000      -0.440219       -11.9790
  58   2.0000      -0.431289       -11.7360
  59   2.0000      -0.424672       -11.5559
  60   2.0000      -0.419373       -11.4117
  61   2.0000      -0.412326       -11.2200
  62   2.0000      -0.406365       -11.0578
  63   2.0000      -0.362749        -9.8709
  64   2.0000      -0.336458        -9.1555
  65   2.0000      -0.323363        -8.7992
  66   2.0000      -0.283121        -7.7041
  67   0.0000       0.021747         0.5918
  68   0.0000       0.074631         2.0308
  69   0.0000       0.099490         2.7073
  70   0.0000       0.113760         3.0956
  71   0.0000       0.132755         3.6124

MULLIKEN ATOMIC CHARGES
-----------------------
   0 S :    0.095623
   1 C :   -0.111992
   2 C :   -0.105400
   3 C :    0.048536
   4 C :   -0.076709
   5 H :   -0.069895
   6 C :    0.091687
   7 H :    0.006362
   8 H :    0.020351
   9 C :   -0.073405
  10 H :    0.036308
  11 H :    0.032064
  12 C :   -0.089131
  13 H :    0.043391
  14 H :    0.063219
  15 H :    0.022838
  16 S :    0.100503
  17 C :   -0.076821
  18 C :   -0.012716
  19 C :   -0.062713
  20 C :   -0.127382
  21 H :   -0.003813
  22 C :    0.047904
  23 H :    0.019910
  24 H :    0.041544
  25 C :   -0.028205
  26 H :    0.002821
  27 H :    0.015932
  28 C :   -0.057170
  29 H :    0.025728
  30 H :    0.032109
  31 H :    0.050105
  32 H :    0.053677
  33 H :    0.044740
Sum of atomic charges:    0.0000000

LOEWDIN ATOMIC CHARGES
----------------------
   0 S :    0.380225
   1 C :   -0.202674
   2 C :   -0.060821
   3 C :   -0.051985
   4 C :   -0.171680
   5 H :    0.005303
   6 C :   -0.028748
   7 H :    0.025930
   8 H :    0.025085
   9 C :   -0.038143
  10 H :    0.027075
  11 H :    0.024556
  12 C :   -0.080901
  13 H :    0.031702
  14 H :    0.036823
  15 H :    0.022444
  16 S :    0.394930
  17 C :   -0.172603
  18 C :   -0.056423
  19 C :   -0.062509
  20 C :   -0.180029
  21 H :    0.022670
  22 C :   -0.029962
  23 H :    0.028917
  24 H :    0.037922
  25 C :   -0.037958
  26 H :    0.015025
  27 H :    0.022242
  28 C :   -0.067740
  29 H :    0.022235
  30 H :    0.020928
  31 H :    0.037302
  32 H :    0.033477
  33 H :    0.027381

  Mayer bond orders larger than 0.100000
B(  0-S ,  1-C ) :   1.1363 B(  0-S ,  4-C ) :   1.1239 B(  1-C ,  2-C ) :   1.5936
B(  1-C , 32-H ) :   0.9683 B(  2-C ,  3-C ) :   1.2494 B(  2-C ,  6-C ) :   1.0355
B(  3-C ,  4-C ) :   1.5591 B(  3-C ,  5-H ) :   1.0104 B(  4-C , 20-C ) :   1.0654
B(  6-C ,  7-H ) :   0.9391 B(  6-C ,  8-H ) :   0.9439 B(  6-C ,  9-C ) :   1.0455
B(  9-C , 10-H ) :   0.9588 B(  9-C , 11-H ) :   0.9604 B(  9-C , 12-C ) :   1.0757
B( 12-C , 13-H ) :   0.9724 B( 12-C , 14-H ) :   0.9673 B( 12-C , 15-H ) :   0.9730
B( 16-S , 17-C ) :   1.1232 B( 16-S , 20-C ) :   1.1356 B( 17-C , 18-C ) :   1.6622
B( 17-C , 33-H ) :   0.9664 B( 18-C , 19-C ) :   1.2024 B( 18-C , 21-H ) :   0.9942
B( 19-C , 20-C ) :   1.6006 B( 19-C , 22-C ) :   1.0484 B( 22-C , 23-H ) :   0.9325
B( 22-C , 24-H ) :   0.9376 B( 22-C , 25-C ) :   1.0586 B( 25-C , 26-H ) :   0.9512
B( 25-C , 27-H ) :   0.9532 B( 25-C , 28-C ) :   1.0776 B( 28-C , 29-H ) :   0.9800
B( 28-C , 30-H ) :   0.9753 B( 28-C , 31-H ) :   0.9692

Dispersion correction           -0.015321861
FINAL SINGLE POINT ENERGY     -1339.860612781203

DIPOLE MOMENT
-------------
                                X             Y             Z
Electronic contribution:     15.02476     -17.90582      -5.02431
Nuclear contribution   :    -15.48013      18.51467       5.04863
                        -----------------------------------------
Total Dipole Moment    :     -0.45538       0.60886       0.02432
                        -----------------------------------------
Magnitude (a.u.)       :      0.76070
Magnitude (Debye)      :      1.93355

Rotational constants in cm-1:     0.018195     0.009376     0.008073
Rotational constants in MHz :   545.479558   281.076358   242.035260

                             ****ORCA TERMINATED NORMALLY****
TOTAL RUN TIME: 0 days 0 hours 0 minutes 21 seconds 396 msec
