                         Program Version 4.2.1 -  RELEASE  -
|  1> ! wB97X-D3 SP def2-SVP
|  2> %pal
|  3> nprocs 24
|  4> end
|  5>
|  6> * xyz 0 1
|  7> S 	 -125.224 	 30.5763 	 -117.227
|  8> C 	 -125.699 	 28.9654 	 -117.681
|  9> C 	 -124.579 	 28.1631 	 -117.785
| 10> C 	 -123.479 	 28.7478 	 -117.197
| 11> C 	 -123.637 	 30.0507 	 -116.759
| 12> H 	 -122.495 	 28.2753 	 -117.08
| 13> C 	 -124.597 	 26.8023 	 -118.356
| 14> H 	 -125.604 	 26.5041 	 -118.785
| 15> H 	 -124.402 	 26.0884 	 -117.555
| 16> C 	 -123.68 	 26.5573 	 -119.537
| 17> H 	 -122.714 	 26.9897 	 -119.382
| 18> H 	 -123.607 	 25.4802 	 -119.592
| 19> C 	 -124.273 	 27.1023 	 -120.882
| 20> H 	 -125.075 	 26.4327 	 -121.187
| 21> H 	 -124.691 	 28.1349 	 -120.823
| 22> H 	 -123.529 	 27.0518 	 -121.684
| 23> S 	 -122.596 	 32.551 	 -116.692
| 24> C 	 -121.124 	 32.8262 	 -115.663
| 25> C 	 -120.869 	 31.6879 	 -114.918
| 26> C 	 -121.819 	 30.6365 	 -115.094
| 27> C 	 -122.72 	 30.9136 	 -116.077
| 28> H 	 -120.012 	 31.6711 	 -114.308
| 29> C 	 -121.637 	 29.2837 	 -114.527
| 30> H 	 -122.547 	 28.6985 	 -114.753
| 31> H 	 -121.539 	 29.5322 	 -113.511
| 32> C 	 -120.409 	 28.5164 	 -115.024
| 33> H 	 -119.53 	 29.1003 	 -114.909
| 34> H 	 -120.492 	 28.3063 	 -116.144
| 35> C 	 -120.093 	 27.2401 	 -114.24
| 36> H 	 -119.29 	 26.732 	 -114.715
| 37> H 	 -120.95 	 26.5254 	 -114.183
| 38> H 	 -119.818 	 27.583 	 -113.215
| 39> H 	 -126.672 	 28.691 	 -118.129
| 40> H 	 -120.544 	 33.7532 	 -115.556
| 41> *
| 42>
| 43>                          ****END OF INPUT****

CARTESIAN COORDINATES (ANGSTROEM)
---------------------------------
  S    -125.224000   30.576300  -117.227000
  C    -125.699000   28.965400  -117.681000
  C    -124.579000   28.163100  -117.785000
  C    -123.479000   28.747800  -117.197000
  C    -123.637000   30.050700  -116.759000
  H    -122.495000   28.275300  -117.080000
  C    -124.597000   26.802300  -118.356000
  H    -125.604000   26.504100  -118.785000
  H    -124.402000   26.088400  -117.555000
  C    -123.680000   26.557300  -119.537000
  H    -122.714000   26.989700  -119.382000
  H    -123.607000   25.480200  -119.592000
  C    -124.273000   27.102300  -120.882000
  H    -125.075000   26.432700  -121.187000
  H    -124.691000   28.134900  -120.823000
  H    -123.529000   27.051800  -121.684000
  S    -122.596000   32.551000  -116.692000
  C    -121.124000   32.826200  -115.663000
  C    -120.869000   31.687900  -114.918000
  C    -121.819000   30.636500  -115.094000
  C    -122.720000   30.913600  -116.077000
  H    -120.012000   31.671100  -114.308000
  C    -121.637000   29.283700  -114.527000
  H    -122.547000   28.698500  -114.753000
  H    -121.539000   29.532200  -113.511000
  C    -120.409000   28.516400  -115.024000
  H    -119.530000   29.100300  -114.909000
  H    -120.492000   28.306300  -116.144000
  C    -120.093000   27.240100  -114.240000
  H    -119.290000   26.732000  -114.715000
  H    -120.950000   26.525400  -114.183000
  H    -119.818000   27.583000  -113.215000
  H    -126.672000   28.691000  -118.129000
  H    -120.544000   33.753200  -115.556000

 Total Charge           Charge          ....    0
 Multiplicity           Mult            ....    1
 Number of Electrons    NEL             ....  134
 Basis Dimension        Dim             ....  322

ORBITAL ENERGIES
----------------

  NO   OCC          E(Eh)            E(eV)
   0   2.0000     -88.964515     -2420.8475
   1   2.0000     -88.964052     -2420.8349
   2   2.0000     -10.326517      -280.9988
   3   2.0000     -10.324858      -280.9537
   4   2.0000     -10.322539      -280.8906
   5   2.0000     -10.313874      -280.6548
   6   2.0000     -10.296636      -280.1857
   7   2.0000     -10.294318      -280.1226
   8   2.0000     -10.294003      -280.1141
   9   2.0000     -10.291798      -280.0541
  10   2.0000     -10.290946      -280.0309
  11   2.0000     -10.290408      -280.0162
  12   2.0000     -10.285206      -279.8747
  13   2.0000     -10.284981      -279.8686
  14   2.0000     -10.282835      -279.8102
  15   2.0000     -10.281076      -279.7623
  16   2.0000      -8.079800      -219.8625
  17   2.0000      -8.078023      -219.8142
  18   2.0000      -6.038178      -164.3072
  19   2.0000      -6.036729      -164.2678
  20   2.0000      -6.034254      -164.2004
  21   2.0000      -6.032744      -164.1593
  22   2.0000      -6.030639      -164.1020
  23   2.0000      -6.028504      -164.0439
  24   2.0000      -1.014138       -27.5961
  25   2.0000      -0.987244       -26.8643
  26   2.0000      -0.918145       -24.9840
  27   2.0000      -0.913030       -24.8448
  28   2.0000      -0.872767       -23.7492
  29   2.0000      -0.855423       -23.2772
  30   2.0000      -0.846347       -23.0303
  31   2.0000      -0.816710       -22.2238
  32   2.0000      -0.782921       -21.3044
  33   2.0000      -0.772323       -21.0160
  34   2.0000      -0.712019       -19.3750
  35   2.0000      -0.698103       -18.9963
  36   2.0000      -0.694654       -18.9025
  37   2.0000      -0.666753       -18.1433
  38   2.0000      -0.641294       -17.4505
  39   2.0000      -0.626611       -17.0509
  40   2.0000      -0.593641       -16.1538
  41   2.0000      -0.575767       -15.6674
  42   2.0000      -0.570570       -15.5260
  43   2.0000      -0.554228       -15.0813
  44   2.0000      -0.539465       -14.6796
  45   2.0000      -0.529833       -14.4175
  46   2.0000      -0.522261       -14.2114
  47   2.0000      -0.514853       -14.0099
  48   2.0000      -0.506177       -13.7738
  49   2.0000      -0.498934       -13.5767
  50   2.0000      -0.488084       -13.2814
  51   2.0000      -0.479917       -13.0592
  52   2.0000      -0.468719       -12.7545
  53   2.0000      -0.467623       -12.7247
  54   2.0000      -0.461422       -12.5559
  55   2.0000      -0.450857       -12.2684
  56   2.0000      -0.443580       -12.0704
  57   2.0000      -0.438049       -11.9199
  58   2.0000      -0.434333       -11.8188
  59   2.0000      -0.425772       -11.5858
  60   2.0000      -0.424111       -11.5406
  61   2.0000      -0.418523       -11.3886
  62   2.0000      -0.412159       -11.2154
  63   2.0000      -0.352235        -9.5848
  64   2.0000      -0.333598        -9.0777
  65   2.0000      -0.328420        -8.9368
  66   2.0000      -0.287591        -7.8257
  67   0.0000       0.024985         0.6799
  68   0.0000       0.070566         1.9202
  69   0.0000       0.099108         2.6969
  70   0.0000       0.124115         3.3773
  71   0.0000       0.131876         3.5885

MULLIKEN ATOMIC CHARGES
-----------------------
   0 S :    0.110311
   1 C :   -0.124778
   2 C :   -0.062432
   3 C :    0.009429
   4 C :   -0.145741
   5 H :   -0.001583
   6 C :    0.039885
   7 H :    0.014477
   8 H :    0.036822
   9 C :   -0.055544
  10 H :    0.026462
  11 H :    0.027220
  12 C :   -0.074140
  13 H :    0.026152
  14 H :    0.049924
  15 H :    0.036401
  16 S :    0.087660
  17 C :   -0.097499
  18 C :   -0.033207
  19 C :   -0.029848
  20 C :   -0.127001
  21 H :    0.004195
  22 C :    0.081173
  23 H :    0.040544
  24 H :    0.011470
  25 C :   -0.093810
  26 H :    0.013975
  27 H :    0.038669
  28 C :   -0.035433
  29 H :    0.032632
  30 H :    0.035289
  31 H :    0.035008
  32 H :    0.057016
  33 H :    0.066302
Sum of atomic charges:   -0.0000000

LOEWDIN ATOMIC CHARGES
----------------------
   0 S :    0.415902
   1 C :   -0.200828
   2 C :   -0.072895
   3 C :   -0.068123
   4 C :   -0.194674
   5 H :    0.031063
   6 C :   -0.035327
   7 H :    0.033869
   8 H :    0.032416
   9 C :   -0.034607
  10 H :    0.016853
  11 H :    0.025829
  12 C :   -0.068331
  13 H :    0.022174
  14 H :    0.031371
  15 H :    0.026320
  16 S :    0.369360
  17 C :   -0.165560
  18 C :   -0.060467
  19 C :   -0.060034
  20 C :   -0.189591
  21 H :    0.023728
  22 C :   -0.031633
  23 H :    0.036464
  24 H :    0.027165
  25 C :   -0.040931
  26 H :    0.017995
  27 H :    0.025872
  28 C :   -0.061821
  29 H :    0.022429
  30 H :    0.026357
  31 H :    0.029421
  32 H :    0.033695
  33 H :    0.036538

  Mayer bond orders larger than 0.100000
B(  0-S ,  1-C ) :   1.1522 B(  0-S ,  4-C ) :   1.1621 B(  1-C ,  2-C ) :   1.5683
B(  1-C ,  4-C ) :   0.1109 B(  1-C , 32-H ) :   0.9631 B(  2-C ,  3-C ) :   1.2730
B(  2-C ,  6-C ) :   1.0388 B(  3-C ,  4-C ) :   1.5274 B(  3-C ,  5-H ) :   0.9927
B(  4-C , 20-C ) :   1.0529 B(  6-C ,  7-H ) :   0.9400 B(  6-C ,  8-H ) :   0.9369
B(  6-C ,  9-C ) :   1.0698 B(  9-C , 10-H ) :   0.9612 B(  9-C , 11-H ) :   0.9546
B(  9-C , 12-C ) :   1.0688 B( 12-C , 13-H ) :   0.9741 B( 12-C , 14-H ) :   0.9796
B( 12-C , 15-H ) :   0.9759 B( 16-S , 17-C ) :   1.1197 B( 16-S , 20-C ) :   1.1185
B( 17-C , 18-C ) :   1.6468 B( 17-C , 33-H ) :   0.9664 B( 18-C , 19-C ) :   1.1930
B( 18-C , 21-H ) :   0.9949 B( 19-C , 20-C ) :   1.6220 B( 19-C , 22-C ) :   1.0615
B( 22-C , 23-H ) :   0.9276 B( 22-C , 24-H ) :   0.9132 B( 22-C , 25-C ) :   1.0737
B( 25-C , 26-H ) :   0.9490 B( 25-C , 27-H ) :   0.9481 B( 25-C , 28-C ) :   1.0811
B( 28-C , 29-H ) :   0.9735 B( 28-C , 30-H ) :   0.9761 B( 28-C , 31-H ) :   0.9746

Dispersion correction           -0.014490020
FINAL SINGLE POINT ENERGY     -1339.881703865291

DIPOLE MOMENT
-------------
                                X             Y             Z
Electronic contribution:     -9.88546      26.08775       3.23006
Nuclear contribution   :     10.37165     -26.71957      -3.18988
                        -----------------------------------------
Total Dipole Moment    :      0.48620      -0.63182       0.04018
                        -----------------------------------------
Magnitude (a.u.)       :      0.79825
Magnitude (Debye)      :      2.02899

Rotational constants in cm-1:     0.017456     0.009564     0.007089
Rotational constants in MHz :   523.304094   286.722067   212.534357

                             ****ORCA TERMINATED NORMALLY****
TOTAL RUN TIME: 0 days 0 hours 0 minutes 22 seconds 193 msec
