                         Program Version 4.2.1 -  RELEASE  -
|  1> ! wB97X-D3 SP def2-SVP
|  2> %pal
|  3> nprocs 24
|  4> end
|  5>
|  6> * xyz 0 1
|  7> S 	 29.9613 	 -35.8369 	 -127.807
|  8> C 	 30.6194 	 -34.654 	 -126.641
|  9> C 	 31.6185 	 -33.8884 	 -127.256
| 10> C 	 31.6394 	 -34.1986 	 -128.631
| 11> C 	 30.8587 	 -35.2345 	 -129.123
| 12> H 	 32.2479 	 -33.6659 	 -129.373
| 13> C 	 32.3733 	 -32.7018 	 -126.589
| 14> H 	 31.8172 	 -32.2708 	 -125.733
| 15> H 	 32.5707 	 -31.943 	 -127.371
| 16> C 	 33.6609 	 -33.0052 	 -125.874
| 17> H 	 33.9541 	 -32.0993 	 -125.362
| 18> H 	 33.6127 	 -33.786 	 -125.096
| 19> C 	 34.893 	 -33.2686 	 -126.761
| 20> H 	 35.7646 	 -33.7341 	 -126.332
| 21> H 	 34.7491 	 -33.9654 	 -127.593
| 22> H 	 35.3587 	 -32.3566 	 -127.096
| 23> S 	 28.7831 	 -36.1427 	 -130.701
| 24> C 	 28.9951 	 -36.2198 	 -132.382
| 25> C 	 30.2858 	 -35.9165 	 -132.798
| 26> C 	 31.1628 	 -35.6991 	 -131.692
| 27> C 	 30.459 	 -35.6467 	 -130.507
| 28> H 	 30.8068 	 -35.9845 	 -133.819
| 29> C 	 32.6498 	 -35.4053 	 -132.047
| 30> H 	 32.9298 	 -34.7344 	 -131.169
| 31> H 	 32.533 	 -34.789 	 -132.944
| 32> C 	 33.4452 	 -36.6875 	 -132.282
| 33> H 	 33.0968 	 -37.3273 	 -133.105
| 34> H 	 33.4035 	 -37.3601 	 -131.462
| 35> C 	 34.9285 	 -36.3035 	 -132.712
| 36> H 	 34.9774 	 -35.704 	 -133.649
| 37> H 	 35.6035 	 -37.1732 	 -132.726
| 38> H 	 35.3788 	 -35.5688 	 -132.016
| 39> H 	 30.1932 	 -34.4206 	 -125.631
| 40> H 	 28.2408 	 -36.6721 	 -133.038
| 41> *
| 42>
| 43>                          ****END OF INPUT****

CARTESIAN COORDINATES (ANGSTROEM)
---------------------------------
  S     29.961300  -35.836900  -127.807000
  C     30.619400  -34.654000  -126.641000
  C     31.618500  -33.888400  -127.256000
  C     31.639400  -34.198600  -128.631000
  C     30.858700  -35.234500  -129.123000
  H     32.247900  -33.665900  -129.373000
  C     32.373300  -32.701800  -126.589000
  H     31.817200  -32.270800  -125.733000
  H     32.570700  -31.943000  -127.371000
  C     33.660900  -33.005200  -125.874000
  H     33.954100  -32.099300  -125.362000
  H     33.612700  -33.786000  -125.096000
  C     34.893000  -33.268600  -126.761000
  H     35.764600  -33.734100  -126.332000
  H     34.749100  -33.965400  -127.593000
  H     35.358700  -32.356600  -127.096000
  S     28.783100  -36.142700  -130.701000
  C     28.995100  -36.219800  -132.382000
  C     30.285800  -35.916500  -132.798000
  C     31.162800  -35.699100  -131.692000
  C     30.459000  -35.646700  -130.507000
  H     30.806800  -35.984500  -133.819000
  C     32.649800  -35.405300  -132.047000
  H     32.929800  -34.734400  -131.169000
  H     32.533000  -34.789000  -132.944000
  C     33.445200  -36.687500  -132.282000
  H     33.096800  -37.327300  -133.105000
  H     33.403500  -37.360100  -131.462000
  C     34.928500  -36.303500  -132.712000
  H     34.977400  -35.704000  -133.649000
  H     35.603500  -37.173200  -132.726000
  H     35.378800  -35.568800  -132.016000
  H     30.193200  -34.420600  -125.631000
  H     28.240800  -36.672100  -133.038000

 Total Charge           Charge          ....    0
 Multiplicity           Mult            ....    1
 Number of Electrons    NEL             ....  134
 Basis Dimension        Dim             ....  322

ORBITAL ENERGIES
----------------

  NO   OCC          E(Eh)            E(eV)
   0   2.0000     -88.969190     -2420.9747
   1   2.0000     -88.964318     -2420.8422
   2   2.0000     -10.331441      -281.1328
   3   2.0000     -10.329237      -281.0728
   4   2.0000     -10.321668      -280.8669
   5   2.0000     -10.318163      -280.7715
   6   2.0000     -10.307009      -280.4680
   7   2.0000     -10.305090      -280.4158
   8   2.0000     -10.302262      -280.3388
   9   2.0000     -10.301226      -280.3106
  10   2.0000     -10.298315      -280.2314
  11   2.0000     -10.294045      -280.1152
  12   2.0000     -10.293430      -280.0985
  13   2.0000     -10.287363      -279.9334
  14   2.0000     -10.286391      -279.9069
  15   2.0000     -10.270556      -279.4760
  16   2.0000      -8.084755      -219.9974
  17   2.0000      -8.079390      -219.8514
  18   2.0000      -6.043163      -164.4428
  19   2.0000      -6.039234      -164.3359
  20   2.0000      -6.037876      -164.2990
  21   2.0000      -6.035461      -164.2332
  22   2.0000      -6.033708      -164.1855
  23   2.0000      -6.030288      -164.0925
  24   2.0000      -1.010965       -27.5098
  25   2.0000      -0.987953       -26.8836
  26   2.0000      -0.913262       -24.8511
  27   2.0000      -0.908201       -24.7134
  28   2.0000      -0.866081       -23.5673
  29   2.0000      -0.852382       -23.1945
  30   2.0000      -0.837558       -22.7911
  31   2.0000      -0.809115       -22.0171
  32   2.0000      -0.786014       -21.3885
  33   2.0000      -0.775033       -21.0897
  34   2.0000      -0.710513       -19.3340
  35   2.0000      -0.700941       -19.0736
  36   2.0000      -0.689582       -18.7645
  37   2.0000      -0.663280       -18.0488
  38   2.0000      -0.637203       -17.3392
  39   2.0000      -0.613871       -16.7043
  40   2.0000      -0.593957       -16.1624
  41   2.0000      -0.572024       -15.5656
  42   2.0000      -0.557912       -15.1816
  43   2.0000      -0.546180       -14.8623
  44   2.0000      -0.539801       -14.6887
  45   2.0000      -0.532516       -14.4905
  46   2.0000      -0.510608       -13.8943
  47   2.0000      -0.507701       -13.8152
  48   2.0000      -0.497992       -13.5511
  49   2.0000      -0.497605       -13.5405
  50   2.0000      -0.490149       -13.3376
  51   2.0000      -0.480687       -13.0802
  52   2.0000      -0.474884       -12.9223
  53   2.0000      -0.464766       -12.6469
  54   2.0000      -0.457449       -12.4478
  55   2.0000      -0.454108       -12.3569
  56   2.0000      -0.450966       -12.2714
  57   2.0000      -0.433231       -11.7888
  58   2.0000      -0.428210       -11.6522
  59   2.0000      -0.424011       -11.5379
  60   2.0000      -0.421725       -11.4757
  61   2.0000      -0.411409       -11.1950
  62   2.0000      -0.407874       -11.0988
  63   2.0000      -0.350330        -9.5330
  64   2.0000      -0.336517        -9.1571
  65   2.0000      -0.330867        -9.0033
  66   2.0000      -0.286876        -7.8063
  67   0.0000       0.023354         0.6355
  68   0.0000       0.076951         2.0939
  69   0.0000       0.103152         2.8069
  70   0.0000       0.117570         3.1992
  71   0.0000       0.129045         3.5115

MULLIKEN ATOMIC CHARGES
-----------------------
   0 S :    0.081657
   1 C :   -0.151784
   2 C :   -0.052170
   3 C :   -0.007565
   4 C :   -0.121262
   5 H :    0.010794
   6 C :    0.059794
   7 H :    0.034518
   8 H :    0.035871
   9 C :   -0.057821
  10 H :    0.025451
  11 H :    0.036393
  12 C :   -0.066895
  13 H :    0.015778
  14 H :    0.029783
  15 H :    0.018954
  16 S :    0.123052
  17 C :   -0.092024
  18 C :   -0.042953
  19 C :   -0.094110
  20 C :   -0.151383
  21 H :    0.043003
  22 C :    0.056235
  23 H :    0.035480
  24 H :    0.034863
  25 C :   -0.044410
  26 H :    0.033614
  27 H :    0.032364
  28 C :   -0.068739
  29 H :    0.033510
  30 H :    0.045071
  31 H :    0.024632
  32 H :    0.071413
  33 H :    0.068888
Sum of atomic charges:    0.0000000

LOEWDIN ATOMIC CHARGES
----------------------
   0 S :    0.407413
   1 C :   -0.195861
   2 C :   -0.064021
   3 C :   -0.079417
   4 C :   -0.207411
   5 H :    0.025296
   6 C :   -0.027124
   7 H :    0.040029
   8 H :    0.036527
   9 C :   -0.043288
  10 H :    0.026545
  11 H :    0.027530
  12 C :   -0.080451
  13 H :    0.025623
  14 H :    0.024610
  15 H :    0.021301
  16 S :    0.428205
  17 C :   -0.204300
  18 C :   -0.083508
  19 C :   -0.060123
  20 C :   -0.201635
  21 H :    0.043582
  22 C :   -0.028781
  23 H :    0.039367
  24 H :    0.033156
  25 C :   -0.035169
  26 H :    0.029577
  27 H :    0.024710
  28 C :   -0.074990
  29 H :    0.028144
  30 H :    0.027239
  31 H :    0.024127
  32 H :    0.039852
  33 H :    0.033248

  Mayer bond orders larger than 0.100000
B(  0-S ,  1-C ) :   1.1539 B(  0-S ,  4-C ) :   1.1583 B(  1-C ,  2-C ) :   1.5750
B(  1-C ,  4-C ) :   0.1034 B(  1-C , 32-H ) :   0.9616 B(  2-C ,  3-C ) :   1.2818
B(  2-C ,  6-C ) :   1.0121 B(  3-C ,  4-C ) :   1.5646 B(  3-C ,  5-H ) :   0.9791
B(  4-C , 20-C ) :   1.0236 B(  6-C ,  7-H ) :   0.9430 B(  6-C ,  8-H ) :   0.9447
B(  6-C ,  9-C ) :   1.0741 B(  9-C , 10-H ) :   0.9567 B(  9-C , 11-H ) :   0.9577
B(  9-C , 12-C ) :   1.0692 B( 12-C , 13-H ) :   0.9713 B( 12-C , 14-H ) :   0.9776
B( 12-C , 15-H ) :   0.9771 B( 16-S , 17-C ) :   1.1751 B( 16-S , 20-C ) :   1.1409
B( 17-C , 18-C ) :   1.5764 B( 17-C , 33-H ) :   0.9635 B( 18-C , 19-C ) :   1.2759
B( 18-C , 21-H ) :   0.9695 B( 19-C , 20-C ) :   1.6119 B( 19-C , 22-C ) :   1.0073
B( 22-C , 23-H ) :   0.9367 B( 22-C , 24-H ) :   0.9427 B( 22-C , 25-C ) :   1.0574
B( 25-C , 26-H ) :   0.9569 B( 25-C , 27-H ) :   0.9572 B( 25-C , 28-C ) :   1.0675
B( 28-C , 29-H ) :   0.9755 B( 28-C , 30-H ) :   0.9770 B( 28-C , 31-H ) :   0.9758

Dispersion correction           -0.013403282
FINAL SINGLE POINT ENERGY     -1339.857178888595

DIPOLE MOMENT
-------------
                                X             Y             Z
Electronic contribution:    -29.80133      -8.69024       1.24439
Nuclear contribution   :     30.29401       8.98756      -1.41092
                        -----------------------------------------
Total Dipole Moment    :      0.49268       0.29732      -0.16653
                        -----------------------------------------
Magnitude (a.u.)       :      0.59905
Magnitude (Debye)      :      1.52267

Rotational constants in cm-1:     0.016684     0.009036     0.006263
Rotational constants in MHz :   500.185387   270.896379   187.750304

                             ****ORCA TERMINATED NORMALLY****
TOTAL RUN TIME: 0 days 0 hours 0 minutes 21 seconds 72 msec
