                         Program Version 4.2.1 -  RELEASE  -
|  1> ! wB97X-D3 SP def2-SVP
|  2> %pal
|  3> nprocs 24
|  4> end
|  5>
|  6> * xyz 0 1
|  7> S 	 -109.637 	 60.4559 	 -21.1844
|  8> C 	 -109.256 	 61.5532 	 -19.9109
|  9> C 	 -108.541 	 61.0438 	 -18.8531
| 10> C 	 -108.302 	 59.6385 	 -19.0989
| 11> C 	 -108.757 	 59.2402 	 -20.3203
| 12> H 	 -107.709 	 58.9307 	 -18.5135
| 13> C 	 -108.161 	 61.7454 	 -17.6027
| 14> H 	 -107.476 	 61.0562 	 -17.0382
| 15> H 	 -109.021 	 61.8211 	 -16.9481
| 16> C 	 -107.7 	 63.159 	 -17.8548
| 17> H 	 -106.684 	 63.0416 	 -18.2588
| 18> H 	 -108.325 	 63.6713 	 -18.5684
| 19> C 	 -107.66 	 64.1544 	 -16.7076
| 20> H 	 -107.109 	 63.646 	 -15.9443
| 21> H 	 -106.973 	 64.9659 	 -17.072
| 22> H 	 -108.638 	 64.6886 	 -16.3809
| 23> S 	 -110.253 	 56.9898 	 -21.042
| 24> C 	 -109.446 	 55.4597 	 -21.2016
| 25> C 	 -108.087 	 55.5831 	 -21.4136
| 26> C 	 -107.691 	 56.9238 	 -21.0704
| 27> C 	 -108.755 	 57.8579 	 -20.8096
| 28> H 	 -107.462 	 54.6028 	 -21.6697
| 29> C 	 -106.24 	 57.2369 	 -20.8254
| 30> H 	 -106.087 	 58.2924 	 -20.9709
| 31> H 	 -105.553 	 56.8581 	 -21.5586
| 32> C 	 -105.579 	 56.8962 	 -19.4695
| 33> H 	 -105.511 	 55.821 	 -19.4271
| 34> H 	 -106.27 	 57.1496 	 -18.6121
| 35> C 	 -104.119 	 57.2266 	 -19.4342
| 36> H 	 -103.646 	 56.9448 	 -20.3557
| 37> H 	 -103.635 	 56.606 	 -18.6627
| 38> H 	 -104.022 	 58.339 	 -19.3217
| 39> H 	 -109.67 	 62.5604 	 -19.7664
| 40> H 	 -109.902 	 54.5145 	 -21.2923
| 41> *
| 42>
| 43>                          ****END OF INPUT****

CARTESIAN COORDINATES (ANGSTROEM)
---------------------------------
  S    -109.637000   60.455900  -21.184400
  C    -109.256000   61.553200  -19.910900
  C    -108.541000   61.043800  -18.853100
  C    -108.302000   59.638500  -19.098900
  C    -108.757000   59.240200  -20.320300
  H    -107.709000   58.930700  -18.513500
  C    -108.161000   61.745400  -17.602700
  H    -107.476000   61.056200  -17.038200
  H    -109.021000   61.821100  -16.948100
  C    -107.700000   63.159000  -17.854800
  H    -106.684000   63.041600  -18.258800
  H    -108.325000   63.671300  -18.568400
  C    -107.660000   64.154400  -16.707600
  H    -107.109000   63.646000  -15.944300
  H    -106.973000   64.965900  -17.072000
  H    -108.638000   64.688600  -16.380900
  S    -110.253000   56.989800  -21.042000
  C    -109.446000   55.459700  -21.201600
  C    -108.087000   55.583100  -21.413600
  C    -107.691000   56.923800  -21.070400
  C    -108.755000   57.857900  -20.809600
  H    -107.462000   54.602800  -21.669700
  C    -106.240000   57.236900  -20.825400
  H    -106.087000   58.292400  -20.970900
  H    -105.553000   56.858100  -21.558600
  C    -105.579000   56.896200  -19.469500
  H    -105.511000   55.821000  -19.427100
  H    -106.270000   57.149600  -18.612100
  C    -104.119000   57.226600  -19.434200
  H    -103.646000   56.944800  -20.355700
  H    -103.635000   56.606000  -18.662700
  H    -104.022000   58.339000  -19.321700
  H    -109.670000   62.560400  -19.766400
  H    -109.902000   54.514500  -21.292300

 Total Charge           Charge          ....    0
 Multiplicity           Mult            ....    1
 Number of Electrons    NEL             ....  134
 Basis Dimension        Dim             ....  322

ORBITAL ENERGIES
----------------

  NO   OCC          E(Eh)            E(eV)
   0   2.0000     -88.969546     -2420.9844
   1   2.0000     -88.965473     -2420.8736
   2   2.0000     -10.328722      -281.0588
   3   2.0000     -10.325645      -280.9751
   4   2.0000     -10.313251      -280.6378
   5   2.0000     -10.309008      -280.5224
   6   2.0000     -10.308899      -280.5194
   7   2.0000     -10.304458      -280.3986
   8   2.0000     -10.298523      -280.2371
   9   2.0000     -10.293656      -280.1046
  10   2.0000     -10.292887      -280.0837
  11   2.0000     -10.286525      -279.9106
  12   2.0000     -10.285185      -279.8741
  13   2.0000     -10.283914      -279.8395
  14   2.0000     -10.281102      -279.7630
  15   2.0000     -10.280367      -279.7430
  16   2.0000      -8.084989      -220.0037
  17   2.0000      -8.080360      -219.8778
  18   2.0000      -6.043402      -164.4493
  19   2.0000      -6.039586      -164.3455
  20   2.0000      -6.038875      -164.3262
  21   2.0000      -6.035629      -164.2378
  22   2.0000      -6.034788      -164.2149
  23   2.0000      -6.031159      -164.1162
  24   2.0000      -1.009112       -27.4593
  25   2.0000      -0.985502       -26.8169
  26   2.0000      -0.921065       -25.0635
  27   2.0000      -0.910922       -24.7874
  28   2.0000      -0.868742       -23.6397
  29   2.0000      -0.856048       -23.2942
  30   2.0000      -0.849837       -23.1252
  31   2.0000      -0.816662       -22.2225
  32   2.0000      -0.783980       -21.3332
  33   2.0000      -0.766215       -20.8498
  34   2.0000      -0.706651       -19.2289
  35   2.0000      -0.695489       -18.9252
  36   2.0000      -0.689524       -18.7629
  37   2.0000      -0.654151       -17.8004
  38   2.0000      -0.636849       -17.3295
  39   2.0000      -0.615845       -16.7580
  40   2.0000      -0.596719       -16.2376
  41   2.0000      -0.578929       -15.7535
  42   2.0000      -0.565020       -15.3750
  43   2.0000      -0.562858       -15.3161
  44   2.0000      -0.527179       -14.3453
  45   2.0000      -0.523935       -14.2570
  46   2.0000      -0.519958       -14.1488
  47   2.0000      -0.511623       -13.9220
  48   2.0000      -0.503098       -13.6900
  49   2.0000      -0.500956       -13.6317
  50   2.0000      -0.492269       -13.3953
  51   2.0000      -0.480443       -13.0735
  52   2.0000      -0.467981       -12.7344
  53   2.0000      -0.465384       -12.6637
  54   2.0000      -0.456510       -12.4223
  55   2.0000      -0.452235       -12.3059
  56   2.0000      -0.446445       -12.1484
  57   2.0000      -0.438387       -11.9291
  58   2.0000      -0.430990       -11.7278
  59   2.0000      -0.422878       -11.5071
  60   2.0000      -0.421212       -11.4618
  61   2.0000      -0.416056       -11.3214
  62   2.0000      -0.400310       -10.8930
  63   2.0000      -0.345359        -9.3977
  64   2.0000      -0.330493        -8.9932
  65   2.0000      -0.323197        -8.7946
  66   2.0000      -0.293358        -7.9827
  67   0.0000       0.036849         1.0027
  68   0.0000       0.062348         1.6966
  69   0.0000       0.112092         3.0502
  70   0.0000       0.122003         3.3199
  71   0.0000       0.126220         3.4346

MULLIKEN ATOMIC CHARGES
-----------------------
   0 S :    0.134943
   1 C :   -0.124372
   2 C :   -0.098755
   3 C :    0.035092
   4 C :   -0.165037
   5 H :    0.004111
   6 C :    0.106351
   7 H :    0.027432
   8 H :    0.030000
   9 C :   -0.115167
  10 H :    0.037003
  11 H :    0.026642
  12 C :   -0.062039
  13 H :    0.025014
  14 H :    0.036683
  15 H :    0.058807
  16 S :    0.115214
  17 C :   -0.087163
  18 C :   -0.059783
  19 C :   -0.035651
  20 C :   -0.143617
  21 H :    0.071680
  22 C :    0.049241
  23 H :    0.011931
  24 H :    0.001469
  25 C :   -0.077692
  26 H :    0.007133
  27 H :    0.036823
  28 C :   -0.037596
  29 H :    0.022020
  30 H :    0.041466
  31 H :    0.041476
  32 H :    0.046614
  33 H :    0.039727
Sum of atomic charges:   -0.0000000

LOEWDIN ATOMIC CHARGES
----------------------
   0 S :    0.425652
   1 C :   -0.209665
   2 C :   -0.061732
   3 C :   -0.055300
   4 C :   -0.200908
   5 H :    0.032215
   6 C :   -0.039244
   7 H :    0.035762
   8 H :    0.033687
   9 C :   -0.045551
  10 H :    0.031156
  11 H :    0.022170
  12 C :   -0.075546
  13 H :    0.019451
  14 H :    0.035084
  15 H :    0.037330
  16 S :    0.414447
  17 C :   -0.183338
  18 C :   -0.085900
  19 C :   -0.052563
  20 C :   -0.210925
  21 H :    0.059913
  22 C :   -0.043260
  23 H :    0.024624
  24 H :    0.025671
  25 C :   -0.048203
  26 H :    0.018663
  27 H :    0.024991
  28 C :   -0.061677
  29 H :    0.023323
  30 H :    0.032204
  31 H :    0.029254
  32 H :    0.028063
  33 H :    0.020154

  Mayer bond orders larger than 0.100000
B(  0-S ,  1-C ) :   1.1347 B(  0-S ,  4-C ) :   1.1478 B(  1-C ,  2-C ) :   1.6450
B(  1-C , 32-H ) :   0.9509 B(  2-C ,  3-C ) :   1.2174 B(  2-C ,  6-C ) :   1.0265
B(  3-C ,  4-C ) :   1.6112 B(  3-C ,  5-H ) :   0.9871 B(  4-C , 20-C ) :   1.0225
B(  6-C ,  7-H ) :   0.9366 B(  6-C ,  8-H ) :   0.9240 B(  6-C ,  9-C ) :   1.0560
B(  9-C , 10-H ) :   0.9563 B(  9-C , 11-H ) :   0.9561 B(  9-C , 12-C ) :   1.0867
B( 12-C , 13-H ) :   0.9719 B( 12-C , 14-H ) :   0.9713 B( 12-C , 15-H ) :   0.9719
B( 16-S , 17-C ) :   1.1758 B( 16-S , 20-C ) :   1.1367 B( 17-C , 18-C ) :   1.6058
B( 17-C , 20-C ) :   0.1006 B( 17-C , 33-H ) :   0.9678 B( 18-C , 19-C ) :   1.2452
B( 18-C , 21-H ) :   0.9709 B( 19-C , 20-C ) :   1.5684 B( 19-C , 22-C ) :   1.0658
B( 22-C , 23-H ) :   0.9306 B( 22-C , 24-H ) :   0.9291 B( 22-C , 25-C ) :   1.0603
B( 25-C , 26-H ) :   0.9499 B( 25-C , 27-H ) :   0.9504 B( 25-C , 28-C ) :   1.0736
B( 28-C , 29-H ) :   0.9673 B( 28-C , 30-H ) :   0.9748 B( 28-C , 31-H ) :   0.9757

Dispersion correction           -0.013778069
FINAL SINGLE POINT ENERGY     -1339.851400009465

DIPOLE MOMENT
-------------
                                X             Y             Z
Electronic contribution:    -22.72190      -9.90997     -17.15785
Nuclear contribution   :     23.17838       9.84170      17.57455
                        -----------------------------------------
Total Dipole Moment    :      0.45648      -0.06827       0.41670
                        -----------------------------------------
Magnitude (a.u.)       :      0.62183
Magnitude (Debye)      :      1.58057

Rotational constants in cm-1:     0.019195     0.008111     0.006155
Rotational constants in MHz :   575.440533   243.165368   184.523436

                             ****ORCA TERMINATED NORMALLY****
TOTAL RUN TIME: 0 days 0 hours 0 minutes 21 seconds 462 msec
