                         Program Version 4.2.1 -  RELEASE  -
|  1> ! wB97X-D3 SP def2-SVP
|  2> %pal
|  3> nprocs 24
|  4> end
|  5>
|  6> * xyz 0 1
|  7> S 	 -45.3592 	 29.8507 	 31.1245
|  8> C 	 -46.7796 	 28.9569 	 31.0415
|  9> C 	 -46.4446 	 27.6028 	 30.7923
| 10> C 	 -45.0284 	 27.3405 	 30.4848
| 11> C 	 -44.3188 	 28.519 	 30.6551
| 12> H 	 -44.4757 	 26.5128 	 30.162
| 13> C 	 -47.2996 	 26.4037 	 30.9647
| 14> H 	 -48.3254 	 26.6903 	 31.3205
| 15> H 	 -46.8784 	 25.7933 	 31.7982
| 16> C 	 -47.4588 	 25.4633 	 29.7427
| 17> H 	 -47.9294 	 26.0014 	 28.8973
| 18> H 	 -46.5096 	 25.092 	 29.4156
| 19> C 	 -48.3987 	 24.2306 	 30.0664
| 20> H 	 -48.2155 	 23.6568 	 30.9274
| 21> H 	 -49.4344 	 24.6499 	 30.1729
| 22> H 	 -48.4512 	 23.5301 	 29.218
| 23> S 	 -42.0913 	 29.5101 	 31.8832
| 24> C 	 -40.5836 	 29.4303 	 31.0928
| 25> C 	 -40.6502 	 28.6146 	 29.9568
| 26> C 	 -41.9528 	 28.2029 	 29.6741
| 27> C 	 -42.8549 	 28.6622 	 30.596
| 28> H 	 -39.7958 	 28.3526 	 29.3759
| 29> C 	 -42.2919 	 27.3023 	 28.482
| 30> H 	 -41.9985 	 27.7168 	 27.5517
| 31> H 	 -43.3674 	 27.2952 	 28.3433
| 32> C 	 -41.7162 	 25.8504 	 28.5709
| 33> H 	 -42.1759 	 25.3786 	 29.3837
| 34> H 	 -40.6424 	 25.9555 	 28.8076
| 35> C 	 -42.0034 	 24.9295 	 27.3998
| 36> H 	 -41.4791 	 24.0215 	 27.5338
| 37> H 	 -41.7501 	 25.2877 	 26.4347
| 38> H 	 -43.1013 	 24.686 	 27.3174
| 39> H 	 -47.7266 	 29.2584 	 31.3057
| 40> H 	 -39.6038 	 29.8853 	 31.4026
| 41> *
| 42>
| 43>                          ****END OF INPUT****

CARTESIAN COORDINATES (ANGSTROEM)
---------------------------------
  S    -45.359200   29.850700   31.124500
  C    -46.779600   28.956900   31.041500
  C    -46.444600   27.602800   30.792300
  C    -45.028400   27.340500   30.484800
  C    -44.318800   28.519000   30.655100
  H    -44.475700   26.512800   30.162000
  C    -47.299600   26.403700   30.964700
  H    -48.325400   26.690300   31.320500
  H    -46.878400   25.793300   31.798200
  C    -47.458800   25.463300   29.742700
  H    -47.929400   26.001400   28.897300
  H    -46.509600   25.092000   29.415600
  C    -48.398700   24.230600   30.066400
  H    -48.215500   23.656800   30.927400
  H    -49.434400   24.649900   30.172900
  H    -48.451200   23.530100   29.218000
  S    -42.091300   29.510100   31.883200
  C    -40.583600   29.430300   31.092800
  C    -40.650200   28.614600   29.956800
  C    -41.952800   28.202900   29.674100
  C    -42.854900   28.662200   30.596000
  H    -39.795800   28.352600   29.375900
  C    -42.291900   27.302300   28.482000
  H    -41.998500   27.716800   27.551700
  H    -43.367400   27.295200   28.343300
  C    -41.716200   25.850400   28.570900
  H    -42.175900   25.378600   29.383700
  H    -40.642400   25.955500   28.807600
  C    -42.003400   24.929500   27.399800
  H    -41.479100   24.021500   27.533800
  H    -41.750100   25.287700   26.434700
  H    -43.101300   24.686000   27.317400
  H    -47.726600   29.258400   31.305700
  H    -39.603800   29.885300   31.402600

 Total Charge           Charge          ....    0
 Multiplicity           Mult            ....    1
 Number of Electrons    NEL             ....  134
 Basis Dimension        Dim             ....  322

ORBITAL ENERGIES
----------------

  NO   OCC          E(Eh)            E(eV)
   0   2.0000     -88.968940     -2420.9679
   1   2.0000     -88.965705     -2420.8799
   2   2.0000     -10.329250      -281.0732
   3   2.0000     -10.321739      -280.8688
   4   2.0000     -10.317931      -280.7652
   5   2.0000     -10.309611      -280.5388
   6   2.0000     -10.306900      -280.4650
   7   2.0000     -10.297457      -280.2080
   8   2.0000     -10.293813      -280.1089
   9   2.0000     -10.293707      -280.1060
  10   2.0000     -10.291090      -280.0348
  11   2.0000     -10.289052      -279.9793
  12   2.0000     -10.287997      -279.9506
  13   2.0000     -10.286280      -279.9039
  14   2.0000     -10.280814      -279.7552
  15   2.0000     -10.277111      -279.6544
  16   2.0000      -8.084780      -219.9981
  17   2.0000      -8.081448      -219.9074
  18   2.0000      -6.043134      -164.4420
  19   2.0000      -6.039937      -164.3550
  20   2.0000      -6.039085      -164.3319
  21   2.0000      -6.035699      -164.2397
  22   2.0000      -6.035685      -164.2393
  23   2.0000      -6.032271      -164.1464
  24   2.0000      -1.014784       -27.6137
  25   2.0000      -0.990903       -26.9638
  26   2.0000      -0.909533       -24.7496
  27   2.0000      -0.905532       -24.6408
  28   2.0000      -0.872438       -23.7402
  29   2.0000      -0.859095       -23.3772
  30   2.0000      -0.845949       -23.0194
  31   2.0000      -0.814597       -22.1663
  32   2.0000      -0.784956       -21.3598
  33   2.0000      -0.767671       -20.8894
  34   2.0000      -0.708227       -19.2718
  35   2.0000      -0.702508       -19.1162
  36   2.0000      -0.695848       -18.9350
  37   2.0000      -0.666316       -18.1314
  38   2.0000      -0.650766       -17.7083
  39   2.0000      -0.618177       -16.8215
  40   2.0000      -0.597888       -16.2694
  41   2.0000      -0.569060       -15.4849
  42   2.0000      -0.565711       -15.3938
  43   2.0000      -0.557883       -15.1808
  44   2.0000      -0.529185       -14.3998
  45   2.0000      -0.522674       -14.2227
  46   2.0000      -0.519475       -14.1356
  47   2.0000      -0.514337       -13.9958
  48   2.0000      -0.511544       -13.9198
  49   2.0000      -0.501820       -13.6552
  50   2.0000      -0.495424       -13.4812
  51   2.0000      -0.483909       -13.1678
  52   2.0000      -0.469791       -12.7837
  53   2.0000      -0.465209       -12.6590
  54   2.0000      -0.456423       -12.4199
  55   2.0000      -0.450722       -12.2648
  56   2.0000      -0.445038       -12.1101
  57   2.0000      -0.437534       -11.9059
  58   2.0000      -0.435757       -11.8575
  59   2.0000      -0.430023       -11.7015
  60   2.0000      -0.421044       -11.4572
  61   2.0000      -0.420283       -11.4365
  62   2.0000      -0.416912       -11.3447
  63   2.0000      -0.352965        -9.6047
  64   2.0000      -0.336012        -9.1433
  65   2.0000      -0.321430        -8.7466
  66   2.0000      -0.289189        -7.8692
  67   0.0000       0.032841         0.8936
  68   0.0000       0.075901         2.0654
  69   0.0000       0.109874         2.9898
  70   0.0000       0.120632         3.2826
  71   0.0000       0.126554         3.4437

MULLIKEN ATOMIC CHARGES
-----------------------
   0 S :    0.119184
   1 C :   -0.055243
   2 C :   -0.080404
   3 C :    0.045229
   4 C :   -0.152121
   5 H :   -0.004663
   6 C :    0.020769
   7 H :    0.013908
   8 H :    0.045895
   9 C :   -0.076276
  10 H :    0.037931
  11 H :    0.024667
  12 C :   -0.060946
  13 H :    0.026169
  14 H :    0.030728
  15 H :    0.035570
  16 S :    0.135420
  17 C :   -0.108276
  18 C :   -0.041107
  19 C :   -0.017017
  20 C :   -0.169255
  21 H :    0.006759
  22 C :    0.079634
  23 H :    0.008991
  24 H :    0.009747
  25 C :   -0.066482
  26 H :    0.014382
  27 H :    0.030096
  28 C :   -0.019463
  29 H :    0.028618
  30 H :    0.017269
  31 H :    0.031493
  32 H :    0.016177
  33 H :    0.072618
Sum of atomic charges:    0.0000000

LOEWDIN ATOMIC CHARGES
----------------------
   0 S :    0.432869
   1 C :   -0.213900
   2 C :   -0.055368
   3 C :   -0.055150
   4 C :   -0.187168
   5 H :    0.024464
   6 C :   -0.045019
   7 H :    0.027592
   8 H :    0.038563
   9 C :   -0.034556
  10 H :    0.029537
  11 H :    0.014065
  12 C :   -0.067706
  13 H :    0.015200
  14 H :    0.029316
  15 H :    0.027694
  16 S :    0.444888
  17 C :   -0.211485
  18 C :   -0.068690
  19 C :   -0.060095
  20 C :   -0.209512
  21 H :    0.026549
  22 C :   -0.028787
  23 H :    0.023419
  24 H :    0.025876
  25 C :   -0.034720
  26 H :    0.016249
  27 H :    0.025775
  28 C :   -0.060639
  29 H :    0.024843
  30 H :    0.016724
  31 H :    0.032158
  32 H :    0.015267
  33 H :    0.041749

  Mayer bond orders larger than 0.100000
B(  0-S ,  1-C ) :   1.1384 B(  0-S ,  4-C ) :   1.1668 B(  1-C ,  2-C ) :   1.5871
B(  1-C , 32-H ) :   0.9816 B(  2-C ,  3-C ) :   1.2011 B(  2-C ,  6-C ) :   1.0463
B(  3-C ,  4-C ) :   1.5698 B(  3-C ,  5-H ) :   1.0012 B(  4-C , 20-C ) :   1.0212
B(  6-C ,  7-H ) :   0.9427 B(  6-C ,  8-H ) :   0.9404 B(  6-C ,  9-C ) :   1.0540
B(  9-C , 10-H ) :   0.9576 B(  9-C , 11-H ) :   0.9589 B(  9-C , 12-C ) :   1.0737
B( 12-C , 13-H ) :   0.9790 B( 12-C , 14-H ) :   0.9770 B( 12-C , 15-H ) :   0.9769
B( 16-S , 17-C ) :   1.1737 B( 16-S , 20-C ) :   1.1639 B( 17-C , 18-C ) :   1.5669
B( 17-C , 20-C ) :   0.1001 B( 17-C , 33-H ) :   0.9620 B( 18-C , 19-C ) :   1.2806
B( 18-C , 21-H ) :   0.9950 B( 19-C , 20-C ) :   1.5793 B( 19-C , 22-C ) :   1.0446
B( 22-C , 23-H ) :   0.9295 B( 22-C , 24-H ) :   0.9300 B( 22-C , 25-C ) :   1.0540
B( 25-C , 26-H ) :   0.9519 B( 25-C , 27-H ) :   0.9565 B( 25-C , 28-C ) :   1.0884
B( 28-C , 29-H ) :   0.9712 B( 28-C , 30-H ) :   0.9750 B( 28-C , 31-H ) :   0.9724

Dispersion correction           -0.013892559
FINAL SINGLE POINT ENERGY     -1339.876705979162

DIPOLE MOMENT
-------------
                                X             Y             Z
Electronic contribution:      8.39128      28.07904      15.19768
Nuclear contribution   :     -8.34475     -28.67013     -15.43407
                        -----------------------------------------
Total Dipole Moment    :      0.04653      -0.59109      -0.23640
                        -----------------------------------------
Magnitude (a.u.)       :      0.63831
Magnitude (Debye)      :      1.62245

Rotational constants in cm-1:     0.016488     0.009440     0.006390
Rotational constants in MHz :   494.295642   283.012736   191.556857

                             ****ORCA TERMINATED NORMALLY****
TOTAL RUN TIME: 0 days 0 hours 0 minutes 20 seconds 392 msec
