                         Program Version 4.2.1 -  RELEASE  -
|  1> ! wB97X-D3 SP def2-SVP
|  2> %pal
|  3> nprocs 24
|  4> end
|  5>
|  6> * xyz 0 1
|  7> S 	 -91.5615 	 -3.74158 	 -115.65
|  8> C 	 -91.1574 	 -2.05081 	 -116.05
|  9> C 	 -91.7741 	 -1.62413 	 -117.201
| 10> C 	 -92.7105 	 -2.62464 	 -117.64
| 11> C 	 -92.7552 	 -3.83441 	 -116.962
| 12> H 	 -93.421 	 -2.43214 	 -118.434
| 13> C 	 -91.7355 	 -0.262322 	 -117.874
| 14> H 	 -91.4519 	 0.423186 	 -117.015
| 15> H 	 -92.7592 	 0.104588 	 -118.097
| 16> C 	 -90.7237 	 -0.108536 	 -119.061
| 17> H 	 -89.8033 	 -0.608192 	 -118.772
| 18> H 	 -91.2273 	 -0.695413 	 -119.852
| 19> C 	 -90.7207 	 1.3621 	 -119.601
| 20> H 	 -90.5174 	 1.99237 	 -118.7
| 21> H 	 -90.0232 	 1.51346 	 -120.473
| 22> H 	 -91.6903 	 1.66 	 -119.967
| 23> S 	 -92.5864 	 -6.59089 	 -117.02
| 24> C 	 -93.8215 	 -7.55252 	 -117.818
| 25> C 	 -94.8853 	 -6.78933 	 -118.156
| 26> C 	 -94.6475 	 -5.3778 	 -117.898
| 27> C 	 -93.4257 	 -5.09914 	 -117.334
| 28> H 	 -95.7379 	 -7.20243 	 -118.661
| 29> C 	 -95.6513 	 -4.29862 	 -118.237
| 30> H 	 -95.3606 	 -3.41253 	 -117.655
| 31> H 	 -96.4797 	 -4.67573 	 -117.684
| 32> C 	 -95.9866 	 -3.97198 	 -119.697
| 33> H 	 -96.2507 	 -4.81647 	 -120.287
| 34> H 	 -95.0374 	 -3.64829 	 -120.174
| 35> C 	 -97.1668 	 -2.93776 	 -119.783
| 36> H 	 -97.5472 	 -2.68368 	 -120.829
| 37> H 	 -96.9851 	 -1.9678 	 -119.311
| 38> H 	 -98.0487 	 -3.17073 	 -119.182
| 39> H 	 -90.4194 	 -1.46093 	 -115.534
| 40> H 	 -93.924 	 -8.57901 	 -117.85
| 41> *
| 42>
| 43>                          ****END OF INPUT****

CARTESIAN COORDINATES (ANGSTROEM)
---------------------------------
  S    -91.561500   -3.741580  -115.650000
  C    -91.157400   -2.050810  -116.050000
  C    -91.774100   -1.624130  -117.201000
  C    -92.710500   -2.624640  -117.640000
  C    -92.755200   -3.834410  -116.962000
  H    -93.421000   -2.432140  -118.434000
  C    -91.735500   -0.262322  -117.874000
  H    -91.451900    0.423186  -117.015000
  H    -92.759200    0.104588  -118.097000
  C    -90.723700   -0.108536  -119.061000
  H    -89.803300   -0.608192  -118.772000
  H    -91.227300   -0.695413  -119.852000
  C    -90.720700    1.362100  -119.601000
  H    -90.517400    1.992370  -118.700000
  H    -90.023200    1.513460  -120.473000
  H    -91.690300    1.660000  -119.967000
  S    -92.586400   -6.590890  -117.020000
  C    -93.821500   -7.552520  -117.818000
  C    -94.885300   -6.789330  -118.156000
  C    -94.647500   -5.377800  -117.898000
  C    -93.425700   -5.099140  -117.334000
  H    -95.737900   -7.202430  -118.661000
  C    -95.651300   -4.298620  -118.237000
  H    -95.360600   -3.412530  -117.655000
  H    -96.479700   -4.675730  -117.684000
  C    -95.986600   -3.971980  -119.697000
  H    -96.250700   -4.816470  -120.287000
  H    -95.037400   -3.648290  -120.174000
  C    -97.166800   -2.937760  -119.783000
  H    -97.547200   -2.683680  -120.829000
  H    -96.985100   -1.967800  -119.311000
  H    -98.048700   -3.170730  -119.182000
  H    -90.419400   -1.460930  -115.534000
  H    -93.924000   -8.579010  -117.850000

 Total Charge           Charge          ....    0
 Multiplicity           Mult            ....    1
 Number of Electrons    NEL             ....  134
 Basis Dimension        Dim             ....  322

ORBITAL ENERGIES
----------------

  NO   OCC          E(Eh)            E(eV)
   0   2.0000     -88.968081     -2420.9446
   1   2.0000     -88.963531     -2420.8208
   2   2.0000     -10.337242      -281.2907
   3   2.0000     -10.329036      -281.0673
   4   2.0000     -10.319870      -280.8180
   5   2.0000     -10.311648      -280.5942
   6   2.0000     -10.304481      -280.3992
   7   2.0000     -10.303095      -280.3615
   8   2.0000     -10.302351      -280.3412
   9   2.0000     -10.296013      -280.1688
  10   2.0000     -10.295813      -280.1633
  11   2.0000     -10.295084      -280.1435
  12   2.0000     -10.293280      -280.0944
  13   2.0000     -10.290808      -280.0271
  14   2.0000     -10.288272      -279.9581
  15   2.0000     -10.287634      -279.9408
  16   2.0000      -8.081800      -219.9169
  17   2.0000      -8.078499      -219.8271
  18   2.0000      -6.040514      -164.3707
  19   2.0000      -6.037218      -164.2810
  20   2.0000      -6.036445      -164.2600
  21   2.0000      -6.032976      -164.1656
  22   2.0000      -6.032404      -164.1500
  23   2.0000      -6.029009      -164.0577
  24   2.0000      -1.006354       -27.3843
  25   2.0000      -0.983492       -26.7622
  26   2.0000      -0.907366       -24.6907
  27   2.0000      -0.906970       -24.6799
  28   2.0000      -0.872009       -23.7286
  29   2.0000      -0.848590       -23.0913
  30   2.0000      -0.841764       -22.9056
  31   2.0000      -0.819516       -22.3002
  32   2.0000      -0.778654       -21.1882
  33   2.0000      -0.771686       -20.9987
  34   2.0000      -0.715746       -19.4765
  35   2.0000      -0.704651       -19.1745
  36   2.0000      -0.702428       -19.1140
  37   2.0000      -0.665211       -18.1013
  38   2.0000      -0.640559       -17.4305
  39   2.0000      -0.620799       -16.8928
  40   2.0000      -0.593246       -16.1431
  41   2.0000      -0.572141       -15.5687
  42   2.0000      -0.561974       -15.2921
  43   2.0000      -0.553646       -15.0655
  44   2.0000      -0.527856       -14.3637
  45   2.0000      -0.524619       -14.2756
  46   2.0000      -0.514842       -14.0096
  47   2.0000      -0.512557       -13.9474
  48   2.0000      -0.506757       -13.7896
  49   2.0000      -0.498360       -13.5611
  50   2.0000      -0.494753       -13.4629
  51   2.0000      -0.482065       -13.1177
  52   2.0000      -0.467280       -12.7153
  53   2.0000      -0.460787       -12.5386
  54   2.0000      -0.454423       -12.3655
  55   2.0000      -0.451892       -12.2966
  56   2.0000      -0.450104       -12.2480
  57   2.0000      -0.444243       -12.0885
  58   2.0000      -0.439999       -11.9730
  59   2.0000      -0.424775       -11.5587
  60   2.0000      -0.418926       -11.3996
  61   2.0000      -0.411608       -11.2004
  62   2.0000      -0.409006       -11.1296
  63   2.0000      -0.359969        -9.7953
  64   2.0000      -0.332852        -9.0574
  65   2.0000      -0.327409        -8.9092
  66   2.0000      -0.291588        -7.9345
  67   0.0000       0.025914         0.7051
  68   0.0000       0.075521         2.0550
  69   0.0000       0.103733         2.8227
  70   0.0000       0.120328         3.2743
  71   0.0000       0.128974         3.5096

MULLIKEN ATOMIC CHARGES
-----------------------
   0 S :    0.092935
   1 C :   -0.112563
   2 C :   -0.065087
   3 C :    0.011900
   4 C :   -0.123279
   5 H :    0.003629
   6 C :   -0.012121
   7 H :    0.024024
   8 H :    0.035381
   9 C :   -0.055474
  10 H :    0.043493
  11 H :    0.031807
  12 C :   -0.051838
  13 H :    0.037814
  14 H :    0.054919
  15 H :    0.026476
  16 S :    0.089571
  17 C :   -0.041218
  18 C :   -0.027744
  19 C :   -0.082080
  20 C :   -0.112315
  21 H :    0.017041
  22 C :    0.038085
  23 H :    0.023572
  24 H :    0.018275
  25 C :   -0.009194
  26 H :    0.021564
  27 H :    0.033343
  28 C :   -0.077049
  29 H :    0.047032
  30 H :    0.020356
  31 H :    0.025386
  32 H :    0.043795
  33 H :    0.029565
Sum of atomic charges:    0.0000000

LOEWDIN ATOMIC CHARGES
----------------------
   0 S :    0.378681
   1 C :   -0.177380
   2 C :   -0.066813
   3 C :   -0.062094
   4 C :   -0.182425
   5 H :    0.025588
   6 C :   -0.040270
   7 H :    0.031116
   8 H :    0.032412
   9 C :   -0.038735
  10 H :    0.026865
  11 H :    0.027506
  12 C :   -0.069027
  13 H :    0.028880
  14 H :    0.035030
  15 H :    0.022958
  16 S :    0.397674
  17 C :   -0.167610
  18 C :   -0.065839
  19 C :   -0.059061
  20 C :   -0.197099
  21 H :    0.031219
  22 C :   -0.038537
  23 H :    0.032021
  24 H :    0.029762
  25 C :   -0.034557
  26 H :    0.020986
  27 H :    0.028846
  28 C :   -0.080218
  29 H :    0.033924
  30 H :    0.023938
  31 H :    0.026800
  32 H :    0.026790
  33 H :    0.018669

  Mayer bond orders larger than 0.100000
B(  0-S ,  1-C ) :   1.1312 B(  0-S ,  4-C ) :   1.1261 B(  1-C ,  2-C ) :   1.6266
B(  1-C , 32-H ) :   0.9657 B(  2-C ,  3-C ) :   1.2427 B(  2-C ,  6-C ) :   1.0127
B(  3-C ,  4-C ) :   1.5807 B(  3-C ,  5-H ) :   0.9878 B(  4-C , 20-C ) :   1.0456
B(  6-C ,  7-H ) :   0.9441 B(  6-C ,  8-H ) :   0.9499 B(  6-C ,  9-C ) :   1.0412
B(  9-C , 10-H ) :   0.9616 B(  9-C , 11-H ) :   0.9568 B(  9-C , 12-C ) :   1.0643
B( 12-C , 13-H ) :   0.9775 B( 12-C , 14-H ) :   0.9753 B( 12-C , 15-H ) :   0.9734
B( 16-S , 17-C ) :   1.1399 B( 16-S , 20-C ) :   1.1180 B( 17-C , 18-C ) :   1.6425
B( 17-C , 33-H ) :   0.9698 B( 18-C , 19-C ) :   1.2191 B( 18-C , 21-H ) :   0.9927
B( 19-C , 20-C ) :   1.6241 B( 19-C , 22-C ) :   1.0397 B( 22-C , 23-H ) :   0.9346
B( 22-C , 24-H ) :   0.9265 B( 22-C , 25-C ) :   1.0554 B( 25-C , 26-H ) :   0.9558
B( 25-C , 27-H ) :   0.9539 B( 25-C , 28-C ) :   1.0599 B( 28-C , 29-H ) :   0.9774
B( 28-C , 30-H ) :   0.9752 B( 28-C , 31-H ) :   0.9748

Dispersion correction           -0.013603256
FINAL SINGLE POINT ENERGY     -1339.872806940260

DIPOLE MOMENT
-------------
                                X             Y             Z
Electronic contribution:     10.48486     -24.06664      18.34251
Nuclear contribution   :    -10.91838      24.50107     -18.81340
                        -----------------------------------------
Total Dipole Moment    :     -0.43353       0.43443      -0.47089
                        -----------------------------------------
Magnitude (a.u.)       :      0.77357
Magnitude (Debye)      :      1.96626

Rotational constants in cm-1:     0.016560     0.008611     0.006203
Rotational constants in MHz :   496.446961   258.150982   185.962615

                             ****ORCA TERMINATED NORMALLY****
TOTAL RUN TIME: 0 days 0 hours 0 minutes 20 seconds 956 msec
