                         Program Version 4.2.1 -  RELEASE  -
|  1> ! wB97X-D3 SP def2-SVP
|  2> %pal
|  3> nprocs 24
|  4> end
|  5>
|  6> * xyz 0 1
|  7> S 	 -58.3587 	 14.1205 	 -89.2069
|  8> C 	 -58.5677 	 15.7481 	 -89.9011
|  9> C 	 -59.2739 	 16.5155 	 -89.0146
| 10> C 	 -59.4141 	 15.925 	 -87.7515
| 11> C 	 -58.9694 	 14.6082 	 -87.6681
| 12> H 	 -59.8343 	 16.2552 	 -86.8789
| 13> C 	 -59.867 	 17.8394 	 -89.4619
| 14> H 	 -59.3111 	 18.1402 	 -90.3793
| 15> H 	 -59.7018 	 18.5742 	 -88.6476
| 16> C 	 -61.3732 	 17.8669 	 -89.8533
| 17> H 	 -61.7874 	 17.5143 	 -88.8567
| 18> H 	 -61.7902 	 18.8512 	 -89.8983
| 19> C 	 -61.7576 	 16.958 	 -90.9892
| 20> H 	 -61.4175 	 17.2386 	 -92.0099
| 21> H 	 -61.4935 	 15.9739 	 -90.6942
| 22> H 	 -62.8204 	 16.9015 	 -91.0783
| 23> S 	 -60.4274 	 12.537 	 -86.7507
| 24> C 	 -60.0334 	 11.8045 	 -85.2853
| 25> C 	 -59.1887 	 12.5805 	 -84.511
| 26> C 	 -58.6435 	 13.6524 	 -85.2994
| 27> C 	 -59.1438 	 13.7072 	 -86.5736
| 28> H 	 -59.011 	 12.2656 	 -83.4692
| 29> C 	 -57.4822 	 14.4737 	 -84.7165
| 30> H 	 -56.7098 	 14.4729 	 -85.5558
| 31> H 	 -56.9469 	 13.8917 	 -83.9331
| 32> C 	 -57.8362 	 15.8561 	 -84.275
| 33> H 	 -58.6593 	 15.8409 	 -83.4909
| 34> H 	 -58.3264 	 16.431 	 -85.1429
| 35> C 	 -56.6756 	 16.667 	 -83.7247
| 36> H 	 -57.1733 	 17.6027 	 -83.4359
| 37> H 	 -56.0578 	 16.8191 	 -84.6455
| 38> H 	 -56.1407 	 16.0436 	 -82.9595
| 39> H 	 -58.1708 	 16.1065 	 -90.8544
| 40> H 	 -60.5389 	 10.9207 	 -84.9119
| 41> *
| 42>
| 43>                          ****END OF INPUT****

CARTESIAN COORDINATES (ANGSTROEM)
---------------------------------
  S    -58.358700   14.120500  -89.206900
  C    -58.567700   15.748100  -89.901100
  C    -59.273900   16.515500  -89.014600
  C    -59.414100   15.925000  -87.751500
  C    -58.969400   14.608200  -87.668100
  H    -59.834300   16.255200  -86.878900
  C    -59.867000   17.839400  -89.461900
  H    -59.311100   18.140200  -90.379300
  H    -59.701800   18.574200  -88.647600
  C    -61.373200   17.866900  -89.853300
  H    -61.787400   17.514300  -88.856700
  H    -61.790200   18.851200  -89.898300
  C    -61.757600   16.958000  -90.989200
  H    -61.417500   17.238600  -92.009900
  H    -61.493500   15.973900  -90.694200
  H    -62.820400   16.901500  -91.078300
  S    -60.427400   12.537000  -86.750700
  C    -60.033400   11.804500  -85.285300
  C    -59.188700   12.580500  -84.511000
  C    -58.643500   13.652400  -85.299400
  C    -59.143800   13.707200  -86.573600
  H    -59.011000   12.265600  -83.469200
  C    -57.482200   14.473700  -84.716500
  H    -56.709800   14.472900  -85.555800
  H    -56.946900   13.891700  -83.933100
  C    -57.836200   15.856100  -84.275000
  H    -58.659300   15.840900  -83.490900
  H    -58.326400   16.431000  -85.142900
  C    -56.675600   16.667000  -83.724700
  H    -57.173300   17.602700  -83.435900
  H    -56.057800   16.819100  -84.645500
  H    -56.140700   16.043600  -82.959500
  H    -58.170800   16.106500  -90.854400
  H    -60.538900   10.920700  -84.911900

 Total Charge           Charge          ....    0
 Multiplicity           Mult            ....    1
 Number of Electrons    NEL             ....  134
 Basis Dimension        Dim             ....  322

ORBITAL ENERGIES
----------------

  NO   OCC          E(Eh)            E(eV)
   0   2.0000     -88.965433     -2420.8725
   1   2.0000     -88.962259     -2420.7861
   2   2.0000     -10.326377      -280.9950
   3   2.0000     -10.320787      -280.8429
   4   2.0000     -10.317371      -280.7499
   5   2.0000     -10.311539      -280.5912
   6   2.0000     -10.305017      -280.4138
   7   2.0000     -10.299925      -280.2752
   8   2.0000     -10.296076      -280.1705
   9   2.0000     -10.295537      -280.1558
  10   2.0000     -10.294104      -280.1168
  11   2.0000     -10.289732      -279.9978
  12   2.0000     -10.288429      -279.9624
  13   2.0000     -10.288030      -279.9515
  14   2.0000     -10.283752      -279.8351
  15   2.0000     -10.271851      -279.5113
  16   2.0000      -8.080112      -219.8710
  17   2.0000      -8.078733      -219.8335
  18   2.0000      -6.038556      -164.3175
  19   2.0000      -6.037053      -164.2766
  20   2.0000      -6.034500      -164.2071
  21   2.0000      -6.033016      -164.1667
  22   2.0000      -6.031052      -164.1133
  23   2.0000      -6.029560      -164.0727
  24   2.0000      -1.014898       -27.6168
  25   2.0000      -0.990874       -26.9630
  26   2.0000      -0.912171       -24.8214
  27   2.0000      -0.911202       -24.7951
  28   2.0000      -0.873676       -23.7739
  29   2.0000      -0.853516       -23.2253
  30   2.0000      -0.847451       -23.0603
  31   2.0000      -0.816052       -22.2059
  32   2.0000      -0.784245       -21.3404
  33   2.0000      -0.773457       -21.0468
  34   2.0000      -0.709843       -19.3158
  35   2.0000      -0.693720       -18.8771
  36   2.0000      -0.680657       -18.5216
  37   2.0000      -0.661994       -18.0138
  38   2.0000      -0.648709       -17.6523
  39   2.0000      -0.617217       -16.7953
  40   2.0000      -0.594673       -16.1819
  41   2.0000      -0.568429       -15.4677
  42   2.0000      -0.560481       -15.2515
  43   2.0000      -0.555853       -15.1255
  44   2.0000      -0.546395       -14.8682
  45   2.0000      -0.533124       -14.5070
  46   2.0000      -0.516711       -14.0604
  47   2.0000      -0.514408       -13.9978
  48   2.0000      -0.506080       -13.7711
  49   2.0000      -0.499432       -13.5902
  50   2.0000      -0.489605       -13.3228
  51   2.0000      -0.487028       -13.2527
  52   2.0000      -0.473736       -12.8910
  53   2.0000      -0.461987       -12.5713
  54   2.0000      -0.459979       -12.5167
  55   2.0000      -0.444878       -12.1058
  56   2.0000      -0.441608       -12.0168
  57   2.0000      -0.440411       -11.9842
  58   2.0000      -0.439249       -11.9526
  59   2.0000      -0.418539       -11.3890
  60   2.0000      -0.417106       -11.3500
  61   2.0000      -0.402849       -10.9621
  62   2.0000      -0.400991       -10.9115
  63   2.0000      -0.336076        -9.1451
  64   2.0000      -0.333604        -9.0778
  65   2.0000      -0.326807        -8.8929
  66   2.0000      -0.302393        -8.2285
  67   0.0000       0.034946         0.9509
  68   0.0000       0.060549         1.6476
  69   0.0000       0.118553         3.2260
  70   0.0000       0.120849         3.2885
  71   0.0000       0.127918         3.4808

MULLIKEN ATOMIC CHARGES
-----------------------
   0 S :    0.112676
   1 C :   -0.126296
   2 C :   -0.074241
   3 C :    0.087433
   4 C :   -0.192685
   5 H :   -0.024648
   6 C :    0.053560
   7 H :    0.016009
   8 H :    0.032619
   9 C :   -0.074508
  10 H :    0.019524
  11 H :    0.027503
  12 C :   -0.015429
  13 H :    0.036591
  14 H :    0.033441
  15 H :    0.020591
  16 S :    0.121569
  17 C :   -0.087660
  18 C :   -0.061069
  19 C :   -0.002841
  20 C :   -0.177175
  21 H :    0.030733
  22 C :    0.046130
  23 H :    0.038613
  24 H :    0.021818
  25 C :   -0.140064
  26 H :    0.027829
  27 H :    0.033353
  28 C :   -0.027651
  29 H :    0.046108
  30 H :    0.039930
  31 H :    0.045700
  32 H :    0.057203
  33 H :    0.055335
Sum of atomic charges:   -0.0000000

LOEWDIN ATOMIC CHARGES
----------------------
   0 S :    0.408460
   1 C :   -0.183786
   2 C :   -0.070162
   3 C :   -0.051841
   4 C :   -0.205657
   5 H :    0.014520
   6 C :   -0.031447
   7 H :    0.026161
   8 H :    0.031814
   9 C :   -0.043512
  10 H :    0.029065
  11 H :    0.020099
  12 C :   -0.065343
  13 H :    0.029442
  14 H :    0.026287
  15 H :    0.025991
  16 S :    0.434783
  17 C :   -0.199872
  18 C :   -0.079906
  19 C :   -0.049683
  20 C :   -0.212256
  21 H :    0.037818
  22 C :   -0.040777
  23 H :    0.039146
  24 H :    0.029973
  25 C :   -0.059623
  26 H :    0.022374
  27 H :    0.028931
  28 C :   -0.068412
  29 H :    0.032683
  30 H :    0.031885
  31 H :    0.030938
  32 H :    0.034014
  33 H :    0.027893

  Mayer bond orders larger than 0.100000
B(  0-S ,  1-C ) :   1.1396 B(  0-S ,  4-C ) :   1.1637 B(  1-C ,  2-C ) :   1.5897
B(  1-C ,  4-C ) :   0.1074 B(  1-C , 32-H ) :   0.9688 B(  2-C ,  3-C ) :   1.2344
B(  2-C ,  6-C ) :   1.0259 B(  3-C ,  4-C ) :   1.5588 B(  3-C ,  5-H ) :   1.0070
B(  4-C , 20-C ) :   1.0304 B(  6-C ,  7-H ) :   0.9394 B(  6-C ,  8-H ) :   0.9422
B(  6-C ,  9-C ) :   1.0606 B(  9-C , 10-H ) :   0.9533 B(  9-C , 11-H ) :   0.9588
B(  9-C , 12-C ) :   1.0804 B( 12-C , 13-H ) :   0.9737 B( 12-C , 14-H ) :   0.9698
B( 12-C , 15-H ) :   0.9675 B( 16-S , 17-C ) :   1.1813 B( 16-S , 20-C ) :   1.1481
B( 17-C , 18-C ) :   1.5993 B( 17-C , 33-H ) :   0.9658 B( 18-C , 19-C ) :   1.2324
B( 18-C , 21-H ) :   0.9927 B( 19-C , 20-C ) :   1.6173 B( 19-C , 22-C ) :   1.0256
B( 22-C , 23-H ) :   0.9355 B( 22-C , 24-H ) :   0.9395 B( 22-C , 25-C ) :   1.0667
B( 25-C , 26-H ) :   0.9518 B( 25-C , 27-H ) :   0.9468 B( 25-C , 28-C ) :   1.0727
B( 28-C , 29-H ) :   0.9723 B( 28-C , 30-H ) :   0.9751 B( 28-C , 31-H ) :   0.9719

Dispersion correction           -0.014610259
FINAL SINGLE POINT ENERGY     -1339.866258734039

DIPOLE MOMENT
-------------
                                X             Y             Z
Electronic contribution:     -0.27207     -20.81779      -4.11371
Nuclear contribution   :      0.12659      21.17894       4.36886
                        -----------------------------------------
Total Dipole Moment    :     -0.14548       0.36115       0.25514
                        -----------------------------------------
Magnitude (a.u.)       :      0.46550
Magnitude (Debye)      :      1.18321

Rotational constants in cm-1:     0.018502     0.008849     0.007182
Rotational constants in MHz :   554.682341   265.276139   215.314142

                             ****ORCA TERMINATED NORMALLY****
TOTAL RUN TIME: 0 days 0 hours 0 minutes 21 seconds 691 msec
