                         Program Version 4.2.1 -  RELEASE  -
|  1> ! wB97X-D3 SP def2-SVP
|  2> %pal
|  3> nprocs 24
|  4> end
|  5>
|  6> * xyz 0 1
|  7> S 	 -121.471 	 65.487 	 -37.1575
|  8> C 	 -120.672 	 65.995 	 -35.652
|  9> C 	 -121.532 	 66.6862 	 -34.8579
| 10> C 	 -122.808 	 66.8375 	 -35.4601
| 11> C 	 -122.969 	 66.2102 	 -36.6586
| 12> H 	 -123.707 	 67.3059 	 -35.0015
| 13> C 	 -121.099 	 67.3471 	 -33.5267
| 14> H 	 -121.123 	 68.3897 	 -33.7538
| 15> H 	 -120.058 	 67.2187 	 -33.3557
| 16> C 	 -121.956 	 66.9524 	 -32.309
| 17> H 	 -121.574 	 67.6186 	 -31.5393
| 18> H 	 -123.046 	 66.9383 	 -32.4106
| 19> C 	 -121.706 	 65.4968 	 -31.7959
| 20> H 	 -122.246 	 64.7483 	 -32.3233
| 21> H 	 -120.648 	 65.1765 	 -31.7963
| 22> H 	 -121.996 	 65.4472 	 -30.758
| 23> S 	 -124.303 	 66.8134 	 -39.0451
| 24> C 	 -125.936 	 66.1405 	 -39.3964
| 25> C 	 -126.406 	 65.52 	 -38.2652
| 26> C 	 -125.444 	 65.4784 	 -37.199
| 27> C 	 -124.199 	 66.0284 	 -37.4074
| 28> H 	 -127.421 	 65.2968 	 -38.1339
| 29> C 	 -125.782 	 64.6362 	 -36.0114
| 30> H 	 -126.854 	 64.7851 	 -35.8619
| 31> H 	 -125.257 	 65.0584 	 -35.1359
| 32> C 	 -125.544 	 63.1242 	 -36.1592
| 33> H 	 -124.713 	 63.0495 	 -36.8309
| 34> H 	 -126.278 	 62.5758 	 -36.7799
| 35> C 	 -125.239 	 62.4383 	 -34.8551
| 36> H 	 -125.971 	 62.4284 	 -34.0146
| 37> H 	 -124.363 	 62.9234 	 -34.4583
| 38> H 	 -125.123 	 61.3316 	 -35.0578
| 39> H 	 -119.646 	 65.989 	 -35.2846
| 40> H 	 -126.426 	 66.2653 	 -40.336
| 41> *
| 42>
| 43>                          ****END OF INPUT****

CARTESIAN COORDINATES (ANGSTROEM)
---------------------------------
  S    -121.471000   65.487000  -37.157500
  C    -120.672000   65.995000  -35.652000
  C    -121.532000   66.686200  -34.857900
  C    -122.808000   66.837500  -35.460100
  C    -122.969000   66.210200  -36.658600
  H    -123.707000   67.305900  -35.001500
  C    -121.099000   67.347100  -33.526700
  H    -121.123000   68.389700  -33.753800
  H    -120.058000   67.218700  -33.355700
  C    -121.956000   66.952400  -32.309000
  H    -121.574000   67.618600  -31.539300
  H    -123.046000   66.938300  -32.410600
  C    -121.706000   65.496800  -31.795900
  H    -122.246000   64.748300  -32.323300
  H    -120.648000   65.176500  -31.796300
  H    -121.996000   65.447200  -30.758000
  S    -124.303000   66.813400  -39.045100
  C    -125.936000   66.140500  -39.396400
  C    -126.406000   65.520000  -38.265200
  C    -125.444000   65.478400  -37.199000
  C    -124.199000   66.028400  -37.407400
  H    -127.421000   65.296800  -38.133900
  C    -125.782000   64.636200  -36.011400
  H    -126.854000   64.785100  -35.861900
  H    -125.257000   65.058400  -35.135900
  C    -125.544000   63.124200  -36.159200
  H    -124.713000   63.049500  -36.830900
  H    -126.278000   62.575800  -36.779900
  C    -125.239000   62.438300  -34.855100
  H    -125.971000   62.428400  -34.014600
  H    -124.363000   62.923400  -34.458300
  H    -125.123000   61.331600  -35.057800
  H    -119.646000   65.989000  -35.284600
  H    -126.426000   66.265300  -40.336000

 Total Charge           Charge          ....    0
 Multiplicity           Mult            ....    1
 Number of Electrons    NEL             ....  134
 Basis Dimension        Dim             ....  322

ORBITAL ENERGIES
----------------

  NO   OCC          E(Eh)            E(eV)
   0   2.0000     -88.968352     -2420.9519
   1   2.0000     -88.957910     -2420.6678
   2   2.0000     -10.332012      -281.1484
   3   2.0000     -10.330554      -281.1087
   4   2.0000     -10.324779      -280.9515
   5   2.0000     -10.314021      -280.6588
   6   2.0000     -10.302911      -280.3565
   7   2.0000     -10.299040      -280.2511
   8   2.0000     -10.296145      -280.1723
   9   2.0000     -10.294487      -280.1272
  10   2.0000     -10.294192      -280.1192
  11   2.0000     -10.292818      -280.0818
  12   2.0000     -10.286389      -279.9069
  13   2.0000     -10.281434      -279.7721
  14   2.0000     -10.279986      -279.7327
  15   2.0000     -10.275287      -279.6048
  16   2.0000      -8.082668      -219.9406
  17   2.0000      -8.071495      -219.6365
  18   2.0000      -6.041388      -164.3945
  19   2.0000      -6.037173      -164.2798
  20   2.0000      -6.033246      -164.1730
  21   2.0000      -6.030223      -164.0907
  22   2.0000      -6.026116      -163.9789
  23   2.0000      -6.022111      -163.8700
  24   2.0000      -1.006818       -27.3969
  25   2.0000      -0.981533       -26.7089
  26   2.0000      -0.911795       -24.8112
  27   2.0000      -0.907254       -24.6876
  28   2.0000      -0.872890       -23.7525
  29   2.0000      -0.847962       -23.0742
  30   2.0000      -0.843081       -22.9414
  31   2.0000      -0.819834       -22.3088
  32   2.0000      -0.787564       -21.4307
  33   2.0000      -0.768458       -20.9108
  34   2.0000      -0.714012       -19.4293
  35   2.0000      -0.698728       -19.0133
  36   2.0000      -0.695687       -18.9306
  37   2.0000      -0.669361       -18.2142
  38   2.0000      -0.641907       -17.4672
  39   2.0000      -0.619147       -16.8478
  40   2.0000      -0.595140       -16.1946
  41   2.0000      -0.576725       -15.6935
  42   2.0000      -0.561001       -15.2656
  43   2.0000      -0.549169       -14.9437
  44   2.0000      -0.546356       -14.8671
  45   2.0000      -0.525927       -14.3112
  46   2.0000      -0.520715       -14.1694
  47   2.0000      -0.508903       -13.8479
  48   2.0000      -0.506519       -13.7831
  49   2.0000      -0.504890       -13.7388
  50   2.0000      -0.487845       -13.2749
  51   2.0000      -0.478032       -13.0079
  52   2.0000      -0.471916       -12.8415
  53   2.0000      -0.467518       -12.7218
  54   2.0000      -0.457199       -12.4410
  55   2.0000      -0.448529       -12.2051
  56   2.0000      -0.442981       -12.0541
  57   2.0000      -0.440727       -11.9928
  58   2.0000      -0.438808       -11.9406
  59   2.0000      -0.426942       -11.6177
  60   2.0000      -0.411552       -11.1989
  61   2.0000      -0.407984       -11.1018
  62   2.0000      -0.398758       -10.8508
  63   2.0000      -0.338880        -9.2214
  64   2.0000      -0.334576        -9.1043
  65   2.0000      -0.325216        -8.8496
  66   2.0000      -0.306384        -8.3371
  67   0.0000       0.030314         0.8249
  68   0.0000       0.062490         1.7004
  69   0.0000       0.108351         2.9484
  70   0.0000       0.120627         3.2824
  71   0.0000       0.128959         3.5092

MULLIKEN ATOMIC CHARGES
-----------------------
   0 S :    0.123815
   1 C :   -0.102212
   2 C :   -0.121284
   3 C :    0.033241
   4 C :   -0.163191
   5 H :    0.026274
   6 C :    0.105349
   7 H :    0.032856
   8 H :    0.001379
   9 C :   -0.073999
  10 H :    0.035300
  11 H :    0.045465
  12 C :   -0.062773
  13 H :    0.035414
  14 H :    0.023203
  15 H :    0.028836
  16 S :    0.060565
  17 C :   -0.077633
  18 C :    0.001668
  19 C :   -0.071765
  20 C :   -0.137365
  21 H :    0.010542
  22 C :    0.064459
  23 H :    0.015669
  24 H :    0.016684
  25 C :   -0.029326
  26 H :    0.019886
  27 H :    0.021310
  28 C :   -0.071810
  29 H :    0.032746
  30 H :    0.037016
  31 H :    0.040366
  32 H :    0.039906
  33 H :    0.059409
Sum of atomic charges:   -0.0000000

LOEWDIN ATOMIC CHARGES
----------------------
   0 S :    0.406072
   1 C :   -0.194584
   2 C :   -0.066767
   3 C :   -0.064157
   4 C :   -0.203546
   5 H :    0.037877
   6 C :   -0.024552
   7 H :    0.032476
   8 H :    0.024686
   9 C :   -0.036918
  10 H :    0.028083
  11 H :    0.029963
  12 C :   -0.065840
  13 H :    0.019822
  14 H :    0.023661
  15 H :    0.025440
  16 S :    0.347530
  17 C :   -0.146490
  18 C :   -0.070044
  19 C :   -0.056390
  20 C :   -0.179427
  21 H :    0.026026
  22 C :   -0.033786
  23 H :    0.028979
  24 H :    0.028939
  25 C :   -0.044654
  26 H :    0.024335
  27 H :    0.025472
  28 C :   -0.070493
  29 H :    0.025516
  30 H :    0.024585
  31 H :    0.034885
  32 H :    0.035649
  33 H :    0.027654

  Mayer bond orders larger than 0.100000
B(  0-S ,  1-C ) :   1.1186 B(  0-S ,  4-C ) :   1.1428 B(  1-C ,  2-C ) :   1.6536
B(  1-C , 32-H ) :   0.9591 B(  2-C ,  3-C ) :   1.2227 B(  2-C ,  6-C ) :   1.0084
B(  3-C ,  4-C ) :   1.6062 B(  3-C ,  5-H ) :   0.9885 B(  4-C , 20-C ) :   1.0229
B(  6-C ,  7-H ) :   0.9398 B(  6-C ,  8-H ) :   0.9370 B(  6-C ,  9-C ) :   1.0653
B(  9-C , 10-H ) :   0.9560 B(  9-C , 11-H ) :   0.9636 B(  9-C , 12-C ) :   1.0658
B( 12-C , 13-H ) :   0.9796 B( 12-C , 14-H ) :   0.9765 B( 12-C , 15-H ) :   0.9754
B( 16-S , 17-C ) :   1.1510 B( 16-S , 20-C ) :   1.1001 B( 17-C , 18-C ) :   1.6052
B( 17-C , 33-H ) :   0.9719 B( 18-C , 19-C ) :   1.2241 B( 18-C , 21-H ) :   0.9961
B( 19-C , 20-C ) :   1.6250 B( 19-C , 22-C ) :   1.0705 B( 22-C , 23-H ) :   0.9200
B( 22-C , 24-H ) :   0.9385 B( 22-C , 25-C ) :   1.0507 B( 25-C , 26-H ) :   0.9538
B( 25-C , 27-H ) :   0.9483 B( 25-C , 28-C ) :   1.0816 B( 28-C , 29-H ) :   0.9773
B( 28-C , 30-H ) :   0.9759 B( 28-C , 31-H ) :   0.9706

Dispersion correction           -0.014596757
FINAL SINGLE POINT ENERGY     -1339.865364365408

DIPOLE MOMENT
-------------
                                X             Y             Z
Electronic contribution:      3.57567       9.97166     -26.82686
Nuclear contribution   :     -3.82992      -9.98338      27.49446
                        -----------------------------------------
Total Dipole Moment    :     -0.25425      -0.01173       0.66761
                        -----------------------------------------
Magnitude (a.u.)       :      0.71448
Magnitude (Debye)      :      1.81606

Rotational constants in cm-1:     0.018514     0.009126     0.007235
Rotational constants in MHz :   555.040475   273.597225   216.893283

                             ****ORCA TERMINATED NORMALLY****
TOTAL RUN TIME: 0 days 0 hours 0 minutes 22 seconds 137 msec
