                         Program Version 4.2.1 -  RELEASE  -
|  1> ! wB97X-D3 SP def2-SVP
|  2> %pal
|  3> nprocs 24
|  4> end
|  5>
|  6> * xyz 0 1
|  7> S 	 -119.604 	 60.697 	 -38.7515
|  8> C 	 -120.507 	 59.4479 	 -39.631
|  9> C 	 -121.358 	 58.6863 	 -38.8308
| 10> C 	 -121.412 	 59.3054 	 -37.5228
| 11> C 	 -120.56 	 60.4014 	 -37.27
| 12> H 	 -122.091 	 58.9713 	 -36.7752
| 13> C 	 -122.209 	 57.5098 	 -39.3147
| 14> H 	 -122.618 	 57.5961 	 -40.3338
| 15> H 	 -123.076 	 57.6419 	 -38.6662
| 16> C 	 -121.633 	 56.1304 	 -39.2396
| 17> H 	 -122.398 	 55.373 	 -39.5646
| 18> H 	 -120.864 	 55.8819 	 -39.9931
| 19> C 	 -121.123 	 55.8091 	 -37.8547
| 20> H 	 -121.86 	 56.1409 	 -37.0951
| 21> H 	 -120.893 	 54.7308 	 -37.6937
| 22> H 	 -120.161 	 56.3133 	 -37.5692
| 23> S 	 -118.622 	 61.4262 	 -35.6414
| 24> C 	 -119.012 	 62.1405 	 -34.0949
| 25> C 	 -120.334 	 61.9531 	 -33.8481
| 26> C 	 -121.129 	 61.5192 	 -35.0032
| 27> C 	 -120.314 	 61.1454 	 -36.0125
| 28> H 	 -120.606 	 62.2149 	 -32.7845
| 29> C 	 -122.589 	 61.4972 	 -34.9279
| 30> H 	 -122.899 	 61.0902 	 -35.8674
| 31> H 	 -122.92 	 62.5411 	 -34.8455
| 32> C 	 -123.254 	 60.7165 	 -33.7141
| 33> H 	 -124.345 	 60.7708 	 -33.7841
| 34> H 	 -123.033 	 61.1836 	 -32.728
| 35> C 	 -122.78 	 59.2667 	 -33.6817
| 36> H 	 -123.077 	 58.6932 	 -34.6008
| 37> H 	 -123.453 	 58.8748 	 -32.9051
| 38> H 	 -121.647 	 59.1801 	 -33.5386
| 39> H 	 -120.327 	 59.275 	 -40.6556
| 40> H 	 -118.288 	 62.3815 	 -33.3097
| 41> *
| 42>
| 43>                          ****END OF INPUT****

CARTESIAN COORDINATES (ANGSTROEM)
---------------------------------
  S    -119.604000   60.697000  -38.751500
  C    -120.507000   59.447900  -39.631000
  C    -121.358000   58.686300  -38.830800
  C    -121.412000   59.305400  -37.522800
  C    -120.560000   60.401400  -37.270000
  H    -122.091000   58.971300  -36.775200
  C    -122.209000   57.509800  -39.314700
  H    -122.618000   57.596100  -40.333800
  H    -123.076000   57.641900  -38.666200
  C    -121.633000   56.130400  -39.239600
  H    -122.398000   55.373000  -39.564600
  H    -120.864000   55.881900  -39.993100
  C    -121.123000   55.809100  -37.854700
  H    -121.860000   56.140900  -37.095100
  H    -120.893000   54.730800  -37.693700
  H    -120.161000   56.313300  -37.569200
  S    -118.622000   61.426200  -35.641400
  C    -119.012000   62.140500  -34.094900
  C    -120.334000   61.953100  -33.848100
  C    -121.129000   61.519200  -35.003200
  C    -120.314000   61.145400  -36.012500
  H    -120.606000   62.214900  -32.784500
  C    -122.589000   61.497200  -34.927900
  H    -122.899000   61.090200  -35.867400
  H    -122.920000   62.541100  -34.845500
  C    -123.254000   60.716500  -33.714100
  H    -124.345000   60.770800  -33.784100
  H    -123.033000   61.183600  -32.728000
  C    -122.780000   59.266700  -33.681700
  H    -123.077000   58.693200  -34.600800
  H    -123.453000   58.874800  -32.905100
  H    -121.647000   59.180100  -33.538600
  H    -120.327000   59.275000  -40.655600
  H    -118.288000   62.381500  -33.309700

 Total Charge           Charge          ....    0
 Multiplicity           Mult            ....    1
 Number of Electrons    NEL             ....  134
 Basis Dimension        Dim             ....  322

ORBITAL ENERGIES
----------------

  NO   OCC          E(Eh)            E(eV)
   0   2.0000     -88.967394     -2420.9259
   1   2.0000     -88.959768     -2420.7184
   2   2.0000     -10.338767      -281.3321
   3   2.0000     -10.329284      -281.0741
   4   2.0000     -10.316147      -280.7166
   5   2.0000     -10.315110      -280.6884
   6   2.0000     -10.308438      -280.5069
   7   2.0000     -10.302630      -280.3488
   8   2.0000     -10.300416      -280.2886
   9   2.0000     -10.297829      -280.2182
  10   2.0000     -10.297030      -280.1964
  11   2.0000     -10.295590      -280.1573
  12   2.0000     -10.290520      -280.0193
  13   2.0000     -10.288748      -279.9711
  14   2.0000     -10.287104      -279.9263
  15   2.0000     -10.280195      -279.7383
  16   2.0000      -8.081026      -219.8959
  17   2.0000      -8.075069      -219.7338
  18   2.0000      -6.039618      -164.3464
  19   2.0000      -6.035655      -164.2385
  20   2.0000      -6.033750      -164.1867
  21   2.0000      -6.031794      -164.1335
  22   2.0000      -6.029614      -164.0741
  23   2.0000      -6.025473      -163.9614
  24   2.0000      -1.005510       -27.3613
  25   2.0000      -0.979281       -26.6476
  26   2.0000      -0.915891       -24.9227
  27   2.0000      -0.910073       -24.7643
  28   2.0000      -0.869045       -23.6479
  29   2.0000      -0.850930       -23.1550
  30   2.0000      -0.840219       -22.8635
  31   2.0000      -0.814640       -22.1675
  32   2.0000      -0.782277       -21.2868
  33   2.0000      -0.774511       -21.0755
  34   2.0000      -0.704839       -19.1796
  35   2.0000      -0.703568       -19.1450
  36   2.0000      -0.693817       -18.8797
  37   2.0000      -0.656755       -17.8712
  38   2.0000      -0.639759       -17.4087
  39   2.0000      -0.617291       -16.7974
  40   2.0000      -0.591756       -16.1025
  41   2.0000      -0.567055       -15.4304
  42   2.0000      -0.556448       -15.1417
  43   2.0000      -0.554798       -15.0968
  44   2.0000      -0.545028       -14.8310
  45   2.0000      -0.536158       -14.5896
  46   2.0000      -0.522382       -14.2147
  47   2.0000      -0.511977       -13.9316
  48   2.0000      -0.499937       -13.6040
  49   2.0000      -0.498215       -13.5571
  50   2.0000      -0.493651       -13.4329
  51   2.0000      -0.474238       -12.9047
  52   2.0000      -0.467578       -12.7234
  53   2.0000      -0.459684       -12.5086
  54   2.0000      -0.456736       -12.4284
  55   2.0000      -0.445487       -12.1223
  56   2.0000      -0.445446       -12.1212
  57   2.0000      -0.438973       -11.9451
  58   2.0000      -0.432737       -11.7754
  59   2.0000      -0.427126       -11.6227
  60   2.0000      -0.418118       -11.3776
  61   2.0000      -0.414267       -11.2728
  62   2.0000      -0.402363       -10.9489
  63   2.0000      -0.354753        -9.6533
  64   2.0000      -0.331935        -9.0324
  65   2.0000      -0.323725        -8.8090
  66   2.0000      -0.291336        -7.9277
  67   0.0000       0.027602         0.7511
  68   0.0000       0.071910         1.9568
  69   0.0000       0.102451         2.7878
  70   0.0000       0.112326         3.0566
  71   0.0000       0.128054         3.4845

MULLIKEN ATOMIC CHARGES
-----------------------
   0 S :    0.099945
   1 C :   -0.107667
   2 C :   -0.081526
   3 C :    0.049605
   4 C :   -0.149226
   5 H :   -0.028719
   6 C :    0.063941
   7 H :    0.033765
   8 H :    0.024513
   9 C :   -0.059747
  10 H :    0.032410
  11 H :    0.029879
  12 C :   -0.087492
  13 H :    0.026881
  14 H :    0.037279
  15 H :    0.053382
  16 S :    0.082478
  17 C :   -0.094636
  18 C :   -0.070881
  19 C :   -0.071654
  20 C :   -0.109541
  21 H :    0.039365
  22 C :    0.100394
  23 H :    0.007626
  24 H :    0.041858
  25 C :   -0.098465
  26 H :    0.034528
  27 H :    0.035278
  28 C :   -0.087138
  29 H :    0.040066
  30 H :    0.036672
  31 H :    0.073977
  32 H :    0.035423
  33 H :    0.067426
Sum of atomic charges:   -0.0000000

LOEWDIN ATOMIC CHARGES
----------------------
   0 S :    0.381771
   1 C :   -0.170896
   2 C :   -0.061298
   3 C :   -0.058145
   4 C :   -0.183814
   5 H :    0.017213
   6 C :   -0.033974
   7 H :    0.037338
   8 H :    0.032708
   9 C :   -0.052048
  10 H :    0.031803
  11 H :    0.027028
  12 C :   -0.077364
  13 H :    0.023544
  14 H :    0.028743
  15 H :    0.034067
  16 S :    0.386964
  17 C :   -0.188921
  18 C :   -0.077077
  19 C :   -0.064133
  20 C :   -0.187990
  21 H :    0.040478
  22 C :   -0.032105
  23 H :    0.025018
  24 H :    0.039197
  25 C :   -0.040370
  26 H :    0.026128
  27 H :    0.025086
  28 C :   -0.078526
  29 H :    0.024175
  30 H :    0.030919
  31 H :    0.040928
  32 H :    0.017007
  33 H :    0.036547

  Mayer bond orders larger than 0.100000
B(  0-S ,  1-C ) :   1.1486 B(  0-S ,  4-C ) :   1.1358 B(  1-C ,  2-C ) :   1.6052
B(  1-C ,  4-C ) :   0.1013 B(  1-C , 32-H ) :   0.9728 B(  2-C ,  3-C ) :   1.2482
B(  2-C ,  6-C ) :   0.9998 B(  3-C ,  4-C ) :   1.5703 B(  3-C ,  5-H ) :   0.9888
B(  4-C , 20-C ) :   1.0292 B(  6-C ,  7-H ) :   0.9436 B(  6-C ,  8-H ) :   0.9399
B(  6-C ,  9-C ) :   1.0842 B(  9-C , 10-H ) :   0.9497 B(  9-C , 11-H ) :   0.9502
B(  9-C , 12-C ) :   1.0779 B( 12-C , 13-H ) :   0.9762 B( 12-C , 14-H ) :   0.9726
B( 12-C , 15-H ) :   0.9687 B( 16-S , 17-C ) :   1.1249 B( 16-S , 20-C ) :   1.1249
B( 17-C , 18-C ) :   1.6893 B( 17-C , 33-H ) :   0.9615 B( 18-C , 19-C ) :   1.1551
B( 18-C , 21-H ) :   0.9781 B( 19-C , 20-C ) :   1.6486 B( 19-C , 22-C ) :   1.0623
B( 22-C , 23-H ) :   0.9290 B( 22-C , 24-H ) :   0.9245 B( 22-C , 25-C ) :   1.0660
B( 25-C , 26-H ) :   0.9579 B( 25-C , 27-H ) :   0.9516 B( 25-C , 28-C ) :   1.0729
B( 28-C , 29-H ) :   0.9703 B( 28-C , 30-H ) :   0.9703 B( 28-C , 31-H ) :   0.9684

Dispersion correction           -0.015110932
FINAL SINGLE POINT ENERGY     -1339.874556880957

DIPOLE MOMENT
-------------
                                X             Y             Z
Electronic contribution:     18.65242      19.00792      -6.45839
Nuclear contribution   :    -19.25004     -19.43287       6.73184
                        -----------------------------------------
Total Dipole Moment    :     -0.59761      -0.42496       0.27345
                        -----------------------------------------
Magnitude (a.u.)       :      0.78263
Magnitude (Debye)      :      1.98928

Rotational constants in cm-1:     0.018779     0.009280     0.007201
Rotational constants in MHz :   562.994089   278.201194   215.889109

                             ****ORCA TERMINATED NORMALLY****
TOTAL RUN TIME: 0 days 0 hours 0 minutes 22 seconds 293 msec
