                         Program Version 4.2.1 -  RELEASE  -
|  1> ! wB97X-D3 SP def2-SVP
|  2> %pal
|  3> nprocs 24
|  4> end
|  5>
|  6> * xyz 0 1
|  7> S 	 -50.4447 	 8.15031 	 -16.4508
|  8> C 	 -49.9097 	 7.03915 	 -15.178
|  9> C 	 -49.2678 	 7.69818 	 -14.1346
| 10> C 	 -49.115 	 9.11657 	 -14.378
| 11> C 	 -49.6244 	 9.49222 	 -15.6545
| 12> H 	 -48.6106 	 9.96966 	 -13.956
| 13> C 	 -48.7904 	 7.04396 	 -12.8743
| 14> H 	 -47.6907 	 7.23927 	 -12.8011
| 15> H 	 -48.8844 	 6.03232 	 -13.0466
| 16> C 	 -49.4928 	 7.49534 	 -11.5863
| 17> H 	 -49.1262 	 8.51158 	 -11.3077
| 18> H 	 -50.5711 	 7.61776 	 -11.728
| 19> C 	 -49.2091 	 6.48122 	 -10.4343
| 20> H 	 -49.8419 	 6.84743 	 -9.56707
| 21> H 	 -49.6527 	 5.48901 	 -10.5957
| 22> H 	 -48.1376 	 6.51897 	 -10.217
| 23> S 	 -49.1005 	 10.6377 	 -18.1256
| 24> C 	 -48.9929 	 12.3731 	 -18.223
| 25> C 	 -49.3141 	 12.9797 	 -17.0281
| 26> C 	 -49.2826 	 12.1041 	 -15.916
| 27> C 	 -49.345 	 10.7857 	 -16.3726
| 28> H 	 -49.2901 	 14.0791 	 -16.8858
| 29> C 	 -49.308 	 12.5676 	 -14.4138
| 30> H 	 -49.8253 	 11.8531 	 -13.8235
| 31> H 	 -49.9261 	 13.4568 	 -14.1887
| 32> C 	 -47.9333 	 12.785 	 -13.7696
| 33> H 	 -47.4364 	 13.4044 	 -14.3779
| 34> H 	 -47.3517 	 11.8969 	 -13.8863
| 35> C 	 -47.9791 	 13.2154 	 -12.2949
| 36> H 	 -48.3686 	 14.2168 	 -12.1499
| 37> H 	 -47.0449 	 13.1344 	 -11.8106
| 38> H 	 -48.6244 	 12.52 	 -11.7826
| 39> H 	 -50.0953 	 5.9821 	 -15.2712
| 40> H 	 -48.8012 	 12.9329 	 -19.1093
| 41> *
| 42>
| 43>                          ****END OF INPUT****

CARTESIAN COORDINATES (ANGSTROEM)
---------------------------------
  S    -50.444700    8.150310  -16.450800
  C    -49.909700    7.039150  -15.178000
  C    -49.267800    7.698180  -14.134600
  C    -49.115000    9.116570  -14.378000
  C    -49.624400    9.492220  -15.654500
  H    -48.610600    9.969660  -13.956000
  C    -48.790400    7.043960  -12.874300
  H    -47.690700    7.239270  -12.801100
  H    -48.884400    6.032320  -13.046600
  C    -49.492800    7.495340  -11.586300
  H    -49.126200    8.511580  -11.307700
  H    -50.571100    7.617760  -11.728000
  C    -49.209100    6.481220  -10.434300
  H    -49.841900    6.847430   -9.567070
  H    -49.652700    5.489010  -10.595700
  H    -48.137600    6.518970  -10.217000
  S    -49.100500   10.637700  -18.125600
  C    -48.992900   12.373100  -18.223000
  C    -49.314100   12.979700  -17.028100
  C    -49.282600   12.104100  -15.916000
  C    -49.345000   10.785700  -16.372600
  H    -49.290100   14.079100  -16.885800
  C    -49.308000   12.567600  -14.413800
  H    -49.825300   11.853100  -13.823500
  H    -49.926100   13.456800  -14.188700
  C    -47.933300   12.785000  -13.769600
  H    -47.436400   13.404400  -14.377900
  H    -47.351700   11.896900  -13.886300
  C    -47.979100   13.215400  -12.294900
  H    -48.368600   14.216800  -12.149900
  H    -47.044900   13.134400  -11.810600
  H    -48.624400   12.520000  -11.782600
  H    -50.095300    5.982100  -15.271200
  H    -48.801200   12.932900  -19.109300

 Total Charge           Charge          ....    0
 Multiplicity           Mult            ....    1
 Number of Electrons    NEL             ....  134
 Basis Dimension        Dim             ....  322

ORBITAL ENERGIES
----------------

  NO   OCC          E(Eh)            E(eV)
   0   2.0000     -88.969995     -2420.9966
   1   2.0000     -88.965926     -2420.8859
   2   2.0000     -10.334916      -281.2274
   3   2.0000     -10.334540      -281.2171
   4   2.0000     -10.315577      -280.7011
   5   2.0000     -10.315083      -280.6877
   6   2.0000     -10.310128      -280.5528
   7   2.0000     -10.307095      -280.4703
   8   2.0000     -10.296514      -280.1824
   9   2.0000     -10.296228      -280.1746
  10   2.0000     -10.296159      -280.1727
  11   2.0000     -10.291680      -280.0509
  12   2.0000     -10.286981      -279.9230
  13   2.0000     -10.285971      -279.8955
  14   2.0000     -10.277924      -279.6765
  15   2.0000     -10.276752      -279.6446
  16   2.0000      -8.084301      -219.9850
  17   2.0000      -8.080059      -219.8696
  18   2.0000      -6.042786      -164.4326
  19   2.0000      -6.038980      -164.3290
  20   2.0000      -6.038585      -164.3182
  21   2.0000      -6.034990      -164.2204
  22   2.0000      -6.034716      -164.2130
  23   2.0000      -6.030788      -164.1061
  24   2.0000      -1.001664       -27.2567
  25   2.0000      -0.978650       -26.6304
  26   2.0000      -0.912449       -24.8290
  27   2.0000      -0.909930       -24.7605
  28   2.0000      -0.862002       -23.4563
  29   2.0000      -0.855125       -23.2691
  30   2.0000      -0.842614       -22.9287
  31   2.0000      -0.811369       -22.0785
  32   2.0000      -0.787095       -21.4179
  33   2.0000      -0.770332       -20.9618
  34   2.0000      -0.714519       -19.4431
  35   2.0000      -0.702245       -19.1091
  36   2.0000      -0.691329       -18.8120
  37   2.0000      -0.660962       -17.9857
  38   2.0000      -0.645323       -17.5601
  39   2.0000      -0.612961       -16.6795
  40   2.0000      -0.599518       -16.3137
  41   2.0000      -0.573655       -15.6099
  42   2.0000      -0.566453       -15.4140
  43   2.0000      -0.550907       -14.9910
  44   2.0000      -0.526080       -14.3154
  45   2.0000      -0.521605       -14.1936
  46   2.0000      -0.519802       -14.1445
  47   2.0000      -0.514827       -14.0091
  48   2.0000      -0.506905       -13.7936
  49   2.0000      -0.492010       -13.3883
  50   2.0000      -0.489783       -13.3277
  51   2.0000      -0.478897       -13.0314
  52   2.0000      -0.474366       -12.9081
  53   2.0000      -0.462146       -12.5756
  54   2.0000      -0.460066       -12.5190
  55   2.0000      -0.453860       -12.3501
  56   2.0000      -0.442365       -12.0374
  57   2.0000      -0.439184       -11.9508
  58   2.0000      -0.435791       -11.8585
  59   2.0000      -0.430693       -11.7197
  60   2.0000      -0.426536       -11.6066
  61   2.0000      -0.420351       -11.4383
  62   2.0000      -0.413577       -11.2540
  63   2.0000      -0.349983        -9.5235
  64   2.0000      -0.337300        -9.1784
  65   2.0000      -0.327957        -8.9242
  66   2.0000      -0.282496        -7.6871
  67   0.0000       0.023200         0.6313
  68   0.0000       0.071728         1.9518
  69   0.0000       0.108985         2.9656
  70   0.0000       0.118817         3.2332
  71   0.0000       0.126319         3.4373

MULLIKEN ATOMIC CHARGES
-----------------------
   0 S :    0.094725
   1 C :   -0.133043
   2 C :   -0.072991
   3 C :    0.039527
   4 C :   -0.153844
   5 H :   -0.014414
   6 C :    0.115420
   7 H :    0.037388
   8 H :   -0.012589
   9 C :   -0.096845
  10 H :    0.033198
  11 H :    0.036781
  12 C :   -0.066044
  13 H :    0.037433
  14 H :    0.041684
  15 H :    0.046127
  16 S :    0.116930
  17 C :   -0.086692
  18 C :   -0.020470
  19 C :   -0.050293
  20 C :   -0.143513
  21 H :    0.029744
  22 C :    0.028425
  23 H :    0.008381
  24 H :    0.023677
  25 C :   -0.011894
  26 H :   -0.012213
  27 H :    0.013316
  28 C :   -0.009295
  29 H :    0.034351
  30 H :    0.029269
  31 H :    0.018011
  32 H :    0.049399
  33 H :    0.050353
Sum of atomic charges:   -0.0000000

LOEWDIN ATOMIC CHARGES
----------------------
   0 S :    0.383135
   1 C :   -0.195256
   2 C :   -0.053484
   3 C :   -0.072417
   4 C :   -0.179344
   5 H :    0.029695
   6 C :   -0.032271
   7 H :    0.038856
   8 H :    0.015888
   9 C :   -0.039760
  10 H :    0.026136
  11 H :    0.025054
  12 C :   -0.069411
  13 H :    0.033447
  14 H :    0.026772
  15 H :    0.027729
  16 S :    0.403676
  17 C :   -0.186132
  18 C :   -0.070679
  19 C :   -0.054557
  20 C :   -0.183909
  21 H :    0.035886
  22 C :   -0.028799
  23 H :    0.019490
  24 H :    0.033268
  25 C :   -0.032057
  26 H :    0.006464
  27 H :    0.020241
  28 C :   -0.053691
  29 H :    0.026477
  30 H :    0.024429
  31 H :    0.024419
  32 H :    0.025660
  33 H :    0.025044

  Mayer bond orders larger than 0.100000
B(  0-S ,  1-C ) :   1.1182 B(  0-S ,  4-C ) :   1.1548 B(  1-C ,  2-C ) :   1.6166
B(  1-C , 32-H ) :   0.9705 B(  2-C ,  3-C ) :   1.1922 B(  2-C ,  6-C ) :   1.0413
B(  3-C ,  4-C ) :   1.5753 B(  3-C ,  5-H ) :   0.9909 B(  4-C , 20-C ) :   1.0409
B(  6-C ,  7-H ) :   0.9288 B(  6-C ,  8-H ) :   0.9364 B(  6-C ,  9-C ) :   1.0511
B(  9-C , 10-H ) :   0.9520 B(  9-C , 11-H ) :   0.9610 B(  9-C , 12-C ) :   1.0845
B( 12-C , 13-H ) :   0.9750 B( 12-C , 14-H ) :   0.9759 B( 12-C , 15-H ) :   0.9747
B( 16-S , 17-C ) :   1.1451 B( 16-S , 20-C ) :   1.1449 B( 17-C , 18-C ) :   1.6122
B( 17-C , 33-H ) :   0.9707 B( 18-C , 19-C ) :   1.2681 B( 18-C , 21-H ) :   0.9743
B( 19-C , 20-C ) :   1.5815 B( 19-C , 22-C ) :   1.0322 B( 22-C , 23-H ) :   0.9331
B( 22-C , 24-H ) :   0.9435 B( 22-C , 25-C ) :   1.0548 B( 25-C , 26-H ) :   0.9450
B( 25-C , 27-H ) :   0.9455 B( 25-C , 28-C ) :   1.0802 B( 28-C , 29-H ) :   0.9752
B( 28-C , 30-H ) :   0.9731 B( 28-C , 31-H ) :   0.9728

Dispersion correction           -0.013830945
FINAL SINGLE POINT ENERGY     -1339.863173894795

DIPOLE MOMENT
-------------
                                X             Y             Z
Electronic contribution:     -6.74166      -2.93865     -32.30873
Nuclear contribution   :      7.00489       3.17807      32.89862
                        -----------------------------------------
Total Dipole Moment    :      0.26323       0.23942       0.58989
                        -----------------------------------------
Magnitude (a.u.)       :      0.68890
Magnitude (Debye)      :      1.75105

Rotational constants in cm-1:     0.017203     0.009077     0.006179
Rotational constants in MHz :   515.721032   272.125674   185.232207

                             ****ORCA TERMINATED NORMALLY****
TOTAL RUN TIME: 0 days 0 hours 0 minutes 22 seconds 544 msec
