                         Program Version 4.2.1 -  RELEASE  -
|  1> ! wB97X-D3 SP def2-SVP
|  2> %pal
|  3> nprocs 24
|  4> end
|  5>
|  6> * xyz 0 1
|  7> S 	 -111.679 	 71.9318 	 -8.05939
|  8> C 	 -110.624 	 73.1542 	 -8.72431
|  9> C 	 -109.563 	 72.6641 	 -9.53996
| 10> C 	 -109.742 	 71.2325 	 -9.62532
| 11> C 	 -110.811 	 70.6959 	 -8.91529
| 12> H 	 -109.135 	 70.5474 	 -10.2449
| 13> C 	 -108.399 	 73.3567 	 -10.2533
| 14> H 	 -107.485 	 72.8144 	 -10.0481
| 15> H 	 -108.145 	 74.3685 	 -9.80361
| 16> C 	 -108.471 	 73.4089 	 -11.7908
| 17> H 	 -108.259 	 72.3938 	 -12.0896
| 18> H 	 -109.508 	 73.6582 	 -12.1886
| 19> C 	 -107.389 	 74.2232 	 -12.4733
| 20> H 	 -107.454 	 74.2854 	 -13.529
| 21> H 	 -107.608 	 75.2432 	 -12.2515
| 22> H 	 -106.368 	 74.0243 	 -12.1191
| 23> S 	 -110.771 	 68.6829 	 -7.07894
| 24> C 	 -110.92 	 67.0285 	 -7.50082
| 25> C 	 -111.192 	 66.9108 	 -8.83252
| 26> C 	 -111.227 	 68.1432 	 -9.55205
| 27> C 	 -110.946 	 69.2231 	 -8.71653
| 28> H 	 -111.38 	 65.9409 	 -9.25987
| 29> C 	 -111.273 	 68.2082 	 -11.0466
| 30> H 	 -110.854 	 67.2716 	 -11.4064
| 31> H 	 -110.725 	 68.9593 	 -11.6458
| 32> C 	 -112.693 	 68.097 	 -11.6354
| 33> H 	 -113.455 	 67.4443 	 -11.2182
| 34> H 	 -112.58 	 67.8313 	 -12.7017
| 35> C 	 -113.359 	 69.487 	 -11.4975
| 36> H 	 -114.281 	 69.3426 	 -10.9511
| 37> H 	 -113.539 	 69.9401 	 -12.495
| 38> H 	 -112.879 	 70.2285 	 -10.8625
| 39> H 	 -110.803 	 74.175 	 -8.49073
| 40> H 	 -110.785 	 66.1783 	 -6.81798
| 41> *
| 42>
| 43>                          ****END OF INPUT****

CARTESIAN COORDINATES (ANGSTROEM)
---------------------------------
  S    -111.679000   71.931800   -8.059390
  C    -110.624000   73.154200   -8.724310
  C    -109.563000   72.664100   -9.539960
  C    -109.742000   71.232500   -9.625320
  C    -110.811000   70.695900   -8.915290
  H    -109.135000   70.547400  -10.244900
  C    -108.399000   73.356700  -10.253300
  H    -107.485000   72.814400  -10.048100
  H    -108.145000   74.368500   -9.803610
  C    -108.471000   73.408900  -11.790800
  H    -108.259000   72.393800  -12.089600
  H    -109.508000   73.658200  -12.188600
  C    -107.389000   74.223200  -12.473300
  H    -107.454000   74.285400  -13.529000
  H    -107.608000   75.243200  -12.251500
  H    -106.368000   74.024300  -12.119100
  S    -110.771000   68.682900   -7.078940
  C    -110.920000   67.028500   -7.500820
  C    -111.192000   66.910800   -8.832520
  C    -111.227000   68.143200   -9.552050
  C    -110.946000   69.223100   -8.716530
  H    -111.380000   65.940900   -9.259870
  C    -111.273000   68.208200  -11.046600
  H    -110.854000   67.271600  -11.406400
  H    -110.725000   68.959300  -11.645800
  C    -112.693000   68.097000  -11.635400
  H    -113.455000   67.444300  -11.218200
  H    -112.580000   67.831300  -12.701700
  C    -113.359000   69.487000  -11.497500
  H    -114.281000   69.342600  -10.951100
  H    -113.539000   69.940100  -12.495000
  H    -112.879000   70.228500  -10.862500
  H    -110.803000   74.175000   -8.490730
  H    -110.785000   66.178300   -6.817980

 Total Charge           Charge          ....    0
 Multiplicity           Mult            ....    1
 Number of Electrons    NEL             ....  134
 Basis Dimension        Dim             ....  322

ORBITAL ENERGIES
----------------

  NO   OCC          E(Eh)            E(eV)
   0   2.0000     -88.973636     -2421.0957
   1   2.0000     -88.960888     -2420.7488
   2   2.0000     -10.329986      -281.0932
   3   2.0000     -10.326624      -281.0017
   4   2.0000     -10.320116      -280.8246
   5   2.0000     -10.313399      -280.6418
   6   2.0000     -10.313363      -280.6409
   7   2.0000     -10.303098      -280.3615
   8   2.0000     -10.302826      -280.3541
   9   2.0000     -10.296883      -280.1924
  10   2.0000     -10.291904      -280.0569
  11   2.0000     -10.291009      -280.0326
  12   2.0000     -10.290144      -280.0090
  13   2.0000     -10.282101      -279.7902
  14   2.0000     -10.275687      -279.6157
  15   2.0000     -10.264095      -279.3002
  16   2.0000      -8.088144      -220.0896
  17   2.0000      -8.076815      -219.7813
  18   2.0000      -6.046635      -164.5373
  19   2.0000      -6.042622      -164.4281
  20   2.0000      -6.039017      -164.3300
  21   2.0000      -6.035258      -164.2277
  22   2.0000      -6.031031      -164.1127
  23   2.0000      -6.027696      -164.0220
  24   2.0000      -1.008168       -27.4336
  25   2.0000      -0.985663       -26.8212
  26   2.0000      -0.912610       -24.8334
  27   2.0000      -0.908560       -24.7232
  28   2.0000      -0.867226       -23.5984
  29   2.0000      -0.853058       -23.2129
  30   2.0000      -0.844511       -22.9803
  31   2.0000      -0.810745       -22.0615
  32   2.0000      -0.784760       -21.3544
  33   2.0000      -0.772933       -21.0326
  34   2.0000      -0.701938       -19.1007
  35   2.0000      -0.695867       -18.9355
  36   2.0000      -0.688102       -18.7242
  37   2.0000      -0.657924       -17.9030
  38   2.0000      -0.644671       -17.5424
  39   2.0000      -0.620019       -16.8716
  40   2.0000      -0.604168       -16.4402
  41   2.0000      -0.574602       -15.6357
  42   2.0000      -0.557717       -15.1762
  43   2.0000      -0.543562       -14.7911
  44   2.0000      -0.536586       -14.6013
  45   2.0000      -0.526207       -14.3188
  46   2.0000      -0.515232       -14.0202
  47   2.0000      -0.509235       -13.8570
  48   2.0000      -0.498986       -13.5781
  49   2.0000      -0.497345       -13.5335
  50   2.0000      -0.494588       -13.4584
  51   2.0000      -0.479041       -13.0354
  52   2.0000      -0.473219       -12.8769
  53   2.0000      -0.469814       -12.7843
  54   2.0000      -0.458867       -12.4864
  55   2.0000      -0.447952       -12.1894
  56   2.0000      -0.442425       -12.0390
  57   2.0000      -0.440667       -11.9912
  58   2.0000      -0.434076       -11.8118
  59   2.0000      -0.425485       -11.5780
  60   2.0000      -0.412857       -11.2344
  61   2.0000      -0.409261       -11.1366
  62   2.0000      -0.401895       -10.9361
  63   2.0000      -0.344081        -9.3629
  64   2.0000      -0.331735        -9.0270
  65   2.0000      -0.325492        -8.8571
  66   2.0000      -0.295856        -8.0507
  67   0.0000       0.039683         1.0798
  68   0.0000       0.064815         1.7637
  69   0.0000       0.115898         3.1537
  70   0.0000       0.120680         3.2839
  71   0.0000       0.123882         3.3710

MULLIKEN ATOMIC CHARGES
-----------------------
   0 S :    0.130314
   1 C :   -0.129277
   2 C :   -0.039415
   3 C :    0.007823
   4 C :   -0.151529
   5 H :    0.025909
   6 C :    0.049371
   7 H :    0.026934
   8 H :    0.028080
   9 C :   -0.091096
  10 H :    0.021131
  11 H :    0.045816
  12 C :   -0.017990
  13 H :    0.027509
  14 H :    0.010303
  15 H :    0.034607
  16 S :    0.105547
  17 C :   -0.094748
  18 C :   -0.032183
  19 C :    0.018520
  20 C :   -0.186375
  21 H :    0.012125
  22 C :    0.042670
  23 H :    0.010886
  24 H :    0.043431
  25 C :   -0.091035
  26 H :    0.034681
  27 H :    0.030497
  28 C :   -0.069323
  29 H :    0.020573
  30 H :    0.037864
  31 H :    0.032998
  32 H :    0.040017
  33 H :    0.065365
Sum of atomic charges:   -0.0000000

LOEWDIN ATOMIC CHARGES
----------------------
   0 S :    0.422291
   1 C :   -0.188906
   2 C :   -0.056495
   3 C :   -0.057236
   4 C :   -0.215854
   5 H :    0.032468
   6 C :   -0.036532
   7 H :    0.033556
   8 H :    0.032696
   9 C :   -0.043748
  10 H :    0.019010
  11 H :    0.032610
  12 C :   -0.065611
  13 H :    0.025953
  14 H :    0.021737
  15 H :    0.028538
  16 S :    0.424443
  17 C :   -0.201026
  18 C :   -0.069917
  19 C :   -0.060824
  20 C :   -0.198548
  21 H :    0.029230
  22 C :   -0.034219
  23 H :    0.028623
  24 H :    0.037336
  25 C :   -0.041703
  26 H :    0.024906
  27 H :    0.023968
  28 C :   -0.075926
  29 H :    0.023191
  30 H :    0.027986
  31 H :    0.022986
  32 H :    0.017709
  33 H :    0.037309

  Mayer bond orders larger than 0.100000
B(  0-S ,  1-C ) :   1.1626 B(  0-S ,  4-C ) :   1.1436 B(  1-C ,  2-C ) :   1.5782
B(  1-C , 32-H ) :   0.9725 B(  2-C ,  3-C ) :   1.2513 B(  2-C ,  6-C ) :   1.0289
B(  3-C ,  4-C ) :   1.5841 B(  3-C ,  5-H ) :   0.9811 B(  4-C , 20-C ) :   1.0087
B(  6-C ,  7-H ) :   0.9365 B(  6-C ,  8-H ) :   0.9488 B(  6-C ,  9-C ) :   1.0478
B(  9-C , 10-H ) :   0.9540 B(  9-C , 11-H ) :   0.9588 B(  9-C , 12-C ) :   1.0892
B( 12-C , 13-H ) :   0.9705 B( 12-C , 14-H ) :   0.9697 B( 12-C , 15-H ) :   0.9720
B( 16-S , 17-C ) :   1.1604 B( 16-S , 20-C ) :   1.1617 B( 17-C , 18-C ) :   1.6053
B( 17-C , 33-H ) :   0.9660 B( 18-C , 19-C ) :   1.2538 B( 18-C , 21-H ) :   0.9893
B( 19-C , 20-C ) :   1.5818 B( 19-C , 22-C ) :   1.0339 B( 22-C , 23-H ) :   0.9325
B( 22-C , 24-H ) :   0.9522 B( 22-C , 25-C ) :   1.0661 B( 25-C , 26-H ) :   0.9718
B( 25-C , 27-H ) :   0.9635 B( 25-C , 28-C ) :   1.0427 B( 28-C , 29-H ) :   0.9815
B( 28-C , 30-H ) :   0.9783 B( 28-C , 31-H ) :   0.9805

Dispersion correction           -0.014426929
FINAL SINGLE POINT ENERGY     -1339.867821048137

DIPOLE MOMENT
-------------
                                X             Y             Z
Electronic contribution:     -5.77023      -6.71589      25.78143
Nuclear contribution   :      6.12073       6.69850     -26.30739
                        -----------------------------------------
Total Dipole Moment    :      0.35050      -0.01739      -0.52595
                        -----------------------------------------
Magnitude (a.u.)       :      0.63228
Magnitude (Debye)      :      1.60714

Rotational constants in cm-1:     0.019038     0.008174     0.007076
Rotational constants in MHz :   570.741960   245.046686   212.125930

                             ****ORCA TERMINATED NORMALLY****
TOTAL RUN TIME: 0 days 0 hours 0 minutes 21 seconds 563 msec
