                         Program Version 4.2.1 -  RELEASE  -
|  1> ! wB97X-D3 SP def2-SVP
|  2> %pal
|  3> nprocs 24
|  4> end
|  5>
|  6> * xyz 0 1
|  7> S 	 -52.9839 	 25.648 	 26.0536
|  8> C 	 -52.0878 	 25.1179 	 24.6397
|  9> C 	 -50.77 	 24.8278 	 24.8969
| 10> C 	 -50.5616 	 24.9464 	 26.2825
| 11> C 	 -51.6103 	 25.4182 	 27.0528
| 12> H 	 -49.6483 	 24.7643 	 26.8377
| 13> C 	 -49.8167 	 24.2689 	 23.8721
| 14> H 	 -50.165 	 24.4768 	 22.8315
| 15> H 	 -49.7644 	 23.1329 	 23.9001
| 16> C 	 -48.3377 	 24.86 	 23.8234
| 17> H 	 -48.5538 	 25.9152 	 23.8029
| 18> H 	 -47.7752 	 24.6797 	 24.7609
| 19> C 	 -47.5195 	 24.537 	 22.5916
| 20> H 	 -46.6168 	 25.139 	 22.505
| 21> H 	 -47.2376 	 23.5111 	 22.5239
| 22> H 	 -48.0618 	 24.8146 	 21.6459
| 23> S 	 -52.326 	 24.5614 	 29.6914
| 24> C 	 -52.0586 	 25.7767 	 30.9972
| 25> C 	 -51.433 	 26.9223 	 30.5039
| 26> C 	 -51.2216 	 26.936 	 29.0758
| 27> C 	 -51.6042 	 25.7051 	 28.4592
| 28> H 	 -51.0944 	 27.7508 	 31.1158
| 29> C 	 -50.6264 	 28.074 	 28.2592
| 30> H 	 -51.3076 	 28.9461 	 28.2313
| 31> H 	 -50.445 	 27.9666 	 27.1819
| 32> C 	 -49.2041 	 28.5284 	 28.7543
| 33> H 	 -49.3474 	 28.9206 	 29.7869
| 34> H 	 -48.8859 	 29.3515 	 28.0733
| 35> C 	 -48.0686 	 27.5158 	 28.696
| 36> H 	 -47.8682 	 27.1482 	 27.6337
| 37> H 	 -48.2457 	 26.6089 	 29.2337
| 38> H 	 -47.0637 	 27.9392 	 28.9474
| 39> H 	 -52.4255 	 25.1376 	 23.552
| 40> H 	 -52.2271 	 25.6192 	 32.0632
| 41> *
| 42>
| 43>                          ****END OF INPUT****

CARTESIAN COORDINATES (ANGSTROEM)
---------------------------------
  S    -52.983900   25.648000   26.053600
  C    -52.087800   25.117900   24.639700
  C    -50.770000   24.827800   24.896900
  C    -50.561600   24.946400   26.282500
  C    -51.610300   25.418200   27.052800
  H    -49.648300   24.764300   26.837700
  C    -49.816700   24.268900   23.872100
  H    -50.165000   24.476800   22.831500
  H    -49.764400   23.132900   23.900100
  C    -48.337700   24.860000   23.823400
  H    -48.553800   25.915200   23.802900
  H    -47.775200   24.679700   24.760900
  C    -47.519500   24.537000   22.591600
  H    -46.616800   25.139000   22.505000
  H    -47.237600   23.511100   22.523900
  H    -48.061800   24.814600   21.645900
  S    -52.326000   24.561400   29.691400
  C    -52.058600   25.776700   30.997200
  C    -51.433000   26.922300   30.503900
  C    -51.221600   26.936000   29.075800
  C    -51.604200   25.705100   28.459200
  H    -51.094400   27.750800   31.115800
  C    -50.626400   28.074000   28.259200
  H    -51.307600   28.946100   28.231300
  H    -50.445000   27.966600   27.181900
  C    -49.204100   28.528400   28.754300
  H    -49.347400   28.920600   29.786900
  H    -48.885900   29.351500   28.073300
  C    -48.068600   27.515800   28.696000
  H    -47.868200   27.148200   27.633700
  H    -48.245700   26.608900   29.233700
  H    -47.063700   27.939200   28.947400
  H    -52.425500   25.137600   23.552000
  H    -52.227100   25.619200   32.063200

 Total Charge           Charge          ....    0
 Multiplicity           Mult            ....    1
 Number of Electrons    NEL             ....  134
 Basis Dimension        Dim             ....  322

ORBITAL ENERGIES
----------------

  NO   OCC          E(Eh)            E(eV)
   0   2.0000     -88.969465     -2420.9822
   1   2.0000     -88.968091     -2420.9448
   2   2.0000     -10.333066      -281.1770
   3   2.0000     -10.329016      -281.0668
   4   2.0000     -10.321600      -280.8650
   5   2.0000     -10.317629      -280.7570
   6   2.0000     -10.314005      -280.6584
   7   2.0000     -10.304914      -280.4110
   8   2.0000     -10.302259      -280.3387
   9   2.0000     -10.300327      -280.2861
  10   2.0000     -10.296811      -280.1905
  11   2.0000     -10.294094      -280.1165
  12   2.0000     -10.290873      -280.0289
  13   2.0000     -10.290659      -280.0231
  14   2.0000     -10.281552      -279.7753
  15   2.0000     -10.281291      -279.7682
  16   2.0000      -8.083109      -219.9526
  17   2.0000      -8.081902      -219.9197
  18   2.0000      -6.041490      -164.3973
  19   2.0000      -6.040643      -164.3742
  20   2.0000      -6.037534      -164.2897
  21   2.0000      -6.036719      -164.2675
  22   2.0000      -6.034010      -164.1938
  23   2.0000      -6.032555      -164.1542
  24   2.0000      -1.006253       -27.3815
  25   2.0000      -0.972993       -26.4765
  26   2.0000      -0.907854       -24.7040
  27   2.0000      -0.900943       -24.5159
  28   2.0000      -0.871049       -23.7025
  29   2.0000      -0.848589       -23.0913
  30   2.0000      -0.841478       -22.8978
  31   2.0000      -0.811507       -22.0822
  32   2.0000      -0.784996       -21.3608
  33   2.0000      -0.770849       -20.9759
  34   2.0000      -0.710147       -19.3241
  35   2.0000      -0.691725       -18.8228
  36   2.0000      -0.689879       -18.7726
  37   2.0000      -0.652415       -17.7531
  38   2.0000      -0.640516       -17.4293
  39   2.0000      -0.616116       -16.7654
  40   2.0000      -0.601531       -16.3685
  41   2.0000      -0.569453       -15.4956
  42   2.0000      -0.561057       -15.2671
  43   2.0000      -0.544020       -14.8035
  44   2.0000      -0.542517       -14.7626
  45   2.0000      -0.521400       -14.1880
  46   2.0000      -0.514100       -13.9894
  47   2.0000      -0.503739       -13.7074
  48   2.0000      -0.500697       -13.6247
  49   2.0000      -0.493310       -13.4237
  50   2.0000      -0.489881       -13.3303
  51   2.0000      -0.476902       -12.9772
  52   2.0000      -0.468458       -12.7474
  53   2.0000      -0.464736       -12.6461
  54   2.0000      -0.459536       -12.5046
  55   2.0000      -0.453458       -12.3392
  56   2.0000      -0.442381       -12.0378
  57   2.0000      -0.440049       -11.9743
  58   2.0000      -0.432995       -11.7824
  59   2.0000      -0.422928       -11.5085
  60   2.0000      -0.418464       -11.3870
  61   2.0000      -0.416558       -11.3351
  62   2.0000      -0.402306       -10.9473
  63   2.0000      -0.337087        -9.1726
  64   2.0000      -0.331046        -9.0082
  65   2.0000      -0.320334        -8.7167
  66   2.0000      -0.308484        -8.3943
  67   0.0000       0.037830         1.0294
  68   0.0000       0.048676         1.3245
  69   0.0000       0.110323         3.0020
  70   0.0000       0.121337         3.3017
  71   0.0000       0.125745         3.4217

MULLIKEN ATOMIC CHARGES
-----------------------
   0 S :    0.136881
   1 C :   -0.143464
   2 C :   -0.047651
   3 C :    0.044184
   4 C :   -0.196489
   5 H :    0.003477
   6 C :    0.024269
   7 H :    0.012945
   8 H :    0.056028
   9 C :   -0.096095
  10 H :    0.026774
  11 H :    0.041444
  12 C :   -0.044755
  13 H :    0.035712
  14 H :    0.032456
  15 H :    0.028209
  16 S :    0.100177
  17 C :   -0.094763
  18 C :   -0.022694
  19 C :   -0.003639
  20 C :   -0.180681
  21 H :    0.024440
  22 C :    0.047376
  23 H :    0.041150
  24 H :    0.036315
  25 C :   -0.106788
  26 H :    0.034584
  27 H :    0.036650
  28 C :   -0.064053
  29 H :    0.023028
  30 H :    0.039182
  31 H :    0.041354
  32 H :    0.065325
  33 H :    0.069113
Sum of atomic charges:    0.0000000

LOEWDIN ATOMIC CHARGES
----------------------
   0 S :    0.428658
   1 C :   -0.199812
   2 C :   -0.077079
   3 C :   -0.055078
   4 C :   -0.219206
   5 H :    0.029255
   6 C :   -0.035777
   7 H :    0.030124
   8 H :    0.038195
   9 C :   -0.046622
  10 H :    0.023626
  11 H :    0.024536
  12 C :   -0.067645
  13 H :    0.030442
  14 H :    0.020730
  15 H :    0.030312
  16 S :    0.357742
  17 C :   -0.167139
  18 C :   -0.071203
  19 C :   -0.041969
  20 C :   -0.186936
  21 H :    0.032025
  22 C :   -0.039482
  23 H :    0.037723
  24 H :    0.035731
  25 C :   -0.044800
  26 H :    0.020404
  27 H :    0.030016
  28 C :   -0.076465
  29 H :    0.029038
  30 H :    0.020171
  31 H :    0.032971
  32 H :    0.042200
  33 H :    0.035314

  Mayer bond orders larger than 0.100000
B(  0-S ,  1-C ) :   1.1579 B(  0-S ,  4-C ) :   1.1497 B(  1-C ,  2-C ) :   1.6039
B(  1-C , 32-H ) :   0.9518 B(  2-C ,  3-C ) :   1.2393 B(  2-C ,  6-C ) :   1.0350
B(  3-C ,  4-C ) :   1.5827 B(  3-C ,  5-H ) :   0.9955 B(  4-C , 20-C ) :   1.0542
B(  6-C ,  7-H ) :   0.9406 B(  6-C ,  8-H ) :   0.9404 B(  6-C ,  9-C ) :   1.0409
B(  9-C , 10-H ) :   0.9579 B(  9-C , 11-H ) :   0.9549 B(  9-C , 12-C ) :   1.0977
B( 12-C , 13-H ) :   0.9717 B( 12-C , 14-H ) :   0.9757 B( 12-C , 15-H ) :   0.9690
B( 16-S , 17-C ) :   1.1420 B( 16-S , 20-C ) :   1.1158 B( 17-C , 18-C ) :   1.6188
B( 17-C , 20-C ) :   0.1029 B( 17-C , 33-H ) :   0.9647 B( 18-C , 19-C ) :   1.2383
B( 18-C , 21-H ) :   0.9810 B( 19-C , 20-C ) :   1.5903 B( 19-C , 22-C ) :   1.0387
B( 22-C , 23-H ) :   0.9353 B( 22-C , 24-H ) :   0.9398 B( 22-C , 25-C ) :   1.0644
B( 25-C , 26-H ) :   0.9575 B( 25-C , 27-H ) :   0.9568 B( 25-C , 28-C ) :   1.0730
B( 28-C , 29-H ) :   0.9693 B( 28-C , 30-H ) :   0.9755 B( 28-C , 31-H ) :   0.9725

Dispersion correction           -0.014780810
FINAL SINGLE POINT ENERGY     -1339.877647986992

DIPOLE MOMENT
-------------
                                X             Y             Z
Electronic contribution:    -26.51871      -7.34465      13.40399
Nuclear contribution   :     27.11353       7.69336     -13.63262
                        -----------------------------------------
Total Dipole Moment    :      0.59482       0.34871      -0.22863
                        -----------------------------------------
Magnitude (a.u.)       :      0.72641
Magnitude (Debye)      :      1.84640

Rotational constants in cm-1:     0.018809     0.008463     0.006801
Rotational constants in MHz :   563.867351   253.714534   203.875540

                             ****ORCA TERMINATED NORMALLY****
TOTAL RUN TIME: 0 days 0 hours 0 minutes 20 seconds 571 msec
