                         Program Version 4.2.1 -  RELEASE  -
|  1> ! wB97X-D3 SP def2-SVP
|  2> %pal
|  3> nprocs 24
|  4> end
|  5>
|  6> * xyz 0 1
|  7> S 	 -125.244 	 65.4645 	 -50.2263
|  8> C 	 -123.991 	 66.2838 	 -51.1886
|  9> C 	 -124.439 	 66.5373 	 -52.4559
| 10> C 	 -125.652 	 65.9255 	 -52.7178
| 11> C 	 -126.225 	 65.3104 	 -51.6497
| 12> H 	 -126.103 	 65.8961 	 -53.6926
| 13> C 	 -123.604 	 67.2868 	 -53.4796
| 14> H 	 -123.435 	 68.3137 	 -53.1336
| 15> H 	 -124.288 	 67.4598 	 -54.3094
| 16> C 	 -122.28 	 66.5202 	 -53.8698
| 17> H 	 -121.88 	 66.3486 	 -52.8403
| 18> H 	 -122.436 	 65.6377 	 -54.4755
| 19> C 	 -121.485 	 67.2976 	 -54.8715
| 20> H 	 -122.074 	 67.5629 	 -55.7539
| 21> H 	 -121.172 	 68.2268 	 -54.3708
| 22> H 	 -120.641 	 66.7576 	 -55.143
| 23> S 	 -127.422 	 62.761 	 -51.6283
| 24> C 	 -129.087 	 62.5866 	 -52.0785
| 25> C 	 -129.648 	 63.8118 	 -52.1685
| 26> C 	 -128.755 	 64.9129 	 -51.9761
| 27> C 	 -127.47 	 64.528 	 -51.6577
| 28> H 	 -130.67 	 64.0005 	 -52.4692
| 29> C 	 -129.229 	 66.3285 	 -52.1658
| 30> H 	 -130.278 	 66.531 	 -52.013
| 31> H 	 -129.097 	 66.538 	 -53.1426
| 32> C 	 -128.696 	 67.4468 	 -51.2307
| 33> H 	 -127.616 	 67.4877 	 -51.2405
| 34> H 	 -129.143 	 67.2212 	 -50.2588
| 35> C 	 -129.224 	 68.7647 	 -51.7101
| 36> H 	 -128.659 	 69.0991 	 -52.6444
| 37> H 	 -128.945 	 69.5412 	 -50.9573
| 38> H 	 -130.314 	 68.8313 	 -51.8774
| 39> H 	 -123.021 	 66.6087 	 -50.856
| 40> H 	 -129.564 	 61.6813 	 -52.3567
| 41> *
| 42>
| 43>                          ****END OF INPUT****

CARTESIAN COORDINATES (ANGSTROEM)
---------------------------------
  S    -125.244000   65.464500  -50.226300
  C    -123.991000   66.283800  -51.188600
  C    -124.439000   66.537300  -52.455900
  C    -125.652000   65.925500  -52.717800
  C    -126.225000   65.310400  -51.649700
  H    -126.103000   65.896100  -53.692600
  C    -123.604000   67.286800  -53.479600
  H    -123.435000   68.313700  -53.133600
  H    -124.288000   67.459800  -54.309400
  C    -122.280000   66.520200  -53.869800
  H    -121.880000   66.348600  -52.840300
  H    -122.436000   65.637700  -54.475500
  C    -121.485000   67.297600  -54.871500
  H    -122.074000   67.562900  -55.753900
  H    -121.172000   68.226800  -54.370800
  H    -120.641000   66.757600  -55.143000
  S    -127.422000   62.761000  -51.628300
  C    -129.087000   62.586600  -52.078500
  C    -129.648000   63.811800  -52.168500
  C    -128.755000   64.912900  -51.976100
  C    -127.470000   64.528000  -51.657700
  H    -130.670000   64.000500  -52.469200
  C    -129.229000   66.328500  -52.165800
  H    -130.278000   66.531000  -52.013000
  H    -129.097000   66.538000  -53.142600
  C    -128.696000   67.446800  -51.230700
  H    -127.616000   67.487700  -51.240500
  H    -129.143000   67.221200  -50.258800
  C    -129.224000   68.764700  -51.710100
  H    -128.659000   69.099100  -52.644400
  H    -128.945000   69.541200  -50.957300
  H    -130.314000   68.831300  -51.877400
  H    -123.021000   66.608700  -50.856000
  H    -129.564000   61.681300  -52.356700

 Total Charge           Charge          ....    0
 Multiplicity           Mult            ....    1
 Number of Electrons    NEL             ....  134
 Basis Dimension        Dim             ....  322

ORBITAL ENERGIES
----------------

  NO   OCC          E(Eh)            E(eV)
   0   2.0000     -88.967286     -2420.9229
   1   2.0000     -88.959955     -2420.7234
   2   2.0000     -10.326257      -280.9918
   3   2.0000     -10.324118      -280.9335
   4   2.0000     -10.313291      -280.6389
   5   2.0000     -10.311515      -280.5906
   6   2.0000     -10.299425      -280.2616
   7   2.0000     -10.293843      -280.1097
   8   2.0000     -10.292961      -280.0857
   9   2.0000     -10.291240      -280.0389
  10   2.0000     -10.287432      -279.9353
  11   2.0000     -10.286623      -279.9133
  12   2.0000     -10.281615      -279.7770
  13   2.0000     -10.278529      -279.6930
  14   2.0000     -10.276818      -279.6464
  15   2.0000     -10.273539      -279.5572
  16   2.0000      -8.081593      -219.9113
  17   2.0000      -8.075005      -219.7321
  18   2.0000      -6.040060      -164.3584
  19   2.0000      -6.036156      -164.2522
  20   2.0000      -6.033570      -164.1818
  21   2.0000      -6.032422      -164.1505
  22   2.0000      -6.029414      -164.0687
  23   2.0000      -6.025722      -163.9682
  24   2.0000      -1.009602       -27.4727
  25   2.0000      -0.989056       -26.9136
  26   2.0000      -0.914414       -24.8825
  27   2.0000      -0.912168       -24.8214
  28   2.0000      -0.872290       -23.7362
  29   2.0000      -0.854316       -23.2471
  30   2.0000      -0.848318       -23.0839
  31   2.0000      -0.817984       -22.2585
  32   2.0000      -0.781944       -21.2778
  33   2.0000      -0.770491       -20.9661
  34   2.0000      -0.709106       -19.2957
  35   2.0000      -0.700072       -19.0499
  36   2.0000      -0.687967       -18.7205
  37   2.0000      -0.660649       -17.9772
  38   2.0000      -0.641286       -17.4503
  39   2.0000      -0.621908       -16.9230
  40   2.0000      -0.601495       -16.3675
  41   2.0000      -0.578106       -15.7311
  42   2.0000      -0.575601       -15.6629
  43   2.0000      -0.565862       -15.3979
  44   2.0000      -0.533821       -14.5260
  45   2.0000      -0.523087       -14.2339
  46   2.0000      -0.516211       -14.0468
  47   2.0000      -0.512902       -13.9568
  48   2.0000      -0.507801       -13.8180
  49   2.0000      -0.497054       -13.5255
  50   2.0000      -0.495075       -13.4717
  51   2.0000      -0.483554       -13.1582
  52   2.0000      -0.472222       -12.8498
  53   2.0000      -0.464760       -12.6468
  54   2.0000      -0.461472       -12.5573
  55   2.0000      -0.453180       -12.3316
  56   2.0000      -0.444689       -12.1006
  57   2.0000      -0.432024       -11.7560
  58   2.0000      -0.425455       -11.5772
  59   2.0000      -0.423410       -11.5216
  60   2.0000      -0.416734       -11.3399
  61   2.0000      -0.412445       -11.2232
  62   2.0000      -0.407900       -11.0995
  63   2.0000      -0.340198        -9.2572
  64   2.0000      -0.332492        -9.0476
  65   2.0000      -0.324286        -8.8243
  66   2.0000      -0.304054        -8.2737
  67   0.0000       0.039131         1.0648
  68   0.0000       0.061659         1.6778
  69   0.0000       0.113957         3.1009
  70   0.0000       0.129893         3.5346
  71   0.0000       0.139915         3.8073

MULLIKEN ATOMIC CHARGES
-----------------------
   0 S :    0.121823
   1 C :   -0.131730
   2 C :   -0.078328
   3 C :    0.043912
   4 C :   -0.189258
   5 H :    0.003113
   6 C :    0.056722
   7 H :    0.034102
   8 H :    0.002900
   9 C :   -0.081932
  10 H :    0.036649
  11 H :    0.035295
  12 C :   -0.002061
  13 H :    0.034315
  14 H :    0.018065
  15 H :    0.024238
  16 S :    0.098130
  17 C :   -0.070279
  18 C :   -0.020258
  19 C :   -0.015310
  20 C :   -0.142747
  21 H :    0.011071
  22 C :    0.070598
  23 H :    0.006994
  24 H :   -0.001224
  25 C :   -0.055423
  26 H :    0.047018
  27 H :    0.034763
  28 C :   -0.088493
  29 H :    0.035736
  30 H :    0.037536
  31 H :    0.034802
  32 H :    0.039797
  33 H :    0.049465
Sum of atomic charges:   -0.0000000

LOEWDIN ATOMIC CHARGES
----------------------
   0 S :    0.406456
   1 C :   -0.186403
   2 C :   -0.068398
   3 C :   -0.061363
   4 C :   -0.196507
   5 H :    0.031803
   6 C :   -0.032707
   7 H :    0.032399
   8 H :    0.023104
   9 C :   -0.035797
  10 H :    0.029057
  11 H :    0.029375
  12 C :   -0.058510
  13 H :    0.029701
  14 H :    0.023090
  15 H :    0.017157
  16 S :    0.402239
  17 C :   -0.177834
  18 C :   -0.075294
  19 C :   -0.049531
  20 C :   -0.202608
  21 H :    0.029279
  22 C :   -0.031175
  23 H :    0.030711
  24 H :    0.014932
  25 C :   -0.034661
  26 H :    0.023680
  27 H :    0.026858
  28 C :   -0.073956
  29 H :    0.030855
  30 H :    0.030267
  31 H :    0.022836
  32 H :    0.022652
  33 H :    0.028291

  Mayer bond orders larger than 0.100000
B(  0-S ,  1-C ) :   1.1362 B(  0-S ,  4-C ) :   1.1584 B(  1-C ,  2-C ) :   1.6018
B(  1-C , 32-H ) :   0.9682 B(  2-C ,  3-C ) :   1.2684 B(  2-C ,  6-C ) :   1.0142
B(  3-C ,  4-C ) :   1.5776 B(  3-C ,  5-H ) :   1.0006 B(  4-C , 20-C ) :   1.0002
B(  6-C ,  7-H ) :   0.9397 B(  6-C ,  8-H ) :   0.9364 B(  6-C ,  9-C ) :   1.0485
B(  9-C , 10-H ) :   0.9588 B(  9-C , 11-H ) :   0.9587 B(  9-C , 12-C ) :   1.0811
B( 12-C , 13-H ) :   0.9709 B( 12-C , 14-H ) :   0.9718 B( 12-C , 15-H ) :   0.9744
B( 16-S , 17-C ) :   1.1630 B( 16-S , 20-C ) :   1.1294 B( 17-C , 18-C ) :   1.5882
B( 17-C , 33-H ) :   0.9730 B( 18-C , 19-C ) :   1.2662 B( 18-C , 21-H ) :   0.9914
B( 19-C , 20-C ) :   1.6051 B( 19-C , 22-C ) :   1.0233 B( 22-C , 23-H ) :   0.9447
B( 22-C , 24-H ) :   0.9245 B( 22-C , 25-C ) :   1.0563 B( 25-C , 26-H ) :   0.9469
B( 25-C , 27-H ) :   0.9591 B( 25-C , 28-C ) :   1.0978 B( 28-C , 29-H ) :   0.9726
B( 28-C , 30-H ) :   0.9708 B( 28-C , 31-H ) :   0.9708

Dispersion correction           -0.014342854
FINAL SINGLE POINT ENERGY     -1339.867212006505

DIPOLE MOMENT
-------------
                                X             Y             Z
Electronic contribution:     -5.00054     -21.87162      13.36633
Nuclear contribution   :      4.96096      22.31575     -13.99294
                        -----------------------------------------
Total Dipole Moment    :     -0.03958       0.44413      -0.62661
                        -----------------------------------------
Magnitude (a.u.)       :      0.76906
Magnitude (Debye)      :      1.95480

Rotational constants in cm-1:     0.018924     0.008142     0.006916
Rotational constants in MHz :   567.326170   244.096124   207.342691

                             ****ORCA TERMINATED NORMALLY****
TOTAL RUN TIME: 0 days 0 hours 0 minutes 21 seconds 908 msec
