                         Program Version 4.2.1 -  RELEASE  -
|  1> ! wB97X-D3 SP def2-SVP
|  2> %pal
|  3> nprocs 24
|  4> end
|  5>
|  6> * xyz 0 1
|  7> S 	 -59.8099 	 -0.307799 	 -30.3792
|  8> C 	 -61.1252 	 0.7744 	 -30.4614
|  9> C 	 -60.7509 	 2.05992 	 -30.7089
| 10> C 	 -59.395 	 2.14144 	 -31.1152
| 11> C 	 -58.7058 	 0.967475 	 -30.8863
| 12> H 	 -58.8871 	 3.09095 	 -31.4705
| 13> C 	 -61.7538 	 3.14901 	 -30.984
| 14> H 	 -62.5529 	 2.64497 	 -31.581
| 15> H 	 -61.403 	 3.96385 	 -31.5616
| 16> C 	 -62.5151 	 3.64546 	 -29.7928
| 17> H 	 -63.1756 	 2.93216 	 -29.4635
| 18> H 	 -61.832 	 3.79923 	 -28.9838
| 19> C 	 -63.1865 	 4.9807 	 -30.0303
| 20> H 	 -62.5473 	 5.75225 	 -30.5841
| 21> H 	 -64.0362 	 4.91569 	 -30.7312
| 22> H 	 -63.6642 	 5.50236 	 -29.1319
| 23> S 	 -56.1936 	 1.1271 	 -30.017
| 24> C 	 -54.8777 	 0.915381 	 -31.1026
| 25> C 	 -55.3289 	 0.454391 	 -32.2959
| 26> C 	 -56.7534 	 0.363969 	 -32.3832
| 27> C 	 -57.3425 	 0.729233 	 -31.2645
| 28> H 	 -54.58 	 0.2726 	 -33.0425
| 29> C 	 -57.4361 	 -0.145671 	 -33.6054
| 30> H 	 -58.4878 	 -0.550559 	 -33.3987
| 31> H 	 -56.9698 	 -1.01396 	 -34.0655
| 32> C 	 -57.5238 	 0.98012 	 -34.6276
| 33> H 	 -56.5325 	 1.22761 	 -34.9308
| 34> H 	 -57.9416 	 1.87772 	 -34.1312
| 35> C 	 -58.4486 	 0.66769 	 -35.8344
| 36> H 	 -59.4917 	 0.598282 	 -35.5194
| 37> H 	 -58.0967 	 -0.240042 	 -36.3606
| 38> H 	 -58.4443 	 1.46171 	 -36.5836
| 39> H 	 -62.1288 	 0.469392 	 -30.3359
| 40> H 	 -53.812 	 1.24277 	 -30.8437
| 41> *
| 42>
| 43>                          ****END OF INPUT****

CARTESIAN COORDINATES (ANGSTROEM)
---------------------------------
  S    -59.809900   -0.307799  -30.379200
  C    -61.125200    0.774400  -30.461400
  C    -60.750900    2.059920  -30.708900
  C    -59.395000    2.141440  -31.115200
  C    -58.705800    0.967475  -30.886300
  H    -58.887100    3.090950  -31.470500
  C    -61.753800    3.149010  -30.984000
  H    -62.552900    2.644970  -31.581000
  H    -61.403000    3.963850  -31.561600
  C    -62.515100    3.645460  -29.792800
  H    -63.175600    2.932160  -29.463500
  H    -61.832000    3.799230  -28.983800
  C    -63.186500    4.980700  -30.030300
  H    -62.547300    5.752250  -30.584100
  H    -64.036200    4.915690  -30.731200
  H    -63.664200    5.502360  -29.131900
  S    -56.193600    1.127100  -30.017000
  C    -54.877700    0.915381  -31.102600
  C    -55.328900    0.454391  -32.295900
  C    -56.753400    0.363969  -32.383200
  C    -57.342500    0.729233  -31.264500
  H    -54.580000    0.272600  -33.042500
  C    -57.436100   -0.145671  -33.605400
  H    -58.487800   -0.550559  -33.398700
  H    -56.969800   -1.013960  -34.065500
  C    -57.523800    0.980120  -34.627600
  H    -56.532500    1.227610  -34.930800
  H    -57.941600    1.877720  -34.131200
  C    -58.448600    0.667690  -35.834400
  H    -59.491700    0.598282  -35.519400
  H    -58.096700   -0.240042  -36.360600
  H    -58.444300    1.461710  -36.583600
  H    -62.128800    0.469392  -30.335900
  H    -53.812000    1.242770  -30.843700

 Total Charge           Charge          ....    0
 Multiplicity           Mult            ....    1
 Number of Electrons    NEL             ....  134
 Basis Dimension        Dim             ....  322

ORBITAL ENERGIES
----------------

  NO   OCC          E(Eh)            E(eV)
   0   2.0000     -88.967604     -2420.9316
   1   2.0000     -88.954848     -2420.5845
   2   2.0000     -10.324146      -280.9343
   3   2.0000     -10.316113      -280.7157
   4   2.0000     -10.312349      -280.6133
   5   2.0000     -10.307480      -280.4808
   6   2.0000     -10.298949      -280.2486
   7   2.0000     -10.295383      -280.1516
   8   2.0000     -10.294729      -280.1338
   9   2.0000     -10.289769      -279.9988
  10   2.0000     -10.287779      -279.9447
  11   2.0000     -10.287241      -279.9300
  12   2.0000     -10.286385      -279.9068
  13   2.0000     -10.281945      -279.7859
  14   2.0000     -10.278453      -279.6909
  15   2.0000     -10.274064      -279.5715
  16   2.0000      -8.082832      -219.9450
  17   2.0000      -8.071257      -219.6301
  18   2.0000      -6.041193      -164.3892
  19   2.0000      -6.037221      -164.2811
  20   2.0000      -6.033777      -164.1874
  21   2.0000      -6.029731      -164.0773
  22   2.0000      -6.025538      -163.9632
  23   2.0000      -6.021924      -163.8649
  24   2.0000      -1.017084       -27.6763
  25   2.0000      -0.994921       -27.0732
  26   2.0000      -0.920377       -25.0447
  27   2.0000      -0.910279       -24.7699
  28   2.0000      -0.875689       -23.8287
  29   2.0000      -0.852977       -23.2107
  30   2.0000      -0.847544       -23.0628
  31   2.0000      -0.815251       -22.1841
  32   2.0000      -0.780239       -21.2314
  33   2.0000      -0.770449       -20.9650
  34   2.0000      -0.707539       -19.2531
  35   2.0000      -0.703002       -19.1297
  36   2.0000      -0.692432       -18.8420
  37   2.0000      -0.662170       -18.0186
  38   2.0000      -0.647325       -17.6146
  39   2.0000      -0.618596       -16.8328
  40   2.0000      -0.600243       -16.3334
  41   2.0000      -0.578511       -15.7421
  42   2.0000      -0.566694       -15.4205
  43   2.0000      -0.559061       -15.2128
  44   2.0000      -0.528304       -14.3759
  45   2.0000      -0.520595       -14.1661
  46   2.0000      -0.516677       -14.0595
  47   2.0000      -0.511325       -13.9138
  48   2.0000      -0.507655       -13.8140
  49   2.0000      -0.499991       -13.6055
  50   2.0000      -0.486724       -13.2444
  51   2.0000      -0.481665       -13.1068
  52   2.0000      -0.473979       -12.8976
  53   2.0000      -0.466038       -12.6815
  54   2.0000      -0.456910       -12.4332
  55   2.0000      -0.450634       -12.2624
  56   2.0000      -0.440535       -11.9876
  57   2.0000      -0.437822       -11.9138
  58   2.0000      -0.430358       -11.7106
  59   2.0000      -0.428511       -11.6604
  60   2.0000      -0.421432       -11.4678
  61   2.0000      -0.416145       -11.3239
  62   2.0000      -0.409497       -11.1430
  63   2.0000      -0.338888        -9.2216
  64   2.0000      -0.326630        -8.8880
  65   2.0000      -0.322601        -8.7784
  66   2.0000      -0.313244        -8.5238
  67   0.0000       0.045175         1.2293
  68   0.0000       0.064358         1.7513
  69   0.0000       0.115235         3.1357
  70   0.0000       0.121845         3.3156
  71   0.0000       0.130128         3.5410

MULLIKEN ATOMIC CHARGES
-----------------------
   0 S :    0.130740
   1 C :   -0.114755
   2 C :   -0.040325
   3 C :    0.012712
   4 C :   -0.167192
   5 H :    0.043982
   6 C :    0.048101
   7 H :    0.032520
   8 H :    0.007639
   9 C :   -0.005280
  10 H :    0.008171
  11 H :    0.021671
  12 C :   -0.106588
  13 H :    0.035698
  14 H :    0.019662
  15 H :    0.048706
  16 S :    0.098500
  17 C :   -0.117951
  18 C :   -0.042433
  19 C :    0.031609
  20 C :   -0.205181
  21 H :    0.011226
  22 C :    0.061243
  23 H :    0.026805
  24 H :    0.022689
  25 C :   -0.082638
  26 H :    0.017282
  27 H :    0.028418
  28 C :   -0.039811
  29 H :    0.037929
  30 H :    0.030718
  31 H :    0.028834
  32 H :    0.034093
  33 H :    0.083206
Sum of atomic charges:   -0.0000000

LOEWDIN ATOMIC CHARGES
----------------------
   0 S :    0.425957
   1 C :   -0.195284
   2 C :   -0.069670
   3 C :   -0.054795
   4 C :   -0.204312
   5 H :    0.045459
   6 C :   -0.027286
   7 H :    0.039234
   8 H :    0.021335
   9 C :   -0.038057
  10 H :    0.013418
  11 H :    0.022964
  12 C :   -0.080082
  13 H :    0.030188
  14 H :    0.020713
  15 H :    0.034723
  16 S :    0.409535
  17 C :   -0.198086
  18 C :   -0.076785
  19 C :   -0.055348
  20 C :   -0.201732
  21 H :    0.029020
  22 C :   -0.033205
  23 H :    0.033541
  24 H :    0.028731
  25 C :   -0.037091
  26 H :    0.016096
  27 H :    0.026465
  28 C :   -0.067732
  29 H :    0.026908
  30 H :    0.025324
  31 H :    0.024646
  32 H :    0.019093
  33 H :    0.046113

  Mayer bond orders larger than 0.100000
B(  0-S ,  1-C ) :   1.1641 B(  0-S ,  4-C ) :   1.1461 B(  1-C ,  2-C ) :   1.5905
B(  1-C , 32-H ) :   0.9712 B(  2-C ,  3-C ) :   1.2512 B(  2-C ,  6-C ) :   1.0255
B(  3-C ,  4-C ) :   1.5934 B(  3-C ,  5-H ) :   0.9816 B(  4-C , 20-C ) :   0.9939
B(  6-C ,  7-H ) :   0.9429 B(  6-C ,  8-H ) :   0.9536 B(  6-C ,  9-C ) :   1.0479
B(  9-C , 10-H ) :   0.9527 B(  9-C , 11-H ) :   0.9572 B(  9-C , 12-C ) :   1.0820
B( 12-C , 13-H ) :   0.9740 B( 12-C , 14-H ) :   0.9716 B( 12-C , 15-H ) :   0.9742
B( 16-S , 17-C ) :   1.1560 B( 16-S , 20-C ) :   1.1390 B( 17-C , 18-C ) :   1.6344
B( 17-C , 33-H ) :   0.9572 B( 18-C , 19-C ) :   1.1826 B( 18-C , 21-H ) :   0.9984
B( 19-C , 20-C ) :   1.6831 B( 19-C , 22-C ) :   1.0453 B( 22-C , 23-H ) :   0.9358
B( 22-C , 24-H ) :   0.9332 B( 22-C , 25-C ) :   1.0545 B( 25-C , 26-H ) :   0.9578
B( 25-C , 27-H ) :   0.9541 B( 25-C , 28-C ) :   1.0847 B( 28-C , 29-H ) :   0.9755
B( 28-C , 30-H ) :   0.9726 B( 28-C , 31-H ) :   0.9746

Dispersion correction           -0.014210826
FINAL SINGLE POINT ENERGY     -1339.876087211407

DIPOLE MOMENT
-------------
                                X             Y             Z
Electronic contribution:     15.79815     -13.46202      15.55657
Nuclear contribution   :    -16.00406      13.73852     -16.06482
                        -----------------------------------------
Total Dipole Moment    :     -0.20591       0.27651      -0.50825
                        -----------------------------------------
Magnitude (a.u.)       :      0.61414
Magnitude (Debye)      :      1.56103

Rotational constants in cm-1:     0.019198     0.007904     0.006803
Rotational constants in MHz :   575.552283   236.962527   203.942479

                             ****ORCA TERMINATED NORMALLY****
TOTAL RUN TIME: 0 days 0 hours 0 minutes 21 seconds 514 msec
