                         Program Version 4.2.1 -  RELEASE  -
|  1> ! wB97X-D3 SP def2-SVP
|  2> %pal
|  3> nprocs 24
|  4> end
|  5>
|  6> * xyz 0 1
|  7> S 	 -68.4943 	 7.4085 	 -78.4414
|  8> C 	 -68.3524 	 7.37054 	 -80.1722
|  9> C 	 -69.3748 	 6.68103 	 -80.7832
| 10> C 	 -70.258 	 6.14104 	 -79.8482
| 11> C 	 -69.8792 	 6.35265 	 -78.5658
| 12> H 	 -71.0338 	 5.43668 	 -80.1639
| 13> C 	 -69.6332 	 6.59321 	 -82.274
| 14> H 	 -69.4933 	 7.54677 	 -82.6198
| 15> H 	 -70.7362 	 6.49784 	 -82.3311
| 16> C 	 -69.0141 	 5.39705 	 -83.0204
| 17> H 	 -69.1799 	 5.48406 	 -84.1083
| 18> H 	 -67.9422 	 5.41396 	 -82.9958
| 19> C 	 -69.5208 	 3.93394 	 -82.7396
| 20> H 	 -68.997 	 3.66388 	 -81.8424
| 21> H 	 -70.496 	 3.90808 	 -82.4348
| 22> H 	 -69.35 	 3.23334 	 -83.5577
| 23> S 	 -71.0754 	 6.87744 	 -76.163
| 24> C 	 -71.5807 	 5.60372 	 -75.074
| 25> C 	 -71.5481 	 4.36775 	 -75.7192
| 26> C 	 -70.9584 	 4.52219 	 -77.059
| 27> C 	 -70.5071 	 5.78643 	 -77.3908
| 28> H 	 -72.035 	 3.49234 	 -75.3107
| 29> C 	 -70.9424 	 3.32823 	 -77.9721
| 30> H 	 -70.3288 	 3.53697 	 -78.8224
| 31> H 	 -71.9549 	 3.19613 	 -78.3577
| 32> C 	 -70.2571 	 2.14914 	 -77.3779
| 33> H 	 -70.9269 	 1.64905 	 -76.665
| 34> H 	 -69.2465 	 2.3731 	 -76.8932
| 35> C 	 -70.0547 	 1.00943 	 -78.4039
| 36> H 	 -69.3859 	 1.39571 	 -79.2364
| 37> H 	 -71.0922 	 0.82645 	 -78.7115
| 38> H 	 -69.721 	 0.110235 	 -77.9349
| 39> H 	 -67.5861 	 7.85229 	 -80.7248
| 40> H 	 -72.0777 	 5.72328 	 -74.0826
| 41> *
| 42>
| 43>                          ****END OF INPUT****

CARTESIAN COORDINATES (ANGSTROEM)
---------------------------------
  S    -68.494300    7.408500  -78.441400
  C    -68.352400    7.370540  -80.172200
  C    -69.374800    6.681030  -80.783200
  C    -70.258000    6.141040  -79.848200
  C    -69.879200    6.352650  -78.565800
  H    -71.033800    5.436680  -80.163900
  C    -69.633200    6.593210  -82.274000
  H    -69.493300    7.546770  -82.619800
  H    -70.736200    6.497840  -82.331100
  C    -69.014100    5.397050  -83.020400
  H    -69.179900    5.484060  -84.108300
  H    -67.942200    5.413960  -82.995800
  C    -69.520800    3.933940  -82.739600
  H    -68.997000    3.663880  -81.842400
  H    -70.496000    3.908080  -82.434800
  H    -69.350000    3.233340  -83.557700
  S    -71.075400    6.877440  -76.163000
  C    -71.580700    5.603720  -75.074000
  C    -71.548100    4.367750  -75.719200
  C    -70.958400    4.522190  -77.059000
  C    -70.507100    5.786430  -77.390800
  H    -72.035000    3.492340  -75.310700
  C    -70.942400    3.328230  -77.972100
  H    -70.328800    3.536970  -78.822400
  H    -71.954900    3.196130  -78.357700
  C    -70.257100    2.149140  -77.377900
  H    -70.926900    1.649050  -76.665000
  H    -69.246500    2.373100  -76.893200
  C    -70.054700    1.009430  -78.403900
  H    -69.385900    1.395710  -79.236400
  H    -71.092200    0.826450  -78.711500
  H    -69.721000    0.110235  -77.934900
  H    -67.586100    7.852290  -80.724800
  H    -72.077700    5.723280  -74.082600

 Total Charge           Charge          ....    0
 Multiplicity           Mult            ....    1
 Number of Electrons    NEL             ....  134
 Basis Dimension        Dim             ....  322

ORBITAL ENERGIES
----------------

  NO   OCC          E(Eh)            E(eV)
   0   2.0000     -88.970063     -2420.9985
   1   2.0000     -88.960072     -2420.7266
   2   2.0000     -10.326214      -280.9906
   3   2.0000     -10.322122      -280.8792
   4   2.0000     -10.320992      -280.8485
   5   2.0000     -10.309747      -280.5425
   6   2.0000     -10.302427      -280.3433
   7   2.0000     -10.296773      -280.1894
   8   2.0000     -10.294059      -280.1156
   9   2.0000     -10.291237      -280.0388
  10   2.0000     -10.290734      -280.0251
  11   2.0000     -10.288804      -279.9726
  12   2.0000     -10.285707      -279.8883
  13   2.0000     -10.282933      -279.8128
  14   2.0000     -10.279122      -279.7091
  15   2.0000     -10.274602      -279.5861
  16   2.0000      -8.085027      -220.0048
  17   2.0000      -8.075224      -219.7380
  18   2.0000      -6.043418      -164.4498
  19   2.0000      -6.039584      -164.3454
  20   2.0000      -6.035815      -164.2429
  21   2.0000      -6.033872      -164.1900
  22   2.0000      -6.029657      -164.0753
  23   2.0000      -6.025811      -163.9707
  24   2.0000      -1.012333       -27.5470
  25   2.0000      -0.985957       -26.8293
  26   2.0000      -0.915721       -24.9180
  27   2.0000      -0.910825       -24.7848
  28   2.0000      -0.870283       -23.6816
  29   2.0000      -0.855592       -23.2818
  30   2.0000      -0.843509       -22.9531
  31   2.0000      -0.819075       -22.2882
  32   2.0000      -0.787816       -21.4376
  33   2.0000      -0.769233       -20.9319
  34   2.0000      -0.712501       -19.3881
  35   2.0000      -0.702203       -19.1079
  36   2.0000      -0.689557       -18.7638
  37   2.0000      -0.655779       -17.8446
  38   2.0000      -0.640740       -17.4354
  39   2.0000      -0.624740       -17.0000
  40   2.0000      -0.594594       -16.1797
  41   2.0000      -0.574737       -15.6394
  42   2.0000      -0.570238       -15.5170
  43   2.0000      -0.557759       -15.1774
  44   2.0000      -0.545869       -14.8539
  45   2.0000      -0.524827       -14.2813
  46   2.0000      -0.518958       -14.1216
  47   2.0000      -0.508908       -13.8481
  48   2.0000      -0.504131       -13.7181
  49   2.0000      -0.500843       -13.6286
  50   2.0000      -0.491737       -13.3808
  51   2.0000      -0.487042       -13.2531
  52   2.0000      -0.472465       -12.8564
  53   2.0000      -0.463824       -12.6213
  54   2.0000      -0.458449       -12.4750
  55   2.0000      -0.453307       -12.3351
  56   2.0000      -0.449698       -12.2369
  57   2.0000      -0.444466       -12.0945
  58   2.0000      -0.429940       -11.6993
  59   2.0000      -0.424914       -11.5625
  60   2.0000      -0.411633       -11.2011
  61   2.0000      -0.409160       -11.1338
  62   2.0000      -0.405176       -11.0254
  63   2.0000      -0.347632        -9.4596
  64   2.0000      -0.337424        -9.1818
  65   2.0000      -0.321933        -8.7602
  66   2.0000      -0.294091        -8.0026
  67   0.0000       0.032647         0.8884
  68   0.0000       0.070116         1.9080
  69   0.0000       0.106724         2.9041
  70   0.0000       0.118256         3.2179
  71   0.0000       0.133544         3.6339

MULLIKEN ATOMIC CHARGES
-----------------------
   0 S :    0.134609
   1 C :   -0.108914
   2 C :   -0.118515
   3 C :    0.032554
   4 C :   -0.156060
   5 H :    0.017373
   6 C :    0.118804
   7 H :    0.007598
   8 H :    0.018156
   9 C :   -0.074823
  10 H :    0.024917
  11 H :    0.022240
  12 C :   -0.022881
  13 H :    0.030542
  14 H :    0.003585
  15 H :    0.047837
  16 S :    0.092324
  17 C :   -0.102389
  18 C :   -0.031948
  19 C :   -0.075346
  20 C :   -0.125611
  21 H :    0.027853
  22 C :    0.089058
  23 H :    0.001544
  24 H :    0.039040
  25 C :   -0.127725
  26 H :    0.021602
  27 H :    0.053678
  28 C :   -0.040138
  29 H :    0.047308
  30 H :    0.019025
  31 H :    0.032553
  32 H :    0.027517
  33 H :    0.074631
Sum of atomic charges:    0.0000000

LOEWDIN ATOMIC CHARGES
----------------------
   0 S :    0.421783
   1 C :   -0.192730
   2 C :   -0.067103
   3 C :   -0.062403
   4 C :   -0.195789
   5 H :    0.034779
   6 C :   -0.023619
   7 H :    0.022356
   8 H :    0.036584
   9 C :   -0.038929
  10 H :    0.025758
  11 H :    0.019361
  12 C :   -0.056077
  13 H :    0.025746
  14 H :    0.009498
  15 H :    0.032991
  16 S :    0.403197
  17 C :   -0.191393
  18 C :   -0.072074
  19 C :   -0.052810
  20 C :   -0.207443
  21 H :    0.032673
  22 C :   -0.040404
  23 H :    0.024001
  24 H :    0.035320
  25 C :   -0.047247
  26 H :    0.018883
  27 H :    0.034770
  28 C :   -0.064276
  29 H :    0.029385
  30 H :    0.024095
  31 H :    0.020901
  32 H :    0.019720
  33 H :    0.040496

  Mayer bond orders larger than 0.100000
B(  0-S ,  1-C ) :   1.1426 B(  0-S ,  4-C ) :   1.1575 B(  1-C ,  2-C ) :   1.6130
B(  1-C , 32-H ) :   0.9713 B(  2-C ,  3-C ) :   1.2677 B(  2-C ,  6-C ) :   0.9983
B(  3-C ,  4-C ) :   1.5657 B(  3-C ,  5-H ) :   0.9893 B(  4-C , 20-C ) :   1.0249
B(  6-C ,  7-H ) :   0.9383 B(  6-C ,  8-H ) :   0.9422 B(  6-C ,  9-C ) :   1.0619
B(  9-C , 10-H ) :   0.9594 B(  9-C , 11-H ) :   0.9619 B(  9-C , 12-C ) :   1.0649
B( 12-C , 13-H ) :   0.9758 B( 12-C , 14-H ) :   0.9747 B( 12-C , 15-H ) :   0.9769
B( 16-S , 17-C ) :   1.1575 B( 16-S , 20-C ) :   1.1288 B( 17-C , 18-C ) :   1.6082
B( 17-C , 33-H ) :   0.9610 B( 18-C , 19-C ) :   1.2203 B( 18-C , 21-H ) :   0.9913
B( 19-C , 20-C ) :   1.6171 B( 19-C , 22-C ) :   1.0546 B( 22-C , 23-H ) :   0.9308
B( 22-C , 24-H ) :   0.9217 B( 22-C , 25-C ) :   1.0677 B( 25-C , 26-H ) :   0.9491
B( 25-C , 27-H ) :   0.9571 B( 25-C , 28-C ) :   1.0834 B( 28-C , 29-H ) :   0.9745
B( 28-C , 30-H ) :   0.9733 B( 28-C , 31-H ) :   0.9748

Dispersion correction           -0.014567143
FINAL SINGLE POINT ENERGY     -1339.860382901518

DIPOLE MOMENT
-------------
                                X             Y             Z
Electronic contribution:      0.56739      24.47496      19.46061
Nuclear contribution   :     -0.79948     -24.98423     -19.96762
                        -----------------------------------------
Total Dipole Moment    :     -0.23210      -0.50927      -0.50700
                        -----------------------------------------
Magnitude (a.u.)       :      0.75517
Magnitude (Debye)      :      1.91948

Rotational constants in cm-1:     0.016695     0.010123     0.006922
Rotational constants in MHz :   500.495449   303.486690   207.522290

                             ****ORCA TERMINATED NORMALLY****
TOTAL RUN TIME: 0 days 0 hours 0 minutes 22 seconds 267 msec
