                         Program Version 4.2.1 -  RELEASE  -
|  1> ! wB97X-D3 SP def2-SVP
|  2> %pal
|  3> nprocs 24
|  4> end
|  5>
|  6> * xyz 0 1
|  7> S 	 -69.053 	 1.00024 	 -71.4524
|  8> C 	 -68.1412 	 2.31547 	 -72.0205
|  9> C 	 -67.06 	 1.9272 	 -72.8443
| 10> C 	 -66.9834 	 0.516318 	 -72.8882
| 11> C 	 -67.901 	 -0.16564 	 -72.0413
| 12> H 	 -66.2507 	 0.0443248 	 -73.5074
| 13> C 	 -66.2253 	 2.90402 	 -73.6105
| 14> H 	 -66.7582 	 3.72358 	 -73.8522
| 15> H 	 -65.8446 	 2.50015 	 -74.4821
| 16> C 	 -64.9486 	 3.32655 	 -72.7549
| 17> H 	 -65.3685 	 3.90466 	 -71.9277
| 18> H 	 -64.3089 	 2.57681 	 -72.3473
| 19> C 	 -64.0575 	 4.29526 	 -73.6415
| 20> H 	 -63.2616 	 3.83133 	 -74.2792
| 21> H 	 -64.6576 	 4.92861 	 -74.306
| 22> H 	 -63.6371 	 4.98316 	 -73.0034
| 23> S 	 -69.4206 	 -2.51951 	 -71.8388
| 24> C 	 -68.7329 	 -3.75802 	 -70.897
| 25> C 	 -67.392 	 -3.63456 	 -70.7439
| 26> C 	 -66.935 	 -2.29758 	 -70.9378
| 27> C 	 -67.95 	 -1.56407 	 -71.594
| 28> H 	 -66.6781 	 -4.41052 	 -70.4758
| 29> C 	 -65.602 	 -1.77993 	 -70.6087
| 30> H 	 -65.3442 	 -2.10152 	 -69.5692
| 31> H 	 -65.6906 	 -0.709626 	 -70.4984
| 32> C 	 -64.5732 	 -2.12449 	 -71.6737
| 33> H 	 -65.0382 	 -2.01745 	 -72.6537
| 34> H 	 -64.2769 	 -3.18995 	 -71.5721
| 35> C 	 -63.2312 	 -1.44576 	 -71.4698
| 36> H 	 -62.8034 	 -1.46224 	 -72.4329
| 37> H 	 -62.584 	 -2.05425 	 -70.7983
| 38> H 	 -63.157 	 -0.413109 	 -71.1199
| 39> H 	 -68.3234 	 3.30176 	 -71.651
| 40> H 	 -69.1625 	 -4.71173 	 -70.7114
| 41> *
| 42>
| 43>                          ****END OF INPUT****

CARTESIAN COORDINATES (ANGSTROEM)
---------------------------------
  S    -69.053000    1.000240  -71.452400
  C    -68.141200    2.315470  -72.020500
  C    -67.060000    1.927200  -72.844300
  C    -66.983400    0.516318  -72.888200
  C    -67.901000   -0.165640  -72.041300
  H    -66.250700    0.044325  -73.507400
  C    -66.225300    2.904020  -73.610500
  H    -66.758200    3.723580  -73.852200
  H    -65.844600    2.500150  -74.482100
  C    -64.948600    3.326550  -72.754900
  H    -65.368500    3.904660  -71.927700
  H    -64.308900    2.576810  -72.347300
  C    -64.057500    4.295260  -73.641500
  H    -63.261600    3.831330  -74.279200
  H    -64.657600    4.928610  -74.306000
  H    -63.637100    4.983160  -73.003400
  S    -69.420600   -2.519510  -71.838800
  C    -68.732900   -3.758020  -70.897000
  C    -67.392000   -3.634560  -70.743900
  C    -66.935000   -2.297580  -70.937800
  C    -67.950000   -1.564070  -71.594000
  H    -66.678100   -4.410520  -70.475800
  C    -65.602000   -1.779930  -70.608700
  H    -65.344200   -2.101520  -69.569200
  H    -65.690600   -0.709626  -70.498400
  C    -64.573200   -2.124490  -71.673700
  H    -65.038200   -2.017450  -72.653700
  H    -64.276900   -3.189950  -71.572100
  C    -63.231200   -1.445760  -71.469800
  H    -62.803400   -1.462240  -72.432900
  H    -62.584000   -2.054250  -70.798300
  H    -63.157000   -0.413109  -71.119900
  H    -68.323400    3.301760  -71.651000
  H    -69.162500   -4.711730  -70.711400

 Total Charge           Charge          ....    0
 Multiplicity           Mult            ....    1
 Number of Electrons    NEL             ....  134
 Basis Dimension        Dim             ....  322

ORBITAL ENERGIES
----------------

  NO   OCC          E(Eh)            E(eV)
   0   2.0000     -88.964977     -2420.8601
   1   2.0000     -88.964387     -2420.8441
   2   2.0000     -10.328588      -281.0552
   3   2.0000     -10.324449      -280.9425
   4   2.0000     -10.308246      -280.5016
   5   2.0000     -10.305673      -280.4316
   6   2.0000     -10.298638      -280.2402
   7   2.0000     -10.296889      -280.1926
   8   2.0000     -10.295063      -280.1429
   9   2.0000     -10.291966      -280.0586
  10   2.0000     -10.287895      -279.9479
  11   2.0000     -10.286988      -279.9232
  12   2.0000     -10.284963      -279.8681
  13   2.0000     -10.282039      -279.7885
  14   2.0000     -10.277265      -279.6586
  15   2.0000     -10.275883      -279.6210
  16   2.0000      -8.080226      -219.8741
  17   2.0000      -8.080121      -219.8713
  18   2.0000      -6.038610      -164.3189
  19   2.0000      -6.038338      -164.3115
  20   2.0000      -6.034953      -164.2194
  21   2.0000      -6.034340      -164.2027
  22   2.0000      -6.031290      -164.1197
  23   2.0000      -6.030805      -164.1065
  24   2.0000      -1.006041       -27.3758
  25   2.0000      -0.987300       -26.8658
  26   2.0000      -0.916167       -24.9302
  27   2.0000      -0.909746       -24.7554
  28   2.0000      -0.862626       -23.4732
  29   2.0000      -0.855770       -23.2867
  30   2.0000      -0.847434       -23.0599
  31   2.0000      -0.812553       -22.1107
  32   2.0000      -0.786664       -21.4062
  33   2.0000      -0.768094       -20.9009
  34   2.0000      -0.709350       -19.3024
  35   2.0000      -0.701726       -19.0949
  36   2.0000      -0.694701       -18.9038
  37   2.0000      -0.657157       -17.8822
  38   2.0000      -0.642727       -17.4895
  39   2.0000      -0.623276       -16.9602
  40   2.0000      -0.599827       -16.3221
  41   2.0000      -0.571519       -15.5518
  42   2.0000      -0.567146       -15.4328
  43   2.0000      -0.557125       -15.1601
  44   2.0000      -0.532978       -14.5031
  45   2.0000      -0.522663       -14.2224
  46   2.0000      -0.518437       -14.1074
  47   2.0000      -0.509324       -13.8594
  48   2.0000      -0.505525       -13.7560
  49   2.0000      -0.496599       -13.5131
  50   2.0000      -0.492490       -13.4013
  51   2.0000      -0.480730       -13.0813
  52   2.0000      -0.471264       -12.8238
  53   2.0000      -0.463565       -12.6142
  54   2.0000      -0.459049       -12.4913
  55   2.0000      -0.450820       -12.2674
  56   2.0000      -0.447699       -12.1825
  57   2.0000      -0.443539       -12.0693
  58   2.0000      -0.441433       -12.0120
  59   2.0000      -0.428613       -11.6631
  60   2.0000      -0.424746       -11.5579
  61   2.0000      -0.416230       -11.3262
  62   2.0000      -0.409536       -11.1440
  63   2.0000      -0.334378        -9.0989
  64   2.0000      -0.328551        -8.9403
  65   2.0000      -0.326308        -8.8793
  66   2.0000      -0.285226        -7.7614
  67   0.0000       0.031242         0.8501
  68   0.0000       0.064083         1.7438
  69   0.0000       0.108473         2.9517
  70   0.0000       0.126087         3.4310
  71   0.0000       0.128296         3.4911

MULLIKEN ATOMIC CHARGES
-----------------------
   0 S :    0.134239
   1 C :   -0.124950
   2 C :   -0.119350
   3 C :    0.053693
   4 C :   -0.174790
   5 H :   -0.004641
   6 C :    0.162623
   7 H :   -0.002611
   8 H :    0.002760
   9 C :   -0.102677
  10 H :    0.026905
  11 H :    0.036844
  12 C :   -0.035845
  13 H :    0.046931
  14 H :    0.017099
  15 H :    0.012611
  16 S :    0.121506
  17 C :   -0.058252
  18 C :   -0.036673
  19 C :   -0.065516
  20 C :   -0.172326
  21 H :    0.017877
  22 C :    0.089947
  23 H :    0.025790
  24 H :    0.026022
  25 C :   -0.094117
  26 H :    0.037463
  27 H :    0.029973
  28 C :   -0.024565
  29 H :    0.021549
  30 H :    0.033399
  31 H :    0.033120
  32 H :    0.043719
  33 H :    0.042244
Sum of atomic charges:   -0.0000000

LOEWDIN ATOMIC CHARGES
----------------------
   0 S :    0.444125
   1 C :   -0.213556
   2 C :   -0.061877
   3 C :   -0.057148
   4 C :   -0.207741
   5 H :    0.024130
   6 C :   -0.010454
   7 H :    0.016989
   8 H :    0.021550
   9 C :   -0.023944
  10 H :    0.022868
  11 H :    0.021149
  12 C :   -0.068807
  13 H :    0.030946
  14 H :    0.023489
  15 H :    0.013942
  16 S :    0.412738
  17 C :   -0.196991
  18 C :   -0.067792
  19 C :   -0.047973
  20 C :   -0.204060
  21 H :    0.031026
  22 C :   -0.038713
  23 H :    0.034902
  24 H :    0.031370
  25 C :   -0.038512
  26 H :    0.023068
  27 H :    0.031515
  28 C :   -0.066562
  29 H :    0.023981
  30 H :    0.029949
  31 H :    0.023053
  32 H :    0.020316
  33 H :    0.023023

  Mayer bond orders larger than 0.100000
B(  0-S ,  1-C ) :   1.1893 B(  0-S ,  4-C ) :   1.1823 B(  1-C ,  2-C ) :   1.5305
B(  1-C ,  4-C ) :   0.1112 B(  1-C , 32-H ) :   0.9707 B(  2-C ,  3-C ) :   1.3117
B(  2-C ,  6-C ) :   1.0383 B(  3-C ,  4-C ) :   1.4928 B(  3-C ,  5-H ) :   1.0017
B(  4-C , 20-C ) :   1.0387 B(  6-C ,  7-H ) :   0.9334 B(  6-C ,  8-H ) :   0.9389
B(  6-C ,  9-C ) :   1.0490 B(  9-C , 10-H ) :   0.9626 B(  9-C , 11-H ) :   0.9655
B(  9-C , 12-C ) :   1.0675 B( 12-C , 13-H ) :   0.9786 B( 12-C , 14-H ) :   0.9733
B( 12-C , 15-H ) :   0.9749 B( 16-S , 17-C ) :   1.1546 B( 16-S , 20-C ) :   1.1433
B( 17-C , 18-C ) :   1.6139 B( 17-C , 33-H ) :   0.9647 B( 18-C , 19-C ) :   1.2479
B( 18-C , 21-H ) :   0.9829 B( 19-C , 20-C ) :   1.5748 B( 19-C , 22-C ) :   1.0677
B( 22-C , 23-H ) :   0.9233 B( 22-C , 24-H ) :   0.9214 B( 22-C , 25-C ) :   1.0574
B( 25-C , 26-H ) :   0.9620 B( 25-C , 27-H ) :   0.9506 B( 25-C , 28-C ) :   1.0697
B( 28-C , 29-H ) :   0.9717 B( 28-C , 30-H ) :   0.9769 B( 28-C , 31-H ) :   0.9764

Dispersion correction           -0.014581777
FINAL SINGLE POINT ENERGY     -1339.853397672018

DIPOLE MOMENT
-------------
                                X             Y             Z
Electronic contribution:    -30.91519     -11.95561       4.45988
Nuclear contribution   :     31.69308      12.10991      -4.54372
                        -----------------------------------------
Total Dipole Moment    :      0.77789       0.15430      -0.08385
                        -----------------------------------------
Magnitude (a.u.)       :      0.79746
Magnitude (Debye)      :      2.02699

Rotational constants in cm-1:     0.019417     0.008964     0.006513
Rotational constants in MHz :   582.116676   268.733946   195.263418

                             ****ORCA TERMINATED NORMALLY****
TOTAL RUN TIME: 0 days 0 hours 0 minutes 22 seconds 98 msec
