                         Program Version 4.2.1 -  RELEASE  -
|  1> ! wB97X-D3 SP def2-SVP
|  2> %pal
|  3> nprocs 24
|  4> end
|  5>
|  6> * xyz 0 1
|  7> S 	 -46.2505 	 13.4494 	 27.1236
|  8> C 	 -45.9674 	 13.1751 	 25.432
|  9> C 	 -47.0166 	 12.5243 	 24.8062
| 10> C 	 -48.1574 	 12.5375 	 25.6526
| 11> C 	 -47.8785 	 13.0254 	 26.9605
| 12> H 	 -49.1822 	 12.1426 	 25.437
| 13> C 	 -47.0007 	 11.96 	 23.3447
| 14> H 	 -47.9457 	 11.9381 	 22.9142
| 15> H 	 -46.6191 	 10.9645 	 23.4064
| 16> C 	 -46.2617 	 12.6734 	 22.3187
| 17> H 	 -45.161 	 12.671 	 22.6353
| 18> H 	 -46.333 	 12.0941 	 21.3965
| 19> C 	 -46.6637 	 14.1162 	 21.9564
| 20> H 	 -46.2572 	 14.9219 	 22.5888
| 21> H 	 -46.2432 	 14.3515 	 20.9653
| 22> H 	 -47.7765 	 14.1941 	 21.8967
| 23> S 	 -48.7159 	 11.6468 	 29.1312
| 24> C 	 -50.2553 	 12.0404 	 29.8995
| 25> C 	 -50.7507 	 13.1909 	 29.3719
| 26> C 	 -49.996 	 13.8014 	 28.374
| 27> C 	 -48.832 	 13.0664 	 28.0957
| 28> H 	 -51.7071 	 13.5816 	 29.7656
| 29> C 	 -50.5103 	 14.9387 	 27.5703
| 30> H 	 -51.6247 	 15.1222 	 27.6911
| 31> H 	 -50.5329 	 14.7809 	 26.501
| 32> C 	 -49.8087 	 16.2689 	 27.9707
| 33> H 	 -50.1694 	 16.9458 	 27.2969
| 34> H 	 -48.7661 	 16.1436 	 27.7903
| 35> C 	 -50.0255 	 16.6847 	 29.4182
| 36> H 	 -50.9727 	 17.1071 	 29.6304
| 37> H 	 -49.319 	 17.418 	 29.6184
| 38> H 	 -50.011 	 15.828 	 30.1334
| 39> H 	 -44.9455 	 13.3375 	 24.9626
| 40> H 	 -50.7124 	 11.4792 	 30.7198
| 41> *
| 42>
| 43>                          ****END OF INPUT****

CARTESIAN COORDINATES (ANGSTROEM)
---------------------------------
  S    -46.250500   13.449400   27.123600
  C    -45.967400   13.175100   25.432000
  C    -47.016600   12.524300   24.806200
  C    -48.157400   12.537500   25.652600
  C    -47.878500   13.025400   26.960500
  H    -49.182200   12.142600   25.437000
  C    -47.000700   11.960000   23.344700
  H    -47.945700   11.938100   22.914200
  H    -46.619100   10.964500   23.406400
  C    -46.261700   12.673400   22.318700
  H    -45.161000   12.671000   22.635300
  H    -46.333000   12.094100   21.396500
  C    -46.663700   14.116200   21.956400
  H    -46.257200   14.921900   22.588800
  H    -46.243200   14.351500   20.965300
  H    -47.776500   14.194100   21.896700
  S    -48.715900   11.646800   29.131200
  C    -50.255300   12.040400   29.899500
  C    -50.750700   13.190900   29.371900
  C    -49.996000   13.801400   28.374000
  C    -48.832000   13.066400   28.095700
  H    -51.707100   13.581600   29.765600
  C    -50.510300   14.938700   27.570300
  H    -51.624700   15.122200   27.691100
  H    -50.532900   14.780900   26.501000
  C    -49.808700   16.268900   27.970700
  H    -50.169400   16.945800   27.296900
  H    -48.766100   16.143600   27.790300
  C    -50.025500   16.684700   29.418200
  H    -50.972700   17.107100   29.630400
  H    -49.319000   17.418000   29.618400
  H    -50.011000   15.828000   30.133400
  H    -44.945500   13.337500   24.962600
  H    -50.712400   11.479200   30.719800

 Total Charge           Charge          ....    0
 Multiplicity           Mult            ....    1
 Number of Electrons    NEL             ....  134
 Basis Dimension        Dim             ....  322

ORBITAL ENERGIES
----------------

  NO   OCC          E(Eh)            E(eV)
   0   2.0000     -88.969210     -2420.9753
   1   2.0000     -88.962964     -2420.8053
   2   2.0000     -10.327578      -281.0277
   3   2.0000     -10.327088      -281.0144
   4   2.0000     -10.316108      -280.7156
   5   2.0000     -10.315566      -280.7008
   6   2.0000     -10.304853      -280.4093
   7   2.0000     -10.300430      -280.2890
   8   2.0000     -10.298962      -280.2490
   9   2.0000     -10.288856      -279.9740
  10   2.0000     -10.288853      -279.9739
  11   2.0000     -10.288003      -279.9508
  12   2.0000     -10.285021      -279.8697
  13   2.0000     -10.282245      -279.7941
  14   2.0000     -10.271235      -279.4945
  15   2.0000     -10.264623      -279.3146
  16   2.0000      -8.084910      -220.0016
  17   2.0000      -8.077440      -219.7983
  18   2.0000      -6.043144      -164.4423
  19   2.0000      -6.039230      -164.3358
  20   2.0000      -6.035960      -164.2468
  21   2.0000      -6.035883      -164.2447
  22   2.0000      -6.031882      -164.1358
  23   2.0000      -6.028381      -164.0406
  24   2.0000      -1.008234       -27.4354
  25   2.0000      -0.986960       -26.8565
  26   2.0000      -0.921486       -25.0749
  27   2.0000      -0.908605       -24.7244
  28   2.0000      -0.865935       -23.5633
  29   2.0000      -0.847096       -23.0507
  30   2.0000      -0.846873       -23.0446
  31   2.0000      -0.806703       -21.9515
  32   2.0000      -0.791470       -21.5370
  33   2.0000      -0.775620       -21.1057
  34   2.0000      -0.706558       -19.2264
  35   2.0000      -0.694172       -18.8894
  36   2.0000      -0.686121       -18.6703
  37   2.0000      -0.658066       -17.9069
  38   2.0000      -0.636659       -17.3244
  39   2.0000      -0.607818       -16.5396
  40   2.0000      -0.599263       -16.3068
  41   2.0000      -0.583254       -15.8711
  42   2.0000      -0.562489       -15.3061
  43   2.0000      -0.548827       -14.9344
  44   2.0000      -0.546205       -14.8630
  45   2.0000      -0.537188       -14.6176
  46   2.0000      -0.513779       -13.9806
  47   2.0000      -0.504919       -13.7395
  48   2.0000      -0.499385       -13.5890
  49   2.0000      -0.492614       -13.4047
  50   2.0000      -0.485106       -13.2004
  51   2.0000      -0.481267       -13.0959
  52   2.0000      -0.476500       -12.9662
  53   2.0000      -0.467225       -12.7138
  54   2.0000      -0.459019       -12.4905
  55   2.0000      -0.448190       -12.1959
  56   2.0000      -0.437563       -11.9067
  57   2.0000      -0.436288       -11.8720
  58   2.0000      -0.431396       -11.7389
  59   2.0000      -0.420344       -11.4381
  60   2.0000      -0.418600       -11.3907
  61   2.0000      -0.412981       -11.2378
  62   2.0000      -0.411634       -11.2011
  63   2.0000      -0.338781        -9.2187
  64   2.0000      -0.333597        -9.0776
  65   2.0000      -0.319145        -8.6844
  66   2.0000      -0.303200        -8.2505
  67   0.0000       0.043586         1.1860
  68   0.0000       0.052441         1.4270
  69   0.0000       0.117115         3.1869
  70   0.0000       0.120524         3.2796
  71   0.0000       0.133093         3.6216

MULLIKEN ATOMIC CHARGES
-----------------------
   0 S :    0.141137
   1 C :   -0.164274
   2 C :   -0.083217
   3 C :    0.026291
   4 C :   -0.187100
   5 H :    0.029202
   6 C :    0.148640
   7 H :    0.000527
   8 H :    0.036834
   9 C :   -0.126831
  10 H :    0.025202
  11 H :    0.032712
  12 C :   -0.054372
  13 H :    0.042099
  14 H :    0.030975
  15 H :    0.032284
  16 S :    0.104929
  17 C :   -0.097937
  18 C :   -0.049085
  19 C :    0.017325
  20 C :   -0.185747
  21 H :    0.023513
  22 C :    0.017350
  23 H :    0.018630
  24 H :    0.027865
  25 C :   -0.015733
  26 H :    0.003205
  27 H :    0.023699
  28 C :   -0.020185
  29 H :    0.008769
  30 H :    0.024154
  31 H :    0.037983
  32 H :    0.070086
  33 H :    0.061068
Sum of atomic charges:   -0.0000000

LOEWDIN ATOMIC CHARGES
----------------------
   0 S :    0.449289
   1 C :   -0.218005
   2 C :   -0.061901
   3 C :   -0.065295
   4 C :   -0.231723
   5 H :    0.038912
   6 C :   -0.024896
   7 H :    0.020954
   8 H :    0.037365
   9 C :   -0.050810
  10 H :    0.023788
  11 H :    0.029563
  12 C :   -0.070779
  13 H :    0.028203
  14 H :    0.028696
  15 H :    0.027265
  16 S :    0.401992
  17 C :   -0.183794
  18 C :   -0.078772
  19 C :   -0.058776
  20 C :   -0.197088
  21 H :    0.035232
  22 C :   -0.035793
  23 H :    0.033052
  24 H :    0.029955
  25 C :   -0.022501
  26 H :    0.011566
  27 H :    0.020825
  28 C :   -0.059051
  29 H :    0.017700
  30 H :    0.020528
  31 H :    0.032936
  32 H :    0.037376
  33 H :    0.033986

  Mayer bond orders larger than 0.100000
B(  0-S ,  1-C ) :   1.1620 B(  0-S ,  4-C ) :   1.1943 B(  1-C ,  2-C ) :   1.5841
B(  1-C ,  4-C ) :   0.1044 B(  1-C , 32-H ) :   0.9584 B(  2-C ,  3-C ) :   1.2776
B(  2-C ,  6-C ) :   0.9948 B(  3-C ,  4-C ) :   1.5401 B(  3-C ,  5-H ) :   0.9899
B(  4-C , 20-C ) :   0.9872 B(  6-C ,  7-H ) :   0.9407 B(  6-C ,  8-H ) :   0.9246
B(  6-C ,  9-C ) :   1.1055 B(  9-C , 10-H ) :   0.9433 B(  9-C , 11-H ) :   0.9516
B(  9-C , 12-C ) :   1.0757 B( 12-C , 13-H ) :   0.9745 B( 12-C , 14-H ) :   0.9749
B( 12-C , 15-H ) :   0.9739 B( 16-S , 17-C ) :   1.1515 B( 16-S , 20-C ) :   1.1686
B( 17-C , 18-C ) :   1.6026 B( 17-C , 20-C ) :   0.1073 B( 17-C , 33-H ) :   0.9662
B( 18-C , 19-C ) :   1.2610 B( 18-C , 21-H ) :   0.9834 B( 19-C , 20-C ) :   1.5749
B( 19-C , 22-C ) :   1.0423 B( 22-C , 23-H ) :   0.9419 B( 22-C , 24-H ) :   0.9368
B( 22-C , 25-C ) :   1.0688 B( 25-C , 26-H ) :   0.9515 B( 25-C , 27-H ) :   0.9613
B( 25-C , 28-C ) :   1.0744 B( 28-C , 29-H ) :   0.9722 B( 28-C , 30-H ) :   0.9732
B( 28-C , 31-H ) :   0.9729

Dispersion correction           -0.014594926
FINAL SINGLE POINT ENERGY     -1339.865963555833

DIPOLE MOMENT
-------------
                                X             Y             Z
Electronic contribution:      5.12069     -13.75420      16.89657
Nuclear contribution   :     -5.45296      13.81125     -17.38614
                        -----------------------------------------
Total Dipole Moment    :     -0.33227       0.05704      -0.48957
                        -----------------------------------------
Magnitude (a.u.)       :      0.59442
Magnitude (Debye)      :      1.51089

Rotational constants in cm-1:     0.022155     0.007784     0.006805
Rotational constants in MHz :   664.188248   233.344763   204.013833

                             ****ORCA TERMINATED NORMALLY****
TOTAL RUN TIME: 0 days 0 hours 0 minutes 21 seconds 570 msec
