                         Program Version 4.2.1 -  RELEASE  -
|  1> ! wB97X-D3 SP def2-SVP
|  2> %pal
|  3> nprocs 24
|  4> end
|  5>
|  6> * xyz 0 1
|  7> S 	 -43.2897 	 -49.8811 	 -71.1943
|  8> C 	 -41.9546 	 -48.7176 	 -71.2335
|  9> C 	 -41.9385 	 -47.8188 	 -70.1643
| 10> C 	 -42.7545 	 -48.3395 	 -69.1235
| 11> C 	 -43.5924 	 -49.3642 	 -69.544
| 12> H 	 -42.8863 	 -48.0277 	 -68.1077
| 13> C 	 -41.1909 	 -46.5163 	 -70.0057
| 14> H 	 -40.2544 	 -46.8759 	 -70.2883
| 15> H 	 -41.0285 	 -46.2666 	 -68.9181
| 16> C 	 -41.7471 	 -45.3907 	 -70.8982
| 17> H 	 -41.2572 	 -44.4446 	 -70.6743
| 18> H 	 -41.5148 	 -45.6225 	 -71.9669
| 19> C 	 -43.1822 	 -45.0899 	 -70.7326
| 20> H 	 -43.5032 	 -45.0982 	 -69.701
| 21> H 	 -43.4399 	 -44.1788 	 -71.0984
| 22> H 	 -43.6369 	 -45.9004 	 -71.2862
| 23> S 	 -43.5803 	 -51.7801 	 -68.3541
| 24> C 	 -44.9192 	 -52.2685 	 -67.3779
| 25> C 	 -45.829 	 -51.269 	 -67.1881
| 26> C 	 -45.5291 	 -50.0815 	 -67.975
| 27> C 	 -44.3926 	 -50.276 	 -68.7264
| 28> H 	 -46.6276 	 -51.487 	 -66.5117
| 29> C 	 -46.4315 	 -48.8633 	 -67.9701
| 30> H 	 -45.7068 	 -48.0322 	 -68.0822
| 31> H 	 -46.8579 	 -48.6327 	 -67.0007
| 32> C 	 -47.4389 	 -48.8149 	 -69.092
| 33> H 	 -47.1208 	 -49.5933 	 -69.8383
| 34> H 	 -47.4401 	 -47.8306 	 -69.4662
| 35> C 	 -48.8207 	 -49.1593 	 -68.4983
| 36> H 	 -48.8762 	 -49.9361 	 -67.758
| 37> H 	 -49.457 	 -49.3943 	 -69.3163
| 38> H 	 -49.3576 	 -48.2627 	 -68.1337
| 39> H 	 -41.4182 	 -48.375 	 -72.1054
| 40> H 	 -44.9611 	 -53.1318 	 -66.692
| 41> *
| 42>
| 43>                          ****END OF INPUT****

CARTESIAN COORDINATES (ANGSTROEM)
---------------------------------
  S    -43.289700  -49.881100  -71.194300
  C    -41.954600  -48.717600  -71.233500
  C    -41.938500  -47.818800  -70.164300
  C    -42.754500  -48.339500  -69.123500
  C    -43.592400  -49.364200  -69.544000
  H    -42.886300  -48.027700  -68.107700
  C    -41.190900  -46.516300  -70.005700
  H    -40.254400  -46.875900  -70.288300
  H    -41.028500  -46.266600  -68.918100
  C    -41.747100  -45.390700  -70.898200
  H    -41.257200  -44.444600  -70.674300
  H    -41.514800  -45.622500  -71.966900
  C    -43.182200  -45.089900  -70.732600
  H    -43.503200  -45.098200  -69.701000
  H    -43.439900  -44.178800  -71.098400
  H    -43.636900  -45.900400  -71.286200
  S    -43.580300  -51.780100  -68.354100
  C    -44.919200  -52.268500  -67.377900
  C    -45.829000  -51.269000  -67.188100
  C    -45.529100  -50.081500  -67.975000
  C    -44.392600  -50.276000  -68.726400
  H    -46.627600  -51.487000  -66.511700
  C    -46.431500  -48.863300  -67.970100
  H    -45.706800  -48.032200  -68.082200
  H    -46.857900  -48.632700  -67.000700
  C    -47.438900  -48.814900  -69.092000
  H    -47.120800  -49.593300  -69.838300
  H    -47.440100  -47.830600  -69.466200
  C    -48.820700  -49.159300  -68.498300
  H    -48.876200  -49.936100  -67.758000
  H    -49.457000  -49.394300  -69.316300
  H    -49.357600  -48.262700  -68.133700
  H    -41.418200  -48.375000  -72.105400
  H    -44.961100  -53.131800  -66.692000

 Total Charge           Charge          ....    0
 Multiplicity           Mult            ....    1
 Number of Electrons    NEL             ....  134
 Basis Dimension        Dim             ....  322

ORBITAL ENERGIES
----------------

  NO   OCC          E(Eh)            E(eV)
   0   2.0000     -88.968987     -2420.9692
   1   2.0000     -88.961741     -2420.7721
   2   2.0000     -10.325073      -280.9595
   3   2.0000     -10.320120      -280.8247
   4   2.0000     -10.312808      -280.6258
   5   2.0000     -10.310161      -280.5537
   6   2.0000     -10.303442      -280.3709
   7   2.0000     -10.302559      -280.3469
   8   2.0000     -10.293300      -280.0949
   9   2.0000     -10.291298      -280.0405
  10   2.0000     -10.287827      -279.9460
  11   2.0000     -10.287702      -279.9426
  12   2.0000     -10.284469      -279.8546
  13   2.0000     -10.281774      -279.7813
  14   2.0000     -10.271779      -279.5093
  15   2.0000     -10.262044      -279.2444
  16   2.0000      -8.083026      -219.9503
  17   2.0000      -8.077023      -219.7870
  18   2.0000      -6.041481      -164.3971
  19   2.0000      -6.037793      -164.2967
  20   2.0000      -6.035511      -164.2346
  21   2.0000      -6.033721      -164.1859
  22   2.0000      -6.031550      -164.1268
  23   2.0000      -6.027656      -164.0209
  24   2.0000      -1.006379       -27.3850
  25   2.0000      -0.982071       -26.7235
  26   2.0000      -0.919350       -25.0168
  27   2.0000      -0.911500       -24.8032
  28   2.0000      -0.870145       -23.6779
  29   2.0000      -0.851713       -23.1763
  30   2.0000      -0.845178       -22.9985
  31   2.0000      -0.815824       -22.1997
  32   2.0000      -0.787998       -21.4425
  33   2.0000      -0.772442       -21.0192
  34   2.0000      -0.705387       -19.1946
  35   2.0000      -0.702410       -19.1135
  36   2.0000      -0.688636       -18.7387
  37   2.0000      -0.655926       -17.8486
  38   2.0000      -0.637943       -17.3593
  39   2.0000      -0.609377       -16.5820
  40   2.0000      -0.594912       -16.1884
  41   2.0000      -0.580963       -15.8088
  42   2.0000      -0.563649       -15.3377
  43   2.0000      -0.558980       -15.2106
  44   2.0000      -0.545772       -14.8512
  45   2.0000      -0.531097       -14.4519
  46   2.0000      -0.516948       -14.0669
  47   2.0000      -0.511085       -13.9073
  48   2.0000      -0.497958       -13.5501
  49   2.0000      -0.490031       -13.3344
  50   2.0000      -0.484051       -13.1717
  51   2.0000      -0.478775       -13.0281
  52   2.0000      -0.473925       -12.8962
  53   2.0000      -0.463984       -12.6257
  54   2.0000      -0.461886       -12.5686
  55   2.0000      -0.447501       -12.1771
  56   2.0000      -0.442421       -12.0389
  57   2.0000      -0.439738       -11.9659
  58   2.0000      -0.432016       -11.7558
  59   2.0000      -0.424232       -11.5439
  60   2.0000      -0.421329       -11.4649
  61   2.0000      -0.410831       -11.1793
  62   2.0000      -0.406076       -11.0499
  63   2.0000      -0.341853        -9.3023
  64   2.0000      -0.325324        -8.8525
  65   2.0000      -0.322240        -8.7686
  66   2.0000      -0.301216        -8.1965
  67   0.0000       0.038159         1.0384
  68   0.0000       0.058465         1.5909
  69   0.0000       0.105175         2.8620
  70   0.0000       0.116288         3.1643
  71   0.0000       0.128374         3.4932

MULLIKEN ATOMIC CHARGES
-----------------------
   0 S :    0.120035
   1 C :   -0.100741
   2 C :   -0.150526
   3 C :    0.067443
   4 C :   -0.204467
   5 H :    0.006685
   6 C :    0.104798
   7 H :    0.015198
   8 H :    0.033843
   9 C :   -0.087388
  10 H :    0.023536
  11 H :    0.032444
  12 C :    0.013281
  13 H :    0.020265
  14 H :    0.009714
  15 H :    0.037456
  16 S :    0.122697
  17 C :   -0.087983
  18 C :   -0.049398
  19 C :   -0.043710
  20 C :   -0.162759
  21 H :    0.009977
  22 C :    0.072037
  23 H :    0.010451
  24 H :    0.018908
  25 C :   -0.027247
  26 H :    0.050173
  27 H :    0.025778
  28 C :   -0.056062
  29 H :    0.034589
  30 H :    0.016576
  31 H :    0.028295
  32 H :    0.036371
  33 H :    0.059731
Sum of atomic charges:   -0.0000000

LOEWDIN ATOMIC CHARGES
----------------------
   0 S :    0.401821
   1 C :   -0.201329
   2 C :   -0.055534
   3 C :   -0.055060
   4 C :   -0.196848
   5 H :    0.029169
   6 C :   -0.031990
   7 H :    0.028300
   8 H :    0.038768
   9 C :   -0.039025
  10 H :    0.022032
  11 H :    0.027947
  12 C :   -0.054132
  13 H :    0.025259
  14 H :    0.012860
  15 H :    0.030777
  16 S :    0.417119
  17 C :   -0.198718
  18 C :   -0.075476
  19 C :   -0.049879
  20 C :   -0.211955
  21 H :    0.027427
  22 C :   -0.036477
  23 H :    0.030774
  24 H :    0.027377
  25 C :   -0.031160
  26 H :    0.035229
  27 H :    0.023237
  28 C :   -0.067154
  29 H :    0.020353
  30 H :    0.021012
  31 H :    0.029038
  32 H :    0.020884
  33 H :    0.035354

  Mayer bond orders larger than 0.100000
B(  0-S ,  1-C ) :   1.1358 B(  0-S ,  4-C ) :   1.1503 B(  1-C ,  2-C ) :   1.6319
B(  1-C , 32-H ) :   0.9567 B(  2-C ,  3-C ) :   1.2109 B(  2-C ,  6-C ) :   0.9902
B(  3-C ,  4-C ) :   1.6094 B(  3-C ,  5-H ) :   0.9909 B(  4-C , 20-C ) :   0.9878
B(  6-C ,  7-H ) :   0.9317 B(  6-C ,  8-H ) :   0.9464 B(  6-C ,  9-C ) :   1.0672
B(  9-C , 10-H ) :   0.9576 B(  9-C , 11-H ) :   0.9582 B(  9-C , 12-C ) :   1.0820
B( 12-C , 13-H ) :   0.9721 B( 12-C , 14-H ) :   0.9702 B( 12-C , 15-H ) :   0.9702
B( 16-S , 17-C ) :   1.1478 B( 16-S , 20-C ) :   1.1460 B( 17-C , 18-C ) :   1.6545
B( 17-C , 33-H ) :   0.9572 B( 18-C , 19-C ) :   1.2024 B( 18-C , 21-H ) :   0.9949
B( 19-C , 20-C ) :   1.6303 B( 19-C , 22-C ) :   1.0550 B( 22-C , 23-H ) :   0.9230
B( 22-C , 24-H ) :   0.9396 B( 22-C , 25-C ) :   1.0486 B( 25-C , 26-H ) :   0.9633
B( 25-C , 27-H ) :   0.9524 B( 25-C , 28-C ) :   1.0816 B( 28-C , 29-H ) :   0.9788
B( 28-C , 30-H ) :   0.9714 B( 28-C , 31-H ) :   0.9730

Dispersion correction           -0.014947138
FINAL SINGLE POINT ENERGY     -1339.847663895024

DIPOLE MOMENT
-------------
                                X             Y             Z
Electronic contribution:     10.94494     -22.26772      -0.82247
Nuclear contribution   :    -11.07916      22.94138       1.11822
                        -----------------------------------------
Total Dipole Moment    :     -0.13422       0.67366       0.29575
                        -----------------------------------------
Magnitude (a.u.)       :      0.74786
Magnitude (Debye)      :      1.90091

Rotational constants in cm-1:     0.019501     0.008972     0.007087
Rotational constants in MHz :   584.611434   268.965946   212.464506

                             ****ORCA TERMINATED NORMALLY****
TOTAL RUN TIME: 0 days 0 hours 0 minutes 22 seconds 212 msec
