                         Program Version 4.2.1 -  RELEASE  -
|  1> ! wB97X-D3 SP def2-SVP
|  2> %pal
|  3> nprocs 24
|  4> end
|  5>
|  6> * xyz 0 1
|  7> S 	 -55.5 	 3.01853 	 -32.5572
|  8> C 	 -56.5951 	 2.93784 	 -33.9476
|  9> C 	 -56.9821 	 4.25719 	 -34.2707
| 10> C 	 -56.2914 	 5.29165 	 -33.5264
| 11> C 	 -55.5119 	 4.76873 	 -32.5552
| 12> H 	 -56.4079 	 6.32942 	 -33.7073
| 13> C 	 -57.7065 	 4.70022 	 -35.5933
| 14> H 	 -58.1108 	 5.69781 	 -35.5669
| 15> H 	 -58.5117 	 3.95829 	 -35.6101
| 16> C 	 -56.8795 	 4.49408 	 -36.9112
| 17> H 	 -57.6226 	 4.6312 	 -37.7111
| 18> H 	 -56.1097 	 5.28001 	 -36.9388
| 19> C 	 -56.2296 	 3.16825 	 -36.9947
| 20> H 	 -55.4834 	 3.25001 	 -36.213
| 21> H 	 -56.8337 	 2.31602 	 -36.7344
| 22> H 	 -55.8207 	 3.09332 	 -38.006
| 23> S 	 -53.1094 	 4.73784 	 -31.1893
| 24> C 	 -52.4628 	 6.19156 	 -30.5326
| 25> C 	 -53.4387 	 7.13872 	 -30.5187
| 26> C 	 -54.6643 	 6.81399 	 -31.1956
| 27> C 	 -54.6057 	 5.53563 	 -31.742
| 28> H 	 -53.2633 	 8.10904 	 -30.1751
| 29> C 	 -55.8014 	 7.73076 	 -31.2952
| 30> H 	 -56.6056 	 6.98694 	 -31.1563
| 31> H 	 -55.7923 	 8.18482 	 -32.2181
| 32> C 	 -56.0265 	 8.72866 	 -30.1414
| 33> H 	 -55.2378 	 9.44643 	 -30.0051
| 34> H 	 -55.8118 	 8.22002 	 -29.1305
| 35> C 	 -57.2457 	 9.63123 	 -30.4524
| 36> H 	 -57.0504 	 10.1762 	 -31.4064
| 37> H 	 -57.1892 	 10.2652 	 -29.535
| 38> H 	 -58.1983 	 8.97883 	 -30.4838
| 39> H 	 -57.0579 	 2.02093 	 -34.3359
| 40> H 	 -51.4357 	 6.3505 	 -30.2442
| 41> *
| 42>
| 43>                          ****END OF INPUT****

CARTESIAN COORDINATES (ANGSTROEM)
---------------------------------
  S    -55.500000    3.018530  -32.557200
  C    -56.595100    2.937840  -33.947600
  C    -56.982100    4.257190  -34.270700
  C    -56.291400    5.291650  -33.526400
  C    -55.511900    4.768730  -32.555200
  H    -56.407900    6.329420  -33.707300
  C    -57.706500    4.700220  -35.593300
  H    -58.110800    5.697810  -35.566900
  H    -58.511700    3.958290  -35.610100
  C    -56.879500    4.494080  -36.911200
  H    -57.622600    4.631200  -37.711100
  H    -56.109700    5.280010  -36.938800
  C    -56.229600    3.168250  -36.994700
  H    -55.483400    3.250010  -36.213000
  H    -56.833700    2.316020  -36.734400
  H    -55.820700    3.093320  -38.006000
  S    -53.109400    4.737840  -31.189300
  C    -52.462800    6.191560  -30.532600
  C    -53.438700    7.138720  -30.518700
  C    -54.664300    6.813990  -31.195600
  C    -54.605700    5.535630  -31.742000
  H    -53.263300    8.109040  -30.175100
  C    -55.801400    7.730760  -31.295200
  H    -56.605600    6.986940  -31.156300
  H    -55.792300    8.184820  -32.218100
  C    -56.026500    8.728660  -30.141400
  H    -55.237800    9.446430  -30.005100
  H    -55.811800    8.220020  -29.130500
  C    -57.245700    9.631230  -30.452400
  H    -57.050400   10.176200  -31.406400
  H    -57.189200   10.265200  -29.535000
  H    -58.198300    8.978830  -30.483800
  H    -57.057900    2.020930  -34.335900
  H    -51.435700    6.350500  -30.244200

 Total Charge           Charge          ....    0
 Multiplicity           Mult            ....    1
 Number of Electrons    NEL             ....  134
 Basis Dimension        Dim             ....  322

ORBITAL ENERGIES
----------------

  NO   OCC          E(Eh)            E(eV)
   0   2.0000     -88.967992     -2420.9421
   1   2.0000     -88.959856     -2420.7208
   2   2.0000     -10.328264      -281.0464
   3   2.0000     -10.325769      -280.9785
   4   2.0000     -10.322633      -280.8931
   5   2.0000     -10.313858      -280.6544
   6   2.0000     -10.307474      -280.4806
   7   2.0000     -10.299656      -280.2679
   8   2.0000     -10.296946      -280.1942
   9   2.0000     -10.293375      -280.0970
  10   2.0000     -10.292736      -280.0796
  11   2.0000     -10.290018      -280.0056
  12   2.0000     -10.285319      -279.8778
  13   2.0000     -10.285158      -279.8734
  14   2.0000     -10.285014      -279.8695
  15   2.0000     -10.267262      -279.3864
  16   2.0000      -8.082270      -219.9297
  17   2.0000      -8.075017      -219.7324
  18   2.0000      -6.041004      -164.3841
  19   2.0000      -6.036823      -164.2703
  20   2.0000      -6.033594      -164.1824
  21   2.0000      -6.032844      -164.1620
  22   2.0000      -6.029486      -164.0706
  23   2.0000      -6.025661      -163.9666
  24   2.0000      -1.008880       -27.4530
  25   2.0000      -0.983451       -26.7611
  26   2.0000      -0.916885       -24.9497
  27   2.0000      -0.911093       -24.7921
  28   2.0000      -0.872646       -23.7459
  29   2.0000      -0.854777       -23.2597
  30   2.0000      -0.845402       -23.0046
  31   2.0000      -0.813975       -22.1494
  32   2.0000      -0.782143       -21.2832
  33   2.0000      -0.772922       -21.0323
  34   2.0000      -0.707269       -19.2458
  35   2.0000      -0.703220       -19.1356
  36   2.0000      -0.688224       -18.7275
  37   2.0000      -0.655945       -17.8492
  38   2.0000      -0.640263       -17.4224
  39   2.0000      -0.620771       -16.8920
  40   2.0000      -0.601344       -16.3634
  41   2.0000      -0.577593       -15.7171
  42   2.0000      -0.566465       -15.4143
  43   2.0000      -0.553209       -15.0536
  44   2.0000      -0.545097       -14.8328
  45   2.0000      -0.536605       -14.6018
  46   2.0000      -0.523065       -14.2333
  47   2.0000      -0.518162       -14.0999
  48   2.0000      -0.510319       -13.8865
  49   2.0000      -0.495887       -13.4938
  50   2.0000      -0.491707       -13.3800
  51   2.0000      -0.481881       -13.1126
  52   2.0000      -0.477419       -12.9912
  53   2.0000      -0.462775       -12.5928
  54   2.0000      -0.456235       -12.4148
  55   2.0000      -0.450660       -12.2631
  56   2.0000      -0.441799       -12.0220
  57   2.0000      -0.435406       -11.8480
  58   2.0000      -0.427420       -11.6307
  59   2.0000      -0.424262       -11.5448
  60   2.0000      -0.413826       -11.2608
  61   2.0000      -0.404212       -10.9992
  62   2.0000      -0.401229       -10.9180
  63   2.0000      -0.360609        -9.8127
  64   2.0000      -0.331624        -9.0240
  65   2.0000      -0.325268        -8.8510
  66   2.0000      -0.282993        -7.7006
  67   0.0000       0.021689         0.5902
  68   0.0000       0.076200         2.0735
  69   0.0000       0.100252         2.7280
  70   0.0000       0.124473         3.3871
  71   0.0000       0.137829         3.7505

MULLIKEN ATOMIC CHARGES
-----------------------
   0 S :    0.106624
   1 C :   -0.149533
   2 C :   -0.098301
   3 C :   -0.010762
   4 C :   -0.094848
   5 H :    0.001563
   6 C :    0.033415
   7 H :    0.026470
   8 H :    0.022898
   9 C :   -0.064396
  10 H :    0.031943
  11 H :    0.030339
  12 C :   -0.039572
  13 H :    0.053590
  14 H :    0.016363
  15 H :    0.039417
  16 S :    0.085100
  17 C :   -0.070504
  18 C :   -0.011121
  19 C :   -0.067785
  20 C :   -0.138219
  21 H :   -0.013860
  22 C :    0.089874
  23 H :    0.046675
  24 H :    0.028889
  25 C :   -0.137724
  26 H :    0.013770
  27 H :    0.041031
  28 C :   -0.056927
  29 H :    0.053098
  30 H :    0.049978
  31 H :    0.054414
  32 H :    0.069604
  33 H :    0.058495
Sum of atomic charges:    0.0000000

LOEWDIN ATOMIC CHARGES
----------------------
   0 S :    0.394588
   1 C :   -0.200757
   2 C :   -0.057563
   3 C :   -0.065113
   4 C :   -0.184794
   5 H :    0.027182
   6 C :   -0.031996
   7 H :    0.025007
   8 H :    0.027171
   9 C :   -0.036221
  10 H :    0.022735
  11 H :    0.024793
  12 C :   -0.066257
  13 H :    0.031188
  14 H :    0.017219
  15 H :    0.030498
  16 S :    0.391347
  17 C :   -0.185862
  18 C :   -0.070987
  19 C :   -0.056522
  20 C :   -0.182684
  21 H :    0.017327
  22 C :   -0.037164
  23 H :    0.047451
  24 H :    0.020734
  25 C :   -0.058282
  26 H :    0.013905
  27 H :    0.037067
  28 C :   -0.067238
  29 H :    0.033835
  30 H :    0.036282
  31 H :    0.034310
  32 H :    0.035265
  33 H :    0.033536

  Mayer bond orders larger than 0.100000
B(  0-S ,  1-C ) :   1.1198 B(  0-S ,  4-C ) :   1.1349 B(  1-C ,  2-C ) :   1.6013
B(  1-C , 32-H ) :   0.9664 B(  2-C ,  3-C ) :   1.2207 B(  2-C ,  6-C ) :   1.0304
B(  3-C ,  4-C ) :   1.5686 B(  3-C ,  5-H ) :   1.0027 B(  4-C , 20-C ) :   1.0873
B(  6-C ,  7-H ) :   0.9511 B(  6-C ,  8-H ) :   0.9388 B(  6-C ,  9-C ) :   1.0608
B(  9-C , 10-H ) :   0.9546 B(  9-C , 11-H ) :   0.9555 B(  9-C , 12-C ) :   1.0879
B( 12-C , 13-H ) :   0.9640 B( 12-C , 14-H ) :   0.9737 B( 12-C , 15-H ) :   0.9661
B( 16-S , 17-C ) :   1.1544 B( 16-S , 20-C ) :   1.1215 B( 17-C , 18-C ) :   1.5907
B( 17-C , 33-H ) :   0.9694 B( 18-C , 19-C ) :   1.2491 B( 18-C , 21-H ) :   0.9977
B( 19-C , 20-C ) :   1.5845 B( 19-C , 22-C ) :   1.0297 B( 22-C , 23-H ) :   0.9315
B( 22-C , 24-H ) :   0.9211 B( 22-C , 25-C ) :   1.0787 B( 25-C , 26-H ) :   0.9450
B( 25-C , 27-H ) :   0.9552 B( 25-C , 28-C ) :   1.0537 B( 28-C , 29-H ) :   0.9701
B( 28-C , 30-H ) :   0.9760 B( 28-C , 31-H ) :   0.9769

Dispersion correction           -0.014078727
FINAL SINGLE POINT ENERGY     -1339.847970326033

DIPOLE MOMENT
-------------
                                X             Y             Z
Electronic contribution:     14.03590     -15.31553      11.03850
Nuclear contribution   :    -14.23035      15.98303     -11.30282
                        -----------------------------------------
Total Dipole Moment    :     -0.19445       0.66750      -0.26432
                        -----------------------------------------
Magnitude (a.u.)       :      0.74379
Magnitude (Debye)      :      1.89057

Rotational constants in cm-1:     0.019071     0.008414     0.006524
Rotational constants in MHz :   571.720901   252.234958   195.579475

                             ****ORCA TERMINATED NORMALLY****
TOTAL RUN TIME: 0 days 0 hours 0 minutes 20 seconds 431 msec
