                         Program Version 4.2.1 -  RELEASE  -
|  1> ! wB97X-D3 SP def2-SVP
|  2> %pal
|  3> nprocs 24
|  4> end
|  5>
|  6> * xyz 0 1
|  7> S 	 -101.443 	 38.2287 	 -91.375
|  8> C 	 -100.759 	 36.7588 	 -90.7168
|  9> C 	 -99.863 	 37.0403 	 -89.6977
| 10> C 	 -99.7089 	 38.4318 	 -89.4483
| 11> C 	 -100.526 	 39.2551 	 -90.2846
| 12> H 	 -99.1458 	 38.9646 	 -88.7023
| 13> C 	 -99.1899 	 36.0066 	 -88.8827
| 14> H 	 -99.9105 	 35.4138 	 -88.3757
| 15> H 	 -98.6621 	 36.4859 	 -88.0826
| 16> C 	 -98.1306 	 35.2313 	 -89.6656
| 17> H 	 -98.6262 	 34.5832 	 -90.3352
| 18> H 	 -97.5012 	 35.9204 	 -90.2651
| 19> C 	 -97.1814 	 34.395 	 -88.7385
| 20> H 	 -97.7443 	 33.7026 	 -88.058
| 21> H 	 -96.5021 	 33.751 	 -89.3228
| 22> H 	 -96.4436 	 34.9203 	 -88.1248
| 23> S 	 -100.613 	 41.592 	 -91.7417
| 24> C 	 -100.673 	 43.1558 	 -90.9927
| 25> C 	 -100.748 	 43.0064 	 -89.6445
| 26> C 	 -100.658 	 41.6484 	 -89.1679
| 27> C 	 -100.807 	 40.6946 	 -90.1927
| 28> H 	 -100.795 	 43.9005 	 -89.1472
| 29> C 	 -100.633 	 41.3718 	 -87.632
| 30> H 	 -100.862 	 40.3174 	 -87.5509
| 31> H 	 -101.445 	 41.9811 	 -87.2368
| 32> C 	 -99.2523 	 41.6727 	 -86.9252
| 33> H 	 -98.9754 	 42.7139 	 -87.033
| 34> H 	 -98.5589 	 41.0837 	 -87.4761
| 35> C 	 -99.3589 	 41.3205 	 -85.4668
| 36> H 	 -99.6481 	 40.2838 	 -85.4233
| 37> H 	 -100.148 	 41.9698 	 -85.0079
| 38> H 	 -98.4805 	 41.5018 	 -84.9021
| 39> H 	 -101.024 	 35.7365 	 -91.1103
| 40> H 	 -100.697 	 44.1121 	 -91.5092
| 41> *
| 42>
| 43>                          ****END OF INPUT****

CARTESIAN COORDINATES (ANGSTROEM)
---------------------------------
  S    -101.443000   38.228700  -91.375000
  C    -100.759000   36.758800  -90.716800
  C    -99.863000   37.040300  -89.697700
  C    -99.708900   38.431800  -89.448300
  C    -100.526000   39.255100  -90.284600
  H    -99.145800   38.964600  -88.702300
  C    -99.189900   36.006600  -88.882700
  H    -99.910500   35.413800  -88.375700
  H    -98.662100   36.485900  -88.082600
  C    -98.130600   35.231300  -89.665600
  H    -98.626200   34.583200  -90.335200
  H    -97.501200   35.920400  -90.265100
  C    -97.181400   34.395000  -88.738500
  H    -97.744300   33.702600  -88.058000
  H    -96.502100   33.751000  -89.322800
  H    -96.443600   34.920300  -88.124800
  S    -100.613000   41.592000  -91.741700
  C    -100.673000   43.155800  -90.992700
  C    -100.748000   43.006400  -89.644500
  C    -100.658000   41.648400  -89.167900
  C    -100.807000   40.694600  -90.192700
  H    -100.795000   43.900500  -89.147200
  C    -100.633000   41.371800  -87.632000
  H    -100.862000   40.317400  -87.550900
  H    -101.445000   41.981100  -87.236800
  C    -99.252300   41.672700  -86.925200
  H    -98.975400   42.713900  -87.033000
  H    -98.558900   41.083700  -87.476100
  C    -99.358900   41.320500  -85.466800
  H    -99.648100   40.283800  -85.423300
  H    -100.148000   41.969800  -85.007900
  H    -98.480500   41.501800  -84.902100
  H    -101.024000   35.736500  -91.110300
  H    -100.697000   44.112100  -91.509200

 Total Charge           Charge          ....    0
 Multiplicity           Mult            ....    1
 Number of Electrons    NEL             ....  134
 Basis Dimension        Dim             ....  322

ORBITAL ENERGIES
----------------

  NO   OCC          E(Eh)            E(eV)
   0   2.0000     -88.967042     -2420.9163
   1   2.0000     -88.958933     -2420.6956
   2   2.0000     -10.336048      -281.2582
   3   2.0000     -10.334350      -281.2120
   4   2.0000     -10.319134      -280.7979
   5   2.0000     -10.316644      -280.7302
   6   2.0000     -10.313223      -280.6371
   7   2.0000     -10.301183      -280.3094
   8   2.0000     -10.299365      -280.2600
   9   2.0000     -10.295970      -280.1676
  10   2.0000     -10.289312      -279.9864
  11   2.0000     -10.286863      -279.9198
  12   2.0000     -10.286308      -279.9047
  13   2.0000     -10.284909      -279.8666
  14   2.0000     -10.283117      -279.8178
  15   2.0000     -10.277530      -279.6658
  16   2.0000      -8.081495      -219.9087
  17   2.0000      -8.073672      -219.6958
  18   2.0000      -6.039964      -164.3558
  19   2.0000      -6.035833      -164.2434
  20   2.0000      -6.032518      -164.1532
  21   2.0000      -6.032348      -164.1485
  22   2.0000      -6.028114      -164.0333
  23   2.0000      -6.024278      -163.9289
  24   2.0000      -1.001858       -27.2620
  25   2.0000      -0.982517       -26.7357
  26   2.0000      -0.914907       -24.8959
  27   2.0000      -0.908672       -24.7262
  28   2.0000      -0.868653       -23.6372
  29   2.0000      -0.851255       -23.1638
  30   2.0000      -0.844158       -22.9707
  31   2.0000      -0.814340       -22.1593
  32   2.0000      -0.781418       -21.2635
  33   2.0000      -0.769910       -20.9503
  34   2.0000      -0.708492       -19.2790
  35   2.0000      -0.706629       -19.2284
  36   2.0000      -0.696450       -18.9514
  37   2.0000      -0.662051       -18.0153
  38   2.0000      -0.640196       -17.4206
  39   2.0000      -0.617580       -16.8052
  40   2.0000      -0.591881       -16.1059
  41   2.0000      -0.574498       -15.6329
  42   2.0000      -0.574039       -15.6204
  43   2.0000      -0.562913       -15.3176
  44   2.0000      -0.531294       -14.4572
  45   2.0000      -0.524333       -14.2678
  46   2.0000      -0.520386       -14.1604
  47   2.0000      -0.511027       -13.9058
  48   2.0000      -0.505134       -13.7454
  49   2.0000      -0.504166       -13.7191
  50   2.0000      -0.493587       -13.4312
  51   2.0000      -0.475612       -12.9421
  52   2.0000      -0.468090       -12.7374
  53   2.0000      -0.465928       -12.6786
  54   2.0000      -0.459734       -12.5100
  55   2.0000      -0.446522       -12.1505
  56   2.0000      -0.445143       -12.1130
  57   2.0000      -0.437600       -11.9077
  58   2.0000      -0.433697       -11.8015
  59   2.0000      -0.429886       -11.6978
  60   2.0000      -0.422941       -11.5088
  61   2.0000      -0.420326       -11.4376
  62   2.0000      -0.408400       -11.1131
  63   2.0000      -0.351295        -9.5592
  64   2.0000      -0.332537        -9.0488
  65   2.0000      -0.325267        -8.8510
  66   2.0000      -0.289994        -7.8911
  67   0.0000       0.022287         0.6065
  68   0.0000       0.071233         1.9384
  69   0.0000       0.115278         3.1369
  70   0.0000       0.117872         3.2075
  71   0.0000       0.126750         3.4490

MULLIKEN ATOMIC CHARGES
-----------------------
   0 S :    0.113402
   1 C :   -0.143175
   2 C :   -0.091833
   3 C :    0.040939
   4 C :   -0.165161
   5 H :   -0.005235
   6 C :    0.112155
   7 H :    0.028162
   8 H :   -0.000683
   9 C :   -0.059747
  10 H :    0.020065
  11 H :    0.040357
  12 C :   -0.076085
  13 H :    0.033485
  14 H :    0.028780
  15 H :    0.033387
  16 S :    0.070435
  17 C :   -0.082949
  18 C :    0.001892
  19 C :   -0.070817
  20 C :   -0.094160
  21 H :   -0.016619
  22 C :    0.022705
  23 H :    0.023348
  24 H :    0.035748
  25 C :   -0.057418
  26 H :    0.027019
  27 H :    0.021574
  28 C :   -0.013938
  29 H :    0.026036
  30 H :    0.031384
  31 H :    0.031425
  32 H :    0.072356
  33 H :    0.063165
Sum of atomic charges:    0.0000000

LOEWDIN ATOMIC CHARGES
----------------------
   0 S :    0.414053
   1 C :   -0.206330
   2 C :   -0.065249
   3 C :   -0.063136
   4 C :   -0.195784
   5 H :    0.027373
   6 C :   -0.030515
   7 H :    0.029509
   8 H :    0.026305
   9 C :   -0.029518
  10 H :    0.016042
  11 H :    0.032223
  12 C :   -0.076846
  13 H :    0.027225
  14 H :    0.027096
  15 H :    0.024030
  16 S :    0.384623
  17 C :   -0.177082
  18 C :   -0.072681
  19 C :   -0.047116
  20 C :   -0.192003
  21 H :    0.017537
  22 C :   -0.024889
  23 H :    0.025558
  24 H :    0.031022
  25 C :   -0.033407
  26 H :    0.022080
  27 H :    0.016383
  28 C :   -0.059859
  29 H :    0.024065
  30 H :    0.032130
  31 H :    0.020799
  32 H :    0.040756
  33 H :    0.035605

  Mayer bond orders larger than 0.100000
B(  0-S ,  1-C ) :   1.1494 B(  0-S ,  4-C ) :   1.1728 B(  1-C ,  2-C ) :   1.5689
B(  1-C ,  4-C ) :   0.1038 B(  1-C , 32-H ) :   0.9660 B(  2-C ,  3-C ) :   1.2708
B(  2-C ,  6-C ) :   1.0305 B(  3-C ,  4-C ) :   1.5344 B(  3-C ,  5-H ) :   0.9946
B(  4-C , 20-C ) :   1.0205 B(  6-C ,  7-H ) :   0.9319 B(  6-C ,  8-H ) :   0.9380
B(  6-C ,  9-C ) :   1.0555 B(  9-C , 10-H ) :   0.9579 B(  9-C , 11-H ) :   0.9579
B(  9-C , 12-C ) :   1.0788 B( 12-C , 13-H ) :   0.9752 B( 12-C , 14-H ) :   0.9753
B( 12-C , 15-H ) :   0.9770 B( 16-S , 17-C ) :   1.1593 B( 16-S , 20-C ) :   1.1173
B( 17-C , 18-C ) :   1.6241 B( 17-C , 33-H ) :   0.9637 B( 18-C , 19-C ) :   1.2121
B( 18-C , 21-H ) :   1.0062 B( 19-C , 20-C ) :   1.5975 B( 19-C , 22-C ) :   1.0312
B( 22-C , 23-H ) :   0.9434 B( 22-C , 24-H ) :   0.9440 B( 22-C , 25-C ) :   1.0509
B( 25-C , 26-H ) :   0.9549 B( 25-C , 27-H ) :   0.9536 B( 25-C , 28-C ) :   1.0906
B( 28-C , 29-H ) :   0.9729 B( 28-C , 30-H ) :   0.9715 B( 28-C , 31-H ) :   0.9733

Dispersion correction           -0.013664405
FINAL SINGLE POINT ENERGY     -1339.875452482481

DIPOLE MOMENT
-------------
                                X             Y             Z
Electronic contribution:    -15.04024      11.26603     -24.14024
Nuclear contribution   :     15.37127     -11.24968      24.82691
                        -----------------------------------------
Total Dipole Moment    :      0.33103       0.01635       0.68667
                        -----------------------------------------
Magnitude (a.u.)       :      0.76248
Magnitude (Debye)      :      1.93806

Rotational constants in cm-1:     0.017362     0.008313     0.006110
Rotational constants in MHz :   520.486315   249.205703   183.162512

                             ****ORCA TERMINATED NORMALLY****
TOTAL RUN TIME: 0 days 0 hours 0 minutes 21 seconds 172 msec
