                         Program Version 4.2.1 -  RELEASE  -
|  1> ! wB97X-D3 SP def2-SVP
|  2> %pal
|  3> nprocs 24
|  4> end
|  5>
|  6> * xyz 0 1
|  7> S 	 -75.2393 	 -5.94757 	 2.8991
|  8> C 	 -73.4972 	 -5.88819 	 2.91824
|  9> C 	 -72.9559 	 -6.98401 	 2.2514
| 10> C 	 -73.9331 	 -8.00654 	 1.94207
| 11> C 	 -75.1854 	 -7.48635 	 2.11015
| 12> H 	 -73.7449 	 -8.98657 	 1.54161
| 13> C 	 -71.5434 	 -7.20703 	 1.86271
| 14> H 	 -71.1346 	 -6.4046 	 1.16379
| 15> H 	 -71.6356 	 -8.03529 	 1.17725
| 16> C 	 -70.6366 	 -7.64091 	 3.04111
| 17> H 	 -69.6251 	 -7.49551 	 2.80099
| 18> H 	 -70.7228 	 -7.02423 	 3.93405
| 19> C 	 -70.8471 	 -9.12674 	 3.42481
| 20> H 	 -71.8221 	 -9.24258 	 3.89077
| 21> H 	 -70.7193 	 -9.81075 	 2.56383
| 22> H 	 -70.097 	 -9.39554 	 4.18758
| 23> S 	 -76.9595 	 -8.86286 	 0.557437
| 24> C 	 -78.2221 	 -9.9099 	 1.15631
| 25> C 	 -78.1235 	 -9.87475 	 2.56653
| 26> C 	 -77.1138 	 -8.99928 	 3.08305
| 27> C 	 -76.3888 	 -8.35266 	 2.0983
| 28> H 	 -78.867 	 -10.3913 	 3.20434
| 29> C 	 -76.8156 	 -8.8765 	 4.58111
| 30> H 	 -77.7617 	 -9.11364 	 5.04562
| 31> H 	 -76.6986 	 -7.7997 	 4.74724
| 32> C 	 -75.6995 	 -9.65236 	 5.15788
| 33> H 	 -74.7641 	 -9.65025 	 4.57719
| 34> H 	 -75.9764 	 -10.7129 	 5.29104
| 35> C 	 -75.3336 	 -9.21377 	 6.59384
| 36> H 	 -76.201 	 -9.07469 	 7.42144
| 37> H 	 -74.7424 	 -8.26971 	 6.57247
| 38> H 	 -74.6626 	 -9.89949 	 6.93168
| 39> H 	 -73.0285 	 -4.92777 	 3.09064
| 40> H 	 -78.8643 	 -10.5781 	 0.605776
| 41> *
| 42>
| 43>                          ****END OF INPUT****

CARTESIAN COORDINATES (ANGSTROEM)
---------------------------------
  S    -75.239300   -5.947570    2.899100
  C    -73.497200   -5.888190    2.918240
  C    -72.955900   -6.984010    2.251400
  C    -73.933100   -8.006540    1.942070
  C    -75.185400   -7.486350    2.110150
  H    -73.744900   -8.986570    1.541610
  C    -71.543400   -7.207030    1.862710
  H    -71.134600   -6.404600    1.163790
  H    -71.635600   -8.035290    1.177250
  C    -70.636600   -7.640910    3.041110
  H    -69.625100   -7.495510    2.800990
  H    -70.722800   -7.024230    3.934050
  C    -70.847100   -9.126740    3.424810
  H    -71.822100   -9.242580    3.890770
  H    -70.719300   -9.810750    2.563830
  H    -70.097000   -9.395540    4.187580
  S    -76.959500   -8.862860    0.557437
  C    -78.222100   -9.909900    1.156310
  C    -78.123500   -9.874750    2.566530
  C    -77.113800   -8.999280    3.083050
  C    -76.388800   -8.352660    2.098300
  H    -78.867000  -10.391300    3.204340
  C    -76.815600   -8.876500    4.581110
  H    -77.761700   -9.113640    5.045620
  H    -76.698600   -7.799700    4.747240
  C    -75.699500   -9.652360    5.157880
  H    -74.764100   -9.650250    4.577190
  H    -75.976400  -10.712900    5.291040
  C    -75.333600   -9.213770    6.593840
  H    -76.201000   -9.074690    7.421440
  H    -74.742400   -8.269710    6.572470
  H    -74.662600   -9.899490    6.931680
  H    -73.028500   -4.927770    3.090640
  H    -78.864300  -10.578100    0.605776

 Total Charge           Charge          ....    0
 Multiplicity           Mult            ....    1
 Number of Electrons    NEL             ....  134
 Basis Dimension        Dim             ....  322

ORBITAL ENERGIES
----------------

  NO   OCC          E(Eh)            E(eV)
   0   2.0000     -88.969835     -2420.9923
   1   2.0000     -88.961499     -2420.7655
   2   2.0000     -10.329307      -281.0747
   3   2.0000     -10.321324      -280.8575
   4   2.0000     -10.317637      -280.7572
   5   2.0000     -10.315780      -280.7067
   6   2.0000     -10.304890      -280.4103
   7   2.0000     -10.297783      -280.2169
   8   2.0000     -10.297762      -280.2164
   9   2.0000     -10.296131      -280.1720
  10   2.0000     -10.294404      -280.1250
  11   2.0000     -10.285599      -279.8854
  12   2.0000     -10.283480      -279.8277
  13   2.0000     -10.282612      -279.8041
  14   2.0000     -10.282117      -279.7906
  15   2.0000     -10.279083      -279.7081
  16   2.0000      -8.084847      -219.9999
  17   2.0000      -8.076542      -219.7739
  18   2.0000      -6.043275      -164.4459
  19   2.0000      -6.039307      -164.3379
  20   2.0000      -6.035681      -164.2392
  21   2.0000      -6.034973      -164.2200
  22   2.0000      -6.030671      -164.1029
  23   2.0000      -6.027703      -164.0221
  24   2.0000      -1.010296       -27.4916
  25   2.0000      -0.985830       -26.8258
  26   2.0000      -0.914112       -24.8742
  27   2.0000      -0.908113       -24.7110
  28   2.0000      -0.866776       -23.5862
  29   2.0000      -0.853611       -23.2279
  30   2.0000      -0.844873       -22.9902
  31   2.0000      -0.812467       -22.1083
  32   2.0000      -0.779638       -21.2150
  33   2.0000      -0.769926       -20.9508
  34   2.0000      -0.711969       -19.3737
  35   2.0000      -0.697388       -18.9769
  36   2.0000      -0.687119       -18.6975
  37   2.0000      -0.661774       -18.0078
  38   2.0000      -0.651357       -17.7243
  39   2.0000      -0.612014       -16.6538
  40   2.0000      -0.589711       -16.0468
  41   2.0000      -0.569944       -15.5090
  42   2.0000      -0.560431       -15.2501
  43   2.0000      -0.551663       -15.0115
  44   2.0000      -0.539631       -14.6841
  45   2.0000      -0.524282       -14.2664
  46   2.0000      -0.522543       -14.2191
  47   2.0000      -0.509472       -13.8634
  48   2.0000      -0.509149       -13.8546
  49   2.0000      -0.494516       -13.4565
  50   2.0000      -0.490993       -13.3606
  51   2.0000      -0.477343       -12.9892
  52   2.0000      -0.466047       -12.6818
  53   2.0000      -0.463305       -12.6072
  54   2.0000      -0.459145       -12.4940
  55   2.0000      -0.449374       -12.2281
  56   2.0000      -0.443363       -12.0645
  57   2.0000      -0.441019       -12.0007
  58   2.0000      -0.431459       -11.7406
  59   2.0000      -0.422747       -11.5035
  60   2.0000      -0.421353       -11.4656
  61   2.0000      -0.407482       -11.0882
  62   2.0000      -0.405665       -11.0387
  63   2.0000      -0.342517        -9.3204
  64   2.0000      -0.328014        -8.9257
  65   2.0000      -0.324445        -8.8286
  66   2.0000      -0.304881        -8.2962
  67   0.0000       0.038529         1.0484
  68   0.0000       0.061033         1.6608
  69   0.0000       0.109448         2.9782
  70   0.0000       0.115133         3.1329
  71   0.0000       0.130962         3.5637

MULLIKEN ATOMIC CHARGES
-----------------------
   0 S :    0.114090
   1 C :   -0.121543
   2 C :   -0.098953
   3 C :    0.037828
   4 C :   -0.127552
   5 H :    0.025155
   6 C :    0.050275
   7 H :    0.049999
   8 H :    0.006632
   9 C :   -0.029256
  10 H :    0.012178
  11 H :    0.027707
  12 C :   -0.080903
  13 H :    0.043265
  14 H :    0.037865
  15 H :    0.037418
  16 S :    0.099089
  17 C :   -0.096124
  18 C :   -0.059316
  19 C :   -0.056250
  20 C :   -0.185517
  21 H :    0.029213
  22 C :    0.116540
  23 H :    0.005048
  24 H :    0.016026
  25 C :   -0.057887
  26 H :    0.037993
  27 H :    0.025808
  28 C :   -0.069738
  29 H :    0.049013
  30 H :    0.035155
  31 H :    0.009367
  32 H :    0.057554
  33 H :    0.059818
Sum of atomic charges:    0.0000000

LOEWDIN ATOMIC CHARGES
----------------------
   0 S :    0.427490
   1 C :   -0.201142
   2 C :   -0.057197
   3 C :   -0.051259
   4 C :   -0.200989
   5 H :    0.034925
   6 C :   -0.040643
   7 H :    0.042020
   8 H :    0.026896
   9 C :   -0.034609
  10 H :    0.015725
  11 H :    0.025706
  12 C :   -0.065525
  13 H :    0.024242
  14 H :    0.026123
  15 H :    0.029658
  16 S :    0.426282
  17 C :   -0.199510
  18 C :   -0.077945
  19 C :   -0.066532
  20 C :   -0.213148
  21 H :    0.033232
  22 C :   -0.035584
  23 H :    0.028491
  24 H :    0.025617
  25 C :   -0.041845
  26 H :    0.030057
  27 H :    0.026713
  28 C :   -0.070174
  29 H :    0.038728
  30 H :    0.026995
  31 H :    0.008834
  32 H :    0.026558
  33 H :    0.031812

  Mayer bond orders larger than 0.100000
B(  0-S ,  1-C ) :   1.1391 B(  0-S ,  4-C ) :   1.1723 B(  1-C ,  2-C ) :   1.6076
B(  1-C , 32-H ) :   0.9679 B(  2-C ,  3-C ) :   1.2304 B(  2-C ,  6-C ) :   1.0237
B(  3-C ,  4-C ) :   1.5918 B(  3-C ,  5-H ) :   0.9871 B(  4-C , 20-C ) :   0.9673
B(  6-C ,  7-H ) :   0.9400 B(  6-C ,  8-H ) :   0.9432 B(  6-C ,  9-C ) :   1.0551
B(  9-C , 10-H ) :   0.9555 B(  9-C , 11-H ) :   0.9598 B(  9-C , 12-C ) :   1.0786
B( 12-C , 13-H ) :   0.9775 B( 12-C , 14-H ) :   0.9751 B( 12-C , 15-H ) :   0.9732
B( 16-S , 17-C ) :   1.1723 B( 16-S , 20-C ) :   1.1667 B( 17-C , 18-C ) :   1.5588
B( 17-C , 20-C ) :   0.1063 B( 17-C , 33-H ) :   0.9728 B( 18-C , 19-C ) :   1.2930
B( 18-C , 21-H ) :   0.9807 B( 19-C , 20-C ) :   1.5751 B( 19-C , 22-C ) :   1.0299
B( 22-C , 23-H ) :   0.9188 B( 22-C , 24-H ) :   0.9319 B( 22-C , 25-C ) :   1.0784
B( 25-C , 26-H ) :   0.9507 B( 25-C , 27-H ) :   0.9510 B( 25-C , 28-C ) :   1.0813
B( 28-C , 29-H ) :   0.9735 B( 28-C , 30-H ) :   0.9732 B( 28-C , 31-H ) :   0.9725

Dispersion correction           -0.015498781
FINAL SINGLE POINT ENERGY     -1339.870505137445

DIPOLE MOMENT
-------------
                                X             Y             Z
Electronic contribution:    -17.74777       9.30363     -17.51030
Nuclear contribution   :     18.29003      -9.53726      17.75462
                        -----------------------------------------
Total Dipole Moment    :      0.54226      -0.23363       0.24432
                        -----------------------------------------
Magnitude (a.u.)       :      0.63900
Magnitude (Debye)      :      1.62421

Rotational constants in cm-1:     0.018027     0.009512     0.008102
Rotational constants in MHz :   540.431186   285.170200   242.882646

                             ****ORCA TERMINATED NORMALLY****
TOTAL RUN TIME: 0 days 0 hours 0 minutes 21 seconds 287 msec
