                         Program Version 4.2.1 -  RELEASE  -
|  1> ! wB97X-D3 SP def2-SVP
|  2> %pal
|  3> nprocs 24
|  4> end
|  5>
|  6> * xyz 0 1
|  7> S 	 -100.936 	 -2.69622 	 -105.078
|  8> C 	 -100.19 	 -4.21897 	 -104.962
|  9> C 	 -100.951 	 -5.21433 	 -105.566
| 10> C 	 -102.066 	 -4.69767 	 -106.321
| 11> C 	 -102.243 	 -3.33509 	 -106.069
| 12> H 	 -102.849 	 -5.24759 	 -106.827
| 13> C 	 -100.367 	 -6.64097 	 -105.682
| 14> H 	 -99.767 	 -6.92813 	 -104.768
| 15> H 	 -99.6109 	 -6.62129 	 -106.504
| 16> C 	 -101.369 	 -7.86698 	 -105.996
| 17> H 	 -101.959 	 -7.66433 	 -106.825
| 18> H 	 -100.741 	 -8.75743 	 -106.139
| 19> C 	 -102.306 	 -8.18575 	 -104.818
| 20> H 	 -103.019 	 -9.03262 	 -104.956
| 21> H 	 -101.673 	 -8.42844 	 -103.907
| 22> H 	 -102.905 	 -7.29352 	 -104.633
| 23> S 	 -102.724 	 -0.788106 	 -106.956
| 24> C 	 -104.329 	 -0.399084 	 -107.425
| 25> C 	 -105.189 	 -1.48012 	 -107.495
| 26> C 	 -104.567 	 -2.6998 	 -107.005
| 27> C 	 -103.232 	 -2.46584 	 -106.656
| 28> H 	 -106.233 	 -1.35741 	 -107.647
| 29> C 	 -105.387 	 -3.98377 	 -106.673
| 30> H 	 -105.127 	 -4.22861 	 -105.668
| 31> H 	 -104.861 	 -4.76505 	 -107.271
| 32> C 	 -106.789 	 -3.94144 	 -107.158
| 33> H 	 -106.935 	 -3.85628 	 -108.249
| 34> H 	 -107.326 	 -3.15298 	 -106.694
| 35> C 	 -107.405 	 -5.23788 	 -106.765
| 36> H 	 -106.903 	 -5.90665 	 -107.512
| 37> H 	 -108.468 	 -5.16878 	 -106.994
| 38> H 	 -107.254 	 -5.56847 	 -105.694
| 39> H 	 -99.157 	 -4.41499 	 -104.607
| 40> H 	 -104.662 	 0.579871 	 -107.708
| 41> *
| 42>
| 43>                          ****END OF INPUT****

CARTESIAN COORDINATES (ANGSTROEM)
---------------------------------
  S    -100.936000   -2.696220  -105.078000
  C    -100.190000   -4.218970  -104.962000
  C    -100.951000   -5.214330  -105.566000
  C    -102.066000   -4.697670  -106.321000
  C    -102.243000   -3.335090  -106.069000
  H    -102.849000   -5.247590  -106.827000
  C    -100.367000   -6.640970  -105.682000
  H    -99.767000   -6.928130  -104.768000
  H    -99.610900   -6.621290  -106.504000
  C    -101.369000   -7.866980  -105.996000
  H    -101.959000   -7.664330  -106.825000
  H    -100.741000   -8.757430  -106.139000
  C    -102.306000   -8.185750  -104.818000
  H    -103.019000   -9.032620  -104.956000
  H    -101.673000   -8.428440  -103.907000
  H    -102.905000   -7.293520  -104.633000
  S    -102.724000   -0.788106  -106.956000
  C    -104.329000   -0.399084  -107.425000
  C    -105.189000   -1.480120  -107.495000
  C    -104.567000   -2.699800  -107.005000
  C    -103.232000   -2.465840  -106.656000
  H    -106.233000   -1.357410  -107.647000
  C    -105.387000   -3.983770  -106.673000
  H    -105.127000   -4.228610  -105.668000
  H    -104.861000   -4.765050  -107.271000
  C    -106.789000   -3.941440  -107.158000
  H    -106.935000   -3.856280  -108.249000
  H    -107.326000   -3.152980  -106.694000
  C    -107.405000   -5.237880  -106.765000
  H    -106.903000   -5.906650  -107.512000
  H    -108.468000   -5.168780  -106.994000
  H    -107.254000   -5.568470  -105.694000
  H    -99.157000   -4.414990  -104.607000
  H    -104.662000    0.579871  -107.708000

 Total Charge           Charge          ....    0
 Multiplicity           Mult            ....    1
 Number of Electrons    NEL             ....  134
 Basis Dimension        Dim             ....  322

ORBITAL ENERGIES
----------------

  NO   OCC          E(Eh)            E(eV)
   0   2.0000     -88.967370     -2420.9252
   1   2.0000     -88.966755     -2420.9085
   2   2.0000     -10.329568      -281.0818
   3   2.0000     -10.324817      -280.9525
   4   2.0000     -10.313987      -280.6578
   5   2.0000     -10.310974      -280.5759
   6   2.0000     -10.306954      -280.4665
   7   2.0000     -10.304995      -280.4132
   8   2.0000     -10.303940      -280.3845
   9   2.0000     -10.297641      -280.2131
  10   2.0000     -10.297155      -280.1998
  11   2.0000     -10.292200      -280.0650
  12   2.0000     -10.288211      -279.9564
  13   2.0000     -10.284613      -279.8586
  14   2.0000     -10.283912      -279.8395
  15   2.0000     -10.281794      -279.7818
  16   2.0000      -8.082629      -219.9395
  17   2.0000      -8.081621      -219.9121
  18   2.0000      -6.041049      -164.3853
  19   2.0000      -6.040041      -164.3579
  20   2.0000      -6.037019      -164.2756
  21   2.0000      -6.036216      -164.2538
  22   2.0000      -6.033500      -164.1799
  23   2.0000      -6.032374      -164.1492
  24   2.0000      -1.006777       -27.3958
  25   2.0000      -0.982718       -26.7411
  26   2.0000      -0.927594       -25.2411
  27   2.0000      -0.898765       -24.4567
  28   2.0000      -0.871064       -23.7029
  29   2.0000      -0.856523       -23.3072
  30   2.0000      -0.843714       -22.9586
  31   2.0000      -0.812976       -22.1222
  32   2.0000      -0.781425       -21.2637
  33   2.0000      -0.763494       -20.7757
  34   2.0000      -0.708449       -19.2779
  35   2.0000      -0.702543       -19.1172
  36   2.0000      -0.686320       -18.6757
  37   2.0000      -0.653654       -17.7868
  38   2.0000      -0.636795       -17.3281
  39   2.0000      -0.619939       -16.8694
  40   2.0000      -0.599271       -16.3070
  41   2.0000      -0.586393       -15.9566
  42   2.0000      -0.563795       -15.3417
  43   2.0000      -0.542823       -14.7710
  44   2.0000      -0.540959       -14.7202
  45   2.0000      -0.537952       -14.6384
  46   2.0000      -0.516678       -14.0595
  47   2.0000      -0.511460       -13.9175
  48   2.0000      -0.501419       -13.6443
  49   2.0000      -0.496270       -13.5042
  50   2.0000      -0.484680       -13.1888
  51   2.0000      -0.478503       -13.0207
  52   2.0000      -0.469623       -12.7791
  53   2.0000      -0.460719       -12.5368
  54   2.0000      -0.457717       -12.4551
  55   2.0000      -0.456683       -12.4270
  56   2.0000      -0.446580       -12.1521
  57   2.0000      -0.441502       -12.0139
  58   2.0000      -0.434910       -11.8345
  59   2.0000      -0.429080       -11.6758
  60   2.0000      -0.422289       -11.4911
  61   2.0000      -0.413718       -11.2578
  62   2.0000      -0.409265       -11.1367
  63   2.0000      -0.355361        -9.6699
  64   2.0000      -0.332429        -9.0458
  65   2.0000      -0.329210        -8.9583
  66   2.0000      -0.279774        -7.6130
  67   0.0000       0.020675         0.5626
  68   0.0000       0.081229         2.2104
  69   0.0000       0.104350         2.8395
  70   0.0000       0.118616         3.2277
  71   0.0000       0.127132         3.4594

MULLIKEN ATOMIC CHARGES
-----------------------
   0 S :    0.119766
   1 C :   -0.131357
   2 C :   -0.063349
   3 C :    0.014789
   4 C :   -0.154496
   5 H :    0.009024
   6 C :   -0.023386
   7 H :    0.036070
   8 H :    0.053899
   9 C :   -0.048081
  10 H :    0.022249
  11 H :    0.034077
  12 C :   -0.087454
  13 H :    0.043395
  14 H :    0.035695
  15 H :    0.034428
  16 S :    0.111097
  17 C :   -0.064017
  18 C :   -0.037878
  19 C :   -0.059313
  20 C :   -0.147617
  21 H :    0.010571
  22 C :    0.043772
  23 H :    0.042475
  24 H :    0.033632
  25 C :   -0.071341
  26 H :    0.043138
  27 H :    0.025055
  28 C :   -0.046950
  29 H :    0.029955
  30 H :    0.032555
  31 H :    0.050249
  32 H :    0.064837
  33 H :    0.044511
Sum of atomic charges:   -0.0000000

LOEWDIN ATOMIC CHARGES
----------------------
   0 S :    0.421417
   1 C :   -0.223568
   2 C :   -0.067266
   3 C :   -0.068711
   4 C :   -0.187627
   5 H :    0.028389
   6 C :   -0.037920
   7 H :    0.033422
   8 H :    0.037154
   9 C :   -0.036111
  10 H :    0.010860
  11 H :    0.028119
  12 C :   -0.074654
  13 H :    0.027873
  14 H :    0.029525
  15 H :    0.022319
  16 S :    0.404640
  17 C :   -0.186591
  18 C :   -0.073594
  19 C :   -0.046996
  20 C :   -0.197608
  21 H :    0.025532
  22 C :   -0.027528
  23 H :    0.034229
  24 H :    0.034693
  25 C :   -0.047826
  26 H :    0.035591
  27 H :    0.015944
  28 C :   -0.063210
  29 H :    0.030233
  30 H :    0.023955
  31 H :    0.032222
  32 H :    0.038811
  33 H :    0.024281

  Mayer bond orders larger than 0.100000
B(  0-S ,  1-C ) :   1.1475 B(  0-S ,  4-C ) :   1.1543 B(  1-C ,  2-C ) :   1.5949
B(  1-C , 32-H ) :   0.9637 B(  2-C ,  3-C ) :   1.2512 B(  2-C ,  6-C ) :   1.0124
B(  3-C ,  4-C ) :   1.5507 B(  3-C ,  5-H ) :   0.9828 B(  4-C , 20-C ) :   1.0987
B(  6-C ,  7-H ) :   0.9494 B(  6-C ,  8-H ) :   0.9468 B(  6-C ,  9-C ) :   1.0676
B(  9-C , 10-H ) :   0.9573 B(  9-C , 11-H ) :   0.9577 B(  9-C , 12-C ) :   1.0726
B( 12-C , 13-H ) :   0.9760 B( 12-C , 14-H ) :   0.9751 B( 12-C , 15-H ) :   0.9772
B( 16-S , 17-C ) :   1.1585 B( 16-S , 20-C ) :   1.1249 B( 17-C , 18-C ) :   1.6129
B( 17-C , 33-H ) :   0.9621 B( 18-C , 19-C ) :   1.2512 B( 18-C , 21-H ) :   0.9859
B( 19-C , 20-C ) :   1.6009 B( 19-C , 22-C ) :   1.0081 B( 22-C , 23-H ) :   0.9393
B( 22-C , 24-H ) :   0.9214 B( 22-C , 25-C ) :   1.0935 B( 25-C , 26-H ) :   0.9483
B( 25-C , 27-H ) :   0.9401 B( 25-C , 28-C ) :   1.0798 B( 28-C , 29-H ) :   0.9766
B( 28-C , 30-H ) :   0.9700 B( 28-C , 31-H ) :   0.9727

Dispersion correction           -0.013758605
FINAL SINGLE POINT ENERGY     -1339.870008666105

DIPOLE MOMENT
-------------
                                X             Y             Z
Electronic contribution:     14.59565      28.34889       0.08605
Nuclear contribution   :    -15.01400     -28.80279      -0.22653
                        -----------------------------------------
Total Dipole Moment    :     -0.41834      -0.45390      -0.14048
                        -----------------------------------------
Magnitude (a.u.)       :      0.63307
Magnitude (Debye)      :      1.60913

Rotational constants in cm-1:     0.015966     0.009955     0.006412
Rotational constants in MHz :   478.654370   298.446398   192.219374

                             ****ORCA TERMINATED NORMALLY****
TOTAL RUN TIME: 0 days 0 hours 0 minutes 21 seconds 625 msec
