                         Program Version 4.2.1 -  RELEASE  -
|  1> ! wB97X-D3 SP def2-SVP
|  2> %pal
|  3> nprocs 24
|  4> end
|  5>
|  6> * xyz 0 1
|  7> S 	 -129.45 	 67.7454 	 -51.0306
|  8> C 	 -130.751 	 68.1065 	 -52.2119
|  9> C 	 -130.269 	 69.004 	 -53.151
| 10> C 	 -128.878 	 69.298 	 -52.9923
| 11> C 	 -128.279 	 68.5685 	 -51.9597
| 12> H 	 -128.296 	 69.9992 	 -53.5336
| 13> C 	 -131.283 	 69.7108 	 -54.0747
| 14> H 	 -132.231 	 69.7973 	 -53.5093
| 15> H 	 -131.44 	 69.1013 	 -54.9128
| 16> C 	 -130.747 	 70.9533 	 -54.7547
| 17> H 	 -129.799 	 70.5677 	 -55.2377
| 18> H 	 -131.348 	 71.1996 	 -55.6558
| 19> C 	 -130.677 	 72.3108 	 -53.9795
| 20> H 	 -130.198 	 73.1623 	 -54.503
| 21> H 	 -131.652 	 72.6806 	 -53.6079
| 22> H 	 -130.124 	 72.1224 	 -53.0365
| 23> S 	 -127.102 	 70.0175 	 -49.9775
| 24> C 	 -125.394 	 69.8295 	 -49.6339
| 25> C 	 -124.775 	 69.0024 	 -50.5503
| 26> C 	 -125.719 	 68.4736 	 -51.5051
| 27> C 	 -127.048 	 68.871 	 -51.2743
| 28> H 	 -123.685 	 68.7488 	 -50.505
| 29> C 	 -125.37 	 67.4278 	 -52.6047
| 30> H 	 -126.222 	 66.9 	 -52.9613
| 31> H 	 -124.747 	 66.6301 	 -52.1734
| 32> C 	 -124.519 	 68.0061 	 -53.6753
| 33> H 	 -124.249 	 67.2585 	 -54.3904
| 34> H 	 -123.521 	 68.2384 	 -53.314
| 35> C 	 -125.309 	 69.1186 	 -54.3401
| 36> H 	 -126.172 	 68.7867 	 -54.9286
| 37> H 	 -124.719 	 69.6722 	 -55.0626
| 38> H 	 -125.726 	 69.726 	 -53.5496
| 39> H 	 -131.801 	 67.8337 	 -52.0922
| 40> H 	 -124.931 	 70.1909 	 -48.7683
| 41> *
| 42>
| 43>                          ****END OF INPUT****

CARTESIAN COORDINATES (ANGSTROEM)
---------------------------------
  S    -129.450000   67.745400  -51.030600
  C    -130.751000   68.106500  -52.211900
  C    -130.269000   69.004000  -53.151000
  C    -128.878000   69.298000  -52.992300
  C    -128.279000   68.568500  -51.959700
  H    -128.296000   69.999200  -53.533600
  C    -131.283000   69.710800  -54.074700
  H    -132.231000   69.797300  -53.509300
  H    -131.440000   69.101300  -54.912800
  C    -130.747000   70.953300  -54.754700
  H    -129.799000   70.567700  -55.237700
  H    -131.348000   71.199600  -55.655800
  C    -130.677000   72.310800  -53.979500
  H    -130.198000   73.162300  -54.503000
  H    -131.652000   72.680600  -53.607900
  H    -130.124000   72.122400  -53.036500
  S    -127.102000   70.017500  -49.977500
  C    -125.394000   69.829500  -49.633900
  C    -124.775000   69.002400  -50.550300
  C    -125.719000   68.473600  -51.505100
  C    -127.048000   68.871000  -51.274300
  H    -123.685000   68.748800  -50.505000
  C    -125.370000   67.427800  -52.604700
  H    -126.222000   66.900000  -52.961300
  H    -124.747000   66.630100  -52.173400
  C    -124.519000   68.006100  -53.675300
  H    -124.249000   67.258500  -54.390400
  H    -123.521000   68.238400  -53.314000
  C    -125.309000   69.118600  -54.340100
  H    -126.172000   68.786700  -54.928600
  H    -124.719000   69.672200  -55.062600
  H    -125.726000   69.726000  -53.549600
  H    -131.801000   67.833700  -52.092200
  H    -124.931000   70.190900  -48.768300

 Total Charge           Charge          ....    0
 Multiplicity           Mult            ....    1
 Number of Electrons    NEL             ....  134
 Basis Dimension        Dim             ....  322

ORBITAL ENERGIES
----------------

  NO   OCC          E(Eh)            E(eV)
   0   2.0000     -88.965836     -2420.8835
   1   2.0000     -88.964230     -2420.8398
   2   2.0000     -10.325975      -280.9841
   3   2.0000     -10.322940      -280.9015
   4   2.0000     -10.317011      -280.7401
   5   2.0000     -10.314918      -280.6832
   6   2.0000     -10.306756      -280.4611
   7   2.0000     -10.304799      -280.4078
   8   2.0000     -10.301004      -280.3046
   9   2.0000     -10.297687      -280.2143
  10   2.0000     -10.296304      -280.1767
  11   2.0000     -10.293319      -280.0954
  12   2.0000     -10.284715      -279.8613
  13   2.0000     -10.283712      -279.8340
  14   2.0000     -10.275201      -279.6024
  15   2.0000     -10.266696      -279.3710
  16   2.0000      -8.080650      -219.8857
  17   2.0000      -8.079306      -219.8491
  18   2.0000      -6.039156      -164.3338
  19   2.0000      -6.037780      -164.2963
  20   2.0000      -6.034991      -164.2205
  21   2.0000      -6.033648      -164.1839
  22   2.0000      -6.031532      -164.1263
  23   2.0000      -6.030192      -164.0899
  24   2.0000      -1.009621       -27.4732
  25   2.0000      -0.982239       -26.7281
  26   2.0000      -0.915372       -24.9085
  27   2.0000      -0.913133       -24.8476
  28   2.0000      -0.869663       -23.6647
  29   2.0000      -0.839632       -22.8476
  30   2.0000      -0.839186       -22.8354
  31   2.0000      -0.816140       -22.2083
  32   2.0000      -0.786300       -21.3963
  33   2.0000      -0.774974       -21.0881
  34   2.0000      -0.712587       -19.3905
  35   2.0000      -0.698707       -19.0128
  36   2.0000      -0.686217       -18.6729
  37   2.0000      -0.654116       -17.7994
  38   2.0000      -0.642752       -17.4902
  39   2.0000      -0.621058       -16.8998
  40   2.0000      -0.598872       -16.2961
  41   2.0000      -0.565244       -15.3811
  42   2.0000      -0.559044       -15.2124
  43   2.0000      -0.555950       -15.1282
  44   2.0000      -0.539655       -14.6848
  45   2.0000      -0.535264       -14.5653
  46   2.0000      -0.514920       -14.0117
  47   2.0000      -0.513503       -13.9731
  48   2.0000      -0.503687       -13.7060
  49   2.0000      -0.494052       -13.4438
  50   2.0000      -0.489666       -13.3245
  51   2.0000      -0.478976       -13.0336
  52   2.0000      -0.466661       -12.6985
  53   2.0000      -0.464422       -12.6376
  54   2.0000      -0.462087       -12.5740
  55   2.0000      -0.450535       -12.2597
  56   2.0000      -0.447804       -12.1854
  57   2.0000      -0.435505       -11.8507
  58   2.0000      -0.428079       -11.6486
  59   2.0000      -0.425221       -11.5709
  60   2.0000      -0.421834       -11.4787
  61   2.0000      -0.406398       -11.0586
  62   2.0000      -0.403294       -10.9742
  63   2.0000      -0.339996        -9.2518
  64   2.0000      -0.325960        -8.8698
  65   2.0000      -0.322027        -8.7628
  66   2.0000      -0.306596        -8.3429
  67   0.0000       0.034186         0.9303
  68   0.0000       0.054857         1.4927
  69   0.0000       0.109098         2.9687
  70   0.0000       0.127457         3.4683
  71   0.0000       0.130786         3.5589

MULLIKEN ATOMIC CHARGES
-----------------------
   0 S :    0.108866
   1 C :   -0.139282
   2 C :   -0.092301
   3 C :    0.047084
   4 C :   -0.157892
   5 H :    0.007492
   6 C :    0.110369
   7 H :    0.035319
   8 H :    0.028017
   9 C :   -0.131048
  10 H :    0.036300
  11 H :    0.030461
  12 C :   -0.055221
  13 H :    0.048047
  14 H :    0.032176
  15 H :    0.031838
  16 S :    0.122641
  17 C :   -0.078529
  18 C :   -0.037383
  19 C :   -0.060518
  20 C :   -0.182526
  21 H :    0.040941
  22 C :    0.080202
  23 H :    0.024278
  24 H :    0.019817
  25 C :   -0.046716
  26 H :    0.013656
  27 H :    0.018065
  28 C :   -0.047714
  29 H :    0.023767
  30 H :    0.025805
  31 H :    0.046907
  32 H :    0.055475
  33 H :    0.041607
Sum of atomic charges:   -0.0000000

LOEWDIN ATOMIC CHARGES
----------------------
   0 S :    0.422236
   1 C :   -0.189731
   2 C :   -0.061883
   3 C :   -0.055532
   4 C :   -0.214749
   5 H :    0.025725
   6 C :   -0.027953
   7 H :    0.032869
   8 H :    0.032993
   9 C :   -0.053214
  10 H :    0.032434
  11 H :    0.026842
  12 C :   -0.077319
  13 H :    0.031546
  14 H :    0.028271
  15 H :    0.026094
  16 S :    0.416606
  17 C :   -0.175910
  18 C :   -0.074368
  19 C :   -0.051317
  20 C :   -0.222814
  21 H :    0.042138
  22 C :   -0.025973
  23 H :    0.026202
  24 H :    0.031769
  25 C :   -0.043977
  26 H :    0.021399
  27 H :    0.021843
  28 C :   -0.065858
  29 H :    0.026123
  30 H :    0.021843
  31 H :    0.023651
  32 H :    0.031095
  33 H :    0.018917

  Mayer bond orders larger than 0.100000
B(  0-S ,  1-C ) :   1.1446 B(  0-S ,  4-C ) :   1.1833 B(  1-C ,  2-C ) :   1.5939
B(  1-C ,  4-C ) :   0.1029 B(  1-C , 32-H ) :   0.9734 B(  2-C ,  3-C ) :   1.2607
B(  2-C ,  6-C ) :   0.9966 B(  3-C ,  4-C ) :   1.5408 B(  3-C ,  5-H ) :   0.9985
B(  4-C , 20-C ) :   1.0118 B(  6-C ,  7-H ) :   0.9506 B(  6-C ,  8-H ) :   0.9248
B(  6-C ,  9-C ) :   1.0833 B(  9-C , 10-H ) :   0.9453 B(  9-C , 11-H ) :   0.9569
B(  9-C , 12-C ) :   1.0625 B( 12-C , 13-H ) :   0.9763 B( 12-C , 14-H ) :   0.9730
B( 12-C , 15-H ) :   0.9771 B( 16-S , 17-C ) :   1.1617 B( 16-S , 20-C ) :   1.1510
B( 17-C , 18-C ) :   1.6021 B( 17-C , 33-H ) :   0.9744 B( 18-C , 19-C ) :   1.2493
B( 18-C , 21-H ) :   0.9823 B( 19-C , 20-C ) :   1.5839 B( 19-C , 22-C ) :   1.0387
B( 22-C , 23-H ) :   0.9404 B( 22-C , 24-H ) :   0.9364 B( 22-C , 25-C ) :   1.0844
B( 25-C , 26-H ) :   0.9474 B( 25-C , 27-H ) :   0.9534 B( 25-C , 28-C ) :   1.0691
B( 28-C , 29-H ) :   0.9703 B( 28-C , 30-H ) :   0.9697 B( 28-C , 31-H ) :   0.9741

Dispersion correction           -0.015407995
FINAL SINGLE POINT ENERGY     -1339.868516640767

DIPOLE MOMENT
-------------
                                X             Y             Z
Electronic contribution:     -1.52063      -7.48804      21.55332
Nuclear contribution   :      1.53054       7.59397     -21.91097
                        -----------------------------------------
Total Dipole Moment    :      0.00991       0.10593      -0.35764
                        -----------------------------------------
Magnitude (a.u.)       :      0.37313
Magnitude (Debye)      :      0.94843

Rotational constants in cm-1:     0.019053     0.009084     0.008188
Rotational constants in MHz :   571.183672   272.345749   245.476978

                             ****ORCA TERMINATED NORMALLY****
TOTAL RUN TIME: 0 days 0 hours 0 minutes 21 seconds 318 msec
