                         Program Version 4.2.1 -  RELEASE  -
|  1> ! wB97X-D3 SP def2-SVP
|  2> %pal
|  3> nprocs 24
|  4> end
|  5>
|  6> * xyz 0 1
|  7> S 	 -120.259 	 27.3736 	 -16.0638
|  8> C 	 -118.701 	 27.2816 	 -16.6998
|  9> C 	 -117.71 	 26.8884 	 -15.8194
| 10> C 	 -118.234 	 26.571 	 -14.5357
| 11> C 	 -119.641 	 26.6804 	 -14.5468
| 12> H 	 -117.83 	 26.2547 	 -13.5544
| 13> C 	 -116.261 	 26.7559 	 -16.1578
| 14> H 	 -116.089 	 27.6548 	 -16.6613
| 15> H 	 -116.145 	 25.9186 	 -16.8898
| 16> C 	 -115.282 	 26.6495 	 -14.9756
| 17> H 	 -115.665 	 27.1555 	 -14.0666
| 18> H 	 -115.142 	 25.6077 	 -14.7113
| 19> C 	 -113.907 	 27.2599 	 -15.4081
| 20> H 	 -113.362 	 26.905 	 -16.3587
| 21> H 	 -114.186 	 28.3125 	 -15.6013
| 22> H 	 -113.143 	 27.1257 	 -14.598
| 23> S 	 -121.777 	 25.083 	 -13.9964
| 24> C 	 -122.581 	 25.1693 	 -12.4756
| 25> C 	 -121.769 	 25.8474 	 -11.5775
| 26> C 	 -120.624 	 26.485 	 -12.1827
| 27> C 	 -120.566 	 26.2091 	 -13.5232
| 28> H 	 -121.992 	 25.8601 	 -10.539
| 29> C 	 -119.839 	 27.5445 	 -11.4237
| 30> H 	 -118.763 	 27.5277 	 -11.6624
| 31> H 	 -119.93 	 27.4095 	 -10.3592
| 32> C 	 -120.461 	 28.957 	 -11.8405
| 33> H 	 -120.303 	 29.2927 	 -12.9041
| 34> H 	 -120.009 	 29.8074 	 -11.301
| 35> C 	 -121.933 	 29.0844 	 -11.6058
| 36> H 	 -122.218 	 28.6846 	 -10.6623
| 37> H 	 -122.401 	 28.5721 	 -12.4423
| 38> H 	 -122.306 	 30.0889 	 -11.5124
| 39> H 	 -118.563 	 27.5099 	 -17.7119
| 40> H 	 -123.45 	 24.5601 	 -12.1646
| 41> *
| 42>
| 43>                          ****END OF INPUT****

CARTESIAN COORDINATES (ANGSTROEM)
---------------------------------
  S    -120.259000   27.373600  -16.063800
  C    -118.701000   27.281600  -16.699800
  C    -117.710000   26.888400  -15.819400
  C    -118.234000   26.571000  -14.535700
  C    -119.641000   26.680400  -14.546800
  H    -117.830000   26.254700  -13.554400
  C    -116.261000   26.755900  -16.157800
  H    -116.089000   27.654800  -16.661300
  H    -116.145000   25.918600  -16.889800
  C    -115.282000   26.649500  -14.975600
  H    -115.665000   27.155500  -14.066600
  H    -115.142000   25.607700  -14.711300
  C    -113.907000   27.259900  -15.408100
  H    -113.362000   26.905000  -16.358700
  H    -114.186000   28.312500  -15.601300
  H    -113.143000   27.125700  -14.598000
  S    -121.777000   25.083000  -13.996400
  C    -122.581000   25.169300  -12.475600
  C    -121.769000   25.847400  -11.577500
  C    -120.624000   26.485000  -12.182700
  C    -120.566000   26.209100  -13.523200
  H    -121.992000   25.860100  -10.539000
  C    -119.839000   27.544500  -11.423700
  H    -118.763000   27.527700  -11.662400
  H    -119.930000   27.409500  -10.359200
  C    -120.461000   28.957000  -11.840500
  H    -120.303000   29.292700  -12.904100
  H    -120.009000   29.807400  -11.301000
  C    -121.933000   29.084400  -11.605800
  H    -122.218000   28.684600  -10.662300
  H    -122.401000   28.572100  -12.442300
  H    -122.306000   30.088900  -11.512400
  H    -118.563000   27.509900  -17.711900
  H    -123.450000   24.560100  -12.164600

 Total Charge           Charge          ....    0
 Multiplicity           Mult            ....    1
 Number of Electrons    NEL             ....  134
 Basis Dimension        Dim             ....  322

ORBITAL ENERGIES
----------------

  NO   OCC          E(Eh)            E(eV)
   0   2.0000     -88.967733     -2420.9351
   1   2.0000     -88.962270     -2420.7864
   2   2.0000     -10.327884      -281.0360
   3   2.0000     -10.318850      -280.7902
   4   2.0000     -10.314646      -280.6758
   5   2.0000     -10.302502      -280.3453
   6   2.0000     -10.299886      -280.2741
   7   2.0000     -10.299143      -280.2539
   8   2.0000     -10.299048      -280.2513
   9   2.0000     -10.298848      -280.2459
  10   2.0000     -10.293131      -280.0903
  11   2.0000     -10.292028      -280.0603
  12   2.0000     -10.290118      -280.0083
  13   2.0000     -10.287292      -279.9314
  14   2.0000     -10.285049      -279.8704
  15   2.0000     -10.261156      -279.2203
  16   2.0000      -8.083099      -219.9523
  17   2.0000      -8.078079      -219.8157
  18   2.0000      -6.041289      -164.3918
  19   2.0000      -6.037586      -164.2911
  20   2.0000      -6.036477      -164.2609
  21   2.0000      -6.034105      -164.1964
  22   2.0000      -6.032432      -164.1508
  23   2.0000      -6.028869      -164.0539
  24   2.0000      -1.010091       -27.4860
  25   2.0000      -0.988500       -26.8985
  26   2.0000      -0.912812       -24.8389
  27   2.0000      -0.905000       -24.6263
  28   2.0000      -0.868645       -23.6370
  29   2.0000      -0.851653       -23.1746
  30   2.0000      -0.844533       -22.9809
  31   2.0000      -0.813485       -22.1360
  32   2.0000      -0.780916       -21.2498
  33   2.0000      -0.766187       -20.8490
  34   2.0000      -0.711339       -19.3565
  35   2.0000      -0.693294       -18.8655
  36   2.0000      -0.682528       -18.5725
  37   2.0000      -0.663433       -18.0529
  38   2.0000      -0.645979       -17.5780
  39   2.0000      -0.614784       -16.7291
  40   2.0000      -0.591581       -16.0977
  41   2.0000      -0.573296       -15.6002
  42   2.0000      -0.563093       -15.3225
  43   2.0000      -0.550416       -14.9776
  44   2.0000      -0.546745       -14.8777
  45   2.0000      -0.523435       -14.2434
  46   2.0000      -0.514446       -13.9988
  47   2.0000      -0.505387       -13.7523
  48   2.0000      -0.501251       -13.6397
  49   2.0000      -0.494939       -13.4680
  50   2.0000      -0.485141       -13.2014
  51   2.0000      -0.480407       -13.0725
  52   2.0000      -0.475253       -12.9323
  53   2.0000      -0.465424       -12.6648
  54   2.0000      -0.456565       -12.4238
  55   2.0000      -0.450544       -12.2599
  56   2.0000      -0.437349       -11.9009
  57   2.0000      -0.435333       -11.8460
  58   2.0000      -0.431529       -11.7425
  59   2.0000      -0.428194       -11.6518
  60   2.0000      -0.420348       -11.4382
  61   2.0000      -0.416855       -11.3432
  62   2.0000      -0.406610       -11.0644
  63   2.0000      -0.345113        -9.3910
  64   2.0000      -0.329826        -8.9750
  65   2.0000      -0.324587        -8.8325
  66   2.0000      -0.288775        -7.8580
  67   0.0000       0.030183         0.8213
  68   0.0000       0.071674         1.9503
  69   0.0000       0.112882         3.0717
  70   0.0000       0.118687         3.2296
  71   0.0000       0.139235         3.7888

MULLIKEN ATOMIC CHARGES
-----------------------
   0 S :    0.132778
   1 C :   -0.113026
   2 C :   -0.083232
   3 C :    0.022159
   4 C :   -0.193147
   5 H :    0.031555
   6 C :    0.087234
   7 H :    0.010598
   8 H :    0.053717
   9 C :   -0.071223
  10 H :    0.042534
  11 H :    0.032943
  12 C :   -0.109101
  13 H :    0.050116
  14 H :    0.041916
  15 H :    0.045942
  16 S :    0.121698
  17 C :   -0.105458
  18 C :   -0.037655
  19 C :   -0.046891
  20 C :   -0.177321
  21 H :    0.007827
  22 C :    0.110783
  23 H :    0.026023
  24 H :    0.023570
  25 C :   -0.106934
  26 H :    0.039338
  27 H :    0.020789
  28 C :   -0.027549
  29 H :    0.006677
  30 H :    0.048000
  31 H :    0.023537
  32 H :    0.021923
  33 H :    0.069879
Sum of atomic charges:    0.0000000

LOEWDIN ATOMIC CHARGES
----------------------
   0 S :    0.427440
   1 C :   -0.212884
   2 C :   -0.063317
   3 C :   -0.062335
   4 C :   -0.186828
   5 H :    0.040907
   6 C :   -0.033245
   7 H :    0.023567
   8 H :    0.043743
   9 C :   -0.039871
  10 H :    0.029428
  11 H :    0.022650
  12 C :   -0.078481
  13 H :    0.034385
  14 H :    0.026816
  15 H :    0.028626
  16 S :    0.430843
  17 C :   -0.205609
  18 C :   -0.065445
  19 C :   -0.064033
  20 C :   -0.216220
  21 H :    0.022635
  22 C :   -0.022408
  23 H :    0.030480
  24 H :    0.028586
  25 C :   -0.044558
  26 H :    0.030250
  27 H :    0.019602
  28 C :   -0.066220
  29 H :    0.015421
  30 H :    0.029453
  31 H :    0.025059
  32 H :    0.013484
  33 H :    0.038077

  Mayer bond orders larger than 0.100000
B(  0-S ,  1-C ) :   1.1582 B(  0-S ,  4-C ) :   1.1665 B(  1-C ,  2-C ) :   1.5970
B(  1-C ,  4-C ) :   0.1007 B(  1-C , 32-H ) :   0.9787 B(  2-C ,  3-C ) :   1.2402
B(  2-C ,  6-C ) :   0.9943 B(  3-C ,  4-C ) :   1.5644 B(  3-C ,  5-H ) :   0.9832
B(  4-C , 20-C ) :   1.0352 B(  6-C ,  7-H ) :   0.9430 B(  6-C ,  8-H ) :   0.9287
B(  6-C ,  9-C ) :   1.0790 B(  9-C , 10-H ) :   0.9561 B(  9-C , 11-H ) :   0.9501
B(  9-C , 12-C ) :   1.0655 B( 12-C , 13-H ) :   0.9762 B( 12-C , 14-H ) :   0.9786
B( 12-C , 15-H ) :   0.9748 B( 16-S , 17-C ) :   1.1547 B( 16-S , 20-C ) :   1.1671
B( 17-C , 18-C ) :   1.5948 B( 17-C , 33-H ) :   0.9655 B( 18-C , 19-C ) :   1.2498
B( 18-C , 21-H ) :   0.9915 B( 19-C , 20-C ) :   1.5722 B( 19-C , 22-C ) :   1.0624
B( 22-C , 23-H ) :   0.9324 B( 22-C , 24-H ) :   0.9368 B( 22-C , 25-C ) :   1.0515
B( 25-C , 26-H ) :   0.9609 B( 25-C , 27-H ) :   0.9611 B( 25-C , 28-C ) :   1.0810
B( 28-C , 29-H ) :   0.9700 B( 28-C , 30-H ) :   0.9730 B( 28-C , 31-H ) :   0.9701

Dispersion correction           -0.015123502
FINAL SINGLE POINT ENERGY     -1339.870666315695

DIPOLE MOMENT
-------------
                                X             Y             Z
Electronic contribution:    -18.75700     -10.93375      -8.85143
Nuclear contribution   :     19.17297      11.04669       9.11713
                        -----------------------------------------
Total Dipole Moment    :      0.41597       0.11293       0.26570
                        -----------------------------------------
Magnitude (a.u.)       :      0.50634
Magnitude (Debye)      :      1.28702

Rotational constants in cm-1:     0.021677     0.008032     0.007208
Rotational constants in MHz :   649.858352   240.806152   216.078682

                             ****ORCA TERMINATED NORMALLY****
TOTAL RUN TIME: 0 days 0 hours 0 minutes 21 seconds 18 msec
