                         Program Version 4.2.1 -  RELEASE  -
|  1> ! wB97X-D3 SP def2-SVP
|  2> %pal
|  3> nprocs 24
|  4> end
|  5>
|  6> * xyz 0 1
|  7> S 	 -48.3332 	 20.6742 	 31.5733
|  8> C 	 -47.6178 	 19.2756 	 30.7836
|  9> C 	 -46.9375 	 19.6638 	 29.6406
| 10> C 	 -46.8892 	 21.0961 	 29.482
| 11> C 	 -47.5469 	 21.8181 	 30.4495
| 12> H 	 -46.3386 	 21.5353 	 28.6683
| 13> C 	 -46.1999 	 18.717 	 28.7364
| 14> H 	 -45.6191 	 17.9654 	 29.2909
| 15> H 	 -45.4336 	 19.3274 	 28.2141
| 16> C 	 -46.9439 	 17.9847 	 27.6126
| 17> H 	 -46.1811 	 17.4689 	 27.1221
| 18> H 	 -47.6824 	 17.3152 	 28.0984
| 19> C 	 -47.7765 	 18.7818 	 26.592
| 20> H 	 -47.1747 	 19.3742 	 25.8684
| 21> H 	 -48.4571 	 18.0706 	 26.1457
| 22> H 	 -48.4291 	 19.4288 	 27.1125
| 23> S 	 -48.5864 	 23.785 	 31.9128
| 24> C 	 -48.0416 	 25.4234 	 31.9164
| 25> C 	 -46.9596 	 25.5539 	 31.0538
| 26> C 	 -46.5512 	 24.2847 	 30.4646
| 27> C 	 -47.412 	 23.2264 	 30.7939
| 28> H 	 -46.6103 	 26.5684 	 30.9945
| 29> C 	 -45.2679 	 24.1522 	 29.6092
| 30> H 	 -45.1342 	 24.9362 	 28.851
| 31> H 	 -45.3463 	 23.2664 	 29.0102
| 32> C 	 -43.9675 	 24.1042 	 30.408
| 33> H 	 -43.0542 	 23.7891 	 29.9453
| 34> H 	 -43.9968 	 23.5543 	 31.3862
| 35> C 	 -43.5525 	 25.5857 	 30.6617
| 36> H 	 -43.4256 	 26.1261 	 29.7162
| 37> H 	 -42.6287 	 25.5803 	 31.1672
| 38> H 	 -44.1234 	 26.1286 	 31.3852
| 39> H 	 -47.6818 	 18.2483 	 31.1997
| 40> H 	 -48.4636 	 26.3219 	 32.3499
| 41> *
| 42>
| 43>                          ****END OF INPUT****

CARTESIAN COORDINATES (ANGSTROEM)
---------------------------------
  S    -48.333200   20.674200   31.573300
  C    -47.617800   19.275600   30.783600
  C    -46.937500   19.663800   29.640600
  C    -46.889200   21.096100   29.482000
  C    -47.546900   21.818100   30.449500
  H    -46.338600   21.535300   28.668300
  C    -46.199900   18.717000   28.736400
  H    -45.619100   17.965400   29.290900
  H    -45.433600   19.327400   28.214100
  C    -46.943900   17.984700   27.612600
  H    -46.181100   17.468900   27.122100
  H    -47.682400   17.315200   28.098400
  C    -47.776500   18.781800   26.592000
  H    -47.174700   19.374200   25.868400
  H    -48.457100   18.070600   26.145700
  H    -48.429100   19.428800   27.112500
  S    -48.586400   23.785000   31.912800
  C    -48.041600   25.423400   31.916400
  C    -46.959600   25.553900   31.053800
  C    -46.551200   24.284700   30.464600
  C    -47.412000   23.226400   30.793900
  H    -46.610300   26.568400   30.994500
  C    -45.267900   24.152200   29.609200
  H    -45.134200   24.936200   28.851000
  H    -45.346300   23.266400   29.010200
  C    -43.967500   24.104200   30.408000
  H    -43.054200   23.789100   29.945300
  H    -43.996800   23.554300   31.386200
  C    -43.552500   25.585700   30.661700
  H    -43.425600   26.126100   29.716200
  H    -42.628700   25.580300   31.167200
  H    -44.123400   26.128600   31.385200
  H    -47.681800   18.248300   31.199700
  H    -48.463600   26.321900   32.349900

 Total Charge           Charge          ....    0
 Multiplicity           Mult            ....    1
 Number of Electrons    NEL             ....  134
 Basis Dimension        Dim             ....  322

ORBITAL ENERGIES
----------------

  NO   OCC          E(Eh)            E(eV)
   0   2.0000     -88.966083     -2420.8902
   1   2.0000     -88.964650     -2420.8512
   2   2.0000     -10.336480      -281.2699
   3   2.0000     -10.332229      -281.1542
   4   2.0000     -10.320992      -280.8485
   5   2.0000     -10.315509      -280.6993
   6   2.0000     -10.314722      -280.6779
   7   2.0000     -10.303079      -280.3610
   8   2.0000     -10.296871      -280.1921
   9   2.0000     -10.296255      -280.1753
  10   2.0000     -10.293186      -280.0918
  11   2.0000     -10.292855      -280.0828
  12   2.0000     -10.285895      -279.8934
  13   2.0000     -10.283336      -279.8238
  14   2.0000     -10.273836      -279.5653
  15   2.0000     -10.267534      -279.3938
  16   2.0000      -8.080494      -219.8814
  17   2.0000      -8.080328      -219.8769
  18   2.0000      -6.039120      -164.3328
  19   2.0000      -6.039052      -164.3310
  20   2.0000      -6.034876      -164.2173
  21   2.0000      -6.034672      -164.2118
  22   2.0000      -6.031288      -164.1197
  23   2.0000      -6.030836      -164.1074
  24   2.0000      -1.009927       -27.4815
  25   2.0000      -0.983827       -26.7713
  26   2.0000      -0.911758       -24.8102
  27   2.0000      -0.907779       -24.7019
  28   2.0000      -0.873276       -23.7630
  29   2.0000      -0.850767       -23.1506
  30   2.0000      -0.840503       -22.8713
  31   2.0000      -0.820135       -22.3170
  32   2.0000      -0.784741       -21.3539
  33   2.0000      -0.774899       -21.0861
  34   2.0000      -0.708861       -19.2891
  35   2.0000      -0.700246       -19.0547
  36   2.0000      -0.693023       -18.8581
  37   2.0000      -0.662327       -18.0228
  38   2.0000      -0.635522       -17.2934
  39   2.0000      -0.623388       -16.9633
  40   2.0000      -0.593903       -16.1609
  41   2.0000      -0.578694       -15.7471
  42   2.0000      -0.556423       -15.1411
  43   2.0000      -0.547680       -14.9031
  44   2.0000      -0.544123       -14.8064
  45   2.0000      -0.541664       -14.7394
  46   2.0000      -0.516228       -14.0473
  47   2.0000      -0.513886       -13.9836
  48   2.0000      -0.511005       -13.9051
  49   2.0000      -0.502074       -13.6621
  50   2.0000      -0.485782       -13.2188
  51   2.0000      -0.477078       -12.9819
  52   2.0000      -0.469629       -12.7793
  53   2.0000      -0.466782       -12.7018
  54   2.0000      -0.464485       -12.6393
  55   2.0000      -0.446283       -12.1440
  56   2.0000      -0.441828       -12.0228
  57   2.0000      -0.437087       -11.8938
  58   2.0000      -0.432177       -11.7601
  59   2.0000      -0.421303       -11.4642
  60   2.0000      -0.415723       -11.3124
  61   2.0000      -0.408941       -11.1278
  62   2.0000      -0.405232       -11.0269
  63   2.0000      -0.364631        -9.9221
  64   2.0000      -0.336240        -9.1496
  65   2.0000      -0.325022        -8.8443
  66   2.0000      -0.284314        -7.7366
  67   0.0000       0.017677         0.4810
  68   0.0000       0.080110         2.1799
  69   0.0000       0.097302         2.6477
  70   0.0000       0.112995         3.0748
  71   0.0000       0.143960         3.9173

MULLIKEN ATOMIC CHARGES
-----------------------
   0 S :    0.087596
   1 C :   -0.134223
   2 C :   -0.082235
   3 C :   -0.020524
   4 C :   -0.060010
   5 H :    0.015974
   6 C :    0.041639
   7 H :    0.034736
   8 H :    0.011190
   9 C :   -0.061543
  10 H :    0.021497
  11 H :    0.025712
  12 C :   -0.034307
  13 H :    0.037739
  14 H :    0.030868
  15 H :    0.024530
  16 S :    0.092526
  17 C :   -0.083712
  18 C :   -0.052374
  19 C :   -0.054919
  20 C :   -0.109608
  21 H :    0.021200
  22 C :    0.102957
  23 H :    0.021389
  24 H :   -0.008379
  25 C :   -0.068862
  26 H :    0.026415
  27 H :    0.045175
  28 C :   -0.059477
  29 H :    0.030673
  30 H :    0.007875
  31 H :    0.024563
  32 H :    0.069252
  33 H :    0.056666
Sum of atomic charges:    0.0000000

LOEWDIN ATOMIC CHARGES
----------------------
   0 S :    0.380824
   1 C :   -0.191029
   2 C :   -0.069125
   3 C :   -0.061255
   4 C :   -0.178825
   5 H :    0.027371
   6 C :   -0.038700
   7 H :    0.035476
   8 H :    0.028502
   9 C :   -0.034860
  10 H :    0.016940
  11 H :    0.025378
  12 C :   -0.063569
  13 H :    0.026754
  14 H :    0.029757
  15 H :    0.020671
  16 S :    0.428953
  17 C :   -0.199570
  18 C :   -0.071344
  19 C :   -0.053245
  20 C :   -0.198410
  21 H :    0.032210
  22 C :   -0.030855
  23 H :    0.032386
  24 H :    0.019936
  25 C :   -0.038517
  26 H :    0.023889
  27 H :    0.033553
  28 C :   -0.066810
  29 H :    0.024018
  30 H :    0.017373
  31 H :    0.017594
  32 H :    0.039165
  33 H :    0.035365

  Mayer bond orders larger than 0.100000
B(  0-S ,  1-C ) :   1.1316 B(  0-S ,  4-C ) :   1.1292 B(  1-C ,  2-C ) :   1.6083
B(  1-C , 32-H ) :   0.9664 B(  2-C ,  3-C ) :   1.2459 B(  2-C ,  6-C ) :   1.0199
B(  3-C ,  4-C ) :   1.5801 B(  3-C ,  5-H ) :   0.9922 B(  4-C , 20-C ) :   1.0676
B(  6-C ,  7-H ) :   0.9445 B(  6-C ,  8-H ) :   0.9390 B(  6-C ,  9-C ) :   1.0733
B(  9-C , 10-H ) :   0.9557 B(  9-C , 11-H ) :   0.9576 B(  9-C , 12-C ) :   1.0830
B( 12-C , 13-H ) :   0.9758 B( 12-C , 14-H ) :   0.9729 B( 12-C , 15-H ) :   0.9718
B( 16-S , 17-C ) :   1.1593 B( 16-S , 20-C ) :   1.1477 B( 17-C , 18-C ) :   1.6229
B( 17-C , 33-H ) :   0.9648 B( 18-C , 19-C ) :   1.2295 B( 18-C , 21-H ) :   0.9921
B( 19-C , 20-C ) :   1.5706 B( 19-C , 22-C ) :   1.0378 B( 22-C , 23-H ) :   0.9393
B( 22-C , 24-H ) :   0.9362 B( 22-C , 25-C ) :   1.0582 B( 25-C , 26-H ) :   0.9605
B( 25-C , 27-H ) :   0.9557 B( 25-C , 28-C ) :   1.0763 B( 28-C , 29-H ) :   0.9763
B( 28-C , 30-H ) :   0.9703 B( 28-C , 31-H ) :   0.9718

Dispersion correction           -0.014001655
FINAL SINGLE POINT ENERGY     -1339.864682641964

DIPOLE MOMENT
-------------
                                X             Y             Z
Electronic contribution:    -18.27899       3.17794      17.54247
Nuclear contribution   :     18.86030      -3.21449     -17.89094
                        -----------------------------------------
Total Dipole Moment    :      0.58131      -0.03656      -0.34847
                        -----------------------------------------
Magnitude (a.u.)       :      0.67874
Magnitude (Debye)      :      1.72523

Rotational constants in cm-1:     0.020195     0.008191     0.006548
Rotational constants in MHz :   605.439191   245.552603   196.316572

                             ****ORCA TERMINATED NORMALLY****
TOTAL RUN TIME: 0 days 0 hours 0 minutes 21 seconds 407 msec
