                         Program Version 4.2.1 -  RELEASE  -
|  1> ! wB97X-D3 SP def2-SVP
|  2> %pal
|  3> nprocs 24
|  4> end
|  5>
|  6> * xyz 0 1
|  7> S 	 -100.712 	 3.23178 	 -114.953
|  8> C 	 -101.35 	 3.61125 	 -116.569
|  9> C 	 -102.685 	 3.1653 	 -116.652
| 10> C 	 -103.024 	 2.24695 	 -115.607
| 11> C 	 -102.021 	 2.13315 	 -114.639
| 12> H 	 -103.899 	 1.64158 	 -115.496
| 13> C 	 -103.563 	 3.47327 	 -117.769
| 14> H 	 -104.069 	 2.61587 	 -118.109
| 15> H 	 -102.862 	 3.8359 	 -118.586
| 16> C 	 -104.577 	 4.62333 	 -117.522
| 17> H 	 -105.459 	 4.12835 	 -117.252
| 18> H 	 -104.295 	 5.20258 	 -116.585
| 19> C 	 -104.789 	 5.57942 	 -118.682
| 20> H 	 -103.826 	 6.08743 	 -118.822
| 21> H 	 -104.979 	 4.90764 	 -119.499
| 22> H 	 -105.661 	 6.2196 	 -118.494
| 23> S 	 -102.706 	 1.56512 	 -111.98
| 24> C 	 -102.414 	 -0.00135941 	 -111.389
| 25> C 	 -101.716 	 -0.80089 	 -112.278
| 26> C 	 -101.554 	 -0.167743 	 -113.55
| 27> C 	 -101.98 	 1.18279 	 -113.555
| 28> H 	 -101.432 	 -1.76921 	 -111.894
| 29> C 	 -100.991 	 -0.827041 	 -114.797
| 30> H 	 -101.627 	 -0.797035 	 -115.71
| 31> H 	 -101.059 	 -1.89464 	 -114.566
| 32> C 	 -99.5181 	 -0.479589 	 -115.105
| 33> H 	 -98.8502 	 -0.514223 	 -114.235
| 34> H 	 -99.4889 	 0.553185 	 -115.376
| 35> C 	 -98.9821 	 -1.24326 	 -116.367
| 36> H 	 -99.37 	 -0.704338 	 -117.256
| 37> H 	 -99.3404 	 -2.24684 	 -116.379
| 38> H 	 -97.8677 	 -1.2902 	 -116.458
| 39> H 	 -100.756 	 4.14808 	 -117.309
| 40> H 	 -102.814 	 -0.380423 	 -110.442
| 41> *
| 42>
| 43>                          ****END OF INPUT****

CARTESIAN COORDINATES (ANGSTROEM)
---------------------------------
  S    -100.712000    3.231780  -114.953000
  C    -101.350000    3.611250  -116.569000
  C    -102.685000    3.165300  -116.652000
  C    -103.024000    2.246950  -115.607000
  C    -102.021000    2.133150  -114.639000
  H    -103.899000    1.641580  -115.496000
  C    -103.563000    3.473270  -117.769000
  H    -104.069000    2.615870  -118.109000
  H    -102.862000    3.835900  -118.586000
  C    -104.577000    4.623330  -117.522000
  H    -105.459000    4.128350  -117.252000
  H    -104.295000    5.202580  -116.585000
  C    -104.789000    5.579420  -118.682000
  H    -103.826000    6.087430  -118.822000
  H    -104.979000    4.907640  -119.499000
  H    -105.661000    6.219600  -118.494000
  S    -102.706000    1.565120  -111.980000
  C    -102.414000   -0.001359  -111.389000
  C    -101.716000   -0.800890  -112.278000
  C    -101.554000   -0.167743  -113.550000
  C    -101.980000    1.182790  -113.555000
  H    -101.432000   -1.769210  -111.894000
  C    -100.991000   -0.827041  -114.797000
  H    -101.627000   -0.797035  -115.710000
  H    -101.059000   -1.894640  -114.566000
  C    -99.518100   -0.479589  -115.105000
  H    -98.850200   -0.514223  -114.235000
  H    -99.488900    0.553185  -115.376000
  C    -98.982100   -1.243260  -116.367000
  H    -99.370000   -0.704338  -117.256000
  H    -99.340400   -2.246840  -116.379000
  H    -97.867700   -1.290200  -116.458000
  H    -100.756000    4.148080  -117.309000
  H    -102.814000   -0.380423  -110.442000

 Total Charge           Charge          ....    0
 Multiplicity           Mult            ....    1
 Number of Electrons    NEL             ....  134
 Basis Dimension        Dim             ....  322

ORBITAL ENERGIES
----------------

  NO   OCC          E(Eh)            E(eV)
   0   2.0000     -88.965716     -2420.8802
   1   2.0000     -88.964189     -2420.8387
   2   2.0000     -10.326958      -281.0108
   3   2.0000     -10.323984      -280.9299
   4   2.0000     -10.320555      -280.8366
   5   2.0000     -10.314964      -280.6844
   6   2.0000     -10.308537      -280.5096
   7   2.0000     -10.304099      -280.3888
   8   2.0000     -10.295657      -280.1591
   9   2.0000     -10.294039      -280.1150
  10   2.0000     -10.290885      -280.0292
  11   2.0000     -10.288111      -279.9537
  12   2.0000     -10.282178      -279.7923
  13   2.0000     -10.279884      -279.7299
  14   2.0000     -10.279096      -279.7084
  15   2.0000     -10.277044      -279.6526
  16   2.0000      -8.079836      -219.8635
  17   2.0000      -8.079454      -219.8531
  18   2.0000      -6.038230      -164.3086
  19   2.0000      -6.037783      -164.2964
  20   2.0000      -6.034391      -164.2041
  21   2.0000      -6.033713      -164.1857
  22   2.0000      -6.030771      -164.1056
  23   2.0000      -6.030566      -164.1001
  24   2.0000      -1.003777       -27.3142
  25   2.0000      -0.982828       -26.7441
  26   2.0000      -0.917174       -24.9576
  27   2.0000      -0.900754       -24.5108
  28   2.0000      -0.868849       -23.6426
  29   2.0000      -0.850580       -23.1455
  30   2.0000      -0.845029       -22.9944
  31   2.0000      -0.812706       -22.1149
  32   2.0000      -0.781253       -21.2590
  33   2.0000      -0.765446       -20.8289
  34   2.0000      -0.707392       -19.2491
  35   2.0000      -0.695675       -18.9303
  36   2.0000      -0.691270       -18.8104
  37   2.0000      -0.654700       -17.8153
  38   2.0000      -0.646823       -17.6009
  39   2.0000      -0.616924       -16.7874
  40   2.0000      -0.593966       -16.1626
  41   2.0000      -0.579943       -15.7811
  42   2.0000      -0.561574       -15.2812
  43   2.0000      -0.551021       -14.9941
  44   2.0000      -0.526758       -14.3338
  45   2.0000      -0.523337       -14.2407
  46   2.0000      -0.517633       -14.0855
  47   2.0000      -0.511394       -13.9157
  48   2.0000      -0.504367       -13.7245
  49   2.0000      -0.499568       -13.5939
  50   2.0000      -0.496213       -13.5027
  51   2.0000      -0.475996       -12.9525
  52   2.0000      -0.471796       -12.8382
  53   2.0000      -0.460705       -12.5364
  54   2.0000      -0.455549       -12.3961
  55   2.0000      -0.448592       -12.2068
  56   2.0000      -0.442068       -12.0293
  57   2.0000      -0.437275       -11.8989
  58   2.0000      -0.433285       -11.7903
  59   2.0000      -0.424795       -11.5593
  60   2.0000      -0.420457       -11.4412
  61   2.0000      -0.414468       -11.2782
  62   2.0000      -0.402472       -10.9518
  63   2.0000      -0.334120        -9.0919
  64   2.0000      -0.327076        -8.9002
  65   2.0000      -0.316266        -8.6060
  66   2.0000      -0.306028        -8.3274
  67   0.0000       0.036828         1.0022
  68   0.0000       0.051604         1.4042
  69   0.0000       0.111724         3.0402
  70   0.0000       0.125357         3.4111
  71   0.0000       0.126885         3.4527

MULLIKEN ATOMIC CHARGES
-----------------------
   0 S :    0.111978
   1 C :   -0.145641
   2 C :   -0.078308
   3 C :    0.067495
   4 C :   -0.176048
   5 H :    0.007713
   6 C :    0.061953
   7 H :    0.020146
   8 H :    0.018967
   9 C :   -0.079092
  10 H :    0.011159
  11 H :    0.040628
  12 C :   -0.043020
  13 H :    0.043401
  14 H :    0.027840
  15 H :    0.049207
  16 S :    0.119643
  17 C :   -0.107501
  18 C :   -0.038352
  19 C :   -0.008451
  20 C :   -0.183473
  21 H :    0.017634
  22 C :    0.061947
  23 H :    0.035970
  24 H :    0.007834
  25 C :   -0.059570
  26 H :    0.029501
  27 H :    0.020579
  28 C :   -0.057076
  29 H :    0.036843
  30 H :    0.021972
  31 H :    0.041191
  32 H :    0.059673
  33 H :    0.063260
Sum of atomic charges:   -0.0000000

LOEWDIN ATOMIC CHARGES
----------------------
   0 S :    0.408970
   1 C :   -0.191720
   2 C :   -0.059443
   3 C :   -0.050617
   4 C :   -0.202709
   5 H :    0.031387
   6 C :   -0.034588
   7 H :    0.023758
   8 H :    0.035542
   9 C :   -0.040978
  10 H :    0.012475
  11 H :    0.028665
  12 C :   -0.060294
  13 H :    0.028926
  14 H :    0.022736
  15 H :    0.032604
  16 S :    0.420038
  17 C :   -0.200325
  18 C :   -0.078743
  19 C :   -0.042610
  20 C :   -0.210310
  21 H :    0.033333
  22 C :   -0.037692
  23 H :    0.036789
  24 H :    0.026519
  25 C :   -0.040618
  26 H :    0.024573
  27 H :    0.013129
  28 C :   -0.067553
  29 H :    0.029920
  30 H :    0.015476
  31 H :    0.030777
  32 H :    0.029273
  33 H :    0.033313

  Mayer bond orders larger than 0.100000
B(  0-S ,  1-C ) :   1.1426 B(  0-S ,  4-C ) :   1.1598 B(  1-C ,  2-C ) :   1.5733
B(  1-C ,  4-C ) :   0.1040 B(  1-C , 32-H ) :   0.9726 B(  2-C ,  3-C ) :   1.2179
B(  2-C ,  6-C ) :   1.0580 B(  3-C ,  4-C ) :   1.5808 B(  3-C ,  5-H ) :   1.0003
B(  4-C , 20-C ) :   1.0290 B(  6-C ,  7-H ) :   0.9351 B(  6-C ,  8-H ) :   0.9444
B(  6-C ,  9-C ) :   1.0253 B(  9-C , 10-H ) :   0.9528 B(  9-C , 11-H ) :   0.9636
B(  9-C , 12-C ) :   1.0830 B( 12-C , 13-H ) :   0.9760 B( 12-C , 14-H ) :   0.9767
B( 12-C , 15-H ) :   0.9727 B( 16-S , 17-C ) :   1.1892 B( 16-S , 20-C ) :   1.1438
B( 17-C , 18-C ) :   1.5902 B( 17-C , 20-C ) :   0.1021 B( 17-C , 33-H ) :   0.9613
B( 18-C , 19-C ) :   1.2539 B( 18-C , 21-H ) :   0.9951 B( 19-C , 20-C ) :   1.5671
B( 19-C , 22-C ) :   1.0418 B( 22-C , 23-H ) :   0.9371 B( 22-C , 24-H ) :   0.9270
B( 22-C , 25-C ) :   1.0571 B( 25-C , 26-H ) :   0.9582 B( 25-C , 27-H ) :   0.9560
B( 25-C , 28-C ) :   1.0662 B( 28-C , 29-H ) :   0.9783 B( 28-C , 30-H ) :   0.9789
B( 28-C , 31-H ) :   0.9767

Dispersion correction           -0.014538171
FINAL SINGLE POINT ENERGY     -1339.872568264764

DIPOLE MOMENT
-------------
                                X             Y             Z
Electronic contribution:      1.48021       2.47130      22.21429
Nuclear contribution   :     -1.77182      -2.74295     -22.63676
                        -----------------------------------------
Total Dipole Moment    :     -0.29162      -0.27165      -0.42247
                        -----------------------------------------
Magnitude (a.u.)       :      0.58079
Magnitude (Debye)      :      1.47625

Rotational constants in cm-1:     0.019587     0.008083     0.006612
Rotational constants in MHz :   587.211022   242.321650   198.209539

                             ****ORCA TERMINATED NORMALLY****
TOTAL RUN TIME: 0 days 0 hours 0 minutes 21 seconds 421 msec
