                         Program Version 4.2.1 -  RELEASE  -
|  1> ! wB97X-D3 SP def2-SVP
|  2> %pal
|  3> nprocs 24
|  4> end
|  5>
|  6> * xyz 0 1
|  7> S 	 -125.983 	 60.1996 	 -59.3495
|  8> C 	 -127.504 	 59.8067 	 -60.1198
|  9> C 	 -128.46 	 60.7492 	 -59.782
| 10> C 	 -127.926 	 61.8245 	 -58.9344
| 11> C 	 -126.686 	 61.5402 	 -58.4332
| 12> H 	 -128.409 	 62.762 	 -58.7008
| 13> C 	 -129.855 	 60.9494 	 -60.4611
| 14> H 	 -130.655 	 60.993 	 -59.7724
| 15> H 	 -129.995 	 60.007 	 -61.0157
| 16> C 	 -130.094 	 62.1085 	 -61.4027
| 17> H 	 -131.204 	 62.2092 	 -61.6148
| 18> H 	 -129.884 	 63.082 	 -60.9128
| 19> C 	 -129.45 	 62.1196 	 -62.8174
| 20> H 	 -129.711 	 61.2135 	 -63.4531
| 21> H 	 -129.652 	 62.965 	 -63.3973
| 22> H 	 -128.323 	 62.0969 	 -62.5621
| 23> S 	 -124.905 	 63.6621 	 -58.3783
| 24> C 	 -124.39 	 64.3431 	 -56.895
| 25> C 	 -124.802 	 63.5769 	 -55.8835
| 26> C 	 -125.615 	 62.4635 	 -56.2856
| 27> C 	 -125.819 	 62.4038 	 -57.6221
| 28> H 	 -124.631 	 63.8263 	 -54.853
| 29> C 	 -126.076 	 61.4546 	 -55.2291
| 30> H 	 -127.152 	 61.4637 	 -55.3844
| 31> H 	 -125.894 	 61.7725 	 -54.2555
| 32> C 	 -125.515 	 60.0519 	 -55.3609
| 33> H 	 -126.001 	 59.5412 	 -56.2036
| 34> H 	 -125.927 	 59.4405 	 -54.49
| 35> C 	 -124.002 	 59.9156 	 -55.3161
| 36> H 	 -123.628 	 60.3923 	 -54.4298
| 37> H 	 -123.442 	 60.3539 	 -56.1441
| 38> H 	 -123.755 	 58.805 	 -55.3201
| 39> H 	 -127.638 	 58.8343 	 -60.6309
| 40> H 	 -123.713 	 65.2086 	 -56.8365
| 41> *
| 42>
| 43>                          ****END OF INPUT****

CARTESIAN COORDINATES (ANGSTROEM)
---------------------------------
  S    -125.983000   60.199600  -59.349500
  C    -127.504000   59.806700  -60.119800
  C    -128.460000   60.749200  -59.782000
  C    -127.926000   61.824500  -58.934400
  C    -126.686000   61.540200  -58.433200
  H    -128.409000   62.762000  -58.700800
  C    -129.855000   60.949400  -60.461100
  H    -130.655000   60.993000  -59.772400
  H    -129.995000   60.007000  -61.015700
  C    -130.094000   62.108500  -61.402700
  H    -131.204000   62.209200  -61.614800
  H    -129.884000   63.082000  -60.912800
  C    -129.450000   62.119600  -62.817400
  H    -129.711000   61.213500  -63.453100
  H    -129.652000   62.965000  -63.397300
  H    -128.323000   62.096900  -62.562100
  S    -124.905000   63.662100  -58.378300
  C    -124.390000   64.343100  -56.895000
  C    -124.802000   63.576900  -55.883500
  C    -125.615000   62.463500  -56.285600
  C    -125.819000   62.403800  -57.622100
  H    -124.631000   63.826300  -54.853000
  C    -126.076000   61.454600  -55.229100
  H    -127.152000   61.463700  -55.384400
  H    -125.894000   61.772500  -54.255500
  C    -125.515000   60.051900  -55.360900
  H    -126.001000   59.541200  -56.203600
  H    -125.927000   59.440500  -54.490000
  C    -124.002000   59.915600  -55.316100
  H    -123.628000   60.392300  -54.429800
  H    -123.442000   60.353900  -56.144100
  H    -123.755000   58.805000  -55.320100
  H    -127.638000   58.834300  -60.630900
  H    -123.713000   65.208600  -56.836500

 Total Charge           Charge          ....    0
 Multiplicity           Mult            ....    1
 Number of Electrons    NEL             ....  134
 Basis Dimension        Dim             ....  322

ORBITAL ENERGIES
----------------

  NO   OCC          E(Eh)            E(eV)
   0   2.0000     -88.963878     -2420.8302
   1   2.0000     -88.958954     -2420.6962
   2   2.0000     -10.331308      -281.1292
   3   2.0000     -10.323575      -280.9188
   4   2.0000     -10.319592      -280.8104
   5   2.0000     -10.312795      -280.6254
   6   2.0000     -10.310957      -280.5754
   7   2.0000     -10.299484      -280.2632
   8   2.0000     -10.297391      -280.2063
   9   2.0000     -10.294468      -280.1267
  10   2.0000     -10.293958      -280.1128
  11   2.0000     -10.285181      -279.8740
  12   2.0000     -10.283441      -279.8267
  13   2.0000     -10.282428      -279.7991
  14   2.0000     -10.281592      -279.7763
  15   2.0000     -10.274516      -279.5838
  16   2.0000      -8.078487      -219.8268
  17   2.0000      -8.075283      -219.7396
  18   2.0000      -6.037089      -164.2776
  19   2.0000      -6.033778      -164.1874
  20   2.0000      -6.032974      -164.1656
  21   2.0000      -6.029456      -164.0698
  22   2.0000      -6.029170      -164.0620
  23   2.0000      -6.026064      -163.9775
  24   2.0000      -1.013289       -27.5730
  25   2.0000      -0.987778       -26.8788
  26   2.0000      -0.908244       -24.7146
  27   2.0000      -0.905408       -24.6374
  28   2.0000      -0.872467       -23.7410
  29   2.0000      -0.844256       -22.9734
  30   2.0000      -0.840611       -22.8742
  31   2.0000      -0.818448       -22.2711
  32   2.0000      -0.784755       -21.3543
  33   2.0000      -0.776855       -21.1393
  34   2.0000      -0.706339       -19.2205
  35   2.0000      -0.689921       -18.7737
  36   2.0000      -0.683918       -18.6104
  37   2.0000      -0.663408       -18.0523
  38   2.0000      -0.645169       -17.5559
  39   2.0000      -0.617547       -16.8043
  40   2.0000      -0.592676       -16.1275
  41   2.0000      -0.566977       -15.4282
  42   2.0000      -0.556722       -15.1492
  43   2.0000      -0.553528       -15.0623
  44   2.0000      -0.542725       -14.7683
  45   2.0000      -0.533062       -14.5054
  46   2.0000      -0.514632       -14.0038
  47   2.0000      -0.511632       -13.9222
  48   2.0000      -0.508774       -13.8444
  49   2.0000      -0.491136       -13.3645
  50   2.0000      -0.488652       -13.2969
  51   2.0000      -0.484480       -13.1834
  52   2.0000      -0.472247       -12.8505
  53   2.0000      -0.471973       -12.8430
  54   2.0000      -0.457837       -12.4584
  55   2.0000      -0.449936       -12.2434
  56   2.0000      -0.434421       -11.8212
  57   2.0000      -0.433652       -11.8003
  58   2.0000      -0.430279       -11.7085
  59   2.0000      -0.420843       -11.4517
  60   2.0000      -0.417527       -11.3615
  61   2.0000      -0.403666       -10.9843
  62   2.0000      -0.398611       -10.8468
  63   2.0000      -0.337129        -9.1737
  64   2.0000      -0.326887        -8.8951
  65   2.0000      -0.323651        -8.8070
  66   2.0000      -0.318993        -8.6802
  67   0.0000       0.044781         1.2186
  68   0.0000       0.056808         1.5458
  69   0.0000       0.107474         2.9245
  70   0.0000       0.126900         3.4531
  71   0.0000       0.135683         3.6921

MULLIKEN ATOMIC CHARGES
-----------------------
   0 S :    0.095320
   1 C :   -0.131524
   2 C :   -0.092317
   3 C :    0.035082
   4 C :   -0.161350
   5 H :    0.024848
   6 C :    0.112170
   7 H :    0.022599
   8 H :    0.011276
   9 C :   -0.119042
  10 H :    0.031778
  11 H :    0.030359
  12 C :   -0.071010
  13 H :    0.039124
  14 H :    0.031549
  15 H :    0.048280
  16 S :    0.109634
  17 C :   -0.089252
  18 C :   -0.023916
  19 C :   -0.057547
  20 C :   -0.177861
  21 H :    0.008035
  22 C :    0.138597
  23 H :    0.030272
  24 H :   -0.007479
  25 C :   -0.099136
  26 H :    0.029968
  27 H :    0.029245
  28 C :   -0.043002
  29 H :    0.019612
  30 H :    0.040645
  31 H :    0.042575
  32 H :    0.075407
  33 H :    0.067059
Sum of atomic charges:    0.0000000

LOEWDIN ATOMIC CHARGES
----------------------
   0 S :    0.396057
   1 C :   -0.194860
   2 C :   -0.066117
   3 C :   -0.050675
   4 C :   -0.187879
   5 H :    0.033594
   6 C :   -0.030051
   7 H :    0.027763
   8 H :    0.030690
   9 C :   -0.051900
  10 H :    0.029593
  11 H :    0.024538
  12 C :   -0.073296
  13 H :    0.029502
  14 H :    0.016553
  15 H :    0.036710
  16 S :    0.422561
  17 C :   -0.190878
  18 C :   -0.079377
  19 C :   -0.051309
  20 C :   -0.220036
  21 H :    0.027996
  22 C :   -0.026160
  23 H :    0.038089
  24 H :    0.016645
  25 C :   -0.048984
  26 H :    0.019888
  27 H :    0.031036
  28 C :   -0.067915
  29 H :    0.019838
  30 H :    0.025305
  31 H :    0.036632
  32 H :    0.038801
  33 H :    0.037647

  Mayer bond orders larger than 0.100000
B(  0-S ,  1-C ) :   1.1414 B(  0-S ,  4-C ) :   1.1422 B(  1-C ,  2-C ) :   1.6257
B(  1-C , 32-H ) :   0.9617 B(  2-C ,  3-C ) :   1.1987 B(  2-C ,  6-C ) :   1.0228
B(  3-C ,  4-C ) :   1.6328 B(  3-C ,  5-H ) :   0.9936 B(  4-C , 20-C ) :   0.9868
B(  6-C ,  7-H ) :   0.9355 B(  6-C ,  8-H ) :   0.9415 B(  6-C ,  9-C ) :   1.0730
B(  9-C , 10-H ) :   0.9522 B(  9-C , 11-H ) :   0.9527 B(  9-C , 12-C ) :   1.0734
B( 12-C , 13-H ) :   0.9741 B( 12-C , 14-H ) :   0.9748 B( 12-C , 15-H ) :   0.9775
B( 16-S , 17-C ) :   1.1639 B( 16-S , 20-C ) :   1.1450 B( 17-C , 18-C ) :   1.5999
B( 17-C , 33-H ) :   0.9649 B( 18-C , 19-C ) :   1.2505 B( 18-C , 21-H ) :   0.9970
B( 19-C , 20-C ) :   1.6248 B( 19-C , 22-C ) :   1.0298 B( 22-C , 23-H ) :   0.9209
B( 22-C , 24-H ) :   0.9347 B( 22-C , 25-C ) :   1.0878 B( 25-C , 26-H ) :   0.9526
B( 25-C , 27-H ) :   0.9519 B( 25-C , 28-C ) :   1.0701 B( 28-C , 29-H ) :   0.9739
B( 28-C , 30-H ) :   0.9740 B( 28-C , 31-H ) :   0.9734

Dispersion correction           -0.015086658
FINAL SINGLE POINT ENERGY     -1339.876899979627

DIPOLE MOMENT
-------------
                                X             Y             Z
Electronic contribution:     11.01680       5.60239      -0.43157
Nuclear contribution   :    -11.39870      -5.51384       0.62283
                        -----------------------------------------
Total Dipole Moment    :     -0.38190       0.08855       0.19127
                        -----------------------------------------
Magnitude (a.u.)       :      0.43621
Magnitude (Debye)      :      1.10875

Rotational constants in cm-1:     0.023032     0.008141     0.007011
Rotational constants in MHz :   690.480511   244.068488   210.183563

                             ****ORCA TERMINATED NORMALLY****
TOTAL RUN TIME: 0 days 0 hours 0 minutes 21 seconds 583 msec
