                         Program Version 4.2.1 -  RELEASE  -
|  1> ! wB97X-D3 SP def2-SVP
|  2> %pal
|  3> nprocs 24
|  4> end
|  5>
|  6> * xyz 0 1
|  7> S 	 -34.8651 	 -12.3194 	 16.8271
|  8> C 	 -34.7997 	 -10.5693 	 17.1107
|  9> C 	 -35.3361 	 -9.89826 	 16.0031
| 10> C 	 -35.4117 	 -10.7087 	 14.9058
| 11> C 	 -35.0031 	 -12.0548 	 15.109
| 12> H 	 -35.7128 	 -10.4229 	 13.8881
| 13> C 	 -35.4761 	 -8.37093 	 15.8814
| 14> H 	 -34.8187 	 -8.15328 	 15.0095
| 15> H 	 -35.1986 	 -7.77911 	 16.7646
| 16> C 	 -36.8685 	 -7.84413 	 15.3023
| 17> H 	 -36.5897 	 -6.88911 	 14.9183
| 18> H 	 -37.3786 	 -8.44461 	 14.5232
| 19> C 	 -38.0248 	 -7.65768 	 16.3477
| 20> H 	 -38.196 	 -8.57512 	 16.9593
| 21> H 	 -37.8073 	 -6.80056 	 16.9725
| 22> H 	 -38.9764 	 -7.34349 	 15.8675
| 23> S 	 -35.8266 	 -14.6363 	 14.5351
| 24> C 	 -35.039 	 -15.4662 	 13.1608
| 25> C 	 -34.2144 	 -14.6177 	 12.4078
| 26> C 	 -34.0374 	 -13.3571 	 13.0552
| 27> C 	 -34.7956 	 -13.1988 	 14.2347
| 28> H 	 -33.7513 	 -14.937 	 11.4947
| 29> C 	 -33.4101 	 -12.2138 	 12.356
| 30> H 	 -34.0648 	 -11.341 	 12.1696
| 31> H 	 -33.3742 	 -12.6158 	 11.3176
| 32> C 	 -32.0299 	 -11.7218 	 12.8881
| 33> H 	 -31.3006 	 -12.5305 	 12.8612
| 34> H 	 -32.1542 	 -11.4794 	 13.9364
| 35> C 	 -31.4136 	 -10.5702 	 12.0451
| 36> H 	 -30.6076 	 -10.0407 	 12.4658
| 37> H 	 -32.0565 	 -9.74089 	 11.8538
| 38> H 	 -30.9534 	 -10.921 	 11.0639
| 39> H 	 -34.6634 	 -10.0777 	 18.0627
| 40> H 	 -35.2796 	 -16.4615 	 12.8064
| 41> *
| 42>
| 43>                          ****END OF INPUT****

CARTESIAN COORDINATES (ANGSTROEM)
---------------------------------
  S    -34.865100  -12.319400   16.827100
  C    -34.799700  -10.569300   17.110700
  C    -35.336100   -9.898260   16.003100
  C    -35.411700  -10.708700   14.905800
  C    -35.003100  -12.054800   15.109000
  H    -35.712800  -10.422900   13.888100
  C    -35.476100   -8.370930   15.881400
  H    -34.818700   -8.153280   15.009500
  H    -35.198600   -7.779110   16.764600
  C    -36.868500   -7.844130   15.302300
  H    -36.589700   -6.889110   14.918300
  H    -37.378600   -8.444610   14.523200
  C    -38.024800   -7.657680   16.347700
  H    -38.196000   -8.575120   16.959300
  H    -37.807300   -6.800560   16.972500
  H    -38.976400   -7.343490   15.867500
  S    -35.826600  -14.636300   14.535100
  C    -35.039000  -15.466200   13.160800
  C    -34.214400  -14.617700   12.407800
  C    -34.037400  -13.357100   13.055200
  C    -34.795600  -13.198800   14.234700
  H    -33.751300  -14.937000   11.494700
  C    -33.410100  -12.213800   12.356000
  H    -34.064800  -11.341000   12.169600
  H    -33.374200  -12.615800   11.317600
  C    -32.029900  -11.721800   12.888100
  H    -31.300600  -12.530500   12.861200
  H    -32.154200  -11.479400   13.936400
  C    -31.413600  -10.570200   12.045100
  H    -30.607600  -10.040700   12.465800
  H    -32.056500   -9.740890   11.853800
  H    -30.953400  -10.921000   11.063900
  H    -34.663400  -10.077700   18.062700
  H    -35.279600  -16.461500   12.806400

 Total Charge           Charge          ....    0
 Multiplicity           Mult            ....    1
 Number of Electrons    NEL             ....  134
 Basis Dimension        Dim             ....  322

ORBITAL ENERGIES
----------------

  NO   OCC          E(Eh)            E(eV)
   0   2.0000     -88.970249     -2421.0036
   1   2.0000     -88.966258     -2420.8950
   2   2.0000     -10.332796      -281.1697
   3   2.0000     -10.332049      -281.1493
   4   2.0000     -10.323461      -280.9157
   5   2.0000     -10.315918      -280.7104
   6   2.0000     -10.305491      -280.4267
   7   2.0000     -10.304131      -280.3897
   8   2.0000     -10.301909      -280.3292
   9   2.0000     -10.298559      -280.2380
  10   2.0000     -10.296490      -280.1817
  11   2.0000     -10.294132      -280.1176
  12   2.0000     -10.291891      -280.0566
  13   2.0000     -10.287776      -279.9446
  14   2.0000     -10.281154      -279.7644
  15   2.0000     -10.275792      -279.6185
  16   2.0000      -8.083506      -219.9634
  17   2.0000      -8.080726      -219.8877
  18   2.0000      -6.042103      -164.4140
  19   2.0000      -6.039105      -164.3324
  20   2.0000      -6.038283      -164.3100
  21   2.0000      -6.035407      -164.2318
  22   2.0000      -6.034188      -164.1986
  23   2.0000      -6.031478      -164.1249
  24   2.0000      -1.003832       -27.3157
  25   2.0000      -0.979036       -26.6409
  26   2.0000      -0.904676       -24.6175
  27   2.0000      -0.901312       -24.5259
  28   2.0000      -0.865921       -23.5629
  29   2.0000      -0.848703       -23.0944
  30   2.0000      -0.844642       -22.9839
  31   2.0000      -0.809822       -22.0364
  32   2.0000      -0.783171       -21.3112
  33   2.0000      -0.768754       -20.9189
  34   2.0000      -0.714130       -19.4325
  35   2.0000      -0.697346       -18.9758
  36   2.0000      -0.690764       -18.7966
  37   2.0000      -0.663847       -18.0642
  38   2.0000      -0.639450       -17.4003
  39   2.0000      -0.621615       -16.9150
  40   2.0000      -0.593906       -16.1610
  41   2.0000      -0.569097       -15.4859
  42   2.0000      -0.554399       -15.0860
  43   2.0000      -0.545046       -14.8315
  44   2.0000      -0.534027       -14.5316
  45   2.0000      -0.517370       -14.0783
  46   2.0000      -0.515202       -14.0193
  47   2.0000      -0.507317       -13.8048
  48   2.0000      -0.504057       -13.7161
  49   2.0000      -0.496305       -13.5051
  50   2.0000      -0.490989       -13.3605
  51   2.0000      -0.479465       -13.0469
  52   2.0000      -0.469778       -12.7833
  53   2.0000      -0.465713       -12.6727
  54   2.0000      -0.457921       -12.4607
  55   2.0000      -0.449743       -12.2381
  56   2.0000      -0.445153       -12.1132
  57   2.0000      -0.434214       -11.8156
  58   2.0000      -0.429614       -11.6904
  59   2.0000      -0.427247       -11.6260
  60   2.0000      -0.423575       -11.5261
  61   2.0000      -0.414555       -11.2806
  62   2.0000      -0.409092       -11.1320
  63   2.0000      -0.339520        -9.2388
  64   2.0000      -0.331383        -9.0174
  65   2.0000      -0.330526        -8.9941
  66   2.0000      -0.285782        -7.7765
  67   0.0000       0.020056         0.5458
  68   0.0000       0.052670         1.4332
  69   0.0000       0.094037         2.5589
  70   0.0000       0.117012         3.1841
  71   0.0000       0.120009         3.2656

MULLIKEN ATOMIC CHARGES
-----------------------
   0 S :    0.111732
   1 C :   -0.121418
   2 C :   -0.039916
   3 C :    0.026082
   4 C :   -0.171761
   5 H :    0.017358
   6 C :    0.030651
   7 H :    0.046537
   8 H :    0.035363
   9 C :   -0.096577
  10 H :    0.025309
  11 H :    0.045600
  12 C :   -0.075956
  13 H :    0.051994
  14 H :    0.022451
  15 H :    0.035590
  16 S :    0.102802
  17 C :   -0.089742
  18 C :   -0.034274
  19 C :   -0.004261
  20 C :   -0.148202
  21 H :    0.023004
  22 C :    0.007916
  23 H :    0.030420
  24 H :    0.011378
  25 C :   -0.039140
  26 H :    0.026885
  27 H :    0.043425
  28 C :   -0.042776
  29 H :    0.015192
  30 H :    0.017011
  31 H :    0.035386
  32 H :    0.045725
  33 H :    0.056211
Sum of atomic charges:    0.0000000

LOEWDIN ATOMIC CHARGES
----------------------
   0 S :    0.407594
   1 C :   -0.191875
   2 C :   -0.070839
   3 C :   -0.063988
   4 C :   -0.195695
   5 H :    0.032449
   6 C :   -0.026238
   7 H :    0.041218
   8 H :    0.032520
   9 C :   -0.040927
  10 H :    0.019383
  11 H :    0.029195
  12 C :   -0.075909
  13 H :    0.031210
  14 H :    0.018628
  15 H :    0.028509
  16 S :    0.379065
  17 C :   -0.173204
  18 C :   -0.063389
  19 C :   -0.058880
  20 C :   -0.187620
  21 H :    0.032368
  22 C :   -0.041603
  23 H :    0.030674
  24 H :    0.032783
  25 C :   -0.032463
  26 H :    0.025944
  27 H :    0.027463
  28 C :   -0.072799
  29 H :    0.020694
  30 H :    0.019025
  31 H :    0.033362
  32 H :    0.025526
  33 H :    0.027820

  Mayer bond orders larger than 0.100000
B(  0-S ,  1-C ) :   1.1516 B(  0-S ,  4-C ) :   1.1661 B(  1-C ,  2-C ) :   1.5563
B(  1-C ,  4-C ) :   0.1275 B(  1-C , 32-H ) :   0.9711 B(  2-C ,  3-C ) :   1.2728
B(  2-C ,  6-C ) :   1.0195 B(  3-C ,  4-C ) :   1.5251 B(  3-C ,  5-H ) :   0.9950
B(  4-C , 20-C ) :   1.0515 B(  6-C ,  7-H ) :   0.9478 B(  6-C ,  8-H ) :   0.9511
B(  6-C ,  9-C ) :   1.0449 B(  9-C , 10-H ) :   0.9605 B(  9-C , 11-H ) :   0.9651
B(  9-C , 12-C ) :   1.0696 B( 12-C , 13-H ) :   0.9786 B( 12-C , 14-H ) :   0.9770
B( 12-C , 15-H ) :   0.9760 B( 16-S , 17-C ) :   1.1461 B( 16-S , 20-C ) :   1.1328
B( 17-C , 18-C ) :   1.6115 B( 17-C , 20-C ) :   0.1059 B( 17-C , 33-H ) :   0.9652
B( 18-C , 19-C ) :   1.2499 B( 18-C , 21-H ) :   0.9856 B( 19-C , 20-C ) :   1.5818
B( 19-C , 22-C ) :   1.0386 B( 22-C , 23-H ) :   0.9438 B( 22-C , 24-H ) :   0.9365
B( 22-C , 25-C ) :   1.0416 B( 25-C , 26-H ) :   0.9562 B( 25-C , 27-H ) :   0.9618
B( 25-C , 28-C ) :   1.0741 B( 28-C , 29-H ) :   0.9726 B( 28-C , 30-H ) :   0.9743
B( 28-C , 31-H ) :   0.9761

Dispersion correction           -0.014084835
FINAL SINGLE POINT ENERGY     -1339.851384780303

DIPOLE MOMENT
-------------
                                X             Y             Z
Electronic contribution:     -4.31206     -25.36681       9.94117
Nuclear contribution   :      4.36283      25.95518     -10.40829
                        -----------------------------------------
Total Dipole Moment    :      0.05076       0.58837      -0.46712
                        -----------------------------------------
Magnitude (a.u.)       :      0.75296
Magnitude (Debye)      :      1.91388

Rotational constants in cm-1:     0.017472     0.008653     0.006911
Rotational constants in MHz :   523.786134   259.411509   207.181179

                             ****ORCA TERMINATED NORMALLY****
TOTAL RUN TIME: 0 days 0 hours 0 minutes 21 seconds 314 msec
