                         Program Version 4.2.1 -  RELEASE  -
|  1> ! wB97X-D3 SP def2-SVP
|  2> %pal
|  3> nprocs 24
|  4> end
|  5>
|  6> * xyz 0 1
|  7> S 	 -29.2474 	 18.8653 	 12.6083
|  8> C 	 -29.07 	 19.973 	 11.2827
|  9> C 	 -29.5573 	 19.4438 	 10.1088
| 10> C 	 -30.0015 	 18.1052 	 10.24
| 11> C 	 -29.923 	 17.6132 	 11.5103
| 12> H 	 -30.2636 	 17.4206 	 9.39312
| 13> C 	 -29.706 	 20.2482 	 8.83449
| 14> H 	 -30.6854 	 20.6392 	 8.78119
| 15> H 	 -29.7018 	 19.5359 	 8.01793
| 16> C 	 -28.5945 	 21.2713 	 8.65114
| 17> H 	 -28.6539 	 22.0178 	 9.44168
| 18> H 	 -27.634 	 20.8389 	 8.79855
| 19> C 	 -28.4736 	 21.8359 	 7.18418
| 20> H 	 -27.7579 	 22.6104 	 7.05087
| 21> H 	 -28.1895 	 21.0463 	 6.46605
| 22> H 	 -29.3411 	 22.3007 	 6.79207
| 23> S 	 -28.8063 	 15.6659 	 12.905
| 24> C 	 -29.5358 	 14.0803 	 12.873
| 25> C 	 -30.629 	 14.0423 	 12.0153
| 26> C 	 -30.9831 	 15.2988 	 11.4923
| 27> C 	 -30.0691 	 16.2616 	 11.8786
| 28> H 	 -31.1997 	 13.1491 	 11.8378
| 29> C 	 -32.2459 	 15.4643 	 10.7431
| 30> H 	 -32.4184 	 14.6222 	 10.1185
| 31> H 	 -32.2232 	 16.3271 	 10.1392
| 32> C 	 -33.5598 	 15.4977 	 11.5935
| 33> H 	 -33.5378 	 14.6972 	 12.377
| 34> H 	 -34.3699 	 15.2604 	 10.9422
| 35> C 	 -33.8609 	 16.8553 	 12.1907
| 36> H 	 -33.807 	 17.6418 	 11.4691
| 37> H 	 -33.1183 	 16.9641 	 13.0043
| 38> H 	 -34.9064 	 16.9212 	 12.6205
| 39> H 	 -28.8234 	 21.0443 	 11.4414
| 40> H 	 -29.0395 	 13.129 	 13.2779
| 41> *
| 42>
| 43>                          ****END OF INPUT****

CARTESIAN COORDINATES (ANGSTROEM)
---------------------------------
  S    -29.247400   18.865300   12.608300
  C    -29.070000   19.973000   11.282700
  C    -29.557300   19.443800   10.108800
  C    -30.001500   18.105200   10.240000
  C    -29.923000   17.613200   11.510300
  H    -30.263600   17.420600    9.393120
  C    -29.706000   20.248200    8.834490
  H    -30.685400   20.639200    8.781190
  H    -29.701800   19.535900    8.017930
  C    -28.594500   21.271300    8.651140
  H    -28.653900   22.017800    9.441680
  H    -27.634000   20.838900    8.798550
  C    -28.473600   21.835900    7.184180
  H    -27.757900   22.610400    7.050870
  H    -28.189500   21.046300    6.466050
  H    -29.341100   22.300700    6.792070
  S    -28.806300   15.665900   12.905000
  C    -29.535800   14.080300   12.873000
  C    -30.629000   14.042300   12.015300
  C    -30.983100   15.298800   11.492300
  C    -30.069100   16.261600   11.878600
  H    -31.199700   13.149100   11.837800
  C    -32.245900   15.464300   10.743100
  H    -32.418400   14.622200   10.118500
  H    -32.223200   16.327100   10.139200
  C    -33.559800   15.497700   11.593500
  H    -33.537800   14.697200   12.377000
  H    -34.369900   15.260400   10.942200
  C    -33.860900   16.855300   12.190700
  H    -33.807000   17.641800   11.469100
  H    -33.118300   16.964100   13.004300
  H    -34.906400   16.921200   12.620500
  H    -28.823400   21.044300   11.441400
  H    -29.039500   13.129000   13.277900

 Total Charge           Charge          ....    0
 Multiplicity           Mult            ....    1
 Number of Electrons    NEL             ....  134
 Basis Dimension        Dim             ....  322

ORBITAL ENERGIES
----------------

  NO   OCC          E(Eh)            E(eV)
   0   2.0000     -88.967076     -2420.9172
   1   2.0000     -88.964662     -2420.8515
   2   2.0000     -10.325809      -280.9796
   3   2.0000     -10.320840      -280.8443
   4   2.0000     -10.320448      -280.8337
   5   2.0000     -10.312933      -280.6292
   6   2.0000     -10.297834      -280.2183
   7   2.0000     -10.297127      -280.1991
   8   2.0000     -10.293368      -280.0968
   9   2.0000     -10.290917      -280.0301
  10   2.0000     -10.287767      -279.9444
  11   2.0000     -10.286952      -279.9222
  12   2.0000     -10.284516      -279.8559
  13   2.0000     -10.284203      -279.8474
  14   2.0000     -10.276432      -279.6359
  15   2.0000     -10.273836      -279.5653
  16   2.0000      -8.082236      -219.9288
  17   2.0000      -8.079010      -219.8410
  18   2.0000      -6.040703      -164.3759
  19   2.0000      -6.037601      -164.2915
  20   2.0000      -6.036681      -164.2664
  21   2.0000      -6.033605      -164.1827
  22   2.0000      -6.032987      -164.1659
  23   2.0000      -6.029676      -164.0758
  24   2.0000      -1.012965       -27.5642
  25   2.0000      -0.985546       -26.8181
  26   2.0000      -0.914150       -24.8753
  27   2.0000      -0.910516       -24.7764
  28   2.0000      -0.872208       -23.7340
  29   2.0000      -0.856042       -23.2941
  30   2.0000      -0.846209       -23.0265
  31   2.0000      -0.812343       -22.1050
  32   2.0000      -0.785056       -21.3625
  33   2.0000      -0.770273       -20.9602
  34   2.0000      -0.718639       -19.5552
  35   2.0000      -0.701901       -19.0997
  36   2.0000      -0.689740       -18.7688
  37   2.0000      -0.667166       -18.1545
  38   2.0000      -0.636356       -17.3161
  39   2.0000      -0.616246       -16.7689
  40   2.0000      -0.598780       -16.2936
  41   2.0000      -0.568159       -15.4604
  42   2.0000      -0.559999       -15.2383
  43   2.0000      -0.552511       -15.0346
  44   2.0000      -0.542459       -14.7611
  45   2.0000      -0.525675       -14.3044
  46   2.0000      -0.517397       -14.0791
  47   2.0000      -0.507049       -13.7975
  48   2.0000      -0.501584       -13.6488
  49   2.0000      -0.498998       -13.5784
  50   2.0000      -0.493599       -13.4315
  51   2.0000      -0.483656       -13.1609
  52   2.0000      -0.475906       -12.9501
  53   2.0000      -0.463422       -12.6104
  54   2.0000      -0.455671       -12.3995
  55   2.0000      -0.448731       -12.2106
  56   2.0000      -0.442433       -12.0392
  57   2.0000      -0.439625       -11.9628
  58   2.0000      -0.434688       -11.8285
  59   2.0000      -0.426322       -11.6008
  60   2.0000      -0.422945       -11.5089
  61   2.0000      -0.418593       -11.3905
  62   2.0000      -0.414237       -11.2720
  63   2.0000      -0.358058        -9.7433
  64   2.0000      -0.333206        -9.0670
  65   2.0000      -0.328726        -8.9451
  66   2.0000      -0.282309        -7.6820
  67   0.0000       0.025087         0.6826
  68   0.0000       0.074468         2.0264
  69   0.0000       0.104984         2.8568
  70   0.0000       0.119296         3.2462
  71   0.0000       0.141897         3.8612

MULLIKEN ATOMIC CHARGES
-----------------------
   0 S :    0.100860
   1 C :   -0.149288
   2 C :   -0.097312
   3 C :   -0.002455
   4 C :   -0.145026
   5 H :    0.039701
   6 C :    0.120001
   7 H :    0.032479
   8 H :    0.003235
   9 C :   -0.082392
  10 H :    0.027321
  11 H :    0.027386
  12 C :   -0.033228
  13 H :    0.020147
  14 H :    0.034407
  15 H :    0.016243
  16 S :    0.119621
  17 C :   -0.115951
  18 C :   -0.037782
  19 C :   -0.032653
  20 C :   -0.152692
  21 H :    0.011333
  22 C :    0.118611
  23 H :    0.011564
  24 H :   -0.007367
  25 C :   -0.082091
  26 H :    0.031535
  27 H :    0.017609
  28 C :   -0.050762
  29 H :    0.025086
  30 H :    0.043832
  31 H :    0.038744
  32 H :    0.066223
  33 H :    0.083059
Sum of atomic charges:   -0.0000000

LOEWDIN ATOMIC CHARGES
----------------------
   0 S :    0.383529
   1 C :   -0.208746
   2 C :   -0.063442
   3 C :   -0.069345
   4 C :   -0.179441
   5 H :    0.041485
   6 C :   -0.025112
   7 H :    0.029737
   8 H :    0.026661
   9 C :   -0.035366
  10 H :    0.020604
  11 H :    0.025061
  12 C :   -0.064202
  13 H :    0.022329
  14 H :    0.029969
  15 H :    0.016979
  16 S :    0.422021
  17 C :   -0.204733
  18 C :   -0.064935
  19 C :   -0.061292
  20 C :   -0.199357
  21 H :    0.028508
  22 C :   -0.023599
  23 H :    0.030693
  24 H :    0.020046
  25 C :   -0.035129
  26 H :    0.026443
  27 H :    0.016349
  28 C :   -0.067696
  29 H :    0.018704
  30 H :    0.031187
  31 H :    0.031627
  32 H :    0.035067
  33 H :    0.045393

  Mayer bond orders larger than 0.100000
B(  0-S ,  1-C ) :   1.1224 B(  0-S ,  4-C ) :   1.1298 B(  1-C ,  2-C ) :   1.6192
B(  1-C , 32-H ) :   0.9622 B(  2-C ,  3-C ) :   1.2542 B(  2-C ,  6-C ) :   1.0119
B(  3-C ,  4-C ) :   1.5858 B(  3-C ,  5-H ) :   0.9765 B(  4-C , 20-C ) :   1.0803
B(  6-C ,  7-H ) :   0.9285 B(  6-C ,  8-H ) :   0.9389 B(  6-C ,  9-C ) :   1.0677
B(  9-C , 10-H ) :   0.9504 B(  9-C , 11-H ) :   0.9624 B(  9-C , 12-C ) :   1.0768
B( 12-C , 13-H ) :   0.9746 B( 12-C , 14-H ) :   0.9758 B( 12-C , 15-H ) :   0.9767
B( 16-S , 17-C ) :   1.1479 B( 16-S , 20-C ) :   1.1507 B( 17-C , 18-C ) :   1.5972
B( 17-C , 33-H ) :   0.9567 B( 18-C , 19-C ) :   1.2550 B( 18-C , 21-H ) :   0.9893
B( 19-C , 20-C ) :   1.5601 B( 19-C , 22-C ) :   1.0734 B( 22-C , 23-H ) :   0.9204
B( 22-C , 24-H ) :   0.9241 B( 22-C , 25-C ) :   1.0708 B( 25-C , 26-H ) :   0.9559
B( 25-C , 27-H ) :   0.9548 B( 25-C , 28-C ) :   1.0817 B( 28-C , 29-H ) :   0.9739
B( 28-C , 30-H ) :   0.9785 B( 28-C , 31-H ) :   0.9723

Dispersion correction           -0.014179799
FINAL SINGLE POINT ENERGY     -1339.883154689400

DIPOLE MOMENT
-------------
                                X             Y             Z
Electronic contribution:     12.55123      -9.98497      18.25790
Nuclear contribution   :    -12.87792       9.94323     -18.87903
                        -----------------------------------------
Total Dipole Moment    :     -0.32670      -0.04174      -0.62113
                        -----------------------------------------
Magnitude (a.u.)       :      0.70305
Magnitude (Debye)      :      1.78701

Rotational constants in cm-1:     0.021718     0.007642     0.006633
Rotational constants in MHz :   651.083478   229.096327   198.858100

                             ****ORCA TERMINATED NORMALLY****
TOTAL RUN TIME: 0 days 0 hours 0 minutes 21 seconds 476 msec
