                         Program Version 4.2.1 -  RELEASE  -
|  1> ! wB97X-D3 SP def2-SVP
|  2> %pal
|  3> nprocs 24
|  4> end
|  5>
|  6> * xyz 0 1
|  7> S 	 -57.869 	 -49.8808 	 -78.043
|  8> C 	 -58.1366 	 -48.5254 	 -76.9029
|  9> C 	 -57.0565 	 -48.2542 	 -76.0651
| 10> C 	 -55.9628 	 -49.1009 	 -76.3962
| 11> C 	 -56.1531 	 -49.9224 	 -77.4775
| 12> H 	 -55.0299 	 -48.9955 	 -75.9961
| 13> C 	 -56.9545 	 -47.2114 	 -74.9418
| 14> H 	 -56.1054 	 -47.5789 	 -74.3086
| 15> H 	 -57.7658 	 -47.2995 	 -74.1894
| 16> C 	 -56.8106 	 -45.7978 	 -75.4991
| 17> H 	 -57.8072 	 -45.6127 	 -75.9636
| 18> H 	 -56.8218 	 -45.0262 	 -74.6974
| 19> C 	 -55.6238 	 -45.5422 	 -76.442
| 20> H 	 -55.6842 	 -45.8336 	 -77.4482
| 21> H 	 -55.3315 	 -44.4793 	 -76.4435
| 22> H 	 -54.8488 	 -46.0958 	 -75.8809
| 23> S 	 -55.3752 	 -50.933 	 -79.8985
| 24> C 	 -54.0752 	 -52.0929 	 -79.9503
| 25> C 	 -53.4388 	 -52.1497 	 -78.7604
| 26> C 	 -54.0665 	 -51.4249 	 -77.6991
| 27> C 	 -55.2559 	 -50.8429 	 -78.1233
| 28> H 	 -52.4863 	 -52.628 	 -78.7249
| 29> C 	 -53.5428 	 -51.3892 	 -76.3054
| 30> H 	 -53.2864 	 -52.3969 	 -76.0218
| 31> H 	 -54.3885 	 -51.2304 	 -75.6733
| 32> C 	 -52.485 	 -50.3818 	 -76.0153
| 33> H 	 -52.8269 	 -49.3627 	 -76.2034
| 34> H 	 -51.7572 	 -50.5184 	 -76.8516
| 35> C 	 -51.8892 	 -50.4024 	 -74.5837
| 36> H 	 -51.0219 	 -49.8589 	 -74.5659
| 37> H 	 -51.6789 	 -51.406 	 -74.3145
| 38> H 	 -52.5459 	 -50.044 	 -73.7677
| 39> H 	 -59.1357 	 -48.0813 	 -76.825
| 40> H 	 -53.8553 	 -52.6861 	 -80.8863
| 41> *
| 42>
| 43>                          ****END OF INPUT****

CARTESIAN COORDINATES (ANGSTROEM)
---------------------------------
  S    -57.869000  -49.880800  -78.043000
  C    -58.136600  -48.525400  -76.902900
  C    -57.056500  -48.254200  -76.065100
  C    -55.962800  -49.100900  -76.396200
  C    -56.153100  -49.922400  -77.477500
  H    -55.029900  -48.995500  -75.996100
  C    -56.954500  -47.211400  -74.941800
  H    -56.105400  -47.578900  -74.308600
  H    -57.765800  -47.299500  -74.189400
  C    -56.810600  -45.797800  -75.499100
  H    -57.807200  -45.612700  -75.963600
  H    -56.821800  -45.026200  -74.697400
  C    -55.623800  -45.542200  -76.442000
  H    -55.684200  -45.833600  -77.448200
  H    -55.331500  -44.479300  -76.443500
  H    -54.848800  -46.095800  -75.880900
  S    -55.375200  -50.933000  -79.898500
  C    -54.075200  -52.092900  -79.950300
  C    -53.438800  -52.149700  -78.760400
  C    -54.066500  -51.424900  -77.699100
  C    -55.255900  -50.842900  -78.123300
  H    -52.486300  -52.628000  -78.724900
  C    -53.542800  -51.389200  -76.305400
  H    -53.286400  -52.396900  -76.021800
  H    -54.388500  -51.230400  -75.673300
  C    -52.485000  -50.381800  -76.015300
  H    -52.826900  -49.362700  -76.203400
  H    -51.757200  -50.518400  -76.851600
  C    -51.889200  -50.402400  -74.583700
  H    -51.021900  -49.858900  -74.565900
  H    -51.678900  -51.406000  -74.314500
  H    -52.545900  -50.044000  -73.767700
  H    -59.135700  -48.081300  -76.825000
  H    -53.855300  -52.686100  -80.886300

 Total Charge           Charge          ....    0
 Multiplicity           Mult            ....    1
 Number of Electrons    NEL             ....  134
 Basis Dimension        Dim             ....  322

ORBITAL ENERGIES
----------------

  NO   OCC          E(Eh)            E(eV)
   0   2.0000     -88.966129     -2420.8915
   1   2.0000     -88.960439     -2420.7366
   2   2.0000     -10.330410      -281.1047
   3   2.0000     -10.325704      -280.9767
   4   2.0000     -10.319294      -280.8023
   5   2.0000     -10.317910      -280.7646
   6   2.0000     -10.304510      -280.4000
   7   2.0000     -10.301892      -280.3287
   8   2.0000     -10.301727      -280.3243
   9   2.0000     -10.293302      -280.0950
  10   2.0000     -10.290325      -280.0140
  11   2.0000     -10.289096      -279.9805
  12   2.0000     -10.287562      -279.9388
  13   2.0000     -10.282618      -279.8043
  14   2.0000     -10.276910      -279.6489
  15   2.0000     -10.275129      -279.6005
  16   2.0000      -8.079495      -219.8542
  17   2.0000      -8.075312      -219.7404
  18   2.0000      -6.038015      -164.3027
  19   2.0000      -6.034398      -164.2043
  20   2.0000      -6.033848      -164.1893
  21   2.0000      -6.030119      -164.0879
  22   2.0000      -6.029947      -164.0832
  23   2.0000      -6.025883      -163.9726
  24   2.0000      -1.004689       -27.3390
  25   2.0000      -0.979023       -26.6406
  26   2.0000      -0.917080       -24.9550
  27   2.0000      -0.910335       -24.7715
  28   2.0000      -0.868057       -23.6210
  29   2.0000      -0.854002       -23.2386
  30   2.0000      -0.843868       -22.9628
  31   2.0000      -0.814301       -22.1583
  32   2.0000      -0.789215       -21.4756
  33   2.0000      -0.774540       -21.0763
  34   2.0000      -0.710756       -19.3407
  35   2.0000      -0.703861       -19.1530
  36   2.0000      -0.695383       -18.9223
  37   2.0000      -0.663933       -18.0665
  38   2.0000      -0.638188       -17.3660
  39   2.0000      -0.620833       -16.8937
  40   2.0000      -0.599973       -16.3261
  41   2.0000      -0.568937       -15.4816
  42   2.0000      -0.563397       -15.3308
  43   2.0000      -0.553054       -15.0494
  44   2.0000      -0.542235       -14.7550
  45   2.0000      -0.533279       -14.5113
  46   2.0000      -0.521925       -14.2023
  47   2.0000      -0.511372       -13.9151
  48   2.0000      -0.505931       -13.7671
  49   2.0000      -0.490869       -13.3572
  50   2.0000      -0.489451       -13.3186
  51   2.0000      -0.476670       -12.9708
  52   2.0000      -0.468389       -12.7455
  53   2.0000      -0.467521       -12.7219
  54   2.0000      -0.456612       -12.4250
  55   2.0000      -0.453339       -12.3360
  56   2.0000      -0.447604       -12.1799
  57   2.0000      -0.440736       -11.9930
  58   2.0000      -0.438297       -11.9267
  59   2.0000      -0.424425       -11.5492
  60   2.0000      -0.423143       -11.5143
  61   2.0000      -0.409123       -11.1328
  62   2.0000      -0.406938       -11.0733
  63   2.0000      -0.353576        -9.6213
  64   2.0000      -0.334775        -9.1097
  65   2.0000      -0.328711        -8.9447
  66   2.0000      -0.284459        -7.7405
  67   0.0000       0.018577         0.5055
  68   0.0000       0.075249         2.0476
  69   0.0000       0.095229         2.5913
  70   0.0000       0.112287         3.0555
  71   0.0000       0.131333         3.5738

MULLIKEN ATOMIC CHARGES
-----------------------
   0 S :    0.093374
   1 C :   -0.139356
   2 C :   -0.065413
   3 C :    0.045839
   4 C :   -0.125123
   5 H :   -0.053309
   6 C :    0.040476
   7 H :    0.023876
   8 H :    0.038702
   9 C :   -0.075892
  10 H :    0.025769
  11 H :    0.031232
  12 C :   -0.030887
  13 H :    0.047000
  14 H :    0.036330
  15 H :    0.022858
  16 S :    0.081478
  17 C :   -0.108216
  18 C :   -0.016260
  19 C :   -0.068569
  20 C :   -0.103816
  21 H :    0.009037
  22 C :    0.087297
  23 H :    0.013333
  24 H :    0.003919
  25 C :   -0.084348
  26 H :    0.025957
  27 H :    0.022488
  28 C :    0.017910
  29 H :    0.020601
  30 H :    0.013413
  31 H :    0.033902
  32 H :    0.054588
  33 H :    0.081808
Sum of atomic charges:    0.0000000

LOEWDIN ATOMIC CHARGES
----------------------
   0 S :    0.364220
   1 C :   -0.179800
   2 C :   -0.058913
   3 C :   -0.053828
   4 C :   -0.165362
   5 H :    0.012125
   6 C :   -0.038391
   7 H :    0.029749
   8 H :    0.036619
   9 C :   -0.046567
  10 H :    0.024393
  11 H :    0.027096
  12 C :   -0.063089
  13 H :    0.022549
  14 H :    0.031772
  15 H :    0.029211
  16 S :    0.384821
  17 C :   -0.188466
  18 C :   -0.073687
  19 C :   -0.052415
  20 C :   -0.184702
  21 H :    0.028883
  22 C :   -0.037722
  23 H :    0.029598
  24 H :    0.025875
  25 C :   -0.040780
  26 H :    0.021346
  27 H :    0.028443
  28 C :   -0.052553
  29 H :    0.017484
  30 H :    0.020165
  31 H :    0.031726
  32 H :    0.026702
  33 H :    0.043501

  Mayer bond orders larger than 0.100000
B(  0-S ,  1-C ) :   1.1325 B(  0-S ,  4-C ) :   1.1220 B(  1-C ,  2-C ) :   1.6227
B(  1-C ,  4-C ) :   0.1005 B(  1-C , 32-H ) :   0.9649 B(  2-C ,  3-C ) :   1.2321
B(  2-C ,  6-C ) :   1.0039 B(  3-C ,  4-C ) :   1.5955 B(  3-C ,  5-H ) :   0.9979
B(  4-C , 20-C ) :   1.0649 B(  6-C ,  7-H ) :   0.9429 B(  6-C ,  8-H ) :   0.9430
B(  6-C ,  9-C ) :   1.0705 B(  9-C , 10-H ) :   0.9538 B(  9-C , 11-H ) :   0.9569
B(  9-C , 12-C ) :   1.0589 B( 12-C , 13-H ) :   0.9755 B( 12-C , 14-H ) :   0.9744
B( 12-C , 15-H ) :   0.9772 B( 16-S , 17-C ) :   1.1410 B( 16-S , 20-C ) :   1.1296
B( 17-C , 18-C ) :   1.6149 B( 17-C , 33-H ) :   0.9600 B( 18-C , 19-C ) :   1.2233
B( 18-C , 21-H ) :   0.9981 B( 19-C , 20-C ) :   1.5983 B( 19-C , 22-C ) :   1.0502
B( 22-C , 23-H ) :   0.9266 B( 22-C , 24-H ) :   0.9215 B( 22-C , 25-C ) :   1.0633
B( 25-C , 26-H ) :   0.9462 B( 25-C , 27-H ) :   0.9514 B( 25-C , 28-C ) :   1.0763
B( 28-C , 29-H ) :   0.9724 B( 28-C , 30-H ) :   0.9736 B( 28-C , 31-H ) :   0.9729

Dispersion correction           -0.014804544
FINAL SINGLE POINT ENERGY     -1339.870732521674

DIPOLE MOMENT
-------------
                                X             Y             Z
Electronic contribution:    -14.41810     -14.08609     -20.78248
Nuclear contribution   :     14.89010      14.31964      21.32011
                        -----------------------------------------
Total Dipole Moment    :      0.47200       0.23355       0.53763
                        -----------------------------------------
Magnitude (a.u.)       :      0.75258
Magnitude (Debye)      :      1.91291

Rotational constants in cm-1:     0.016729     0.010100     0.007201
Rotational constants in MHz :   501.527057   302.794224   215.891494

                             ****ORCA TERMINATED NORMALLY****
TOTAL RUN TIME: 0 days 0 hours 0 minutes 22 seconds 245 msec
