                         Program Version 4.2.1 -  RELEASE  -
|  1> ! wB97X-D3 SP def2-SVP
|  2> %pal
|  3> nprocs 24
|  4> end
|  5>
|  6> * xyz 0 1
|  7> S 	 -51.4145 	 19.3781 	 -100.639
|  8> C 	 -53.0943 	 18.8249 	 -100.832
|  9> C 	 -53.7382 	 19.7004 	 -101.702
| 10> C 	 -52.9466 	 20.7342 	 -102.23
| 11> C 	 -51.5949 	 20.5485 	 -101.916
| 12> H 	 -53.2738 	 21.5812 	 -102.876
| 13> C 	 -55.1548 	 19.5815 	 -102
| 14> H 	 -55.485 	 18.8094 	 -101.455
| 15> H 	 -55.2476 	 19.2068 	 -103.038
| 16> C 	 -56.0693 	 20.8129 	 -101.726
| 17> H 	 -55.4986 	 21.7411 	 -102.069
| 18> H 	 -57.0199 	 20.7435 	 -102.327
| 19> C 	 -56.6758 	 20.9444 	 -100.313
| 20> H 	 -57.413 	 21.7282 	 -100.366
| 21> H 	 -57.3524 	 20.1263 	 -100.028
| 22> H 	 -55.8972 	 21.288 	 -99.617
| 23> S 	 -49.5946 	 22.1656 	 -101.508
| 24> C 	 -48.4598 	 22.5401 	 -102.8
| 25> C 	 -48.8935 	 22.0308 	 -104.022
| 26> C 	 -50.1899 	 21.3864 	 -103.896
| 27> C 	 -50.4901 	 21.2013 	 -102.556
| 28> H 	 -48.3099 	 22.1493 	 -104.972
| 29> C 	 -50.9592 	 20.6743 	 -105.04
| 30> H 	 -51.9621 	 20.4172 	 -104.562
| 31> H 	 -50.3947 	 19.7857 	 -105.239
| 32> C 	 -51.3427 	 21.5 	 -106.306
| 33> H 	 -52.0018 	 20.837 	 -106.835
| 34> H 	 -50.4368 	 21.6052 	 -106.964
| 35> C 	 -52.0466 	 22.8821 	 -106.117
| 36> H 	 -51.4401 	 23.7259 	 -105.851
| 37> H 	 -52.8848 	 22.8563 	 -105.456
| 38> H 	 -52.6372 	 23.0592 	 -106.974
| 39> H 	 -53.5738 	 18.0227 	 -100.274
| 40> H 	 -47.5939 	 23.1158 	 -102.61
| 41> *
| 42>
| 43>                          ****END OF INPUT****

CARTESIAN COORDINATES (ANGSTROEM)
---------------------------------
  S    -51.414500   19.378100  -100.639000
  C    -53.094300   18.824900  -100.832000
  C    -53.738200   19.700400  -101.702000
  C    -52.946600   20.734200  -102.230000
  C    -51.594900   20.548500  -101.916000
  H    -53.273800   21.581200  -102.876000
  C    -55.154800   19.581500  -102.000000
  H    -55.485000   18.809400  -101.455000
  H    -55.247600   19.206800  -103.038000
  C    -56.069300   20.812900  -101.726000
  H    -55.498600   21.741100  -102.069000
  H    -57.019900   20.743500  -102.327000
  C    -56.675800   20.944400  -100.313000
  H    -57.413000   21.728200  -100.366000
  H    -57.352400   20.126300  -100.028000
  H    -55.897200   21.288000  -99.617000
  S    -49.594600   22.165600  -101.508000
  C    -48.459800   22.540100  -102.800000
  C    -48.893500   22.030800  -104.022000
  C    -50.189900   21.386400  -103.896000
  C    -50.490100   21.201300  -102.556000
  H    -48.309900   22.149300  -104.972000
  C    -50.959200   20.674300  -105.040000
  H    -51.962100   20.417200  -104.562000
  H    -50.394700   19.785700  -105.239000
  C    -51.342700   21.500000  -106.306000
  H    -52.001800   20.837000  -106.835000
  H    -50.436800   21.605200  -106.964000
  C    -52.046600   22.882100  -106.117000
  H    -51.440100   23.725900  -105.851000
  H    -52.884800   22.856300  -105.456000
  H    -52.637200   23.059200  -106.974000
  H    -53.573800   18.022700  -100.274000
  H    -47.593900   23.115800  -102.610000

 Total Charge           Charge          ....    0
 Multiplicity           Mult            ....    1
 Number of Electrons    NEL             ....  134
 Basis Dimension        Dim             ....  322

ORBITAL ENERGIES
----------------

  NO   OCC          E(Eh)            E(eV)
   0   2.0000     -88.964716     -2420.8530
   1   2.0000     -88.961233     -2420.7582
   2   2.0000     -10.325972      -280.9840
   3   2.0000     -10.316147      -280.7166
   4   2.0000     -10.314504      -280.6719
   5   2.0000     -10.314309      -280.6666
   6   2.0000     -10.304621      -280.4030
   7   2.0000     -10.302041      -280.3328
   8   2.0000     -10.297888      -280.2198
   9   2.0000     -10.294603      -280.1304
  10   2.0000     -10.294469      -280.1267
  11   2.0000     -10.294443      -280.1260
  12   2.0000     -10.293379      -280.0971
  13   2.0000     -10.279524      -279.7201
  14   2.0000     -10.277146      -279.6554
  15   2.0000     -10.274026      -279.5704
  16   2.0000      -8.079112      -219.8438
  17   2.0000      -8.077581      -219.8022
  18   2.0000      -6.037598      -164.2914
  19   2.0000      -6.035874      -164.2445
  20   2.0000      -6.033674      -164.1846
  21   2.0000      -6.031946      -164.1376
  22   2.0000      -6.029903      -164.0820
  23   2.0000      -6.028380      -164.0406
  24   2.0000      -1.011734       -27.5307
  25   2.0000      -0.984220       -26.7820
  26   2.0000      -0.912996       -24.8439
  27   2.0000      -0.899329       -24.4720
  28   2.0000      -0.868622       -23.6364
  29   2.0000      -0.849321       -23.1112
  30   2.0000      -0.845708       -23.0129
  31   2.0000      -0.815132       -22.1809
  32   2.0000      -0.786284       -21.3959
  33   2.0000      -0.773237       -21.0408
  34   2.0000      -0.711263       -19.3545
  35   2.0000      -0.698533       -19.0080
  36   2.0000      -0.689326       -18.7575
  37   2.0000      -0.656881       -17.8746
  38   2.0000      -0.636445       -17.3185
  39   2.0000      -0.621352       -16.9079
  40   2.0000      -0.588994       -16.0273
  41   2.0000      -0.565062       -15.3761
  42   2.0000      -0.553199       -15.0533
  43   2.0000      -0.548243       -14.9184
  44   2.0000      -0.546245       -14.8641
  45   2.0000      -0.536689       -14.6040
  46   2.0000      -0.518625       -14.1125
  47   2.0000      -0.514232       -13.9930
  48   2.0000      -0.499274       -13.5859
  49   2.0000      -0.497069       -13.5259
  50   2.0000      -0.491750       -13.3812
  51   2.0000      -0.481527       -13.1030
  52   2.0000      -0.470707       -12.8086
  53   2.0000      -0.463564       -12.6142
  54   2.0000      -0.457759       -12.4562
  55   2.0000      -0.449617       -12.2347
  56   2.0000      -0.445127       -12.1125
  57   2.0000      -0.442326       -12.0363
  58   2.0000      -0.432409       -11.7665
  59   2.0000      -0.422523       -11.4974
  60   2.0000      -0.416733       -11.3399
  61   2.0000      -0.410749       -11.1771
  62   2.0000      -0.406064       -11.0496
  63   2.0000      -0.339241        -9.2312
  64   2.0000      -0.327276        -8.9056
  65   2.0000      -0.325216        -8.8496
  66   2.0000      -0.290353        -7.9009
  67   0.0000       0.028845         0.7849
  68   0.0000       0.069256         1.8846
  69   0.0000       0.110998         3.0204
  70   0.0000       0.119122         3.2415
  71   0.0000       0.126286         3.4364

MULLIKEN ATOMIC CHARGES
-----------------------
   0 S :    0.114623
   1 C :   -0.121825
   2 C :   -0.123188
   3 C :    0.026737
   4 C :   -0.174951
   5 H :    0.040118
   6 C :    0.165422
   7 H :   -0.043530
   8 H :    0.036498
   9 C :   -0.134742
  10 H :    0.041643
  11 H :    0.031434
  12 C :   -0.037262
  13 H :    0.019341
  14 H :    0.035716
  15 H :    0.050345
  16 S :    0.108266
  17 C :   -0.085772
  18 C :   -0.040548
  19 C :   -0.042164
  20 C :   -0.155794
  21 H :    0.041297
  22 C :    0.036277
  23 H :    0.030502
  24 H :    0.045832
  25 C :   -0.079700
  26 H :    0.027822
  27 H :    0.034156
  28 C :   -0.012040
  29 H :    0.049722
  30 H :    0.004071
  31 H :    0.014394
  32 H :    0.052702
  33 H :    0.044597
Sum of atomic charges:   -0.0000000

LOEWDIN ATOMIC CHARGES
----------------------
   0 S :    0.400581
   1 C :   -0.199329
   2 C :   -0.065406
   3 C :   -0.070918
   4 C :   -0.196591
   5 H :    0.039135
   6 C :   -0.033331
   7 H :    0.009681
   8 H :    0.040354
   9 C :   -0.043920
  10 H :    0.028699
  11 H :    0.029662
  12 C :   -0.070981
  13 H :    0.025056
  14 H :    0.030221
  15 H :    0.030067
  16 S :    0.429601
  17 C :   -0.179477
  18 C :   -0.070763
  19 C :   -0.057889
  20 C :   -0.222299
  21 H :    0.041172
  22 C :   -0.034162
  23 H :    0.036842
  24 H :    0.032597
  25 C :   -0.040015
  26 H :    0.025012
  27 H :    0.025364
  28 C :   -0.066265
  29 H :    0.028155
  30 H :    0.022153
  31 H :    0.027196
  32 H :    0.032054
  33 H :    0.017744

  Mayer bond orders larger than 0.100000
B(  0-S ,  1-C ) :   1.1175 B(  0-S ,  4-C ) :   1.1738 B(  1-C ,  2-C ) :   1.5888
B(  1-C ,  4-C ) :   0.1072 B(  1-C , 32-H ) :   0.9693 B(  2-C ,  3-C ) :   1.2461
B(  2-C ,  6-C ) :   1.0474 B(  3-C ,  4-C ) :   1.5344 B(  3-C ,  5-H ) :   0.9827
B(  4-C , 20-C ) :   1.0185 B(  6-C ,  7-H ) :   0.9161 B(  6-C ,  8-H ) :   0.9228
B(  6-C ,  9-C ) :   1.0529 B(  9-C , 10-H ) :   0.9597 B(  9-C , 11-H ) :   0.9570
B(  9-C , 12-C ) :   1.0851 B( 12-C , 13-H ) :   0.9715 B( 12-C , 14-H ) :   0.9694
B( 12-C , 15-H ) :   0.9759 B( 16-S , 17-C ) :   1.1497 B( 16-S , 20-C ) :   1.1765
B( 17-C , 18-C ) :   1.6049 B( 17-C , 20-C ) :   0.1012 B( 17-C , 33-H ) :   0.9781
B( 18-C , 19-C ) :   1.2153 B( 18-C , 21-H ) :   0.9845 B( 19-C , 20-C ) :   1.5927
B( 19-C , 22-C ) :   1.0355 B( 22-C , 23-H ) :   0.9317 B( 22-C , 24-H ) :   0.9433
B( 22-C , 25-C ) :   1.0690 B( 25-C , 26-H ) :   0.9583 B( 25-C , 27-H ) :   0.9553
B( 25-C , 28-C ) :   1.0747 B( 28-C , 29-H ) :   0.9763 B( 28-C , 30-H ) :   0.9680
B( 28-C , 31-H ) :   0.9669

Dispersion correction           -0.014571371
FINAL SINGLE POINT ENERGY     -1339.849197692030

DIPOLE MOMENT
-------------
                                X             Y             Z
Electronic contribution:     22.57088      -3.87634      14.86027
Nuclear contribution   :    -23.09726       3.94767     -15.39184
                        -----------------------------------------
Total Dipole Moment    :     -0.52638       0.07133      -0.53157
                        -----------------------------------------
Magnitude (a.u.)       :      0.75149
Magnitude (Debye)      :      1.91012

Rotational constants in cm-1:     0.018525     0.009045     0.007111
Rotational constants in MHz :   555.350988   271.175731   213.195269

                             ****ORCA TERMINATED NORMALLY****
TOTAL RUN TIME: 0 days 0 hours 0 minutes 21 seconds 920 msec
