                         Program Version 4.2.1 -  RELEASE  -
|  1> ! wB97X-D3 SP def2-SVP
|  2> %pal
|  3> nprocs 24
|  4> end
|  5>
|  6> * xyz 0 1
|  7> S 	 -85.6046 	 -3.19937 	 7.8965
|  8> C 	 -85.5362 	 -3.09425 	 6.16979
|  9> C 	 -84.5657 	 -3.93232 	 5.62433
| 10> C 	 -83.8293 	 -4.64474 	 6.63641
| 11> C 	 -84.2853 	 -4.32266 	 7.92891
| 12> H 	 -83.055 	 -5.33478 	 6.51413
| 13> C 	 -84.2472 	 -4.0169 	 4.10403
| 14> H 	 -85.2138 	 -4.28077 	 3.65654
| 15> H 	 -83.5312 	 -4.80593 	 4.05172
| 16> C 	 -83.7798 	 -2.62678 	 3.57492
| 17> H 	 -83.6653 	 -2.66551 	 2.43348
| 18> H 	 -84.6401 	 -1.95053 	 3.61579
| 19> C 	 -82.4875 	 -2.10471 	 4.20219
| 20> H 	 -82.4023 	 -1.00293 	 3.95295
| 21> H 	 -82.4603 	 -2.29364 	 5.2777
| 22> H 	 -81.594 	 -2.73263 	 3.88112
| 23> S 	 -84.6 	 -5.54674 	 10.4296
| 24> C 	 -83.2887 	 -5.53342 	 11.482
| 25> C 	 -82.1212 	 -5.21547 	 10.8843
| 26> C 	 -82.3312 	 -4.71095 	 9.5438
| 27> C 	 -83.6862 	 -4.72801 	 9.20823
| 28> H 	 -81.1614 	 -5.33985 	 11.4458
| 29> C 	 -81.2318 	 -4.09157 	 8.72286
| 30> H 	 -80.7719 	 -3.32148 	 9.36382
| 31> H 	 -81.7416 	 -3.57367 	 7.9072
| 32> C 	 -80.2998 	 -5.08996 	 8.0882
| 33> H 	 -80.779 	 -6.01075 	 7.72551
| 34> H 	 -79.565 	 -5.37904 	 8.80502
| 35> C 	 -79.547 	 -4.59822 	 6.86005
| 36> H 	 -79.1452 	 -3.59536 	 6.91684
| 37> H 	 -80.208 	 -4.72799 	 6.00192
| 38> H 	 -78.6174 	 -5.2049 	 6.71103
| 39> H 	 -86.0951 	 -2.38848 	 5.5701
| 40> H 	 -83.4839 	 -5.8108 	 12.4377
| 41> *
| 42>
| 43>                          ****END OF INPUT****

CARTESIAN COORDINATES (ANGSTROEM)
---------------------------------
  S    -85.604600   -3.199370    7.896500
  C    -85.536200   -3.094250    6.169790
  C    -84.565700   -3.932320    5.624330
  C    -83.829300   -4.644740    6.636410
  C    -84.285300   -4.322660    7.928910
  H    -83.055000   -5.334780    6.514130
  C    -84.247200   -4.016900    4.104030
  H    -85.213800   -4.280770    3.656540
  H    -83.531200   -4.805930    4.051720
  C    -83.779800   -2.626780    3.574920
  H    -83.665300   -2.665510    2.433480
  H    -84.640100   -1.950530    3.615790
  C    -82.487500   -2.104710    4.202190
  H    -82.402300   -1.002930    3.952950
  H    -82.460300   -2.293640    5.277700
  H    -81.594000   -2.732630    3.881120
  S    -84.600000   -5.546740   10.429600
  C    -83.288700   -5.533420   11.482000
  C    -82.121200   -5.215470   10.884300
  C    -82.331200   -4.710950    9.543800
  C    -83.686200   -4.728010    9.208230
  H    -81.161400   -5.339850   11.445800
  C    -81.231800   -4.091570    8.722860
  H    -80.771900   -3.321480    9.363820
  H    -81.741600   -3.573670    7.907200
  C    -80.299800   -5.089960    8.088200
  H    -80.779000   -6.010750    7.725510
  H    -79.565000   -5.379040    8.805020
  C    -79.547000   -4.598220    6.860050
  H    -79.145200   -3.595360    6.916840
  H    -80.208000   -4.727990    6.001920
  H    -78.617400   -5.204900    6.711030
  H    -86.095100   -2.388480    5.570100
  H    -83.483900   -5.810800   12.437700

 Total Charge           Charge          ....    0
 Multiplicity           Mult            ....    1
 Number of Electrons    NEL             ....  134
 Basis Dimension        Dim             ....  322

ORBITAL ENERGIES
----------------

  NO   OCC          E(Eh)            E(eV)
   0   2.0000     -88.968049     -2420.9437
   1   2.0000     -88.959375     -2420.7077
   2   2.0000     -10.329062      -281.0681
   3   2.0000     -10.321099      -280.8514
   4   2.0000     -10.311322      -280.5853
   5   2.0000     -10.303081      -280.3611
   6   2.0000     -10.301976      -280.3310
   7   2.0000     -10.301639      -280.3218
   8   2.0000     -10.296651      -280.1861
   9   2.0000     -10.296392      -280.1791
  10   2.0000     -10.295136      -280.1449
  11   2.0000     -10.293475      -280.0997
  12   2.0000     -10.287366      -279.9335
  13   2.0000     -10.286967      -279.9226
  14   2.0000     -10.282148      -279.7915
  15   2.0000     -10.278754      -279.6991
  16   2.0000      -8.083128      -219.9531
  17   2.0000      -8.076402      -219.7701
  18   2.0000      -6.041460      -164.3965
  19   2.0000      -6.037457      -164.2876
  20   2.0000      -6.034663      -164.2115
  21   2.0000      -6.034207      -164.1991
  22   2.0000      -6.030666      -164.1028
  23   2.0000      -6.027225      -164.0091
  24   2.0000      -1.011060       -27.5123
  25   2.0000      -0.988129       -26.8884
  26   2.0000      -0.915365       -24.9083
  27   2.0000      -0.907950       -24.7066
  28   2.0000      -0.866818       -23.5873
  29   2.0000      -0.853403       -23.2223
  30   2.0000      -0.845418       -23.0050
  31   2.0000      -0.812768       -22.1165
  32   2.0000      -0.784218       -21.3397
  33   2.0000      -0.771680       -20.9985
  34   2.0000      -0.703629       -19.1467
  35   2.0000      -0.700387       -19.0585
  36   2.0000      -0.694977       -18.9113
  37   2.0000      -0.659699       -17.9513
  38   2.0000      -0.641822       -17.4649
  39   2.0000      -0.611638       -16.6435
  40   2.0000      -0.597860       -16.2686
  41   2.0000      -0.574427       -15.6310
  42   2.0000      -0.568732       -15.4760
  43   2.0000      -0.551847       -15.0165
  44   2.0000      -0.537732       -14.6324
  45   2.0000      -0.526804       -14.3351
  46   2.0000      -0.519047       -14.1240
  47   2.0000      -0.513771       -13.9804
  48   2.0000      -0.509194       -13.8559
  49   2.0000      -0.495451       -13.4819
  50   2.0000      -0.488692       -13.2980
  51   2.0000      -0.482264       -13.1231
  52   2.0000      -0.470724       -12.8090
  53   2.0000      -0.466587       -12.6965
  54   2.0000      -0.459090       -12.4925
  55   2.0000      -0.449195       -12.2232
  56   2.0000      -0.441213       -12.0060
  57   2.0000      -0.437084       -11.8937
  58   2.0000      -0.435869       -11.8606
  59   2.0000      -0.434046       -11.8110
  60   2.0000      -0.419735       -11.4216
  61   2.0000      -0.413827       -11.2608
  62   2.0000      -0.404784       -11.0147
  63   2.0000      -0.341392        -9.2897
  64   2.0000      -0.332643        -9.0517
  65   2.0000      -0.327168        -8.9027
  66   2.0000      -0.293498        -7.9865
  67   0.0000       0.033079         0.9001
  68   0.0000       0.074251         2.0205
  69   0.0000       0.116831         3.1791
  70   0.0000       0.121763         3.3133
  71   0.0000       0.125261         3.4085

MULLIKEN ATOMIC CHARGES
-----------------------
   0 S :    0.132301
   1 C :   -0.124503
   2 C :   -0.132961
   3 C :    0.052284
   4 C :   -0.174703
   5 H :   -0.018462
   6 C :    0.111236
   7 H :    0.040958
   8 H :    0.012682
   9 C :   -0.098763
  10 H :    0.034858
  11 H :    0.023560
  12 C :   -0.068639
  13 H :    0.055610
  14 H :    0.046126
  15 H :    0.039006
  16 S :    0.111335
  17 C :   -0.057935
  18 C :   -0.029142
  19 C :   -0.062000
  20 C :   -0.153987
  21 H :    0.035002
  22 C :    0.083217
  23 H :    0.041249
  24 H :    0.022522
  25 C :   -0.069558
  26 H :    0.034931
  27 H :    0.019408
  28 C :   -0.060951
  29 H :    0.029347
  30 H :    0.031364
  31 H :    0.033602
  32 H :    0.044834
  33 H :    0.016170
Sum of atomic charges:   -0.0000000

LOEWDIN ATOMIC CHARGES
----------------------
   0 S :    0.432904
   1 C :   -0.210735
   2 C :   -0.061192
   3 C :   -0.060700
   4 C :   -0.197344
   5 H :    0.019703
   6 C :   -0.022916
   7 H :    0.037568
   8 H :    0.021876
   9 C :   -0.050392
  10 H :    0.029323
  11 H :    0.020509
  12 C :   -0.075984
  13 H :    0.038223
  14 H :    0.024974
  15 H :    0.033197
  16 S :    0.431674
  17 C :   -0.182130
  18 C :   -0.077478
  19 C :   -0.049949
  20 C :   -0.218632
  21 H :    0.040991
  22 C :   -0.034613
  23 H :    0.037410
  24 H :    0.029903
  25 C :   -0.043334
  26 H :    0.028719
  27 H :    0.018934
  28 C :   -0.066463
  29 H :    0.021735
  30 H :    0.021728
  31 H :    0.031978
  32 H :    0.025279
  33 H :    0.005233

  Mayer bond orders larger than 0.100000
B(  0-S ,  1-C ) :   1.1528 B(  0-S ,  4-C ) :   1.1846 B(  1-C ,  2-C ) :   1.5893
B(  1-C , 32-H ) :   0.9707 B(  2-C ,  3-C ) :   1.2510 B(  2-C ,  6-C ) :   0.9987
B(  3-C ,  4-C ) :   1.5377 B(  3-C ,  5-H ) :   1.0085 B(  4-C , 20-C ) :   1.0169
B(  6-C ,  7-H ) :   0.9382 B(  6-C ,  8-H ) :   0.9477 B(  6-C ,  9-C ) :   1.0732
B(  9-C , 10-H ) :   0.9543 B(  9-C , 11-H ) :   0.9566 B(  9-C , 12-C ) :   1.0604
B( 12-C , 13-H ) :   0.9706 B( 12-C , 14-H ) :   0.9776 B( 12-C , 15-H ) :   0.9711
B( 16-S , 17-C ) :   1.1773 B( 16-S , 20-C ) :   1.1529 B( 17-C , 18-C ) :   1.5904
B( 17-C , 33-H ) :   0.9844 B( 18-C , 19-C ) :   1.2264 B( 18-C , 21-H ) :   0.9921
B( 19-C , 20-C ) :   1.5919 B( 19-C , 22-C ) :   1.0466 B( 22-C , 23-H ) :   0.9303
B( 22-C , 24-H ) :   0.9340 B( 22-C , 25-C ) :   1.0536 B( 25-C , 26-H ) :   0.9580
B( 25-C , 27-H ) :   0.9524 B( 25-C , 28-C ) :   1.0899 B( 28-C , 29-H ) :   0.9731
B( 28-C , 30-H ) :   0.9780 B( 28-C , 31-H ) :   0.9741

Dispersion correction           -0.015781893
FINAL SINGLE POINT ENERGY     -1339.882526498389

DIPOLE MOMENT
-------------
                                X             Y             Z
Electronic contribution:    -21.85681      -5.13750      21.67886
Nuclear contribution   :     22.37827       5.19275     -21.97714
                        -----------------------------------------
Total Dipole Moment    :      0.52145       0.05524      -0.29828
                        -----------------------------------------
Magnitude (a.u.)       :      0.60327
Magnitude (Debye)      :      1.53340

Rotational constants in cm-1:     0.018942     0.010109     0.007114
Rotational constants in MHz :   567.870341   303.060540   213.281178

                             ****ORCA TERMINATED NORMALLY****
TOTAL RUN TIME: 0 days 0 hours 0 minutes 22 seconds 789 msec
