                         Program Version 4.2.1 -  RELEASE  -
|  1> ! wB97X-D3 SP def2-SVP
|  2> %pal
|  3> nprocs 24
|  4> end
|  5>
|  6> * xyz 0 1
|  7> S 	 -57.5253 	 -2.46646 	 -26.7572
|  8> C 	 -56.7083 	 -2.73636 	 -25.2533
|  9> C 	 -56.2471 	 -4.03777 	 -25.123
| 10> C 	 -56.3447 	 -4.69947 	 -26.367
| 11> C 	 -57.0248 	 -4.03322 	 -27.3292
| 12> H 	 -56.0069 	 -5.70483 	 -26.5804
| 13> C 	 -55.5148 	 -4.6669 	 -23.921
| 14> H 	 -56.1759 	 -5.40597 	 -23.421
| 15> H 	 -55.431 	 -3.86213 	 -23.2002
| 16> C 	 -54.1247 	 -5.32757 	 -24.3809
| 17> H 	 -54.3307 	 -6.22656 	 -24.9692
| 18> H 	 -53.5344 	 -4.76866 	 -25.037
| 19> C 	 -53.2287 	 -5.75799 	 -23.2136
| 20> H 	 -53.8781 	 -6.44419 	 -22.6486
| 21> H 	 -52.2104 	 -6.04852 	 -23.4045
| 22> H 	 -53.244 	 -4.86307 	 -22.5357
| 23> S 	 -56.1411 	 -5.27355 	 -29.6048
| 24> C 	 -57.1824 	 -5.90206 	 -30.763
| 25> C 	 -58.4646 	 -5.44155 	 -30.4611
| 26> C 	 -58.6072 	 -4.61885 	 -29.3266
| 27> C 	 -57.3767 	 -4.53024 	 -28.6576
| 28> H 	 -59.3673 	 -5.76594 	 -30.9864
| 29> C 	 -59.9374 	 -4.34081 	 -28.756
| 30> H 	 -59.9751 	 -4.4129 	 -27.6899
| 31> H 	 -60.4985 	 -5.23305 	 -29.0541
| 32> C 	 -60.7169 	 -3.1132 	 -29.3129
| 33> H 	 -61.801 	 -3.21866 	 -29.0547
| 34> H 	 -60.6544 	 -3.07243 	 -30.4399
| 35> C 	 -60.1545 	 -1.67307 	 -28.775
| 36> H 	 -60.5815 	 -1.53398 	 -27.7209
| 37> H 	 -60.6303 	 -0.79837 	 -29.213
| 38> H 	 -59.0541 	 -1.53701 	 -28.8657
| 39> H 	 -56.876 	 -2.13426 	 -24.3595
| 40> H 	 -56.9176 	 -6.63443 	 -31.5116
| 41> *
| 42>
| 43>                          ****END OF INPUT****

CARTESIAN COORDINATES (ANGSTROEM)
---------------------------------
  S    -57.525300   -2.466460  -26.757200
  C    -56.708300   -2.736360  -25.253300
  C    -56.247100   -4.037770  -25.123000
  C    -56.344700   -4.699470  -26.367000
  C    -57.024800   -4.033220  -27.329200
  H    -56.006900   -5.704830  -26.580400
  C    -55.514800   -4.666900  -23.921000
  H    -56.175900   -5.405970  -23.421000
  H    -55.431000   -3.862130  -23.200200
  C    -54.124700   -5.327570  -24.380900
  H    -54.330700   -6.226560  -24.969200
  H    -53.534400   -4.768660  -25.037000
  C    -53.228700   -5.757990  -23.213600
  H    -53.878100   -6.444190  -22.648600
  H    -52.210400   -6.048520  -23.404500
  H    -53.244000   -4.863070  -22.535700
  S    -56.141100   -5.273550  -29.604800
  C    -57.182400   -5.902060  -30.763000
  C    -58.464600   -5.441550  -30.461100
  C    -58.607200   -4.618850  -29.326600
  C    -57.376700   -4.530240  -28.657600
  H    -59.367300   -5.765940  -30.986400
  C    -59.937400   -4.340810  -28.756000
  H    -59.975100   -4.412900  -27.689900
  H    -60.498500   -5.233050  -29.054100
  C    -60.716900   -3.113200  -29.312900
  H    -61.801000   -3.218660  -29.054700
  H    -60.654400   -3.072430  -30.439900
  C    -60.154500   -1.673070  -28.775000
  H    -60.581500   -1.533980  -27.720900
  H    -60.630300   -0.798370  -29.213000
  H    -59.054100   -1.537010  -28.865700
  H    -56.876000   -2.134260  -24.359500
  H    -56.917600   -6.634430  -31.511600

 Total Charge           Charge          ....    0
 Multiplicity           Mult            ....    1
 Number of Electrons    NEL             ....  134
 Basis Dimension        Dim             ....  322

ORBITAL ENERGIES
----------------

  NO   OCC          E(Eh)            E(eV)
   0   2.0000     -88.965915     -2420.8856
   1   2.0000     -88.964922     -2420.8586
   2   2.0000     -10.324876      -280.9542
   3   2.0000     -10.324711      -280.9497
   4   2.0000     -10.313013      -280.6314
   5   2.0000     -10.311181      -280.5815
   6   2.0000     -10.305383      -280.4237
   7   2.0000     -10.301122      -280.3078
   8   2.0000     -10.301075      -280.3065
   9   2.0000     -10.297641      -280.2130
  10   2.0000     -10.291257      -280.0393
  11   2.0000     -10.288420      -279.9621
  12   2.0000     -10.288079      -279.9529
  13   2.0000     -10.286725      -279.9160
  14   2.0000     -10.284761      -279.8626
  15   2.0000     -10.280686      -279.7517
  16   2.0000      -8.081098      -219.8979
  17   2.0000      -8.080554      -219.8831
  18   2.0000      -6.039361      -164.3394
  19   2.0000      -6.039025      -164.3302
  20   2.0000      -6.035130      -164.2242
  21   2.0000      -6.035032      -164.2216
  22   2.0000      -6.032298      -164.1472
  23   2.0000      -6.031369      -164.1219
  24   2.0000      -1.015110       -27.6225
  25   2.0000      -0.993206       -27.0265
  26   2.0000      -0.907105       -24.6836
  27   2.0000      -0.904253       -24.6060
  28   2.0000      -0.870224       -23.6800
  29   2.0000      -0.850776       -23.1508
  30   2.0000      -0.840415       -22.8689
  31   2.0000      -0.811241       -22.0750
  32   2.0000      -0.781924       -21.2772
  33   2.0000      -0.769023       -20.9262
  34   2.0000      -0.710284       -19.3278
  35   2.0000      -0.699748       -19.0411
  36   2.0000      -0.688800       -18.7432
  37   2.0000      -0.666818       -18.1451
  38   2.0000      -0.636394       -17.3172
  39   2.0000      -0.619358       -16.8536
  40   2.0000      -0.602510       -16.3951
  41   2.0000      -0.570475       -15.5234
  42   2.0000      -0.555898       -15.1267
  43   2.0000      -0.546396       -14.8682
  44   2.0000      -0.535105       -14.5610
  45   2.0000      -0.530168       -14.4266
  46   2.0000      -0.514046       -13.9879
  47   2.0000      -0.505480       -13.7548
  48   2.0000      -0.499829       -13.6010
  49   2.0000      -0.494287       -13.4502
  50   2.0000      -0.493627       -13.4323
  51   2.0000      -0.478598       -13.0233
  52   2.0000      -0.469346       -12.7715
  53   2.0000      -0.462857       -12.5950
  54   2.0000      -0.458995       -12.4899
  55   2.0000      -0.450255       -12.2521
  56   2.0000      -0.445455       -12.1214
  57   2.0000      -0.438637       -11.9359
  58   2.0000      -0.433940       -11.8081
  59   2.0000      -0.424920       -11.5627
  60   2.0000      -0.417566       -11.3625
  61   2.0000      -0.413947       -11.2641
  62   2.0000      -0.402443       -10.9510
  63   2.0000      -0.347991        -9.4693
  64   2.0000      -0.331494        -9.0204
  65   2.0000      -0.329187        -8.9576
  66   2.0000      -0.292438        -7.9576
  67   0.0000       0.030099         0.8190
  68   0.0000       0.080531         2.1914
  69   0.0000       0.106722         2.9040
  70   0.0000       0.123419         3.3584
  71   0.0000       0.131718         3.5842

MULLIKEN ATOMIC CHARGES
-----------------------
   0 S :    0.112374
   1 C :   -0.108416
   2 C :   -0.107554
   3 C :    0.004958
   4 C :   -0.123302
   5 H :    0.006571
   6 C :    0.076387
   7 H :    0.046587
   8 H :    0.014408
   9 C :   -0.085944
  10 H :    0.033063
  11 H :    0.024870
  12 C :   -0.039449
  13 H :    0.022740
  14 H :    0.051331
  15 H :    0.021636
  16 S :    0.125498
  17 C :   -0.091047
  18 C :   -0.052727
  19 C :    0.002968
  20 C :   -0.186065
  21 H :    0.016802
  22 C :    0.044385
  23 H :    0.027050
  24 H :    0.021288
  25 C :   -0.085871
  26 H :    0.041439
  27 H :    0.040097
  28 C :   -0.096898
  29 H :    0.035695
  30 H :    0.029845
  31 H :    0.061067
  32 H :    0.052786
  33 H :    0.063427
Sum of atomic charges:    0.0000000

LOEWDIN ATOMIC CHARGES
----------------------
   0 S :    0.436922
   1 C :   -0.209993
   2 C :   -0.062064
   3 C :   -0.065815
   4 C :   -0.196010
   5 H :    0.027734
   6 C :   -0.023668
   7 H :    0.037704
   8 H :    0.025818
   9 C :   -0.035758
  10 H :    0.023210
  11 H :    0.016677
  12 C :   -0.068673
  13 H :    0.026255
  14 H :    0.026650
  15 H :    0.027699
  16 S :    0.456838
  17 C :   -0.218620
  18 C :   -0.071932
  19 C :   -0.067645
  20 C :   -0.204621
  21 H :    0.028322
  22 C :   -0.037991
  23 H :    0.028022
  24 H :    0.037773
  25 C :   -0.039231
  26 H :    0.028480
  27 H :    0.026752
  28 C :   -0.089434
  29 H :    0.030849
  30 H :    0.023034
  31 H :    0.020536
  32 H :    0.028386
  33 H :    0.033795

  Mayer bond orders larger than 0.100000
B(  0-S ,  1-C ) :   1.1451 B(  0-S ,  4-C ) :   1.1437 B(  1-C ,  2-C ) :   1.6303
B(  1-C , 32-H ) :   0.9538 B(  2-C ,  3-C ) :   1.2407 B(  2-C ,  6-C ) :   1.0239
B(  3-C ,  4-C ) :   1.5874 B(  3-C ,  5-H ) :   0.9921 B(  4-C , 20-C ) :   1.0264
B(  6-C ,  7-H ) :   0.9332 B(  6-C ,  8-H ) :   0.9454 B(  6-C ,  9-C ) :   1.0441
B(  9-C , 10-H ) :   0.9505 B(  9-C , 11-H ) :   0.9661 B(  9-C , 12-C ) :   1.0789
B( 12-C , 13-H ) :   0.9737 B( 12-C , 14-H ) :   0.9752 B( 12-C , 15-H ) :   0.9756
B( 16-S , 17-C ) :   1.1788 B( 16-S , 20-C ) :   1.1887 B( 17-C , 18-C ) :   1.5386
B( 17-C , 20-C ) :   0.1025 B( 17-C , 33-H ) :   0.9751 B( 18-C , 19-C ) :   1.3140
B( 18-C , 21-H ) :   0.9801 B( 19-C , 20-C ) :   1.5020 B( 19-C , 22-C ) :   1.0424
B( 22-C , 23-H ) :   0.9425 B( 22-C , 24-H ) :   0.9352 B( 22-C , 25-C ) :   1.0529
B( 25-C , 26-H ) :   0.9582 B( 25-C , 27-H ) :   0.9619 B( 25-C , 28-C ) :   1.0570
B( 28-C , 29-H ) :   0.9759 B( 28-C , 30-H ) :   0.9755 B( 28-C , 31-H ) :   0.9708

Dispersion correction           -0.014552958
FINAL SINGLE POINT ENERGY     -1339.869085764571

DIPOLE MOMENT
-------------
                                X             Y             Z
Electronic contribution:      2.06765       1.14800     -12.39884
Nuclear contribution   :     -2.29375      -1.56031      12.71586
                        -----------------------------------------
Total Dipole Moment    :     -0.22610      -0.41232       0.31703
                        -----------------------------------------
Magnitude (a.u.)       :      0.56713
Magnitude (Debye)      :      1.44153

Rotational constants in cm-1:     0.021543     0.008368     0.006480
Rotational constants in MHz :   645.827912   250.875693   194.267171

                             ****ORCA TERMINATED NORMALLY****
TOTAL RUN TIME: 0 days 0 hours 0 minutes 20 seconds 304 msec
