                         Program Version 4.2.1 -  RELEASE  -
|  1> ! wB97X-D3 SP def2-SVP
|  2> %pal
|  3> nprocs 24
|  4> end
|  5>
|  6> * xyz 0 1
|  7> S 	 -64.3546 	 14.5781 	 -121.733
|  8> C 	 -63.0021 	 13.5603 	 -121.34
|  9> C 	 -62.8342 	 13.3962 	 -119.99
| 10> C 	 -63.9281 	 13.9765 	 -119.233
| 11> C 	 -64.8437 	 14.6165 	 -120.03
| 12> H 	 -64.095 	 13.8523 	 -118.164
| 13> C 	 -61.6539 	 12.634 	 -119.305
| 14> H 	 -61.3249 	 11.907 	 -120.001
| 15> H 	 -62.0248 	 12.1273 	 -118.336
| 16> C 	 -60.3778 	 13.4614 	 -119.06
| 17> H 	 -60.0362 	 13.827 	 -120.014
| 18> H 	 -60.5387 	 14.392 	 -118.488
| 19> C 	 -59.3056 	 12.7074 	 -118.385
| 20> H 	 -58.9526 	 11.8371 	 -119.058
| 21> H 	 -58.3925 	 13.2988 	 -118.233
| 22> H 	 -59.7205 	 12.2058 	 -117.441
| 23> S 	 -67.5334 	 15.2101 	 -120.553
| 24> C 	 -68.4878 	 16.0741 	 -119.32
| 25> C 	 -67.7464 	 16.2075 	 -118.157
| 26> C 	 -66.3539 	 15.8645 	 -118.36
| 27> C 	 -66.0977 	 15.2601 	 -119.588
| 28> H 	 -68.253 	 16.631 	 -117.318
| 29> C 	 -65.4489 	 16.0832 	 -117.187
| 30> H 	 -65.5502 	 17.1065 	 -116.712
| 31> H 	 -64.4899 	 16.1519 	 -117.676
| 32> C 	 -65.5117 	 15.067 	 -116.066
| 33> H 	 -65.0815 	 14.104 	 -116.307
| 34> H 	 -66.563 	 14.8504 	 -115.843
| 35> C 	 -64.9121 	 15.598 	 -114.808
| 36> H 	 -65.4032 	 16.4748 	 -114.424
| 37> H 	 -63.8341 	 15.7788 	 -114.926
| 38> H 	 -64.998 	 14.8868 	 -113.952
| 39> H 	 -62.4024 	 12.9843 	 -122.011
| 40> H 	 -69.5601 	 16.3464 	 -119.433
| 41> *
| 42>
| 43>                          ****END OF INPUT****

CARTESIAN COORDINATES (ANGSTROEM)
---------------------------------
  S    -64.354600   14.578100  -121.733000
  C    -63.002100   13.560300  -121.340000
  C    -62.834200   13.396200  -119.990000
  C    -63.928100   13.976500  -119.233000
  C    -64.843700   14.616500  -120.030000
  H    -64.095000   13.852300  -118.164000
  C    -61.653900   12.634000  -119.305000
  H    -61.324900   11.907000  -120.001000
  H    -62.024800   12.127300  -118.336000
  C    -60.377800   13.461400  -119.060000
  H    -60.036200   13.827000  -120.014000
  H    -60.538700   14.392000  -118.488000
  C    -59.305600   12.707400  -118.385000
  H    -58.952600   11.837100  -119.058000
  H    -58.392500   13.298800  -118.233000
  H    -59.720500   12.205800  -117.441000
  S    -67.533400   15.210100  -120.553000
  C    -68.487800   16.074100  -119.320000
  C    -67.746400   16.207500  -118.157000
  C    -66.353900   15.864500  -118.360000
  C    -66.097700   15.260100  -119.588000
  H    -68.253000   16.631000  -117.318000
  C    -65.448900   16.083200  -117.187000
  H    -65.550200   17.106500  -116.712000
  H    -64.489900   16.151900  -117.676000
  C    -65.511700   15.067000  -116.066000
  H    -65.081500   14.104000  -116.307000
  H    -66.563000   14.850400  -115.843000
  C    -64.912100   15.598000  -114.808000
  H    -65.403200   16.474800  -114.424000
  H    -63.834100   15.778800  -114.926000
  H    -64.998000   14.886800  -113.952000
  H    -62.402400   12.984300  -122.011000
  H    -69.560100   16.346400  -119.433000

 Total Charge           Charge          ....    0
 Multiplicity           Mult            ....    1
 Number of Electrons    NEL             ....  134
 Basis Dimension        Dim             ....  322

ORBITAL ENERGIES
----------------

  NO   OCC          E(Eh)            E(eV)
   0   2.0000     -88.968482     -2420.9555
   1   2.0000     -88.965902     -2420.8853
   2   2.0000     -10.333628      -281.1923
   3   2.0000     -10.330525      -281.1079
   4   2.0000     -10.323381      -280.9135
   5   2.0000     -10.312239      -280.6103
   6   2.0000     -10.305150      -280.4174
   7   2.0000     -10.303830      -280.3815
   8   2.0000     -10.301747      -280.3248
   9   2.0000     -10.296655      -280.1862
  10   2.0000     -10.294712      -280.1334
  11   2.0000     -10.289709      -279.9972
  12   2.0000     -10.288713      -279.9701
  13   2.0000     -10.285577      -279.8848
  14   2.0000     -10.283601      -279.8310
  15   2.0000     -10.278743      -279.6988
  16   2.0000      -8.082976      -219.9490
  17   2.0000      -8.080480      -219.8810
  18   2.0000      -6.041591      -164.4000
  19   2.0000      -6.039104      -164.3324
  20   2.0000      -6.037630      -164.2923
  21   2.0000      -6.034990      -164.2204
  22   2.0000      -6.033527      -164.1806
  23   2.0000      -6.031139      -164.1156
  24   2.0000      -1.005535       -27.3620
  25   2.0000      -0.983156       -26.7530
  26   2.0000      -0.917246       -24.9595
  27   2.0000      -0.913124       -24.8474
  28   2.0000      -0.871250       -23.7079
  29   2.0000      -0.855719       -23.2853
  30   2.0000      -0.846889       -23.0450
  31   2.0000      -0.817944       -22.2574
  32   2.0000      -0.779074       -21.1997
  33   2.0000      -0.768595       -20.9145
  34   2.0000      -0.706189       -19.2164
  35   2.0000      -0.695943       -18.9376
  36   2.0000      -0.692540       -18.8450
  37   2.0000      -0.664870       -18.0920
  38   2.0000      -0.639400       -17.3990
  39   2.0000      -0.622323       -16.9343
  40   2.0000      -0.595576       -16.2064
  41   2.0000      -0.572982       -15.5916
  42   2.0000      -0.571449       -15.5499
  43   2.0000      -0.561190       -15.2708
  44   2.0000      -0.528261       -14.3747
  45   2.0000      -0.527174       -14.3451
  46   2.0000      -0.518455       -14.1079
  47   2.0000      -0.517791       -14.0898
  48   2.0000      -0.501573       -13.6485
  49   2.0000      -0.499508       -13.5923
  50   2.0000      -0.493895       -13.4396
  51   2.0000      -0.483905       -13.1677
  52   2.0000      -0.466964       -12.7067
  53   2.0000      -0.462340       -12.5809
  54   2.0000      -0.455734       -12.4011
  55   2.0000      -0.450573       -12.2607
  56   2.0000      -0.447521       -12.1777
  57   2.0000      -0.436822       -11.8865
  58   2.0000      -0.434986       -11.8366
  59   2.0000      -0.427686       -11.6379
  60   2.0000      -0.421628       -11.4731
  61   2.0000      -0.412150       -11.2152
  62   2.0000      -0.411823       -11.2063
  63   2.0000      -0.354886        -9.6569
  64   2.0000      -0.332340        -9.0434
  65   2.0000      -0.328660        -8.9433
  66   2.0000      -0.291140        -7.9223
  67   0.0000       0.024253         0.6599
  68   0.0000       0.082375         2.2415
  69   0.0000       0.104021         2.8306
  70   0.0000       0.117313         3.1922
  71   0.0000       0.130731         3.5574

MULLIKEN ATOMIC CHARGES
-----------------------
   0 S :    0.112504
   1 C :   -0.103910
   2 C :   -0.083697
   3 C :    0.017639
   4 C :   -0.135865
   5 H :   -0.005506
   6 C :    0.049429
   7 H :    0.010084
   8 H :    0.040613
   9 C :   -0.051520
  10 H :    0.015526
  11 H :    0.028348
  12 C :   -0.074453
  13 H :    0.028619
  14 H :    0.046394
  15 H :    0.040277
  16 S :    0.099289
  17 C :   -0.117897
  18 C :   -0.018690
  19 C :   -0.062826
  20 C :   -0.102248
  21 H :    0.018501
  22 C :    0.036215
  23 H :    0.029623
  24 H :    0.021752
  25 C :   -0.036483
  26 H :    0.029937
  27 H :    0.021646
  28 C :   -0.057604
  29 H :    0.028301
  30 H :    0.032879
  31 H :    0.031150
  32 H :    0.036849
  33 H :    0.075120
Sum of atomic charges:    0.0000000

LOEWDIN ATOMIC CHARGES
----------------------
   0 S :    0.396549
   1 C :   -0.198074
   2 C :   -0.058139
   3 C :   -0.062787
   4 C :   -0.178882
   5 H :    0.032147
   6 C :   -0.027338
   7 H :    0.023885
   8 H :    0.036677
   9 C :   -0.050609
  10 H :    0.021784
  11 H :    0.024830
  12 C :   -0.075050
  13 H :    0.028281
  14 H :    0.029896
  15 H :    0.031834
  16 S :    0.396743
  17 C :   -0.179389
  18 C :   -0.065226
  19 C :   -0.057166
  20 C :   -0.205398
  21 H :    0.030174
  22 C :   -0.041883
  23 H :    0.038236
  24 H :    0.028028
  25 C :   -0.041719
  26 H :    0.020517
  27 H :    0.026879
  28 C :   -0.066791
  29 H :    0.021619
  30 H :    0.026096
  31 H :    0.029773
  32 H :    0.025981
  33 H :    0.038521

  Mayer bond orders larger than 0.100000
B(  0-S ,  1-C ) :   1.1254 B(  0-S ,  4-C ) :   1.1337 B(  1-C ,  2-C ) :   1.6480
B(  1-C , 32-H ) :   0.9632 B(  2-C ,  3-C ) :   1.2219 B(  2-C ,  6-C ) :   1.0206
B(  3-C ,  4-C ) :   1.5917 B(  3-C ,  5-H ) :   0.9909 B(  4-C , 20-C ) :   1.0480
B(  6-C ,  7-H ) :   0.9366 B(  6-C ,  8-H ) :   0.9465 B(  6-C ,  9-C ) :   1.0594
B(  9-C , 10-H ) :   0.9464 B(  9-C , 11-H ) :   0.9525 B(  9-C , 12-C ) :   1.0969
B( 12-C , 13-H ) :   0.9698 B( 12-C , 14-H ) :   0.9702 B( 12-C , 15-H ) :   0.9697
B( 16-S , 17-C ) :   1.1429 B( 16-S , 20-C ) :   1.1326 B( 17-C , 18-C ) :   1.6220
B( 17-C , 33-H ) :   0.9629 B( 18-C , 19-C ) :   1.2185 B( 18-C , 21-H ) :   0.9940
B( 19-C , 20-C ) :   1.5918 B( 19-C , 22-C ) :   1.0543 B( 22-C , 23-H ) :   0.9387
B( 22-C , 24-H ) :   0.9174 B( 22-C , 25-C ) :   1.0596 B( 25-C , 26-H ) :   0.9423
B( 25-C , 27-H ) :   0.9492 B( 25-C , 28-C ) :   1.0951 B( 28-C , 29-H ) :   0.9725
B( 28-C , 30-H ) :   0.9726 B( 28-C , 31-H ) :   0.9709

Dispersion correction           -0.013751347
FINAL SINGLE POINT ENERGY     -1339.884170497523

DIPOLE MOMENT
-------------
                                X             Y             Z
Electronic contribution:    -21.26683       4.78345     -25.12092
Nuclear contribution   :     21.50786      -4.88512      25.78169
                        -----------------------------------------
Total Dipole Moment    :      0.24104      -0.10167       0.66077
                        -----------------------------------------
Magnitude (a.u.)       :      0.71067
Magnitude (Debye)      :      1.80639

Rotational constants in cm-1:     0.017817     0.008867     0.006126
Rotational constants in MHz :   534.149183   265.820199   183.652698

                             ****ORCA TERMINATED NORMALLY****
TOTAL RUN TIME: 0 days 0 hours 0 minutes 21 seconds 509 msec
