                         Program Version 4.2.1 -  RELEASE  -
|  1> ! wB97X-D3 SP def2-SVP
|  2> %pal
|  3> nprocs 24
|  4> end
|  5>
|  6> * xyz 0 1
|  7> S 	 -133.419 	 13.5389 	 -14.3383
|  8> C 	 -133.399 	 12.017 	 -13.5706
|  9> C 	 -132.647 	 11.0991 	 -14.252
| 10> C 	 -132.058 	 11.704 	 -15.415
| 11> C 	 -132.617 	 12.9009 	 -15.8168
| 12> H 	 -131.376 	 11.2432 	 -16.0692
| 13> C 	 -132.398 	 9.61035 	 -13.8523
| 14> H 	 -131.869 	 9.66198 	 -12.8831
| 15> H 	 -131.817 	 9.10351 	 -14.5446
| 16> C 	 -133.7 	 8.75828 	 -13.5698
| 17> H 	 -134.043 	 9.19775 	 -12.5949
| 18> H 	 -134.424 	 8.95357 	 -14.3364
| 19> C 	 -133.522 	 7.20841 	 -13.4495
| 20> H 	 -133.295 	 6.67076 	 -14.4503
| 21> H 	 -132.657 	 6.95019 	 -12.8793
| 22> H 	 -134.478 	 6.7966 	 -12.9827
| 23> S 	 -131.908 	 15.3895 	 -16.7565
| 24> C 	 -131.702 	 15.7148 	 -18.4594
| 25> C 	 -132.244 	 14.6344 	 -19.1887
| 26> C 	 -132.558 	 13.4615 	 -18.3484
| 27> C 	 -132.417 	 13.6994 	 -16.9798
| 28> H 	 -132.262 	 14.7922 	 -20.2229
| 29> C 	 -133.013 	 12.0569 	 -18.9211
| 30> H 	 -133.949 	 12.0664 	 -19.5092
| 31> H 	 -133.22 	 11.3875 	 -18.0514
| 32> C 	 -132.02 	 11.3137 	 -19.7843
| 33> H 	 -131.074 	 11.1928 	 -19.2749
| 34> H 	 -131.874 	 11.9872 	 -20.5901
| 35> C 	 -132.451 	 9.91871 	 -20.2185
| 36> H 	 -131.581 	 9.3079 	 -20.5319
| 37> H 	 -133.084 	 9.95643 	 -21.0909
| 38> H 	 -132.974 	 9.24702 	 -19.5162
| 39> H 	 -133.644 	 11.8471 	 -12.5798
| 40> H 	 -131.212 	 16.679 	 -18.7704
| 41> *
| 42>
| 43>                          ****END OF INPUT****

CARTESIAN COORDINATES (ANGSTROEM)
---------------------------------
  S    -133.419000   13.538900  -14.338300
  C    -133.399000   12.017000  -13.570600
  C    -132.647000   11.099100  -14.252000
  C    -132.058000   11.704000  -15.415000
  C    -132.617000   12.900900  -15.816800
  H    -131.376000   11.243200  -16.069200
  C    -132.398000    9.610350  -13.852300
  H    -131.869000    9.661980  -12.883100
  H    -131.817000    9.103510  -14.544600
  C    -133.700000    8.758280  -13.569800
  H    -134.043000    9.197750  -12.594900
  H    -134.424000    8.953570  -14.336400
  C    -133.522000    7.208410  -13.449500
  H    -133.295000    6.670760  -14.450300
  H    -132.657000    6.950190  -12.879300
  H    -134.478000    6.796600  -12.982700
  S    -131.908000   15.389500  -16.756500
  C    -131.702000   15.714800  -18.459400
  C    -132.244000   14.634400  -19.188700
  C    -132.558000   13.461500  -18.348400
  C    -132.417000   13.699400  -16.979800
  H    -132.262000   14.792200  -20.222900
  C    -133.013000   12.056900  -18.921100
  H    -133.949000   12.066400  -19.509200
  H    -133.220000   11.387500  -18.051400
  C    -132.020000   11.313700  -19.784300
  H    -131.074000   11.192800  -19.274900
  H    -131.874000   11.987200  -20.590100
  C    -132.451000    9.918710  -20.218500
  H    -131.581000    9.307900  -20.531900
  H    -133.084000    9.956430  -21.090900
  H    -132.974000    9.247020  -19.516200
  H    -133.644000   11.847100  -12.579800
  H    -131.212000   16.679000  -18.770400

 Total Charge           Charge          ....    0
 Multiplicity           Mult            ....    1
 Number of Electrons    NEL             ....  134
 Basis Dimension        Dim             ....  322

ORBITAL ENERGIES
----------------

  NO   OCC          E(Eh)            E(eV)
   0   2.0000     -88.962069     -2420.7810
   1   2.0000     -88.961734     -2420.7719
   2   2.0000     -10.332980      -281.1747
   3   2.0000     -10.331966      -281.1471
   4   2.0000     -10.330817      -281.1158
   5   2.0000     -10.321133      -280.8523
   6   2.0000     -10.305538      -280.4279
   7   2.0000     -10.304466      -280.3988
   8   2.0000     -10.302817      -280.3539
   9   2.0000     -10.296356      -280.1781
  10   2.0000     -10.295092      -280.1437
  11   2.0000     -10.294331      -280.1230
  12   2.0000     -10.293429      -280.0984
  13   2.0000     -10.293412      -280.0980
  14   2.0000     -10.280499      -279.7466
  15   2.0000     -10.280348      -279.7425
  16   2.0000      -8.076970      -219.7855
  17   2.0000      -8.076878      -219.7830
  18   2.0000      -6.035528      -164.2351
  19   2.0000      -6.035453      -164.2330
  20   2.0000      -6.031463      -164.1245
  21   2.0000      -6.031341      -164.1211
  22   2.0000      -6.027748      -164.0234
  23   2.0000      -6.027376      -164.0132
  24   2.0000      -1.006002       -27.3747
  25   2.0000      -0.981758       -26.7150
  26   2.0000      -0.908575       -24.7236
  27   2.0000      -0.901878       -24.5413
  28   2.0000      -0.874195       -23.7880
  29   2.0000      -0.847237       -23.0545
  30   2.0000      -0.840813       -22.8797
  31   2.0000      -0.816160       -22.2089
  32   2.0000      -0.782251       -21.2861
  33   2.0000      -0.773012       -21.0347
  34   2.0000      -0.709626       -19.3099
  35   2.0000      -0.699983       -19.0475
  36   2.0000      -0.694029       -18.8855
  37   2.0000      -0.662516       -18.0280
  38   2.0000      -0.646252       -17.5854
  39   2.0000      -0.616369       -16.7722
  40   2.0000      -0.593292       -16.1443
  41   2.0000      -0.573380       -15.6025
  42   2.0000      -0.569191       -15.4885
  43   2.0000      -0.560980       -15.2650
  44   2.0000      -0.524298       -14.2669
  45   2.0000      -0.521124       -14.1805
  46   2.0000      -0.517899       -14.0927
  47   2.0000      -0.515721       -14.0335
  48   2.0000      -0.507497       -13.8097
  49   2.0000      -0.502050       -13.6615
  50   2.0000      -0.491557       -13.3760
  51   2.0000      -0.482984       -13.1427
  52   2.0000      -0.479681       -13.0528
  53   2.0000      -0.467779       -12.7289
  54   2.0000      -0.457475       -12.4485
  55   2.0000      -0.444077       -12.0840
  56   2.0000      -0.442090       -12.0299
  57   2.0000      -0.432288       -11.7632
  58   2.0000      -0.428018       -11.6470
  59   2.0000      -0.424386       -11.5481
  60   2.0000      -0.417366       -11.3571
  61   2.0000      -0.416077       -11.3220
  62   2.0000      -0.409519       -11.1436
  63   2.0000      -0.351700        -9.5703
  64   2.0000      -0.328600        -8.9417
  65   2.0000      -0.324348        -8.8260
  66   2.0000      -0.291442        -7.9305
  67   0.0000       0.023296         0.6339
  68   0.0000       0.061388         1.6704
  69   0.0000       0.111436         3.0323
  70   0.0000       0.115297         3.1374
  71   0.0000       0.130099         3.5402

MULLIKEN ATOMIC CHARGES
-----------------------
   0 S :    0.098762
   1 C :   -0.070133
   2 C :   -0.118009
   3 C :    0.063561
   4 C :   -0.164433
   5 H :   -0.005959
   6 C :    0.092381
   7 H :    0.039859
   8 H :    0.002600
   9 C :   -0.097929
  10 H :    0.033853
  11 H :    0.039796
  12 C :   -0.082707
  13 H :    0.045013
  14 H :    0.026993
  15 H :    0.057860
  16 S :    0.087239
  17 C :   -0.133331
  18 C :   -0.013703
  19 C :   -0.006206
  20 C :   -0.144660
  21 H :    0.010988
  22 C :    0.027947
  23 H :    0.035676
  24 H :    0.026377
  25 C :   -0.045009
  26 H :    0.023557
  27 H :    0.018662
  28 C :   -0.061985
  29 H :    0.034548
  30 H :    0.025715
  31 H :    0.033519
  32 H :    0.025011
  33 H :    0.094150
Sum of atomic charges:   -0.0000000

LOEWDIN ATOMIC CHARGES
----------------------
   0 S :    0.399165
   1 C :   -0.196378
   2 C :   -0.063819
   3 C :   -0.050399
   4 C :   -0.178068
   5 H :    0.020558
   6 C :   -0.024358
   7 H :    0.035898
   8 H :    0.013817
   9 C :   -0.039763
  10 H :    0.026154
  11 H :    0.021431
  12 C :   -0.077094
  13 H :    0.034656
  14 H :    0.017687
  15 H :    0.039587
  16 S :    0.390249
  17 C :   -0.185456
  18 C :   -0.070372
  19 C :   -0.043208
  20 C :   -0.193142
  21 H :    0.023008
  22 C :   -0.033788
  23 H :    0.032305
  24 H :    0.029246
  25 C :   -0.042284
  26 H :    0.021776
  27 H :    0.019590
  28 C :   -0.071855
  29 H :    0.032318
  30 H :    0.022718
  31 H :    0.028211
  32 H :    0.016473
  33 H :    0.045136

  Mayer bond orders larger than 0.100000
B(  0-S ,  1-C ) :   1.1506 B(  0-S ,  4-C ) :   1.1210 B(  1-C ,  2-C ) :   1.6107
B(  1-C , 32-H ) :   0.9723 B(  2-C ,  3-C ) :   1.2457 B(  2-C ,  6-C ) :   1.0176
B(  3-C ,  4-C ) :   1.5696 B(  3-C ,  5-H ) :   0.9980 B(  4-C , 20-C ) :   1.0923
B(  6-C ,  7-H ) :   0.9390 B(  6-C ,  8-H ) :   0.9505 B(  6-C ,  9-C ) :   1.0504
B(  9-C , 10-H ) :   0.9582 B(  9-C , 11-H ) :   0.9651 B(  9-C , 12-C ) :   1.0756
B( 12-C , 13-H ) :   0.9741 B( 12-C , 14-H ) :   0.9760 B( 12-C , 15-H ) :   0.9741
B( 16-S , 17-C ) :   1.1680 B( 16-S , 20-C ) :   1.1269 B( 17-C , 18-C ) :   1.5901
B( 17-C , 20-C ) :   0.1005 B( 17-C , 33-H ) :   0.9628 B( 18-C , 19-C ) :   1.2043
B( 18-C , 21-H ) :   1.0046 B( 19-C , 20-C ) :   1.6023 B( 19-C , 22-C ) :   1.0309
B( 22-C , 23-H ) :   0.9457 B( 22-C , 24-H ) :   0.9374 B( 22-C , 25-C ) :   1.0602
B( 25-C , 26-H ) :   0.9567 B( 25-C , 27-H ) :   0.9561 B( 25-C , 28-C ) :   1.0785
B( 28-C , 29-H ) :   0.9754 B( 28-C , 30-H ) :   0.9741 B( 28-C , 31-H ) :   0.9757

Dispersion correction           -0.013358676
FINAL SINGLE POINT ENERGY     -1339.850766411125

DIPOLE MOMENT
-------------
                                X             Y             Z
Electronic contribution:      1.43551      32.22275       6.55552
Nuclear contribution   :     -1.21299     -32.81801      -6.86888
                        -----------------------------------------
Total Dipole Moment    :      0.22251      -0.59525      -0.31336
                        -----------------------------------------
Magnitude (a.u.)       :      0.70854
Magnitude (Debye)      :      1.80097

Rotational constants in cm-1:     0.017393     0.008434     0.005930
Rotational constants in MHz :   521.427684   252.858091   177.776801

                             ****ORCA TERMINATED NORMALLY****
TOTAL RUN TIME: 0 days 0 hours 0 minutes 20 seconds 996 msec
