                         Program Version 4.2.1 -  RELEASE  -
|  1> ! wB97X-D3 SP def2-SVP
|  2> %pal
|  3> nprocs 24
|  4> end
|  5>
|  6> * xyz 0 1
|  7> S 	 -50.9997 	 16.6266 	 -99.6103
|  8> C 	 -52.7452 	 16.7894 	 -99.4265
|  9> C 	 -53.3164 	 17.6248 	 -100.399
| 10> C 	 -52.3173 	 18.1137 	 -101.314
| 11> C 	 -50.9876 	 17.7231 	 -101.012
| 12> H 	 -52.5527 	 18.9007 	 -102.041
| 13> C 	 -54.7924 	 17.89 	 -100.57
| 14> H 	 -55.2664 	 16.9071 	 -100.526
| 15> H 	 -54.905 	 18.2114 	 -101.612
| 16> C 	 -55.424 	 18.8937 	 -99.6063
| 17> H 	 -54.8852 	 19.8491 	 -99.7436
| 18> H 	 -56.49 	 18.9888 	 -99.7559
| 19> C 	 -55.2373 	 18.5747 	 -98.0759
| 20> H 	 -55.2016 	 17.5432 	 -97.823
| 21> H 	 -54.2927 	 18.9046 	 -97.7043
| 22> H 	 -55.9704 	 19.0975 	 -97.529
| 23> S 	 -48.6988 	 19.2633 	 -100.804
| 24> C 	 -47.5163 	 19.162 	 -102.196
| 25> C 	 -48.036 	 18.4795 	 -103.274
| 26> C 	 -49.2737 	 17.867 	 -102.964
| 27> C 	 -49.7691 	 18.1786 	 -101.664
| 28> H 	 -47.38 	 18.2959 	 -104.143
| 29> C 	 -49.9172 	 16.8414 	 -103.855
| 30> H 	 -50.9574 	 16.9434 	 -103.569
| 31> H 	 -49.5409 	 15.8295 	 -103.494
| 32> C 	 -49.89 	 17.1425 	 -105.394
| 33> H 	 -50.3941 	 16.2986 	 -105.9
| 34> H 	 -48.854 	 17.1178 	 -105.697
| 35> C 	 -50.5163 	 18.4208 	 -105.929
| 36> H 	 -49.9188 	 19.2661 	 -105.619
| 37> H 	 -51.5156 	 18.5039 	 -105.808
| 38> H 	 -50.4796 	 18.4136 	 -106.952
| 39> H 	 -53.2528 	 16.1565 	 -98.7717
| 40> H 	 -46.579 	 19.6463 	 -102.273
| 41> *
| 42>
| 43>                          ****END OF INPUT****

CARTESIAN COORDINATES (ANGSTROEM)
---------------------------------
  S    -50.999700   16.626600  -99.610300
  C    -52.745200   16.789400  -99.426500
  C    -53.316400   17.624800  -100.399000
  C    -52.317300   18.113700  -101.314000
  C    -50.987600   17.723100  -101.012000
  H    -52.552700   18.900700  -102.041000
  C    -54.792400   17.890000  -100.570000
  H    -55.266400   16.907100  -100.526000
  H    -54.905000   18.211400  -101.612000
  C    -55.424000   18.893700  -99.606300
  H    -54.885200   19.849100  -99.743600
  H    -56.490000   18.988800  -99.755900
  C    -55.237300   18.574700  -98.075900
  H    -55.201600   17.543200  -97.823000
  H    -54.292700   18.904600  -97.704300
  H    -55.970400   19.097500  -97.529000
  S    -48.698800   19.263300  -100.804000
  C    -47.516300   19.162000  -102.196000
  C    -48.036000   18.479500  -103.274000
  C    -49.273700   17.867000  -102.964000
  C    -49.769100   18.178600  -101.664000
  H    -47.380000   18.295900  -104.143000
  C    -49.917200   16.841400  -103.855000
  H    -50.957400   16.943400  -103.569000
  H    -49.540900   15.829500  -103.494000
  C    -49.890000   17.142500  -105.394000
  H    -50.394100   16.298600  -105.900000
  H    -48.854000   17.117800  -105.697000
  C    -50.516300   18.420800  -105.929000
  H    -49.918800   19.266100  -105.619000
  H    -51.515600   18.503900  -105.808000
  H    -50.479600   18.413600  -106.952000
  H    -53.252800   16.156500  -98.771700
  H    -46.579000   19.646300  -102.273000

 Total Charge           Charge          ....    0
 Multiplicity           Mult            ....    1
 Number of Electrons    NEL             ....  134
 Basis Dimension        Dim             ....  322

ORBITAL ENERGIES
----------------

  NO   OCC          E(Eh)            E(eV)
   0   2.0000     -88.967857     -2420.9385
   1   2.0000     -88.967549     -2420.9301
   2   2.0000     -10.334481      -281.2155
   3   2.0000     -10.326336      -280.9939
   4   2.0000     -10.319517      -280.8083
   5   2.0000     -10.314246      -280.6649
   6   2.0000     -10.304082      -280.3883
   7   2.0000     -10.302848      -280.3548
   8   2.0000     -10.300533      -280.2918
   9   2.0000     -10.294937      -280.1395
  10   2.0000     -10.292964      -280.0858
  11   2.0000     -10.290302      -280.0134
  12   2.0000     -10.289842      -280.0008
  13   2.0000     -10.287690      -279.9423
  14   2.0000     -10.267601      -279.3956
  15   2.0000     -10.261451      -279.2283
  16   2.0000      -8.081753      -219.9157
  17   2.0000      -8.080871      -219.8917
  18   2.0000      -6.040200      -164.3622
  19   2.0000      -6.039484      -164.3427
  20   2.0000      -6.036248      -164.2547
  21   2.0000      -6.035568      -164.2362
  22   2.0000      -6.032764      -164.1599
  23   2.0000      -6.031613      -164.1285
  24   2.0000      -0.995956       -27.1013
  25   2.0000      -0.974372       -26.5140
  26   2.0000      -0.908944       -24.7336
  27   2.0000      -0.903441       -24.5839
  28   2.0000      -0.865997       -23.5650
  29   2.0000      -0.850458       -23.1421
  30   2.0000      -0.845304       -23.0019
  31   2.0000      -0.813520       -22.1370
  32   2.0000      -0.786220       -21.3941
  33   2.0000      -0.771743       -21.0002
  34   2.0000      -0.709366       -19.3028
  35   2.0000      -0.700537       -19.0626
  36   2.0000      -0.698441       -19.0056
  37   2.0000      -0.651028       -17.7154
  38   2.0000      -0.641794       -17.4641
  39   2.0000      -0.614175       -16.7126
  40   2.0000      -0.589630       -16.0446
  41   2.0000      -0.569049       -15.4846
  42   2.0000      -0.551944       -15.0192
  43   2.0000      -0.547028       -14.8854
  44   2.0000      -0.544926       -14.8282
  45   2.0000      -0.543698       -14.7948
  46   2.0000      -0.524049       -14.2601
  47   2.0000      -0.512965       -13.9585
  48   2.0000      -0.498636       -13.5686
  49   2.0000      -0.488523       -13.2934
  50   2.0000      -0.485343       -13.2069
  51   2.0000      -0.475534       -12.9399
  52   2.0000      -0.473417       -12.8823
  53   2.0000      -0.466506       -12.6943
  54   2.0000      -0.454184       -12.3590
  55   2.0000      -0.451353       -12.2819
  56   2.0000      -0.443692       -12.0735
  57   2.0000      -0.440506       -11.9868
  58   2.0000      -0.438619       -11.9354
  59   2.0000      -0.421536       -11.4706
  60   2.0000      -0.416591       -11.3360
  61   2.0000      -0.414010       -11.2658
  62   2.0000      -0.409639       -11.1468
  63   2.0000      -0.342024        -9.3069
  64   2.0000      -0.330752        -9.0002
  65   2.0000      -0.323114        -8.7924
  66   2.0000      -0.292846        -7.9687
  67   0.0000       0.030706         0.8356
  68   0.0000       0.053441         1.4542
  69   0.0000       0.110638         3.0106
  70   0.0000       0.113895         3.0992
  71   0.0000       0.127819         3.4781

MULLIKEN ATOMIC CHARGES
-----------------------
   0 S :    0.115565
   1 C :   -0.114084
   2 C :   -0.114663
   3 C :    0.053218
   4 C :   -0.197354
   5 H :    0.026521
   6 C :    0.068458
   7 H :    0.032954
   8 H :    0.020185
   9 C :   -0.058696
  10 H :    0.035402
  11 H :    0.037232
  12 C :   -0.028993
  13 H :    0.012282
  14 H :    0.024168
  15 H :    0.025723
  16 S :    0.109488
  17 C :   -0.084615
  18 C :   -0.046510
  19 C :   -0.062656
  20 C :   -0.158761
  21 H :    0.038491
  22 C :    0.086755
  23 H :    0.016560
  24 H :    0.061837
  25 C :   -0.104037
  26 H :    0.031015
  27 H :    0.020660
  28 C :    0.039773
  29 H :    0.033911
  30 H :    0.003657
  31 H :    0.001999
  32 H :    0.033476
  33 H :    0.041039
Sum of atomic charges:   -0.0000000

LOEWDIN ATOMIC CHARGES
----------------------
   0 S :    0.399250
   1 C :   -0.183444
   2 C :   -0.062244
   3 C :   -0.059275
   4 C :   -0.195372
   5 H :    0.034914
   6 C :   -0.035663
   7 H :    0.032885
   8 H :    0.031991
   9 C :   -0.033249
  10 H :    0.031242
  11 H :    0.024078
  12 C :   -0.061416
  13 H :    0.016001
  14 H :    0.023469
  15 H :    0.021777
  16 S :    0.382251
  17 C :   -0.154068
  18 C :   -0.076632
  19 C :   -0.054671
  20 C :   -0.213559
  21 H :    0.040890
  22 C :   -0.039746
  23 H :    0.029057
  24 H :    0.047060
  25 C :   -0.037899
  26 H :    0.028439
  27 H :    0.016662
  28 C :   -0.050664
  29 H :    0.029618
  30 H :    0.013002
  31 H :    0.022142
  32 H :    0.012113
  33 H :    0.021059

  Mayer bond orders larger than 0.100000
B(  0-S ,  1-C ) :   1.1527 B(  0-S ,  4-C ) :   1.1543 B(  1-C ,  2-C ) :   1.5791
B(  1-C ,  4-C ) :   0.1051 B(  1-C , 32-H ) :   0.9753 B(  2-C ,  3-C ) :   1.2803
B(  2-C ,  6-C ) :   1.0118 B(  3-C ,  4-C ) :   1.5524 B(  3-C ,  5-H ) :   0.9805
B(  4-C , 20-C ) :   1.0450 B(  6-C ,  7-H ) :   0.9405 B(  6-C ,  8-H ) :   0.9417
B(  6-C ,  9-C ) :   1.0747 B(  9-C , 10-H ) :   0.9552 B(  9-C , 11-H ) :   0.9620
B(  9-C , 12-C ) :   1.0727 B( 12-C , 13-H ) :   0.9768 B( 12-C , 14-H ) :   0.9723
B( 12-C , 15-H ) :   0.9752 B( 16-S , 17-C ) :   1.1413 B( 16-S , 20-C ) :   1.1384
B( 17-C , 18-C ) :   1.6341 B( 17-C , 20-C ) :   0.1037 B( 17-C , 33-H ) :   0.9655
B( 18-C , 19-C ) :   1.2412 B( 18-C , 21-H ) :   0.9789 B( 19-C , 20-C ) :   1.5827
B( 19-C , 22-C ) :   1.0299 B( 22-C , 23-H ) :   0.9231 B( 22-C , 24-H ) :   0.9358
B( 22-C , 25-C ) :   1.0622 B( 25-C , 26-H ) :   0.9564 B( 25-C , 27-H ) :   0.9546
B( 25-C , 28-C ) :   1.0952 B( 28-C , 29-H ) :   0.9690 B( 28-C , 30-H ) :   0.9683
B( 28-C , 31-H ) :   0.9610

Dispersion correction           -0.014553891
FINAL SINGLE POINT ENERGY     -1339.862525927067

DIPOLE MOMENT
-------------
                                X             Y             Z
Electronic contribution:     17.82883      -1.27485      11.78555
Nuclear contribution   :    -18.18143       1.24236     -12.28022
                        -----------------------------------------
Total Dipole Moment    :     -0.35259      -0.03250      -0.49467
                        -----------------------------------------
Magnitude (a.u.)       :      0.60834
Magnitude (Debye)      :      1.54627

Rotational constants in cm-1:     0.021180     0.007696     0.006564
Rotational constants in MHz :   634.968334   230.735022   196.790636

                             ****ORCA TERMINATED NORMALLY****
TOTAL RUN TIME: 0 days 0 hours 0 minutes 21 seconds 335 msec
