                         Program Version 4.2.1 -  RELEASE  -
|  1> ! wB97X-D3 SP def2-SVP
|  2> %pal
|  3> nprocs 24
|  4> end
|  5>
|  6> * xyz 0 1
|  7> S 	 27.1448 	 -29.3183 	 -129.578
|  8> C 	 28.561 	 -29.8786 	 -130.513
|  9> C 	 28.3696 	 -29.7582 	 -131.903
| 10> C 	 27.1215 	 -29.0289 	 -132.177
| 11> C 	 26.285 	 -28.8689 	 -131.089
| 12> H 	 26.7199 	 -28.7327 	 -133.137
| 13> C 	 29.2859 	 -30.1714 	 -132.987
| 14> H 	 28.6292 	 -30.1177 	 -133.834
| 15> H 	 29.5427 	 -31.2055 	 -132.758
| 16> C 	 30.3663 	 -29.1666 	 -133.347
| 17> H 	 29.9209 	 -28.1795 	 -133.456
| 18> H 	 31.0687 	 -29.1196 	 -132.506
| 19> C 	 31.0045 	 -29.5232 	 -134.697
| 20> H 	 31.3471 	 -30.5434 	 -134.82
| 21> H 	 30.1883 	 -29.3343 	 -135.429
| 22> H 	 31.809 	 -28.834 	 -135.06
| 23> S 	 23.6852 	 -29.1076 	 -130.095
| 24> C 	 22.5819 	 -27.9673 	 -130.712
| 25> C 	 23.0886 	 -26.9535 	 -131.444
| 26> C 	 24.4809 	 -27.1752 	 -131.669
| 27> C 	 24.9693 	 -28.2713 	 -131.006
| 28> H 	 22.4282 	 -26.2224 	 -131.856
| 29> C 	 25.4199 	 -26.2167 	 -132.416
| 30> H 	 25.4204 	 -26.5276 	 -133.465
| 31> H 	 26.4489 	 -26.4905 	 -132.107
| 32> C 	 25.2913 	 -24.7227 	 -132.025
| 33> H 	 25.5956 	 -24.5604 	 -131.013
| 34> H 	 24.3088 	 -24.3498 	 -132.166
| 35> C 	 26.3123 	 -23.8374 	 -132.783
| 36> H 	 26.1871 	 -22.7989 	 -132.579
| 37> H 	 26.2238 	 -23.9298 	 -133.822
| 38> H 	 27.3513 	 -24.1291 	 -132.504
| 39> H 	 29.5615 	 -30.2599 	 -130.184
| 40> H 	 21.5557 	 -27.9781 	 -130.448
| 41> *
| 42>
| 43>                          ****END OF INPUT****

CARTESIAN COORDINATES (ANGSTROEM)
---------------------------------
  S     27.144800  -29.318300  -129.578000
  C     28.561000  -29.878600  -130.513000
  C     28.369600  -29.758200  -131.903000
  C     27.121500  -29.028900  -132.177000
  C     26.285000  -28.868900  -131.089000
  H     26.719900  -28.732700  -133.137000
  C     29.285900  -30.171400  -132.987000
  H     28.629200  -30.117700  -133.834000
  H     29.542700  -31.205500  -132.758000
  C     30.366300  -29.166600  -133.347000
  H     29.920900  -28.179500  -133.456000
  H     31.068700  -29.119600  -132.506000
  C     31.004500  -29.523200  -134.697000
  H     31.347100  -30.543400  -134.820000
  H     30.188300  -29.334300  -135.429000
  H     31.809000  -28.834000  -135.060000
  S     23.685200  -29.107600  -130.095000
  C     22.581900  -27.967300  -130.712000
  C     23.088600  -26.953500  -131.444000
  C     24.480900  -27.175200  -131.669000
  C     24.969300  -28.271300  -131.006000
  H     22.428200  -26.222400  -131.856000
  C     25.419900  -26.216700  -132.416000
  H     25.420400  -26.527600  -133.465000
  H     26.448900  -26.490500  -132.107000
  C     25.291300  -24.722700  -132.025000
  H     25.595600  -24.560400  -131.013000
  H     24.308800  -24.349800  -132.166000
  C     26.312300  -23.837400  -132.783000
  H     26.187100  -22.798900  -132.579000
  H     26.223800  -23.929800  -133.822000
  H     27.351300  -24.129100  -132.504000
  H     29.561500  -30.259900  -130.184000
  H     21.555700  -27.978100  -130.448000

 Total Charge           Charge          ....    0
 Multiplicity           Mult            ....    1
 Number of Electrons    NEL             ....  134
 Basis Dimension        Dim             ....  322

ORBITAL ENERGIES
----------------

  NO   OCC          E(Eh)            E(eV)
   0   2.0000     -88.965792     -2420.8823
   1   2.0000     -88.965454     -2420.8731
   2   2.0000     -10.330805      -281.1155
   3   2.0000     -10.322581      -280.8917
   4   2.0000     -10.320499      -280.8351
   5   2.0000     -10.308689      -280.5137
   6   2.0000     -10.304430      -280.3978
   7   2.0000     -10.302354      -280.3413
   8   2.0000     -10.297212      -280.2014
   9   2.0000     -10.293359      -280.0965
  10   2.0000     -10.290906      -280.0298
  11   2.0000     -10.289207      -279.9836
  12   2.0000     -10.288132      -279.9543
  13   2.0000     -10.285025      -279.8698
  14   2.0000     -10.284532      -279.8564
  15   2.0000     -10.272797      -279.5370
  16   2.0000      -8.080944      -219.8937
  17   2.0000      -8.079042      -219.8419
  18   2.0000      -6.039360      -164.3393
  19   2.0000      -6.037839      -164.2980
  20   2.0000      -6.035534      -164.2352
  21   2.0000      -6.033826      -164.1888
  22   2.0000      -6.031579      -164.1276
  23   2.0000      -6.029520      -164.0716
  24   2.0000      -1.006804       -27.3965
  25   2.0000      -0.977373       -26.5957
  26   2.0000      -0.919443       -25.0193
  27   2.0000      -0.906665       -24.6716
  28   2.0000      -0.870188       -23.6790
  29   2.0000      -0.854922       -23.2636
  30   2.0000      -0.843361       -22.9490
  31   2.0000      -0.814718       -22.1696
  32   2.0000      -0.783390       -21.3171
  33   2.0000      -0.768958       -20.9244
  34   2.0000      -0.709160       -19.2972
  35   2.0000      -0.704883       -19.1808
  36   2.0000      -0.700342       -19.0573
  37   2.0000      -0.657500       -17.8915
  38   2.0000      -0.633978       -17.2514
  39   2.0000      -0.616406       -16.7733
  40   2.0000      -0.597796       -16.2669
  41   2.0000      -0.574380       -15.6297
  42   2.0000      -0.567808       -15.4508
  43   2.0000      -0.561714       -15.2850
  44   2.0000      -0.531132       -14.4528
  45   2.0000      -0.526025       -14.3139
  46   2.0000      -0.519693       -14.1416
  47   2.0000      -0.512460       -13.9447
  48   2.0000      -0.501866       -13.6565
  49   2.0000      -0.494554       -13.4575
  50   2.0000      -0.489664       -13.3244
  51   2.0000      -0.475331       -12.9344
  52   2.0000      -0.464654       -12.6439
  53   2.0000      -0.461320       -12.5532
  54   2.0000      -0.459763       -12.5108
  55   2.0000      -0.454934       -12.3794
  56   2.0000      -0.445630       -12.1262
  57   2.0000      -0.443894       -12.0790
  58   2.0000      -0.436163       -11.8686
  59   2.0000      -0.427415       -11.6306
  60   2.0000      -0.421960       -11.4821
  61   2.0000      -0.417837       -11.3699
  62   2.0000      -0.412017       -11.2115
  63   2.0000      -0.349445        -9.5089
  64   2.0000      -0.335099        -9.1185
  65   2.0000      -0.326613        -8.8876
  66   2.0000      -0.288241        -7.8434
  67   0.0000       0.030870         0.8400
  68   0.0000       0.069058         1.8792
  69   0.0000       0.110235         2.9996
  70   0.0000       0.119490         3.2515
  71   0.0000       0.128274         3.4905

MULLIKEN ATOMIC CHARGES
-----------------------
   0 S :    0.095207
   1 C :   -0.117442
   2 C :   -0.130787
   3 C :    0.010593
   4 C :   -0.140488
   5 H :    0.009588
   6 C :    0.084753
   7 H :    0.003213
   8 H :    0.041334
   9 C :   -0.046287
  10 H :    0.029302
  11 H :    0.026289
  12 C :   -0.064334
  13 H :    0.037703
  14 H :    0.026619
  15 H :    0.042884
  16 S :    0.116637
  17 C :   -0.067338
  18 C :   -0.029851
  19 C :   -0.040080
  20 C :   -0.148624
  21 H :    0.012994
  22 C :    0.030841
  23 H :    0.037278
  24 H :    0.034089
  25 C :   -0.043005
  26 H :    0.035075
  27 H :    0.024091
  28 C :   -0.038169
  29 H :    0.027270
  30 H :    0.014039
  31 H :    0.031078
  32 H :    0.057014
  33 H :    0.038514
Sum of atomic charges:   -0.0000000

LOEWDIN ATOMIC CHARGES
----------------------
   0 S :    0.367954
   1 C :   -0.202401
   2 C :   -0.058297
   3 C :   -0.065549
   4 C :   -0.173930
   5 H :    0.027856
   6 C :   -0.036434
   7 H :    0.029566
   8 H :    0.036930
   9 C :   -0.034675
  10 H :    0.028953
  11 H :    0.019614
  12 C :   -0.071580
  13 H :    0.023401
  14 H :    0.028152
  15 H :    0.031305
  16 S :    0.407228
  17 C :   -0.179997
  18 C :   -0.073228
  19 C :   -0.048183
  20 C :   -0.199498
  21 H :    0.032046
  22 C :   -0.036351
  23 H :    0.029985
  24 H :    0.035415
  25 C :   -0.028383
  26 H :    0.029241
  27 H :    0.014526
  28 C :   -0.058120
  29 H :    0.022695
  30 H :    0.013421
  31 H :    0.028495
  32 H :    0.039138
  33 H :    0.020708

  Mayer bond orders larger than 0.100000
B(  0-S ,  1-C ) :   1.1146 B(  0-S ,  4-C ) :   1.1200 B(  1-C ,  2-C ) :   1.6423
B(  1-C , 32-H ) :   0.9596 B(  2-C ,  3-C ) :   1.2007 B(  2-C ,  6-C ) :   1.0281
B(  3-C ,  4-C ) :   1.6215 B(  3-C ,  5-H ) :   0.9844 B(  4-C , 20-C ) :   1.0418
B(  6-C ,  7-H ) :   0.9329 B(  6-C ,  8-H ) :   0.9334 B(  6-C ,  9-C ) :   1.0591
B(  9-C , 10-H ) :   0.9548 B(  9-C , 11-H ) :   0.9566 B(  9-C , 12-C ) :   1.0720
B( 12-C , 13-H ) :   0.9768 B( 12-C , 14-H ) :   0.9743 B( 12-C , 15-H ) :   0.9745
B( 16-S , 17-C ) :   1.1648 B( 16-S , 20-C ) :   1.1132 B( 17-C , 18-C ) :   1.6383
B( 17-C , 33-H ) :   0.9618 B( 18-C , 19-C ) :   1.2077 B( 18-C , 21-H ) :   0.9991
B( 19-C , 20-C ) :   1.6381 B( 19-C , 22-C ) :   1.0261 B( 22-C , 23-H ) :   0.9333
B( 22-C , 24-H ) :   0.9390 B( 22-C , 25-C ) :   1.0538 B( 25-C , 26-H ) :   0.9582
B( 25-C , 27-H ) :   0.9582 B( 25-C , 28-C ) :   1.0858 B( 28-C , 29-H ) :   0.9745
B( 28-C , 30-H ) :   0.9765 B( 28-C , 31-H ) :   0.9764

Dispersion correction           -0.013712793
FINAL SINGLE POINT ENERGY     -1339.873130329326

DIPOLE MOMENT
-------------
                                X             Y             Z
Electronic contribution:    -17.91764     -13.85076      21.37101
Nuclear contribution   :     18.07717      14.22780     -22.01007
                        -----------------------------------------
Total Dipole Moment    :      0.15953       0.37704      -0.63907
                        -----------------------------------------
Magnitude (a.u.)       :      0.75896
Magnitude (Debye)      :      1.92912

Rotational constants in cm-1:     0.017239     0.008510     0.006419
Rotational constants in MHz :   516.806764   255.112642   192.435180

                             ****ORCA TERMINATED NORMALLY****
TOTAL RUN TIME: 0 days 0 hours 0 minutes 21 seconds 315 msec
