                         Program Version 4.2.1 -  RELEASE  -
|  1> ! wB97X-D3 SP def2-SVP
|  2> %pal
|  3> nprocs 24
|  4> end
|  5>
|  6> * xyz 0 1
|  7> S 	 4.57799 	 -25.2615 	 -112.697
|  8> C 	 6.02303 	 -25.7685 	 -113.565
|  9> C 	 5.93232 	 -27.1301 	 -113.91
| 10> C 	 4.81815 	 -27.7424 	 -113.356
| 11> C 	 3.98286 	 -26.8861 	 -112.641
| 12> H 	 4.48428 	 -28.8036 	 -113.458
| 13> C 	 6.84338 	 -27.9712 	 -114.842
| 14> H 	 7.1629 	 -28.8134 	 -114.192
| 15> H 	 7.6901 	 -27.3488 	 -115.048
| 16> C 	 6.20837 	 -28.4563 	 -116.236
| 17> H 	 5.32048 	 -28.8913 	 -116.054
| 18> H 	 5.95982 	 -27.661 	 -116.911
| 19> C 	 7.27346 	 -29.3167 	 -116.997
| 20> H 	 7.561 	 -30.0683 	 -116.306
| 21> H 	 6.86664 	 -29.8627 	 -117.821
| 22> H 	 8.22621 	 -28.787 	 -117.22
| 23> S 	 2.18569 	 -26.3709 	 -110.47
| 24> C 	 0.671526 	 -27.282 	 -110.43
| 25> C 	 0.526286 	 -28.0327 	 -111.546
| 26> C 	 1.72995 	 -28.1008 	 -112.378
| 27> C 	 2.71638 	 -27.2284 	 -111.976
| 28> H 	 -0.343201 	 -28.7098 	 -111.585
| 29> C 	 1.72582 	 -28.9637 	 -113.679
| 30> H 	 2.4822 	 -28.5866 	 -114.428
| 31> H 	 0.768862 	 -28.6577 	 -114.208
| 32> C 	 1.89529 	 -30.4248 	 -113.306
| 33> H 	 0.961723 	 -30.7143 	 -112.807
| 34> H 	 2.68098 	 -30.5313 	 -112.608
| 35> C 	 2.10873 	 -31.4099 	 -114.377
| 36> H 	 3.11401 	 -31.2486 	 -114.825
| 37> H 	 1.27654 	 -31.4624 	 -115.14
| 38> H 	 2.29341 	 -32.4191 	 -113.934
| 39> H 	 6.83624 	 -25.1476 	 -113.909
| 40> H 	 -0.110846 	 -27.0482 	 -109.868
| 41> *
| 42>
| 43>                          ****END OF INPUT****

CARTESIAN COORDINATES (ANGSTROEM)
---------------------------------
  S      4.577990  -25.261500  -112.697000
  C      6.023030  -25.768500  -113.565000
  C      5.932320  -27.130100  -113.910000
  C      4.818150  -27.742400  -113.356000
  C      3.982860  -26.886100  -112.641000
  H      4.484280  -28.803600  -113.458000
  C      6.843380  -27.971200  -114.842000
  H      7.162900  -28.813400  -114.192000
  H      7.690100  -27.348800  -115.048000
  C      6.208370  -28.456300  -116.236000
  H      5.320480  -28.891300  -116.054000
  H      5.959820  -27.661000  -116.911000
  C      7.273460  -29.316700  -116.997000
  H      7.561000  -30.068300  -116.306000
  H      6.866640  -29.862700  -117.821000
  H      8.226210  -28.787000  -117.220000
  S      2.185690  -26.370900  -110.470000
  C      0.671526  -27.282000  -110.430000
  C      0.526286  -28.032700  -111.546000
  C      1.729950  -28.100800  -112.378000
  C      2.716380  -27.228400  -111.976000
  H     -0.343201  -28.709800  -111.585000
  C      1.725820  -28.963700  -113.679000
  H      2.482200  -28.586600  -114.428000
  H      0.768862  -28.657700  -114.208000
  C      1.895290  -30.424800  -113.306000
  H      0.961723  -30.714300  -112.807000
  H      2.680980  -30.531300  -112.608000
  C      2.108730  -31.409900  -114.377000
  H      3.114010  -31.248600  -114.825000
  H      1.276540  -31.462400  -115.140000
  H      2.293410  -32.419100  -113.934000
  H      6.836240  -25.147600  -113.909000
  H     -0.110846  -27.048200  -109.868000

 Total Charge           Charge          ....    0
 Multiplicity           Mult            ....    1
 Number of Electrons    NEL             ....  134
 Basis Dimension        Dim             ....  322

ORBITAL ENERGIES
----------------

  NO   OCC          E(Eh)            E(eV)
   0   2.0000     -88.971232     -2421.0303
   1   2.0000     -88.963116     -2420.8095
   2   2.0000     -10.333869      -281.1989
   3   2.0000     -10.330551      -281.1086
   4   2.0000     -10.317052      -280.7413
   5   2.0000     -10.309854      -280.5454
   6   2.0000     -10.308873      -280.5187
   7   2.0000     -10.302288      -280.3395
   8   2.0000     -10.301766      -280.3253
   9   2.0000     -10.300187      -280.2823
  10   2.0000     -10.297415      -280.2069
  11   2.0000     -10.292275      -280.0670
  12   2.0000     -10.286885      -279.9204
  13   2.0000     -10.285896      -279.8935
  14   2.0000     -10.282818      -279.8097
  15   2.0000     -10.279078      -279.7079
  16   2.0000      -8.085634      -220.0213
  17   2.0000      -8.076972      -219.7856
  18   2.0000      -6.044087      -164.4680
  19   2.0000      -6.040154      -164.3610
  20   2.0000      -6.036503      -164.2616
  21   2.0000      -6.035720      -164.2403
  22   2.0000      -6.031710      -164.1312
  23   2.0000      -6.027413      -164.0143
  24   2.0000      -1.004394       -27.3310
  25   2.0000      -0.981270       -26.7017
  26   2.0000      -0.914991       -24.8982
  27   2.0000      -0.904124       -24.6025
  28   2.0000      -0.870719       -23.6935
  29   2.0000      -0.854881       -23.2625
  30   2.0000      -0.843900       -22.9637
  31   2.0000      -0.814822       -22.1724
  32   2.0000      -0.781136       -21.2558
  33   2.0000      -0.772230       -21.0134
  34   2.0000      -0.717817       -19.5328
  35   2.0000      -0.704671       -19.1751
  36   2.0000      -0.694819       -18.9070
  37   2.0000      -0.659641       -17.9497
  38   2.0000      -0.640356       -17.4250
  39   2.0000      -0.619926       -16.8691
  40   2.0000      -0.594379       -16.1739
  41   2.0000      -0.573802       -15.6140
  42   2.0000      -0.564113       -15.3503
  43   2.0000      -0.559892       -15.2354
  44   2.0000      -0.530810       -14.4441
  45   2.0000      -0.526071       -14.3151
  46   2.0000      -0.518831       -14.1181
  47   2.0000      -0.515598       -14.0301
  48   2.0000      -0.500222       -13.6117
  49   2.0000      -0.497192       -13.5293
  50   2.0000      -0.493574       -13.4308
  51   2.0000      -0.484278       -13.1779
  52   2.0000      -0.474245       -12.9049
  53   2.0000      -0.464809       -12.6481
  54   2.0000      -0.461727       -12.5642
  55   2.0000      -0.447629       -12.1806
  56   2.0000      -0.442982       -12.0541
  57   2.0000      -0.440644       -11.9905
  58   2.0000      -0.434644       -11.8273
  59   2.0000      -0.432010       -11.7556
  60   2.0000      -0.418154       -11.3786
  61   2.0000      -0.416731       -11.3398
  62   2.0000      -0.406923       -11.0730
  63   2.0000      -0.354151        -9.6369
  64   2.0000      -0.334959        -9.1147
  65   2.0000      -0.330226        -8.9859
  66   2.0000      -0.289223        -7.8702
  67   0.0000       0.023573         0.6415
  68   0.0000       0.075350         2.0504
  69   0.0000       0.104610         2.8466
  70   0.0000       0.116763         3.1773
  71   0.0000       0.124432         3.3860

MULLIKEN ATOMIC CHARGES
-----------------------
   0 S :    0.124929
   1 C :   -0.121734
   2 C :   -0.090552
   3 C :   -0.006734
   4 C :   -0.146373
   5 H :    0.020189
   6 C :    0.048076
   7 H :    0.045564
   8 H :    0.009380
   9 C :   -0.015047
  10 H :   -0.002861
  11 H :    0.028597
  12 C :   -0.038832
  13 H :    0.009634
  14 H :    0.034116
  15 H :    0.042190
  16 S :    0.077048
  17 C :   -0.025152
  18 C :   -0.042482
  19 C :   -0.067749
  20 C :   -0.120721
  21 H :    0.037408
  22 C :    0.009143
  23 H :    0.036121
  24 H :    0.042725
  25 C :   -0.055097
  26 H :    0.025640
  27 H :    0.026291
  28 C :   -0.043296
  29 H :    0.021111
  30 H :    0.047457
  31 H :    0.033639
  32 H :    0.043488
  33 H :    0.013882
Sum of atomic charges:   -0.0000000

LOEWDIN ATOMIC CHARGES
----------------------
   0 S :    0.422640
   1 C :   -0.203638
   2 C :   -0.065918
   3 C :   -0.075373
   4 C :   -0.194250
   5 H :    0.037100
   6 C :   -0.023385
   7 H :    0.037294
   8 H :    0.022225
   9 C :   -0.020561
  10 H :    0.004020
  11 H :    0.025833
  12 C :   -0.063147
  13 H :    0.018386
  14 H :    0.024253
  15 H :    0.032806
  16 S :    0.358783
  17 C :   -0.152558
  18 C :   -0.069331
  19 C :   -0.052049
  20 C :   -0.178126
  21 H :    0.036897
  22 C :   -0.039190
  23 H :    0.030208
  24 H :    0.038170
  25 C :   -0.050759
  26 H :    0.028120
  27 H :    0.022945
  28 C :   -0.071856
  29 H :    0.023705
  30 H :    0.031431
  31 H :    0.032836
  32 H :    0.028120
  33 H :    0.004370

  Mayer bond orders larger than 0.100000
B(  0-S ,  1-C ) :   1.1424 B(  0-S ,  4-C ) :   1.1715 B(  1-C ,  2-C ) :   1.5792
B(  1-C ,  4-C ) :   0.1086 B(  1-C , 32-H ) :   0.9692 B(  2-C ,  3-C ) :   1.2759
B(  2-C ,  6-C ) :   1.0174 B(  3-C ,  4-C ) :   1.5386 B(  3-C ,  5-H ) :   0.9875
B(  4-C , 20-C ) :   1.0577 B(  6-C ,  7-H ) :   0.9443 B(  6-C ,  8-H ) :   0.9422
B(  6-C ,  9-C ) :   1.0505 B(  9-C , 10-H ) :   0.9589 B(  9-C , 11-H ) :   0.9568
B(  9-C , 12-C ) :   1.0753 B( 12-C , 13-H ) :   0.9753 B( 12-C , 14-H ) :   0.9743
B( 12-C , 15-H ) :   0.9765 B( 16-S , 17-C ) :   1.1285 B( 16-S , 20-C ) :   1.1029
B( 17-C , 18-C ) :   1.6819 B( 17-C , 33-H ) :   0.9714 B( 18-C , 19-C ) :   1.2026
B( 18-C , 21-H ) :   0.9751 B( 19-C , 20-C ) :   1.6429 B( 19-C , 22-C ) :   1.0271
B( 22-C , 23-H ) :   0.9450 B( 22-C , 24-H ) :   0.9394 B( 22-C , 25-C ) :   1.0417
B( 25-C , 26-H ) :   0.9481 B( 25-C , 27-H ) :   0.9519 B( 25-C , 28-C ) :   1.1115
B( 28-C , 29-H ) :   0.9676 B( 28-C , 30-H ) :   0.9698 B( 28-C , 31-H ) :   0.9674

Dispersion correction           -0.014279110
FINAL SINGLE POINT ENERGY     -1339.858221780762

DIPOLE MOMENT
-------------
                                X             Y             Z
Electronic contribution:     -6.72898      24.81414      22.70945
Nuclear contribution   :      6.63242     -25.41808     -23.25422
                        -----------------------------------------
Total Dipole Moment    :     -0.09656      -0.60394      -0.54477
                        -----------------------------------------
Magnitude (a.u.)       :      0.81905
Magnitude (Debye)      :      2.08186

Rotational constants in cm-1:     0.017353     0.009481     0.006360
Rotational constants in MHz :   520.224564   284.241564   190.680944

                             ****ORCA TERMINATED NORMALLY****
TOTAL RUN TIME: 0 days 0 hours 0 minutes 21 seconds 764 msec
