                         Program Version 4.2.1 -  RELEASE  -
|  1> ! wB97X-D3 SP def2-SVP
|  2> %pal
|  3> nprocs 24
|  4> end
|  5>
|  6> * xyz 0 1
|  7> S 	 -80.0892 	 -16.4449 	 -51.2703
|  8> C 	 -81.8557 	 -16.6789 	 -51.1198
|  9> C 	 -82.5303 	 -15.6207 	 -51.7007
| 10> C 	 -81.5948 	 -14.7222 	 -52.3301
| 11> C 	 -80.2638 	 -15.0243 	 -52.1918
| 12> H 	 -81.8748 	 -13.8183 	 -52.9371
| 13> C 	 -84.0472 	 -15.3363 	 -51.7671
| 14> H 	 -84.2718 	 -14.2083 	 -51.8486
| 15> H 	 -84.467 	 -15.6923 	 -50.7445
| 16> C 	 -84.7952 	 -16.0528 	 -52.8139
| 17> H 	 -85.8611 	 -15.7464 	 -52.8125
| 18> H 	 -84.4201 	 -15.6588 	 -53.8028
| 19> C 	 -84.5443 	 -17.5267 	 -52.9241
| 20> H 	 -84.7404 	 -17.9422 	 -51.9464
| 21> H 	 -85.3014 	 -18.1102 	 -53.4844
| 22> H 	 -83.5353 	 -17.7411 	 -53.3439
| 23> S 	 -78.7909 	 -14.5632 	 -54.5302
| 24> C 	 -77.2542 	 -13.7358 	 -54.3694
| 25> C 	 -77.089 	 -13.1611 	 -53.0935
| 26> C 	 -78.1637 	 -13.5726 	 -52.1816
| 27> C 	 -79.137 	 -14.3418 	 -52.8042
| 28> H 	 -76.257 	 -12.5597 	 -52.7802
| 29> C 	 -78.2389 	 -13.2017 	 -50.7071
| 30> H 	 -78.0271 	 -14.0058 	 -50.0063
| 31> H 	 -79.2858 	 -12.9879 	 -50.5812
| 32> C 	 -77.5896 	 -11.8506 	 -50.326
| 33> H 	 -78.0429 	 -11.0075 	 -50.9091
| 34> H 	 -76.5456 	 -11.9478 	 -50.5706
| 35> C 	 -77.7819 	 -11.5713 	 -48.7989
| 36> H 	 -78.8526 	 -11.3587 	 -48.6971
| 37> H 	 -77.2541 	 -10.7931 	 -48.3857
| 38> H 	 -77.4347 	 -12.384 	 -48.1519
| 39> H 	 -82.24 	 -17.6237 	 -50.7767
| 40> H 	 -76.6267 	 -13.6004 	 -55.1569
| 41> *
| 42>
| 43>                          ****END OF INPUT****

CARTESIAN COORDINATES (ANGSTROEM)
---------------------------------
  S    -80.089200  -16.444900  -51.270300
  C    -81.855700  -16.678900  -51.119800
  C    -82.530300  -15.620700  -51.700700
  C    -81.594800  -14.722200  -52.330100
  C    -80.263800  -15.024300  -52.191800
  H    -81.874800  -13.818300  -52.937100
  C    -84.047200  -15.336300  -51.767100
  H    -84.271800  -14.208300  -51.848600
  H    -84.467000  -15.692300  -50.744500
  C    -84.795200  -16.052800  -52.813900
  H    -85.861100  -15.746400  -52.812500
  H    -84.420100  -15.658800  -53.802800
  C    -84.544300  -17.526700  -52.924100
  H    -84.740400  -17.942200  -51.946400
  H    -85.301400  -18.110200  -53.484400
  H    -83.535300  -17.741100  -53.343900
  S    -78.790900  -14.563200  -54.530200
  C    -77.254200  -13.735800  -54.369400
  C    -77.089000  -13.161100  -53.093500
  C    -78.163700  -13.572600  -52.181600
  C    -79.137000  -14.341800  -52.804200
  H    -76.257000  -12.559700  -52.780200
  C    -78.238900  -13.201700  -50.707100
  H    -78.027100  -14.005800  -50.006300
  H    -79.285800  -12.987900  -50.581200
  C    -77.589600  -11.850600  -50.326000
  H    -78.042900  -11.007500  -50.909100
  H    -76.545600  -11.947800  -50.570600
  C    -77.781900  -11.571300  -48.798900
  H    -78.852600  -11.358700  -48.697100
  H    -77.254100  -10.793100  -48.385700
  H    -77.434700  -12.384000  -48.151900
  H    -82.240000  -17.623700  -50.776700
  H    -76.626700  -13.600400  -55.156900

 Total Charge           Charge          ....    0
 Multiplicity           Mult            ....    1
 Number of Electrons    NEL             ....  134
 Basis Dimension        Dim             ....  322

ORBITAL ENERGIES
----------------

  NO   OCC          E(Eh)            E(eV)
   0   2.0000     -88.966252     -2420.8948
   1   2.0000     -88.963791     -2420.8278
   2   2.0000     -10.323810      -280.9251
   3   2.0000     -10.322703      -280.8950
   4   2.0000     -10.318837      -280.7898
   5   2.0000     -10.316973      -280.7391
   6   2.0000     -10.307558      -280.4829
   7   2.0000     -10.305956      -280.4393
   8   2.0000     -10.305917      -280.4383
   9   2.0000     -10.299955      -280.2760
  10   2.0000     -10.294964      -280.1402
  11   2.0000     -10.291184      -280.0374
  12   2.0000     -10.286793      -279.9179
  13   2.0000     -10.286001      -279.8963
  14   2.0000     -10.278048      -279.6799
  15   2.0000     -10.274038      -279.5708
  16   2.0000      -8.080516      -219.8820
  17   2.0000      -8.078908      -219.8383
  18   2.0000      -6.039063      -164.3313
  19   2.0000      -6.037339      -164.2843
  20   2.0000      -6.035101      -164.2235
  21   2.0000      -6.033306      -164.1746
  22   2.0000      -6.031255      -164.1188
  23   2.0000      -6.029762      -164.0782
  24   2.0000      -1.004979       -27.3469
  25   2.0000      -0.978704       -26.6319
  26   2.0000      -0.919031       -25.0081
  27   2.0000      -0.905804       -24.6482
  28   2.0000      -0.868530       -23.6339
  29   2.0000      -0.845040       -22.9947
  30   2.0000      -0.842640       -22.9294
  31   2.0000      -0.809254       -22.0209
  32   2.0000      -0.786222       -21.3942
  33   2.0000      -0.775311       -21.0973
  34   2.0000      -0.706094       -19.2138
  35   2.0000      -0.700887       -19.0721
  36   2.0000      -0.690706       -18.7951
  37   2.0000      -0.656312       -17.8592
  38   2.0000      -0.638647       -17.3785
  39   2.0000      -0.613023       -16.6812
  40   2.0000      -0.599689       -16.3184
  41   2.0000      -0.572982       -15.5916
  42   2.0000      -0.571167       -15.5423
  43   2.0000      -0.548290       -14.9197
  44   2.0000      -0.545499       -14.8438
  45   2.0000      -0.523569       -14.2470
  46   2.0000      -0.517656       -14.0861
  47   2.0000      -0.516605       -14.0575
  48   2.0000      -0.503053       -13.6888
  49   2.0000      -0.497976       -13.5506
  50   2.0000      -0.484408       -13.1814
  51   2.0000      -0.476736       -12.9726
  52   2.0000      -0.464019       -12.6266
  53   2.0000      -0.461377       -12.5547
  54   2.0000      -0.458624       -12.4798
  55   2.0000      -0.455594       -12.3973
  56   2.0000      -0.445850       -12.1322
  57   2.0000      -0.436710       -11.8835
  58   2.0000      -0.434108       -11.8127
  59   2.0000      -0.420573       -11.4444
  60   2.0000      -0.415926       -11.3179
  61   2.0000      -0.413386       -11.2488
  62   2.0000      -0.401168       -10.9163
  63   2.0000      -0.334780        -9.1098
  64   2.0000      -0.328877        -8.9492
  65   2.0000      -0.326672        -8.8892
  66   2.0000      -0.305197        -8.3048
  67   0.0000       0.042531         1.1573
  68   0.0000       0.052815         1.4372
  69   0.0000       0.105564         2.8725
  70   0.0000       0.120726         3.2851
  71   0.0000       0.129718         3.5298

MULLIKEN ATOMIC CHARGES
-----------------------
   0 S :    0.111503
   1 C :   -0.146961
   2 C :   -0.055962
   3 C :    0.001842
   4 C :   -0.175016
   5 H :    0.027519
   6 C :    0.017136
   7 H :    0.050261
   8 H :    0.039645
   9 C :   -0.068537
  10 H :    0.037750
  11 H :    0.019636
  12 C :   -0.056907
  13 H :    0.010393
  14 H :    0.032369
  15 H :    0.064623
  16 S :    0.115441
  17 C :   -0.055665
  18 C :   -0.020907
  19 C :   -0.045168
  20 C :   -0.157916
  21 H :    0.018720
  22 C :    0.069728
  23 H :    0.042322
  24 H :    0.026271
  25 C :   -0.117842
  26 H :    0.046963
  27 H :    0.030377
  28 C :   -0.014104
  29 H :    0.034036
  30 H :    0.011183
  31 H :    0.028881
  32 H :    0.054250
  33 H :    0.024135
Sum of atomic charges:   -0.0000000

LOEWDIN ATOMIC CHARGES
----------------------
   0 S :    0.414282
   1 C :   -0.180312
   2 C :   -0.062861
   3 C :   -0.072139
   4 C :   -0.216847
   5 H :    0.038171
   6 C :   -0.039797
   7 H :    0.043776
   8 H :    0.035890
   9 C :   -0.057830
  10 H :    0.029099
  11 H :    0.026377
  12 C :   -0.073069
  13 H :    0.017744
  14 H :    0.031826
  15 H :    0.036571
  16 S :    0.399954
  17 C :   -0.163140
  18 C :   -0.065007
  19 C :   -0.047441
  20 C :   -0.204045
  21 H :    0.028269
  22 C :   -0.038083
  23 H :    0.033003
  24 H :    0.033636
  25 C :   -0.036952
  26 H :    0.032296
  27 H :    0.013589
  28 C :   -0.060730
  29 H :    0.029748
  30 H :    0.013475
  31 H :    0.028648
  32 H :    0.024979
  33 H :    0.006920

  Mayer bond orders larger than 0.100000
B(  0-S ,  1-C ) :   1.1442 B(  0-S ,  4-C ) :   1.1560 B(  1-C ,  2-C ) :   1.5976
B(  1-C , 32-H ) :   0.9746 B(  2-C ,  3-C ) :   1.2387 B(  2-C ,  6-C ) :   0.9999
B(  3-C ,  4-C ) :   1.5921 B(  3-C ,  5-H ) :   0.9868 B(  4-C , 20-C ) :   1.0199
B(  6-C ,  7-H ) :   0.9451 B(  6-C ,  8-H ) :   0.9401 B(  6-C ,  9-C ) :   1.0879
B(  9-C , 10-H ) :   0.9530 B(  9-C , 11-H ) :   0.9473 B(  9-C , 12-C ) :   1.0808
B( 12-C , 13-H ) :   0.9720 B( 12-C , 14-H ) :   0.9685 B( 12-C , 15-H ) :   0.9671
B( 16-S , 17-C ) :   1.1637 B( 16-S , 20-C ) :   1.1281 B( 17-C , 18-C ) :   1.5927
B( 17-C , 33-H ) :   0.9790 B( 18-C , 19-C ) :   1.2340 B( 18-C , 21-H ) :   0.9894
B( 19-C , 20-C ) :   1.6216 B( 19-C , 22-C ) :   1.0264 B( 22-C , 23-H ) :   0.9333
B( 22-C , 24-H ) :   0.9292 B( 22-C , 25-C ) :   1.0622 B( 25-C , 26-H ) :   0.9614
B( 25-C , 27-H ) :   0.9534 B( 25-C , 28-C ) :   1.0789 B( 28-C , 29-H ) :   0.9770
B( 28-C , 30-H ) :   0.9736 B( 28-C , 31-H ) :   0.9733

Dispersion correction           -0.014248357
FINAL SINGLE POINT ENERGY     -1339.870338634933

DIPOLE MOMENT
-------------
                                X             Y             Z
Electronic contribution:     11.36290      -6.95895     -10.96049
Nuclear contribution   :    -11.59164       7.21751      11.11744
                        -----------------------------------------
Total Dipole Moment    :     -0.22873       0.25856       0.15695
                        -----------------------------------------
Magnitude (a.u.)       :      0.37922
Magnitude (Debye)      :      0.96389

Rotational constants in cm-1:     0.020857     0.007662     0.006422
Rotational constants in MHz :   625.266600   229.695343   192.538773

                             ****ORCA TERMINATED NORMALLY****
TOTAL RUN TIME: 0 days 0 hours 0 minutes 21 seconds 177 msec
