                         Program Version 4.2.1 -  RELEASE  -
|  1> ! wB97X-D3 SP def2-SVP
|  2> %pal
|  3> nprocs 24
|  4> end
|  5>
|  6> * xyz 0 1
|  7> S 	 -38.5231 	 8.33192 	 27.542
|  8> C 	 -38.866 	 8.89019 	 29.1735
|  9> C 	 -38.9384 	 7.9578 	 30.1838
| 10> C 	 -38.8414 	 6.67224 	 29.5572
| 11> C 	 -38.6133 	 6.68199 	 28.1723
| 12> H 	 -38.9126 	 5.76261 	 30.1004
| 13> C 	 -39.1477 	 8.12498 	 31.7113
| 14> H 	 -40.186 	 8.24229 	 31.7475
| 15> H 	 -38.5867 	 8.98778 	 32.0011
| 16> C 	 -38.8386 	 6.94076 	 32.6116
| 17> H 	 -39.4136 	 6.00015 	 32.3838
| 18> H 	 -37.7782 	 6.69667 	 32.5842
| 19> C 	 -39.1673 	 7.1739 	 34.133
| 20> H 	 -38.5628 	 7.93239 	 34.6271
| 21> H 	 -40.2094 	 7.45766 	 34.2557
| 22> H 	 -38.9557 	 6.20448 	 34.5562
| 23> S 	 -36.7278 	 5.13714 	 26.7464
| 24> C 	 -37.3483 	 3.79004 	 25.8323
| 25> C 	 -38.6326 	 3.44455 	 26.2141
| 26> C 	 -39.1869 	 4.40698 	 27.1031
| 27> C 	 -38.3605 	 5.5193 	 27.308
| 28> H 	 -39.1497 	 2.55168 	 25.9304
| 29> C 	 -40.4748 	 4.1842 	 27.7898
| 30> H 	 -40.3255 	 4.22622 	 28.8545
| 31> H 	 -40.8549 	 3.11159 	 27.5658
| 32> C 	 -41.6005 	 5.18462 	 27.5021
| 33> H 	 -41.4937 	 6.24665 	 27.7571
| 34> H 	 -42.4286 	 4.81927 	 28.1357
| 35> C 	 -42.0235 	 5.16289 	 26.0185
| 36> H 	 -42.9484 	 5.64133 	 25.9991
| 37> H 	 -42.1857 	 4.18971 	 25.6088
| 38> H 	 -41.235 	 5.56165 	 25.4201
| 39> H 	 -38.735 	 9.8504 	 29.532
| 40> H 	 -36.6197 	 3.18762 	 25.4009
| 41> *
| 42>
| 43>                          ****END OF INPUT****

CARTESIAN COORDINATES (ANGSTROEM)
---------------------------------
  S    -38.523100    8.331920   27.542000
  C    -38.866000    8.890190   29.173500
  C    -38.938400    7.957800   30.183800
  C    -38.841400    6.672240   29.557200
  C    -38.613300    6.681990   28.172300
  H    -38.912600    5.762610   30.100400
  C    -39.147700    8.124980   31.711300
  H    -40.186000    8.242290   31.747500
  H    -38.586700    8.987780   32.001100
  C    -38.838600    6.940760   32.611600
  H    -39.413600    6.000150   32.383800
  H    -37.778200    6.696670   32.584200
  C    -39.167300    7.173900   34.133000
  H    -38.562800    7.932390   34.627100
  H    -40.209400    7.457660   34.255700
  H    -38.955700    6.204480   34.556200
  S    -36.727800    5.137140   26.746400
  C    -37.348300    3.790040   25.832300
  C    -38.632600    3.444550   26.214100
  C    -39.186900    4.406980   27.103100
  C    -38.360500    5.519300   27.308000
  H    -39.149700    2.551680   25.930400
  C    -40.474800    4.184200   27.789800
  H    -40.325500    4.226220   28.854500
  H    -40.854900    3.111590   27.565800
  C    -41.600500    5.184620   27.502100
  H    -41.493700    6.246650   27.757100
  H    -42.428600    4.819270   28.135700
  C    -42.023500    5.162890   26.018500
  H    -42.948400    5.641330   25.999100
  H    -42.185700    4.189710   25.608800
  H    -41.235000    5.561650   25.420100
  H    -38.735000    9.850400   29.532000
  H    -36.619700    3.187620   25.400900

 Total Charge           Charge          ....    0
 Multiplicity           Mult            ....    1
 Number of Electrons    NEL             ....  134
 Basis Dimension        Dim             ....  322

ORBITAL ENERGIES
----------------

  NO   OCC          E(Eh)            E(eV)
   0   2.0000     -88.970333     -2421.0059
   1   2.0000     -88.963043     -2420.8075
   2   2.0000     -10.329001      -281.0664
   3   2.0000     -10.322985      -280.9027
   4   2.0000     -10.312281      -280.6114
   5   2.0000     -10.304916      -280.4110
   6   2.0000     -10.301121      -280.3077
   7   2.0000     -10.298079      -280.2250
   8   2.0000     -10.296969      -280.1948
   9   2.0000     -10.295360      -280.1510
  10   2.0000     -10.293152      -280.0909
  11   2.0000     -10.291399      -280.0432
  12   2.0000     -10.291206      -280.0380
  13   2.0000     -10.283337      -279.8238
  14   2.0000     -10.281329      -279.7692
  15   2.0000     -10.258718      -279.1539
  16   2.0000      -8.084179      -219.9817
  17   2.0000      -8.077842      -219.8092
  18   2.0000      -6.042701      -164.4303
  19   2.0000      -6.038966      -164.3286
  20   2.0000      -6.036177      -164.2527
  21   2.0000      -6.034836      -164.2162
  22   2.0000      -6.032534      -164.1536
  23   2.0000      -6.028596      -164.0464
  24   2.0000      -1.001214       -27.2444
  25   2.0000      -0.981055       -26.6959
  26   2.0000      -0.913441       -24.8560
  27   2.0000      -0.907852       -24.7039
  28   2.0000      -0.866273       -23.5725
  29   2.0000      -0.848616       -23.0920
  30   2.0000      -0.846322       -23.0296
  31   2.0000      -0.810094       -22.0438
  32   2.0000      -0.789111       -21.4728
  33   2.0000      -0.774960       -21.0877
  34   2.0000      -0.711136       -19.3510
  35   2.0000      -0.696924       -18.9643
  36   2.0000      -0.685644       -18.6573
  37   2.0000      -0.663466       -18.0538
  38   2.0000      -0.635912       -17.3040
  39   2.0000      -0.618567       -16.8321
  40   2.0000      -0.596337       -16.2271
  41   2.0000      -0.582492       -15.8504
  42   2.0000      -0.564800       -15.3690
  43   2.0000      -0.552187       -15.0258
  44   2.0000      -0.546466       -14.8701
  45   2.0000      -0.530995       -14.4491
  46   2.0000      -0.513121       -13.9627
  47   2.0000      -0.508592       -13.8395
  48   2.0000      -0.498018       -13.5518
  49   2.0000      -0.493054       -13.4167
  50   2.0000      -0.483263       -13.1503
  51   2.0000      -0.482603       -13.1323
  52   2.0000      -0.473533       -12.8855
  53   2.0000      -0.463203       -12.6044
  54   2.0000      -0.457533       -12.4501
  55   2.0000      -0.452352       -12.3091
  56   2.0000      -0.439612       -11.9624
  57   2.0000      -0.436726       -11.8839
  58   2.0000      -0.435040       -11.8380
  59   2.0000      -0.431288       -11.7359
  60   2.0000      -0.419505       -11.4153
  61   2.0000      -0.415998       -11.3199
  62   2.0000      -0.412372       -11.2212
  63   2.0000      -0.337007        -9.1704
  64   2.0000      -0.330072        -8.9817
  65   2.0000      -0.322394        -8.7728
  66   2.0000      -0.294858        -8.0235
  67   0.0000       0.030112         0.8194
  68   0.0000       0.059613         1.6222
  69   0.0000       0.104100         2.8327
  70   0.0000       0.114171         3.1067
  71   0.0000       0.128275         3.4905

MULLIKEN ATOMIC CHARGES
-----------------------
   0 S :    0.128114
   1 C :   -0.084278
   2 C :   -0.129282
   3 C :    0.040397
   4 C :   -0.182306
   5 H :   -0.005709
   6 C :    0.152048
   7 H :    0.031098
   8 H :    0.029153
   9 C :   -0.152634
  10 H :    0.044821
  11 H :    0.037923
  12 C :   -0.039276
  13 H :    0.034997
  14 H :    0.031488
  15 H :    0.036332
  16 S :    0.101893
  17 C :   -0.066463
  18 C :   -0.015095
  19 C :   -0.033220
  20 C :   -0.155848
  21 H :    0.011767
  22 C :    0.050949
  23 H :    0.023606
  24 H :    0.029973
  25 C :   -0.099006
  26 H :    0.051779
  27 H :    0.021762
  28 C :   -0.006618
  29 H :    0.021389
  30 H :    0.003335
  31 H :    0.038682
  32 H :    0.006778
  33 H :    0.041449
Sum of atomic charges:    0.0000000

LOEWDIN ATOMIC CHARGES
----------------------
   0 S :    0.403621
   1 C :   -0.193686
   2 C :   -0.054946
   3 C :   -0.054450
   4 C :   -0.194089
   5 H :    0.020024
   6 C :   -0.021993
   7 H :    0.032944
   8 H :    0.031827
   9 C :   -0.044095
  10 H :    0.030110
  11 H :    0.024422
  12 C :   -0.058347
  13 H :    0.022892
  14 H :    0.022870
  15 H :    0.028205
  16 S :    0.406141
  17 C :   -0.172844
  18 C :   -0.065144
  19 C :   -0.054257
  20 C :   -0.206941
  21 H :    0.029325
  22 C :   -0.037686
  23 H :    0.027709
  24 H :    0.039017
  25 C :   -0.038368
  26 H :    0.029696
  27 H :    0.023512
  28 C :   -0.057364
  29 H :    0.019645
  30 H :    0.016184
  31 H :    0.025189
  32 H :    0.008780
  33 H :    0.012096

  Mayer bond orders larger than 0.100000
B(  0-S ,  1-C ) :   1.1369 B(  0-S ,  4-C ) :   1.1374 B(  1-C ,  2-C ) :   1.6627
B(  1-C , 32-H ) :   0.9596 B(  2-C ,  3-C ) :   1.2476 B(  2-C ,  6-C ) :   0.9865
B(  3-C ,  4-C ) :   1.5802 B(  3-C ,  5-H ) :   0.9895 B(  4-C , 20-C ) :   1.0392
B(  6-C ,  7-H ) :   0.9273 B(  6-C ,  8-H ) :   0.9398 B(  6-C ,  9-C ) :   1.0890
B(  9-C , 10-H ) :   0.9471 B(  9-C , 11-H ) :   0.9577 B(  9-C , 12-C ) :   1.0789
B( 12-C , 13-H ) :   0.9771 B( 12-C , 14-H ) :   0.9767 B( 12-C , 15-H ) :   0.9764
B( 16-S , 17-C ) :   1.1776 B( 16-S , 20-C ) :   1.1506 B( 17-C , 18-C ) :   1.5540
B( 17-C , 20-C ) :   0.1049 B( 17-C , 33-H ) :   0.9748 B( 18-C , 19-C ) :   1.2720
B( 18-C , 21-H ) :   0.9958 B( 19-C , 20-C ) :   1.5567 B( 19-C , 22-C ) :   1.0513
B( 22-C , 23-H ) :   0.9246 B( 22-C , 24-H ) :   0.9391 B( 22-C , 25-C ) :   1.0754
B( 25-C , 26-H ) :   0.9557 B( 25-C , 27-H ) :   0.9548 B( 25-C , 28-C ) :   1.0730
B( 28-C , 29-H ) :   0.9739 B( 28-C , 30-H ) :   0.9744 B( 28-C , 31-H ) :   0.9736

Dispersion correction           -0.014942205
FINAL SINGLE POINT ENERGY     -1339.857751537073

DIPOLE MOMENT
-------------
                                X             Y             Z
Electronic contribution:     16.91518       4.15403     -18.61750
Nuclear contribution   :    -17.17468      -4.47381      19.38036
                        -----------------------------------------
Total Dipole Moment    :     -0.25951      -0.31978       0.76287
                        -----------------------------------------
Magnitude (a.u.)       :      0.86693
Magnitude (Debye)      :      2.20356

Rotational constants in cm-1:     0.018658     0.008083     0.007613
Rotational constants in MHz :   559.353556   242.308371   228.245862

                             ****ORCA TERMINATED NORMALLY****
TOTAL RUN TIME: 0 days 0 hours 0 minutes 22 seconds 8 msec
