                         Program Version 4.2.1 -  RELEASE  -
|  1> ! wB97X-D3 SP def2-SVP
|  2> %pal
|  3> nprocs 24
|  4> end
|  5>
|  6> * xyz 0 1
|  7> S 	 43.0136 	 -19.5271 	 -113.528
|  8> C 	 43.115 	 -18.2805 	 -114.744
|  9> C 	 44.1948 	 -17.5002 	 -114.529
| 10> C 	 44.7821 	 -17.7938 	 -113.335
| 11> C 	 44.3424 	 -18.8711 	 -112.642
| 12> H 	 45.6249 	 -17.1744 	 -112.944
| 13> C 	 44.5962 	 -16.3408 	 -115.442
| 14> H 	 44.1514 	 -16.4863 	 -116.414
| 15> H 	 45.6902 	 -16.6194 	 -115.508
| 16> C 	 44.3372 	 -14.9144 	 -114.868
| 17> H 	 44.6029 	 -15.0361 	 -113.772
| 18> H 	 45.0444 	 -14.2643 	 -115.31
| 19> C 	 42.9337 	 -14.3955 	 -115.215
| 20> H 	 42.6828 	 -13.5048 	 -114.664
| 21> H 	 42.7066 	 -14.1742 	 -116.191
| 22> H 	 42.2281 	 -15.184 	 -114.95
| 23> S 	 45.6835 	 -21.0346 	 -111.32
| 24> C 	 46.2731 	 -20.6992 	 -109.65
| 25> C 	 45.8605 	 -19.4399 	 -109.228
| 26> C 	 45.0457 	 -18.7878 	 -110.201
| 27> C 	 44.9441 	 -19.4253 	 -111.422
| 28> H 	 45.9584 	 -19.2003 	 -108.175
| 29> C 	 44.3926 	 -17.5509 	 -109.783
| 30> H 	 43.9893 	 -17.079 	 -110.69
| 31> H 	 45.1389 	 -16.931 	 -109.327
| 32> C 	 43.3442 	 -17.5833 	 -108.706
| 33> H 	 43.7208 	 -18.0227 	 -107.785
| 34> H 	 42.5152 	 -18.2843 	 -108.939
| 35> C 	 42.8619 	 -16.1641 	 -108.421
| 36> H 	 42.0211 	 -16.1821 	 -107.78
| 37> H 	 42.5787 	 -15.7301 	 -109.354
| 38> H 	 43.6537 	 -15.6748 	 -107.896
| 39> H 	 42.5061 	 -18.1011 	 -115.558
| 40> H 	 46.7333 	 -21.3896 	 -108.946
| 41> *
| 42>
| 43>                          ****END OF INPUT****

CARTESIAN COORDINATES (ANGSTROEM)
---------------------------------
  S     43.013600  -19.527100  -113.528000
  C     43.115000  -18.280500  -114.744000
  C     44.194800  -17.500200  -114.529000
  C     44.782100  -17.793800  -113.335000
  C     44.342400  -18.871100  -112.642000
  H     45.624900  -17.174400  -112.944000
  C     44.596200  -16.340800  -115.442000
  H     44.151400  -16.486300  -116.414000
  H     45.690200  -16.619400  -115.508000
  C     44.337200  -14.914400  -114.868000
  H     44.602900  -15.036100  -113.772000
  H     45.044400  -14.264300  -115.310000
  C     42.933700  -14.395500  -115.215000
  H     42.682800  -13.504800  -114.664000
  H     42.706600  -14.174200  -116.191000
  H     42.228100  -15.184000  -114.950000
  S     45.683500  -21.034600  -111.320000
  C     46.273100  -20.699200  -109.650000
  C     45.860500  -19.439900  -109.228000
  C     45.045700  -18.787800  -110.201000
  C     44.944100  -19.425300  -111.422000
  H     45.958400  -19.200300  -108.175000
  C     44.392600  -17.550900  -109.783000
  H     43.989300  -17.079000  -110.690000
  H     45.138900  -16.931000  -109.327000
  C     43.344200  -17.583300  -108.706000
  H     43.720800  -18.022700  -107.785000
  H     42.515200  -18.284300  -108.939000
  C     42.861900  -16.164100  -108.421000
  H     42.021100  -16.182100  -107.780000
  H     42.578700  -15.730100  -109.354000
  H     43.653700  -15.674800  -107.896000
  H     42.506100  -18.101100  -115.558000
  H     46.733300  -21.389600  -108.946000

 Total Charge           Charge          ....    0
 Multiplicity           Mult            ....    1
 Number of Electrons    NEL             ....  134
 Basis Dimension        Dim             ....  322

ORBITAL ENERGIES
----------------

  NO   OCC          E(Eh)            E(eV)
   0   2.0000     -88.967263     -2420.9223
   1   2.0000     -88.965004     -2420.8608
   2   2.0000     -10.328884      -281.0632
   3   2.0000     -10.325851      -280.9807
   4   2.0000     -10.324242      -280.9369
   5   2.0000     -10.304281      -280.3938
   6   2.0000     -10.297081      -280.1978
   7   2.0000     -10.296536      -280.1830
   8   2.0000     -10.293536      -280.1013
   9   2.0000     -10.293353      -280.0964
  10   2.0000     -10.288339      -279.9599
  11   2.0000     -10.286465      -279.9089
  12   2.0000     -10.281438      -279.7721
  13   2.0000     -10.278976      -279.7051
  14   2.0000     -10.272933      -279.5407
  15   2.0000     -10.269383      -279.4441
  16   2.0000      -8.080609      -219.8846
  17   2.0000      -8.080209      -219.8737
  18   2.0000      -6.039356      -164.3392
  19   2.0000      -6.038666      -164.3205
  20   2.0000      -6.035354      -164.2303
  21   2.0000      -6.034533      -164.2080
  22   2.0000      -6.031139      -164.1156
  23   2.0000      -6.031105      -164.1147
  24   2.0000      -1.014973       -27.6188
  25   2.0000      -0.986438       -26.8423
  26   2.0000      -0.917108       -24.9558
  27   2.0000      -0.911625       -24.8066
  28   2.0000      -0.871631       -23.7183
  29   2.0000      -0.854083       -23.2408
  30   2.0000      -0.849394       -23.1132
  31   2.0000      -0.818963       -22.2851
  32   2.0000      -0.786220       -21.3941
  33   2.0000      -0.772906       -21.0318
  34   2.0000      -0.714626       -19.4460
  35   2.0000      -0.702439       -19.1143
  36   2.0000      -0.697200       -18.9718
  37   2.0000      -0.660883       -17.9835
  38   2.0000      -0.639904       -17.4127
  39   2.0000      -0.625772       -17.0281
  40   2.0000      -0.598125       -16.2758
  41   2.0000      -0.575313       -15.6551
  42   2.0000      -0.572582       -15.5807
  43   2.0000      -0.555954       -15.1283
  44   2.0000      -0.534968       -14.5572
  45   2.0000      -0.525336       -14.2951
  46   2.0000      -0.522668       -14.2225
  47   2.0000      -0.517663       -14.0863
  48   2.0000      -0.509358       -13.8603
  49   2.0000      -0.501132       -13.6365
  50   2.0000      -0.486792       -13.2463
  51   2.0000      -0.484484       -13.1835
  52   2.0000      -0.469090       -12.7646
  53   2.0000      -0.468796       -12.7566
  54   2.0000      -0.459102       -12.4928
  55   2.0000      -0.449569       -12.2334
  56   2.0000      -0.445775       -12.1302
  57   2.0000      -0.438746       -11.9389
  58   2.0000      -0.432152       -11.7594
  59   2.0000      -0.431247       -11.7348
  60   2.0000      -0.421029       -11.4568
  61   2.0000      -0.415258       -11.2998
  62   2.0000      -0.407169       -11.0796
  63   2.0000      -0.342669        -9.3245
  64   2.0000      -0.334334        -9.0977
  65   2.0000      -0.327405        -8.9092
  66   2.0000      -0.298409        -8.1201
  67   0.0000       0.035408         0.9635
  68   0.0000       0.065220         1.7747
  69   0.0000       0.114520         3.1163
  70   0.0000       0.125463         3.4140
  71   0.0000       0.129669         3.5285

MULLIKEN ATOMIC CHARGES
-----------------------
   0 S :    0.116195
   1 C :   -0.086129
   2 C :   -0.096818
   3 C :    0.011530
   4 C :   -0.179744
   5 H :    0.018933
   6 C :    0.035896
   7 H :    0.014946
   8 H :    0.044509
   9 C :   -0.040329
  10 H :    0.038285
  11 H :    0.025929
  12 C :   -0.013050
  13 H :    0.031656
  14 H :    0.013615
  15 H :    0.022493
  16 S :    0.102470
  17 C :   -0.101549
  18 C :   -0.033408
  19 C :   -0.024814
  20 C :   -0.129579
  21 H :    0.028585
  22 C :    0.071025
  23 H :    0.022910
  24 H :    0.010164
  25 C :   -0.093391
  26 H :    0.010463
  27 H :    0.027410
  28 C :    0.009786
  29 H :    0.021593
  30 H :    0.026996
  31 H :    0.025475
  32 H :    0.005943
  33 H :    0.062004
Sum of atomic charges:    0.0000000

LOEWDIN ATOMIC CHARGES
----------------------
   0 S :    0.418051
   1 C :   -0.183367
   2 C :   -0.077743
   3 C :   -0.069422
   4 C :   -0.205056
   5 H :    0.035258
   6 C :   -0.028511
   7 H :    0.023512
   8 H :    0.042746
   9 C :   -0.034487
  10 H :    0.033783
  11 H :    0.018568
  12 C :   -0.059054
  13 H :    0.028195
  14 H :    0.015074
  15 H :    0.027373
  16 S :    0.375638
  17 C :   -0.166241
  18 C :   -0.069882
  19 C :   -0.054285
  20 C :   -0.195554
  21 H :    0.033806
  22 C :   -0.038455
  23 H :    0.030519
  24 H :    0.030209
  25 C :   -0.038530
  26 H :    0.016526
  27 H :    0.023381
  28 C :   -0.048868
  29 H :    0.022094
  30 H :    0.023666
  31 H :    0.023833
  32 H :    0.013722
  33 H :    0.033501

  Mayer bond orders larger than 0.100000
B(  0-S ,  1-C ) :   1.1465 B(  0-S ,  4-C ) :   1.1509 B(  1-C ,  2-C ) :   1.5947
B(  1-C , 32-H ) :   0.9719 B(  2-C ,  3-C ) :   1.2916 B(  2-C ,  6-C ) :   1.0046
B(  3-C ,  4-C ) :   1.5641 B(  3-C ,  5-H ) :   0.9845 B(  4-C , 20-C ) :   1.0290
B(  6-C ,  7-H ) :   0.9434 B(  6-C ,  8-H ) :   0.9387 B(  6-C ,  9-C ) :   1.0560
B(  9-C , 10-H ) :   0.9583 B(  9-C , 11-H ) :   0.9552 B(  9-C , 12-C ) :   1.0712
B( 12-C , 13-H ) :   0.9722 B( 12-C , 14-H ) :   0.9742 B( 12-C , 15-H ) :   0.9763
B( 16-S , 17-C ) :   1.1436 B( 16-S , 20-C ) :   1.1051 B( 17-C , 18-C ) :   1.6328
B( 17-C , 33-H ) :   0.9625 B( 18-C , 19-C ) :   1.2212 B( 18-C , 21-H ) :   0.9841
B( 19-C , 20-C ) :   1.6133 B( 19-C , 22-C ) :   1.0675 B( 22-C , 23-H ) :   0.9220
B( 22-C , 24-H ) :   0.9219 B( 22-C , 25-C ) :   1.0747 B( 25-C , 26-H ) :   0.9485
B( 25-C , 27-H ) :   0.9509 B( 25-C , 28-C ) :   1.0845 B( 28-C , 29-H ) :   0.9712
B( 28-C , 30-H ) :   0.9752 B( 28-C , 31-H ) :   0.9739

Dispersion correction           -0.014113305
FINAL SINGLE POINT ENERGY     -1339.863493258094

DIPOLE MOMENT
-------------
                                X             Y             Z
Electronic contribution:      5.96016     -27.56948      -3.37474
Nuclear contribution   :     -5.97157      28.25480       3.56594
                        -----------------------------------------
Total Dipole Moment    :     -0.01141       0.68531       0.19120
                        -----------------------------------------
Magnitude (a.u.)       :      0.71158
Magnitude (Debye)      :      1.80869

Rotational constants in cm-1:     0.017802     0.008783     0.006854
Rotational constants in MHz :   533.681207   263.294730   205.477947

                             ****ORCA TERMINATED NORMALLY****
TOTAL RUN TIME: 0 days 0 hours 0 minutes 21 seconds 703 msec
