                         Program Version 4.2.1 -  RELEASE  -
|  1> ! wB97X-D3 SP def2-SVP
|  2> %pal
|  3> nprocs 24
|  4> end
|  5>
|  6> * xyz 0 1
|  7> S 	 -104.478 	 60.3855 	 -3.08186
|  8> C 	 -103.2 	 61.389 	 -3.57205
|  9> C 	 -103.611 	 62.2919 	 -4.56339
| 10> C 	 -105.008 	 62.2558 	 -4.75493
| 11> C 	 -105.609 	 61.218 	 -4.09419
| 12> H 	 -105.619 	 62.9812 	 -5.3259
| 13> C 	 -102.656 	 63.3411 	 -5.26766
| 14> H 	 -101.73 	 62.8175 	 -5.27697
| 15> H 	 -102.534 	 64.1897 	 -4.60263
| 16> C 	 -102.939 	 63.8656 	 -6.69834
| 17> H 	 -103.413 	 63.1048 	 -7.34407
| 18> H 	 -103.604 	 64.7108 	 -6.6899
| 19> C 	 -101.676 	 64.1558 	 -7.52583
| 20> H 	 -101.895 	 64.7136 	 -8.47085
| 21> H 	 -100.854 	 64.7445 	 -7.03159
| 22> H 	 -101.173 	 63.1951 	 -7.80848
| 23> S 	 -107.402 	 59.1358 	 -4.46444
| 24> C 	 -109.041 	 59.5062 	 -4.68122
| 25> C 	 -109.308 	 60.7839 	 -4.30302
| 26> C 	 -108.14 	 61.6179 	 -4.08398
| 27> C 	 -106.99 	 60.8347 	 -4.21401
| 28> H 	 -110.321 	 61.0056 	 -4.27785
| 29> C 	 -108.258 	 63.0867 	 -3.77177
| 30> H 	 -107.657 	 63.3856 	 -2.93239
| 31> H 	 -109.266 	 63.1513 	 -3.48051
| 32> C 	 -108.107 	 64.111 	 -4.96264
| 33> H 	 -108.127 	 63.6388 	 -5.96892
| 34> H 	 -107.141 	 64.5404 	 -4.9952
| 35> C 	 -109.05 	 65.3238 	 -4.86492
| 36> H 	 -110.114 	 65.0004 	 -4.94293
| 37> H 	 -108.967 	 66.0217 	 -5.72511
| 38> H 	 -108.956 	 65.7885 	 -3.91936
| 39> H 	 -102.216 	 61.3261 	 -3.20718
| 40> H 	 -109.849 	 58.8662 	 -5.07595
| 41> *
| 42>
| 43>                          ****END OF INPUT****

CARTESIAN COORDINATES (ANGSTROEM)
---------------------------------
  S    -104.478000   60.385500   -3.081860
  C    -103.200000   61.389000   -3.572050
  C    -103.611000   62.291900   -4.563390
  C    -105.008000   62.255800   -4.754930
  C    -105.609000   61.218000   -4.094190
  H    -105.619000   62.981200   -5.325900
  C    -102.656000   63.341100   -5.267660
  H    -101.730000   62.817500   -5.276970
  H    -102.534000   64.189700   -4.602630
  C    -102.939000   63.865600   -6.698340
  H    -103.413000   63.104800   -7.344070
  H    -103.604000   64.710800   -6.689900
  C    -101.676000   64.155800   -7.525830
  H    -101.895000   64.713600   -8.470850
  H    -100.854000   64.744500   -7.031590
  H    -101.173000   63.195100   -7.808480
  S    -107.402000   59.135800   -4.464440
  C    -109.041000   59.506200   -4.681220
  C    -109.308000   60.783900   -4.303020
  C    -108.140000   61.617900   -4.083980
  C    -106.990000   60.834700   -4.214010
  H    -110.321000   61.005600   -4.277850
  C    -108.258000   63.086700   -3.771770
  H    -107.657000   63.385600   -2.932390
  H    -109.266000   63.151300   -3.480510
  C    -108.107000   64.111000   -4.962640
  H    -108.127000   63.638800   -5.968920
  H    -107.141000   64.540400   -4.995200
  C    -109.050000   65.323800   -4.864920
  H    -110.114000   65.000400   -4.942930
  H    -108.967000   66.021700   -5.725110
  H    -108.956000   65.788500   -3.919360
  H    -102.216000   61.326100   -3.207180
  H    -109.849000   58.866200   -5.075950

 Total Charge           Charge          ....    0
 Multiplicity           Mult            ....    1
 Number of Electrons    NEL             ....  134
 Basis Dimension        Dim             ....  322

ORBITAL ENERGIES
----------------

  NO   OCC          E(Eh)            E(eV)
   0   2.0000     -88.967078     -2420.9173
   1   2.0000     -88.962568     -2420.7946
   2   2.0000     -10.324342      -280.9396
   3   2.0000     -10.321647      -280.8663
   4   2.0000     -10.309874      -280.5459
   5   2.0000     -10.307257      -280.4747
   6   2.0000     -10.305439      -280.4253
   7   2.0000     -10.303232      -280.3652
   8   2.0000     -10.294065      -280.1157
   9   2.0000     -10.290603      -280.0216
  10   2.0000     -10.290459      -280.0176
  11   2.0000     -10.289873      -280.0017
  12   2.0000     -10.289009      -279.9782
  13   2.0000     -10.288356      -279.9604
  14   2.0000     -10.284718      -279.8614
  15   2.0000     -10.281635      -279.7775
  16   2.0000      -8.082870      -219.9461
  17   2.0000      -8.078267      -219.8208
  18   2.0000      -6.041273      -164.3914
  19   2.0000      -6.037128      -164.2786
  20   2.0000      -6.036738      -164.2680
  21   2.0000      -6.033800      -164.1880
  22   2.0000      -6.032710      -164.1584
  23   2.0000      -6.028939      -164.0558
  24   2.0000      -1.012211       -27.5437
  25   2.0000      -0.989564       -26.9274
  26   2.0000      -0.907828       -24.7033
  27   2.0000      -0.903663       -24.5899
  28   2.0000      -0.872901       -23.7528
  29   2.0000      -0.853659       -23.2292
  30   2.0000      -0.848060       -23.0769
  31   2.0000      -0.815521       -22.1915
  32   2.0000      -0.783911       -21.3313
  33   2.0000      -0.769963       -20.9518
  34   2.0000      -0.713184       -19.4067
  35   2.0000      -0.703740       -19.1497
  36   2.0000      -0.690196       -18.7812
  37   2.0000      -0.660336       -17.9687
  38   2.0000      -0.640368       -17.4253
  39   2.0000      -0.619028       -16.8446
  40   2.0000      -0.595571       -16.2063
  41   2.0000      -0.569768       -15.5042
  42   2.0000      -0.563732       -15.3399
  43   2.0000      -0.557560       -15.1720
  44   2.0000      -0.532406       -14.4875
  45   2.0000      -0.522493       -14.2178
  46   2.0000      -0.513721       -13.9791
  47   2.0000      -0.508460       -13.8359
  48   2.0000      -0.504507       -13.7283
  49   2.0000      -0.502491       -13.6735
  50   2.0000      -0.496555       -13.5119
  51   2.0000      -0.478469       -13.0198
  52   2.0000      -0.472587       -12.8598
  53   2.0000      -0.466315       -12.6891
  54   2.0000      -0.461277       -12.5520
  55   2.0000      -0.449608       -12.2345
  56   2.0000      -0.445065       -12.1108
  57   2.0000      -0.441406       -12.0113
  58   2.0000      -0.431279       -11.7357
  59   2.0000      -0.426863       -11.6155
  60   2.0000      -0.420342       -11.4381
  61   2.0000      -0.416142       -11.3238
  62   2.0000      -0.413869       -11.2619
  63   2.0000      -0.351863        -9.5747
  64   2.0000      -0.331827        -9.0295
  65   2.0000      -0.327663        -8.9162
  66   2.0000      -0.284805        -7.7500
  67   0.0000       0.035484         0.9656
  68   0.0000       0.069035         1.8785
  69   0.0000       0.120907         3.2900
  70   0.0000       0.125795         3.4231
  71   0.0000       0.134674         3.6647

MULLIKEN ATOMIC CHARGES
-----------------------
   0 S :    0.132997
   1 C :   -0.114950
   2 C :   -0.093071
   3 C :    0.007730
   4 C :   -0.150972
   5 H :    0.010411
   6 C :    0.085139
   7 H :    0.012169
   8 H :    0.044929
   9 C :   -0.062815
  10 H :    0.038758
  11 H :    0.030576
  12 C :   -0.112432
  13 H :    0.043689
  14 H :    0.035732
  15 H :    0.041900
  16 S :    0.116489
  17 C :   -0.102324
  18 C :   -0.024710
  19 C :   -0.044954
  20 C :   -0.165673
  21 H :   -0.011525
  22 C :    0.128143
  23 H :    0.038578
  24 H :    0.000846
  25 C :   -0.088667
  26 H :    0.038799
  27 H :    0.028427
  28 C :   -0.061139
  29 H :    0.027715
  30 H :    0.041108
  31 H :    0.034161
  32 H :    0.029071
  33 H :    0.065867
Sum of atomic charges:   -0.0000000

LOEWDIN ATOMIC CHARGES
----------------------
   0 S :    0.440424
   1 C :   -0.213724
   2 C :   -0.058590
   3 C :   -0.068760
   4 C :   -0.203615
   5 H :    0.036658
   6 C :   -0.027506
   7 H :    0.025349
   8 H :    0.034413
   9 C :   -0.046652
  10 H :    0.032655
  11 H :    0.019781
  12 C :   -0.076757
  13 H :    0.031513
  14 H :    0.023804
  15 H :    0.028955
  16 S :    0.414750
  17 C :   -0.207504
  18 C :   -0.070444
  19 C :   -0.050413
  20 C :   -0.192392
  21 H :    0.018826
  22 C :   -0.023907
  23 H :    0.034793
  24 H :    0.027189
  25 C :   -0.043681
  26 H :    0.028686
  27 H :    0.015414
  28 C :   -0.066025
  29 H :    0.025119
  30 H :    0.032117
  31 H :    0.020057
  32 H :    0.018643
  33 H :    0.040824

  Mayer bond orders larger than 0.100000
B(  0-S ,  1-C ) :   1.1599 B(  0-S ,  4-C ) :   1.1633 B(  1-C ,  2-C ) :   1.5808
B(  1-C ,  4-C ) :   0.1020 B(  1-C , 32-H ) :   0.9779 B(  2-C ,  3-C ) :   1.2742
B(  2-C ,  6-C ) :   0.9999 B(  3-C ,  4-C ) :   1.5539 B(  3-C ,  5-H ) :   0.9885
B(  4-C , 20-C ) :   1.0666 B(  6-C ,  7-H ) :   0.9467 B(  6-C ,  8-H ) :   0.9386
B(  6-C ,  9-C ) :   1.0592 B(  9-C , 10-H ) :   0.9608 B(  9-C , 11-H ) :   0.9555
B(  9-C , 12-C ) :   1.0774 B( 12-C , 13-H ) :   0.9742 B( 12-C , 14-H ) :   0.9769
B( 12-C , 15-H ) :   0.9761 B( 16-S , 17-C ) :   1.1525 B( 16-S , 20-C ) :   1.1388
B( 17-C , 18-C ) :   1.6388 B( 17-C , 33-H ) :   0.9597 B( 18-C , 19-C ) :   1.2176
B( 18-C , 21-H ) :   0.9983 B( 19-C , 20-C ) :   1.5764 B( 19-C , 22-C ) :   1.0553
B( 22-C , 23-H ) :   0.9235 B( 22-C , 24-H ) :   0.9340 B( 22-C , 25-C ) :   1.0374
B( 25-C , 26-H ) :   0.9630 B( 25-C , 27-H ) :   0.9455 B( 25-C , 28-C ) :   1.0831
B( 28-C , 29-H ) :   0.9741 B( 28-C , 30-H ) :   0.9737 B( 28-C , 31-H ) :   0.9762

Dispersion correction           -0.013865333
FINAL SINGLE POINT ENERGY     -1339.870946788589

DIPOLE MOMENT
-------------
                                X             Y             Z
Electronic contribution:     -3.50297     -28.13824      13.42152
Nuclear contribution   :      3.38211      28.77263     -13.64940
                        -----------------------------------------
Total Dipole Moment    :     -0.12087       0.63439      -0.22788
                        -----------------------------------------
Magnitude (a.u.)       :      0.68483
Magnitude (Debye)      :      1.74070

Rotational constants in cm-1:     0.016213     0.008963     0.006625
Rotational constants in MHz :   486.065471   268.690264   198.620938

                             ****ORCA TERMINATED NORMALLY****
TOTAL RUN TIME: 0 days 0 hours 0 minutes 20 seconds 146 msec
