                         Program Version 4.2.1 -  RELEASE  -
|  1> ! wB97X-D3 SP def2-SVP
|  2> %pal
|  3> nprocs 24
|  4> end
|  5>
|  6> * xyz 0 1
|  7> S 	 -129.408 	 25.5844 	 -20.709
|  8> C 	 -131.145 	 25.3692 	 -21.1958
|  9> C 	 -131.609 	 26.5555 	 -21.7386
| 10> C 	 -130.618 	 27.5965 	 -21.7245
| 11> C 	 -129.474 	 27.3055 	 -20.959
| 12> H 	 -130.731 	 28.6153 	 -22.0692
| 13> C 	 -132.961 	 26.7171 	 -22.5078
| 14> H 	 -132.766 	 26.1955 	 -23.4313
| 15> H 	 -133.049 	 27.7423 	 -22.8309
| 16> C 	 -134.244 	 26.1765 	 -21.7825
| 17> H 	 -134.237 	 25.0917 	 -21.8093
| 18> H 	 -134.249 	 26.4789 	 -20.7479
| 19> C 	 -135.509 	 26.6292 	 -22.4898
| 20> H 	 -135.688 	 27.7097 	 -22.3776
| 21> H 	 -135.467 	 26.3214 	 -23.5013
| 22> H 	 -136.451 	 26.229 	 -22.0305
| 23> S 	 -127.432 	 27.9118 	 -19.115
| 24> C 	 -126.315 	 29.2414 	 -19.5505
| 25> C 	 -126.755 	 29.8665 	 -20.692
| 26> C 	 -127.853 	 29.243 	 -21.354
| 27> C 	 -128.345 	 28.1035 	 -20.6469
| 28> H 	 -126.246 	 30.7792 	 -21.0108
| 29> C 	 -128.122 	 29.5741 	 -22.8058
| 30> H 	 -128.443 	 30.5802 	 -22.9356
| 31> H 	 -128.917 	 28.9596 	 -23.1442
| 32> C 	 -126.937 	 29.52 	 -23.8502
| 33> H 	 -126.426 	 28.5693 	 -23.8708
| 34> H 	 -126.064 	 30.1336 	 -23.5548
| 35> C 	 -127.234 	 30.0789 	 -25.2529
| 36> H 	 -127.992 	 29.4686 	 -25.7994
| 37> H 	 -126.273 	 30.1148 	 -25.818
| 38> H 	 -127.633 	 31.1335 	 -25.1713
| 39> H 	 -131.528 	 24.4233 	 -21.5566
| 40> H 	 -125.57 	 29.6748 	 -18.867
| 41> *
| 42>
| 43>                          ****END OF INPUT****

CARTESIAN COORDINATES (ANGSTROEM)
---------------------------------
  S    -129.408000   25.584400  -20.709000
  C    -131.145000   25.369200  -21.195800
  C    -131.609000   26.555500  -21.738600
  C    -130.618000   27.596500  -21.724500
  C    -129.474000   27.305500  -20.959000
  H    -130.731000   28.615300  -22.069200
  C    -132.961000   26.717100  -22.507800
  H    -132.766000   26.195500  -23.431300
  H    -133.049000   27.742300  -22.830900
  C    -134.244000   26.176500  -21.782500
  H    -134.237000   25.091700  -21.809300
  H    -134.249000   26.478900  -20.747900
  C    -135.509000   26.629200  -22.489800
  H    -135.688000   27.709700  -22.377600
  H    -135.467000   26.321400  -23.501300
  H    -136.451000   26.229000  -22.030500
  S    -127.432000   27.911800  -19.115000
  C    -126.315000   29.241400  -19.550500
  C    -126.755000   29.866500  -20.692000
  C    -127.853000   29.243000  -21.354000
  C    -128.345000   28.103500  -20.646900
  H    -126.246000   30.779200  -21.010800
  C    -128.122000   29.574100  -22.805800
  H    -128.443000   30.580200  -22.935600
  H    -128.917000   28.959600  -23.144200
  C    -126.937000   29.520000  -23.850200
  H    -126.426000   28.569300  -23.870800
  H    -126.064000   30.133600  -23.554800
  C    -127.234000   30.078900  -25.252900
  H    -127.992000   29.468600  -25.799400
  H    -126.273000   30.114800  -25.818000
  H    -127.633000   31.133500  -25.171300
  H    -131.528000   24.423300  -21.556600
  H    -125.570000   29.674800  -18.867000

 Total Charge           Charge          ....    0
 Multiplicity           Mult            ....    1
 Number of Electrons    NEL             ....  134
 Basis Dimension        Dim             ....  322

ORBITAL ENERGIES
----------------

  NO   OCC          E(Eh)            E(eV)
   0   2.0000     -88.969938     -2420.9951
   1   2.0000     -88.963694     -2420.8252
   2   2.0000     -10.336560      -281.2721
   3   2.0000     -10.333501      -281.1889
   4   2.0000     -10.324011      -280.9306
   5   2.0000     -10.314977      -280.6848
   6   2.0000     -10.309699      -280.5412
   7   2.0000     -10.309605      -280.5386
   8   2.0000     -10.298271      -280.2302
   9   2.0000     -10.297122      -280.1989
  10   2.0000     -10.296660      -280.1864
  11   2.0000     -10.290861      -280.0286
  12   2.0000     -10.290781      -280.0264
  13   2.0000     -10.289366      -279.9879
  14   2.0000     -10.289349      -279.9874
  15   2.0000     -10.279444      -279.7179
  16   2.0000      -8.083167      -219.9542
  17   2.0000      -8.077750      -219.8068
  18   2.0000      -6.041792      -164.4055
  19   2.0000      -6.037923      -164.3002
  20   2.0000      -6.036321      -164.2566
  21   2.0000      -6.033820      -164.1886
  22   2.0000      -6.032485      -164.1523
  23   2.0000      -6.028321      -164.0390
  24   2.0000      -1.002157       -27.2701
  25   2.0000      -0.976121       -26.5616
  26   2.0000      -0.909122       -24.7385
  27   2.0000      -0.903261       -24.5790
  28   2.0000      -0.873892       -23.7798
  29   2.0000      -0.851004       -23.1570
  30   2.0000      -0.841189       -22.8899
  31   2.0000      -0.812547       -22.1105
  32   2.0000      -0.783685       -21.3251
  33   2.0000      -0.770450       -20.9650
  34   2.0000      -0.710203       -19.3256
  35   2.0000      -0.705122       -19.1874
  36   2.0000      -0.697836       -18.9891
  37   2.0000      -0.658002       -17.9051
  38   2.0000      -0.635776       -17.3004
  39   2.0000      -0.614439       -16.7197
  40   2.0000      -0.595756       -16.2114
  41   2.0000      -0.568823       -15.4785
  42   2.0000      -0.564077       -15.3493
  43   2.0000      -0.560313       -15.2469
  44   2.0000      -0.528551       -14.3826
  45   2.0000      -0.525330       -14.2950
  46   2.0000      -0.520377       -14.1602
  47   2.0000      -0.511727       -13.9248
  48   2.0000      -0.502357       -13.6698
  49   2.0000      -0.495837       -13.4924
  50   2.0000      -0.494808       -13.4644
  51   2.0000      -0.478932       -13.0324
  52   2.0000      -0.470285       -12.7971
  53   2.0000      -0.462781       -12.5929
  54   2.0000      -0.456008       -12.4086
  55   2.0000      -0.450362       -12.2550
  56   2.0000      -0.447548       -12.1784
  57   2.0000      -0.436935       -11.8896
  58   2.0000      -0.431499       -11.7417
  59   2.0000      -0.427316       -11.6279
  60   2.0000      -0.419054       -11.4030
  61   2.0000      -0.416546       -11.3348
  62   2.0000      -0.411134       -11.1875
  63   2.0000      -0.357451        -9.7267
  64   2.0000      -0.332195        -9.0395
  65   2.0000      -0.327850        -8.9213
  66   2.0000      -0.282809        -7.6956
  67   0.0000       0.008728         0.2375
  68   0.0000       0.072010         1.9595
  69   0.0000       0.098413         2.6780
  70   0.0000       0.110612         3.0099
  71   0.0000       0.137272         3.7353

MULLIKEN ATOMIC CHARGES
-----------------------
   0 S :    0.080384
   1 C :   -0.102313
   2 C :   -0.113728
   3 C :    0.015231
   4 C :   -0.146607
   5 H :    0.019358
   6 C :    0.056295
   7 H :    0.036739
   8 H :    0.013919
   9 C :   -0.054519
  10 H :    0.029127
  11 H :    0.038361
  12 C :   -0.058468
  13 H :    0.034625
  14 H :    0.028073
  15 H :    0.035100
  16 S :    0.103360
  17 C :   -0.101855
  18 C :   -0.039148
  19 C :   -0.039374
  20 C :   -0.124498
  21 H :    0.029017
  22 C :    0.106181
  23 H :    0.009194
  24 H :    0.009383
  25 C :   -0.086200
  26 H :    0.029380
  27 H :    0.018556
  28 C :   -0.091739
  29 H :    0.044150
  30 H :    0.049422
  31 H :    0.038846
  32 H :    0.060880
  33 H :    0.072870
Sum of atomic charges:   -0.0000000

LOEWDIN ATOMIC CHARGES
----------------------
   0 S :    0.385580
   1 C :   -0.195233
   2 C :   -0.051656
   3 C :   -0.072865
   4 C :   -0.184624
   5 H :    0.027273
   6 C :   -0.026722
   7 H :    0.033300
   8 H :    0.025365
   9 C :   -0.035269
  10 H :    0.023948
  11 H :    0.025921
  12 C :   -0.067059
  13 H :    0.026647
  14 H :    0.019330
  15 H :    0.031837
  16 S :    0.378254
  17 C :   -0.177475
  18 C :   -0.066919
  19 C :   -0.054219
  20 C :   -0.187366
  21 H :    0.035104
  22 C :   -0.029293
  23 H :    0.027397
  24 H :    0.023548
  25 C :   -0.045755
  26 H :    0.022291
  27 H :    0.024230
  28 C :   -0.071962
  29 H :    0.025048
  30 H :    0.034825
  31 H :    0.028947
  32 H :    0.029715
  33 H :    0.037858

  Mayer bond orders larger than 0.100000
B(  0-S ,  1-C ) :   1.1100 B(  0-S ,  4-C ) :   1.1594 B(  1-C ,  2-C ) :   1.6150
B(  1-C ,  4-C ) :   0.1041 B(  1-C , 32-H ) :   0.9641 B(  2-C ,  3-C ) :   1.2663
B(  2-C ,  6-C ) :   1.0091 B(  3-C ,  4-C ) :   1.5403 B(  3-C ,  5-H ) :   0.9797
B(  4-C , 20-C ) :   1.1047 B(  6-C ,  7-H ) :   0.9338 B(  6-C ,  8-H ) :   0.9511
B(  6-C ,  9-C ) :   1.0521 B(  9-C , 10-H ) :   0.9512 B(  9-C , 11-H ) :   0.9638
B(  9-C , 12-C ) :   1.0933 B( 12-C , 13-H ) :   0.9759 B( 12-C , 14-H ) :   0.9741
B( 12-C , 15-H ) :   0.9725 B( 16-S , 17-C ) :   1.1289 B( 16-S , 20-C ) :   1.1308
B( 17-C , 18-C ) :   1.6247 B( 17-C , 20-C ) :   0.1002 B( 17-C , 33-H ) :   0.9628
B( 18-C , 19-C ) :   1.2450 B( 18-C , 21-H ) :   0.9840 B( 19-C , 20-C ) :   1.5462
B( 19-C , 22-C ) :   1.0633 B( 22-C , 23-H ) :   0.9218 B( 22-C , 24-H ) :   0.9349
B( 22-C , 25-C ) :   1.0490 B( 25-C , 26-H ) :   0.9555 B( 25-C , 27-H ) :   0.9512
B( 25-C , 28-C ) :   1.0804 B( 28-C , 29-H ) :   0.9776 B( 28-C , 30-H ) :   0.9734
B( 28-C , 31-H ) :   0.9718

Dispersion correction           -0.013200039
FINAL SINGLE POINT ENERGY     -1339.864317711387

DIPOLE MOMENT
-------------
                                X             Y             Z
Electronic contribution:     15.76175      -8.67451      22.25325
Nuclear contribution   :    -15.95234       9.15962     -22.93299
                        -----------------------------------------
Total Dipole Moment    :     -0.19059       0.48511      -0.67974
                        -----------------------------------------
Magnitude (a.u.)       :      0.85656
Magnitude (Debye)      :      2.17721

Rotational constants in cm-1:     0.018405     0.007397     0.005869
Rotational constants in MHz :   551.781520   221.758815   175.958875

                             ****ORCA TERMINATED NORMALLY****
TOTAL RUN TIME: 0 days 0 hours 0 minutes 20 seconds 653 msec
