                         Program Version 4.2.1 -  RELEASE  -
|  1> ! wB97X-D3 SP def2-SVP
|  2> %pal
|  3> nprocs 24
|  4> end
|  5>
|  6> * xyz 0 1
|  7> S 	 -63.7066 	 14.1975 	 -122.734
|  8> C 	 -62.4524 	 13.5227 	 -123.867
|  9> C 	 -62.9639 	 12.4563 	 -124.533
| 10> C 	 -64.3434 	 12.2124 	 -124.206
| 11> C 	 -64.8885 	 12.9063 	 -123.178
| 12> H 	 -64.9276 	 11.491 	 -124.772
| 13> C 	 -62.2265 	 11.8598 	 -125.663
| 14> H 	 -61.9918 	 12.7023 	 -126.303
| 15> H 	 -62.8338 	 11.1969 	 -126.253
| 16> C 	 -60.9547 	 11.1213 	 -125.144
| 17> H 	 -60.3857 	 11.8579 	 -124.546
| 18> H 	 -61.1651 	 10.3553 	 -124.442
| 19> C 	 -60.111 	 10.7113 	 -126.364
| 20> H 	 -59.7502 	 11.6874 	 -126.868
| 21> H 	 -59.1311 	 10.2851 	 -126.188
| 22> H 	 -60.7068 	 9.945 	 -127.054
| 23> S 	 -67.4631 	 13.7059 	 -123.437
| 24> C 	 -68.6648 	 13.1696 	 -122.268
| 25> C 	 -68.1404 	 12.2748 	 -121.323
| 26> C 	 -66.7273 	 12.1147 	 -121.524
| 27> C 	 -66.2235 	 12.8262 	 -122.614
| 28> H 	 -68.6747 	 11.9281 	 -120.528
| 29> C 	 -65.8916 	 11.3477 	 -120.48
| 30> H 	 -64.962 	 10.9917 	 -120.991
| 31> H 	 -66.4297 	 10.4632 	 -120.099
| 32> C 	 -65.5041 	 12.2455 	 -119.301
| 33> H 	 -66.4391 	 12.7426 	 -118.982
| 34> H 	 -64.8396 	 13.0233 	 -119.615
| 35> C 	 -64.8775 	 11.4806 	 -118.113
| 36> H 	 -63.8336 	 11.2858 	 -118.142
| 37> H 	 -65.2585 	 10.4839 	 -117.9
| 38> H 	 -65.052 	 12.2393 	 -117.27
| 39> H 	 -61.4633 	 13.9271 	 -124.118
| 40> H 	 -69.6865 	 13.4653 	 -122.277
| 41> *
| 42>
| 43>                          ****END OF INPUT****

CARTESIAN COORDINATES (ANGSTROEM)
---------------------------------
  S    -63.706600   14.197500  -122.734000
  C    -62.452400   13.522700  -123.867000
  C    -62.963900   12.456300  -124.533000
  C    -64.343400   12.212400  -124.206000
  C    -64.888500   12.906300  -123.178000
  H    -64.927600   11.491000  -124.772000
  C    -62.226500   11.859800  -125.663000
  H    -61.991800   12.702300  -126.303000
  H    -62.833800   11.196900  -126.253000
  C    -60.954700   11.121300  -125.144000
  H    -60.385700   11.857900  -124.546000
  H    -61.165100   10.355300  -124.442000
  C    -60.111000   10.711300  -126.364000
  H    -59.750200   11.687400  -126.868000
  H    -59.131100   10.285100  -126.188000
  H    -60.706800    9.945000  -127.054000
  S    -67.463100   13.705900  -123.437000
  C    -68.664800   13.169600  -122.268000
  C    -68.140400   12.274800  -121.323000
  C    -66.727300   12.114700  -121.524000
  C    -66.223500   12.826200  -122.614000
  H    -68.674700   11.928100  -120.528000
  C    -65.891600   11.347700  -120.480000
  H    -64.962000   10.991700  -120.991000
  H    -66.429700   10.463200  -120.099000
  C    -65.504100   12.245500  -119.301000
  H    -66.439100   12.742600  -118.982000
  H    -64.839600   13.023300  -119.615000
  C    -64.877500   11.480600  -118.113000
  H    -63.833600   11.285800  -118.142000
  H    -65.258500   10.483900  -117.900000
  H    -65.052000   12.239300  -117.270000
  H    -61.463300   13.927100  -124.118000
  H    -69.686500   13.465300  -122.277000

 Total Charge           Charge          ....    0
 Multiplicity           Mult            ....    1
 Number of Electrons    NEL             ....  134
 Basis Dimension        Dim             ....  322

ORBITAL ENERGIES
----------------

  NO   OCC          E(Eh)            E(eV)
   0   2.0000     -88.968380     -2420.9527
   1   2.0000     -88.962092     -2420.7816
   2   2.0000     -10.330698      -281.1126
   3   2.0000     -10.324506      -280.9441
   4   2.0000     -10.320303      -280.8297
   5   2.0000     -10.317273      -280.7473
   6   2.0000     -10.306070      -280.4424
   7   2.0000     -10.295935      -280.1666
   8   2.0000     -10.294446      -280.1261
   9   2.0000     -10.293775      -280.1079
  10   2.0000     -10.292033      -280.0604
  11   2.0000     -10.291694      -280.0512
  12   2.0000     -10.290919      -280.0301
  13   2.0000     -10.289349      -279.9874
  14   2.0000     -10.282881      -279.8114
  15   2.0000     -10.277922      -279.6765
  16   2.0000      -8.083196      -219.9550
  17   2.0000      -8.074948      -219.7305
  18   2.0000      -6.041688      -164.4027
  19   2.0000      -6.037590      -164.2912
  20   2.0000      -6.034079      -164.1956
  21   2.0000      -6.033772      -164.1873
  22   2.0000      -6.029792      -164.0790
  23   2.0000      -6.025390      -163.9592
  24   2.0000      -1.002946       -27.2915
  25   2.0000      -0.980457       -26.6796
  26   2.0000      -0.914856       -24.8945
  27   2.0000      -0.903651       -24.5896
  28   2.0000      -0.868836       -23.6422
  29   2.0000      -0.847009       -23.0483
  30   2.0000      -0.838828       -22.8257
  31   2.0000      -0.816496       -22.2180
  32   2.0000      -0.777499       -21.1568
  33   2.0000      -0.765193       -20.8220
  34   2.0000      -0.708532       -19.2801
  35   2.0000      -0.703713       -19.1490
  36   2.0000      -0.692265       -18.8375
  37   2.0000      -0.671423       -18.2704
  38   2.0000      -0.636817       -17.3287
  39   2.0000      -0.617266       -16.7967
  40   2.0000      -0.593360       -16.1462
  41   2.0000      -0.576767       -15.6946
  42   2.0000      -0.562428       -15.3044
  43   2.0000      -0.556286       -15.1373
  44   2.0000      -0.526774       -14.3343
  45   2.0000      -0.520867       -14.1735
  46   2.0000      -0.519341       -14.1320
  47   2.0000      -0.511695       -13.9239
  48   2.0000      -0.503979       -13.7140
  49   2.0000      -0.501450       -13.6451
  50   2.0000      -0.498537       -13.5659
  51   2.0000      -0.474449       -12.9104
  52   2.0000      -0.467942       -12.7334
  53   2.0000      -0.458344       -12.4722
  54   2.0000      -0.455010       -12.3815
  55   2.0000      -0.445714       -12.1285
  56   2.0000      -0.445208       -12.1147
  57   2.0000      -0.435764       -11.8577
  58   2.0000      -0.431202       -11.7336
  59   2.0000      -0.422149       -11.4873
  60   2.0000      -0.419036       -11.4026
  61   2.0000      -0.414158       -11.2698
  62   2.0000      -0.409618       -11.1463
  63   2.0000      -0.336627        -9.1601
  64   2.0000      -0.327479        -8.9112
  65   2.0000      -0.318345        -8.6626
  66   2.0000      -0.313027        -8.5179
  67   0.0000       0.044640         1.2147
  68   0.0000       0.046825         1.2742
  69   0.0000       0.108858         2.9622
  70   0.0000       0.117422         3.1952
  71   0.0000       0.122380         3.3301

MULLIKEN ATOMIC CHARGES
-----------------------
   0 S :    0.083462
   1 C :   -0.130392
   2 C :   -0.085188
   3 C :    0.051616
   4 C :   -0.151134
   5 H :    0.010127
   6 C :    0.066516
   7 H :    0.037274
   8 H :    0.012483
   9 C :   -0.065712
  10 H :    0.022014
  11 H :    0.030364
  12 C :   -0.085539
  13 H :    0.037471
  14 H :    0.031960
  15 H :    0.055615
  16 S :    0.128660
  17 C :   -0.086195
  18 C :    0.006288
  19 C :   -0.023789
  20 C :   -0.190291
  21 H :   -0.012544
  22 C :    0.053891
  23 H :    0.036437
  24 H :    0.023727
  25 C :   -0.062982
  26 H :    0.024928
  27 H :    0.028017
  28 C :   -0.051474
  29 H :    0.027800
  30 H :    0.026148
  31 H :    0.044575
  32 H :    0.056194
  33 H :    0.049671
Sum of atomic charges:    0.0000000

LOEWDIN ATOMIC CHARGES
----------------------
   0 S :    0.346848
   1 C :   -0.172773
   2 C :   -0.071262
   3 C :   -0.055565
   4 C :   -0.182373
   5 H :    0.031133
   6 C :   -0.026511
   7 H :    0.035242
   8 H :    0.024373
   9 C :   -0.035406
  10 H :    0.024250
  11 H :    0.021100
  12 C :   -0.084029
  13 H :    0.035878
  14 H :    0.019691
  15 H :    0.038887
  16 S :    0.424389
  17 C :   -0.171359
  18 C :   -0.057260
  19 C :   -0.043488
  20 C :   -0.220808
  21 H :    0.016410
  22 C :   -0.034924
  23 H :    0.033671
  24 H :    0.028405
  25 C :   -0.038631
  26 H :    0.023851
  27 H :    0.023119
  28 C :   -0.071527
  29 H :    0.019895
  30 H :    0.022394
  31 H :    0.040401
  32 H :    0.033741
  33 H :    0.022239

  Mayer bond orders larger than 0.100000
B(  0-S ,  1-C ) :   1.1150 B(  0-S ,  4-C ) :   1.1075 B(  1-C ,  2-C ) :   1.6450
B(  1-C , 32-H ) :   0.9605 B(  2-C ,  3-C ) :   1.2204 B(  2-C ,  6-C ) :   1.0144
B(  3-C ,  4-C ) :   1.6316 B(  3-C ,  5-H ) :   0.9932 B(  4-C , 20-C ) :   1.0121
B(  6-C ,  7-H ) :   0.9459 B(  6-C ,  8-H ) :   0.9441 B(  6-C ,  9-C ) :   1.0431
B(  9-C , 10-H ) :   0.9584 B(  9-C , 11-H ) :   0.9600 B(  9-C , 12-C ) :   1.0716
B( 12-C , 13-H ) :   0.9721 B( 12-C , 14-H ) :   0.9742 B( 12-C , 15-H ) :   0.9713
B( 16-S , 17-C ) :   1.1692 B( 16-S , 20-C ) :   1.1538 B( 17-C , 18-C ) :   1.5862
B( 17-C , 20-C ) :   0.1028 B( 17-C , 33-H ) :   0.9709 B( 18-C , 19-C ) :   1.2510
B( 18-C , 21-H ) :   1.0027 B( 19-C , 20-C ) :   1.5961 B( 19-C , 22-C ) :   1.0521
B( 22-C , 23-H ) :   0.9295 B( 22-C , 24-H ) :   0.9377 B( 22-C , 25-C ) :   1.0698
B( 25-C , 26-H ) :   0.9630 B( 25-C , 27-H ) :   0.9478 B( 25-C , 28-C ) :   1.0669
B( 28-C , 29-H ) :   0.9767 B( 28-C , 30-H ) :   0.9762 B( 28-C , 31-H ) :   0.9770

Dispersion correction           -0.013868015
FINAL SINGLE POINT ENERGY     -1339.865757278432

DIPOLE MOMENT
-------------
                                X             Y             Z
Electronic contribution:    -17.09539      15.10635      -4.32903
Nuclear contribution   :     17.24406     -15.49938       4.27172
                        -----------------------------------------
Total Dipole Moment    :      0.14866      -0.39303      -0.05731
                        -----------------------------------------
Magnitude (a.u.)       :      0.42410
Magnitude (Debye)      :      1.07796

Rotational constants in cm-1:     0.019997     0.007414     0.006287
Rotational constants in MHz :   599.499465   222.251400   188.464748

                             ****ORCA TERMINATED NORMALLY****
TOTAL RUN TIME: 0 days 0 hours 0 minutes 20 seconds 974 msec
