                         Program Version 4.2.1 -  RELEASE  -
|  1> ! wB97X-D3 SP def2-SVP
|  2> %pal
|  3> nprocs 24
|  4> end
|  5>
|  6> * xyz 0 1
|  7> S 	 -61.6548 	 17.7689 	 -105.805
|  8> C 	 -63.0161 	 17.7589 	 -104.679
|  9> C 	 -62.9916 	 16.7297 	 -103.789
| 10> C 	 -61.7891 	 16.0266 	 -103.933
| 11> C 	 -60.925 	 16.4734 	 -104.962
| 12> H 	 -61.3462 	 15.3701 	 -103.166
| 13> C 	 -64.0637 	 16.54 	 -102.732
| 14> H 	 -64.7605 	 17.343 	 -102.865
| 15> H 	 -63.6607 	 16.4764 	 -101.755
| 16> C 	 -64.8646 	 15.2301 	 -102.818
| 17> H 	 -65.4975 	 15.4069 	 -103.68
| 18> H 	 -64.2453 	 14.3965 	 -103.056
| 19> C 	 -65.7436 	 14.9666 	 -101.532
| 20> H 	 -66.5539 	 15.6949 	 -101.413
| 21> H 	 -66.2039 	 13.9904 	 -101.644
| 22> H 	 -65.1369 	 15.0169 	 -100.566
| 23> S 	 -58.6648 	 17.0372 	 -106.536
| 24> C 	 -57.3467 	 15.8801 	 -106.514
| 25> C 	 -57.6007 	 14.7471 	 -105.788
| 26> C 	 -58.8374 	 14.8691 	 -105.076
| 27> C 	 -59.5588 	 16.0376 	 -105.329
| 28> H 	 -56.8253 	 13.9205 	 -105.763
| 29> C 	 -59.291 	 13.6765 	 -104.223
| 30> H 	 -58.8274 	 12.7666 	 -104.545
| 31> H 	 -60.3777 	 13.5796 	 -104.346
| 32> C 	 -58.9063 	 13.8811 	 -102.712
| 33> H 	 -59.3221 	 14.8892 	 -102.354
| 34> H 	 -57.7892 	 13.9717 	 -102.533
| 35> C 	 -59.6367 	 12.8642 	 -101.822
| 36> H 	 -60.6983 	 13.1968 	 -101.876
| 37> H 	 -59.405 	 12.9301 	 -100.714
| 38> H 	 -59.6568 	 11.8357 	 -102.108
| 39> H 	 -63.8715 	 18.4134 	 -104.823
| 40> H 	 -56.4445 	 16.0931 	 -107.069
| 41> *
| 42>
| 43>                          ****END OF INPUT****

CARTESIAN COORDINATES (ANGSTROEM)
---------------------------------
  S    -61.654800   17.768900  -105.805000
  C    -63.016100   17.758900  -104.679000
  C    -62.991600   16.729700  -103.789000
  C    -61.789100   16.026600  -103.933000
  C    -60.925000   16.473400  -104.962000
  H    -61.346200   15.370100  -103.166000
  C    -64.063700   16.540000  -102.732000
  H    -64.760500   17.343000  -102.865000
  H    -63.660700   16.476400  -101.755000
  C    -64.864600   15.230100  -102.818000
  H    -65.497500   15.406900  -103.680000
  H    -64.245300   14.396500  -103.056000
  C    -65.743600   14.966600  -101.532000
  H    -66.553900   15.694900  -101.413000
  H    -66.203900   13.990400  -101.644000
  H    -65.136900   15.016900  -100.566000
  S    -58.664800   17.037200  -106.536000
  C    -57.346700   15.880100  -106.514000
  C    -57.600700   14.747100  -105.788000
  C    -58.837400   14.869100  -105.076000
  C    -59.558800   16.037600  -105.329000
  H    -56.825300   13.920500  -105.763000
  C    -59.291000   13.676500  -104.223000
  H    -58.827400   12.766600  -104.545000
  H    -60.377700   13.579600  -104.346000
  C    -58.906300   13.881100  -102.712000
  H    -59.322100   14.889200  -102.354000
  H    -57.789200   13.971700  -102.533000
  C    -59.636700   12.864200  -101.822000
  H    -60.698300   13.196800  -101.876000
  H    -59.405000   12.930100  -100.714000
  H    -59.656800   11.835700  -102.108000
  H    -63.871500   18.413400  -104.823000
  H    -56.444500   16.093100  -107.069000

 Total Charge           Charge          ....    0
 Multiplicity           Mult            ....    1
 Number of Electrons    NEL             ....  134
 Basis Dimension        Dim             ....  322

ORBITAL ENERGIES
----------------

  NO   OCC          E(Eh)            E(eV)
   0   2.0000     -88.967933     -2420.9405
   1   2.0000     -88.966928     -2420.9132
   2   2.0000     -10.336184      -281.2619
   3   2.0000     -10.334947      -281.2282
   4   2.0000     -10.319704      -280.8134
   5   2.0000     -10.311909      -280.6013
   6   2.0000     -10.309262      -280.5293
   7   2.0000     -10.301485      -280.3176
   8   2.0000     -10.301305      -280.3127
   9   2.0000     -10.299238      -280.2565
  10   2.0000     -10.296440      -280.1804
  11   2.0000     -10.295337      -280.1504
  12   2.0000     -10.289365      -279.9879
  13   2.0000     -10.289072      -279.9799
  14   2.0000     -10.286139      -279.9001
  15   2.0000     -10.284435      -279.8537
  16   2.0000      -8.083201      -219.9551
  17   2.0000      -8.080991      -219.8949
  18   2.0000      -6.041583      -164.3998
  19   2.0000      -6.039594      -164.3457
  20   2.0000      -6.037686      -164.2938
  21   2.0000      -6.035725      -164.2404
  22   2.0000      -6.034028      -164.1942
  23   2.0000      -6.031586      -164.1278
  24   2.0000      -1.008198       -27.4345
  25   2.0000      -0.984664       -26.7941
  26   2.0000      -0.914999       -24.8984
  27   2.0000      -0.904533       -24.6136
  28   2.0000      -0.869299       -23.6548
  29   2.0000      -0.850405       -23.1407
  30   2.0000      -0.842746       -22.9323
  31   2.0000      -0.812849       -22.1187
  32   2.0000      -0.784294       -21.3417
  33   2.0000      -0.772190       -21.0123
  34   2.0000      -0.707573       -19.2540
  35   2.0000      -0.697747       -18.9867
  36   2.0000      -0.691002       -18.8031
  37   2.0000      -0.663729       -18.0610
  38   2.0000      -0.638836       -17.3836
  39   2.0000      -0.621485       -16.9115
  40   2.0000      -0.595039       -16.1918
  41   2.0000      -0.577592       -15.7171
  42   2.0000      -0.565229       -15.3807
  43   2.0000      -0.558490       -15.1973
  44   2.0000      -0.525283       -14.2937
  45   2.0000      -0.521897       -14.2015
  46   2.0000      -0.515141       -14.0177
  47   2.0000      -0.509700       -13.8696
  48   2.0000      -0.498960       -13.5774
  49   2.0000      -0.495394       -13.4803
  50   2.0000      -0.494496       -13.4559
  51   2.0000      -0.485105       -13.2004
  52   2.0000      -0.468058       -12.7365
  53   2.0000      -0.465821       -12.6756
  54   2.0000      -0.462484       -12.5848
  55   2.0000      -0.456250       -12.4152
  56   2.0000      -0.439354       -11.9554
  57   2.0000      -0.438073       -11.9206
  58   2.0000      -0.433553       -11.7976
  59   2.0000      -0.427308       -11.6277
  60   2.0000      -0.424151       -11.5417
  61   2.0000      -0.417723       -11.3668
  62   2.0000      -0.415370       -11.3028
  63   2.0000      -0.361491        -9.8367
  64   2.0000      -0.337656        -9.1881
  65   2.0000      -0.331357        -9.0167
  66   2.0000      -0.281139        -7.6502
  67   0.0000       0.017523         0.4768
  68   0.0000       0.078992         2.1495
  69   0.0000       0.096303         2.6205
  70   0.0000       0.116899         3.1810
  71   0.0000       0.129645         3.5278

MULLIKEN ATOMIC CHARGES
-----------------------
   0 S :    0.099738
   1 C :   -0.139911
   2 C :   -0.059283
   3 C :   -0.009616
   4 C :   -0.124367
   5 H :    0.001429
   6 C :    0.122606
   7 H :    0.010938
   8 H :    0.014913
   9 C :   -0.092934
  10 H :    0.024289
  11 H :    0.030324
  12 C :   -0.068701
  13 H :    0.035061
  14 H :    0.041856
  15 H :    0.042774
  16 S :    0.079428
  17 C :   -0.089038
  18 C :   -0.033774
  19 C :   -0.075230
  20 C :   -0.096393
  21 H :    0.047147
  22 C :    0.064919
  23 H :    0.019139
  24 H :    0.032977
  25 C :   -0.116261
  26 H :    0.042802
  27 H :    0.044501
  28 C :   -0.051325
  29 H :    0.021585
  30 H :    0.046486
  31 H :    0.031169
  32 H :    0.045345
  33 H :    0.057410
Sum of atomic charges:    0.0000000

LOEWDIN ATOMIC CHARGES
----------------------
   0 S :    0.413481
   1 C :   -0.190215
   2 C :   -0.062414
   3 C :   -0.081697
   4 C :   -0.192790
   5 H :    0.029362
   6 C :   -0.018498
   7 H :    0.027852
   8 H :    0.024427
   9 C :   -0.035855
  10 H :    0.023742
  11 H :    0.018207
  12 C :   -0.069734
  13 H :    0.025185
  14 H :    0.027741
  15 H :    0.031140
  16 S :    0.370981
  17 C :   -0.170567
  18 C :   -0.079566
  19 C :   -0.050912
  20 C :   -0.181521
  21 H :    0.047462
  22 C :   -0.025462
  23 H :    0.026266
  24 H :    0.030781
  25 C :   -0.047902
  26 H :    0.029094
  27 H :    0.028726
  28 C :   -0.077031
  29 H :    0.026518
  30 H :    0.034076
  31 H :    0.017659
  32 H :    0.024757
  33 H :    0.026708

  Mayer bond orders larger than 0.100000
B(  0-S ,  1-C ) :   1.1358 B(  0-S ,  4-C ) :   1.1675 B(  1-C ,  2-C ) :   1.6148
B(  1-C , 32-H ) :   0.9622 B(  2-C ,  3-C ) :   1.2639 B(  2-C ,  6-C ) :   1.0305
B(  3-C ,  4-C ) :   1.5455 B(  3-C ,  5-H ) :   0.9784 B(  4-C , 20-C ) :   1.0798
B(  6-C ,  7-H ) :   0.9407 B(  6-C ,  8-H ) :   0.9386 B(  6-C ,  9-C ) :   1.0492
B(  9-C , 10-H ) :   0.9554 B(  9-C , 11-H ) :   0.9645 B(  9-C , 12-C ) :   1.0750
B( 12-C , 13-H ) :   0.9762 B( 12-C , 14-H ) :   0.9755 B( 12-C , 15-H ) :   0.9750
B( 16-S , 17-C ) :   1.1543 B( 16-S , 20-C ) :   1.1114 B( 17-C , 18-C ) :   1.6229
B( 17-C , 33-H ) :   0.9660 B( 18-C , 19-C ) :   1.2339 B( 18-C , 21-H ) :   0.9812
B( 19-C , 20-C ) :   1.6034 B( 19-C , 22-C ) :   1.0401 B( 22-C , 23-H ) :   0.9370
B( 22-C , 24-H ) :   0.9378 B( 22-C , 25-C ) :   1.0463 B( 25-C , 26-H ) :   0.9587
B( 25-C , 27-H ) :   0.9566 B( 25-C , 28-C ) :   1.0618 B( 28-C , 29-H ) :   0.9749
B( 28-C , 30-H ) :   0.9731 B( 28-C , 31-H ) :   0.9756

Dispersion correction           -0.013918525
FINAL SINGLE POINT ENERGY     -1339.880850103347

DIPOLE MOMENT
-------------
                                X             Y             Z
Electronic contribution:     14.09343      18.69369     -24.43633
Nuclear contribution   :    -14.19529     -19.17814      24.83284
                        -----------------------------------------
Total Dipole Moment    :     -0.10186      -0.48445       0.39651
                        -----------------------------------------
Magnitude (a.u.)       :      0.63426
Magnitude (Debye)      :      1.61217

Rotational constants in cm-1:     0.018369     0.008921     0.006198
Rotational constants in MHz :   550.693402   267.437804   185.805278

                             ****ORCA TERMINATED NORMALLY****
TOTAL RUN TIME: 0 days 0 hours 0 minutes 21 seconds 430 msec
