                         Program Version 4.2.1 -  RELEASE  -
|  1> ! wB97X-D3 SP def2-SVP
|  2> %pal
|  3> nprocs 24
|  4> end
|  5>
|  6> * xyz 0 1
|  7> S 	 -39.108 	 -6.19654 	 8.74252
|  8> C 	 -39.8919 	 -7.14949 	 10.0031
|  9> C 	 -39.5043 	 -8.48955 	 9.9335
| 10> C 	 -38.8778 	 -8.77892 	 8.69501
| 11> C 	 -38.6676 	 -7.65852 	 7.93312
| 12> H 	 -38.5685 	 -9.76945 	 8.2845
| 13> C 	 -39.7924 	 -9.57061 	 10.9194
| 14> H 	 -40.6284 	 -10.1776 	 10.466
| 15> H 	 -40.3082 	 -9.09807 	 11.751
| 16> C 	 -38.6804 	 -10.5193 	 11.2743
| 17> H 	 -38.606 	 -11.0634 	 10.3391
| 18> H 	 -37.7713 	 -9.96525 	 11.6245
| 19> C 	 -39.0885 	 -11.5954 	 12.2998
| 20> H 	 -39.5248 	 -11.198 	 13.1551
| 21> H 	 -39.9336 	 -12.1872 	 12.0145
| 22> H 	 -38.3485 	 -12.2389 	 12.7301
| 23> S 	 -36.4651 	 -7.21504 	 6.34817
| 24> C 	 -36.467 	 -7.56952 	 4.63391
| 25> C 	 -37.7522 	 -7.91342 	 4.22717
| 26> C 	 -38.6358 	 -8.23707 	 5.36074
| 27> C 	 -38.0984 	 -7.71953 	 6.56402
| 28> H 	 -37.9496 	 -8.14878 	 3.21975
| 29> C 	 -40.0591 	 -8.71406 	 5.15014
| 30> H 	 -40.4114 	 -9.14765 	 6.05836
| 31> H 	 -40.0438 	 -9.45983 	 4.35309
| 32> C 	 -41.0545 	 -7.64049 	 4.86752
| 33> H 	 -40.6662 	 -7.1036 	 3.9821
| 34> H 	 -40.8839 	 -6.90595 	 5.66473
| 35> C 	 -42.5306 	 -8.13876 	 4.71507
| 36> H 	 -42.8373 	 -8.58207 	 5.68988
| 37> H 	 -42.6945 	 -8.933 	 3.93764
| 38> H 	 -43.2203 	 -7.34363 	 4.60232
| 39> H 	 -40.3662 	 -6.84924 	 10.9229
| 40> H 	 -35.6995 	 -7.44607 	 3.97804
| 41> *
| 42>
| 43>                          ****END OF INPUT****

CARTESIAN COORDINATES (ANGSTROEM)
---------------------------------
  S    -39.108000   -6.196540    8.742520
  C    -39.891900   -7.149490   10.003100
  C    -39.504300   -8.489550    9.933500
  C    -38.877800   -8.778920    8.695010
  C    -38.667600   -7.658520    7.933120
  H    -38.568500   -9.769450    8.284500
  C    -39.792400   -9.570610   10.919400
  H    -40.628400  -10.177600   10.466000
  H    -40.308200   -9.098070   11.751000
  C    -38.680400  -10.519300   11.274300
  H    -38.606000  -11.063400   10.339100
  H    -37.771300   -9.965250   11.624500
  C    -39.088500  -11.595400   12.299800
  H    -39.524800  -11.198000   13.155100
  H    -39.933600  -12.187200   12.014500
  H    -38.348500  -12.238900   12.730100
  S    -36.465100   -7.215040    6.348170
  C    -36.467000   -7.569520    4.633910
  C    -37.752200   -7.913420    4.227170
  C    -38.635800   -8.237070    5.360740
  C    -38.098400   -7.719530    6.564020
  H    -37.949600   -8.148780    3.219750
  C    -40.059100   -8.714060    5.150140
  H    -40.411400   -9.147650    6.058360
  H    -40.043800   -9.459830    4.353090
  C    -41.054500   -7.640490    4.867520
  H    -40.666200   -7.103600    3.982100
  H    -40.883900   -6.905950    5.664730
  C    -42.530600   -8.138760    4.715070
  H    -42.837300   -8.582070    5.689880
  H    -42.694500   -8.933000    3.937640
  H    -43.220300   -7.343630    4.602320
  H    -40.366200   -6.849240   10.922900
  H    -35.699500   -7.446070    3.978040

 Total Charge           Charge          ....    0
 Multiplicity           Mult            ....    1
 Number of Electrons    NEL             ....  134
 Basis Dimension        Dim             ....  322

ORBITAL ENERGIES
----------------

  NO   OCC          E(Eh)            E(eV)
   0   2.0000     -88.973058     -2421.0800
   1   2.0000     -88.964450     -2420.8458
   2   2.0000     -10.327955      -281.0379
   3   2.0000     -10.327830      -281.0345
   4   2.0000     -10.315025      -280.6861
   5   2.0000     -10.311955      -280.6026
   6   2.0000     -10.307694      -280.4866
   7   2.0000     -10.301142      -280.3083
   8   2.0000     -10.294760      -280.1347
   9   2.0000     -10.294124      -280.1174
  10   2.0000     -10.293625      -280.1038
  11   2.0000     -10.293033      -280.0877
  12   2.0000     -10.282781      -279.8087
  13   2.0000     -10.282573      -279.8030
  14   2.0000     -10.281998      -279.7874
  15   2.0000     -10.270754      -279.4814
  16   2.0000      -8.087372      -220.0686
  17   2.0000      -8.079567      -219.8562
  18   2.0000      -6.045926      -164.5180
  19   2.0000      -6.042059      -164.4128
  20   2.0000      -6.038046      -164.3036
  21   2.0000      -6.037986      -164.3020
  22   2.0000      -6.033916      -164.1912
  23   2.0000      -6.030443      -164.0967
  24   2.0000      -1.007564       -27.4172
  25   2.0000      -0.984225       -26.7821
  26   2.0000      -0.919488       -25.0205
  27   2.0000      -0.910647       -24.7800
  28   2.0000      -0.869043       -23.6479
  29   2.0000      -0.852746       -23.2044
  30   2.0000      -0.841198       -22.8902
  31   2.0000      -0.816347       -22.2139
  32   2.0000      -0.786877       -21.4120
  33   2.0000      -0.773739       -21.0545
  34   2.0000      -0.713819       -19.4240
  35   2.0000      -0.698611       -19.0102
  36   2.0000      -0.692766       -18.8511
  37   2.0000      -0.663058       -18.0427
  38   2.0000      -0.637555       -17.3487
  39   2.0000      -0.620301       -16.8792
  40   2.0000      -0.596649       -16.2356
  41   2.0000      -0.579079       -15.7576
  42   2.0000      -0.567115       -15.4320
  43   2.0000      -0.561888       -15.2897
  44   2.0000      -0.526019       -14.3137
  45   2.0000      -0.518517       -14.1096
  46   2.0000      -0.515250       -14.0207
  47   2.0000      -0.511855       -13.9283
  48   2.0000      -0.503627       -13.7044
  49   2.0000      -0.499790       -13.6000
  50   2.0000      -0.494111       -13.4454
  51   2.0000      -0.476005       -12.9527
  52   2.0000      -0.469133       -12.7658
  53   2.0000      -0.466011       -12.6808
  54   2.0000      -0.457852       -12.4588
  55   2.0000      -0.453127       -12.3302
  56   2.0000      -0.448020       -12.1912
  57   2.0000      -0.438701       -11.9377
  58   2.0000      -0.434727       -11.8295
  59   2.0000      -0.432101       -11.7581
  60   2.0000      -0.419391       -11.4122
  61   2.0000      -0.416415       -11.3312
  62   2.0000      -0.409540       -11.1442
  63   2.0000      -0.338776        -9.2186
  64   2.0000      -0.330407        -8.9908
  65   2.0000      -0.324379        -8.8268
  66   2.0000      -0.300554        -8.1785
  67   0.0000       0.041503         1.1294
  68   0.0000       0.056259         1.5309
  69   0.0000       0.109556         2.9812
  70   0.0000       0.116381         3.1669
  71   0.0000       0.125841         3.4243

MULLIKEN ATOMIC CHARGES
-----------------------
   0 S :    0.134891
   1 C :   -0.104400
   2 C :   -0.090969
   3 C :    0.025984
   4 C :   -0.167712
   5 H :    0.035005
   6 C :    0.040782
   7 H :    0.039296
   8 H :   -0.000909
   9 C :   -0.061454
  10 H :    0.037446
  11 H :    0.054195
  12 C :   -0.001059
  13 H :   -0.006942
  14 H :    0.008503
  15 H :    0.033690
  16 S :    0.113848
  17 C :   -0.055879
  18 C :   -0.013911
  19 C :   -0.067436
  20 C :   -0.170758
  21 H :    0.009268
  22 C :    0.090113
  23 H :    0.003840
  24 H :    0.018032
  25 C :   -0.073768
  26 H :    0.015836
  27 H :    0.024748
  28 C :   -0.031695
  29 H :    0.027846
  30 H :    0.043002
  31 H :    0.031204
  32 H :    0.037203
  33 H :    0.022160
Sum of atomic charges:   -0.0000000

LOEWDIN ATOMIC CHARGES
----------------------
   0 S :    0.416831
   1 C :   -0.201576
   2 C :   -0.059775
   3 C :   -0.063317
   4 C :   -0.206593
   5 H :    0.040948
   6 C :   -0.040813
   7 H :    0.040666
   8 H :    0.020794
   9 C :   -0.036559
  10 H :    0.029531
  11 H :    0.035946
  12 C :   -0.068020
  13 H :    0.016612
  14 H :    0.025043
  15 H :    0.027903
  16 S :    0.419757
  17 C :   -0.172925
  18 C :   -0.059691
  19 C :   -0.049682
  20 C :   -0.211260
  21 H :    0.022080
  22 C :   -0.034420
  23 H :    0.023755
  24 H :    0.026583
  25 C :   -0.042869
  26 H :    0.020408
  27 H :    0.026771
  28 C :   -0.066265
  29 H :    0.029588
  30 H :    0.031813
  31 H :    0.022270
  32 H :    0.026422
  33 H :    0.010043

  Mayer bond orders larger than 0.100000
B(  0-S ,  1-C ) :   1.1258 B(  0-S ,  4-C ) :   1.1529 B(  1-C ,  2-C ) :   1.6249
B(  1-C , 32-H ) :   0.9611 B(  2-C ,  3-C ) :   1.2130 B(  2-C ,  6-C ) :   1.0374
B(  3-C ,  4-C ) :   1.6016 B(  3-C ,  5-H ) :   0.9861 B(  4-C , 20-C ) :   0.9961
B(  6-C ,  7-H ) :   0.9357 B(  6-C ,  8-H ) :   0.9320 B(  6-C ,  9-C ) :   1.0525
B(  9-C , 10-H ) :   0.9484 B(  9-C , 11-H ) :   0.9604 B(  9-C , 12-C ) :   1.0858
B( 12-C , 13-H ) :   0.9661 B( 12-C , 14-H ) :   0.9668 B( 12-C , 15-H ) :   0.9754
B( 16-S , 17-C ) :   1.1525 B( 16-S , 20-C ) :   1.1656 B( 17-C , 18-C ) :   1.6143
B( 17-C , 33-H ) :   0.9806 B( 18-C , 19-C ) :   1.2309 B( 18-C , 21-H ) :   0.9854
B( 19-C , 20-C ) :   1.5807 B( 19-C , 22-C ) :   1.0718 B( 22-C , 23-H ) :   0.9262
B( 22-C , 24-H ) :   0.9262 B( 22-C , 25-C ) :   1.0681 B( 25-C , 26-H ) :   0.9537
B( 25-C , 27-H ) :   0.9516 B( 25-C , 28-C ) :   1.0671 B( 28-C , 29-H ) :   0.9726
B( 28-C , 30-H ) :   0.9758 B( 28-C , 31-H ) :   0.9744

Dispersion correction           -0.014139352
FINAL SINGLE POINT ENERGY     -1339.860617999081

DIPOLE MOMENT
-------------
                                X             Y             Z
Electronic contribution:     16.81026      17.73679      -5.18758
Nuclear contribution   :    -17.12559     -18.25759       5.29560
                        -----------------------------------------
Total Dipole Moment    :     -0.31533      -0.52080       0.10802
                        -----------------------------------------
Magnitude (a.u.)       :      0.61834
Magnitude (Debye)      :      1.57169

Rotational constants in cm-1:     0.017488     0.008045     0.007061
Rotational constants in MHz :   524.268743   241.172390   211.695215

                             ****ORCA TERMINATED NORMALLY****
TOTAL RUN TIME: 0 days 0 hours 0 minutes 21 seconds 401 msec
