                         Program Version 4.2.1 -  RELEASE  -
|  1> ! wB97X-D3 SP def2-SVP
|  2> %pal
|  3> nprocs 24
|  4> end
|  5>
|  6> * xyz 0 1
|  7> S 	 -58.5297 	 -0.221593 	 -28.0107
|  8> C 	 -59.8967 	 0.891177 	 -27.8612
|  9> C 	 -60.0622 	 1.6533 	 -29.0094
| 10> C 	 -59.0253 	 1.53126 	 -29.9315
| 11> C 	 -58.1017 	 0.606419 	 -29.5483
| 12> H 	 -58.8858 	 2.10362 	 -30.8266
| 13> C 	 -61.1848 	 2.62048 	 -29.2602
| 14> H 	 -60.8328 	 3.54017 	 -29.0587
| 15> H 	 -61.9704 	 2.52452 	 -28.496
| 16> C 	 -61.8714 	 2.5856 	 -30.6852
| 17> H 	 -61.0519 	 2.4835 	 -31.4438
| 18> H 	 -62.4644 	 1.69789 	 -30.8093
| 19> C 	 -62.923 	 3.71797 	 -30.9834
| 20> H 	 -63.6641 	 3.66299 	 -30.1948
| 21> H 	 -62.4869 	 4.69586 	 -30.9679
| 22> H 	 -63.1589 	 3.60633 	 -32.0033
| 23> S 	 -55.4309 	 0.173615 	 -29.4421
| 24> C 	 -54.5735 	 -0.263909 	 -30.8465
| 25> C 	 -55.3599 	 -0.349173 	 -31.9531
| 26> C 	 -56.7464 	 -0.180952 	 -31.6453
| 27> C 	 -56.9544 	 0.231312 	 -30.3118
| 28> H 	 -54.9207 	 -0.512738 	 -32.9349
| 29> C 	 -57.7555 	 -0.488478 	 -32.6649
| 30> H 	 -58.5264 	 0.324758 	 -32.6431
| 31> H 	 -58.4093 	 -1.28922 	 -32.3152
| 32> C 	 -57.3732 	 -0.746814 	 -34.1676
| 33> H 	 -56.7306 	 -1.65725 	 -34.1904
| 34> H 	 -56.8371 	 0.0337282 	 -34.5577
| 35> C 	 -58.5776 	 -0.966571 	 -35.1691
| 36> H 	 -59.0274 	 -0.00212986 	 -35.359
| 37> H 	 -59.2921 	 -1.70913 	 -34.8602
| 38> H 	 -58.2595 	 -1.29373 	 -36.1757
| 39> H 	 -60.6267 	 0.743678 	 -27.0757
| 40> H 	 -53.5171 	 -0.406761 	 -30.8178
| 41> *
| 42>
| 43>                          ****END OF INPUT****

CARTESIAN COORDINATES (ANGSTROEM)
---------------------------------
  S    -58.529700   -0.221593  -28.010700
  C    -59.896700    0.891177  -27.861200
  C    -60.062200    1.653300  -29.009400
  C    -59.025300    1.531260  -29.931500
  C    -58.101700    0.606419  -29.548300
  H    -58.885800    2.103620  -30.826600
  C    -61.184800    2.620480  -29.260200
  H    -60.832800    3.540170  -29.058700
  H    -61.970400    2.524520  -28.496000
  C    -61.871400    2.585600  -30.685200
  H    -61.051900    2.483500  -31.443800
  H    -62.464400    1.697890  -30.809300
  C    -62.923000    3.717970  -30.983400
  H    -63.664100    3.662990  -30.194800
  H    -62.486900    4.695860  -30.967900
  H    -63.158900    3.606330  -32.003300
  S    -55.430900    0.173615  -29.442100
  C    -54.573500   -0.263909  -30.846500
  C    -55.359900   -0.349173  -31.953100
  C    -56.746400   -0.180952  -31.645300
  C    -56.954400    0.231312  -30.311800
  H    -54.920700   -0.512738  -32.934900
  C    -57.755500   -0.488478  -32.664900
  H    -58.526400    0.324758  -32.643100
  H    -58.409300   -1.289220  -32.315200
  C    -57.373200   -0.746814  -34.167600
  H    -56.730600   -1.657250  -34.190400
  H    -56.837100    0.033728  -34.557700
  C    -58.577600   -0.966571  -35.169100
  H    -59.027400   -0.002130  -35.359000
  H    -59.292100   -1.709130  -34.860200
  H    -58.259500   -1.293730  -36.175700
  H    -60.626700    0.743678  -27.075700
  H    -53.517100   -0.406761  -30.817800

 Total Charge           Charge          ....    0
 Multiplicity           Mult            ....    1
 Number of Electrons    NEL             ....  134
 Basis Dimension        Dim             ....  322

ORBITAL ENERGIES
----------------

  NO   OCC          E(Eh)            E(eV)
   0   2.0000     -88.965632     -2420.8779
   1   2.0000     -88.961129     -2420.7554
   2   2.0000     -10.326766      -281.0056
   3   2.0000     -10.321122      -280.8520
   4   2.0000     -10.312813      -280.6259
   5   2.0000     -10.308195      -280.5003
   6   2.0000     -10.305451      -280.4256
   7   2.0000     -10.298165      -280.2273
   8   2.0000     -10.293199      -280.0922
   9   2.0000     -10.292869      -280.0832
  10   2.0000     -10.291778      -280.0535
  11   2.0000     -10.288686      -279.9694
  12   2.0000     -10.287065      -279.9253
  13   2.0000     -10.284135      -279.8455
  14   2.0000     -10.283366      -279.8246
  15   2.0000     -10.278296      -279.6867
  16   2.0000      -8.079431      -219.8525
  17   2.0000      -8.076947      -219.7849
  18   2.0000      -6.037866      -164.2987
  19   2.0000      -6.035314      -164.2292
  20   2.0000      -6.034279      -164.2011
  21   2.0000      -6.031224      -164.1179
  22   2.0000      -6.030124      -164.0880
  23   2.0000      -6.027880      -164.0269
  24   2.0000      -1.007803       -27.4237
  25   2.0000      -0.984748       -26.7964
  26   2.0000      -0.906769       -24.6744
  27   2.0000      -0.905033       -24.6272
  28   2.0000      -0.870800       -23.6957
  29   2.0000      -0.853822       -23.2337
  30   2.0000      -0.848404       -23.0862
  31   2.0000      -0.817598       -22.2480
  32   2.0000      -0.784538       -21.3484
  33   2.0000      -0.769639       -20.9430
  34   2.0000      -0.716415       -19.4946
  35   2.0000      -0.706424       -19.2228
  36   2.0000      -0.696020       -18.9397
  37   2.0000      -0.653613       -17.7857
  38   2.0000      -0.642254       -17.4766
  39   2.0000      -0.627084       -17.0638
  40   2.0000      -0.604219       -16.4416
  41   2.0000      -0.567056       -15.4304
  42   2.0000      -0.561730       -15.2854
  43   2.0000      -0.559425       -15.2227
  44   2.0000      -0.533104       -14.5065
  45   2.0000      -0.524598       -14.2751
  46   2.0000      -0.518133       -14.0991
  47   2.0000      -0.509864       -13.8741
  48   2.0000      -0.503512       -13.7013
  49   2.0000      -0.498073       -13.5532
  50   2.0000      -0.488708       -13.2984
  51   2.0000      -0.484816       -13.1925
  52   2.0000      -0.468202       -12.7404
  53   2.0000      -0.463915       -12.6238
  54   2.0000      -0.461864       -12.5680
  55   2.0000      -0.454172       -12.3586
  56   2.0000      -0.451545       -12.2872
  57   2.0000      -0.438925       -11.9437
  58   2.0000      -0.433697       -11.8015
  59   2.0000      -0.426125       -11.5954
  60   2.0000      -0.423681       -11.5289
  61   2.0000      -0.417022       -11.3478
  62   2.0000      -0.415384       -11.3032
  63   2.0000      -0.346404        -9.4261
  64   2.0000      -0.330672        -8.9980
  65   2.0000      -0.326812        -8.8930
  66   2.0000      -0.285863        -7.7787
  67   0.0000       0.028158         0.7662
  68   0.0000       0.070058         1.9064
  69   0.0000       0.107882         2.9356
  70   0.0000       0.126420         3.4401
  71   0.0000       0.134462         3.6589

MULLIKEN ATOMIC CHARGES
-----------------------
   0 S :    0.103789
   1 C :   -0.131881
   2 C :   -0.057528
   3 C :    0.009758
   4 C :   -0.134295
   5 H :    0.018785
   6 C :    0.125304
   7 H :    0.004911
   8 H :    0.003721
   9 C :   -0.131892
  10 H :    0.026934
  11 H :    0.030700
  12 C :   -0.008895
  13 H :    0.041301
  14 H :    0.018365
  15 H :    0.030445
  16 S :    0.109767
  17 C :   -0.069707
  18 C :   -0.058949
  19 C :   -0.002710
  20 C :   -0.177404
  21 H :    0.025405
  22 C :    0.040383
  23 H :    0.011169
  24 H :    0.034742
  25 C :   -0.069468
  26 H :    0.039812
  27 H :    0.019416
  28 C :   -0.045863
  29 H :    0.030825
  30 H :    0.036544
  31 H :    0.030627
  32 H :    0.049777
  33 H :    0.046113
Sum of atomic charges:    0.0000000

LOEWDIN ATOMIC CHARGES
----------------------
   0 S :    0.375326
   1 C :   -0.193247
   2 C :   -0.057271
   3 C :   -0.058856
   4 C :   -0.173931
   5 H :    0.033347
   6 C :   -0.026174
   7 H :    0.016350
   8 H :    0.028854
   9 C :   -0.037389
  10 H :    0.020645
  11 H :    0.022165
  12 C :   -0.055695
  13 H :    0.028720
  14 H :    0.020055
  15 H :    0.026085
  16 S :    0.425842
  17 C :   -0.190162
  18 C :   -0.079394
  19 C :   -0.049298
  20 C :   -0.208449
  21 H :    0.034600
  22 C :   -0.045054
  23 H :    0.033227
  24 H :    0.039506
  25 C :   -0.031853
  26 H :    0.026797
  27 H :    0.011180
  28 C :   -0.061582
  29 H :    0.023791
  30 H :    0.022986
  31 H :    0.030483
  32 H :    0.025319
  33 H :    0.023076

  Mayer bond orders larger than 0.100000
B(  0-S ,  1-C ) :   1.1222 B(  0-S ,  4-C ) :   1.1386 B(  1-C ,  2-C ) :   1.6150
B(  1-C , 32-H ) :   0.9675 B(  2-C ,  3-C ) :   1.2264 B(  2-C ,  6-C ) :   1.0275
B(  3-C ,  4-C ) :   1.5940 B(  3-C ,  5-H ) :   0.9953 B(  4-C , 20-C ) :   1.0693
B(  6-C ,  7-H ) :   0.9345 B(  6-C ,  8-H ) :   0.9337 B(  6-C ,  9-C ) :   1.0441
B(  9-C , 10-H ) :   0.9595 B(  9-C , 11-H ) :   0.9605 B(  9-C , 12-C ) :   1.0751
B( 12-C , 13-H ) :   0.9764 B( 12-C , 14-H ) :   0.9768 B( 12-C , 15-H ) :   0.9730
B( 16-S , 17-C ) :   1.1808 B( 16-S , 20-C ) :   1.1433 B( 17-C , 18-C ) :   1.5817
B( 17-C , 33-H ) :   0.9661 B( 18-C , 19-C ) :   1.2590 B( 18-C , 21-H ) :   0.9883
B( 19-C , 20-C ) :   1.5529 B( 19-C , 22-C ) :   1.0556 B( 22-C , 23-H ) :   0.9216
B( 22-C , 24-H ) :   0.9168 B( 22-C , 25-C ) :   1.0686 B( 25-C , 26-H ) :   0.9508
B( 25-C , 27-H ) :   0.9564 B( 25-C , 28-C ) :   1.0801 B( 28-C , 29-H ) :   0.9768
B( 28-C , 30-H ) :   0.9788 B( 28-C , 31-H ) :   0.9743

Dispersion correction           -0.013428722
FINAL SINGLE POINT ENERGY     -1339.866180178072

DIPOLE MOMENT
-------------
                                X             Y             Z
Electronic contribution:     20.50503      -7.31309      23.79033
Nuclear contribution   :    -20.87573       7.49659     -24.46114
                        -----------------------------------------
Total Dipole Moment    :     -0.37070       0.18350      -0.67082
                        -----------------------------------------
Magnitude (a.u.)       :      0.78809
Magnitude (Debye)      :      2.00316

Rotational constants in cm-1:     0.015228     0.009109     0.006244
Rotational constants in MHz :   456.526954   273.088785   187.194909

                             ****ORCA TERMINATED NORMALLY****
TOTAL RUN TIME: 0 days 0 hours 0 minutes 20 seconds 19 msec
