                         Program Version 4.2.1 -  RELEASE  -
|  1> ! wB97X-D3 SP def2-SVP
|  2> %pal
|  3> nprocs 24
|  4> end
|  5>
|  6> * xyz 0 1
|  7> S 	 -135.877 	 11.9806 	 -15.2257
|  8> C 	 -136.093 	 10.4368 	 -14.4613
|  9> C 	 -134.918 	 9.72241 	 -14.4974
| 10> C 	 -133.839 	 10.4057 	 -15.1299
| 11> C 	 -134.217 	 11.6066 	 -15.6502
| 12> H 	 -132.782 	 10.0905 	 -15.2784
| 13> C 	 -134.731 	 8.40585 	 -13.779
| 14> H 	 -134.494 	 7.68369 	 -14.5415
| 15> H 	 -135.687 	 7.97551 	 -13.3581
| 16> C 	 -133.566 	 8.46574 	 -12.8065
| 17> H 	 -132.734 	 8.94092 	 -13.3008
| 18> H 	 -133.894 	 9.05553 	 -11.9314
| 19> C 	 -133.131 	 7.12533 	 -12.2689
| 20> H 	 -133.915 	 6.60969 	 -11.7218
| 21> H 	 -132.936 	 6.56752 	 -13.2182
| 22> H 	 -132.269 	 7.23548 	 -11.5877
| 23> S 	 -132.621 	 13.7808 	 -15.4022
| 24> C 	 -131.82 	 14.5181 	 -16.7503
| 25> C 	 -131.979 	 13.7175 	 -17.8265
| 26> C 	 -132.833 	 12.5513 	 -17.6069
| 27> C 	 -133.407 	 12.5628 	 -16.3721
| 28> H 	 -131.541 	 13.969 	 -18.8273
| 29> C 	 -133.081 	 11.4895 	 -18.6591
| 30> H 	 -133.58 	 11.8637 	 -19.4662
| 31> H 	 -133.873 	 10.8789 	 -18.2554
| 32> C 	 -131.817 	 10.758 	 -18.9671
| 33> H 	 -131.311 	 10.3403 	 -18.0068
| 34> H 	 -131.014 	 11.465 	 -19.312
| 35> C 	 -132.154 	 9.63409 	 -20.0608
| 36> H 	 -131.392 	 8.83089 	 -20.1855
| 37> H 	 -132.413 	 10.1515 	 -20.9519
| 38> H 	 -133.094 	 9.14308 	 -19.7425
| 39> H 	 -136.974 	 10.1207 	 -13.9567
| 40> H 	 -130.992 	 15.1667 	 -16.7408
| 41> *
| 42>
| 43>                          ****END OF INPUT****

CARTESIAN COORDINATES (ANGSTROEM)
---------------------------------
  S    -135.877000   11.980600  -15.225700
  C    -136.093000   10.436800  -14.461300
  C    -134.918000    9.722410  -14.497400
  C    -133.839000   10.405700  -15.129900
  C    -134.217000   11.606600  -15.650200
  H    -132.782000   10.090500  -15.278400
  C    -134.731000    8.405850  -13.779000
  H    -134.494000    7.683690  -14.541500
  H    -135.687000    7.975510  -13.358100
  C    -133.566000    8.465740  -12.806500
  H    -132.734000    8.940920  -13.300800
  H    -133.894000    9.055530  -11.931400
  C    -133.131000    7.125330  -12.268900
  H    -133.915000    6.609690  -11.721800
  H    -132.936000    6.567520  -13.218200
  H    -132.269000    7.235480  -11.587700
  S    -132.621000   13.780800  -15.402200
  C    -131.820000   14.518100  -16.750300
  C    -131.979000   13.717500  -17.826500
  C    -132.833000   12.551300  -17.606900
  C    -133.407000   12.562800  -16.372100
  H    -131.541000   13.969000  -18.827300
  C    -133.081000   11.489500  -18.659100
  H    -133.580000   11.863700  -19.466200
  H    -133.873000   10.878900  -18.255400
  C    -131.817000   10.758000  -18.967100
  H    -131.311000   10.340300  -18.006800
  H    -131.014000   11.465000  -19.312000
  C    -132.154000    9.634090  -20.060800
  H    -131.392000    8.830890  -20.185500
  H    -132.413000   10.151500  -20.951900
  H    -133.094000    9.143080  -19.742500
  H    -136.974000   10.120700  -13.956700
  H    -130.992000   15.166700  -16.740800

 Total Charge           Charge          ....    0
 Multiplicity           Mult            ....    1
 Number of Electrons    NEL             ....  134
 Basis Dimension        Dim             ....  322

ORBITAL ENERGIES
----------------

  NO   OCC          E(Eh)            E(eV)
   0   2.0000     -88.963488     -2420.8196
   1   2.0000     -88.957946     -2420.6688
   2   2.0000     -10.327057      -281.0135
   3   2.0000     -10.321432      -280.8604
   4   2.0000     -10.311002      -280.5766
   5   2.0000     -10.309704      -280.5413
   6   2.0000     -10.301748      -280.3248
   7   2.0000     -10.300254      -280.2841
   8   2.0000     -10.300098      -280.2799
   9   2.0000     -10.297919      -280.2206
  10   2.0000     -10.294907      -280.1387
  11   2.0000     -10.291682      -280.0509
  12   2.0000     -10.284906      -279.8665
  13   2.0000     -10.282256      -279.7944
  14   2.0000     -10.280014      -279.7334
  15   2.0000     -10.279844      -279.7288
  16   2.0000      -8.078622      -219.8305
  17   2.0000      -8.073595      -219.6937
  18   2.0000      -6.037066      -164.2769
  19   2.0000      -6.033031      -164.1671
  20   2.0000      -6.032215      -164.1449
  21   2.0000      -6.029454      -164.0698
  22   2.0000      -6.027946      -164.0288
  23   2.0000      -6.024165      -163.9259
  24   2.0000      -1.012689       -27.5567
  25   2.0000      -0.989945       -26.9378
  26   2.0000      -0.917528       -24.9672
  27   2.0000      -0.913159       -24.8483
  28   2.0000      -0.877093       -23.8669
  29   2.0000      -0.849744       -23.1227
  30   2.0000      -0.839323       -22.8391
  31   2.0000      -0.820893       -22.3376
  32   2.0000      -0.780176       -21.2297
  33   2.0000      -0.771186       -20.9850
  34   2.0000      -0.709547       -19.3078
  35   2.0000      -0.705310       -19.1925
  36   2.0000      -0.690233       -18.7822
  37   2.0000      -0.657115       -17.8810
  38   2.0000      -0.648927       -17.6582
  39   2.0000      -0.621023       -16.8989
  40   2.0000      -0.598370       -16.2825
  41   2.0000      -0.572922       -15.5900
  42   2.0000      -0.566546       -15.4165
  43   2.0000      -0.557254       -15.1637
  44   2.0000      -0.531647       -14.4668
  45   2.0000      -0.528143       -14.3715
  46   2.0000      -0.517738       -14.0884
  47   2.0000      -0.514817       -14.0089
  48   2.0000      -0.508548       -13.8383
  49   2.0000      -0.504447       -13.7267
  50   2.0000      -0.494575       -13.4581
  51   2.0000      -0.480889       -13.0857
  52   2.0000      -0.468442       -12.7470
  53   2.0000      -0.464680       -12.6446
  54   2.0000      -0.453849       -12.3499
  55   2.0000      -0.452235       -12.3059
  56   2.0000      -0.451468       -12.2851
  57   2.0000      -0.439448       -11.9580
  58   2.0000      -0.433530       -11.7969
  59   2.0000      -0.423614       -11.5271
  60   2.0000      -0.413067       -11.2401
  61   2.0000      -0.410738       -11.1768
  62   2.0000      -0.408532       -11.1167
  63   2.0000      -0.339836        -9.2474
  64   2.0000      -0.329401        -8.9635
  65   2.0000      -0.322731        -8.7820
  66   2.0000      -0.312659        -8.5079
  67   0.0000       0.045957         1.2506
  68   0.0000       0.058217         1.5842
  69   0.0000       0.119900         3.2626
  70   0.0000       0.126086         3.4310
  71   0.0000       0.128106         3.4859

MULLIKEN ATOMIC CHARGES
-----------------------
   0 S :    0.114104
   1 C :   -0.107239
   2 C :   -0.073690
   3 C :    0.030681
   4 C :   -0.197195
   5 H :    0.034847
   6 C :    0.074061
   7 H :    0.013627
   8 H :    0.022450
   9 C :   -0.094565
  10 H :    0.031601
  11 H :    0.033024
  12 C :   -0.042385
  13 H :    0.029716
  14 H :    0.027333
  15 H :    0.045712
  16 S :    0.091806
  17 C :   -0.041722
  18 C :   -0.073475
  19 C :   -0.052315
  20 C :   -0.160935
  21 H :    0.035463
  22 C :    0.141249
  23 H :    0.001364
  24 H :    0.013652
  25 C :   -0.140295
  26 H :    0.040560
  27 H :    0.039351
  28 C :   -0.027185
  29 H :    0.050087
  30 H :    0.027349
  31 H :    0.027646
  32 H :    0.036162
  33 H :    0.049157
Sum of atomic charges:   -0.0000000

LOEWDIN ATOMIC CHARGES
----------------------
   0 S :    0.410116
   1 C :   -0.194583
   2 C :   -0.063443
   3 C :   -0.062539
   4 C :   -0.198353
   5 H :    0.041754
   6 C :   -0.034620
   7 H :    0.024785
   8 H :    0.032773
   9 C :   -0.043560
  10 H :    0.022613
  11 H :    0.027048
  12 C :   -0.066247
  13 H :    0.022242
  14 H :    0.027785
  15 H :    0.030801
  16 S :    0.408202
  17 C :   -0.187947
  18 C :   -0.076833
  19 C :   -0.048082
  20 C :   -0.206787
  21 H :    0.035797
  22 C :   -0.031101
  23 H :    0.019577
  24 H :    0.032310
  25 C :   -0.044188
  26 H :    0.030932
  27 H :    0.025540
  28 C :   -0.065834
  29 H :    0.030145
  30 H :    0.021171
  31 H :    0.027902
  32 H :    0.024476
  33 H :    0.028149

  Mayer bond orders larger than 0.100000
B(  0-S ,  1-C ) :   1.1359 B(  0-S ,  4-C ) :   1.1569 B(  1-C ,  2-C ) :   1.6228
B(  1-C , 32-H ) :   0.9758 B(  2-C ,  3-C ) :   1.2107 B(  2-C ,  6-C ) :   1.0251
B(  3-C ,  4-C ) :   1.6116 B(  3-C ,  5-H ) :   0.9856 B(  4-C , 20-C ) :   0.9938
B(  6-C ,  7-H ) :   0.9266 B(  6-C ,  8-H ) :   0.9437 B(  6-C ,  9-C ) :   1.0642
B(  9-C , 10-H ) :   0.9538 B(  9-C , 11-H ) :   0.9517 B(  9-C , 12-C ) :   1.0855
B( 12-C , 13-H ) :   0.9740 B( 12-C , 14-H ) :   0.9746 B( 12-C , 15-H ) :   0.9725
B( 16-S , 17-C ) :   1.1432 B( 16-S , 20-C ) :   1.1440 B( 17-C , 18-C ) :   1.6380
B( 17-C , 33-H ) :   0.9652 B( 18-C , 19-C ) :   1.2176 B( 18-C , 21-H ) :   0.9782
B( 19-C , 20-C ) :   1.6371 B( 19-C , 22-C ) :   1.0384 B( 22-C , 23-H ) :   0.9299
B( 22-C , 24-H ) :   0.9215 B( 22-C , 25-C ) :   1.0432 B( 25-C , 26-H ) :   0.9552
B( 25-C , 27-H ) :   0.9614 B( 25-C , 28-C ) :   1.0570 B( 28-C , 29-H ) :   0.9774
B( 28-C , 30-H ) :   0.9748 B( 28-C , 31-H ) :   0.9751

Dispersion correction           -0.014032287
FINAL SINGLE POINT ENERGY     -1339.872888972709

DIPOLE MOMENT
-------------
                                X             Y             Z
Electronic contribution:     -8.87861      24.61817       4.19144
Nuclear contribution   :      9.18443     -25.18663      -4.39545
                        -----------------------------------------
Total Dipole Moment    :      0.30581      -0.56846      -0.20402
                        -----------------------------------------
Magnitude (a.u.)       :      0.67697
Magnitude (Debye)      :      1.72073

Rotational constants in cm-1:     0.016895     0.008448     0.007159
Rotational constants in MHz :   506.486572   253.275212   214.630940

                             ****ORCA TERMINATED NORMALLY****
TOTAL RUN TIME: 0 days 0 hours 0 minutes 21 seconds 496 msec
