                         Program Version 4.2.1 -  RELEASE  -
|  1> ! wB97X-D3 SP def2-SVP
|  2> %pal
|  3> nprocs 24
|  4> end
|  5>
|  6> * xyz 0 1
|  7> S 	 -51.2649 	 -47.6311 	 -72.334
|  8> C 	 -52.3096 	 -46.6536 	 -73.3391
|  9> C 	 -51.5669 	 -46.0527 	 -74.4008
| 10> C 	 -50.2071 	 -46.5098 	 -74.4319
| 11> C 	 -49.8867 	 -47.2915 	 -73.3753
| 12> H 	 -49.4447 	 -46.2324 	 -75.1722
| 13> C 	 -52.0584 	 -45.1134 	 -75.4685
| 14> H 	 -51.378 	 -44.2473 	 -75.5307
| 15> H 	 -53.013 	 -44.7123 	 -75.1453
| 16> C 	 -52.1608 	 -45.6641 	 -76.9167
| 17> H 	 -53.0043 	 -46.3796 	 -76.8621
| 18> H 	 -52.5368 	 -44.9181 	 -77.6264
| 19> C 	 -50.8918 	 -46.3176 	 -77.468
| 20> H 	 -50.0226 	 -45.6017 	 -77.4972
| 21> H 	 -50.4986 	 -47.2256 	 -76.991
| 22> H 	 -50.9679 	 -46.5998 	 -78.4452
| 23> S 	 -48.6847 	 -49.6614 	 -72.8542
| 24> C 	 -47.0244 	 -49.7291 	 -72.3405
| 25> C 	 -46.4111 	 -48.5222 	 -72.6134
| 26> C 	 -47.2879 	 -47.53 	 -73.1117
| 27> C 	 -48.6543 	 -47.9596 	 -73.1216
| 28> H 	 -45.3327 	 -48.3581 	 -72.3885
| 29> C 	 -46.8507 	 -46.1044 	 -73.3432
| 30> H 	 -47.198 	 -45.773 	 -74.3106
| 31> H 	 -45.7959 	 -46.1374 	 -73.5232
| 32> C 	 -47.1846 	 -45.0436 	 -72.2925
| 33> H 	 -47.0447 	 -45.3725 	 -71.2366
| 34> H 	 -48.2309 	 -44.8132 	 -72.431
| 35> C 	 -46.4116 	 -43.7162 	 -72.4482
| 36> H 	 -46.6177 	 -43.174 	 -73.3753
| 37> H 	 -45.3415 	 -43.9343 	 -72.5086
| 38> H 	 -46.6438 	 -43.0825 	 -71.5511
| 39> H 	 -53.3507 	 -46.4609 	 -72.9751
| 40> H 	 -46.5114 	 -50.6322 	 -72.1111
| 41> *
| 42>
| 43>                          ****END OF INPUT****

CARTESIAN COORDINATES (ANGSTROEM)
---------------------------------
  S    -51.264900  -47.631100  -72.334000
  C    -52.309600  -46.653600  -73.339100
  C    -51.566900  -46.052700  -74.400800
  C    -50.207100  -46.509800  -74.431900
  C    -49.886700  -47.291500  -73.375300
  H    -49.444700  -46.232400  -75.172200
  C    -52.058400  -45.113400  -75.468500
  H    -51.378000  -44.247300  -75.530700
  H    -53.013000  -44.712300  -75.145300
  C    -52.160800  -45.664100  -76.916700
  H    -53.004300  -46.379600  -76.862100
  H    -52.536800  -44.918100  -77.626400
  C    -50.891800  -46.317600  -77.468000
  H    -50.022600  -45.601700  -77.497200
  H    -50.498600  -47.225600  -76.991000
  H    -50.967900  -46.599800  -78.445200
  S    -48.684700  -49.661400  -72.854200
  C    -47.024400  -49.729100  -72.340500
  C    -46.411100  -48.522200  -72.613400
  C    -47.287900  -47.530000  -73.111700
  C    -48.654300  -47.959600  -73.121600
  H    -45.332700  -48.358100  -72.388500
  C    -46.850700  -46.104400  -73.343200
  H    -47.198000  -45.773000  -74.310600
  H    -45.795900  -46.137400  -73.523200
  C    -47.184600  -45.043600  -72.292500
  H    -47.044700  -45.372500  -71.236600
  H    -48.230900  -44.813200  -72.431000
  C    -46.411600  -43.716200  -72.448200
  H    -46.617700  -43.174000  -73.375300
  H    -45.341500  -43.934300  -72.508600
  H    -46.643800  -43.082500  -71.551100
  H    -53.350700  -46.460900  -72.975100
  H    -46.511400  -50.632200  -72.111100

 Total Charge           Charge          ....    0
 Multiplicity           Mult            ....    1
 Number of Electrons    NEL             ....  134
 Basis Dimension        Dim             ....  322

ORBITAL ENERGIES
----------------

  NO   OCC          E(Eh)            E(eV)
   0   2.0000     -88.965678     -2420.8792
   1   2.0000     -88.964017     -2420.8340
   2   2.0000     -10.324844      -280.9533
   3   2.0000     -10.324737      -280.9504
   4   2.0000     -10.323675      -280.9215
   5   2.0000     -10.311968      -280.6029
   6   2.0000     -10.309062      -280.5238
   7   2.0000     -10.302965      -280.3579
   8   2.0000     -10.295268      -280.1485
   9   2.0000     -10.293565      -280.1021
  10   2.0000     -10.293389      -280.0973
  11   2.0000     -10.292842      -280.0825
  12   2.0000     -10.285377      -279.8793
  13   2.0000     -10.283635      -279.8319
  14   2.0000     -10.280471      -279.7458
  15   2.0000     -10.275808      -279.6190
  16   2.0000      -8.080490      -219.8813
  17   2.0000      -8.079308      -219.8491
  18   2.0000      -6.039001      -164.3296
  19   2.0000      -6.037657      -164.2930
  20   2.0000      -6.034913      -164.2183
  21   2.0000      -6.033592      -164.1824
  22   2.0000      -6.031299      -164.1200
  23   2.0000      -6.030339      -164.0939
  24   2.0000      -1.009397       -27.4671
  25   2.0000      -0.983163       -26.7532
  26   2.0000      -0.910444       -24.7744
  27   2.0000      -0.906367       -24.6635
  28   2.0000      -0.871149       -23.7052
  29   2.0000      -0.850848       -23.1527
  30   2.0000      -0.844619       -22.9832
  31   2.0000      -0.816794       -22.2261
  32   2.0000      -0.784667       -21.3519
  33   2.0000      -0.768292       -20.9063
  34   2.0000      -0.707208       -19.2441
  35   2.0000      -0.702618       -19.1192
  36   2.0000      -0.690425       -18.7874
  37   2.0000      -0.660902       -17.9841
  38   2.0000      -0.641826       -17.4650
  39   2.0000      -0.619310       -16.8523
  40   2.0000      -0.595951       -16.2166
  41   2.0000      -0.566731       -15.4215
  42   2.0000      -0.559304       -15.2194
  43   2.0000      -0.547335       -14.8938
  44   2.0000      -0.541827       -14.7439
  45   2.0000      -0.526416       -14.3245
  46   2.0000      -0.514551       -14.0016
  47   2.0000      -0.512199       -13.9376
  48   2.0000      -0.505325       -13.7506
  49   2.0000      -0.495303       -13.4779
  50   2.0000      -0.492447       -13.4002
  51   2.0000      -0.478673       -13.0254
  52   2.0000      -0.475962       -12.9516
  53   2.0000      -0.464022       -12.6267
  54   2.0000      -0.453111       -12.3298
  55   2.0000      -0.443093       -12.0572
  56   2.0000      -0.441902       -12.0248
  57   2.0000      -0.438880       -11.9425
  58   2.0000      -0.436594       -11.8803
  59   2.0000      -0.431185       -11.7331
  60   2.0000      -0.419786       -11.4230
  61   2.0000      -0.413422       -11.2498
  62   2.0000      -0.410644       -11.1742
  63   2.0000      -0.351132        -9.5548
  64   2.0000      -0.329840        -8.9754
  65   2.0000      -0.327754        -8.9186
  66   2.0000      -0.286188        -7.7876
  67   0.0000       0.025060         0.6819
  68   0.0000       0.069529         1.8920
  69   0.0000       0.111209         3.0262
  70   0.0000       0.116062         3.1582
  71   0.0000       0.138514         3.7692

MULLIKEN ATOMIC CHARGES
-----------------------
   0 S :    0.111849
   1 C :   -0.147855
   2 C :   -0.087107
   3 C :    0.018308
   4 C :   -0.147003
   5 H :    0.023554
   6 C :    0.069510
   7 H :    0.030650
   8 H :    0.013632
   9 C :   -0.062201
  10 H :    0.027169
  11 H :    0.035651
  12 C :   -0.043895
  13 H :    0.023895
  14 H :    0.047103
  15 H :    0.008047
  16 S :    0.114212
  17 C :   -0.087331
  18 C :   -0.055445
  19 C :   -0.025926
  20 C :   -0.164249
  21 H :    0.034183
  22 C :    0.091161
  23 H :    0.004346
  24 H :   -0.006261
  25 C :   -0.057671
  26 H :    0.038089
  27 H :    0.034599
  28 C :   -0.073223
  29 H :    0.030084
  30 H :    0.026152
  31 H :    0.050405
  32 H :    0.074667
  33 H :    0.050904
Sum of atomic charges:    0.0000000

LOEWDIN ATOMIC CHARGES
----------------------
   0 S :    0.404557
   1 C :   -0.206490
   2 C :   -0.057990
   3 C :   -0.060267
   4 C :   -0.194194
   5 H :    0.037979
   6 C :   -0.035328
   7 H :    0.031274
   8 H :    0.027949
   9 C :   -0.038068
  10 H :    0.026553
  11 H :    0.028819
  12 C :   -0.070095
  13 H :    0.027328
  14 H :    0.031933
  15 H :    0.014651
  16 S :    0.430569
  17 C :   -0.194007
  18 C :   -0.074810
  19 C :   -0.058903
  20 C :   -0.208945
  21 H :    0.039085
  22 C :   -0.036062
  23 H :    0.025800
  24 H :    0.022990
  25 C :   -0.039677
  26 H :    0.029696
  27 H :    0.024722
  28 C :   -0.069968
  29 H :    0.022459
  30 H :    0.021373
  31 H :    0.035390
  32 H :    0.037159
  33 H :    0.024520

  Mayer bond orders larger than 0.100000
B(  0-S ,  1-C ) :   1.1433 B(  0-S ,  4-C ) :   1.1458 B(  1-C ,  2-C ) :   1.5819
B(  1-C , 32-H ) :   0.9651 B(  2-C ,  3-C ) :   1.2305 B(  2-C ,  6-C ) :   1.0365
B(  3-C ,  4-C ) :   1.5795 B(  3-C ,  5-H ) :   0.9849 B(  4-C , 20-C ) :   1.0677
B(  6-C ,  7-H ) :   0.9395 B(  6-C ,  8-H ) :   0.9378 B(  6-C ,  9-C ) :   1.0687
B(  9-C , 10-H ) :   0.9521 B(  9-C , 11-H ) :   0.9553 B(  9-C , 12-C ) :   1.0863
B( 12-C , 13-H ) :   0.9689 B( 12-C , 14-H ) :   0.9650 B( 12-C , 15-H ) :   0.9658
B( 16-S , 17-C ) :   1.1653 B( 16-S , 20-C ) :   1.1802 B( 17-C , 18-C ) :   1.5595
B( 17-C , 20-C ) :   0.1122 B( 17-C , 33-H ) :   0.9729 B( 18-C , 19-C ) :   1.3024
B( 18-C , 21-H ) :   0.9825 B( 19-C , 20-C ) :   1.5046 B( 19-C , 22-C ) :   1.0596
B( 22-C , 23-H ) :   0.9223 B( 22-C , 24-H ) :   0.9263 B( 22-C , 25-C ) :   1.0583
B( 25-C , 26-H ) :   0.9605 B( 25-C , 27-H ) :   0.9507 B( 25-C , 28-C ) :   1.0819
B( 28-C , 29-H ) :   0.9753 B( 28-C , 30-H ) :   0.9759 B( 28-C , 31-H ) :   0.9748

Dispersion correction           -0.014697897
FINAL SINGLE POINT ENERGY     -1339.885208640150

DIPOLE MOMENT
-------------
                                X             Y             Z
Electronic contribution:     -5.64375     -21.51020      13.50283
Nuclear contribution   :      5.79036      21.96378     -13.89808
                        -----------------------------------------
Total Dipole Moment    :      0.14661       0.45358      -0.39525
                        -----------------------------------------
Magnitude (a.u.)       :      0.61924
Magnitude (Debye)      :      1.57397

Rotational constants in cm-1:     0.016670     0.009555     0.007817
Rotational constants in MHz :   499.747039   286.448577   234.334291

                             ****ORCA TERMINATED NORMALLY****
TOTAL RUN TIME: 0 days 0 hours 0 minutes 22 seconds 37 msec
