                         Program Version 4.2.1 -  RELEASE  -
|  1> ! wB97X-D3 SP def2-SVP
|  2> %pal
|  3> nprocs 24
|  4> end
|  5>
|  6> * xyz 0 1
|  7> S 	 -70.4831 	 8.44398 	 19.121
|  8> C 	 -69.0145 	 9.3072 	 19.5179
|  9> C 	 -67.9103 	 8.5031 	 19.4238
| 10> C 	 -68.2967 	 7.17136 	 19.0745
| 11> C 	 -69.6316 	 6.93302 	 19.0808
| 12> H 	 -67.4418 	 6.47201 	 19.0896
| 13> C 	 -66.389 	 8.89812 	 19.477
| 14> H 	 -66.2436 	 10.0542 	 19.5027
| 15> H 	 -66.038 	 8.57568 	 18.5117
| 16> C 	 -65.6426 	 8.30854 	 20.7784
| 17> H 	 -66.1006 	 8.79541 	 21.6625
| 18> H 	 -65.7438 	 7.23538 	 20.7279
| 19> C 	 -64.2038 	 8.76056 	 20.8425
| 20> H 	 -63.5378 	 8.16734 	 20.2721
| 21> H 	 -64.0826 	 9.75801 	 20.397
| 22> H 	 -63.8983 	 8.76014 	 21.8626
| 23> S 	 -71.96 	 5.46583 	 19.2428
| 24> C 	 -71.9379 	 3.79129 	 18.9751
| 25> C 	 -70.7119 	 3.39998 	 18.5397
| 26> C 	 -69.7545 	 4.40874 	 18.4089
| 27> C 	 -70.3025 	 5.59949 	 18.9265
| 28> H 	 -70.5902 	 2.35873 	 18.268
| 29> C 	 -68.3485 	 4.00438 	 17.9198
| 30> H 	 -67.9307 	 4.7598 	 17.3855
| 31> H 	 -68.3058 	 3.19799 	 17.2213
| 32> C 	 -67.344 	 3.70685 	 18.9813
| 33> H 	 -67.61 	 2.72548 	 19.3526
| 34> H 	 -67.3808 	 4.3516 	 19.84
| 35> C 	 -65.9117 	 3.48608 	 18.4074
| 36> H 	 -65.445 	 4.43952 	 18.2066
| 37> H 	 -65.6534 	 2.78546 	 17.6047
| 38> H 	 -65.2123 	 3.15364 	 19.1798
| 39> H 	 -68.9514 	 10.3971 	 19.6643
| 40> H 	 -72.81 	 3.14524 	 19.1171
| 41> *
| 42>
| 43>                          ****END OF INPUT****

CARTESIAN COORDINATES (ANGSTROEM)
---------------------------------
  S    -70.483100    8.443980   19.121000
  C    -69.014500    9.307200   19.517900
  C    -67.910300    8.503100   19.423800
  C    -68.296700    7.171360   19.074500
  C    -69.631600    6.933020   19.080800
  H    -67.441800    6.472010   19.089600
  C    -66.389000    8.898120   19.477000
  H    -66.243600   10.054200   19.502700
  H    -66.038000    8.575680   18.511700
  C    -65.642600    8.308540   20.778400
  H    -66.100600    8.795410   21.662500
  H    -65.743800    7.235380   20.727900
  C    -64.203800    8.760560   20.842500
  H    -63.537800    8.167340   20.272100
  H    -64.082600    9.758010   20.397000
  H    -63.898300    8.760140   21.862600
  S    -71.960000    5.465830   19.242800
  C    -71.937900    3.791290   18.975100
  C    -70.711900    3.399980   18.539700
  C    -69.754500    4.408740   18.408900
  C    -70.302500    5.599490   18.926500
  H    -70.590200    2.358730   18.268000
  C    -68.348500    4.004380   17.919800
  H    -67.930700    4.759800   17.385500
  H    -68.305800    3.197990   17.221300
  C    -67.344000    3.706850   18.981300
  H    -67.610000    2.725480   19.352600
  H    -67.380800    4.351600   19.840000
  C    -65.911700    3.486080   18.407400
  H    -65.445000    4.439520   18.206600
  H    -65.653400    2.785460   17.604700
  H    -65.212300    3.153640   19.179800
  H    -68.951400   10.397100   19.664300
  H    -72.810000    3.145240   19.117100

 Total Charge           Charge          ....    0
 Multiplicity           Mult            ....    1
 Number of Electrons    NEL             ....  134
 Basis Dimension        Dim             ....  322

ORBITAL ENERGIES
----------------

  NO   OCC          E(Eh)            E(eV)
   0   2.0000     -88.967561     -2420.9304
   1   2.0000     -88.964624     -2420.8505
   2   2.0000     -10.330845      -281.1166
   3   2.0000     -10.329923      -281.0915
   4   2.0000     -10.311306      -280.5849
   5   2.0000     -10.309174      -280.5269
   6   2.0000     -10.307776      -280.4888
   7   2.0000     -10.303603      -280.3753
   8   2.0000     -10.298178      -280.2277
   9   2.0000     -10.293991      -280.1137
  10   2.0000     -10.288787      -279.9721
  11   2.0000     -10.285983      -279.8958
  12   2.0000     -10.285118      -279.8723
  13   2.0000     -10.282601      -279.8038
  14   2.0000     -10.281884      -279.7843
  15   2.0000     -10.272562      -279.5306
  16   2.0000      -8.084303      -219.9851
  17   2.0000      -8.079792      -219.8623
  18   2.0000      -6.042498      -164.4247
  19   2.0000      -6.038552      -164.3173
  20   2.0000      -6.038487      -164.3156
  21   2.0000      -6.035263      -164.2279
  22   2.0000      -6.034385      -164.2040
  23   2.0000      -6.030203      -164.0902
  24   2.0000      -1.017404       -27.6850
  25   2.0000      -0.993311       -27.0294
  26   2.0000      -0.919083       -25.0095
  27   2.0000      -0.903677       -24.5903
  28   2.0000      -0.869097       -23.6493
  29   2.0000      -0.855751       -23.2862
  30   2.0000      -0.847644       -23.0656
  31   2.0000      -0.813610       -22.1395
  32   2.0000      -0.788987       -21.4694
  33   2.0000      -0.773576       -21.0501
  34   2.0000      -0.709740       -19.3130
  35   2.0000      -0.700059       -19.0496
  36   2.0000      -0.693750       -18.8779
  37   2.0000      -0.663366       -18.0511
  38   2.0000      -0.631854       -17.1936
  39   2.0000      -0.626604       -17.0507
  40   2.0000      -0.608592       -16.5606
  41   2.0000      -0.572657       -15.5828
  42   2.0000      -0.566768       -15.4226
  43   2.0000      -0.559427       -15.2228
  44   2.0000      -0.532753       -14.4969
  45   2.0000      -0.522881       -14.2283
  46   2.0000      -0.515250       -14.0207
  47   2.0000      -0.511089       -13.9074
  48   2.0000      -0.504788       -13.7360
  49   2.0000      -0.496710       -13.5162
  50   2.0000      -0.488516       -13.2932
  51   2.0000      -0.482024       -13.1165
  52   2.0000      -0.478147       -13.0110
  53   2.0000      -0.464108       -12.6290
  54   2.0000      -0.457618       -12.4524
  55   2.0000      -0.453993       -12.3538
  56   2.0000      -0.449174       -12.2227
  57   2.0000      -0.436963       -11.8904
  58   2.0000      -0.434109       -11.8127
  59   2.0000      -0.431136       -11.7318
  60   2.0000      -0.426807       -11.6140
  61   2.0000      -0.414261       -11.2726
  62   2.0000      -0.410010       -11.1569
  63   2.0000      -0.359569        -9.7844
  64   2.0000      -0.337298        -9.1783
  65   2.0000      -0.328517        -8.9394
  66   2.0000      -0.285062        -7.7569
  67   0.0000       0.026487         0.7207
  68   0.0000       0.092081         2.5057
  69   0.0000       0.102741         2.7957
  70   0.0000       0.121236         3.2990
  71   0.0000       0.130514         3.5515

MULLIKEN ATOMIC CHARGES
-----------------------
   0 S :    0.099121
   1 C :   -0.138455
   2 C :   -0.078054
   3 C :   -0.030799
   4 C :   -0.059364
   5 H :   -0.002088
   6 C :   -0.001844
   7 H :    0.034693
   8 H :    0.039982
   9 C :   -0.082260
  10 H :    0.045018
  11 H :    0.036675
  12 C :   -0.008593
  13 H :    0.017470
  14 H :    0.022429
  15 H :    0.032163
  16 S :    0.123896
  17 C :   -0.095300
  18 C :   -0.035721
  19 C :   -0.035923
  20 C :   -0.147508
  21 H :    0.011269
  22 C :    0.141300
  23 H :   -0.016266
  24 H :    0.009859
  25 C :   -0.059094
  26 H :    0.013576
  27 H :    0.035191
  28 C :   -0.063444
  29 H :    0.015353
  30 H :    0.043273
  31 H :    0.022477
  32 H :    0.050545
  33 H :    0.060423
Sum of atomic charges:    0.0000000

LOEWDIN ATOMIC CHARGES
----------------------
   0 S :    0.398776
   1 C :   -0.202759
   2 C :   -0.066104
   3 C :   -0.080592
   4 C :   -0.185096
   5 H :    0.030617
   6 C :   -0.032113
   7 H :    0.034998
   8 H :    0.027128
   9 C :   -0.034811
  10 H :    0.034481
  11 H :    0.020721
  12 C :   -0.063215
  13 H :    0.018219
  14 H :    0.027497
  15 H :    0.024551
  16 S :    0.456224
  17 C :   -0.210277
  18 C :   -0.072566
  19 C :   -0.050806
  20 C :   -0.209001
  21 H :    0.030692
  22 C :   -0.022433
  23 H :    0.013105
  24 H :    0.031710
  25 C :   -0.033791
  26 H :    0.022287
  27 H :    0.023203
  28 C :   -0.077135
  29 H :    0.019379
  30 H :    0.030996
  31 H :    0.030020
  32 H :    0.032122
  33 H :    0.033970

  Mayer bond orders larger than 0.100000
B(  0-S ,  1-C ) :   1.1231 B(  0-S ,  4-C ) :   1.1418 B(  1-C ,  2-C ) :   1.6447
B(  1-C , 32-H ) :   0.9625 B(  2-C ,  3-C ) :   1.2620 B(  2-C ,  6-C ) :   1.0005
B(  3-C ,  4-C ) :   1.5718 B(  3-C ,  5-H ) :   0.9848 B(  4-C , 20-C ) :   1.0504
B(  6-C ,  7-H ) :   0.9484 B(  6-C ,  8-H ) :   0.9507 B(  6-C ,  9-C ) :   1.0506
B(  9-C , 10-H ) :   0.9601 B(  9-C , 11-H ) :   0.9600 B(  9-C , 12-C ) :   1.0841
B( 12-C , 13-H ) :   0.9730 B( 12-C , 14-H ) :   0.9695 B( 12-C , 15-H ) :   0.9770
B( 16-S , 17-C ) :   1.1680 B( 16-S , 20-C ) :   1.1868 B( 17-C , 18-C ) :   1.5731
B( 17-C , 20-C ) :   0.1003 B( 17-C , 33-H ) :   0.9686 B( 18-C , 19-C ) :   1.2886
B( 18-C , 21-H ) :   0.9931 B( 19-C , 20-C ) :   1.5270 B( 19-C , 22-C ) :   1.0392
B( 22-C , 23-H ) :   0.9203 B( 22-C , 24-H ) :   0.9320 B( 22-C , 25-C ) :   1.0652
B( 25-C , 26-H ) :   0.9505 B( 25-C , 27-H ) :   0.9521 B( 25-C , 28-C ) :   1.0759
B( 28-C , 29-H ) :   0.9724 B( 28-C , 30-H ) :   0.9763 B( 28-C , 31-H ) :   0.9694

Dispersion correction           -0.014131405
FINAL SINGLE POINT ENERGY     -1339.859807732005

DIPOLE MOMENT
-------------
                                X             Y             Z
Electronic contribution:    -34.39798       4.72293      -2.43848
Nuclear contribution   :     35.11270      -5.02353       2.41178
                        -----------------------------------------
Total Dipole Moment    :      0.71473      -0.30060      -0.02671
                        -----------------------------------------
Magnitude (a.u.)       :      0.77583
Magnitude (Debye)      :      1.97200

Rotational constants in cm-1:     0.017366     0.009556     0.006481
Rotational constants in MHz :   520.620926   286.467964   194.292642

                             ****ORCA TERMINATED NORMALLY****
TOTAL RUN TIME: 0 days 0 hours 0 minutes 21 seconds 982 msec
