                         Program Version 4.2.1 -  RELEASE  -
|  1> ! wB97X-D3 SP def2-SVP
|  2> %pal
|  3> nprocs 24
|  4> end
|  5>
|  6> * xyz 0 1
|  7> S 	 -96.6645 	 -28.2298 	 -60.8186
|  8> C 	 -97.7201 	 -26.7784 	 -61.1788
|  9> C 	 -96.9988 	 -25.8037 	 -61.9011
| 10> C 	 -95.6401 	 -26.1866 	 -62.1159
| 11> C 	 -95.3122 	 -27.4427 	 -61.6826
| 12> H 	 -94.9364 	 -25.6398 	 -62.7158
| 13> C 	 -97.5676 	 -24.4324 	 -62.2115
| 14> H 	 -97.1067 	 -23.6214 	 -61.6825
| 15> H 	 -98.5861 	 -24.1989 	 -61.9204
| 16> C 	 -97.4607 	 -24.0593 	 -63.7392
| 17> H 	 -97.6396 	 -22.9986 	 -63.8763
| 18> H 	 -96.4174 	 -24.1848 	 -64.0167
| 19> C 	 -98.4617 	 -24.8809 	 -64.5871
| 20> H 	 -99.5383 	 -24.7305 	 -64.3784
| 21> H 	 -98.2845 	 -24.632 	 -65.6494
| 22> H 	 -98.205 	 -25.8975 	 -64.3386
| 23> S 	 -93.1134 	 -28.3935 	 -63.0723
| 24> C 	 -91.8532 	 -29.1909 	 -62.2223
| 25> C 	 -92.0585 	 -29.0606 	 -60.8764
| 26> C 	 -93.2756 	 -28.4558 	 -60.4762
| 27> C 	 -93.9467 	 -28.0236 	 -61.562
| 28> H 	 -91.3903 	 -29.4409 	 -60.1706
| 29> C 	 -93.7133 	 -28.3135 	 -59.0527
| 30> H 	 -93.0462 	 -28.9937 	 -58.4886
| 31> H 	 -94.778 	 -28.5714 	 -58.9252
| 32> C 	 -93.5358 	 -26.808 	 -58.5301
| 33> H 	 -94.2421 	 -26.1599 	 -58.962
| 34> H 	 -92.565 	 -26.3287 	 -58.5859
| 35> C 	 -93.9516 	 -26.7371 	 -57.0446
| 36> H 	 -93.7778 	 -25.6694 	 -56.7376
| 37> H 	 -93.3342 	 -27.3401 	 -56.4143
| 38> H 	 -94.9254 	 -27.0307 	 -56.9114
| 39> H 	 -98.7596 	 -26.7279 	 -60.8656
| 40> H 	 -91.0778 	 -29.6452 	 -62.7897
| 41> *
| 42>
| 43>                          ****END OF INPUT****

CARTESIAN COORDINATES (ANGSTROEM)
---------------------------------
  S    -96.664500  -28.229800  -60.818600
  C    -97.720100  -26.778400  -61.178800
  C    -96.998800  -25.803700  -61.901100
  C    -95.640100  -26.186600  -62.115900
  C    -95.312200  -27.442700  -61.682600
  H    -94.936400  -25.639800  -62.715800
  C    -97.567600  -24.432400  -62.211500
  H    -97.106700  -23.621400  -61.682500
  H    -98.586100  -24.198900  -61.920400
  C    -97.460700  -24.059300  -63.739200
  H    -97.639600  -22.998600  -63.876300
  H    -96.417400  -24.184800  -64.016700
  C    -98.461700  -24.880900  -64.587100
  H    -99.538300  -24.730500  -64.378400
  H    -98.284500  -24.632000  -65.649400
  H    -98.205000  -25.897500  -64.338600
  S    -93.113400  -28.393500  -63.072300
  C    -91.853200  -29.190900  -62.222300
  C    -92.058500  -29.060600  -60.876400
  C    -93.275600  -28.455800  -60.476200
  C    -93.946700  -28.023600  -61.562000
  H    -91.390300  -29.440900  -60.170600
  C    -93.713300  -28.313500  -59.052700
  H    -93.046200  -28.993700  -58.488600
  H    -94.778000  -28.571400  -58.925200
  C    -93.535800  -26.808000  -58.530100
  H    -94.242100  -26.159900  -58.962000
  H    -92.565000  -26.328700  -58.585900
  C    -93.951600  -26.737100  -57.044600
  H    -93.777800  -25.669400  -56.737600
  H    -93.334200  -27.340100  -56.414300
  H    -94.925400  -27.030700  -56.911400
  H    -98.759600  -26.727900  -60.865600
  H    -91.077800  -29.645200  -62.789700

 Total Charge           Charge          ....    0
 Multiplicity           Mult            ....    1
 Number of Electrons    NEL             ....  134
 Basis Dimension        Dim             ....  322

ORBITAL ENERGIES
----------------

  NO   OCC          E(Eh)            E(eV)
   0   2.0000     -88.968997     -2420.9695
   1   2.0000     -88.961168     -2420.7565
   2   2.0000     -10.334523      -281.2167
   3   2.0000     -10.326083      -280.9870
   4   2.0000     -10.321363      -280.8586
   5   2.0000     -10.313047      -280.6323
   6   2.0000     -10.311944      -280.6023
   7   2.0000     -10.297674      -280.2139
   8   2.0000     -10.296717      -280.1879
   9   2.0000     -10.295325      -280.1500
  10   2.0000     -10.292373      -280.0697
  11   2.0000     -10.287095      -279.9261
  12   2.0000     -10.286684      -279.9149
  13   2.0000     -10.281430      -279.7719
  14   2.0000     -10.276609      -279.6407
  15   2.0000     -10.266584      -279.3679
  16   2.0000      -8.081669      -219.9134
  17   2.0000      -8.076764      -219.7799
  18   2.0000      -6.040277      -164.3643
  19   2.0000      -6.036548      -164.2628
  20   2.0000      -6.035152      -164.2248
  21   2.0000      -6.032373      -164.1492
  22   2.0000      -6.031127      -164.1153
  23   2.0000      -6.027650      -164.0207
  24   2.0000      -1.007927       -27.4271
  25   2.0000      -0.979644       -26.6575
  26   2.0000      -0.908246       -24.7146
  27   2.0000      -0.903553       -24.5869
  28   2.0000      -0.863374       -23.4936
  29   2.0000      -0.855833       -23.2884
  30   2.0000      -0.841643       -22.9023
  31   2.0000      -0.813043       -22.1240
  32   2.0000      -0.781431       -21.2638
  33   2.0000      -0.772443       -21.0193
  34   2.0000      -0.705621       -19.2009
  35   2.0000      -0.698657       -19.0114
  36   2.0000      -0.687867       -18.7178
  37   2.0000      -0.674164       -18.3449
  38   2.0000      -0.640735       -17.4353
  39   2.0000      -0.624299       -16.9880
  40   2.0000      -0.602931       -16.4066
  41   2.0000      -0.569281       -15.4909
  42   2.0000      -0.563507       -15.3338
  43   2.0000      -0.546109       -14.8604
  44   2.0000      -0.533414       -14.5149
  45   2.0000      -0.524382       -14.2692
  46   2.0000      -0.520859       -14.1733
  47   2.0000      -0.513499       -13.9730
  48   2.0000      -0.506576       -13.7846
  49   2.0000      -0.493231       -13.4215
  50   2.0000      -0.488328       -13.2881
  51   2.0000      -0.481093       -13.0912
  52   2.0000      -0.470669       -12.8076
  53   2.0000      -0.464294       -12.6341
  54   2.0000      -0.460197       -12.5226
  55   2.0000      -0.444547       -12.0967
  56   2.0000      -0.440132       -11.9766
  57   2.0000      -0.438945       -11.9443
  58   2.0000      -0.432418       -11.7667
  59   2.0000      -0.426561       -11.6073
  60   2.0000      -0.418918       -11.3993
  61   2.0000      -0.415291       -11.3006
  62   2.0000      -0.412417       -11.2224
  63   2.0000      -0.342965        -9.3326
  64   2.0000      -0.332228        -9.0404
  65   2.0000      -0.330116        -8.9829
  66   2.0000      -0.297233        -8.0881
  67   0.0000       0.031500         0.8572
  68   0.0000       0.066849         1.8190
  69   0.0000       0.104453         2.8423
  70   0.0000       0.113217         3.0808
  71   0.0000       0.129496         3.5238

MULLIKEN ATOMIC CHARGES
-----------------------
   0 S :    0.082859
   1 C :   -0.140888
   2 C :   -0.043328
   3 C :    0.035439
   4 C :   -0.127897
   5 H :    0.015354
   6 C :    0.063433
   7 H :    0.028346
   8 H :    0.008807
   9 C :   -0.103550
  10 H :    0.021231
  11 H :    0.027163
  12 C :   -0.049019
  13 H :    0.035839
  14 H :    0.041547
  15 H :    0.038636
  16 S :    0.096556
  17 C :   -0.081206
  18 C :   -0.005677
  19 C :   -0.023541
  20 C :   -0.178092
  21 H :   -0.011331
  22 C :    0.070426
  23 H :    0.021732
  24 H :    0.035765
  25 C :   -0.069385
  26 H :    0.028856
  27 H :    0.032912
  28 C :   -0.024941
  29 H :    0.033010
  30 H :    0.014841
  31 H :    0.014265
  32 H :    0.059184
  33 H :    0.052653
Sum of atomic charges:    0.0000000

LOEWDIN ATOMIC CHARGES
----------------------
   0 S :    0.366137
   1 C :   -0.170943
   2 C :   -0.058139
   3 C :   -0.061002
   4 C :   -0.170402
   5 H :    0.030716
   6 C :   -0.034069
   7 H :    0.031467
   8 H :    0.028158
   9 C :   -0.038400
  10 H :    0.018555
  11 H :    0.019752
  12 C :   -0.067385
  13 H :    0.027332
  14 H :    0.029096
  15 H :    0.025293
  16 S :    0.408477
  17 C :   -0.183106
  18 C :   -0.064545
  19 C :   -0.063337
  20 C :   -0.194944
  21 H :    0.019317
  22 C :   -0.027411
  23 H :    0.031607
  24 H :    0.025483
  25 C :   -0.027468
  26 H :    0.020730
  27 H :    0.024413
  28 C :   -0.055874
  29 H :    0.031760
  30 H :    0.015233
  31 H :    0.010072
  32 H :    0.029131
  33 H :    0.024292

  Mayer bond orders larger than 0.100000
B(  0-S ,  1-C ) :   1.1215 B(  0-S ,  4-C ) :   1.1344 B(  1-C ,  2-C ) :   1.6059
B(  1-C , 32-H ) :   0.9707 B(  2-C ,  3-C ) :   1.2182 B(  2-C ,  6-C ) :   1.0268
B(  3-C ,  4-C ) :   1.6211 B(  3-C ,  5-H ) :   0.9854 B(  4-C , 20-C ) :   0.9858
B(  6-C ,  7-H ) :   0.9414 B(  6-C ,  8-H ) :   0.9473 B(  6-C ,  9-C ) :   1.0650
B(  9-C , 10-H ) :   0.9567 B(  9-C , 11-H ) :   0.9623 B(  9-C , 12-C ) :   1.0626
B( 12-C , 13-H ) :   0.9756 B( 12-C , 14-H ) :   0.9752 B( 12-C , 15-H ) :   0.9781
B( 16-S , 17-C ) :   1.1652 B( 16-S , 20-C ) :   1.1471 B( 17-C , 18-C ) :   1.5722
B( 17-C , 33-H ) :   0.9789 B( 18-C , 19-C ) :   1.2520 B( 18-C , 21-H ) :   0.9992
B( 19-C , 20-C ) :   1.6082 B( 19-C , 22-C ) :   1.0524 B( 22-C , 23-H ) :   0.9306
B( 22-C , 24-H ) :   0.9241 B( 22-C , 25-C ) :   1.0589 B( 25-C , 26-H ) :   0.9571
B( 25-C , 27-H ) :   0.9629 B( 25-C , 28-C ) :   1.0860 B( 28-C , 29-H ) :   0.9756
B( 28-C , 30-H ) :   0.9757 B( 28-C , 31-H ) :   0.9752

Dispersion correction           -0.014695461
FINAL SINGLE POINT ENERGY     -1339.875520244881

DIPOLE MOMENT
-------------
                                X             Y             Z
Electronic contribution:      6.81332     -16.18219      -6.95909
Nuclear contribution   :     -6.77226      16.60396       7.19315
                        -----------------------------------------
Total Dipole Moment    :      0.04106       0.42177       0.23406
                        -----------------------------------------
Magnitude (a.u.)       :      0.48410
Magnitude (Debye)      :      1.23049

Rotational constants in cm-1:     0.018911     0.008876     0.007084
Rotational constants in MHz :   566.922729   266.096544   212.384494

                             ****ORCA TERMINATED NORMALLY****
TOTAL RUN TIME: 0 days 0 hours 0 minutes 20 seconds 506 msec
