                         Program Version 4.2.1 -  RELEASE  -
|  1> ! wB97X-D3 SP def2-SVP
|  2> %pal
|  3> nprocs 24
|  4> end
|  5>
|  6> * xyz 0 1
|  7> S 	 -51.4135 	 16.7019 	 24.5808
|  8> C 	 -49.9242 	 15.7623 	 24.3712
|  9> C 	 -49.1555 	 15.8792 	 25.534
| 10> C 	 -49.8066 	 16.6024 	 26.5555
| 11> C 	 -51.04 	 17.1497 	 26.2948
| 12> H 	 -49.3003 	 16.8895 	 27.4937
| 13> C 	 -47.7607 	 15.1799 	 25.685
| 14> H 	 -47.5126 	 14.4954 	 24.8641
| 15> H 	 -47.8883 	 14.506 	 26.5534
| 16> C 	 -46.6544 	 16.2405 	 25.823
| 17> H 	 -46.9821 	 16.8842 	 26.5861
| 18> H 	 -45.7456 	 15.7313 	 26.0895
| 19> C 	 -46.2864 	 17.0752 	 24.523
| 20> H 	 -45.5532 	 17.8671 	 24.6266
| 21> H 	 -46.0611 	 16.3071 	 23.7787
| 22> H 	 -47.1768 	 17.4828 	 24.0666
| 23> S 	 -51.5556 	 19.8033 	 26.7971
| 24> C 	 -53.0178 	 20.3325 	 27.5642
| 25> C 	 -53.6637 	 19.238 	 28.1812
| 26> C 	 -53.0475 	 17.9792 	 27.7817
| 27> C 	 -51.8161 	 18.1063 	 27.1392
| 28> H 	 -54.6495 	 19.3659 	 28.5929
| 29> C 	 -53.6001 	 16.6796 	 28.2644
| 30> H 	 -52.8698 	 15.9218 	 27.882
| 31> H 	 -54.6496 	 16.4813 	 27.8974
| 32> C 	 -53.6545 	 16.5101 	 29.7709
| 33> H 	 -54.2631 	 17.332 	 30.231
| 34> H 	 -52.7143 	 16.5503 	 30.2216
| 35> C 	 -54.3722 	 15.2796 	 30.2364
| 36> H 	 -54.2564 	 14.3646 	 29.6329
| 37> H 	 -55.423 	 15.4748 	 30.1475
| 38> H 	 -54.1388 	 15.0526 	 31.3516
| 39> H 	 -49.8607 	 15.1159 	 23.4902
| 40> H 	 -53.3381 	 21.367 	 27.6177
| 41> *
| 42>
| 43>                          ****END OF INPUT****

CARTESIAN COORDINATES (ANGSTROEM)
---------------------------------
  S    -51.413500   16.701900   24.580800
  C    -49.924200   15.762300   24.371200
  C    -49.155500   15.879200   25.534000
  C    -49.806600   16.602400   26.555500
  C    -51.040000   17.149700   26.294800
  H    -49.300300   16.889500   27.493700
  C    -47.760700   15.179900   25.685000
  H    -47.512600   14.495400   24.864100
  H    -47.888300   14.506000   26.553400
  C    -46.654400   16.240500   25.823000
  H    -46.982100   16.884200   26.586100
  H    -45.745600   15.731300   26.089500
  C    -46.286400   17.075200   24.523000
  H    -45.553200   17.867100   24.626600
  H    -46.061100   16.307100   23.778700
  H    -47.176800   17.482800   24.066600
  S    -51.555600   19.803300   26.797100
  C    -53.017800   20.332500   27.564200
  C    -53.663700   19.238000   28.181200
  C    -53.047500   17.979200   27.781700
  C    -51.816100   18.106300   27.139200
  H    -54.649500   19.365900   28.592900
  C    -53.600100   16.679600   28.264400
  H    -52.869800   15.921800   27.882000
  H    -54.649600   16.481300   27.897400
  C    -53.654500   16.510100   29.770900
  H    -54.263100   17.332000   30.231000
  H    -52.714300   16.550300   30.221600
  C    -54.372200   15.279600   30.236400
  H    -54.256400   14.364600   29.632900
  H    -55.423000   15.474800   30.147500
  H    -54.138800   15.052600   31.351600
  H    -49.860700   15.115900   23.490200
  H    -53.338100   21.367000   27.617700

 Total Charge           Charge          ....    0
 Multiplicity           Mult            ....    1
 Number of Electrons    NEL             ....  134
 Basis Dimension        Dim             ....  322

ORBITAL ENERGIES
----------------

  NO   OCC          E(Eh)            E(eV)
   0   2.0000     -88.964836     -2420.8563
   1   2.0000     -88.961534     -2420.7664
   2   2.0000     -10.338075      -281.3133
   3   2.0000     -10.330092      -281.0961
   4   2.0000     -10.326217      -280.9907
   5   2.0000     -10.323421      -280.9146
   6   2.0000     -10.309736      -280.5422
   7   2.0000     -10.306960      -280.4666
   8   2.0000     -10.300157      -280.2815
   9   2.0000     -10.299868      -280.2737
  10   2.0000     -10.297598      -280.2119
  11   2.0000     -10.293006      -280.0869
  12   2.0000     -10.284372      -279.8520
  13   2.0000     -10.279206      -279.7114
  14   2.0000     -10.278817      -279.7008
  15   2.0000     -10.276437      -279.6361
  16   2.0000      -8.079984      -219.8675
  17   2.0000      -8.075278      -219.7395
  18   2.0000      -6.038464      -164.3150
  19   2.0000      -6.034194      -164.1988
  20   2.0000      -6.033866      -164.1899
  21   2.0000      -6.030957      -164.1107
  22   2.0000      -6.029768      -164.0783
  23   2.0000      -6.026124      -163.9792
  24   2.0000      -1.001804       -27.2605
  25   2.0000      -0.980730       -26.6870
  26   2.0000      -0.914381       -24.8816
  27   2.0000      -0.903317       -24.5805
  28   2.0000      -0.865705       -23.5570
  29   2.0000      -0.851590       -23.1729
  30   2.0000      -0.837957       -22.8020
  31   2.0000      -0.814690       -22.1688
  32   2.0000      -0.779414       -21.2089
  33   2.0000      -0.768536       -20.9129
  34   2.0000      -0.704426       -19.1684
  35   2.0000      -0.695581       -18.9277
  36   2.0000      -0.690346       -18.7853
  37   2.0000      -0.662697       -18.0329
  38   2.0000      -0.642043       -17.4709
  39   2.0000      -0.622288       -16.9333
  40   2.0000      -0.595080       -16.1930
  41   2.0000      -0.573033       -15.5930
  42   2.0000      -0.566835       -15.4244
  43   2.0000      -0.549236       -14.9455
  44   2.0000      -0.537005       -14.6126
  45   2.0000      -0.523914       -14.2564
  46   2.0000      -0.516147       -14.0451
  47   2.0000      -0.515163       -14.0183
  48   2.0000      -0.507606       -13.8127
  49   2.0000      -0.498346       -13.5607
  50   2.0000      -0.482102       -13.1187
  51   2.0000      -0.473526       -12.8853
  52   2.0000      -0.470284       -12.7971
  53   2.0000      -0.461486       -12.5577
  54   2.0000      -0.458206       -12.4684
  55   2.0000      -0.447150       -12.1676
  56   2.0000      -0.446344       -12.1456
  57   2.0000      -0.434328       -11.8187
  58   2.0000      -0.431812       -11.7502
  59   2.0000      -0.421996       -11.4831
  60   2.0000      -0.418764       -11.3951
  61   2.0000      -0.409526       -11.1438
  62   2.0000      -0.400128       -10.8880
  63   2.0000      -0.335162        -9.1202
  64   2.0000      -0.330356        -8.9895
  65   2.0000      -0.320658        -8.7256
  66   2.0000      -0.315173        -8.5763
  67   0.0000       0.039943         1.0869
  68   0.0000       0.042593         1.1590
  69   0.0000       0.105935         2.8826
  70   0.0000       0.126170         3.4333
  71   0.0000       0.130667         3.5556

MULLIKEN ATOMIC CHARGES
-----------------------
   0 S :    0.088560
   1 C :   -0.147303
   2 C :   -0.081250
   3 C :    0.020578
   4 C :   -0.145045
   5 H :    0.027391
   6 C :    0.048669
   7 H :    0.019619
   8 H :    0.044204
   9 C :   -0.054960
  10 H :    0.019686
  11 H :    0.029843
  12 C :   -0.046426
  13 H :    0.051225
  14 H :    0.017418
  15 H :    0.025875
  16 S :    0.106153
  17 C :   -0.098701
  18 C :   -0.018485
  19 C :   -0.058487
  20 C :   -0.149125
  21 H :    0.029705
  22 C :    0.042735
  23 H :    0.038851
  24 H :    0.034513
  25 C :   -0.058865
  26 H :    0.026594
  27 H :    0.017836
  28 C :   -0.074254
  29 H :    0.032126
  30 H :    0.020959
  31 H :    0.050247
  32 H :    0.071947
  33 H :    0.068168
Sum of atomic charges:   -0.0000000

LOEWDIN ATOMIC CHARGES
----------------------
   0 S :    0.369289
   1 C :   -0.183759
   2 C :   -0.069496
   3 C :   -0.067838
   4 C :   -0.184907
   5 H :    0.036365
   6 C :   -0.026424
   7 H :    0.026612
   8 H :    0.036405
   9 C :   -0.033099
  10 H :    0.013817
  11 H :    0.021850
  12 C :   -0.065658
  13 H :    0.028553
  14 H :    0.025130
  15 H :    0.023766
  16 S :    0.421736
  17 C :   -0.177592
  18 C :   -0.076639
  19 C :   -0.043931
  20 C :   -0.217772
  21 H :    0.030644
  22 C :   -0.038041
  23 H :    0.038065
  24 H :    0.036639
  25 C :   -0.042529
  26 H :    0.027782
  27 H :    0.015463
  28 C :   -0.073351
  29 H :    0.023822
  30 H :    0.019510
  31 H :    0.039331
  32 H :    0.034017
  33 H :    0.032239

  Mayer bond orders larger than 0.100000
B(  0-S ,  1-C ) :   1.1553 B(  0-S ,  4-C ) :   1.1294 B(  1-C ,  2-C ) :   1.5744
B(  1-C ,  4-C ) :   0.1044 B(  1-C , 32-H ) :   0.9716 B(  2-C ,  3-C ) :   1.2664
B(  2-C ,  6-C ) :   1.0049 B(  3-C ,  4-C ) :   1.5841 B(  3-C ,  5-H ) :   0.9812
B(  4-C , 20-C ) :   1.0213 B(  6-C ,  7-H ) :   0.9503 B(  6-C ,  8-H ) :   0.9471
B(  6-C ,  9-C ) :   1.0634 B(  9-C , 10-H ) :   0.9623 B(  9-C , 11-H ) :   0.9585
B(  9-C , 12-C ) :   1.0616 B( 12-C , 13-H ) :   0.9780 B( 12-C , 14-H ) :   0.9730
B( 12-C , 15-H ) :   0.9760 B( 16-S , 17-C ) :   1.1967 B( 16-S , 20-C ) :   1.1322
B( 17-C , 18-C ) :   1.5726 B( 17-C , 33-H ) :   0.9669 B( 18-C , 19-C ) :   1.2480
B( 18-C , 21-H ) :   0.9863 B( 19-C , 20-C ) :   1.5817 B( 19-C , 22-C ) :   1.0596
B( 22-C , 23-H ) :   0.9323 B( 22-C , 24-H ) :   0.9299 B( 22-C , 25-C ) :   1.0725
B( 25-C , 26-H ) :   0.9526 B( 25-C , 27-H ) :   0.9559 B( 25-C , 28-C ) :   1.0762
B( 28-C , 29-H ) :   0.9738 B( 28-C , 30-H ) :   0.9756 B( 28-C , 31-H ) :   0.9732

Dispersion correction           -0.013855602
FINAL SINGLE POINT ENERGY     -1339.866831818070

DIPOLE MOMENT
-------------
                                X             Y             Z
Electronic contribution:     -6.85528      12.94943     -10.16267
Nuclear contribution   :      6.84335     -13.15076      10.40749
                        -----------------------------------------
Total Dipole Moment    :     -0.01193      -0.20133       0.24482
                        -----------------------------------------
Magnitude (a.u.)       :      0.31720
Magnitude (Debye)      :      0.80626

Rotational constants in cm-1:     0.020133     0.007526     0.006552
Rotational constants in MHz :   603.584200   225.623410   196.432475

                             ****ORCA TERMINATED NORMALLY****
TOTAL RUN TIME: 0 days 0 hours 0 minutes 20 seconds 755 msec
