                         Program Version 4.2.1 -  RELEASE  -
|  1> ! wB97X-D3 SP def2-SVP
|  2> %pal
|  3> nprocs 24
|  4> end
|  5>
|  6> * xyz 0 1
|  7> S 	 -84.6 	 -48.34 	 -84.4404
|  8> C 	 -85.595 	 -48.0167 	 -83.0516
|  9> C 	 -84.9392 	 -47.1697 	 -82.2488
| 10> C 	 -83.4869 	 -46.9819 	 -82.5547
| 11> C 	 -83.0914 	 -47.6984 	 -83.7065
| 12> H 	 -82.7493 	 -46.2939 	 -82.0395
| 13> C 	 -85.4546 	 -46.3496 	 -81.0676
| 14> H 	 -86.4754 	 -45.917 	 -81.3204
| 15> H 	 -84.8376 	 -45.4288 	 -81.0298
| 16> C 	 -85.6173 	 -47.1938 	 -79.7944
| 17> H 	 -86.0733 	 -48.1542 	 -79.9627
| 18> H 	 -84.5844 	 -47.469 	 -79.5335
| 19> C 	 -86.3832 	 -46.5914 	 -78.6117
| 20> H 	 -86.2374 	 -47.2102 	 -77.733
| 21> H 	 -86.1583 	 -45.5465 	 -78.3238
| 22> H 	 -87.51 	 -46.6502 	 -78.5013
| 23> S 	 -81.6994 	 -47.9859 	 -86.0166
| 24> C 	 -80.0384 	 -47.7704 	 -85.9732
| 25> C 	 -79.4816 	 -47.8363 	 -84.7081
| 26> C 	 -80.4495 	 -47.8 	 -83.6877
| 27> C 	 -81.757 	 -47.944 	 -84.2582
| 28> H 	 -78.4715 	 -47.7388 	 -84.5673
| 29> C 	 -79.9641 	 -47.8036 	 -82.2089
| 30> H 	 -80.4026 	 -46.9709 	 -81.6378
| 31> H 	 -78.8876 	 -47.6662 	 -82.1558
| 32> C 	 -80.2132 	 -49.0575 	 -81.406
| 33> H 	 -79.7129 	 -49.8564 	 -81.9041
| 34> H 	 -81.2353 	 -49.3545 	 -81.3975
| 35> C 	 -79.8741 	 -48.9209 	 -79.9422
| 36> H 	 -78.8638 	 -48.8298 	 -79.7643
| 37> H 	 -80.363 	 -49.699 	 -79.3768
| 38> H 	 -80.3441 	 -48.0366 	 -79.5482
| 39> H 	 -86.6636 	 -48.2599 	 -82.9862
| 40> H 	 -79.4551 	 -47.4364 	 -86.776
| 41> *
| 42>
| 43>                          ****END OF INPUT****

CARTESIAN COORDINATES (ANGSTROEM)
---------------------------------
  S    -84.600000  -48.340000  -84.440400
  C    -85.595000  -48.016700  -83.051600
  C    -84.939200  -47.169700  -82.248800
  C    -83.486900  -46.981900  -82.554700
  C    -83.091400  -47.698400  -83.706500
  H    -82.749300  -46.293900  -82.039500
  C    -85.454600  -46.349600  -81.067600
  H    -86.475400  -45.917000  -81.320400
  H    -84.837600  -45.428800  -81.029800
  C    -85.617300  -47.193800  -79.794400
  H    -86.073300  -48.154200  -79.962700
  H    -84.584400  -47.469000  -79.533500
  C    -86.383200  -46.591400  -78.611700
  H    -86.237400  -47.210200  -77.733000
  H    -86.158300  -45.546500  -78.323800
  H    -87.510000  -46.650200  -78.501300
  S    -81.699400  -47.985900  -86.016600
  C    -80.038400  -47.770400  -85.973200
  C    -79.481600  -47.836300  -84.708100
  C    -80.449500  -47.800000  -83.687700
  C    -81.757000  -47.944000  -84.258200
  H    -78.471500  -47.738800  -84.567300
  C    -79.964100  -47.803600  -82.208900
  H    -80.402600  -46.970900  -81.637800
  H    -78.887600  -47.666200  -82.155800
  C    -80.213200  -49.057500  -81.406000
  H    -79.712900  -49.856400  -81.904100
  H    -81.235300  -49.354500  -81.397500
  C    -79.874100  -48.920900  -79.942200
  H    -78.863800  -48.829800  -79.764300
  H    -80.363000  -49.699000  -79.376800
  H    -80.344100  -48.036600  -79.548200
  H    -86.663600  -48.259900  -82.986200
  H    -79.455100  -47.436400  -86.776000

 Total Charge           Charge          ....    0
 Multiplicity           Mult            ....    1
 Number of Electrons    NEL             ....  134
 Basis Dimension        Dim             ....  322

ORBITAL ENERGIES
----------------

  NO   OCC          E(Eh)            E(eV)
   0   2.0000     -88.973237     -2421.0849
   1   2.0000     -88.958195     -2420.6756
   2   2.0000     -10.338058      -281.3129
   3   2.0000     -10.335245      -281.2363
   4   2.0000     -10.314853      -280.6814
   5   2.0000     -10.311647      -280.5942
   6   2.0000     -10.311105      -280.5794
   7   2.0000     -10.302426      -280.3433
   8   2.0000     -10.301766      -280.3253
   9   2.0000     -10.297261      -280.2027
  10   2.0000     -10.296346      -280.1778
  11   2.0000     -10.289995      -280.0050
  12   2.0000     -10.287580      -279.9393
  13   2.0000     -10.282964      -279.8137
  14   2.0000     -10.273492      -279.5559
  15   2.0000     -10.267516      -279.3933
  16   2.0000      -8.089262      -220.1200
  17   2.0000      -8.072912      -219.6751
  18   2.0000      -6.047467      -164.5599
  19   2.0000      -6.043583      -164.4543
  20   2.0000      -6.040270      -164.3641
  21   2.0000      -6.031804      -164.1337
  22   2.0000      -6.027591      -164.0191
  23   2.0000      -6.023089      -163.8966
  24   2.0000      -1.009396       -27.4671
  25   2.0000      -0.983213       -26.7546
  26   2.0000      -0.917230       -24.9591
  27   2.0000      -0.904621       -24.6160
  28   2.0000      -0.871017       -23.7016
  29   2.0000      -0.862519       -23.4703
  30   2.0000      -0.837677       -22.7943
  31   2.0000      -0.812101       -22.0984
  32   2.0000      -0.786555       -21.4032
  33   2.0000      -0.771939       -21.0055
  34   2.0000      -0.709707       -19.3121
  35   2.0000      -0.703408       -19.1407
  36   2.0000      -0.694034       -18.8856
  37   2.0000      -0.670258       -18.2387
  38   2.0000      -0.634722       -17.2717
  39   2.0000      -0.614913       -16.7326
  40   2.0000      -0.601624       -16.3710
  41   2.0000      -0.576120       -15.6770
  42   2.0000      -0.565974       -15.4009
  43   2.0000      -0.547644       -14.9022
  44   2.0000      -0.527689       -14.3591
  45   2.0000      -0.522742       -14.2245
  46   2.0000      -0.517941       -14.0939
  47   2.0000      -0.511846       -13.9280
  48   2.0000      -0.509013       -13.8509
  49   2.0000      -0.504637       -13.7319
  50   2.0000      -0.490859       -13.3570
  51   2.0000      -0.489641       -13.3238
  52   2.0000      -0.481511       -13.1026
  53   2.0000      -0.460989       -12.5442
  54   2.0000      -0.459077       -12.4921
  55   2.0000      -0.453456       -12.3392
  56   2.0000      -0.442266       -12.0347
  57   2.0000      -0.434392       -11.8204
  58   2.0000      -0.433080       -11.7847
  59   2.0000      -0.425012       -11.5652
  60   2.0000      -0.418842       -11.3973
  61   2.0000      -0.410653       -11.1744
  62   2.0000      -0.401123       -10.9151
  63   2.0000      -0.360631        -9.8133
  64   2.0000      -0.341256        -9.2861
  65   2.0000      -0.318416        -8.6646
  66   2.0000      -0.278891        -7.5890
  67   0.0000       0.016269         0.4427
  68   0.0000       0.071016         1.9324
  69   0.0000       0.098932         2.6921
  70   0.0000       0.120879         3.2893
  71   0.0000       0.128223         3.4891

MULLIKEN ATOMIC CHARGES
-----------------------
   0 S :    0.068542
   1 C :   -0.118189
   2 C :   -0.093484
   3 C :   -0.033418
   4 C :   -0.107918
   5 H :    0.041458
   6 C :    0.038374
   7 H :    0.026577
   8 H :    0.034274
   9 C :   -0.030913
  10 H :    0.026490
  11 H :    0.022654
  12 C :   -0.069743
  13 H :    0.021044
  14 H :    0.034721
  15 H :    0.031396
  16 S :    0.129327
  17 C :   -0.068069
  18 C :   -0.003632
  19 C :   -0.045323
  20 C :   -0.127931
  21 H :   -0.015724
  22 C :    0.056038
  23 H :    0.018997
  24 H :    0.014757
  25 C :   -0.051413
  26 H :    0.017612
  27 H :    0.022924
  28 C :   -0.000479
  29 H :    0.016224
  30 H :    0.030665
  31 H :    0.009221
  32 H :    0.061567
  33 H :    0.043371
Sum of atomic charges:    0.0000000

LOEWDIN ATOMIC CHARGES
----------------------
   0 S :    0.366866
   1 C :   -0.201787
   2 C :   -0.064625
   3 C :   -0.087915
   4 C :   -0.172751
   5 H :    0.039438
   6 C :   -0.038848
   7 H :    0.030877
   8 H :    0.033260
   9 C :   -0.042352
  10 H :    0.028018
  11 H :    0.027546
  12 C :   -0.087508
  13 H :    0.028423
  14 H :    0.025212
  15 H :    0.033261
  16 S :    0.452331
  17 C :   -0.194330
  18 C :   -0.063025
  19 C :   -0.038585
  20 C :   -0.200809
  21 H :    0.017118
  22 C :   -0.027168
  23 H :    0.027015
  24 H :    0.029464
  25 C :   -0.038053
  26 H :    0.020238
  27 H :    0.023376
  28 C :   -0.052209
  29 H :    0.012032
  30 H :    0.030859
  31 H :    0.023756
  32 H :    0.039282
  33 H :    0.021596

  Mayer bond orders larger than 0.100000
B(  0-S ,  1-C ) :   1.1062 B(  0-S ,  4-C ) :   1.1268 B(  1-C ,  2-C ) :   1.6644
B(  1-C , 32-H ) :   0.9670 B(  2-C ,  3-C ) :   1.1946 B(  2-C ,  6-C ) :   1.0181
B(  3-C ,  4-C ) :   1.5947 B(  3-C ,  5-H ) :   0.9779 B(  4-C , 20-C ) :   1.0674
B(  6-C ,  7-H ) :   0.9452 B(  6-C ,  8-H ) :   0.9456 B(  6-C ,  9-C ) :   1.0527
B(  9-C , 10-H ) :   0.9564 B(  9-C , 11-H ) :   0.9534 B(  9-C , 12-C ) :   1.0731
B( 12-C , 13-H ) :   0.9686 B( 12-C , 14-H ) :   0.9772 B( 12-C , 15-H ) :   0.9728
B( 16-S , 17-C ) :   1.2045 B( 16-S , 20-C ) :   1.1501 B( 17-C , 18-C ) :   1.5526
B( 17-C , 33-H ) :   0.9693 B( 18-C , 19-C ) :   1.2985 B( 18-C , 21-H ) :   1.0007
B( 19-C , 20-C ) :   1.5279 B( 19-C , 22-C ) :   1.0331 B( 22-C , 23-H ) :   0.9331
B( 22-C , 24-H ) :   0.9388 B( 22-C , 25-C ) :   1.0715 B( 25-C , 26-H ) :   0.9510
B( 25-C , 27-H ) :   0.9535 B( 25-C , 28-C ) :   1.0868 B( 28-C , 29-H ) :   0.9772
B( 28-C , 30-H ) :   0.9716 B( 28-C , 31-H ) :   0.9677

Dispersion correction           -0.013590879
FINAL SINGLE POINT ENERGY     -1339.842905542670

DIPOLE MOMENT
-------------
                                X             Y             Z
Electronic contribution:     -0.07865      -3.01286     -32.95552
Nuclear contribution   :      0.41969       3.29628      33.49443
                        -----------------------------------------
Total Dipole Moment    :      0.34104       0.28343       0.53891
                        -----------------------------------------
Magnitude (a.u.)       :      0.69790
Magnitude (Debye)      :      1.77392

Rotational constants in cm-1:     0.017967     0.008694     0.006271
Rotational constants in MHz :   538.631713   260.649242   187.997273

                             ****ORCA TERMINATED NORMALLY****
TOTAL RUN TIME: 0 days 0 hours 0 minutes 22 seconds 426 msec
