                         Program Version 4.2.1 -  RELEASE  -
|  1> ! wB97X-D3 SP def2-SVP
|  2> %pal
|  3> nprocs 16
|  4> end
|  5>
|  6> * xyz 0 1
|  7> S 	 42.3467 	 25.6966 	 93.3508
|  8> C 	 43.9027 	 25.8629 	 94.1988
|  9> C 	 44.0463 	 24.9452 	 95.2307
| 10> C 	 43.1366 	 23.8879 	 95.133
| 11> C 	 42.1553 	 24.1526 	 94.1589
| 12> H 	 43.1488 	 22.9156 	 95.5887
| 13> C 	 45.2174 	 24.9316 	 96.2291
| 14> H 	 45.8935 	 25.8557 	 96.2222
| 15> H 	 45.873 	 24.1405 	 95.8973
| 16> C 	 44.9346 	 24.6103 	 97.7662
| 17> H 	 44.1653 	 25.2548 	 98.1061
| 18> H 	 44.4837 	 23.6554 	 97.8653
| 19> C 	 46.0727 	 24.7427 	 98.6947
| 20> H 	 46.7844 	 23.9157 	 98.5417
| 21> H 	 46.5179 	 25.7563 	 98.4987
| 22> H 	 45.7734 	 24.6284 	 99.764
| 23> S 	 40.295 	 22.4283 	 95.2526
| 24> C 	 39.2898 	 21.5243 	 94.2262
| 25> C 	 39.389 	 21.8428 	 92.9022
| 26> C 	 40.3836 	 22.884 	 92.6925
| 27> C 	 41.1172 	 23.1829 	 93.8651
| 28> H 	 38.7054 	 21.4337 	 92.1979
| 29> C 	 40.6592 	 23.4639 	 91.3165
| 30> H 	 41.0923 	 24.4081 	 91.4648
| 31> H 	 39.7289 	 23.4176 	 90.7674
| 32> C 	 41.7274 	 22.7109 	 90.5812
| 33> H 	 41.3326 	 21.8392 	 90.1895
| 34> H 	 42.5104 	 22.3632 	 91.1971
| 35> C 	 42.2086 	 23.5543 	 89.3174
| 36> H 	 41.3845 	 23.7649 	 88.6148
| 37> H 	 43.0676 	 23.0964 	 88.8612
| 38> H 	 42.6091 	 24.4808 	 89.6287
| 39> H 	 44.5064 	 26.7199 	 94.0942
| 40> H 	 38.5393 	 20.7942 	 94.6279
| 41> *
| 42>
| 43>                          ****END OF INPUT****

CARTESIAN COORDINATES (ANGSTROEM)
---------------------------------
  S     42.346700   25.696600   93.350800
  C     43.902700   25.862900   94.198800
  C     44.046300   24.945200   95.230700
  C     43.136600   23.887900   95.133000
  C     42.155300   24.152600   94.158900
  H     43.148800   22.915600   95.588700
  C     45.217400   24.931600   96.229100
  H     45.893500   25.855700   96.222200
  H     45.873000   24.140500   95.897300
  C     44.934600   24.610300   97.766200
  H     44.165300   25.254800   98.106100
  H     44.483700   23.655400   97.865300
  C     46.072700   24.742700   98.694700
  H     46.784400   23.915700   98.541700
  H     46.517900   25.756300   98.498700
  H     45.773400   24.628400   99.764000
  S     40.295000   22.428300   95.252600
  C     39.289800   21.524300   94.226200
  C     39.389000   21.842800   92.902200
  C     40.383600   22.884000   92.692500
  C     41.117200   23.182900   93.865100
  H     38.705400   21.433700   92.197900
  C     40.659200   23.463900   91.316500
  H     41.092300   24.408100   91.464800
  H     39.728900   23.417600   90.767400
  C     41.727400   22.710900   90.581200
  H     41.332600   21.839200   90.189500
  H     42.510400   22.363200   91.197100
  C     42.208600   23.554300   89.317400
  H     41.384500   23.764900   88.614800
  H     43.067600   23.096400   88.861200
  H     42.609100   24.480800   89.628700
  H     44.506400   26.719900   94.094200
  H     38.539300   20.794200   94.627900

 Total Charge           Charge          ....    0
 Multiplicity           Mult            ....    1
 Number of Electrons    NEL             ....  134
 Basis Dimension        Dim             ....  322

ORBITAL ENERGIES
----------------

  NO   OCC          E(Eh)            E(eV)
   0   2.0000     -88.973204     -2421.0840
   1   2.0000     -88.963527     -2420.8206
   2   2.0000     -10.331709      -281.1401
   3   2.0000     -10.325769      -280.9784
   4   2.0000     -10.315965      -280.7117
   5   2.0000     -10.312357      -280.6135
   6   2.0000     -10.306557      -280.4557
   7   2.0000     -10.306399      -280.4514
   8   2.0000     -10.301650      -280.3222
   9   2.0000     -10.292737      -280.0796
  10   2.0000     -10.291615      -280.0491
  11   2.0000     -10.283835      -279.8374
  12   2.0000     -10.280730      -279.7529
  13   2.0000     -10.278908      -279.7033
  14   2.0000     -10.272257      -279.5223
  15   2.0000     -10.271770      -279.5091
  16   2.0000      -8.086775      -220.0523
  17   2.0000      -8.078835      -219.8363
  18   2.0000      -6.045245      -164.4995
  19   2.0000      -6.041654      -164.4018
  20   2.0000      -6.037449      -164.2873
  21   2.0000      -6.037242      -164.2817
  22   2.0000      -6.033303      -164.1745
  23   2.0000      -6.029629      -164.0745
  24   2.0000      -1.005365       -27.3574
  25   2.0000      -0.983500       -26.7624
  26   2.0000      -0.913451       -24.8563
  27   2.0000      -0.907846       -24.7038
  28   2.0000      -0.871402       -23.7121
  29   2.0000      -0.856934       -23.3184
  30   2.0000      -0.843442       -22.9512
  31   2.0000      -0.810283       -22.0489
  32   2.0000      -0.781898       -21.2765
  33   2.0000      -0.768496       -20.9118
  34   2.0000      -0.711209       -19.3530
  35   2.0000      -0.699567       -19.0362
  36   2.0000      -0.690788       -18.7973
  37   2.0000      -0.665460       -18.1081
  38   2.0000      -0.637318       -17.3423
  39   2.0000      -0.618660       -16.8346
  40   2.0000      -0.596332       -16.2270
  41   2.0000      -0.574652       -15.6371
  42   2.0000      -0.567863       -15.4523
  43   2.0000      -0.562090       -15.2952
  44   2.0000      -0.522512       -14.2183
  45   2.0000      -0.522015       -14.2047
  46   2.0000      -0.512665       -13.9503
  47   2.0000      -0.509797       -13.8723
  48   2.0000      -0.508037       -13.8244
  49   2.0000      -0.494372       -13.4525
  50   2.0000      -0.484655       -13.1881
  51   2.0000      -0.480056       -13.0630
  52   2.0000      -0.473654       -12.8888
  53   2.0000      -0.470946       -12.8151
  54   2.0000      -0.458724       -12.4825
  55   2.0000      -0.453996       -12.3539
  56   2.0000      -0.445995       -12.1361
  57   2.0000      -0.439537       -11.9604
  58   2.0000      -0.438801       -11.9404
  59   2.0000      -0.423509       -11.5243
  60   2.0000      -0.419061       -11.4032
  61   2.0000      -0.418057       -11.3759
  62   2.0000      -0.411872       -11.2076
  63   2.0000      -0.348918        -9.4945
  64   2.0000      -0.335319        -9.1245
  65   2.0000      -0.327663        -8.9162
  66   2.0000      -0.282167        -7.6782
  67   0.0000       0.020298         0.5523
  68   0.0000       0.079648         2.1673
  69   0.0000       0.099236         2.7004
  70   0.0000       0.113944         3.1006
  71   0.0000       0.125199         3.4068

MULLIKEN ATOMIC CHARGES
-----------------------
   0 S :    0.110071
   1 C :   -0.114573
   2 C :   -0.011081
   3 C :   -0.023654
   4 C :   -0.113343
   5 H :    0.022057
   6 C :    0.015547
   7 H :    0.026201
   8 H :    0.036203
   9 C :   -0.052014
  10 H :    0.019675
  11 H :    0.013487
  12 C :   -0.067125
  13 H :    0.032197
  14 H :    0.040063
  15 H :    0.044461
  16 S :    0.103304
  17 C :   -0.097110
  18 C :   -0.019625
  19 C :   -0.094087
  20 C :   -0.155323
  21 H :    0.008551
  22 C :    0.123687
  23 H :   -0.005014
  24 H :    0.023691
  25 C :   -0.031904
  26 H :   -0.000325
  27 H :    0.023182
  28 C :   -0.041213
  29 H :    0.037060
  30 H :    0.027593
  31 H :    0.016046
  32 H :    0.031268
  33 H :    0.072046
Sum of atomic charges:    0.0000000

LOEWDIN ATOMIC CHARGES
----------------------
   0 S :    0.405333
   1 C :   -0.184681
   2 C :   -0.053798
   3 C :   -0.065847
   4 C :   -0.184423
   5 H :    0.029686
   6 C :   -0.033639
   7 H :    0.032796
   8 H :    0.030873
   9 C :   -0.044743
  10 H :    0.020083
  11 H :    0.016699
  12 C :   -0.068073
  13 H :    0.025049
  14 H :    0.030957
  15 H :    0.034832
  16 S :    0.416319
  17 C :   -0.201089
  18 C :   -0.076842
  19 C :   -0.043515
  20 C :   -0.199027
  21 H :    0.028425
  22 C :   -0.027599
  23 H :    0.007729
  24 H :    0.032937
  25 C :   -0.024636
  26 H :    0.011818
  27 H :    0.021867
  28 C :   -0.060347
  29 H :    0.028420
  30 H :    0.024348
  31 H :    0.015945
  32 H :    0.015503
  33 H :    0.038638

  Mayer bond orders larger than 0.100000
B(  0-S ,  1-C ) :   1.1210 B(  0-S ,  4-C ) :   1.1462 B(  1-C ,  2-C ) :   1.6118
B(  1-C , 32-H ) :   0.9715 B(  2-C ,  3-C ) :   1.2193 B(  2-C ,  6-C ) :   1.0255
B(  3-C ,  4-C ) :   1.5394 B(  3-C ,  5-H ) :   0.9980 B(  4-C , 20-C ) :   1.0997
B(  6-C ,  7-H ) :   0.9493 B(  6-C ,  8-H ) :   0.9413 B(  6-C ,  9-C ) :   1.0466
B(  9-C , 10-H ) :   0.9554 B(  9-C , 11-H ) :   0.9475 B(  9-C , 12-C ) :   1.1027
B( 12-C , 13-H ) :   0.9744 B( 12-C , 14-H ) :   0.9711 B( 12-C , 15-H ) :   0.9702
B( 16-S , 17-C ) :   1.1713 B( 16-S , 20-C ) :   1.1271 B( 17-C , 18-C ) :   1.6069
B( 17-C , 33-H ) :   0.9563 B( 18-C , 19-C ) :   1.2302 B( 18-C , 21-H ) :   0.9982
B( 19-C , 20-C ) :   1.5562 B( 19-C , 22-C ) :   1.0620 B( 22-C , 23-H ) :   0.9260
B( 22-C , 24-H ) :   0.9241 B( 22-C , 25-C ) :   1.0735 B( 25-C , 26-H ) :   0.9494
B( 25-C , 27-H ) :   0.9566 B( 25-C , 28-C ) :   1.0759 B( 28-C , 29-H ) :   0.9753
B( 28-C , 30-H ) :   0.9744 B( 28-C , 31-H ) :   0.9773

Dispersion correction           -0.013842740
FINAL SINGLE POINT ENERGY     -1339.864682677170

DIPOLE MOMENT
-------------
                                X             Y             Z
Electronic contribution:    -15.31316       0.20364       1.45771
Nuclear contribution   :     15.43875      -0.38151      -1.45881
                        -----------------------------------------
Total Dipole Moment    :      0.12559      -0.17787      -0.00110
                        -----------------------------------------
Magnitude (a.u.)       :      0.21774
Magnitude (Debye)      :      0.55345

Rotational constants in cm-1:     0.020121     0.008048     0.006280
Rotational constants in MHz :   603.210117   241.275406   188.267743

                             ****ORCA TERMINATED NORMALLY****
TOTAL RUN TIME: 0 days 0 hours 0 minutes 30 seconds 877 msec
