                         Program Version 4.2.1 -  RELEASE  -
|  1> ! wB97X-D3 SP def2-SVP
|  2> %pal
|  3> nprocs 16
|  4> end
|  5>
|  6> * xyz 0 1
|  7> S 	 -33.7164 	 58.5339 	 101.816
|  8> C 	 -33.2693 	 57.7789 	 100.323
|  9> C 	 -33.7029 	 56.4871 	 100.143
| 10> C 	 -34.404 	 56.0712 	 101.311
| 11> C 	 -34.65 	 57.0752 	 102.217
| 12> H 	 -34.904 	 55.0955 	 101.431
| 13> C 	 -33.4616 	 55.7033 	 98.8878
| 14> H 	 -33.017 	 54.7319 	 99.1206
| 15> H 	 -32.7245 	 56.1992 	 98.268
| 16> C 	 -34.7868 	 55.2893 	 98.205
| 17> H 	 -35.2764 	 56.1694 	 97.9351
| 18> H 	 -34.5537 	 54.8051 	 97.2991
| 19> C 	 -35.7101 	 54.4403 	 99.061
| 20> H 	 -35.2474 	 53.8355 	 99.7784
| 21> H 	 -36.3038 	 55.0122 	 99.7508
| 22> H 	 -36.2684 	 53.6889 	 98.4511
| 23> S 	 -36.7746 	 55.8547 	 103.596
| 24> C 	 -37.0866 	 56.3902 	 105.198
| 25> C 	 -36.0189 	 57.0486 	 105.717
| 26> C 	 -35.055 	 57.3344 	 104.754
| 27> C 	 -35.3879 	 56.9934 	 103.472
| 28> H 	 -36.0194 	 57.371 	 106.747
| 29> C 	 -33.9624 	 58.2827 	 105.068
| 30> H 	 -33.3384 	 58.3951 	 104.231
| 31> H 	 -33.3199 	 57.8368 	 105.871
| 32> C 	 -34.4425 	 59.6818 	 105.477
| 33> H 	 -34.9872 	 59.6308 	 106.368
| 34> H 	 -35.1148 	 60.0971 	 104.743
| 35> C 	 -33.3018 	 60.6899 	 105.832
| 36> H 	 -33.7724 	 61.6399 	 106.187
| 37> H 	 -32.782 	 60.8323 	 104.943
| 38> H 	 -32.7989 	 60.3298 	 106.792
| 39> H 	 -32.7046 	 58.2813 	 99.6054
| 40> H 	 -37.7628 	 55.8793 	 105.953
| 41> *
| 42>
| 43>                          ****END OF INPUT****

CARTESIAN COORDINATES (ANGSTROEM)
---------------------------------
  S    -33.716400   58.533900  101.816000
  C    -33.269300   57.778900  100.323000
  C    -33.702900   56.487100  100.143000
  C    -34.404000   56.071200  101.311000
  C    -34.650000   57.075200  102.217000
  H    -34.904000   55.095500  101.431000
  C    -33.461600   55.703300   98.887800
  H    -33.017000   54.731900   99.120600
  H    -32.724500   56.199200   98.268000
  C    -34.786800   55.289300   98.205000
  H    -35.276400   56.169400   97.935100
  H    -34.553700   54.805100   97.299100
  C    -35.710100   54.440300   99.061000
  H    -35.247400   53.835500   99.778400
  H    -36.303800   55.012200   99.750800
  H    -36.268400   53.688900   98.451100
  S    -36.774600   55.854700  103.596000
  C    -37.086600   56.390200  105.198000
  C    -36.018900   57.048600  105.717000
  C    -35.055000   57.334400  104.754000
  C    -35.387900   56.993400  103.472000
  H    -36.019400   57.371000  106.747000
  C    -33.962400   58.282700  105.068000
  H    -33.338400   58.395100  104.231000
  H    -33.319900   57.836800  105.871000
  C    -34.442500   59.681800  105.477000
  H    -34.987200   59.630800  106.368000
  H    -35.114800   60.097100  104.743000
  C    -33.301800   60.689900  105.832000
  H    -33.772400   61.639900  106.187000
  H    -32.782000   60.832300  104.943000
  H    -32.798900   60.329800  106.792000
  H    -32.704600   58.281300   99.605400
  H    -37.762800   55.879300  105.953000

 Total Charge           Charge          ....    0
 Multiplicity           Mult            ....    1
 Number of Electrons    NEL             ....  134
 Basis Dimension        Dim             ....  322

ORBITAL ENERGIES
----------------

  NO   OCC          E(Eh)            E(eV)
   0   2.0000     -88.969623     -2420.9865
   1   2.0000     -88.963304     -2420.8146
   2   2.0000     -10.332290      -281.1559
   3   2.0000     -10.326985      -281.0115
   4   2.0000     -10.315615      -280.7022
   5   2.0000     -10.306786      -280.4619
   6   2.0000     -10.299793      -280.2716
   7   2.0000     -10.295904      -280.1658
   8   2.0000     -10.293829      -280.1093
   9   2.0000     -10.293158      -280.0911
  10   2.0000     -10.285935      -279.8945
  11   2.0000     -10.281655      -279.7780
  12   2.0000     -10.280592      -279.7491
  13   2.0000     -10.278418      -279.6900
  14   2.0000     -10.277078      -279.6535
  15   2.0000     -10.273313      -279.5511
  16   2.0000      -8.083853      -219.9728
  17   2.0000      -8.077994      -219.8134
  18   2.0000      -6.042274      -164.4186
  19   2.0000      -6.038624      -164.3193
  20   2.0000      -6.036477      -164.2609
  21   2.0000      -6.034565      -164.2089
  22   2.0000      -6.032767      -164.1599
  23   2.0000      -6.028539      -164.0449
  24   2.0000      -1.012104       -27.5408
  25   2.0000      -0.991232       -26.9728
  26   2.0000      -0.918023       -24.9807
  27   2.0000      -0.910537       -24.7770
  28   2.0000      -0.873633       -23.7728
  29   2.0000      -0.852973       -23.2106
  30   2.0000      -0.846699       -23.0399
  31   2.0000      -0.820082       -22.3156
  32   2.0000      -0.787246       -21.4221
  33   2.0000      -0.772045       -21.0084
  34   2.0000      -0.713030       -19.4025
  35   2.0000      -0.704407       -19.1679
  36   2.0000      -0.695420       -18.9233
  37   2.0000      -0.667103       -18.1528
  38   2.0000      -0.639048       -17.3894
  39   2.0000      -0.620144       -16.8750
  40   2.0000      -0.597549       -16.2601
  41   2.0000      -0.579021       -15.7560
  42   2.0000      -0.571293       -15.5457
  43   2.0000      -0.549290       -14.9469
  44   2.0000      -0.545414       -14.8415
  45   2.0000      -0.524345       -14.2681
  46   2.0000      -0.519788       -14.1442
  47   2.0000      -0.510201       -13.8833
  48   2.0000      -0.508486       -13.8366
  49   2.0000      -0.498253       -13.5582
  50   2.0000      -0.490000       -13.3336
  51   2.0000      -0.477598       -12.9961
  52   2.0000      -0.472509       -12.8576
  53   2.0000      -0.468143       -12.7388
  54   2.0000      -0.463216       -12.6048
  55   2.0000      -0.447427       -12.1751
  56   2.0000      -0.444924       -12.1070
  57   2.0000      -0.440281       -11.9807
  58   2.0000      -0.430952       -11.7268
  59   2.0000      -0.427524       -11.6335
  60   2.0000      -0.422010       -11.4835
  61   2.0000      -0.416110       -11.3229
  62   2.0000      -0.410939       -11.1822
  63   2.0000      -0.356698        -9.7063
  64   2.0000      -0.332150        -9.0382
  65   2.0000      -0.329657        -8.9704
  66   2.0000      -0.287269        -7.8170
  67   0.0000       0.022933         0.6240
  68   0.0000       0.072322         1.9680
  69   0.0000       0.102446         2.7877
  70   0.0000       0.111745         3.0407
  71   0.0000       0.137302         3.7362

MULLIKEN ATOMIC CHARGES
-----------------------
   0 S :    0.099458
   1 C :   -0.097148
   2 C :   -0.077265
   3 C :   -0.006954
   4 C :   -0.139674
   5 H :    0.018358
   6 C :    0.071425
   7 H :    0.028007
   8 H :    0.017926
   9 C :   -0.014233
  10 H :    0.016092
  11 H :    0.016869
  12 C :   -0.047013
  13 H :    0.004063
  14 H :    0.037938
  15 H :    0.040613
  16 S :    0.079451
  17 C :   -0.075306
  18 C :   -0.061885
  19 C :   -0.012326
  20 C :   -0.132777
  21 H :    0.021245
  22 C :    0.067510
  23 H :   -0.002065
  24 H :    0.027451
  25 C :   -0.069844
  26 H :    0.004606
  27 H :    0.027071
  28 C :   -0.047348
  29 H :    0.034189
  30 H :    0.035785
  31 H :    0.041868
  32 H :    0.016360
  33 H :    0.077553
Sum of atomic charges:   -0.0000000

LOEWDIN ATOMIC CHARGES
----------------------
   0 S :    0.412709
   1 C :   -0.188394
   2 C :   -0.059104
   3 C :   -0.065565
   4 C :   -0.174344
   5 H :    0.031928
   6 C :   -0.026606
   7 H :    0.032036
   8 H :    0.029190
   9 C :   -0.027466
  10 H :    0.018631
  11 H :    0.019922
  12 C :   -0.066661
  13 H :    0.012618
  14 H :    0.026670
  15 H :    0.036487
  16 S :    0.389584
  17 C :   -0.199652
  18 C :   -0.072717
  19 C :   -0.059333
  20 C :   -0.177406
  21 H :    0.032527
  22 C :   -0.037679
  23 H :   -0.000593
  24 H :    0.037337
  25 C :   -0.034415
  26 H :    0.011059
  27 H :    0.022123
  28 C :   -0.061279
  29 H :    0.030640
  30 H :    0.015261
  31 H :    0.034933
  32 H :    0.011272
  33 H :    0.046284

  Mayer bond orders larger than 0.100000
B(  0-S ,  1-C ) :   1.1387 B(  0-S ,  4-C ) :   1.1338 B(  1-C ,  2-C ) :   1.6310
B(  1-C , 32-H ) :   0.9693 B(  2-C ,  3-C ) :   1.2325 B(  2-C ,  6-C ) :   1.0362
B(  3-C ,  4-C ) :   1.6002 B(  3-C ,  5-H ) :   0.9722 B(  4-C , 20-C ) :   1.0582
B(  6-C ,  7-H ) :   0.9371 B(  6-C ,  8-H ) :   0.9399 B(  6-C ,  9-C ) :   1.0624
B(  9-C , 10-H ) :   0.9527 B(  9-C , 11-H ) :   0.9571 B(  9-C , 12-C ) :   1.0799
B( 12-C , 13-H ) :   0.9715 B( 12-C , 14-H ) :   0.9663 B( 12-C , 15-H ) :   0.9660
B( 16-S , 17-C ) :   1.1573 B( 16-S , 20-C ) :   1.1178 B( 17-C , 18-C ) :   1.6197
B( 17-C , 33-H ) :   0.9492 B( 18-C , 19-C ) :   1.2391 B( 18-C , 21-H ) :   0.9935
B( 19-C , 20-C ) :   1.5690 B( 19-C , 22-C ) :   1.0723 B( 22-C , 23-H ) :   0.9262
B( 22-C , 24-H ) :   0.9169 B( 22-C , 25-C ) :   1.0606 B( 25-C , 26-H ) :   0.9524
B( 25-C , 27-H ) :   0.9555 B( 25-C , 28-C ) :   1.0833 B( 28-C , 29-H ) :   0.9739
B( 28-C , 30-H ) :   0.9797 B( 28-C , 31-H ) :   0.9746

Dispersion correction           -0.014699224
FINAL SINGLE POINT ENERGY     -1339.855509736269

DIPOLE MOMENT
-------------
                                X             Y             Z
Electronic contribution:     -4.93280      -1.60175       2.78817
Nuclear contribution   :      5.15448       1.46405      -2.76489
                        -----------------------------------------
Total Dipole Moment    :      0.22168      -0.13770       0.02327
                        -----------------------------------------
Magnitude (a.u.)       :      0.26200
Magnitude (Debye)      :      0.66596

Rotational constants in cm-1:     0.021818     0.009039     0.006601
Rotational constants in MHz :   654.078799   270.987158   197.897773

                             ****ORCA TERMINATED NORMALLY****
TOTAL RUN TIME: 0 days 0 hours 0 minutes 31 seconds 207 msec
