                         Program Version 4.2.1 -  RELEASE  -
|  1> ! wB97X-D3 SP def2-SVP
|  2> %pal
|  3> nprocs 16
|  4> end
|  5>
|  6> * xyz 0 1
|  7> S 	 -30.0965 	 33.011 	 42.2811
|  8> C 	 -28.6029 	 32.2502 	 42.5968
|  9> C 	 -28.1826 	 32.4857 	 43.8734
| 10> C 	 -29.1462 	 33.3037 	 44.5921
| 11> C 	 -30.2191 	 33.6601 	 43.8569
| 12> H 	 -29.0612 	 33.7532 	 45.5848
| 13> C 	 -26.799 	 32.2328 	 44.3843
| 14> H 	 -26.4 	 33.1434 	 44.7492
| 15> H 	 -26.0957 	 31.8699 	 43.5598
| 16> C 	 -26.7835 	 31.1765 	 45.4895
| 17> H 	 -25.7782 	 31.1071 	 45.9309
| 18> H 	 -27.2778 	 31.5821 	 46.3599
| 19> C 	 -27.3453 	 29.8582 	 45.0831
| 20> H 	 -27.3986 	 29.7966 	 43.9753
| 21> H 	 -26.8712 	 29.0403 	 45.6226
| 22> H 	 -28.4195 	 29.9016 	 45.4316
| 23> S 	 -32.6622 	 33.2015 	 45.0361
| 24> C 	 -33.5585 	 34.5473 	 45.5859
| 25> C 	 -32.8357 	 35.7458 	 45.4964
| 26> C 	 -31.5889 	 35.5738 	 44.8433
| 27> C 	 -31.4399 	 34.2561 	 44.4223
| 28> H 	 -33.2746 	 36.5962 	 45.9918
| 29> C 	 -30.6146 	 36.7498 	 44.5891
| 30> H 	 -31.088 	 37.5073 	 43.9892
| 31> H 	 -29.7201 	 36.3892 	 44.0972
| 32> C 	 -30.2764 	 37.3941 	 45.9123
| 33> H 	 -31.2125 	 37.8319 	 46.3439
| 34> H 	 -29.6559 	 38.2498 	 45.7863
| 35> C 	 -29.608 	 36.4042 	 46.9018
| 36> H 	 -30.3316 	 35.7009 	 47.3263
| 37> H 	 -29.1221 	 36.9268 	 47.7336
| 38> H 	 -28.7401 	 35.9222 	 46.4151
| 39> H 	 -27.9407 	 31.7196 	 41.9982
| 40> H 	 -34.5518 	 34.4617 	 46.0487
| 41> *
| 42>
| 43>                          ****END OF INPUT****

CARTESIAN COORDINATES (ANGSTROEM)
---------------------------------
  S    -30.096500   33.011000   42.281100
  C    -28.602900   32.250200   42.596800
  C    -28.182600   32.485700   43.873400
  C    -29.146200   33.303700   44.592100
  C    -30.219100   33.660100   43.856900
  H    -29.061200   33.753200   45.584800
  C    -26.799000   32.232800   44.384300
  H    -26.400000   33.143400   44.749200
  H    -26.095700   31.869900   43.559800
  C    -26.783500   31.176500   45.489500
  H    -25.778200   31.107100   45.930900
  H    -27.277800   31.582100   46.359900
  C    -27.345300   29.858200   45.083100
  H    -27.398600   29.796600   43.975300
  H    -26.871200   29.040300   45.622600
  H    -28.419500   29.901600   45.431600
  S    -32.662200   33.201500   45.036100
  C    -33.558500   34.547300   45.585900
  C    -32.835700   35.745800   45.496400
  C    -31.588900   35.573800   44.843300
  C    -31.439900   34.256100   44.422300
  H    -33.274600   36.596200   45.991800
  C    -30.614600   36.749800   44.589100
  H    -31.088000   37.507300   43.989200
  H    -29.720100   36.389200   44.097200
  C    -30.276400   37.394100   45.912300
  H    -31.212500   37.831900   46.343900
  H    -29.655900   38.249800   45.786300
  C    -29.608000   36.404200   46.901800
  H    -30.331600   35.700900   47.326300
  H    -29.122100   36.926800   47.733600
  H    -28.740100   35.922200   46.415100
  H    -27.940700   31.719600   41.998200
  H    -34.551800   34.461700   46.048700

 Total Charge           Charge          ....    0
 Multiplicity           Mult            ....    1
 Number of Electrons    NEL             ....  134
 Basis Dimension        Dim             ....  322

ORBITAL ENERGIES
----------------

  NO   OCC          E(Eh)            E(eV)
   0   2.0000     -88.967593     -2420.9313
   1   2.0000     -88.962786     -2420.8005
   2   2.0000     -10.321324      -280.8575
   3   2.0000     -10.318027      -280.7678
   4   2.0000     -10.316395      -280.7234
   5   2.0000     -10.304408      -280.3972
   6   2.0000     -10.303474      -280.3718
   7   2.0000     -10.295305      -280.1495
   8   2.0000     -10.292960      -280.0857
   9   2.0000     -10.291210      -280.0381
  10   2.0000     -10.290077      -280.0072
  11   2.0000     -10.288299      -279.9589
  12   2.0000     -10.286239      -279.9028
  13   2.0000     -10.280023      -279.7337
  14   2.0000     -10.276997      -279.6513
  15   2.0000     -10.276090      -279.6266
  16   2.0000      -8.083381      -219.9600
  17   2.0000      -8.078972      -219.8400
  18   2.0000      -6.041647      -164.4016
  19   2.0000      -6.037787      -164.2965
  20   2.0000      -6.037406      -164.2862
  21   2.0000      -6.034292      -164.2014
  22   2.0000      -6.033193      -164.1715
  23   2.0000      -6.029793      -164.0790
  24   2.0000      -1.015021       -27.6201
  25   2.0000      -0.992812       -27.0158
  26   2.0000      -0.917442       -24.9649
  27   2.0000      -0.913724       -24.8637
  28   2.0000      -0.871211       -23.7069
  29   2.0000      -0.846573       -23.0364
  30   2.0000      -0.845723       -23.0133
  31   2.0000      -0.813408       -22.1340
  32   2.0000      -0.785040       -21.3620
  33   2.0000      -0.776975       -21.1426
  34   2.0000      -0.705949       -19.2098
  35   2.0000      -0.695624       -18.9289
  36   2.0000      -0.690454       -18.7882
  37   2.0000      -0.654672       -17.8145
  38   2.0000      -0.642694       -17.4886
  39   2.0000      -0.618003       -16.8167
  40   2.0000      -0.599327       -16.3085
  41   2.0000      -0.573452       -15.6044
  42   2.0000      -0.562168       -15.2974
  43   2.0000      -0.555119       -15.1055
  44   2.0000      -0.545363       -14.8401
  45   2.0000      -0.537786       -14.6339
  46   2.0000      -0.519732       -14.1426
  47   2.0000      -0.509072       -13.8525
  48   2.0000      -0.496659       -13.5148
  49   2.0000      -0.492027       -13.3887
  50   2.0000      -0.486765       -13.2456
  51   2.0000      -0.480597       -13.0777
  52   2.0000      -0.469917       -12.7871
  53   2.0000      -0.468904       -12.7595
  54   2.0000      -0.460697       -12.5362
  55   2.0000      -0.447861       -12.1869
  56   2.0000      -0.442875       -12.0512
  57   2.0000      -0.439000       -11.9458
  58   2.0000      -0.436031       -11.8650
  59   2.0000      -0.426710       -11.6114
  60   2.0000      -0.421375       -11.4662
  61   2.0000      -0.419855       -11.4248
  62   2.0000      -0.399332       -10.8664
  63   2.0000      -0.338247        -9.2042
  64   2.0000      -0.329464        -8.9652
  65   2.0000      -0.320891        -8.7319
  66   2.0000      -0.311047        -8.4640
  67   0.0000       0.048570         1.3217
  68   0.0000       0.062903         1.7117
  69   0.0000       0.111948         3.0463
  70   0.0000       0.120506         3.2791
  71   0.0000       0.136118         3.7040

MULLIKEN ATOMIC CHARGES
-----------------------
   0 S :    0.124366
   1 C :   -0.066705
   2 C :   -0.102430
   3 C :    0.034880
   4 C :   -0.190265
   5 H :    0.007360
   6 C :    0.055058
   7 H :    0.022357
   8 H :    0.031514
   9 C :   -0.086944
  10 H :    0.017017
  11 H :    0.014835
  12 C :   -0.035768
  13 H :    0.031327
  14 H :    0.041780
  15 H :    0.041810
  16 S :    0.141814
  17 C :   -0.115915
  18 C :   -0.047141
  19 C :   -0.040043
  20 C :   -0.167246
  21 H :    0.018084
  22 C :    0.131868
  23 H :    0.033976
  24 H :    0.026366
  25 C :   -0.101407
  26 H :    0.028173
  27 H :    0.021220
  28 C :   -0.062729
  29 H :    0.056546
  30 H :    0.028087
  31 H :    0.034049
  32 H :    0.010132
  33 H :    0.063974
Sum of atomic charges:   -0.0000000

LOEWDIN ATOMIC CHARGES
----------------------
   0 S :    0.437358
   1 C :   -0.200975
   2 C :   -0.065947
   3 C :   -0.062106
   4 C :   -0.218103
   5 H :    0.031309
   6 C :   -0.028288
   7 H :    0.026856
   8 H :    0.033848
   9 C :   -0.053493
  10 H :    0.020548
  11 H :    0.018550
  12 C :   -0.070526
  13 H :    0.027469
  14 H :    0.028765
  15 H :    0.038718
  16 S :    0.443296
  17 C :   -0.201173
  18 C :   -0.075979
  19 C :   -0.048134
  20 C :   -0.215508
  21 H :    0.029932
  22 C :   -0.020010
  23 H :    0.032862
  24 H :    0.027913
  25 C :   -0.042135
  26 H :    0.024526
  27 H :    0.018661
  28 C :   -0.069917
  29 H :    0.030054
  30 H :    0.026599
  31 H :    0.025734
  32 H :    0.017267
  33 H :    0.032030

  Mayer bond orders larger than 0.100000
B(  0-S ,  1-C ) :   1.1433 B(  0-S ,  4-C ) :   1.1526 B(  1-C ,  2-C ) :   1.6273
B(  1-C , 32-H ) :   0.9669 B(  2-C ,  3-C ) :   1.2101 B(  2-C ,  6-C ) :   1.0234
B(  3-C ,  4-C ) :   1.6170 B(  3-C ,  5-H ) :   0.9905 B(  4-C , 20-C ) :   0.9848
B(  6-C ,  7-H ) :   0.9411 B(  6-C ,  8-H ) :   0.9479 B(  6-C ,  9-C ) :   1.0806
B(  9-C , 10-H ) :   0.9564 B(  9-C , 11-H ) :   0.9567 B(  9-C , 12-C ) :   1.0587
B( 12-C , 13-H ) :   0.9790 B( 12-C , 14-H ) :   0.9733 B( 12-C , 15-H ) :   0.9707
B( 16-S , 17-C ) :   1.1817 B( 16-S , 20-C ) :   1.1706 B( 17-C , 18-C ) :   1.5910
B( 17-C , 33-H ) :   0.9645 B( 18-C , 19-C ) :   1.2438 B( 18-C , 21-H ) :   0.9950
B( 19-C , 20-C ) :   1.5882 B( 19-C , 22-C ) :   1.0302 B( 22-C , 23-H ) :   0.9376
B( 22-C , 24-H ) :   0.9331 B( 22-C , 25-C ) :   1.0782 B( 25-C , 26-H ) :   0.9527
B( 25-C , 27-H ) :   0.9564 B( 25-C , 28-C ) :   1.0713 B( 28-C , 29-H ) :   0.9711
B( 28-C , 30-H ) :   0.9710 B( 28-C , 31-H ) :   0.9688

Dispersion correction           -0.015770795
FINAL SINGLE POINT ENERGY     -1339.882551636028

DIPOLE MOMENT
-------------
                                X             Y             Z
Electronic contribution:    -18.10616      -3.38049     -13.31189
Nuclear contribution   :     18.45256       3.75964      13.81794
                        -----------------------------------------
Total Dipole Moment    :      0.34640       0.37915       0.50605
                        -----------------------------------------
Magnitude (a.u.)       :      0.72100
Magnitude (Debye)      :      1.83263

Rotational constants in cm-1:     0.020232     0.008886     0.007894
Rotational constants in MHz :   606.531705   266.388464   236.667790

                             ****ORCA TERMINATED NORMALLY****
TOTAL RUN TIME: 0 days 0 hours 0 minutes 35 seconds 546 msec
