                         Program Version 4.2.1 -  RELEASE  -
|  1> ! wB97X-D3 SP def2-SVP
|  2> %pal
|  3> nprocs 16
|  4> end
|  5>
|  6> * xyz 0 1
|  7> S 	 0.862149 	 -17.6426 	 78.4963
|  8> C 	 -0.00569947 	 -17.896 	 80.0742
|  9> C 	 -0.659847 	 -16.7058 	 80.4426
| 10> C 	 -0.180775 	 -15.5834 	 79.6663
| 11> C 	 0.647485 	 -15.8927 	 78.5881
| 12> H 	 -0.553924 	 -14.5356 	 79.8643
| 13> C 	 -1.57486 	 -16.6053 	 81.6523
| 14> H 	 -1.58764 	 -15.5832 	 82.0828
| 15> H 	 -1.21829 	 -17.2052 	 82.5038
| 16> C 	 -3.03135 	 -16.8682 	 81.3063
| 17> H 	 -3.41668 	 -16.1739 	 80.5422
| 18> H 	 -3.16101 	 -17.8536 	 80.8131
| 19> C 	 -3.98474 	 -17.1229 	 82.4911
| 20> H 	 -4.06635 	 -16.132 	 82.9562
| 21> H 	 -4.98617 	 -17.3615 	 82.1835
| 22> H 	 -3.61042 	 -17.9199 	 83.2131
| 23> S 	 0.0351842 	 -14.3469 	 76.4401
| 24> C 	 1.28292 	 -13.6411 	 75.5241
| 25> C 	 2.53282 	 -14.0222 	 75.9342
| 26> C 	 2.54355 	 -14.7257 	 77.1785
| 27> C 	 1.2115 	 -15.0107 	 77.5471
| 28> H 	 3.38837 	 -13.6633 	 75.4569
| 29> C 	 3.84684 	 -15.1494 	 77.8414
| 30> H 	 3.70371 	 -15.555 	 78.8688
| 31> H 	 4.4372 	 -14.2919 	 78.121
| 32> C 	 4.77441 	 -16.0396 	 76.9763
| 33> H 	 5.01107 	 -15.4863 	 76.0708
| 34> H 	 4.34776 	 -16.9379 	 76.6279
| 35> C 	 6.07494 	 -16.3064 	 77.7054
| 36> H 	 6.56877 	 -15.4424 	 78.1458
| 37> H 	 6.82269 	 -16.7532 	 77.0404
| 38> H 	 5.91302 	 -17.0208 	 78.5951
| 39> H 	 -0.178688 	 -18.8335 	 80.588
| 40> H 	 1.16458 	 -13.0593 	 74.6239
| 41> *
| 42>
| 43>                          ****END OF INPUT****

CARTESIAN COORDINATES (ANGSTROEM)
---------------------------------
  S      0.862149  -17.642600   78.496300
  C     -0.005699  -17.896000   80.074200
  C     -0.659847  -16.705800   80.442600
  C     -0.180775  -15.583400   79.666300
  C      0.647485  -15.892700   78.588100
  H     -0.553924  -14.535600   79.864300
  C     -1.574860  -16.605300   81.652300
  H     -1.587640  -15.583200   82.082800
  H     -1.218290  -17.205200   82.503800
  C     -3.031350  -16.868200   81.306300
  H     -3.416680  -16.173900   80.542200
  H     -3.161010  -17.853600   80.813100
  C     -3.984740  -17.122900   82.491100
  H     -4.066350  -16.132000   82.956200
  H     -4.986170  -17.361500   82.183500
  H     -3.610420  -17.919900   83.213100
  S      0.035184  -14.346900   76.440100
  C      1.282920  -13.641100   75.524100
  C      2.532820  -14.022200   75.934200
  C      2.543550  -14.725700   77.178500
  C      1.211500  -15.010700   77.547100
  H      3.388370  -13.663300   75.456900
  C      3.846840  -15.149400   77.841400
  H      3.703710  -15.555000   78.868800
  H      4.437200  -14.291900   78.121000
  C      4.774410  -16.039600   76.976300
  H      5.011070  -15.486300   76.070800
  H      4.347760  -16.937900   76.627900
  C      6.074940  -16.306400   77.705400
  H      6.568770  -15.442400   78.145800
  H      6.822690  -16.753200   77.040400
  H      5.913020  -17.020800   78.595100
  H     -0.178688  -18.833500   80.588000
  H      1.164580  -13.059300   74.623900

 Total Charge           Charge          ....    0
 Multiplicity           Mult            ....    1
 Number of Electrons    NEL             ....  134
 Basis Dimension        Dim             ....  322

ORBITAL ENERGIES
----------------

  NO   OCC          E(Eh)            E(eV)
   0   2.0000     -88.968119     -2420.9456
   1   2.0000     -88.965270     -2420.8681
   2   2.0000     -10.332202      -281.1535
   3   2.0000     -10.327863      -281.0354
   4   2.0000     -10.320625      -280.8385
   5   2.0000     -10.311591      -280.5927
   6   2.0000     -10.308223      -280.5010
   7   2.0000     -10.306567      -280.4559
   8   2.0000     -10.300892      -280.3015
   9   2.0000     -10.296804      -280.1903
  10   2.0000     -10.293714      -280.1062
  11   2.0000     -10.286166      -279.9008
  12   2.0000     -10.286029      -279.8971
  13   2.0000     -10.283098      -279.8173
  14   2.0000     -10.282917      -279.8124
  15   2.0000     -10.281701      -279.7793
  16   2.0000      -8.083648      -219.9673
  17   2.0000      -8.078445      -219.8257
  18   2.0000      -6.041940      -164.4096
  19   2.0000      -6.038046      -164.3036
  20   2.0000      -6.037124      -164.2785
  21   2.0000      -6.034578      -164.2092
  22   2.0000      -6.033194      -164.1715
  23   2.0000      -6.029081      -164.0596
  24   2.0000      -1.004538       -27.3349
  25   2.0000      -0.976307       -26.5667
  26   2.0000      -0.910061       -24.7640
  27   2.0000      -0.909510       -24.7490
  28   2.0000      -0.864637       -23.5280
  29   2.0000      -0.853777       -23.2325
  30   2.0000      -0.838693       -22.8220
  31   2.0000      -0.809644       -22.0315
  32   2.0000      -0.782212       -21.2851
  33   2.0000      -0.769000       -20.9256
  34   2.0000      -0.705686       -19.2027
  35   2.0000      -0.696230       -18.9454
  36   2.0000      -0.692104       -18.8331
  37   2.0000      -0.661682       -18.0053
  38   2.0000      -0.634100       -17.2547
  39   2.0000      -0.615430       -16.7467
  40   2.0000      -0.602562       -16.3965
  41   2.0000      -0.569002       -15.4833
  42   2.0000      -0.559562       -15.2265
  43   2.0000      -0.556015       -15.1299
  44   2.0000      -0.525861       -14.3094
  45   2.0000      -0.520563       -14.1653
  46   2.0000      -0.516518       -14.0552
  47   2.0000      -0.512199       -13.9376
  48   2.0000      -0.503068       -13.6892
  49   2.0000      -0.496924       -13.5220
  50   2.0000      -0.494141       -13.4463
  51   2.0000      -0.476655       -12.9704
  52   2.0000      -0.460805       -12.5391
  53   2.0000      -0.459576       -12.5057
  54   2.0000      -0.458144       -12.4667
  55   2.0000      -0.451039       -12.2734
  56   2.0000      -0.445296       -12.1171
  57   2.0000      -0.441473       -12.0131
  58   2.0000      -0.436418       -11.8755
  59   2.0000      -0.426807       -11.6140
  60   2.0000      -0.424103       -11.5404
  61   2.0000      -0.414232       -11.2718
  62   2.0000      -0.395435       -10.7603
  63   2.0000      -0.335321        -9.1246
  64   2.0000      -0.328953        -8.9513
  65   2.0000      -0.325264        -8.8509
  66   2.0000      -0.302376        -8.2281
  67   0.0000       0.033655         0.9158
  68   0.0000       0.062721         1.7067
  69   0.0000       0.108351         2.9484
  70   0.0000       0.117504         3.1974
  71   0.0000       0.123157         3.3513

MULLIKEN ATOMIC CHARGES
-----------------------
   0 S :    0.105466
   1 C :   -0.118471
   2 C :   -0.087300
   3 C :    0.025778
   4 C :   -0.154414
   5 H :    0.030888
   6 C :    0.055912
   7 H :    0.022583
   8 H :    0.030993
   9 C :   -0.108181
  10 H :    0.036424
  11 H :    0.022448
  12 C :   -0.050923
  13 H :    0.024355
  14 H :    0.033417
  15 H :    0.048327
  16 S :    0.138898
  17 C :   -0.079637
  18 C :   -0.029544
  19 C :    0.015418
  20 C :   -0.198459
  21 H :   -0.001726
  22 C :    0.054333
  23 H :    0.027865
  24 H :    0.017490
  25 C :   -0.040753
  26 H :    0.021410
  27 H :    0.026800
  28 C :   -0.076930
  29 H :    0.025536
  30 H :    0.036178
  31 H :    0.041839
  32 H :    0.052125
  33 H :    0.051856
Sum of atomic charges:    0.0000000

LOEWDIN ATOMIC CHARGES
----------------------
   0 S :    0.376801
   1 C :   -0.177166
   2 C :   -0.059089
   3 C :   -0.071370
   4 C :   -0.197585
   5 H :    0.039228
   6 C :   -0.036668
   7 H :    0.032454
   8 H :    0.033655
   9 C :   -0.052758
  10 H :    0.028074
  11 H :    0.022785
  12 C :   -0.068508
  13 H :    0.021482
  14 H :    0.023606
  15 H :    0.034187
  16 S :    0.439902
  17 C :   -0.197580
  18 C :   -0.066381
  19 C :   -0.044210
  20 C :   -0.210960
  21 H :    0.019820
  22 C :   -0.035354
  23 H :    0.034789
  24 H :    0.031537
  25 C :   -0.033025
  26 H :    0.022786
  27 H :    0.020878
  28 C :   -0.071514
  29 H :    0.021798
  30 H :    0.026932
  31 H :    0.033695
  32 H :    0.028649
  33 H :    0.029111

  Mayer bond orders larger than 0.100000
B(  0-S ,  1-C ) :   1.1280 B(  0-S ,  4-C ) :   1.1393 B(  1-C ,  2-C ) :   1.6114
B(  1-C ,  4-C ) :   0.1029 B(  1-C , 32-H ) :   0.9686 B(  2-C ,  3-C ) :   1.2413
B(  2-C ,  6-C ) :   1.0270 B(  3-C ,  4-C ) :   1.5887 B(  3-C ,  5-H ) :   0.9815
B(  4-C , 20-C ) :   1.0177 B(  6-C ,  7-H ) :   0.9415 B(  6-C ,  8-H ) :   0.9483
B(  6-C ,  9-C ) :   1.0481 B(  9-C , 10-H ) :   0.9552 B(  9-C , 11-H ) :   0.9616
B(  9-C , 12-C ) :   1.0731 B( 12-C , 13-H ) :   0.9753 B( 12-C , 14-H ) :   0.9748
B( 12-C , 15-H ) :   0.9737 B( 16-S , 17-C ) :   1.1661 B( 16-S , 20-C ) :   1.1652
B( 17-C , 18-C ) :   1.6100 B( 17-C , 33-H ) :   0.9651 B( 18-C , 19-C ) :   1.2480
B( 18-C , 21-H ) :   0.9918 B( 19-C , 20-C ) :   1.5725 B( 19-C , 22-C ) :   1.0486
B( 22-C , 23-H ) :   0.9375 B( 22-C , 24-H ) :   0.9290 B( 22-C , 25-C ) :   1.0550
B( 25-C , 26-H ) :   0.9507 B( 25-C , 27-H ) :   0.9556 B( 25-C , 28-C ) :   1.0888
B( 28-C , 29-H ) :   0.9727 B( 28-C , 30-H ) :   0.9729 B( 28-C , 31-H ) :   0.9740

Dispersion correction           -0.013553157
FINAL SINGLE POINT ENERGY     -1339.877566170213

DIPOLE MOMENT
-------------
                                X             Y             Z
Electronic contribution:     -3.22559       3.70136     -14.50412
Nuclear contribution   :      3.33283      -3.55908      14.65091
                        -----------------------------------------
Total Dipole Moment    :      0.10724       0.14228       0.14679
                        -----------------------------------------
Magnitude (a.u.)       :      0.23085
Magnitude (Debye)      :      0.58677

Rotational constants in cm-1:     0.023015     0.006924     0.005745
Rotational constants in MHz :   689.981392   207.581486   172.222357

                             ****ORCA TERMINATED NORMALLY****
TOTAL RUN TIME: 0 days 0 hours 0 minutes 32 seconds 722 msec
