                         Program Version 4.2.1 -  RELEASE  -
|  1> ! wB97X-D3 SP def2-SVP
|  2> %pal
|  3> nprocs 16
|  4> end
|  5>
|  6> * xyz 0 1
|  7> S 	 -9.94294 	 47.0827 	 40.7806
|  8> C 	 -11.355 	 48.04 	 41.1232
|  9> C 	 -11.0432 	 49.2903 	 41.6545
| 10> C 	 -9.60533 	 49.5572 	 41.487
| 11> C 	 -8.87781 	 48.5074 	 40.9171
| 12> H 	 -9.05726 	 50.5177 	 41.5788
| 13> C 	 -11.9711 	 50.3838 	 42.1047
| 14> H 	 -11.6533 	 50.8191 	 43.0815
| 15> H 	 -12.861 	 49.8711 	 42.308
| 16> C 	 -12.2417 	 51.4517 	 41.0996
| 17> H 	 -13.0589 	 52.0523 	 41.4369
| 18> H 	 -11.4473 	 52.0883 	 41.009
| 19> C 	 -12.5775 	 50.9678 	 39.6783
| 20> H 	 -12.701 	 51.7145 	 38.9017
| 21> H 	 -11.7369 	 50.3802 	 39.3621
| 22> H 	 -13.4823 	 50.2972 	 39.8022
| 23> S 	 -6.27472 	 48.1718 	 41.9536
| 24> C 	 -4.99763 	 48.5421 	 40.8949
| 25> C 	 -5.42408 	 48.7445 	 39.5801
| 26> C 	 -6.85274 	 48.6539 	 39.4727
| 27> C 	 -7.46229 	 48.4566 	 40.6343
| 28> H 	 -4.73788 	 49.0502 	 38.8426
| 29> C 	 -7.45413 	 48.7911 	 38.1045
| 30> H 	 -7.08259 	 49.7089 	 37.6438
| 31> H 	 -8.50164 	 49.0922 	 38.1232
| 32> C 	 -7.09176 	 47.5448 	 37.2436
| 33> H 	 -7.48327 	 46.5273 	 37.5442
| 34> H 	 -5.99075 	 47.3636 	 37.227
| 35> C 	 -7.32832 	 47.7091 	 35.7142
| 36> H 	 -8.3891 	 48.072 	 35.5762
| 37> H 	 -7.14537 	 46.8283 	 35.191
| 38> H 	 -6.56621 	 48.3781 	 35.3436
| 39> H 	 -12.3318 	 47.7222 	 40.7463
| 40> H 	 -3.97468 	 48.4371 	 41.1509
| 41> *
| 42>
| 43>                          ****END OF INPUT****

CARTESIAN COORDINATES (ANGSTROEM)
---------------------------------
  S     -9.942940   47.082700   40.780600
  C    -11.355000   48.040000   41.123200
  C    -11.043200   49.290300   41.654500
  C     -9.605330   49.557200   41.487000
  C     -8.877810   48.507400   40.917100
  H     -9.057260   50.517700   41.578800
  C    -11.971100   50.383800   42.104700
  H    -11.653300   50.819100   43.081500
  H    -12.861000   49.871100   42.308000
  C    -12.241700   51.451700   41.099600
  H    -13.058900   52.052300   41.436900
  H    -11.447300   52.088300   41.009000
  C    -12.577500   50.967800   39.678300
  H    -12.701000   51.714500   38.901700
  H    -11.736900   50.380200   39.362100
  H    -13.482300   50.297200   39.802200
  S     -6.274720   48.171800   41.953600
  C     -4.997630   48.542100   40.894900
  C     -5.424080   48.744500   39.580100
  C     -6.852740   48.653900   39.472700
  C     -7.462290   48.456600   40.634300
  H     -4.737880   49.050200   38.842600
  C     -7.454130   48.791100   38.104500
  H     -7.082590   49.708900   37.643800
  H     -8.501640   49.092200   38.123200
  C     -7.091760   47.544800   37.243600
  H     -7.483270   46.527300   37.544200
  H     -5.990750   47.363600   37.227000
  C     -7.328320   47.709100   35.714200
  H     -8.389100   48.072000   35.576200
  H     -7.145370   46.828300   35.191000
  H     -6.566210   48.378100   35.343600
  H    -12.331800   47.722200   40.746300
  H     -3.974680   48.437100   41.150900

 Total Charge           Charge          ....    0
 Multiplicity           Mult            ....    1
 Number of Electrons    NEL             ....  134
 Basis Dimension        Dim             ....  322

ORBITAL ENERGIES
----------------

  NO   OCC          E(Eh)            E(eV)
   0   2.0000     -88.962233     -2420.7854
   1   2.0000     -88.960841     -2420.7475
   2   2.0000     -10.327916      -281.0369
   3   2.0000     -10.318851      -280.7902
   4   2.0000     -10.317279      -280.7474
   5   2.0000     -10.314020      -280.6588
   6   2.0000     -10.307121      -280.4710
   7   2.0000     -10.300712      -280.2966
   8   2.0000     -10.298164      -280.2273
   9   2.0000     -10.294556      -280.1291
  10   2.0000     -10.293631      -280.1039
  11   2.0000     -10.289147      -279.9819
  12   2.0000     -10.287964      -279.9497
  13   2.0000     -10.276464      -279.6368
  14   2.0000     -10.274906      -279.5944
  15   2.0000     -10.273689      -279.5613
  16   2.0000      -8.077617      -219.8031
  17   2.0000      -8.075486      -219.7451
  18   2.0000      -6.036121      -164.2512
  19   2.0000      -6.034040      -164.1946
  20   2.0000      -6.032097      -164.1417
  21   2.0000      -6.030042      -164.0858
  22   2.0000      -6.028263      -164.0374
  23   2.0000      -6.026170      -163.9804
  24   2.0000      -1.005473       -27.3603
  25   2.0000      -0.981029       -26.6952
  26   2.0000      -0.919346       -25.0167
  27   2.0000      -0.906722       -24.6732
  28   2.0000      -0.869806       -23.6686
  29   2.0000      -0.850766       -23.1505
  30   2.0000      -0.840760       -22.8783
  31   2.0000      -0.809588       -22.0300
  32   2.0000      -0.786445       -21.4003
  33   2.0000      -0.776361       -21.1259
  34   2.0000      -0.707981       -19.2651
  35   2.0000      -0.695696       -18.9309
  36   2.0000      -0.692843       -18.8532
  37   2.0000      -0.665398       -18.1064
  38   2.0000      -0.640322       -17.4240
  39   2.0000      -0.615383       -16.7454
  40   2.0000      -0.601831       -16.3766
  41   2.0000      -0.567973       -15.4553
  42   2.0000      -0.558845       -15.2070
  43   2.0000      -0.552627       -15.0378
  44   2.0000      -0.543067       -14.7776
  45   2.0000      -0.532133       -14.4801
  46   2.0000      -0.520807       -14.1719
  47   2.0000      -0.517233       -14.0746
  48   2.0000      -0.509622       -13.8675
  49   2.0000      -0.501477       -13.6459
  50   2.0000      -0.487370       -13.2620
  51   2.0000      -0.470308       -12.7977
  52   2.0000      -0.465703       -12.6724
  53   2.0000      -0.458200       -12.4683
  54   2.0000      -0.456649       -12.4261
  55   2.0000      -0.451432       -12.2841
  56   2.0000      -0.448201       -12.1962
  57   2.0000      -0.435485       -11.8501
  58   2.0000      -0.434238       -11.8162
  59   2.0000      -0.419734       -11.4215
  60   2.0000      -0.417161       -11.3515
  61   2.0000      -0.414685       -11.2842
  62   2.0000      -0.409633       -11.1467
  63   2.0000      -0.334890        -9.1128
  64   2.0000      -0.325602        -8.8601
  65   2.0000      -0.317193        -8.6313
  66   2.0000      -0.312700        -8.5090
  67   0.0000       0.038614         1.0507
  68   0.0000       0.058670         1.5965
  69   0.0000       0.102454         2.7879
  70   0.0000       0.123107         3.3499
  71   0.0000       0.127157         3.4601

MULLIKEN ATOMIC CHARGES
-----------------------
   0 S :    0.102260
   1 C :   -0.132015
   2 C :   -0.118252
   3 C :    0.027732
   4 C :   -0.208079
   5 H :    0.033493
   6 C :    0.108785
   7 H :    0.042732
   8 H :   -0.000389
   9 C :   -0.026429
  10 H :    0.022129
  11 H :    0.002891
  12 C :   -0.073529
  13 H :    0.038153
  14 H :    0.039137
  15 H :    0.029883
  16 S :    0.117914
  17 C :   -0.074666
  18 C :   -0.034709
  19 C :    0.006645
  20 C :   -0.187305
  21 H :    0.006848
  22 C :    0.118117
  23 H :    0.015690
  24 H :    0.024903
  25 C :   -0.124189
  26 H :    0.045052
  27 H :    0.028580
  28 C :   -0.032030
  29 H :    0.042683
  30 H :    0.020938
  31 H :    0.025354
  32 H :    0.063533
  33 H :    0.048141
Sum of atomic charges:    0.0000000

LOEWDIN ATOMIC CHARGES
----------------------
   0 S :    0.386407
   1 C :   -0.197573
   2 C :   -0.060212
   3 C :   -0.059741
   4 C :   -0.188032
   5 H :    0.038634
   6 C :   -0.030018
   7 H :    0.043100
   8 H :    0.022303
   9 C :   -0.034066
  10 H :    0.023366
  11 H :    0.009299
  12 C :   -0.063541
  13 H :    0.025776
  14 H :    0.022544
  15 H :    0.027517
  16 S :    0.401930
  17 C :   -0.183712
  18 C :   -0.068216
  19 C :   -0.045386
  20 C :   -0.200555
  21 H :    0.023552
  22 C :   -0.030354
  23 H :    0.033905
  24 H :    0.031242
  25 C :   -0.044307
  26 H :    0.031105
  27 H :    0.026606
  28 C :   -0.063779
  29 H :    0.029837
  30 H :    0.017034
  31 H :    0.021933
  32 H :    0.030668
  33 H :    0.022736

  Mayer bond orders larger than 0.100000
B(  0-S ,  1-C ) :   1.1507 B(  0-S ,  4-C ) :   1.1259 B(  1-C ,  2-C ) :   1.6100
B(  1-C , 32-H ) :   0.9649 B(  2-C ,  3-C ) :   1.1940 B(  2-C ,  6-C ) :   1.0360
B(  3-C ,  4-C ) :   1.6254 B(  3-C ,  5-H ) :   0.9850 B(  4-C , 20-C ) :   1.0346
B(  6-C ,  7-H ) :   0.9360 B(  6-C ,  8-H ) :   0.9290 B(  6-C ,  9-C ) :   1.0750
B(  9-C , 10-H ) :   0.9528 B(  9-C , 11-H ) :   0.9519 B(  9-C , 12-C ) :   1.0752
B( 12-C , 13-H ) :   0.9741 B( 12-C , 14-H ) :   0.9705 B( 12-C , 15-H ) :   0.9777
B( 16-S , 17-C ) :   1.1722 B( 16-S , 20-C ) :   1.1058 B( 17-C , 18-C ) :   1.6153
B( 17-C , 33-H ) :   0.9681 B( 18-C , 19-C ) :   1.2060 B( 18-C , 21-H ) :   0.9980
B( 19-C , 20-C ) :   1.6638 B( 19-C , 22-C ) :   1.0518 B( 22-C , 23-H ) :   0.9332
B( 22-C , 24-H ) :   0.9235 B( 22-C , 25-C ) :   1.0350 B( 25-C , 26-H ) :   0.9591
B( 25-C , 27-H ) :   0.9622 B( 25-C , 28-C ) :   1.0781 B( 28-C , 29-H ) :   0.9753
B( 28-C , 30-H ) :   0.9738 B( 28-C , 31-H ) :   0.9788

Dispersion correction           -0.014869921
FINAL SINGLE POINT ENERGY     -1339.861361929662

DIPOLE MOMENT
-------------
                                X             Y             Z
Electronic contribution:     10.68248     -11.01480      18.46186
Nuclear contribution   :    -10.67586      11.50171     -18.90562
                        -----------------------------------------
Total Dipole Moment    :      0.00662       0.48691      -0.44376
                        -----------------------------------------
Magnitude (a.u.)       :      0.65882
Magnitude (Debye)      :      1.67458

Rotational constants in cm-1:     0.018211     0.008678     0.007183
Rotational constants in MHz :   545.939475   260.154234   215.344157

                             ****ORCA TERMINATED NORMALLY****
TOTAL RUN TIME: 0 days 0 hours 0 minutes 35 seconds 833 msec
