                         Program Version 4.2.1 -  RELEASE  -
|  1> ! wB97X-D3 SP def2-SVP
|  2> %pal
|  3> nprocs 16
|  4> end
|  5>
|  6> * xyz 0 1
|  7> S 	 56.0051 	 10.107 	 76.2104
|  8> C 	 56.7853 	 11.6639 	 76.1796
|  9> C 	 57.094 	 12.1305 	 74.9077
| 10> C 	 56.5494 	 11.221 	 73.9468
| 11> C 	 55.9182 	 10.1046 	 74.4412
| 12> H 	 56.4839 	 11.4223 	 72.8999
| 13> C 	 57.7498 	 13.4379 	 74.4385
| 14> H 	 57.037 	 14.2212 	 74.7037
| 15> H 	 57.794 	 13.4855 	 73.3667
| 16> C 	 59.1393 	 13.666 	 74.9829
| 17> H 	 59.1218 	 13.5803 	 76.0582
| 18> H 	 59.8482 	 12.7667 	 74.7699
| 19> C 	 59.7313 	 14.9607 	 74.4522
| 20> H 	 59.0988 	 15.7749 	 74.6747
| 21> H 	 60.6751 	 15.1467 	 74.9341
| 22> H 	 59.9024 	 14.9612 	 73.3945
| 23> S 	 53.4353 	 9.32636 	 73.5943
| 24> C 	 53.2475 	 7.71429 	 72.8003
| 25> C 	 54.4473 	 7.13659 	 72.6329
| 26> C 	 55.5805 	 7.92525 	 73.0535
| 27> C 	 55.2057 	 9.11721 	 73.7125
| 28> H 	 54.4811 	 6.10374 	 72.2704
| 29> C 	 57.0402 	 7.41757 	 72.934
| 30> H 	 57.0018 	 6.35472 	 72.81
| 31> H 	 57.647 	 7.68727 	 73.8332
| 32> C 	 57.7881 	 8.09712 	 71.7581
| 33> H 	 58.6971 	 7.58419 	 71.5302
| 34> H 	 58.0962 	 9.1047 	 71.8922
| 35> C 	 56.9688 	 8.0311 	 70.4883
| 36> H 	 56.5336 	 6.96786 	 70.2904
| 37> H 	 57.6798 	 8.22851 	 69.679
| 38> H 	 56.1314 	 8.73991 	 70.3781
| 39> H 	 57.0376 	 12.2463 	 77.1091
| 40> H 	 52.3605 	 7.13731 	 72.7812
| 41> *
| 42>
| 43>                          ****END OF INPUT****

CARTESIAN COORDINATES (ANGSTROEM)
---------------------------------
  S     56.005100   10.107000   76.210400
  C     56.785300   11.663900   76.179600
  C     57.094000   12.130500   74.907700
  C     56.549400   11.221000   73.946800
  C     55.918200   10.104600   74.441200
  H     56.483900   11.422300   72.899900
  C     57.749800   13.437900   74.438500
  H     57.037000   14.221200   74.703700
  H     57.794000   13.485500   73.366700
  C     59.139300   13.666000   74.982900
  H     59.121800   13.580300   76.058200
  H     59.848200   12.766700   74.769900
  C     59.731300   14.960700   74.452200
  H     59.098800   15.774900   74.674700
  H     60.675100   15.146700   74.934100
  H     59.902400   14.961200   73.394500
  S     53.435300    9.326360   73.594300
  C     53.247500    7.714290   72.800300
  C     54.447300    7.136590   72.632900
  C     55.580500    7.925250   73.053500
  C     55.205700    9.117210   73.712500
  H     54.481100    6.103740   72.270400
  C     57.040200    7.417570   72.934000
  H     57.001800    6.354720   72.810000
  H     57.647000    7.687270   73.833200
  C     57.788100    8.097120   71.758100
  H     58.697100    7.584190   71.530200
  H     58.096200    9.104700   71.892200
  C     56.968800    8.031100   70.488300
  H     56.533600    6.967860   70.290400
  H     57.679800    8.228510   69.679000
  H     56.131400    8.739910   70.378100
  H     57.037600   12.246300   77.109100
  H     52.360500    7.137310   72.781200

 Total Charge           Charge          ....    0
 Multiplicity           Mult            ....    1
 Number of Electrons    NEL             ....  134
 Basis Dimension        Dim             ....  322

ORBITAL ENERGIES
----------------

  NO   OCC          E(Eh)            E(eV)
   0   2.0000     -88.967907     -2420.9398
   1   2.0000     -88.959659     -2420.7154
   2   2.0000     -10.327166      -281.0165
   3   2.0000     -10.324177      -280.9351
   4   2.0000     -10.320666      -280.8396
   5   2.0000     -10.313325      -280.6398
   6   2.0000     -10.309265      -280.5294
   7   2.0000     -10.302832      -280.3543
   8   2.0000     -10.293800      -280.1085
   9   2.0000     -10.293676      -280.1052
  10   2.0000     -10.293506      -280.1005
  11   2.0000     -10.291576      -280.0480
  12   2.0000     -10.291355      -280.0420
  13   2.0000     -10.277428      -279.6630
  14   2.0000     -10.277231      -279.6577
  15   2.0000     -10.273196      -279.5479
  16   2.0000      -8.082385      -219.9329
  17   2.0000      -8.073322      -219.6863
  18   2.0000      -6.040891      -164.3810
  19   2.0000      -6.036973      -164.2744
  20   2.0000      -6.033107      -164.1692
  21   2.0000      -6.032025      -164.1397
  22   2.0000      -6.027986      -164.0298
  23   2.0000      -6.023906      -163.9188
  24   2.0000      -1.002046       -27.2671
  25   2.0000      -0.976893       -26.5826
  26   2.0000      -0.915812       -24.9205
  27   2.0000      -0.904526       -24.6134
  28   2.0000      -0.874118       -23.7860
  29   2.0000      -0.851750       -23.1773
  30   2.0000      -0.836991       -22.7757
  31   2.0000      -0.814242       -22.1566
  32   2.0000      -0.784146       -21.3377
  33   2.0000      -0.767446       -20.8833
  34   2.0000      -0.710809       -19.3421
  35   2.0000      -0.704752       -19.1773
  36   2.0000      -0.686578       -18.6827
  37   2.0000      -0.655858       -17.8468
  38   2.0000      -0.643819       -17.5192
  39   2.0000      -0.615457       -16.7474
  40   2.0000      -0.584365       -15.9014
  41   2.0000      -0.573890       -15.6163
  42   2.0000      -0.559699       -15.2302
  43   2.0000      -0.555305       -15.1106
  44   2.0000      -0.544351       -14.8125
  45   2.0000      -0.527689       -14.3591
  46   2.0000      -0.520963       -14.1761
  47   2.0000      -0.508812       -13.8455
  48   2.0000      -0.501507       -13.6467
  49   2.0000      -0.498849       -13.5744
  50   2.0000      -0.484408       -13.1814
  51   2.0000      -0.479040       -13.0353
  52   2.0000      -0.471583       -12.8324
  53   2.0000      -0.467726       -12.7275
  54   2.0000      -0.456437       -12.4203
  55   2.0000      -0.450408       -12.2562
  56   2.0000      -0.440785       -11.9944
  57   2.0000      -0.436211       -11.8699
  58   2.0000      -0.429479       -11.6867
  59   2.0000      -0.428268       -11.6538
  60   2.0000      -0.418256       -11.3813
  61   2.0000      -0.409463       -11.1420
  62   2.0000      -0.408556       -11.1174
  63   2.0000      -0.338883        -9.2215
  64   2.0000      -0.329223        -8.9586
  65   2.0000      -0.315543        -8.5864
  66   2.0000      -0.309914        -8.4332
  67   0.0000       0.034338         0.9344
  68   0.0000       0.053598         1.4585
  69   0.0000       0.115448         3.1415
  70   0.0000       0.118607         3.2275
  71   0.0000       0.124589         3.3902

MULLIKEN ATOMIC CHARGES
-----------------------
   0 S :    0.130137
   1 C :   -0.152937
   2 C :   -0.076436
   3 C :    0.050711
   4 C :   -0.181937
   5 H :    0.005301
   6 C :    0.092318
   7 H :    0.040329
   8 H :    0.010842
   9 C :   -0.119555
  10 H :    0.020585
  11 H :    0.038461
  12 C :    0.008911
  13 H :    0.016784
  14 H :    0.027542
  15 H :    0.028608
  16 S :    0.084349
  17 C :   -0.070092
  18 C :   -0.048968
  19 C :   -0.030245
  20 C :   -0.187042
  21 H :    0.029245
  22 C :    0.092946
  23 H :    0.017456
  24 H :    0.042851
  25 C :   -0.034743
  26 H :    0.018635
  27 H :    0.022733
  28 C :   -0.100764
  29 H :    0.030288
  30 H :    0.026966
  31 H :    0.050741
  32 H :    0.065719
  33 H :    0.050261
Sum of atomic charges:   -0.0000000

LOEWDIN ATOMIC CHARGES
----------------------
   0 S :    0.407753
   1 C :   -0.202641
   2 C :   -0.065016
   3 C :   -0.048312
   4 C :   -0.205816
   5 H :    0.027536
   6 C :   -0.028945
   7 H :    0.036474
   8 H :    0.026264
   9 C :   -0.047431
  10 H :    0.018301
  11 H :    0.034802
  12 C :   -0.057323
  13 H :    0.020129
  14 H :    0.027528
  15 H :    0.024657
  16 S :    0.362944
  17 C :   -0.164935
  18 C :   -0.073268
  19 C :   -0.045242
  20 C :   -0.191581
  21 H :    0.036066
  22 C :   -0.025434
  23 H :    0.025090
  24 H :    0.038252
  25 C :   -0.038786
  26 H :    0.022180
  27 H :    0.020749
  28 C :   -0.075382
  29 H :    0.028654
  30 H :    0.023506
  31 H :    0.025878
  32 H :    0.036528
  33 H :    0.026822

  Mayer bond orders larger than 0.100000
B(  0-S ,  1-C ) :   1.1542 B(  0-S ,  4-C ) :   1.1274 B(  1-C ,  2-C ) :   1.6113
B(  1-C , 32-H ) :   0.9573 B(  2-C ,  3-C ) :   1.2464 B(  2-C ,  6-C ) :   1.0046
B(  3-C ,  4-C ) :   1.6042 B(  3-C ,  5-H ) :   0.9909 B(  4-C , 20-C ) :   1.0559
B(  6-C ,  7-H ) :   0.9334 B(  6-C ,  8-H ) :   0.9452 B(  6-C ,  9-C ) :   1.0590
B(  9-C , 10-H ) :   0.9568 B(  9-C , 11-H ) :   0.9536 B(  9-C , 12-C ) :   1.0847
B( 12-C , 13-H ) :   0.9718 B( 12-C , 14-H ) :   0.9705 B( 12-C , 15-H ) :   0.9733
B( 16-S , 17-C ) :   1.1225 B( 16-S , 20-C ) :   1.1300 B( 17-C , 18-C ) :   1.6708
B( 17-C , 33-H ) :   0.9631 B( 18-C , 19-C ) :   1.2105 B( 18-C , 21-H ) :   0.9778
B( 19-C , 20-C ) :   1.6050 B( 19-C , 22-C ) :   1.0426 B( 22-C , 23-H ) :   0.9362
B( 22-C , 24-H ) :   0.9371 B( 22-C , 25-C ) :   1.0747 B( 25-C , 26-H ) :   0.9560
B( 25-C , 27-H ) :   0.9516 B( 25-C , 28-C ) :   1.0790 B( 28-C , 29-H ) :   0.9752
B( 28-C , 30-H ) :   0.9738 B( 28-C , 31-H ) :   0.9701

Dispersion correction           -0.014661321
FINAL SINGLE POINT ENERGY     -1339.876343738884

DIPOLE MOMENT
-------------
                                X             Y             Z
Electronic contribution:    -21.65801      -8.99878      12.22918
Nuclear contribution   :     22.17386       9.14099     -12.41515
                        -----------------------------------------
Total Dipole Moment    :      0.51585       0.14221      -0.18597
                        -----------------------------------------
Magnitude (a.u.)       :      0.56649
Magnitude (Debye)      :      1.43990

Rotational constants in cm-1:     0.021265     0.007779     0.006552
Rotational constants in MHz :   637.501015   233.207044   196.430064

                             ****ORCA TERMINATED NORMALLY****
TOTAL RUN TIME: 0 days 0 hours 0 minutes 29 seconds 772 msec
