                         Program Version 4.2.1 -  RELEASE  -
|  1> ! wB97X-D3 SP def2-SVP
|  2> %pal
|  3> nprocs 16
|  4> end
|  5>
|  6> * xyz 0 1
|  7> S 	 43.7124 	 18.8111 	 79.1423
|  8> C 	 43.2786 	 19.0774 	 80.8188
|  9> C 	 44.3948 	 19.0227 	 81.6425
| 10> C 	 45.625 	 18.9556 	 80.8507
| 11> C 	 45.4134 	 18.7914 	 79.4996
| 12> H 	 46.6082 	 18.9279 	 81.3369
| 13> C 	 44.316 	 18.9585 	 83.1837
| 14> H 	 45.0859 	 18.2135 	 83.4855
| 15> H 	 43.3257 	 18.5646 	 83.5811
| 16> C 	 44.5396 	 20.2493 	 84.0039
| 17> H 	 44.0012 	 21.0971 	 83.5921
| 18> H 	 44.2824 	 20.1644 	 85.0611
| 19> C 	 45.9544 	 20.7261 	 83.9714
| 20> H 	 46.3675 	 20.7457 	 82.9902
| 21> H 	 46.0872 	 21.7323 	 84.4285
| 22> H 	 46.5835 	 20.0441 	 84.5409
| 23> S 	 45.7219 	 18.2555 	 76.8538
| 24> C 	 47.3067 	 18.4699 	 76.1238
| 25> C 	 48.2617 	 18.6987 	 77.0649
| 26> C 	 47.808 	 18.7552 	 78.3888
| 27> C 	 46.4103 	 18.6881 	 78.4335
| 28> H 	 49.2975 	 18.6754 	 76.8597
| 29> C 	 48.7405 	 19.2024 	 79.5309
| 30> H 	 48.2317 	 19.6263 	 80.3369
| 31> H 	 49.3777 	 19.9834 	 79.1167
| 32> C 	 49.6209 	 18.0085 	 79.9733
| 33> H 	 50.2777 	 18.4291 	 80.7471
| 34> H 	 50.2699 	 17.7845 	 79.2042
| 35> C 	 48.8997 	 16.7429 	 80.5123
| 36> H 	 48.418 	 16.16 	 79.7584
| 37> H 	 48.166 	 16.894 	 81.3049
| 38> H 	 49.7976 	 16.2517 	 80.9249
| 39> H 	 42.2533 	 19.0113 	 81.1892
| 40> H 	 47.5741 	 18.1503 	 75.1235
| 41> *
| 42>
| 43>                          ****END OF INPUT****

CARTESIAN COORDINATES (ANGSTROEM)
---------------------------------
  S     43.712400   18.811100   79.142300
  C     43.278600   19.077400   80.818800
  C     44.394800   19.022700   81.642500
  C     45.625000   18.955600   80.850700
  C     45.413400   18.791400   79.499600
  H     46.608200   18.927900   81.336900
  C     44.316000   18.958500   83.183700
  H     45.085900   18.213500   83.485500
  H     43.325700   18.564600   83.581100
  C     44.539600   20.249300   84.003900
  H     44.001200   21.097100   83.592100
  H     44.282400   20.164400   85.061100
  C     45.954400   20.726100   83.971400
  H     46.367500   20.745700   82.990200
  H     46.087200   21.732300   84.428500
  H     46.583500   20.044100   84.540900
  S     45.721900   18.255500   76.853800
  C     47.306700   18.469900   76.123800
  C     48.261700   18.698700   77.064900
  C     47.808000   18.755200   78.388800
  C     46.410300   18.688100   78.433500
  H     49.297500   18.675400   76.859700
  C     48.740500   19.202400   79.530900
  H     48.231700   19.626300   80.336900
  H     49.377700   19.983400   79.116700
  C     49.620900   18.008500   79.973300
  H     50.277700   18.429100   80.747100
  H     50.269900   17.784500   79.204200
  C     48.899700   16.742900   80.512300
  H     48.418000   16.160000   79.758400
  H     48.166000   16.894000   81.304900
  H     49.797600   16.251700   80.924900
  H     42.253300   19.011300   81.189200
  H     47.574100   18.150300   75.123500

 Total Charge           Charge          ....    0
 Multiplicity           Mult            ....    1
 Number of Electrons    NEL             ....  134
 Basis Dimension        Dim             ....  322

ORBITAL ENERGIES
----------------

  NO   OCC          E(Eh)            E(eV)
   0   2.0000     -88.967086     -2420.9175
   1   2.0000     -88.966655     -2420.9058
   2   2.0000     -10.332946      -281.1738
   3   2.0000     -10.332807      -281.1700
   4   2.0000     -10.315807      -280.7074
   5   2.0000     -10.315770      -280.7064
   6   2.0000     -10.309356      -280.5318
   7   2.0000     -10.304770      -280.4070
   8   2.0000     -10.303106      -280.3618
   9   2.0000     -10.298699      -280.2419
  10   2.0000     -10.290362      -280.0150
  11   2.0000     -10.287575      -279.9392
  12   2.0000     -10.285515      -279.8831
  13   2.0000     -10.283109      -279.8176
  14   2.0000     -10.278409      -279.6897
  15   2.0000     -10.270879      -279.4848
  16   2.0000      -8.081978      -219.9218
  17   2.0000      -8.081038      -219.8962
  18   2.0000      -6.040665      -164.3749
  19   2.0000      -6.039607      -164.3461
  20   2.0000      -6.036502      -164.2616
  21   2.0000      -6.035741      -164.2409
  22   2.0000      -6.032498      -164.1526
  23   2.0000      -6.031637      -164.1292
  24   2.0000      -1.008293       -27.4371
  25   2.0000      -0.984076       -26.7781
  26   2.0000      -0.912628       -24.8339
  27   2.0000      -0.909378       -24.7454
  28   2.0000      -0.872454       -23.7407
  29   2.0000      -0.852082       -23.1863
  30   2.0000      -0.842906       -22.9366
  31   2.0000      -0.815517       -22.1914
  32   2.0000      -0.787348       -21.4248
  33   2.0000      -0.774386       -21.0721
  34   2.0000      -0.708467       -19.2784
  35   2.0000      -0.699571       -19.0363
  36   2.0000      -0.695388       -18.9225
  37   2.0000      -0.665585       -18.1115
  38   2.0000      -0.636611       -17.3231
  39   2.0000      -0.621839       -16.9211
  40   2.0000      -0.600222       -16.3329
  41   2.0000      -0.571055       -15.5392
  42   2.0000      -0.551366       -15.0034
  43   2.0000      -0.549094       -14.9416
  44   2.0000      -0.546171       -14.8621
  45   2.0000      -0.535387       -14.5686
  46   2.0000      -0.520931       -14.1753
  47   2.0000      -0.516282       -14.0488
  48   2.0000      -0.504838       -13.7373
  49   2.0000      -0.497950       -13.5499
  50   2.0000      -0.493981       -13.4419
  51   2.0000      -0.480113       -13.0645
  52   2.0000      -0.476006       -12.9528
  53   2.0000      -0.466272       -12.6879
  54   2.0000      -0.460346       -12.5267
  55   2.0000      -0.452791       -12.3211
  56   2.0000      -0.443263       -12.0618
  57   2.0000      -0.434024       -11.8104
  58   2.0000      -0.429509       -11.6875
  59   2.0000      -0.426017       -11.5925
  60   2.0000      -0.423507       -11.5242
  61   2.0000      -0.416124       -11.3233
  62   2.0000      -0.409221       -11.1355
  63   2.0000      -0.364435        -9.9168
  64   2.0000      -0.338527        -9.2118
  65   2.0000      -0.326941        -8.8965
  66   2.0000      -0.282446        -7.6858
  67   0.0000       0.016498         0.4489
  68   0.0000       0.079255         2.1566
  69   0.0000       0.094089         2.5603
  70   0.0000       0.110962         3.0194
  71   0.0000       0.133199         3.6245

MULLIKEN ATOMIC CHARGES
-----------------------
   0 S :    0.096656
   1 C :   -0.112340
   2 C :   -0.089219
   3 C :   -0.036333
   4 C :   -0.070398
   5 H :    0.014939
   6 C :    0.018922
   7 H :    0.034093
   8 H :    0.038751
   9 C :   -0.036996
  10 H :    0.028936
  11 H :    0.032475
  12 C :   -0.071476
  13 H :    0.022098
  14 H :    0.037425
  15 H :    0.014275
  16 S :    0.080644
  17 C :   -0.062490
  18 C :   -0.016404
  19 C :   -0.062913
  20 C :   -0.127495
  21 H :   -0.000644
  22 C :    0.077681
  23 H :    0.007424
  24 H :    0.029633
  25 C :   -0.072389
  26 H :    0.024916
  27 H :    0.009340
  28 C :   -0.046362
  29 H :    0.048272
  30 H :    0.035784
  31 H :    0.039824
  32 H :    0.057069
  33 H :    0.056301
Sum of atomic charges:    0.0000000

LOEWDIN ATOMIC CHARGES
----------------------
   0 S :    0.402357
   1 C :   -0.196773
   2 C :   -0.059262
   3 C :   -0.077200
   4 C :   -0.190149
   5 H :    0.027385
   6 C :   -0.035574
   7 H :    0.033698
   8 H :    0.038734
   9 C :   -0.044954
  10 H :    0.026102
  11 H :    0.026637
  12 C :   -0.069086
  13 H :    0.016644
  14 H :    0.030403
  15 H :    0.018014
  16 S :    0.384215
  17 C :   -0.179891
  18 C :   -0.065791
  19 C :   -0.055479
  20 C :   -0.174924
  21 H :    0.024766
  22 C :   -0.020439
  23 H :    0.015613
  24 H :    0.034577
  25 C :   -0.032916
  26 H :    0.025114
  27 H :    0.012110
  28 C :   -0.062471
  29 H :    0.025453
  30 H :    0.024317
  31 H :    0.035927
  32 H :    0.031983
  33 H :    0.030860

  Mayer bond orders larger than 0.100000
B(  0-S ,  1-C ) :   1.1279 B(  0-S ,  4-C ) :   1.1441 B(  1-C ,  2-C ) :   1.6332
B(  1-C , 32-H ) :   0.9639 B(  2-C ,  3-C ) :   1.2327 B(  2-C ,  6-C ) :   1.0150
B(  3-C ,  4-C ) :   1.5760 B(  3-C ,  5-H ) :   0.9789 B(  4-C , 20-C ) :   1.0823
B(  6-C ,  7-H ) :   0.9450 B(  6-C ,  8-H ) :   0.9477 B(  6-C ,  9-C ) :   1.0642
B(  9-C , 10-H ) :   0.9538 B(  9-C , 11-H ) :   0.9561 B(  9-C , 12-C ) :   1.0841
B( 12-C , 13-H ) :   0.9743 B( 12-C , 14-H ) :   0.9713 B( 12-C , 15-H ) :   0.9741
B( 16-S , 17-C ) :   1.1354 B( 16-S , 20-C ) :   1.1392 B( 17-C , 18-C ) :   1.6169
B( 17-C , 33-H ) :   0.9646 B( 18-C , 19-C ) :   1.2645 B( 18-C , 21-H ) :   0.9846
B( 19-C , 20-C ) :   1.5750 B( 19-C , 22-C ) :   1.0223 B( 22-C , 23-H ) :   0.9453
B( 22-C , 24-H ) :   0.9412 B( 22-C , 25-C ) :   1.0672 B( 25-C , 26-H ) :   0.9586
B( 25-C , 27-H ) :   0.9566 B( 25-C , 28-C ) :   1.0629 B( 28-C , 29-H ) :   0.9744
B( 28-C , 30-H ) :   0.9764 B( 28-C , 31-H ) :   0.9739

Dispersion correction           -0.014860291
FINAL SINGLE POINT ENERGY     -1339.878451403779

DIPOLE MOMENT
-------------
                                X             Y             Z
Electronic contribution:    -15.41923      -2.11160     -25.53077
Nuclear contribution   :     15.97159       2.02835      26.04180
                        -----------------------------------------
Total Dipole Moment    :      0.55236      -0.08325       0.51103
                        -----------------------------------------
Magnitude (a.u.)       :      0.75709
Magnitude (Debye)      :      1.92437

Rotational constants in cm-1:     0.018944     0.009640     0.006993
Rotational constants in MHz :   567.912451   289.001155   209.653511

                             ****ORCA TERMINATED NORMALLY****
TOTAL RUN TIME: 0 days 0 hours 0 minutes 29 seconds 844 msec
