                         Program Version 4.2.1 -  RELEASE  -
|  1> ! wB97X-D3 SP def2-SVP
|  2> %pal
|  3> nprocs 16
|  4> end
|  5>
|  6> * xyz 0 1
|  7> S 	 -53.8966 	 55.2792 	 136.903
|  8> C 	 -52.745 	 56.5162 	 136.367
|  9> C 	 -52.7856 	 57.7185 	 137.057
| 10> C 	 -53.8056 	 57.6198 	 138.168
| 11> C 	 -54.4591 	 56.3698 	 138.218
| 12> H 	 -54.0754 	 58.431 	 138.844
| 13> C 	 -52.0582 	 58.9752 	 136.69
| 14> H 	 -51.2672 	 58.7909 	 135.939
| 15> H 	 -51.4702 	 59.3257 	 137.541
| 16> C 	 -53.0319 	 60.1321 	 136.254
| 17> H 	 -53.3095 	 60.1029 	 135.17
| 18> H 	 -53.8895 	 60.1139 	 136.881
| 19> C 	 -52.5276 	 61.57 	 136.522
| 20> H 	 -51.5588 	 61.6403 	 136.078
| 21> H 	 -53.3484 	 62.3401 	 136.126
| 22> H 	 -52.3995 	 61.739 	 137.564
| 23> S 	 -56.835 	 55.0818 	 138.511
| 24> C 	 -57.8239 	 55.4227 	 139.897
| 25> C 	 -57.0505 	 55.9525 	 140.925
| 26> C 	 -55.7574 	 56.2812 	 140.502
| 27> C 	 -55.5149 	 55.9495 	 139.132
| 28> H 	 -57.5364 	 56.2494 	 141.853
| 29> C 	 -54.7955 	 57.1343 	 141.323
| 30> H 	 -55.0065 	 58.2212 	 141.126
| 31> H 	 -53.7775 	 56.9494 	 140.939
| 32> C 	 -54.7379 	 56.744 	 142.837
| 33> H 	 -54.2041 	 55.8634 	 142.942
| 34> H 	 -55.7341 	 56.6485 	 143.059
| 35> C 	 -54.1826 	 57.8421 	 143.713
| 36> H 	 -54.5672 	 58.7909 	 143.561
| 37> H 	 -53.0988 	 57.9114 	 143.609
| 38> H 	 -54.3362 	 57.6876 	 144.79
| 39> H 	 -52.1054 	 56.3367 	 135.535
| 40> H 	 -58.9009 	 55.2809 	 139.888
| 41> *
| 42>
| 43>                          ****END OF INPUT****

CARTESIAN COORDINATES (ANGSTROEM)
---------------------------------
  S    -53.896600   55.279200  136.903000
  C    -52.745000   56.516200  136.367000
  C    -52.785600   57.718500  137.057000
  C    -53.805600   57.619800  138.168000
  C    -54.459100   56.369800  138.218000
  H    -54.075400   58.431000  138.844000
  C    -52.058200   58.975200  136.690000
  H    -51.267200   58.790900  135.939000
  H    -51.470200   59.325700  137.541000
  C    -53.031900   60.132100  136.254000
  H    -53.309500   60.102900  135.170000
  H    -53.889500   60.113900  136.881000
  C    -52.527600   61.570000  136.522000
  H    -51.558800   61.640300  136.078000
  H    -53.348400   62.340100  136.126000
  H    -52.399500   61.739000  137.564000
  S    -56.835000   55.081800  138.511000
  C    -57.823900   55.422700  139.897000
  C    -57.050500   55.952500  140.925000
  C    -55.757400   56.281200  140.502000
  C    -55.514900   55.949500  139.132000
  H    -57.536400   56.249400  141.853000
  C    -54.795500   57.134300  141.323000
  H    -55.006500   58.221200  141.126000
  H    -53.777500   56.949400  140.939000
  C    -54.737900   56.744000  142.837000
  H    -54.204100   55.863400  142.942000
  H    -55.734100   56.648500  143.059000
  C    -54.182600   57.842100  143.713000
  H    -54.567200   58.790900  143.561000
  H    -53.098800   57.911400  143.609000
  H    -54.336200   57.687600  144.790000
  H    -52.105400   56.336700  135.535000
  H    -58.900900   55.280900  139.888000

 Total Charge           Charge          ....    0
 Multiplicity           Mult            ....    1
 Number of Electrons    NEL             ....  134
 Basis Dimension        Dim             ....  322

ORBITAL ENERGIES
----------------

  NO   OCC          E(Eh)            E(eV)
   0   2.0000     -88.966802     -2420.9098
   1   2.0000     -88.965574     -2420.8763
   2   2.0000     -10.339160      -281.3428
   3   2.0000     -10.325644      -280.9751
   4   2.0000     -10.318932      -280.7924
   5   2.0000     -10.315150      -280.6895
   6   2.0000     -10.311074      -280.5786
   7   2.0000     -10.305965      -280.4396
   8   2.0000     -10.305089      -280.4157
   9   2.0000     -10.300297      -280.2853
  10   2.0000     -10.296444      -280.1805
  11   2.0000     -10.294207      -280.1196
  12   2.0000     -10.289219      -279.9839
  13   2.0000     -10.284029      -279.8426
  14   2.0000     -10.274829      -279.5923
  15   2.0000     -10.270883      -279.4849
  16   2.0000      -8.082808      -219.9444
  17   2.0000      -8.079431      -219.8525
  18   2.0000      -6.041049      -164.3853
  19   2.0000      -6.038177      -164.3071
  20   2.0000      -6.037043      -164.2763
  21   2.0000      -6.034247      -164.2002
  22   2.0000      -6.033863      -164.1898
  23   2.0000      -6.029826      -164.0799
  24   2.0000      -1.007974       -27.4284
  25   2.0000      -0.974101       -26.5066
  26   2.0000      -0.911425       -24.8011
  27   2.0000      -0.907394       -24.6914
  28   2.0000      -0.869497       -23.6602
  29   2.0000      -0.855261       -23.2728
  30   2.0000      -0.842192       -22.9172
  31   2.0000      -0.812844       -22.1186
  32   2.0000      -0.780333       -21.2339
  33   2.0000      -0.768416       -20.9097
  34   2.0000      -0.711697       -19.3663
  35   2.0000      -0.701108       -19.0781
  36   2.0000      -0.692627       -18.8473
  37   2.0000      -0.657468       -17.8906
  38   2.0000      -0.639320       -17.3968
  39   2.0000      -0.619322       -16.8526
  40   2.0000      -0.599031       -16.3005
  41   2.0000      -0.573529       -15.6065
  42   2.0000      -0.564708       -15.3665
  43   2.0000      -0.561039       -15.2667
  44   2.0000      -0.527567       -14.3558
  45   2.0000      -0.523106       -14.2344
  46   2.0000      -0.518918       -14.1205
  47   2.0000      -0.512093       -13.9348
  48   2.0000      -0.506001       -13.7690
  49   2.0000      -0.501588       -13.6489
  50   2.0000      -0.496458       -13.5093
  51   2.0000      -0.475809       -12.9474
  52   2.0000      -0.467571       -12.7232
  53   2.0000      -0.461203       -12.5500
  54   2.0000      -0.458342       -12.4721
  55   2.0000      -0.452658       -12.3174
  56   2.0000      -0.448581       -12.2065
  57   2.0000      -0.441999       -12.0274
  58   2.0000      -0.431317       -11.7367
  59   2.0000      -0.428652       -11.6642
  60   2.0000      -0.421349       -11.4655
  61   2.0000      -0.417734       -11.3671
  62   2.0000      -0.407367       -11.0850
  63   2.0000      -0.355846        -9.6831
  64   2.0000      -0.332513        -9.0481
  65   2.0000      -0.324538        -8.8311
  66   2.0000      -0.282202        -7.6791
  67   0.0000       0.023327         0.6348
  68   0.0000       0.070928         1.9300
  69   0.0000       0.101452         2.7607
  70   0.0000       0.114559         3.1173
  71   0.0000       0.135568         3.6890

MULLIKEN ATOMIC CHARGES
-----------------------
   0 S :    0.087706
   1 C :   -0.107931
   2 C :   -0.076157
   3 C :   -0.000462
   4 C :   -0.129484
   5 H :    0.021020
   6 C :    0.068076
   7 H :    0.026241
   8 H :    0.026489
   9 C :   -0.082069
  10 H :    0.048396
  11 H :    0.026698
  12 C :   -0.083400
  13 H :    0.030073
  14 H :    0.058232
  15 H :    0.025135
  16 S :    0.116774
  17 C :   -0.115188
  18 C :   -0.039940
  19 C :   -0.039439
  20 C :   -0.137018
  21 H :    0.033507
  22 C :   -0.009350
  23 H :    0.052329
  24 H :    0.036697
  25 C :    0.005541
  26 H :    0.026522
  27 H :    0.000597
  28 C :   -0.032675
  29 H :    0.008619
  30 H :    0.024279
  31 H :    0.027456
  32 H :    0.037555
  33 H :    0.065173
Sum of atomic charges:   -0.0000000

LOEWDIN ATOMIC CHARGES
----------------------
   0 S :    0.362079
   1 C :   -0.182053
   2 C :   -0.055402
   3 C :   -0.062204
   4 C :   -0.170626
   5 H :    0.029822
   6 C :   -0.036792
   7 H :    0.033926
   8 H :    0.032396
   9 C :   -0.039034
  10 H :    0.031793
  11 H :    0.019169
  12 C :   -0.068686
  13 H :    0.017507
  14 H :    0.044437
  15 H :    0.014828
  16 S :    0.441043
  17 C :   -0.188349
  18 C :   -0.075449
  19 C :   -0.059504
  20 C :   -0.222264
  21 H :    0.035133
  22 C :   -0.034815
  23 H :    0.033146
  24 H :    0.031610
  25 C :   -0.021579
  26 H :    0.022065
  27 H :    0.009712
  28 C :   -0.060547
  29 H :    0.013479
  30 H :    0.025278
  31 H :    0.029039
  32 H :    0.020247
  33 H :    0.030595

  Mayer bond orders larger than 0.100000
B(  0-S ,  1-C ) :   1.1125 B(  0-S ,  4-C ) :   1.1188 B(  1-C ,  2-C ) :   1.6683
B(  1-C , 32-H ) :   0.9667 B(  2-C ,  3-C ) :   1.1696 B(  2-C ,  6-C ) :   1.0479
B(  3-C ,  4-C ) :   1.6143 B(  3-C ,  5-H ) :   0.9830 B(  4-C , 20-C ) :   1.0666
B(  6-C ,  7-H ) :   0.9382 B(  6-C ,  8-H ) :   0.9375 B(  6-C ,  9-C ) :   1.0412
B(  9-C , 10-H ) :   0.9586 B(  9-C , 11-H ) :   0.9647 B(  9-C , 12-C ) :   1.0731
B( 12-C , 13-H ) :   0.9770 B( 12-C , 14-H ) :   0.9734 B( 12-C , 15-H ) :   0.9777
B( 16-S , 17-C ) :   1.1888 B( 16-S , 20-C ) :   1.1693 B( 17-C , 18-C ) :   1.5526
B( 17-C , 20-C ) :   0.1072 B( 17-C , 33-H ) :   0.9698 B( 18-C , 19-C ) :   1.2886
B( 18-C , 21-H ) :   0.9882 B( 19-C , 20-C ) :   1.5213 B( 19-C , 22-C ) :   1.0403
B( 22-C , 23-H ) :   0.9404 B( 22-C , 24-H ) :   0.9348 B( 22-C , 25-C ) :   1.0493
B( 25-C , 26-H ) :   0.9570 B( 25-C , 27-H ) :   0.9563 B( 25-C , 28-C ) :   1.0949
B( 28-C , 29-H ) :   0.9736 B( 28-C , 30-H ) :   0.9735 B( 28-C , 31-H ) :   0.9720

Dispersion correction           -0.013284042
FINAL SINGLE POINT ENERGY     -1339.862661678531

DIPOLE MOMENT
-------------
                                X             Y             Z
Electronic contribution:    -11.41059     -25.23361     -12.26468
Nuclear contribution   :     11.45421      25.91839      12.57232
                        -----------------------------------------
Total Dipole Moment    :      0.04361       0.68479       0.30763
                        -----------------------------------------
Magnitude (a.u.)       :      0.75198
Magnitude (Debye)      :      1.91138

Rotational constants in cm-1:     0.015802     0.008453     0.006403
Rotational constants in MHz :   473.734909   253.401310   191.953461

                             ****ORCA TERMINATED NORMALLY****
TOTAL RUN TIME: 0 days 0 hours 0 minutes 34 seconds 438 msec
